Title
82292
    1SAPS     N    1   5.617   6.134  10.996 -0.4459  0.3241 -0.4522
    1SAPS   HN1    2   5.708   6.110  11.041 -0.9045 -0.1404  0.2452
    1SAPS   HN2    3   5.554   6.052  11.003  0.9904 -0.7890 -0.0658
    1SAPS   HN3    4   5.639   6.150  10.896 -0.6235  1.2378 -0.3501
    1SAPS   C12    5   5.543   6.248  11.041 -0.8570  0.6704 -0.3483
    1SAPS  H12A    6   5.448   6.250  10.990 -0.6136 -0.3889 -0.8616
    1SAPS   C13    7   5.501   6.230  11.191 -0.1030 -0.1360 -0.1691
    1SAPS  O13A    8   5.529   6.126  11.248  0.2275 -0.6696 -0.2246
    1SAPS  O13B    9   5.416   6.313  11.232 -0.7370 -0.0144  0.4203
    1SAPS   C11   10   5.622   6.379  11.018  0.0371 -0.1182  0.2540
    1SAPS  H11A   11   5.725   6.370  11.058 -0.6371 -0.0089  2.0945
    1SAPS  H11B   12   5.575   6.452  11.087 -2.2498 -0.7056 -0.5973
    1SAPS     P   13   5.519   6.500  10.803  0.0246  0.0014 -0.1510
    1SAPS   O13   14   5.443   6.583  10.897  0.2810 -0.0293  0.1014
    1SAPS   O14   15   5.573   6.568  10.688  0.1553 -1.1251  0.1178
    1SAPS   O12   16   5.630   6.418  10.879 -0.1801 -0.6073 -0.3964
    1SAPS   O11   17   5.429   6.378  10.755 -0.2989  0.1333 -0.5420
    1SAPS    C1   18   5.345   6.391  10.641  0.0442  0.0013 -0.0202
    1SAPS    HA   19   5.252   6.331  10.655  0.0278  0.3202  1.4356
    1SAPS    HB   20   5.306   6.494  10.628 -0.6486 -0.3493 -0.7961
    1SAPS    C2   21   5.415   6.331  10.514 -0.2435  0.1888 -0.0933
    1SAPS    HS   22   5.488   6.408  10.479  1.9580 -1.6113  0.3483
    1SAPS   O21   23   5.318   6.297  10.409  0.9365 -0.0416 -0.5835
    1SAPS   C21   24   5.271   6.397  10.338 -0.5106 -0.7385 -0.0679
    1SAPS   O22   25   5.299   6.516  10.354  0.2567 -0.3323  0.1802
    1SAPS   C22   26   5.188   6.351  10.229  0.4338  0.2864 -0.4390
    1SAPS   H2R   27   5.217   6.245  10.211 -0.1590 -0.0749  0.6477
    1SAPS   H2S   28   5.084   6.357  10.267  0.0202  2.9292 -1.7776
    1SAPS    C3   29   5.514   6.211  10.526 -0.5984  0.5281  0.6295
    1SAPS    HX   30   5.446   6.129  10.558 -0.8948  0.3071 -0.5436
    1SAPS    HY   31   5.590   6.239  10.603  1.1182  2.6822 -1.6770
    1SAPS   O31   32   5.565   6.200  10.393 -0.5998  0.1183  0.1272
    1SAPS   C31   33   5.610   6.082  10.355 -0.2672 -0.6407  0.8099
    1SAPS   O32   34   5.612   5.988  10.429 -0.3216 -0.1731 -0.5807
    1SAPS   C32   35   5.655   6.095  10.208 -0.7806  0.2923 -0.4376
    1SAPS   H2X   36   5.761   6.126  10.211 -0.2036 -1.5626 -0.7873
    1SAPS   H2Y   37   5.615   6.188  10.163  0.8898  0.3295 -1.9576
    1SAPS   C23   38   5.192   6.439  10.107  0.4499 -0.3793  0.1939
    1SAPS   H3R   39   5.176   6.547  10.125 -1.2193 -0.3601 -1.1399
    1SAPS   H3S   40   5.109   6.416  10.037  0.3149  0.0789  0.2005
    1SAPS   C24   41   5.329   6.425  10.027  0.0663 -0.1185  0.1395
    1SAPS   H4R   42   5.409   6.437  10.103 -1.0467 -1.4133  1.5781
    1SAPS   H4S   43   5.325   6.511   9.956 -0.3574  0.5561  0.9653
    1SAPS   C25   44   5.340   6.290   9.953  0.2152  0.0890  0.0008
    1SAPS   H5R   45   5.364   6.200  10.012  0.5615  1.0132  1.3272
    1SAPS   C26   46   5.353   6.273   9.823 -0.1915  0.1024  0.9977
    1SAPS   H6R   47   5.374   6.172   9.787  2.0508  0.5057  1.0606
    1SAPS   C27   48   5.335   6.374   9.712  0.2215  0.4985 -0.1355
    1SAPS   H7R   49   5.428   6.380   9.651 -0.3341  1.0371 -0.9508
    1SAPS   H7S   50   5.334   6.478   9.750 -0.4778 -0.4025  2.5296
    1SAPS   C28   51   5.211   6.331   9.629 -0.1197 -0.5646 -0.2282
    1SAPS   H8R   52   5.122   6.319   9.693  0.7467 -0.2917  1.0497
    1SAPS   C29   53   5.203   6.292   9.498 -0.5896  0.2934 -0.1674
    1SAPS   H9R   54   5.107   6.255   9.461 -0.9329 -1.3813  2.1775
    1SAPS  C210   55   5.318   6.278   9.402  0.3556  0.3517  0.0227
    1SAPS  H10R   56   5.284   6.204   9.327 -2.7143  0.4427  1.1472
    1SAPS  H10S   57   5.409   6.244   9.455 -0.9109 -0.4082  1.8529
    1SAPS  C211   58   5.351   6.405   9.330 -1.0895 -0.4195 -0.5095
    1SAPS  H11R   59   5.429   6.465   9.380 -1.9388  1.3745 -1.2266
    1SAPS  C212   60   5.303   6.458   9.211  0.1824 -0.4950  1.3915
    1SAPS  H12R   61   5.345   6.555   9.181 -0.6306  0.1018  2.1262
    1SAPS  C213   62   5.190   6.400   9.123  0.5771 -0.2855 -0.4935
    1SAPS  H13R   63   5.112   6.476   9.102  0.6883 -0.3207 -1.0367
    1SAPS  H13S   64   5.135   6.318   9.174 -2.1027  0.6897 -1.6497
    1SAPS  C214   65   5.259   6.346   9.000 -0.0067  0.0053  0.1406
    1SAPS  H14R   66   5.307   6.248   9.013  2.5859  1.2502  0.8144
    1SAPS  C215   67   5.260   6.396   8.877  0.3119  0.3437 -0.5958
    1SAPS  H15R   68   5.327   6.347   8.805  0.8977 -0.5225  0.4930
    1SAPS  C216   69   5.209   6.528   8.825  0.6290  0.4770  0.1677
    1SAPS  H16R   70   5.265   6.562   8.736 -0.2917 -0.2388 -0.6996
    1SAPS  H16S   71   5.231   6.600   8.907 -0.3786  0.6729  0.2720
    1SAPS  C217   72   5.060   6.540   8.794  0.0973 -0.4740  0.0954
    1SAPS  H17R   73   5.005   6.511   8.886 -0.7464  3.3040  0.9530
    1SAPS  H17S   74   5.040   6.463   8.717 -0.9131  1.0222 -1.1985
    1SAPS  C218   75   5.008   6.680   8.748  0.3587 -0.3471 -0.1537
    1SAPS  H18R   76   4.898   6.674   8.737  0.2872 -2.4462  1.1856
    1SAPS  H18S   77   5.053   6.691   8.646 -0.5512  0.0827 -0.5177
    1SAPS  C219   78   5.045   6.786   8.848 -0.5917 -0.0731  0.3199
    1SAPS  H19R   79   5.154   6.807   8.847 -0.5618 -0.2331 -0.0150
    1SAPS  H19S   80   5.008   6.756   8.948 -1.3479 -1.8329 -0.4306
    1SAPS  C220   81   4.985   6.932   8.809  0.5847 -1.0532  0.1721
    1SAPS  H20R   82   5.030   6.969   8.714  0.6637 -0.3453  0.4820
    1SAPS  H20S   83   5.015   7.004   8.888 -0.8965 -0.5763  0.3312
    1SAPS  H20T   84   4.877   6.951   8.796  0.7853  0.2379  0.2385
    1SAPS   C33   85   5.635   5.972  10.124  0.8363  0.0896 -0.3929
    1SAPS   H3X   86   5.525   5.973  10.107  0.8315  1.3537 -0.3448
    1SAPS   H3Y   87   5.654   5.878  10.182 -0.1370 -0.1441 -0.4357
    1SAPS   C34   88   5.701   5.944   9.988 -0.1075 -0.2757 -0.7834
    1SAPS   H4X   89   5.688   5.836   9.965 -1.3640 -0.3812  0.3369
    1SAPS   H4Y   90   5.807   5.977   9.994 -0.1659 -0.0287 -1.0770
    1SAPS   C35   91   5.635   6.024   9.875 -0.3424 -0.2439  0.1347
    1SAPS   H5X   92   5.668   6.129   9.895 -0.0959  0.1272 -1.9980
    1SAPS   H5Y   93   5.524   6.016   9.865 -0.2256 -1.3469 -0.3495
    1SAPS   C36   94   5.698   5.991   9.737 -0.0034  0.5643 -0.0790
    1SAPS   H6X   95   5.657   5.891   9.713 -2.0198  0.6051  2.7234
    1SAPS   H6Y   96   5.805   5.986   9.767 -0.0442 -3.0101 -0.1061
    1SAPS   C37   97   5.665   6.089   9.624  0.7850 -0.2647 -0.3672
    1SAPS   H7X   98   5.736   6.171   9.650 -0.1918  0.3671  0.3882
    1SAPS   H7Y   99   5.559   6.122   9.621  0.6941 -0.5509 -0.3660
    1SAPS   C38  100   5.707   6.042   9.478  0.1412 -0.6948 -0.5272
    1SAPS   H8X  101   5.639   5.964   9.438 -0.9800 -1.0657  1.8810
    1SAPS   H8Y  102   5.815   6.017   9.487 -0.2661 -1.8361  2.3025
    1SAPS   C39  103   5.711   6.159   9.373  0.1640  0.0002 -0.6075
    1SAPS   H9X  104   5.790   6.230   9.405 -0.4786 -0.5800  2.6824
    1SAPS   H9Y  105   5.612   6.209   9.372 -0.1795 -0.4914  1.9145
    1SAPS  C310  106   5.748   6.103   9.228  0.0197  0.3452 -0.3853
    1SAPS  H10X  107   5.748   5.992   9.231  1.6576  0.3333  0.0405
    1SAPS  H10Y  108   5.841   6.144   9.183  1.0226 -1.7829 -0.3289
    1SAPS  C311  109   5.635   6.142   9.127  0.1787  0.3765 -1.3283
    1SAPS  H11X  110   5.616   6.251   9.132  3.4612  0.9951  2.0981
    1SAPS  H11Y  111   5.546   6.088   9.166  2.7901 -1.6569  2.4665
    1SAPS  C312  112   5.663   6.095   8.988  0.2746  0.2062 -0.0316
    1SAPS  H12X  113   5.584   6.114   8.912 -1.1384  2.2896  1.8467
    1SAPS  H12Y  114   5.673   5.985   9.005 -1.4589  0.2150  1.4104
    1SAPS  C313  115   5.792   6.145   8.925 -0.4129 -0.8792  0.5259
    1SAPS  H13X  116   5.880   6.095   8.970  0.4602 -0.3532 -0.5570
    1SAPS  H13Y  117   5.808   6.251   8.955  0.4375 -0.4346 -1.3561
    1SAPS  C314  118   5.793   6.135   8.775 -0.3663  0.5062 -0.0156
    1SAPS  H14X  119   5.728   6.211   8.728 -3.7058 -0.9740  1.8509
    1SAPS  H14Y  120   5.757   6.033   8.750 -0.3318  0.3359  0.6130
    1SAPS  C315  121   5.938   6.132   8.717  0.3659  0.4463  0.2582
    1SAPS  H15X  122   6.010   6.052   8.746  2.0525  1.1721 -1.6550
    1SAPS  H15Y  123   5.985   6.232   8.723  1.0653  0.1407 -0.0356
    1SAPS  C316  124   5.933   6.102   8.567 -0.4383 -0.4241  0.8378
    1SAPS  H16X  125   5.898   5.999   8.546 -0.4938  0.3268 -3.6562
    1SAPS  H16Y  126   6.040   6.105   8.541 -0.3587 -0.4467  1.1569
    1SAPS  C317  127   5.852   6.211   8.499  0.5409 -0.5035  0.2201
    1SAPS  H17X  128   5.894   6.309   8.527  0.0873 -0.8158  2.1706
    1SAPS  H17Y  129   5.743   6.207   8.523  0.5703 -0.0530  0.4334
    1SAPS  C318  130   5.855   6.188   8.344  0.2395  0.4815  0.0062
    1SAPS  H18X  131   5.811   6.089   8.319  0.3326  0.1403  1.1317
    1SAPS  H18Y  132   5.963   6.198   8.320  0.8055  2.4996  2.9319
    1SAPS  H18Z  133   5.796   6.267   8.293 -2.5178 -1.7989 -0.6036
    2SAPS     N  134   2.965   1.240  11.124  0.1360 -0.5057  0.2317
    2SAPS   HN1  135   2.944   1.254  11.224 -0.9215 -0.5885  0.0396
    2SAPS   HN2  136   2.990   1.139  11.120  0.3793 -0.4896  1.1226
    2SAPS   HN3  137   3.039   1.307  11.098 -0.6654  0.0876 -0.5923
    2SAPS   C12  138   2.847   1.264  11.028  0.1673 -0.2542 -0.0685
    2SAPS  H12A  139   2.879   1.231  10.930 -2.9241  0.2908 -1.3787
    2SAPS   C13  140   2.709   1.207  11.047 -0.0049 -0.0890  0.1752
    2SAPS  O13A  141   2.690   1.164  11.168  0.0731  0.3145  0.0328
    2SAPS  O13B  142   2.614   1.228  10.967 -0.5378  0.6784 -0.1417
    2SAPS   C11  143   2.828   1.411  11.006  0.3027  0.3435  0.8918
    2SAPS  H11A  144   2.789   1.456  11.099 -0.0612 -0.6147  1.2140
    2SAPS  H11B  145   2.751   1.418  10.926  1.2217 -0.2903 -0.0872
    2SAPS     P  146   2.933   1.630  10.919 -0.0052  0.4791  0.1398
    2SAPS   O13  147   2.877   1.703  11.039  0.0578 -0.2085  0.1462
    2SAPS   O14  148   3.059   1.684  10.860  0.7418 -0.0400 -0.2707
    2SAPS   O12  149   2.949   1.471  10.964 -0.1915 -0.4049  0.8134
    2SAPS   O11  150   2.824   1.627  10.809 -0.3497  0.1832 -0.1544
    2SAPS    C1  151   2.846   1.540  10.695  0.9682  0.2400 -0.3083
    2SAPS    HA  152   2.891   1.443  10.723  1.4872  1.2849  2.8295
    2SAPS    HB  153   2.750   1.522  10.642  2.2278 -2.5021 -1.8573
    2SAPS    C2  154   2.923   1.615  10.582  0.1667 -0.8485 -0.1621
    2SAPS    HS  155   2.978   1.696  10.636  3.9372 -2.3126 -1.4852
    2SAPS   O21  156   2.827   1.670  10.486  0.1242 -0.3914 -0.1520
    2SAPS   C21  157   2.856   1.799  10.442  0.3427  0.5641  0.6012
    2SAPS   O22  158   2.961   1.851  10.470 -0.2143  0.0346  0.6012
    2SAPS   C22  159   2.735   1.856  10.358 -0.1450  0.1585 -0.0565
    2SAPS   H2R  160   2.729   1.806  10.259  0.9361  0.0488 -0.0772
    2SAPS   H2S  161   2.642   1.836  10.414 -1.3676  0.5461 -1.8639
    2SAPS    C3  162   3.039   1.537  10.510 -0.0700  0.4971 -0.0823
    2SAPS    HX  163   2.997   1.455  10.448  2.2311  0.2102 -1.3853
    2SAPS    HY  164   3.105   1.497  10.589 -1.2047  1.5405  1.4468
    2SAPS   O31  165   3.117   1.608  10.424 -0.0924 -0.2437  0.1972
    2SAPS   C31  166   3.212   1.696  10.467  0.4931  0.0384 -0.3541
    2SAPS   O32  167   3.242   1.712  10.583 -0.4404 -0.1352 -0.1383
    2SAPS   C32  168   3.271   1.762  10.347  0.0299  0.3132  0.6152
    2SAPS   H2X  169   3.329   1.852  10.376 -0.4777  1.3052 -1.3009
    2SAPS   H2Y  170   3.192   1.812  10.288  0.4557  2.1452  1.5147
    2SAPS   C23  171   2.763   2.007  10.333 -0.3437 -0.4765  0.5478
    2SAPS   H3R  172   2.843   2.016  10.257 -1.1448 -1.6336 -0.4649
    2SAPS   H3S  173   2.798   2.059  10.425 -1.1096 -1.9775  1.7296
    2SAPS   C24  174   2.633   2.082  10.281  0.2331  0.4189  0.1868
    2SAPS   H4R  175   2.553   2.065  10.357  0.4965  3.6945  1.3456
    2SAPS   H4S  176   2.590   2.044  10.186  1.3095  2.1766 -1.0751
    2SAPS   C25  177   2.673   2.226  10.279  0.0192  0.0303  0.0598
    2SAPS   H5R  178   2.680   2.262  10.383  0.5136 -1.5247  0.5994
    2SAPS   C26  179   2.687   2.301  10.171 -0.2968 -0.4441 -0.2141
    2SAPS   H6R  180   2.708   2.406  10.196  0.0831 -0.0704 -1.9262
    2SAPS   C27  181   2.678   2.249  10.026  0.6059  0.5096 -0.0986
    2SAPS   H7R  182   2.705   2.142  10.016 -0.5211  0.3550 -1.8245
    2SAPS   H7S  183   2.753   2.302   9.964 -0.3153  2.1007  0.1113
    2SAPS   C28  184   2.539   2.256   9.956  0.2334  0.1586 -0.3155
    2SAPS   H8R  185   2.449   2.211   9.999  0.3372 -1.6974 -1.8864
    2SAPS   C29  186   2.516   2.305   9.835 -0.5175 -0.1031 -0.4677
    2SAPS   H9R  187   2.417   2.293   9.788  0.1533  1.6062 -2.5146
    2SAPS  C210  188   2.626   2.360   9.747 -0.3434 -0.3568  0.3971
    2SAPS  H10R  189   2.725   2.311   9.744 -0.6684 -1.0774  1.1250
    2SAPS  H10S  190   2.651   2.461   9.787 -3.5963 -0.1167  2.1529
    2SAPS  C211  191   2.577   2.388   9.608 -0.1118 -0.2763  0.5373
    2SAPS  H11R  192   2.544   2.492   9.595  3.2903  1.1308  1.7677
    2SAPS  C212  193   2.566   2.294   9.513  0.4347 -0.5194 -0.2528
    2SAPS  H12R  194   2.510   2.311   9.420  1.6138  0.6516 -0.7852
    2SAPS  C213  195   2.593   2.145   9.519 -0.3036 -0.7359  0.3741
    2SAPS  H13R  196   2.615   2.121   9.625  1.4529 -0.7772  0.0435
    2SAPS  H13S  197   2.676   2.129   9.446 -1.6581 -0.0502 -1.3680
    2SAPS  C214  198   2.471   2.065   9.479 -0.0850 -0.1682  0.0128
    2SAPS  H14R  199   2.403   2.033   9.559  0.8107 -0.9564  0.4940
    2SAPS  C215  200   2.431   2.038   9.355 -0.2915  0.3902  0.0913
    2SAPS  H15R  201   2.335   1.988   9.339  1.0306 -2.5183  0.6800
    2SAPS  C216  202   2.517   2.068   9.227 -0.2750 -0.8392  0.5098
    2SAPS  H16R  203   2.612   2.011   9.224 -0.0696 -0.4909  0.3169
    2SAPS  H16S  204   2.550   2.174   9.216  0.0382 -0.4755  3.9276
    2SAPS  C217  205   2.437   2.034   9.097 -0.1499 -0.0295  0.4377
    2SAPS  H17R  206   2.344   2.096   9.101  0.8112  1.4392  3.6816
    2SAPS  H17S  207   2.405   1.928   9.093  1.3314 -0.4899  0.4485
    2SAPS  C218  208   2.515   2.070   8.970 -0.3012  0.3067 -0.1221
    2SAPS  H18R  209   2.612   2.016   8.969 -0.5950 -0.4498 -3.9011
    2SAPS  H18S  210   2.551   2.175   8.969 -0.7250  0.4562  0.2243
    2SAPS  C219  211   2.454   2.022   8.843 -0.8221 -0.0840  0.2790
    2SAPS  H19R  212   2.347   2.047   8.827 -1.0068 -0.5251  0.8100
    2SAPS  H19S  213   2.459   1.911   8.845  0.5641 -0.0715 -0.8179
    2SAPS  C220  214   2.524   2.071   8.719  0.0578  0.4402  0.4900
    2SAPS  H20R  215   2.634   2.063   8.728  0.1111 -3.9752 -1.5321
    2SAPS  H20S  216   2.499   2.177   8.695  0.5140  0.9676  2.1740
    2SAPS  H20T  217   2.500   2.009   8.630  2.6456  0.2875 -0.1809
    2SAPS   C33  218   3.363   1.677  10.250 -0.4639  0.5703  0.7508
    2SAPS   H3X  219   3.318   1.579  10.224  1.1713  0.0678 -0.3336
    2SAPS   H3Y  220   3.458   1.653  10.302  1.4738  0.2141 -2.6516
    2SAPS   C34  221   3.400   1.758  10.124  0.2295 -0.1400 -0.0458
    2SAPS   H4X  222   3.473   1.695  10.069  0.2174 -0.1480 -0.0535
    2SAPS   H4Y  223   3.441   1.858  10.151 -0.7983  0.1759  0.4220
    2SAPS   C35  224   3.279   1.775  10.027 -0.3946 -0.5352  0.3410
    2SAPS   H5X  225   3.315   1.824   9.935 -1.0462 -0.8952 -0.1135
    2SAPS   H5Y  226   3.211   1.853  10.068  1.2807  1.4839 -0.5346
    2SAPS   C36  227   3.195   1.647  10.001  0.6795 -0.2046  0.0258
    2SAPS   H6X  228   3.112   1.690   9.940  1.2237  1.6263  0.5214
    2SAPS   H6Y  229   3.157   1.616  10.101  3.3509  1.1010  1.5322
    2SAPS   C37  230   3.261   1.528   9.934 -0.7256  0.3664  0.3805
    2SAPS   H7X  231   3.194   1.442   9.913  1.4287 -1.2009 -0.5301
    2SAPS   H7Y  232   3.349   1.499   9.996  1.2270  1.9965 -1.4296
    2SAPS   C38  233   3.326   1.568   9.801 -0.3834 -0.1663 -0.2372
    2SAPS   H8X  234   3.413   1.508   9.768  0.3446 -0.1701  1.5767
    2SAPS   H8Y  235   3.361   1.673   9.807  2.3026 -1.0633  2.4527
    2SAPS   C39  236   3.225   1.557   9.691  0.0135  0.0079 -0.1021
    2SAPS   H9X  237   3.138   1.626   9.695 -0.7905 -0.8522 -1.5807
    2SAPS   H9Y  238   3.183   1.455   9.701 -1.5400  0.6788  0.5525
    2SAPS  C310  239   3.281   1.561   9.548  0.5372 -0.3390  0.1488
    2SAPS  H10X  240   3.372   1.502   9.529  0.0749 -1.6110  1.6790
    2SAPS  H10Y  241   3.296   1.664   9.508  0.9051 -0.8484 -1.0736
    2SAPS  C311  242   3.166   1.505   9.460 -0.4668  0.0680 -0.5307
    2SAPS  H11X  243   3.075   1.566   9.479 -1.0452 -0.8284 -0.3615
    2SAPS  H11Y  244   3.145   1.399   9.487  1.0904 -0.3093 -0.6966
    2SAPS  C312  245   3.196   1.519   9.310  0.4071 -0.1416  0.6721
    2SAPS  H12X  246   3.289   1.464   9.283  1.3655  2.1617 -1.0168
    2SAPS  H12Y  247   3.219   1.625   9.288  0.0519 -0.0164  0.8965
    2SAPS  C313  248   3.092   1.476   9.215 -0.2348  0.2360 -0.1683
    2SAPS  H13X  249   2.996   1.526   9.241  0.5242  2.1230 -0.8274
    2SAPS  H13Y  250   3.075   1.367   9.229  1.0871  0.0852  0.4314
    2SAPS  C314  251   3.135   1.516   9.076  0.4479  0.1174  0.2477
    2SAPS  H14X  252   3.232   1.468   9.051  0.0779 -0.2438 -0.5161
    2SAPS  H14Y  253   3.153   1.626   9.086  2.3006 -0.2333  1.2180
    2SAPS  C315  254   3.045   1.476   8.967  0.1423  1.3958  0.0349
    2SAPS  H15X  255   2.935   1.487   8.984 -0.6404 -0.3024 -3.0184
    2SAPS  H15Y  256   3.059   1.367   8.947 -1.8082  0.9168  1.0195
    2SAPS  C316  257   3.067   1.555   8.836 -0.6592  0.3325  0.2727
    2SAPS  H16X  258   3.174   1.538   8.810 -0.9359  0.7969 -1.2368
    2SAPS  H16Y  259   3.055   1.664   8.851 -0.7576  0.4216 -0.4222
    2SAPS  C317  260   2.965   1.513   8.727  0.0814  0.8218  0.0480
    2SAPS  H17X  261   2.946   1.600   8.660 -1.5322  1.8682  1.7706
    2SAPS  H17Y  262   2.869   1.492   8.779  0.6939 -1.6679  0.3043
    2SAPS  C318  263   3.003   1.394   8.640 -0.3377  0.4000 -0.4216
    2SAPS  H18X  264   3.112   1.372   8.633 -0.4534  0.3278 -2.7352
    2SAPS  H18Y  265   2.961   1.412   8.539 -0.7211  0.5141 -0.2449
    2SAPS  H18Z  266   2.964   1.299   8.681 -1.4656  1.1080  0.1849
    3SAPS     N  267   4.572   5.030  10.677  0.2430  0.2099  0.2807
    3SAPS   HN1  268   4.492   5.035  10.611 -0.7672  0.4875  1.5026
    3SAPS   HN2  269   4.613   5.125  10.693  0.0836  0.4841 -0.8387
    3SAPS   HN3  270   4.640   4.966  10.633 -0.4861  0.8020 -1.8334
    3SAPS   C12  271   4.535   4.967  10.805  0.2434 -0.4319 -0.3004
    3SAPS  H12A  272   4.509   4.864  10.782 -1.3386  0.3012 -2.0720
    3SAPS   C13  273   4.647   4.968  10.902  0.0036 -0.2193  0.2560
    3SAPS  O13A  274   4.759   5.016  10.875  0.2362  0.4339 -0.0841
    3SAPS  O13B  275   4.620   4.928  11.023  0.1905  0.2416 -0.1385
    3SAPS   C11  276   4.409   5.039  10.867  0.0353  0.0638  0.2749
    3SAPS  H11A  277   4.449   5.138  10.898  1.5751 -0.4293 -0.0554
    3SAPS  H11B  278   4.383   4.985  10.961  2.2127 -1.7482 -0.0872
    3SAPS     P  279   4.173   5.143  10.813  0.1334  0.0155  0.3715
    3SAPS   O13  280   4.087   5.087  10.921 -0.0990 -0.1503 -0.0600
    3SAPS   O14  281   4.222   5.281  10.827 -0.5449 -0.1275 -0.0847
    3SAPS   O12  282   4.293   5.049  10.780 -0.3771  0.0373  0.3234
    3SAPS   O11  283   4.094   5.132  10.671  0.4849  0.3030  0.2201
    3SAPS    C1  284   4.061   5.000  10.625  0.4780 -0.7197 -0.0352
    3SAPS    HA  285   4.059   4.924  10.706  0.3460  0.7538  1.4158
    3SAPS    HB  286   3.970   5.002  10.561  1.6331 -1.5820 -1.7623
    3SAPS    C2  287   4.167   4.954  10.516 -0.0458 -0.3522 -0.1938
    3SAPS    HS  288   4.260   4.921  10.568 -0.8189 -2.3243  0.0259
    3SAPS   O21  289   4.184   5.060  10.421  0.7166  0.2083 -0.6702
    3SAPS   C21  290   4.308   5.090  10.397  0.1425 -0.4505  0.2105
    3SAPS   O22  291   4.403   5.057  10.467 -0.1987  0.4525 -0.1399
    3SAPS   C22  292   4.327   5.175  10.275  0.3735 -0.1288 -0.1645
    3SAPS   H2R  293   4.245   5.250  10.271  0.5559  0.0876  0.0831
    3SAPS   H2S  294   4.426   5.222  10.294  0.7163 -1.0318  0.3192
    3SAPS    C3  295   4.121   4.817  10.454 -0.0479  0.3848  0.4500
    3SAPS    HX  296   4.024   4.832  10.401  0.2266  0.0298 -0.1701
    3SAPS    HY  297   4.100   4.743  10.534 -2.2846 -0.5173 -0.8680
    3SAPS   O31  298   4.224   4.772  10.368  0.9319  0.2792  0.6081
    3SAPS   C31  299   4.197   4.654  10.321 -0.3153  0.0457  0.9781
    3SAPS   O32  300   4.087   4.598  10.332  0.5993  0.6521 -0.1234
    3SAPS   C32  301   4.323   4.592  10.258  0.9789  0.1635 -0.0035
    3SAPS   H2X  302   4.341   4.493  10.307 -0.7429  0.3877  1.1692
    3SAPS   H2Y  303   4.410   4.656  10.283  1.0069  0.2884 -0.4246
    3SAPS   C23  304   4.330   5.074  10.157  0.3013  0.5273 -0.3015
    3SAPS   H3R  305   4.229   5.064  10.113  0.1867  0.0681  0.0543
    3SAPS   H3S  306   4.358   4.972  10.192  0.9794  0.4752 -0.9801
    3SAPS   C24  307   4.417   5.103  10.034 -0.2417 -0.1168 -0.0198
    3SAPS   H4R  308   4.398   5.016   9.968 -2.3698  0.6870 -0.5275
    3SAPS   H4S  309   4.516   5.102  10.085 -0.7108 -0.5635  0.9179
    3SAPS   C25  310   4.390   5.244   9.993  0.5507 -0.4623  0.1321
    3SAPS   H5R  311   4.366   5.312  10.075 -1.3701  0.2582 -0.9545
    3SAPS   C26  312   4.382   5.291   9.865  0.0369 -0.1112  0.0178
    3SAPS   H6R  313   4.358   5.396   9.838  1.5040 -0.3754 -2.7103
    3SAPS   C27  314   4.388   5.207   9.740 -0.2881 -0.2551 -0.3029
    3SAPS   H7R  315   4.288   5.219   9.692 -1.2489 -3.1653  0.7476
    3SAPS   H7S  316   4.403   5.100   9.767  1.8879 -0.2476 -1.3144
    3SAPS   C28  317   4.500   5.249   9.644  0.4799  0.3274  0.2391
    3SAPS   H8R  318   4.601   5.244   9.685  0.4007 -0.1130  0.3878
    3SAPS   C29  319   4.492   5.282   9.513  0.5010 -0.7453 -0.2926
    3SAPS   H9R  320   4.580   5.303   9.450  1.6828 -0.3429  1.4038
    3SAPS  C210  321   4.366   5.300   9.430  0.2648 -0.0267 -0.4321
    3SAPS  H10R  322   4.373   5.401   9.385 -1.1838 -0.1200 -0.9323
    3SAPS  H10S  323   4.274   5.293   9.492  0.3012  0.6142 -0.2957
    3SAPS  C211  324   4.382   5.193   9.321 -0.9125 -0.3138 -0.3746
    3SAPS  H11R  325   4.457   5.113   9.337  0.4491  1.0937  0.6731
    3SAPS  C212  326   4.303   5.186   9.209  0.7348  1.0099 -0.6847
    3SAPS  H12R  327   4.320   5.109   9.132  0.6569  1.8711 -1.5692
    3SAPS  C213  328   4.179   5.271   9.188  0.1704 -0.0781 -0.6560
    3SAPS  H13R  329   4.188   5.362   9.250  0.2823  0.2021 -1.0752
    3SAPS  H13S  330   4.100   5.208   9.234 -0.2258  0.6287 -0.3558
    3SAPS  C214  331   4.140   5.303   9.047  0.6814 -0.4967 -0.2064
    3SAPS  H14R  332   4.209   5.372   8.996  2.1462 -0.6519  1.4699
    3SAPS  C215  333   4.026   5.280   8.983 -0.3707 -0.5514 -0.3192
    3SAPS  H15R  334   4.028   5.302   8.875  0.3071  3.0293  0.2900
    3SAPS  C216  335   3.909   5.202   9.034  0.4685 -0.3883 -0.5532
    3SAPS  H16R  336   3.815   5.220   8.978 -1.3010 -2.5589  1.4803
    3SAPS  H16S  337   3.897   5.224   9.143  1.7345 -0.0573 -0.4629
    3SAPS  C217  338   3.922   5.045   9.027  0.1490  0.2137 -0.1439
    3SAPS  H17R  339   3.829   5.015   9.080 -1.7572  2.7810 -1.8157
    3SAPS  H17S  340   4.007   5.014   9.092  1.1057  1.1018 -0.9429
    3SAPS  C218  341   3.936   4.993   8.881 -0.0578 -0.6855  0.1814
    3SAPS  H18R  342   3.890   5.052   8.799 -1.1418 -2.5781 -0.6326
    3SAPS  H18S  343   3.886   4.894   8.880 -0.8696 -0.2909  0.7614
    3SAPS  C219  344   4.081   4.955   8.838 -0.3231 -0.0428 -0.3943
    3SAPS  H19R  345   4.134   5.053   8.834  0.5055 -0.5145 -2.7147
    3SAPS  H19S  346   4.084   4.918   8.733  0.9953 -0.8712 -0.0782
    3SAPS  C220  347   4.162   4.849   8.912  0.7288  0.2421 -0.1619
    3SAPS  H20R  348   4.115   4.749   8.895  0.8768  0.2664 -0.7190
    3SAPS  H20S  349   4.154   4.854   9.023  0.3720 -0.5802 -0.1379
    3SAPS  H20T  350   4.270   4.856   8.887  0.3358  1.3851 -1.6505
    3SAPS   C33  351   4.293   4.576  10.111  0.6193 -0.3244  0.3772
    3SAPS   H3X  352   4.201   4.513  10.103  0.6984 -0.2679 -1.2272
    3SAPS   H3Y  353   4.372   4.512  10.066  0.9330 -1.0775  1.9142
    3SAPS   C34  354   4.285   4.702  10.028  0.0833 -0.1765  0.4976
    3SAPS   H4X  355   4.384   4.750  10.047 -0.9593  1.6810  1.4866
    3SAPS   H4Y  356   4.202   4.772  10.050  0.6344  0.0954  1.8315
    3SAPS   C35  357   4.275   4.672   9.878  0.8778  0.7226 -0.2571
    3SAPS   H5X  358   4.200   4.593   9.856  4.3134 -2.4472 -1.7576
    3SAPS   H5Y  359   4.374   4.628   9.852  2.0030  2.3727  0.9798
    3SAPS   C36  360   4.243   4.798   9.801 -0.1700  0.1824  0.1630
    3SAPS   H6X  361   4.318   4.878   9.819 -0.9203  0.4788  2.3306
    3SAPS   H6Y  362   4.146   4.835   9.842  1.1140  3.6864  0.4156
    3SAPS   C37  363   4.220   4.774   9.650 -0.6549  0.2336 -0.0348
    3SAPS   H7X  364   4.164   4.867   9.623 -2.0172 -0.3123  0.7842
    3SAPS   H7Y  365   4.160   4.684   9.625  0.2457 -0.1168 -1.0200
    3SAPS   C38  366   4.350   4.759   9.562 -0.0042 -1.1432 -0.4751
    3SAPS   H8X  367   4.387   4.662   9.602  0.1285 -1.3686 -1.1456
    3SAPS   H8Y  368   4.430   4.832   9.586 -0.0513 -1.5322  1.0113
    3SAPS   C39  369   4.327   4.734   9.410 -1.0404 -0.0219 -0.2237
    3SAPS   H9X  370   4.315   4.838   9.374 -1.7427  1.3554  3.5852
    3SAPS   H9Y  371   4.230   4.680   9.399 -1.4555  0.4093  1.1391
    3SAPS  C310  372   4.439   4.660   9.348 -0.6117  0.4089  0.6687
    3SAPS  H10X  373   4.435   4.558   9.390  1.5914  0.5515  1.3207
    3SAPS  H10Y  374   4.539   4.708   9.358  0.4609 -1.3890 -0.6952
    3SAPS  C311  375   4.432   4.644   9.197  0.3430 -0.0210 -1.2565
    3SAPS  H11X  376   4.437   4.739   9.140 -2.2578  0.5793 -0.6455
    3SAPS  H11Y  377   4.331   4.598   9.184  0.4575 -0.2635 -1.2883
    3SAPS  C312  378   4.536   4.563   9.117 -0.5226  0.9878  0.3311
    3SAPS  H12X  379   4.524   4.455   9.140  0.0195  0.9635  0.5059
    3SAPS  H12Y  380   4.638   4.584   9.155  0.1354 -0.7090 -0.4131
    3SAPS  C313  381   4.519   4.567   8.967  0.3038 -0.4101  0.2782
    3SAPS  H13X  382   4.589   4.496   8.918  0.4411 -0.2662  0.2674
    3SAPS  H13Y  383   4.541   4.672   8.939  0.8739  0.6717  4.3045
    3SAPS  C314  384   4.376   4.533   8.912 -0.0408 -0.2013  0.3822
    3SAPS  H14X  385   4.301   4.579   8.981  0.9559 -1.0725  2.1012
    3SAPS  H14Y  386   4.357   4.424   8.914 -0.1209 -0.1992 -0.2040
    3SAPS  C315  387   4.360   4.578   8.766 -0.1668 -0.2612  0.2302
    3SAPS  H15X  388   4.403   4.678   8.745  2.4601 -1.4196 -0.2542
    3SAPS  H15Y  389   4.252   4.597   8.749  0.0755 -0.5669 -1.9014
    3SAPS  C316  390   4.403   4.480   8.664  0.5872 -0.0456 -0.1425
    3SAPS  H16X  391   4.342   4.387   8.665  0.6949 -0.1221  1.1994
    3SAPS  H16Y  392   4.503   4.439   8.690  0.0870 -0.1951  1.6428
    3SAPS  C317  393   4.391   4.545   8.528  0.0694  0.0131  0.5581
    3SAPS  H17X  394   4.447   4.641   8.535  0.9272 -0.3998 -0.3340
    3SAPS  H17Y  395   4.283   4.571   8.519  0.0389 -0.3255 -0.1674
    3SAPS  C318  396   4.421   4.446   8.422 -0.9309 -0.2352 -0.1883
    3SAPS  H18X  397   4.525   4.409   8.431 -0.5070  1.1709  1.0738
    3SAPS  H18Y  398   4.412   4.477   8.316  0.3493 -2.3686 -1.0002
    3SAPS  H18Z  399   4.355   4.357   8.434 -1.5635  0.0752 -1.2801
    4SAPS     N  400   4.775   4.194  10.895 -0.1983 -0.1025 -0.4732
    4SAPS   HN1  401   4.777   4.262  10.973 -0.6482 -0.0976 -0.4599
    4SAPS   HN2  402   4.733   4.247  10.816  0.7961  1.0246 -0.2590
    4SAPS   HN3  403   4.710   4.116  10.920  0.9762 -1.0750 -0.3716
    4SAPS   C12  404   4.909   4.142  10.866  0.5030 -0.9216  0.9681
    4SAPS  H12A  405   4.973   4.224  10.835  0.9620 -1.0027  1.6537
    4SAPS   C13  406   4.986   4.063  10.971 -0.5648  0.6681 -0.0636
    4SAPS  O13A  407   4.945   4.062  11.094  0.2104  0.1160 -0.2748
    4SAPS  O13B  408   5.113   4.047  10.933  0.3093  0.4721 -0.1057
    4SAPS   C11  409   4.901   4.052  10.738 -0.1960 -0.7393 -0.1436
    4SAPS  H11A  410   5.002   4.028  10.698  0.8668 -1.0028  2.5524
    4SAPS  H11B  411   4.858   4.116  10.657 -0.3706  0.8335  1.1480
    4SAPS     P  412   4.806   3.818  10.659 -0.4496 -0.0668  0.1052
    4SAPS   O13  413   4.936   3.757  10.639  0.4904  0.0696  0.3263
    4SAPS   O14  414   4.694   3.734  10.707  0.5699 -0.2375 -0.7149
    4SAPS   O12  415   4.819   3.941  10.761 -0.1369 -0.1576 -0.3391
    4SAPS   O11  416   4.765   3.877  10.519 -0.1312 -0.1121 -0.1963
    4SAPS    C1  417   4.714   3.776  10.430  0.3252 -0.2777 -0.0772
    4SAPS    HA  418   4.795   3.708  10.395  0.5885  0.7950 -1.6449
    4SAPS    HB  419   4.629   3.713  10.465  0.4791 -0.6768 -0.4103
    4SAPS    C2  420   4.669   3.837  10.293 -0.3004 -0.2556  0.6403
    4SAPS    HS  421   4.654   3.758  10.216  1.8112 -0.3701  0.2916
    4SAPS   O21  422   4.768   3.930  10.236  0.1735 -0.0158  0.0486
    4SAPS   C21  423   4.867   3.869  10.179 -0.4341 -0.5241  0.1699
    4SAPS   O22  424   4.881   3.749  10.175 -0.0850 -0.6382 -0.1981
    4SAPS   C22  425   4.962   3.968  10.109 -0.3439 -0.4567 -0.2874
    4SAPS   H2R  426   4.993   4.040  10.188 -0.9780 -1.1488  0.6147
    4SAPS   H2S  427   5.058   3.921  10.081 -0.9909 -0.3804 -2.8453
    4SAPS    C3  428   4.535   3.907  10.322  0.4356 -0.5477 -0.0934
    4SAPS    HX  429   4.539   3.991  10.395 -0.8060 -0.3833 -0.1914
    4SAPS    HY  430   4.470   3.835  10.376  1.2866 -0.5849  0.9143
    4SAPS   O31  431   4.466   3.951  10.199 -0.5377 -0.2830 -0.8048
    4SAPS   C31  432   4.504   4.074  10.155  0.0479  0.3479 -0.6010
    4SAPS   O32  433   4.588   4.146  10.213  0.3612 -0.5569 -0.0133
    4SAPS   C32  434   4.414   4.105  10.033 -0.0480 -0.4006  0.6641
    4SAPS   H2X  435   4.305   4.095  10.052 -0.6373 -0.5414 -2.3467
    4SAPS   H2Y  436   4.443   4.029   9.958 -1.5484  0.7047 -1.1307
    4SAPS   C23  437   4.890   4.051  10.001 -0.0901  0.1449 -0.9458
    4SAPS   H3R  438   4.956   4.140   9.987 -1.0060  1.5938  2.7330
    4SAPS   H3S  439   4.790   4.094  10.023  0.6051  0.9333  0.8298
    4SAPS   C24  440   4.877   3.974   9.870 -0.1665 -0.3512  0.7402
    4SAPS   H4R  441   4.825   4.045   9.802  1.2034 -0.3312 -0.3336
    4SAPS   H4S  442   4.803   3.893   9.884 -2.1195  1.1952 -0.1467
    4SAPS   C25  443   5.000   3.944   9.794 -0.0233  0.1988 -0.0913
    4SAPS   H5R  444   5.060   3.879   9.860 -1.9475  0.8650  2.4577
    4SAPS   C26  445   5.041   3.986   9.674  0.4281 -0.0845  0.9986
    4SAPS   H6R  446   5.129   3.937   9.632 -0.3886 -0.6379 -0.1298
    4SAPS   C27  447   4.966   4.065   9.566 -0.1223  0.2021 -0.1717
    4SAPS   H7R  448   4.988   4.173   9.580 -1.7236  0.3739  1.4535
    4SAPS   H7S  449   4.859   4.074   9.593  0.1103 -0.7393  1.1791
    4SAPS   C28  450   4.973   4.017   9.423  0.3066 -0.2172 -0.2739
    4SAPS   H8R  451   5.038   4.075   9.356  1.5685 -2.0408 -0.7136
    4SAPS   C29  452   4.899   3.921   9.368 -0.1872  0.0156 -0.1642
    4SAPS   H9R  453   4.927   3.890   9.267  0.0967 -1.0024  0.2141
    4SAPS  C210  454   4.787   3.849   9.437 -0.5866  0.3660  0.3155
    4SAPS  H10R  455   4.762   3.902   9.531  0.8207 -0.7909  1.3942
    4SAPS  H10S  456   4.816   3.744   9.459 -0.2274  0.6581  1.2811
    4SAPS  C211  457   4.664   3.836   9.346 -0.8123 -0.0778 -0.3775
    4SAPS  H11R  458   4.670   3.753   9.274 -0.1668 -0.4593  0.1008
    4SAPS  C212  459   4.560   3.928   9.344 -0.6984  0.5686 -0.4578
    4SAPS  H12R  460   4.477   3.912   9.273 -0.6359  0.2397 -0.4602
    4SAPS  C213  461   4.555   4.053   9.428 -0.1981  0.1553  0.1096
    4SAPS  H13R  462   4.646   4.081   9.485 -1.6613  1.3100  2.0265
    4SAPS  H13S  463   4.488   4.035   9.515  0.9348 -1.1337  0.7459
    4SAPS  C214  464   4.510   4.175   9.342 -0.1632  0.2068 -0.0491
    4SAPS  H14R  465   4.582   4.216   9.270 -1.6559  1.2068 -1.0445
    4SAPS  C215  466   4.389   4.239   9.347  0.6579  0.2132  0.3422
    4SAPS  H15R  467   4.371   4.327   9.284 -0.8443  0.8302  1.5845
    4SAPS  C216  468   4.269   4.197   9.435  0.0627  0.7620  0.1125
    4SAPS  H16R  469   4.286   4.101   9.487 -0.3696 -0.1411 -1.3774
    4SAPS  H16S  470   4.178   4.183   9.374 -0.9111  1.3895  1.3835
    4SAPS  C217  471   4.235   4.306   9.529 -0.3233 -0.3529 -0.3744
    4SAPS  H17R  472   4.178   4.393   9.487 -2.1144 -0.5087  1.5537
    4SAPS  H17S  473   4.322   4.340   9.589 -2.3380  0.1299  2.4633
    4SAPS  C218  474   4.149   4.252   9.647  0.0170 -0.3997 -0.3962
    4SAPS  H18R  475   4.204   4.166   9.689  0.7701 -0.5924 -1.7237
    4SAPS  H18S  476   4.055   4.216   9.599 -0.3069  0.0010 -0.0737
    4SAPS  C219  477   4.125   4.359   9.760 -0.5380 -0.1605 -0.0275
    4SAPS  H19R  478   4.077   4.448   9.715 -0.8096 -0.6397 -0.7046
    4SAPS  H19S  479   4.218   4.391   9.812 -1.8265  0.3013  2.1106
    4SAPS  C220  480   4.037   4.306   9.873  0.1734  0.0645  0.3646
    4SAPS  H20R  481   4.049   4.370   9.963  1.5138  0.1736  0.1284
    4SAPS  H20S  482   4.063   4.205   9.911  0.7612  0.7177  1.8251
    4SAPS  H20T  483   3.939   4.327   9.826 -0.3120 -3.2360 -0.3437
    4SAPS   C33  484   4.433   4.239   9.957 -0.3827 -0.7910  0.3978
    4SAPS   H3X  485   4.470   4.321  10.022 -1.0159  0.4891 -0.7866
    4SAPS   H3Y  486   4.337   4.276   9.915  0.4468  1.0109 -0.0033
    4SAPS   C34  487   4.509   4.228   9.819 -0.5359 -0.2770  0.1572
    4SAPS   H4X  488   4.446   4.173   9.747  2.6975 -1.1715 -2.2127
    4SAPS   H4Y  489   4.608   4.180   9.832  0.7364  2.0295 -0.3405
    4SAPS   C35  490   4.555   4.364   9.766  0.4779 -0.1349 -0.7377
    4SAPS   H5X  491   4.606   4.426   9.844  0.7132  2.0288 -2.5135
    4SAPS   H5Y  492   4.472   4.423   9.723 -0.1762 -0.1778  0.4330
    4SAPS   C36  493   4.654   4.352   9.644  0.0090 -0.2106  0.6469
    4SAPS   H6X  494   4.586   4.327   9.559  0.6199 -0.0819  0.1105
    4SAPS   H6Y  495   4.726   4.268   9.655 -0.2026 -0.5991 -0.6896
    4SAPS   C37  496   4.727   4.477   9.598  0.6634 -0.9377  0.2482
    4SAPS   H7X  497   4.775   4.528   9.684  0.8450 -0.6498 -0.0200
    4SAPS   H7Y  498   4.658   4.554   9.557  1.7183 -0.3694 -0.5309
    4SAPS   C38  499   4.841   4.462   9.494  0.7969  0.5555 -0.9529
    4SAPS   H8X  500   4.925   4.408   9.542  0.9928 -0.7337 -2.6590
    4SAPS   H8Y  501   4.880   4.564   9.475  0.5155  0.9770  0.5857
    4SAPS   C39  502   4.799   4.396   9.362  0.1770 -0.4390 -0.1454
    4SAPS   H9X  503   4.735   4.467   9.305 -0.0595 -0.3321  0.2532
    4SAPS   H9Y  504   4.754   4.295   9.374  1.0910 -0.5216  3.5364
    4SAPS  C310  505   4.926   4.390   9.280  0.3469  0.6133  0.3134
    4SAPS  H10X  506   5.008   4.341   9.338  0.2274 -0.1058 -0.1127
    4SAPS  H10Y  507   4.964   4.493   9.267  0.0625  0.5895 -0.8070
    4SAPS  C311  508   4.886   4.327   9.153  0.9030  0.3284 -0.8319
    4SAPS  H11X  509   4.827   4.401   9.094  0.8959 -1.5215 -3.3062
    4SAPS  H11Y  510   4.820   4.238   9.165 -1.6090  2.0364 -1.0877
    4SAPS  C312  511   5.000   4.283   9.069 -0.4095 -0.4699  0.2843
    4SAPS  H12X  512   5.075   4.229   9.130 -1.9820 -1.6102  1.2693
    4SAPS  H12Y  513   5.048   4.379   9.040 -1.5629  1.0970  3.1479
    4SAPS  C313  514   4.958   4.189   8.955  0.3454  0.2193  0.7405
    4SAPS  H13X  515   4.878   4.248   8.905 -0.9898  1.1198  3.6679
    4SAPS  H13Y  516   4.928   4.091   8.998  1.0316 -0.8982 -1.1942
    4SAPS  C314  517   5.075   4.153   8.856 -0.3549 -0.1661  0.0396
    4SAPS  H14X  518   5.144   4.085   8.909 -0.4226  0.4599  0.9720
    4SAPS  H14Y  519   5.128   4.248   8.833  3.1879 -2.3244 -1.4336
    4SAPS  C315  520   5.025   4.098   8.719 -0.1683 -0.1472 -0.6493
    4SAPS  H15X  521   4.958   4.172   8.670 -1.8051 -1.2941 -0.2209
    4SAPS  H15Y  522   4.956   4.014   8.742 -0.2138  0.2858  0.9433
    4SAPS  C316  523   5.141   4.071   8.630  0.0407 -0.3469  0.4205
    4SAPS  H16X  524   5.212   3.995   8.670  1.6926  0.9236 -0.0148
    4SAPS  H16Y  525   5.192   4.168   8.618 -0.7633  0.1640  1.0442
    4SAPS  C317  526   5.095   4.021   8.484  0.2611 -0.2983 -0.1044
    4SAPS  H17X  527   5.056   4.110   8.431  0.0194 -1.0077 -1.1556
    4SAPS  H17Y  528   5.003   3.959   8.495 -0.4153  0.5311 -0.8925
    4SAPS  C318  529   5.209   3.960   8.396 -0.0313  0.1161  0.1638
    4SAPS  H18X  530   5.309   4.008   8.399  1.2341 -2.3798  1.3339
    4SAPS  H18Y  531   5.167   3.953   8.293  0.9373  1.0054 -0.3142
    4SAPS  H18Z  532   5.241   3.857   8.424  0.6510 -0.3809 -2.2511
    5SAPS     N  533   3.446   3.152  10.990  0.0813  0.3455 -0.0244
    5SAPS   HN1  534   3.440   3.164  11.094  2.5965  0.5591  0.1660
    5SAPS   HN2  535   3.512   3.072  10.992  0.3760  0.5890  1.1265
    5SAPS   HN3  536   3.490   3.233  10.941  0.3156 -1.6916 -3.5058
    5SAPS   C12  537   3.306   3.127  10.934 -0.2364 -0.8599 -0.2694
    5SAPS  H12A  538   3.306   3.153  10.830  2.9473 -1.6100 -0.5528
    5SAPS   C13  539   3.245   2.990  10.961 -0.4027  0.0611 -0.8251
    5SAPS  O13A  540   3.309   2.906  11.037  0.1848 -0.6154 -0.0350
    5SAPS  O13B  541   3.133   2.967  10.920 -0.5128  0.4021  0.2689
    5SAPS   C11  542   3.221   3.232  11.010 -0.3300  0.3225  0.3944
    5SAPS  H11A  543   3.221   3.217  11.120  2.5975 -2.3741  0.1500
    5SAPS  H11B  544   3.117   3.229  10.972  0.0929 -3.0032 -0.8538
    5SAPS     P  545   3.215   3.473  10.918  0.0416 -0.5395 -0.2380
    5SAPS   O13  546   3.125   3.543  11.012  0.0102  0.2565  0.1184
    5SAPS   O14  547   3.318   3.561  10.856  0.1426 -0.1125 -0.0194
    5SAPS   O12  548   3.282   3.360  10.991  0.5268 -0.1585  0.3368
    5SAPS   O11  549   3.128   3.397  10.811  0.4403 -0.4261 -0.0361
    5SAPS    C1  550   3.186   3.365  10.685 -0.9126  0.3264  0.0581
    5SAPS    HA  551   3.290   3.329  10.692 -0.7444  1.0626  1.9666
    5SAPS    HB  552   3.131   3.273  10.656 -0.0941  0.7342 -3.1332
    5SAPS    C2  553   3.157   3.474  10.579  0.3473 -0.4089  0.1368
    5SAPS    HS  554   3.197   3.574  10.609 -1.0351  0.3003 -0.3320
    5SAPS   O21  555   3.017   3.488  10.560  0.1359  0.4359 -0.3979
    5SAPS   C21  556   2.952   3.576  10.624  0.9786  0.7187 -0.5906
    5SAPS   O22  557   3.002   3.666  10.691  0.0453  0.6474  0.1731
    5SAPS   C22  558   2.803   3.553  10.603 -0.0052  0.1076 -0.2332
    5SAPS   H2R  559   2.779   3.445  10.611 -0.3544  0.0005 -2.2215
    5SAPS   H2S  560   2.745   3.608  10.680  0.3191  0.4471 -0.2256
    5SAPS    C3  561   3.237   3.435  10.454  0.2686  0.2980  0.2025
    5SAPS    HX  562   3.345   3.441  10.481  0.4027  1.7623 -0.5259
    5SAPS    HY  563   3.217   3.518  10.383  0.8407 -0.2118 -0.5637
    5SAPS   O31  564   3.188   3.312  10.394 -0.5501  0.2217 -0.1844
    5SAPS   C31  565   3.226   3.298  10.262  0.1876  0.3059  0.6075
    5SAPS   O32  566   3.294   3.379  10.204  0.4525  0.1865  0.1160
    5SAPS   C32  567   3.174   3.170  10.202  0.1790 -0.1234  0.6346
    5SAPS   H2X  568   3.064   3.180  10.218 -0.4738 -0.7993 -2.7233
    5SAPS   H2Y  569   3.219   3.090  10.265 -0.1536  1.0577  2.4290
    5SAPS   C23  570   2.769   3.608  10.462 -0.1179  0.5745  0.4332
    5SAPS   H3R  571   2.663   3.585  10.439 -0.1870 -1.6878  2.5763
    5SAPS   H3S  572   2.819   3.547  10.384 -0.2923 -0.2358  0.9442
    5SAPS   C24  573   2.780   3.758  10.447 -0.2074  0.5076 -0.9703
    5SAPS   H4R  574   2.871   3.800  10.495 -0.9241  0.5187  0.4424
    5SAPS   H4S  575   2.697   3.801  10.506  1.9921  1.6138  1.4968
    5SAPS   C25  576   2.776   3.796  10.306 -0.0142 -0.6263  0.3911
    5SAPS   H5R  577   2.670   3.812  10.279 -0.1044  1.6392  1.7822
    5SAPS   C26  578   2.873   3.818  10.210 -0.0550  0.2861 -0.0818
    5SAPS   H6R  579   2.837   3.838  10.109 -2.8550  2.3316  1.1875
    5SAPS   C27  580   3.015   3.790  10.238 -0.1537 -0.7895  0.1672
    5SAPS   H7R  581   3.037   3.796  10.346 -0.5405  1.3637  0.1764
    5SAPS   H7S  582   3.078   3.871  10.194 -0.3063 -0.4566  0.5514
    5SAPS   C28  583   3.062   3.656  10.184  0.7510  1.0006  0.2562
    5SAPS   H8R  584   3.011   3.569  10.229  0.2096  1.5089  0.6404
    5SAPS   C29  585   3.140   3.630  10.081 -0.1676 -0.4036 -0.7182
    5SAPS   H9R  586   3.167   3.526  10.057  1.5847 -0.5692  1.6110
    5SAPS  C210  587   3.212   3.735   9.997  0.5087 -0.1286 -0.1477
    5SAPS  H10R  588   3.186   3.842  10.005  0.9991  0.1007 -1.4170
    5SAPS  H10S  589   3.192   3.698   9.894 -1.7755  0.1798  0.1397
    5SAPS  C211  590   3.360   3.724  10.024  0.2940 -0.4876 -0.1652
    5SAPS  H11R  591   3.386   3.733  10.130 -0.5774 -0.9663  0.1010
    5SAPS  C212  592   3.463   3.735   9.940  0.2949  0.0824 -0.0988
    5SAPS  H12R  593   3.562   3.750   9.987 -0.5096 -0.5803  1.9394
    5SAPS  C213  594   3.450   3.758   9.795 -0.1176 -0.3663  0.6630
    5SAPS  H13R  595   3.439   3.868   9.787  1.8937 -0.0171  1.8308
    5SAPS  H13S  596   3.362   3.712   9.747 -0.2217  1.4433 -0.9842
    5SAPS  C214  597   3.572   3.735   9.706 -0.4877 -0.1358 -0.7120
    5SAPS  H14R  598   3.657   3.695   9.764  0.4314  3.0885  0.3427
    5SAPS  C215  599   3.590   3.779   9.585  0.1992  0.1612  0.2368
    5SAPS  H15R  600   3.679   3.742   9.532 -0.0362  2.0211 -1.5988
    5SAPS  C216  601   3.474   3.847   9.504 -0.6485 -0.4466 -0.3303
    5SAPS  H16R  602   3.521   3.932   9.449 -3.2578  1.0432 -0.4653
    5SAPS  H16S  603   3.396   3.898   9.565  1.4878  1.0884  1.2458
    5SAPS  C217  604   3.411   3.763   9.393  0.3294  0.4017 -0.2735
    5SAPS  H17R  605   3.344   3.689   9.442 -0.9927  1.1702 -0.8644
    5SAPS  H17S  606   3.488   3.711   9.332 -0.3260  0.2014 -0.9488
    5SAPS  C218  607   3.322   3.852   9.309 -0.0474 -0.4672  0.8631
    5SAPS  H18R  608   3.254   3.908   9.377  0.6411  2.5759 -0.7784
    5SAPS  H18S  609   3.380   3.933   9.262  0.3343 -1.0248  0.3582
    5SAPS  C219  610   3.231   3.769   9.223  0.0570 -0.1574  0.1730
    5SAPS  H19R  611   3.139   3.827   9.205 -0.2774 -0.5446  0.6193
    5SAPS  H19S  612   3.203   3.675   9.277  2.0082  0.1587  1.8598
    5SAPS  C220  613   3.308   3.729   9.097 -0.8674 -0.0788 -0.5799
    5SAPS  H20R  614   3.381   3.649   9.123  0.6798  0.0619 -4.0384
    5SAPS  H20S  615   3.359   3.813   9.046 -0.1144  0.1296  0.4776
    5SAPS  H20T  616   3.239   3.683   9.023 -0.8744 -2.3639  0.7258
    5SAPS   C33  617   3.232   3.142  10.057  0.1816 -0.4550  0.5907
    5SAPS   H3X  618   3.341   3.163  10.063  0.6525 -2.7703  1.3196
    5SAPS   H3Y  619   3.184   3.221   9.995  2.8786  0.1406 -0.9074
    5SAPS   C34  620   3.208   3.006   9.988  0.1542 -0.1226  0.2541
    5SAPS   H4X  621   3.099   2.988   9.983  0.4347 -1.6499 -2.5725
    5SAPS   H4Y  622   3.263   2.934  10.053  2.9853  0.5918 -1.1757
    5SAPS   C35  623   3.260   3.009   9.847 -0.0837 -0.3965  0.1292
    5SAPS   H5X  624   3.362   3.051   9.842 -0.1185 -0.4155 -1.2140
    5SAPS   H5Y  625   3.199   3.075   9.781 -1.1620 -0.1572  1.3117
    5SAPS   C36  626   3.261   2.868   9.782 -1.4380 -0.2833 -0.1146
    5SAPS   H6X  627   3.158   2.827   9.787 -1.5615  0.0650  0.1772
    5SAPS   H6Y  628   3.335   2.799   9.828 -3.4498 -1.3254  1.7507
    5SAPS   C37  629   3.293   2.866   9.635  0.3572 -0.6395  0.4450
    5SAPS   H7X  630   3.327   2.767   9.596 -1.6863 -1.2063 -0.0505
    5SAPS   H7Y  631   3.376   2.937   9.619  2.2389 -2.5796  1.1739
    5SAPS   C38  632   3.172   2.896   9.542  0.1375 -0.0332 -0.5433
    5SAPS   H8X  633   3.125   2.995   9.562 -0.4219 -0.2995 -0.5026
    5SAPS   H8Y  634   3.096   2.817   9.562 -0.1505  0.5691  0.8839
    5SAPS   C39  635   3.218   2.879   9.401  0.2374  0.0270  0.9112
    5SAPS   H9X  636   3.294   2.801   9.379  0.1387  0.0884  0.3515
    5SAPS   H9Y  637   3.270   2.972   9.372  2.5707 -1.4716 -0.0415
    5SAPS  C310  638   3.107   2.860   9.291 -0.6011 -0.4090  0.1521
    5SAPS  H10X  639   3.015   2.912   9.325 -0.4499 -0.6479  0.9498
    5SAPS  H10Y  640   3.080   2.752   9.289 -0.3242 -0.4768 -0.2020
    5SAPS  C311  641   3.153   2.909   9.151  0.5155 -0.8764  0.0527
    5SAPS  H11X  642   3.262   2.889   9.145  0.6162 -0.3604  0.0607
    5SAPS  H11Y  643   3.148   3.020   9.149  0.8250 -0.7851 -3.8503
    5SAPS  C312  644   3.080   2.843   9.033  0.2212 -0.0150  0.9342
    5SAPS  H12X  645   3.114   2.882   8.935 -2.1388 -0.5316 -0.1637
    5SAPS  H12Y  646   2.970   2.860   9.038  0.1202 -0.5402  0.5484
    5SAPS  C313  647   3.101   2.688   9.012 -0.3922  0.1717 -0.0584
    5SAPS  H13X  648   3.048   2.639   9.097  2.2712 -0.8921  1.0934
    5SAPS  H13Y  649   3.210   2.676   9.031 -0.9104 -1.6232  2.3069
    5SAPS  C314  650   3.048   2.622   8.883  0.2428 -0.8025 -0.4720
    5SAPS  H14X  651   2.946   2.664   8.869 -0.4995 -1.8842  1.3268
    5SAPS  H14Y  652   3.023   2.514   8.898  0.1940 -0.8805 -1.0715
    5SAPS  C315  653   3.145   2.632   8.761  0.1179 -0.4407 -0.3764
    5SAPS  H15X  654   3.237   2.580   8.795  0.4822  1.2788  1.5081
    5SAPS  H15Y  655   3.172   2.736   8.734  0.6441 -0.4783 -0.0149
    5SAPS  C316  656   3.090   2.561   8.633 -0.0269 -0.0804  0.6151
    5SAPS  H16X  657   2.981   2.584   8.624 -0.0299 -0.4333 -0.4814
    5SAPS  H16Y  658   3.084   2.451   8.647 -0.3062  0.0195  1.3157
    5SAPS  C317  659   3.138   2.607   8.498 -0.3782 -0.0182 -0.1147
    5SAPS  H17X  660   3.245   2.578   8.488  0.5196  1.5847  3.1267
    5SAPS  H17Y  661   3.130   2.717   8.485 -2.6049 -0.4389 -3.7002
    5SAPS  C318  662   3.052   2.546   8.386 -0.2630  0.9347 -0.5627
    5SAPS  H18X  663   2.962   2.612   8.381 -0.1006  1.2503  0.4113
    5SAPS  H18Y  664   3.009   2.445   8.404 -1.5317  1.3466 -1.1462
    5SAPS  H18Z  665   3.110   2.550   8.291 -1.7320 -2.5770 -1.7618
    6SAPS     N  666   1.064   4.084  10.931  0.6164 -0.0653 -0.0825
    6SAPS   HN1  667   1.056   4.185  10.907 -0.9739  0.0782  0.9055
    6SAPS   HN2  668   1.013   4.022  10.866 -1.4471 -0.6595  1.9595
    6SAPS   HN3  669   1.017   4.072  11.023 -0.4978  2.3638 -0.2436
    6SAPS   C12  670   1.201   4.030  10.940 -0.5794 -0.2126 -0.6694
    6SAPS  H12A  671   1.247   4.072  11.028 -2.0364 -2.8496  1.5163
    6SAPS   C13  672   1.209   3.871  10.937 -0.8896  0.2085 -0.5117
    6SAPS  O13A  673   1.107   3.802  10.967 -0.1256 -0.0073 -0.6260
    6SAPS  O13B  674   1.316   3.807  10.939 -0.4540 -0.0075 -0.2387
    6SAPS   C11  675   1.288   4.084  10.814  0.0034  0.6066  0.5510
    6SAPS  H11A  676   1.246   4.045  10.719 -1.6016 -2.1504  2.2607
    6SAPS  H11B  677   1.384   4.031  10.826 -0.0288 -0.0898 -1.8374
    6SAPS     P  678   1.448   4.289  10.775  0.0577  0.3518  0.4289
    6SAPS   O13  679   1.425   4.435  10.772  0.0937 -0.0296 -0.0467
    6SAPS   O14  680   1.559   4.237  10.857 -0.6338 -0.5828  0.1440
    6SAPS   O12  681   1.309   4.222  10.821  0.5888 -0.2582  0.1915
    6SAPS   O11  682   1.461   4.234  10.628  0.4833  0.4895  0.3653
    6SAPS    C1  683   1.352   4.247  10.538  0.4986 -0.5596 -0.6211
    6SAPS    HA  684   1.282   4.162  10.553 -0.4771 -0.0618 -2.1487
    6SAPS    HB  685   1.303   4.344  10.562  2.8697  1.1403 -2.1040
    6SAPS    C2  686   1.406   4.255  10.394  0.8469  0.0744  0.1604
    6SAPS    HS  687   1.334   4.313  10.331  0.7721  0.0519  0.2245
    6SAPS   O21  688   1.434   4.124  10.343  0.4111  0.4267 -0.0147
    6SAPS   C21  689   1.325   4.079  10.271  0.8961  0.0182  0.0734
    6SAPS   O22  690   1.211   4.114  10.302 -0.0869 -0.1547  0.2003
    6SAPS   C22  691   1.366   3.981  10.158  0.5303 -0.7700 -0.3618
    6SAPS   H2R  692   1.455   3.921  10.188 -0.1667 -2.7417 -1.9779
    6SAPS   H2S  693   1.284   3.908  10.142  0.9120 -1.0120 -1.2799
    6SAPS    C3  694   1.534   4.340  10.383  0.5458  0.0101 -0.2660
    6SAPS    HX  695   1.599   4.313  10.469 -1.7331 -0.9340  1.2350
    6SAPS    HY  696   1.506   4.444  10.413  0.0617 -0.4604  0.9985
    6SAPS   O31  697   1.594   4.341  10.255  0.4591 -0.2768 -0.6648
    6SAPS   C31  698   1.701   4.266  10.236 -0.0205 -0.0084 -0.8292
    6SAPS   O32  699   1.754   4.199  10.325  0.5644 -0.2512 -0.0578
    6SAPS   C32  700   1.752   4.270  10.091 -0.4653 -0.6420  0.1324
    6SAPS   H2X  701   1.671   4.296  10.019  0.6327 -0.0676 -0.9272
    6SAPS   H2Y  702   1.778   4.164  10.069 -2.6168 -2.7632  5.9679
    6SAPS   C23  703   1.388   4.044  10.015 -0.1906  0.3466  0.0633
    6SAPS   H3R  704   1.488   4.088  10.035 -1.0310  1.1886  2.8367
    6SAPS   H3S  705   1.321   4.133  10.011 -1.0731 -0.2782  0.6278
    6SAPS   C24  706   1.371   3.951   9.898  0.2839 -1.0760  0.1114
    6SAPS   H4R  707   1.377   4.022   9.813  1.0853  1.3846  2.1196
    6SAPS   H4S  708   1.267   3.914   9.905 -0.6707  1.6411  1.1721
    6SAPS   C25  709   1.474   3.845   9.900  0.3072 -0.0111 -0.3480
    6SAPS   H5R  710   1.451   3.757   9.961  3.1144 -1.0720 -0.6622
    6SAPS   C26  711   1.596   3.847   9.847 -0.3617 -0.3022  0.1181
    6SAPS   H6R  712   1.679   3.782   9.878  0.9358  2.2147  2.3612
    6SAPS   C27  713   1.650   3.956   9.756 -0.6783 -1.1614  0.0706
    6SAPS   H7R  714   1.741   3.989   9.811 -0.1799  0.4202 -1.5985
    6SAPS   H7S  715   1.581   4.043   9.751  0.8853  0.1415  0.4495
    6SAPS   C28  716   1.690   3.887   9.629 -0.1604 -0.2029  1.6735
    6SAPS   H8R  717   1.696   3.777   9.632  0.5104 -0.2001  0.7136
    6SAPS   C29  718   1.740   3.945   9.515  0.3056 -0.4740  0.8070
    6SAPS   H9R  719   1.772   3.887   9.428  0.2249  1.9106 -0.9413
    6SAPS  C210  720   1.750   4.096   9.486  0.2250 -0.1962 -0.1754
    6SAPS  H10R  721   1.844   4.135   9.530  1.1801 -0.8973 -1.4990
    6SAPS  H10S  722   1.658   4.148   9.520 -0.6455  0.0084 -2.6074
    6SAPS  C211  723   1.771   4.123   9.335  0.3493  0.0282 -0.2778
    6SAPS  H11R  724   1.680   4.113   9.274  1.4979  0.6473 -2.1720
    6SAPS  C212  725   1.886   4.152   9.277 -0.1392  0.8247  1.0124
    6SAPS  H12R  726   1.891   4.172   9.169 -0.4747  0.4198  0.9194
    6SAPS  C213  727   2.023   4.160   9.336 -0.5222 -0.0390 -0.4347
    6SAPS  H13R  728   2.031   4.082   9.415  1.1135 -0.2040 -0.7261
    6SAPS  H13S  729   2.039   4.262   9.379 -2.5323 -0.2780  1.0453
    6SAPS  C214  730   2.134   4.156   9.234 -0.0219  0.5965  0.1261
    6SAPS  H14R  731   2.186   4.251   9.219  1.2862  0.0755  1.1753
    6SAPS  C215  732   2.170   4.038   9.170 -0.2311 -0.9199 -0.0371
    6SAPS  H15R  733   2.243   4.052   9.089 -0.7833 -0.0952 -0.4108
    6SAPS  C216  734   2.103   3.905   9.181  0.5912  0.2517  0.1610
    6SAPS  H16R  735   2.016   3.912   9.249  1.3196 -0.7917  1.2411
    6SAPS  H16S  736   2.172   3.832   9.229  0.2714  0.9836  1.7772
    6SAPS  C217  737   2.047   3.839   9.050 -0.1186 -0.3985  0.8040
    6SAPS  H17R  738   1.976   3.907   8.999 -0.0917 -0.7835  0.2518
    6SAPS  H17S  739   1.999   3.742   9.078 -1.5443 -1.2270 -3.7028
    6SAPS  C218  740   2.160   3.793   8.954  0.2138 -0.2210  0.7859
    6SAPS  H18R  741   2.246   3.735   8.993 -0.2386 -0.7660  0.9833
    6SAPS  H18S  742   2.201   3.892   8.924  1.0913 -0.8975 -0.3481
    6SAPS  C219  743   2.094   3.728   8.833  0.8950  0.4216 -0.1613
    6SAPS  H19R  744   1.992   3.769   8.817  0.1698 -0.7739  1.1448
    6SAPS  H19S  745   2.081   3.618   8.845 -2.8318  0.6240 -1.0064
    6SAPS  C220  746   2.182   3.744   8.711 -0.1370  0.5795  0.0849
    6SAPS  H20R  747   2.126   3.722   8.618 -0.1246  0.6094  0.0703
    6SAPS  H20S  748   2.258   3.664   8.699  0.5253  1.4054 -1.4207
    6SAPS  H20T  749   2.222   3.848   8.709  1.6953 -0.0953 -1.2461
    6SAPS   C33  750   1.871   4.366  10.085 -0.0620  0.7136  0.3614
    6SAPS   H3X  751   1.952   4.312  10.138 -0.0730 -0.8501 -1.1396
    6SAPS   H3Y  752   1.834   4.458  10.135 -0.1388  0.7986  0.1502
    6SAPS   C34  753   1.924   4.396   9.946 -0.0805 -0.4391 -0.1098
    6SAPS   H4X  754   2.009   4.466   9.960  0.2499 -0.9492  0.5562
    6SAPS   H4Y  755   1.839   4.452   9.902 -0.7772 -0.6860  0.8788
    6SAPS   C35  756   1.955   4.260   9.875 -0.3504  0.0955  0.1907
    6SAPS   H5X  757   1.992   4.271   9.771 -0.8026 -0.8481 -0.0755
    6SAPS   H5Y  758   1.859   4.206   9.857 -0.1361  0.1292 -1.1280
    6SAPS   C36  759   2.062   4.172   9.950  0.1369  0.0318  0.1815
    6SAPS   H6X  760   2.009   4.112  10.027  1.4154 -1.6699 -0.2201
    6SAPS   H6Y  761   2.126   4.232  10.019  0.3562  1.6023 -1.3137
    6SAPS   C37  762   2.141   4.086   9.852  0.2687  0.3608 -0.4736
    6SAPS   H7X  763   2.226   4.045   9.910 -1.4214  0.2882  2.0951
    6SAPS   H7Y  764   2.193   4.160   9.787  0.4226  1.1473  0.5116
    6SAPS   C38  765   2.048   3.990   9.772 -0.3737  0.1747 -0.3023
    6SAPS   H8X  766   1.972   4.050   9.718 -0.2143  0.4938 -0.1740
    6SAPS   H8Y  767   2.005   3.918   9.845 -0.2717 -0.5851 -0.9672
    6SAPS   C39  768   2.122   3.912   9.664  0.1811  0.4619  0.1505
    6SAPS   H9X  769   2.147   3.977   9.577 -3.0294  0.8844 -0.5812
    6SAPS   H9Y  770   2.054   3.836   9.620 -0.7415  1.5731 -0.3853
    6SAPS  C310  771   2.237   3.827   9.713  0.3886  0.3968  0.3140
    6SAPS  H10X  772   2.201   3.772   9.802 -0.0935 -0.1654 -0.2228
    6SAPS  H10Y  773   2.330   3.886   9.730  0.2563  0.2179  1.8061
    6SAPS  C311  774   2.269   3.719   9.613 -0.5208  0.0923  0.0213
    6SAPS  H11X  775   2.176   3.671   9.576  0.3854 -0.4400 -1.6648
    6SAPS  H11Y  776   2.350   3.660   9.660 -0.0217 -0.3355 -1.3241
    6SAPS  C312  777   2.342   3.764   9.484  0.2486  0.1243  0.6112
    6SAPS  H12X  778   2.436   3.813   9.518 -0.9885  1.1472  2.7612
    6SAPS  H12Y  779   2.291   3.844   9.427  2.6262  0.4837 -1.1623
    6SAPS  C313  780   2.363   3.637   9.399  0.4375  0.3914  0.7791
    6SAPS  H13X  781   2.266   3.584   9.389 -0.0033  1.3252 -0.0392
    6SAPS  H13Y  782   2.434   3.571   9.453  0.3597 -0.0160  0.3916
    6SAPS  C314  783   2.424   3.678   9.263 -0.2145  0.6390 -0.0005
    6SAPS  H14X  784   2.525   3.725   9.265 -0.7692  2.1870 -2.7162
    6SAPS  H14Y  785   2.363   3.755   9.210  0.2512  0.9430 -0.0992
    6SAPS  C315  786   2.437   3.555   9.170  0.0190 -0.3263  0.6613
    6SAPS  H15X  787   2.333   3.516   9.163 -0.5670  1.0860  1.2594
    6SAPS  H15Y  788   2.494   3.475   9.223 -1.6922 -2.5336 -0.6289
    6SAPS  C316  789   2.514   3.576   9.040  0.2554 -0.4692 -0.3399
    6SAPS  H16X  790   2.607   3.630   9.065  0.1602 -0.3199 -0.3031
    6SAPS  H16Y  791   2.465   3.637   8.961 -1.7318 -0.8245  0.5573
    6SAPS  C317  792   2.532   3.445   8.959 -0.1882 -0.6367  0.2914
    6SAPS  H17X  793   2.432   3.415   8.922 -0.0280  1.2677 -1.8730
    6SAPS  H17Y  794   2.564   3.361   9.025  0.0375 -0.9500 -0.2101
    6SAPS  C318  795   2.631   3.478   8.848  0.2888 -0.3546 -0.5355
    6SAPS  H18X  796   2.718   3.525   8.900 -0.9635 -1.2173  2.5930
    6SAPS  H18Y  797   2.588   3.546   8.772 -0.3184  0.6947  0.7033
    6SAPS  H18Z  798   2.667   3.385   8.800 -0.7769 -1.1933  0.2446
    7SAPS     N  799   4.711   2.149  10.756 -0.2443  0.6376 -0.2185
    7SAPS   HN1  800   4.808   2.183  10.772 -0.1917  1.4230 -1.9616
    7SAPS   HN2  801   4.725   2.051  10.722 -1.3971  0.6832 -0.8677
    7SAPS   HN3  802   4.668   2.204  10.679 -1.6046 -0.4453 -0.2680
    7SAPS   C12  803   4.631   2.160  10.884  0.0963 -1.0047  0.9641
    7SAPS  H12A  804   4.678   2.095  10.957 -1.2376 -1.8842  1.0681
    7SAPS   C13  805   4.622   2.311  10.922  0.4828 -0.2414  0.8962
    7SAPS  O13A  806   4.691   2.397  10.860  0.4085  0.3564 -0.5771
    7SAPS  O13B  807   4.558   2.353  11.017 -0.1726 -0.2298 -0.8117
    7SAPS   C11  808   4.492   2.091  10.850  0.0797 -0.6883  1.0405
    7SAPS  H11A  809   4.421   2.106  10.934 -0.3354  0.4654  0.5089
    7SAPS  H11B  810   4.497   1.983  10.825 -1.3312 -0.3748 -0.9000
    7SAPS     P  811   4.284   2.220  10.727  0.1685 -0.0319 -0.1361
    7SAPS   O13  812   4.192   2.146  10.820 -0.4107  0.5408 -0.5375
    7SAPS   O14  813   4.295   2.370  10.752 -0.1824  0.1184  0.0481
    7SAPS   O12  814   4.427   2.153  10.742 -0.6381 -0.1038  0.0087
    7SAPS   O11  815   4.243   2.178  10.585 -0.6342 -0.1746  0.1899
    7SAPS    C1  816   4.304   2.076  10.507  0.0841 -0.1907 -0.2514
    7SAPS    HA  817   4.346   1.992  10.567  0.5481  1.3793  1.7397
    7SAPS    HB  818   4.225   2.036  10.440 -0.1141 -0.8203  0.3457
    7SAPS    C2  819   4.413   2.145  10.417  0.2239  0.0904 -0.1829
    7SAPS    HS  820   4.462   2.226  10.474  1.0942 -1.6366  1.6849
    7SAPS   O21  821   4.338   2.189  10.303 -0.1513  0.2617  0.1930
    7SAPS   C21  822   4.381   2.299  10.252 -0.6335 -0.2524 -0.6877
    7SAPS   O22  823   4.451   2.387  10.299 -0.0920 -0.4744  0.3999
    7SAPS   C22  824   4.325   2.305  10.108 -0.1786  0.5115  0.1078
    7SAPS   H2R  825   4.247   2.226  10.101  0.1284 -0.1016  2.5155
    7SAPS   H2S  826   4.278   2.404  10.088  0.2770  0.4992 -1.1311
    7SAPS    C3  827   4.532   2.047  10.366  1.1843 -0.4261 -0.6182
    7SAPS    HX  828   4.474   1.971  10.308 -0.7049  0.7120 -0.3003
    7SAPS    HY  829   4.585   1.986  10.443 -1.1715 -0.0777  1.3753
    7SAPS   O31  830   4.636   2.123  10.297 -0.0894 -0.5932  0.4088
    7SAPS   C31  831   4.723   2.184  10.375 -0.0076 -0.6433 -0.3450
    7SAPS   O32  832   4.698   2.210  10.494 -0.2923  0.5964 -0.5495
    7SAPS   C32  833   4.844   2.217  10.296 -0.3114 -0.2037  0.3523
    7SAPS   H2X  834   4.906   2.126  10.277 -0.4893 -0.2669  0.0617
    7SAPS   H2Y  835   4.902   2.283  10.363  0.7857 -0.6202 -0.1414
    7SAPS   C23  836   4.440   2.271   9.999 -0.5673 -0.7377  0.0009
    7SAPS   H3R  837   4.493   2.180  10.034  0.3607  0.1753  1.0648
    7SAPS   H3S  838   4.510   2.358  10.006 -0.5010 -0.7337 -0.6796
    7SAPS   C24  839   4.381   2.258   9.860  0.0292  0.6256 -0.4251
    7SAPS   H4R  840   4.277   2.222   9.876  0.6226  0.1402  2.8889
    7SAPS   H4S  841   4.436   2.179   9.804 -1.6613 -1.7750  1.0984
    7SAPS   C25  842   4.384   2.399   9.792  0.6570  0.2874  0.0800
    7SAPS   H5R  843   4.303   2.458   9.836 -0.4150  0.9328 -2.5591
    7SAPS   C26  844   4.458   2.435   9.690 -0.3754  0.4582  0.0302
    7SAPS   H6R  845   4.436   2.528   9.637  0.0678  0.0850 -0.8396
    7SAPS   C27  846   4.550   2.345   9.611  0.0858  0.2153 -0.0870
    7SAPS   H7R  847   4.617   2.284   9.676  0.8075  0.6019 -0.4526
    7SAPS   H7S  848   4.626   2.410   9.562  0.8185 -2.7830 -3.3488
    7SAPS   C28  849   4.467   2.258   9.517  0.1005 -0.0881 -0.4028
    7SAPS   H8R  850   4.376   2.210   9.556 -0.7192 -0.9228 -3.0652
    7SAPS   C29  851   4.469   2.251   9.381 -0.0348 -0.0172  0.2649
    7SAPS   H9R  852   4.394   2.188   9.331 -0.1461 -1.6806  2.3833
    7SAPS  C210  853   4.563   2.318   9.281 -0.0023 -0.2584 -0.3820
    7SAPS  H10R  854   4.612   2.249   9.209  0.6300 -1.0473  0.7584
    7SAPS  H10S  855   4.648   2.360   9.339 -0.2730 -0.6257  0.3001
    7SAPS  C211  856   4.504   2.437   9.216 -0.5218 -0.4008  0.2388
    7SAPS  H11R  857   4.433   2.491   9.280  0.4103  0.0598  0.9040
    7SAPS  C212  858   4.545   2.496   9.104 -0.0052 -0.1481 -0.9561
    7SAPS  H12R  859   4.490   2.580   9.059 -0.0442 -0.3607 -1.3099
    7SAPS  C213  860   4.653   2.450   9.016 -0.7355  0.2318 -0.1962
    7SAPS  H13R  861   4.708   2.369   9.068 -1.4078  0.1093  0.3382
    7SAPS  H13S  862   4.728   2.530   9.001 -1.3090  0.7154 -0.5351
    7SAPS  C214  863   4.594   2.402   8.885  0.3068  0.8777  0.4462
    7SAPS  H14R  864   4.570   2.294   8.885  0.9898  0.7216  0.6906
    7SAPS  C215  865   4.591   2.477   8.772 -0.0093  0.2782  0.3893
    7SAPS  H15R  866   4.556   2.429   8.680  2.0436  0.7311 -0.6910
    7SAPS  C216  867   4.635   2.616   8.740  0.6966  0.1133  0.1108
    7SAPS  H16R  868   4.674   2.663   8.834  0.5749  1.2426 -0.3844
    7SAPS  H16S  869   4.555   2.688   8.712 -0.0811 -0.8363 -0.1557
    7SAPS  C217  870   4.749   2.628   8.634 -0.0471 -0.3900  0.1112
    7SAPS  H17R  871   4.700   2.634   8.535  0.0669  0.7174  0.1061
    7SAPS  H17S  872   4.825   2.548   8.638  0.0434 -0.2991  0.2191
    7SAPS  C218  873   4.824   2.769   8.642 -0.2178  0.3771  0.2225
    7SAPS  H18R  874   4.915   2.762   8.577 -0.5982  0.9168 -0.3763
    7SAPS  H18S  875   4.844   2.790   8.749  0.5139  0.7036  0.0305
    7SAPS  C219  876   4.743   2.886   8.575  0.9053  0.0775  0.3112
    7SAPS  H19R  877   4.640   2.865   8.610  1.0462 -0.0684  0.6433
    7SAPS  H19S  878   4.723   2.862   8.469  1.4147  0.2991  0.1592
    7SAPS  C220  879   4.802   3.025   8.598  0.9279 -0.3001  0.0647
    7SAPS  H20R  880   4.906   3.022   8.561  0.2950 -1.2827 -1.7553
    7SAPS  H20S  881   4.796   3.048   8.707 -1.6111 -2.4892  0.5102
    7SAPS  H20T  882   4.740   3.106   8.554  0.9529  1.1762  2.5583
    7SAPS   C33  883   4.818   2.297  10.165  0.0368  0.7291  0.5874
    7SAPS   H3X  884   4.808   2.400  10.208  1.6837  1.5437 -0.8841
    7SAPS   H3Y  885   4.714   2.274  10.131 -0.5098  1.1656  1.8982
    7SAPS   C34  886   4.924   2.297  10.048  0.5718  0.6601 -0.3690
    7SAPS   H4X  887   4.955   2.192  10.031  3.8860  1.0754  1.9818
    7SAPS   H4Y  888   5.009   2.357  10.087  0.6055 -0.1408  0.8482
    7SAPS   C35  889   4.870   2.349   9.911 -0.0118 -0.1628 -0.4939
    7SAPS   H5X  890   4.850   2.458   9.917  1.0952  0.1219 -1.4263
    7SAPS   H5Y  891   4.779   2.290   9.888 -0.4816  0.8306 -1.2592
    7SAPS   C36  892   4.979   2.311   9.803  0.2170  0.7354 -0.1490
    7SAPS   H6X  893   4.989   2.200   9.799 -1.4144  0.5946 -0.8189
    7SAPS   H6Y  894   5.077   2.360   9.821  0.0379  1.0363  0.0116
    7SAPS   C37  895   4.929   2.350   9.667  0.1945 -1.1400  0.4207
    7SAPS   H7X  896   4.905   2.458   9.664 -0.6965 -1.3516 -0.7856
    7SAPS   H7Y  897   4.828   2.306   9.651  0.1656 -1.2891  0.9747
    7SAPS   C38  898   5.022   2.320   9.548  0.3681  0.6279  0.4856
    7SAPS   H8X  899   5.038   2.210   9.551 -0.4364  0.5121  0.9659
    7SAPS   H8Y  900   5.124   2.358   9.570  0.1521  1.6149 -0.1632
    7SAPS   C39  901   4.969   2.350   9.406 -0.7523 -0.6357 -0.4791
    7SAPS   H9X  902   4.938   2.455   9.391  1.0689  0.3169  1.8305
    7SAPS   H9Y  903   4.874   2.293   9.397 -0.5739 -1.0986  0.4076
    7SAPS  C310  904   5.069   2.309   9.295  0.3150 -0.3702  0.1938
    7SAPS  H10X  905   5.078   2.199   9.285 -0.2341 -0.2086 -3.4562
    7SAPS  H10Y  906   5.167   2.358   9.311  0.2806 -0.2614  0.0767
    7SAPS  C311  907   5.021   2.361   9.157  0.2925 -0.2331 -0.8210
    7SAPS  H11X  908   5.024   2.472   9.166  1.0243 -0.2913 -0.2506
    7SAPS  H11Y  909   4.916   2.327   9.146  0.9548 -3.3063  1.2128
    7SAPS  C312  910   5.105   2.326   9.035  0.6644  0.0102  0.4947
    7SAPS  H12X  911   5.126   2.217   9.036  1.2731  0.1258  0.2000
    7SAPS  H12Y  912   5.197   2.386   9.050  0.8615  0.3537 -1.7462
    7SAPS  C313  913   5.030   2.355   8.905 -0.8109 -0.1402 -0.2034
    7SAPS  H13X  914   5.005   2.463   8.901  0.2528  0.0916 -0.7507
    7SAPS  H13Y  915   4.940   2.289   8.898 -0.4747 -0.6405  0.1565
    7SAPS  C314  916   5.121   2.331   8.778  0.3708 -0.9681  0.0576
    7SAPS  H14X  917   5.140   2.222   8.767 -0.1318 -0.9933 -0.6133
    7SAPS  H14Y  918   5.227   2.363   8.790  0.8567 -2.5259  0.1197
    7SAPS  C315  919   5.079   2.390   8.649 -0.3234  0.5951 -0.3498
    7SAPS  H15X  920   5.062   2.499   8.661 -0.2782  0.7320 -1.4416
    7SAPS  H15Y  921   4.986   2.338   8.618  0.2339 -0.5079 -0.2600
    7SAPS  C316  922   5.190   2.376   8.545  0.1064 -0.3669 -0.3548
    7SAPS  H16X  923   5.199   2.269   8.515  3.1254 -0.1734 -0.4409
    7SAPS  H16Y  924   5.285   2.422   8.580 -1.3875  3.2353 -0.5727
    7SAPS  C317  925   5.166   2.455   8.415 -0.2422 -0.3624 -0.3378
    7SAPS  H17X  926   5.258   2.453   8.353  0.3567 -0.2802  0.5466
    7SAPS  H17Y  927   5.154   2.561   8.446  2.0151  0.0456 -0.6939
    7SAPS  C318  928   5.039   2.415   8.341  0.7481 -0.4829 -0.2331
    7SAPS  H18X  929   5.036   2.313   8.298  0.6631  0.8897 -3.7865
    7SAPS  H18Y  930   5.031   2.469   8.245  1.0214  0.1594  0.0963
    7SAPS  H18Z  931   4.949   2.417   8.406  1.7024 -0.4817  1.1555
    8SAPS     N  932   2.691   0.653  11.343 -0.1336 -0.6825 -0.5093
    8SAPS   HN1  933   2.748   0.690  11.422  1.4736  0.8910 -2.3141
    8SAPS   HN2  934   2.658   0.729  11.280 -1.3317  1.1649  2.1458
    8SAPS   HN3  935   2.605   0.597  11.364 -0.9028  0.5427 -0.3144
    8SAPS   C12  936   2.787   0.563  11.266  0.1499 -0.7836 -0.1879
    8SAPS  H12A  937   2.858   0.624  11.212  1.1300  0.0208  1.8719
    8SAPS   C13  938   2.877   0.467  11.355  0.0502  0.2415  0.4355
    8SAPS  O13A  939   2.891   0.494  11.478 -0.4238  0.4487 -0.1750
    8SAPS  O13B  940   2.962   0.404  11.286 -0.8363  0.4612 -0.0647
    8SAPS   C11  941   2.702   0.485  11.162  0.5860  0.5662  1.1369
    8SAPS  H11A  942   2.643   0.412  11.221  0.0890  0.4943  0.5608
    8SAPS  H11B  943   2.769   0.419  11.103  1.7109  1.0220  1.8872
    8SAPS     P  944   2.679   0.642  10.952  0.0735  0.2435 -0.2093
    8SAPS   O13  945   2.570   0.713  10.880  0.0771  0.5242  0.1911
    8SAPS   O14  946   2.799   0.720  10.996  0.3661 -0.6201  0.3046
    8SAPS   O12  947   2.613   0.565  11.078  0.6559 -0.0965  0.3416
    8SAPS   O11  948   2.742   0.532  10.850 -0.1091 -0.3503  0.3925
    8SAPS    C1  949   2.677   0.410  10.809  0.3933  0.3206  0.1463
    8SAPS    HA  950   2.751   0.327  10.812 -1.4491 -1.4768 -1.2751
    8SAPS    HB  951   2.592   0.384  10.876  0.9181 -2.0868 -0.0433
    8SAPS    C2  952   2.632   0.415  10.667  0.6215 -0.6312  0.1550
    8SAPS    HS  953   2.569   0.324  10.656  0.9144 -0.7619 -0.4904
    8SAPS   O21  954   2.751   0.412  10.586 -0.3847 -0.3856  0.1677
    8SAPS   C21  955   2.730   0.354  10.464  0.5893 -0.1126  0.0500
    8SAPS   O22  956   2.624   0.302  10.433 -0.1058 -0.9085  0.3894
    8SAPS   C22  957   2.855   0.367  10.381  0.2036  0.4378  0.4306
    8SAPS   H2R  958   2.853   0.470  10.338  0.7182 -0.0767 -0.8712
    8SAPS   H2S  959   2.947   0.369  10.444  1.4998  1.1303 -1.3986
    8SAPS    C3  960   2.534   0.537  10.637 -0.6847  0.1759 -0.0116
    8SAPS    HX  961   2.601   0.622  10.664  1.0678 -1.1394 -0.0498
    8SAPS    HY  962   2.453   0.535  10.713 -0.1049 -1.3680  0.5934
    8SAPS   O31  963   2.489   0.551  10.500  0.0142 -0.0009  0.3644
    8SAPS   C31  964   2.377   0.483  10.471 -0.1828 -0.1102  0.2429
    8SAPS   O32  965   2.317   0.418  10.554 -0.0543 -0.1720  0.3733
    8SAPS   C32  966   2.358   0.483  10.321  0.3095  0.0838 -0.2434
    8SAPS   H2X  967   2.441   0.541  10.275  0.5496 -0.0800 -0.0110
    8SAPS   H2Y  968   2.271   0.545  10.288  0.2642 -0.2435 -0.7463
    8SAPS   C23  969   2.852   0.254  10.280  0.0713  0.2411 -0.3547
    8SAPS   H3R  970   2.751   0.250  10.235 -1.3944 -0.6714  2.7880
    8SAPS   H3S  971   2.871   0.154  10.325 -1.2014  0.8401  1.6047
    8SAPS   C24  972   2.953   0.287  10.161 -0.4778 -0.0960 -0.4480
    8SAPS   H4R  973   3.052   0.304  10.208 -0.6256  0.3054 -0.2761
    8SAPS   H4S  974   2.926   0.385  10.116  1.8252  0.9924  0.3799
    8SAPS   C25  975   2.958   0.171  10.068  0.0757 -0.2604 -0.0613
    8SAPS   H5R  976   2.996   0.075  10.105 -1.7280 -0.2894  1.8978
    8SAPS   C26  977   2.905   0.172   9.949 -0.4659 -1.1128  0.4850
    8SAPS   H6R  978   2.905   0.082   9.886  2.2559 -1.0803  0.2789
    8SAPS   C27  979   2.838   0.288   9.876  0.2554 -0.4663 -0.0155
    8SAPS   H7R  980   2.810   0.365   9.952  0.8992 -0.8850  0.6590
    8SAPS   H7S  981   2.734   0.254   9.859 -0.4476  0.7680  1.5614
    8SAPS   C28  982   2.898   0.350   9.752 -0.4148  0.1208 -0.0755
    8SAPS   H8R  983   2.965   0.436   9.765  0.9782 -0.7911 -1.0206
    8SAPS   C29  984   2.887   0.301   9.628 -0.2812 -0.3063 -0.1554
    8SAPS   H9R  985   2.952   0.362   9.564  0.3817  0.5091  1.2386
    8SAPS  C210  986   2.829   0.175   9.572 -0.1388  0.7485 -0.2166
    8SAPS  H10R  987   2.791   0.116   9.657  0.1451  0.7996 -0.0520
    8SAPS  H10S  988   2.914   0.119   9.526 -1.1755 -0.7193 -0.4012
    8SAPS  C211  989   2.722   0.213   9.476  0.6189 -0.4286  0.0579
    8SAPS  H11R  990   2.624   0.249   9.510  0.3724 -0.1403 -0.9177
    8SAPS  C212  991   2.721   0.198   9.343 -0.5434  0.0100 -1.0448
    8SAPS  H12R  992   2.643   0.249   9.284  0.4949 -0.7317 -3.1713
    8SAPS  C213  993   2.845   0.152   9.265 -0.2109  0.9864 -0.2088
    8SAPS  H13R  994   2.839   0.042   9.250  0.5518  0.5135  2.5019
    8SAPS  H13S  995   2.937   0.183   9.319 -0.6627 -0.0192  1.1962
    8SAPS  C214  996   2.843   0.224   9.132 -0.2340 -0.3307 -0.0931
    8SAPS  H14R  997   2.886   0.325   9.138 -1.7732  0.2832  1.3926
    8SAPS  C215  998   2.781   0.177   9.015 -0.7611  0.6107 -0.2114
    8SAPS  H15R  999   2.773   0.242   8.927 -0.8987 -1.6138 -1.9546
    8SAPS  C216 1000   2.701   0.045   9.008 -0.6661  0.2337  0.6112
    8SAPS  H16R 1001   2.641   0.023   9.099 -1.2337  1.1777  0.4824
    8SAPS  H16S 1002   2.771  -0.040   8.993  0.2185  1.1288 -0.5349
    8SAPS  C217 1003   2.605   0.042   8.887  0.0527 -0.0983  0.2449
    8SAPS  H17R 1004   2.536   0.129   8.895 -0.7972 -0.9112  3.6281
    8SAPS  H17S 1005   2.540  -0.048   8.878  1.3479 -1.2103  1.5124
    8SAPS  C218 1006   2.684   0.048   8.754  0.5181 -0.3560  0.6216
    8SAPS  H18R 1007   2.757   0.131   8.765  0.6885 -0.2072 -1.3015
    8SAPS  H18S 1008   2.604   0.077   8.683 -0.7499 -0.3112  2.0234
    8SAPS  C219 1009   2.756  -0.077   8.713 -0.6720 -0.1086  0.1692
    8SAPS  H19R 1010   2.697  -0.171   8.705  1.0576 -1.1415 -1.4494
    8SAPS  H19S 1011   2.848  -0.102   8.771  1.2716  0.2456 -2.5530
    8SAPS  C220 1012   2.807  -0.056   8.573 -0.5054  0.1465 -0.2184
    8SAPS  H20R 1013   2.874  -0.141   8.546  0.5614  1.0787 -0.5842
    8SAPS  H20S 1014   2.863   0.040   8.568 -0.8800  0.4812  1.5568
    8SAPS  H20T 1015   2.732  -0.048   8.492  0.1156 -0.3471 -0.8611
    8SAPS   C33 1016   2.344   0.346  10.249  0.1298 -0.1886 -0.7056
    8SAPS   H3X 1017   2.236   0.322  10.254  0.5723 -2.8658 -1.9618
    8SAPS   H3Y 1018   2.406   0.261  10.285 -1.4569 -0.4830  1.5264
    8SAPS   C34 1019   2.370   0.360  10.098 -0.8770 -0.8094 -0.1324
    8SAPS   H4X 1020   2.474   0.388  10.071 -0.0944 -2.8816  0.5426
    8SAPS   H4Y 1021   2.316   0.451  10.064 -0.4957 -0.1046  1.0922
    8SAPS   C35 1022   2.336   0.236  10.018 -0.4082 -0.6750 -0.4678
    8SAPS   H5X 1023   2.266   0.166  10.068 -0.1355  0.0915  1.0382
    8SAPS   H5Y 1024   2.426   0.171  10.017 -1.2784 -1.9136 -0.5381
    8SAPS   C36 1025   2.293   0.265   9.874  0.2203  0.8171 -0.3772
    8SAPS   H6X 1026   2.239   0.362   9.870 -0.0885  0.6195 -1.0069
    8SAPS   H6Y 1027   2.224   0.187   9.835  3.4144 -0.7618 -3.4363
    8SAPS   C37 1028   2.406   0.274   9.776  0.5354 -0.2126  0.3588
    8SAPS   H7X 1029   2.469   0.361   9.805  2.9054 -1.8190  0.3327
    8SAPS   H7Y 1030   2.363   0.302   9.678  1.9228 -1.6819 -0.7156
    8SAPS   C38 1031   2.489   0.148   9.751  0.1311  0.5164  0.4324
    8SAPS   H8X 1032   2.539   0.104   9.840  3.0225 -0.3084 -1.4636
    8SAPS   H8Y 1033   2.572   0.193   9.693  0.4640  0.4103  0.8153
    8SAPS   C39 1034   2.403   0.038   9.687  0.8291 -0.0078 -0.3141
    8SAPS   H9X 1035   2.294   0.053   9.703  0.6594  0.6861 -1.9346
    8SAPS   H9Y 1036   2.432  -0.061   9.727  1.4266  0.4184  0.3472
    8SAPS  C310 1037   2.441   0.018   9.537  0.5835  0.5375  0.0464
    8SAPS  H10X 1038   2.552   0.015   9.537  0.6563  0.9824  2.7510
    8SAPS  H10Y 1039   2.406   0.107   9.481 -2.4513 -0.8796 -0.5477
    8SAPS  C311 1040   2.374  -0.102   9.473  0.1498 -1.1212 -0.2840
    8SAPS  H11X 1041   2.266  -0.074   9.475  0.1153 -1.2722  0.0141
    8SAPS  H11Y 1042   2.394  -0.186   9.543 -4.0716 -1.5559  0.6986
    8SAPS  C312 1043   2.420  -0.113   9.327  0.0807  0.2994  0.7278
    8SAPS  H12X 1044   2.531  -0.104   9.326  0.2471 -1.3875  1.0872
    8SAPS  H12Y 1045   2.386  -0.027   9.265  4.5875  1.7347 -0.1593
    8SAPS  C313 1046   2.375  -0.238   9.258 -0.0706  0.0617  0.4320
    8SAPS  H13X 1047   2.265  -0.252   9.252 -0.0043 -0.3552  0.1196
    8SAPS  H13Y 1048   2.400  -0.323   9.324  0.7563 -0.6183 -0.7152
    8SAPS  C314 1049   2.436  -0.255   9.118 -0.0310  0.5672 -0.3060
    8SAPS  H14X 1050   2.543  -0.226   9.116  0.4198 -1.0366 -0.6783
    8SAPS  H14Y 1051   2.386  -0.181   9.051 -0.9370  0.6446  0.4231
    8SAPS  C315 1052   2.428  -0.402   9.060  0.1903  0.6813 -0.5610
    8SAPS  H15X 1053   2.323  -0.439   9.056  0.6117 -1.0603  2.1200
    8SAPS  H15Y 1054   2.497  -0.468   9.116  1.0162  1.6228 -0.4435
    8SAPS  C316 1055   2.502  -0.415   8.925 -0.5128  0.0162  0.5199
    8SAPS  H16X 1056   2.454  -0.350   8.848 -2.8613 -0.6862  1.2956
    8SAPS  H16Y 1057   2.477  -0.519   8.894 -0.2926 -0.2594  1.2607
    8SAPS  C317 1058   2.654  -0.407   8.937 -0.0442 -0.0214 -0.3322
    8SAPS  H17X 1059   2.699  -0.464   9.020  1.1861 -0.7852 -1.4843
    8SAPS  H17Y 1060   2.670  -0.301   8.966 -2.1274  0.9791 -2.4227
    8SAPS  C318 1061   2.735  -0.455   8.814 -0.3850 -0.2224 -0.6932
    8SAPS  H18X 1062   2.725  -0.564   8.799  0.7641 -0.0114 -3.6044
    8SAPS  H18Y 1063   2.844  -0.438   8.827  0.4936 -3.7559 -2.3875
    8SAPS  H18Z 1064   2.701  -0.405   8.720  1.8592 -0.4415 -1.6837
    9SAPS     N 1065   6.037   2.952   6.089 -0.6546 -0.8998  0.8554
    9SAPS   HN1 1066   5.947   2.980   6.047  0.3611  2.4787  0.6452
    9SAPS   HN2 1067   6.043   2.849   6.098 -0.9283 -0.9451  0.5206
    9SAPS   HN3 1068   6.043   2.982   6.188  1.6980 -0.9551  0.7856
    9SAPS   C12 1069   6.158   3.011   6.021  0.8378 -0.2552 -0.3760
    9SAPS  H12A 1070   6.242   3.010   6.089  1.5802 -2.8591 -1.1992
    9SAPS   C13 1071   6.207   2.944   5.886  0.4426 -0.5142  0.0991
    9SAPS  O13A 1072   6.124   2.865   5.831 -0.7897 -0.2012  0.1096
    9SAPS  O13B 1073   6.290   3.005   5.818  0.0890  0.0667  0.5587
    9SAPS   C11 1074   6.139   3.161   6.003 -0.3392  0.1936 -0.3559
    9SAPS  H11A 1075   6.064   3.172   5.922  1.0365  0.7633 -1.6025
    9SAPS  H11B 1076   6.231   3.202   5.957  0.8312 -0.6631  1.1428
    9SAPS     P 1077   6.000   3.348   6.114  0.0517  0.0760 -0.0143
    9SAPS   O13 1078   6.048   3.445   6.015 -0.8027  0.3239 -0.0243
    9SAPS   O14 1079   5.862   3.306   6.092  0.4922  0.2344 -0.6376
    9SAPS   O12 1080   6.094   3.226   6.122 -0.1691  0.4437 -0.1135
    9SAPS   O11 1081   6.007   3.419   6.259 -0.6770  0.1008  0.1144
    9SAPS    C1 1082   6.110   3.372   6.346  0.4533 -0.1949  0.4444
    9SAPS    HA 1083   6.099   3.262   6.362  0.8281 -0.3203 -0.1363
    9SAPS    HB 1084   6.207   3.393   6.295  0.6236  0.3841  0.9971
    9SAPS    C2 1085   6.110   3.458   6.475  0.3847  0.2114 -0.3371
    9SAPS    HS 1086   6.161   3.396   6.552  1.3685  2.2184  0.7062
    9SAPS   O21 1087   5.974   3.494   6.527 -0.1826  0.1142  0.7938
    9SAPS   C21 1088   5.895   3.396   6.553 -0.2075 -0.1187 -0.1312
    9SAPS   O22 1089   5.934   3.282   6.574 -0.2255 -0.4184  0.4122
    9SAPS   C22 1090   5.752   3.456   6.575 -0.5418 -0.3590 -0.0708
    9SAPS   H2R 1091   5.771   3.550   6.630 -2.8764 -0.0738  0.3594
    9SAPS   H2S 1092   5.715   3.488   6.476 -0.8464 -3.3715 -1.0324
    9SAPS    C3 1093   6.198   3.591   6.462  0.5719  1.0308  0.1158
    9SAPS    HX 1094   6.132   3.668   6.417 -1.4493 -0.2725  0.7029
    9SAPS    HY 1095   6.292   3.563   6.410  1.3573  0.4051  1.7740
    9SAPS   O31 1096   6.234   3.638   6.591 -1.2129 -0.1800 -0.0163
    9SAPS   C31 1097   6.282   3.761   6.594 -0.3883  0.8012  0.7608
    9SAPS   O32 1098   6.320   3.817   6.493 -0.4391  0.0264  0.0468
    9SAPS   C32 1099   6.304   3.809   6.736  0.8305  0.1617 -0.1127
    9SAPS   H2X 1100   6.412   3.800   6.759  1.4121  2.6725 -1.4858
    9SAPS   H2Y 1101   6.237   3.746   6.799 -1.4103  0.7224 -1.7920
    9SAPS   C23 1102   5.654   3.366   6.657  0.1155 -0.2425  0.5746
    9SAPS   H3R 1103   5.692   3.344   6.759  0.8808  0.1107  0.3716
    9SAPS   H3S 1104   5.642   3.270   6.603  2.4650 -0.3749  0.1400
    9SAPS   C24 1105   5.512   3.426   6.662 -0.1259 -0.7782 -0.4824
    9SAPS   H4R 1106   5.447   3.344   6.697 -0.4138  0.2498  1.5409
    9SAPS   H4S 1107   5.482   3.445   6.556 -0.4174  1.7133 -0.0152
    9SAPS   C25 1108   5.502   3.550   6.747 -0.1679 -0.3956 -0.3056
    9SAPS   H5R 1109   5.589   3.615   6.726 -0.7695  0.2916 -0.7003
    9SAPS   C26 1110   5.420   3.587   6.842  0.5493  0.3860 -0.5291
    9SAPS   H6R 1111   5.444   3.679   6.897  0.2646  0.2565 -0.1852
    9SAPS   C27 1112   5.314   3.500   6.898  0.3765  0.3847 -0.5743
    9SAPS   H7R 1113   5.334   3.392   6.883  1.6695  0.2540  1.7359
    9SAPS   H7S 1114   5.226   3.528   6.836 -0.6496 -0.4141  0.4742
    9SAPS   C28 1115   5.291   3.527   7.045  0.2603 -0.3293  0.2277
    9SAPS   H8R 1116   5.220   3.607   7.073  0.7164 -0.7151  2.6614
    9SAPS   C29 1117   5.350   3.461   7.145  0.3134  0.7423 -0.5955
    9SAPS   H9R 1118   5.326   3.486   7.249  0.3177 -1.2393 -0.0840
    9SAPS  C210 1119   5.445   3.350   7.134  0.2166  0.3002 -0.8593
    9SAPS  H10R 1120   5.535   3.379   7.191  0.2518 -2.7903  0.8406
    9SAPS  H10S 1121   5.472   3.332   7.027  0.0263 -0.6280 -0.7559
    9SAPS  C211 1122   5.393   3.226   7.196  0.9044  0.0344 -0.0879
    9SAPS  H11R 1123   5.320   3.175   7.131 -0.0072 -1.4531  1.9801
    9SAPS  C212 1124   5.432   3.159   7.310 -0.1377  0.4490  0.7237
    9SAPS  H12R 1125   5.391   3.058   7.328  1.5261 -0.7215 -1.5494
    9SAPS  C213 1126   5.544   3.197   7.403  0.2026  0.2618 -0.0571
    9SAPS  H13R 1127   5.597   3.288   7.368  0.6157 -0.1593 -0.5390
    9SAPS  H13S 1128   5.607   3.106   7.409  0.3960  0.4799  1.4935
    9SAPS  C214 1129   5.474   3.227   7.536  0.5460  0.6231  0.0419
    9SAPS  H14R 1130   5.397   3.304   7.526  0.6043  0.7591  0.6321
    9SAPS  C215 1131   5.482   3.156   7.650 -0.0963 -0.2533 -0.1667
    9SAPS  H15R 1132   5.420   3.193   7.733  0.0367  0.6664 -0.4695
    9SAPS  C216 1133   5.558   3.031   7.685 -0.2955 -0.4660  0.0397
    9SAPS  H16R 1134   5.564   2.970   7.592 -2.4025  1.5354 -1.5247
    9SAPS  H16S 1135   5.514   2.971   7.767 -2.2567  0.7676 -0.0610
    9SAPS  C217 1136   5.707   3.075   7.729  0.2208  0.3689 -0.2883
    9SAPS  H17R 1137   5.729   3.169   7.674 -0.0374  0.7812  0.2998
    9SAPS  H17S 1138   5.783   2.998   7.704  1.8774  0.0105  4.7159
    9SAPS  C218 1139   5.714   3.109   7.879 -0.5241 -1.0595 -0.4135
    9SAPS  H18R 1140   5.685   3.027   7.949 -2.2330  0.5923  0.9060
    9SAPS  H18S 1141   5.638   3.189   7.889  1.7686  1.6127 -2.7153
    9SAPS  C219 1142   5.850   3.168   7.908 -0.1165  0.3148 -0.2661
    9SAPS  H19R 1143   5.878   3.243   7.830  2.9590 -0.2096  0.1993
    9SAPS  H19S 1144   5.930   3.090   7.907  0.5331  0.8109  2.8177
    9SAPS  C220 1145   5.853   3.244   8.036  0.8508 -0.0460  0.2342
    9SAPS  H20R 1146   5.753   3.278   8.069  1.1768 -0.7046  2.0011
    9SAPS  H20S 1147   5.928   3.325   8.020  1.3338 -0.6032 -0.3889
    9SAPS  H20T 1148   5.889   3.186   8.124 -2.1794  0.5171  1.9659
    9SAPS   C33 1149   6.266   3.956   6.766  0.4729 -0.0270 -0.7128
    9SAPS   H3X 1150   6.156   3.966   6.779  0.8194  0.8944  2.4199
    9SAPS   H3Y 1151   6.290   4.026   6.683  1.8405 -1.1362 -1.2948
    9SAPS   C34 1152   6.323   4.016   6.898  0.1262  0.1461  0.1457
    9SAPS   H4X 1153   6.338   4.125   6.879  0.4213 -0.1597 -1.4986
    9SAPS   H4Y 1154   6.426   3.980   6.918  1.1312  1.7821 -1.6579
    9SAPS   C35 1155   6.248   3.967   7.022  0.2111  0.2523 -0.0318
    9SAPS   H5X 1156   6.264   3.858   7.033  1.2793  0.5694  2.1525
    9SAPS   H5Y 1157   6.143   3.996   7.003  0.1980  0.8586  0.8879
    9SAPS   C36 1158   6.294   4.043   7.145  0.1132 -1.2543  0.7906
    9SAPS   H6X 1159   6.292   4.150   7.113 -3.2674 -1.6751 -0.8251
    9SAPS   H6Y 1160   6.398   4.013   7.169  0.4599  0.0097  0.9472
    9SAPS   C37 1161   6.203   4.040   7.264 -0.7100 -0.4071  0.4776
    9SAPS   H7X 1162   6.194   3.937   7.304  0.2345 -0.3964  0.7496
    9SAPS   H7Y 1163   6.101   4.068   7.233 -1.7595 -3.7420  0.5017
    9SAPS   C38 1164   6.262   4.128   7.382  0.6666 -0.1639 -0.3585
    9SAPS   H8X 1165   6.290   4.226   7.337 -0.8871  0.0976 -0.8402
    9SAPS   H8Y 1166   6.361   4.086   7.408 -0.3752 -1.3567  1.9712
    9SAPS   C39 1167   6.179   4.157   7.512 -0.2404 -1.4415  0.3110
    9SAPS   H9X 1168   6.158   4.070   7.578 -0.5488 -0.5485  1.4280
    9SAPS   H9Y 1169   6.077   4.190   7.483  1.4141  3.2008 -1.1237
    9SAPS  C310 1170   6.236   4.277   7.593 -0.3524 -1.0283 -0.5602
    9SAPS  H10X 1171   6.238   4.361   7.520  0.8212 -1.8688 -1.5348
    9SAPS  H10Y 1172   6.339   4.255   7.626 -0.1995 -0.9936 -1.0133
    9SAPS  C311 1173   6.159   4.337   7.716  0.0043  0.4625  0.4100
    9SAPS  H11X 1174   6.147   4.255   7.790  0.2037 -0.1261 -0.1996
    9SAPS  H11Y 1175   6.057   4.367   7.685 -0.7846 -0.5917  1.8747
    9SAPS  C312 1176   6.240   4.451   7.784  0.7633  0.4069  0.6216
    9SAPS  H12X 1177   6.246   4.536   7.713  1.4095 -1.5498 -1.7943
    9SAPS  H12Y 1178   6.344   4.414   7.800  0.8539  0.4543  0.1361
    9SAPS  C313 1179   6.169   4.495   7.923 -0.3884  0.1036 -1.0234
    9SAPS  H13X 1180   6.116   4.413   7.976  1.9496 -0.6145  0.3178
    9SAPS  H13Y 1181   6.090   4.572   7.905 -1.8517 -1.2458 -0.5748
    9SAPS  C314 1182   6.276   4.557   8.018 -0.2174  0.2471  0.3526
    9SAPS  H14X 1183   6.330   4.638   7.964 -0.0695 -0.2969 -0.3355
    9SAPS  H14Y 1184   6.360   4.486   8.028 -1.0290 -0.9197 -0.8715
    9SAPS  C315 1185   6.240   4.601   8.159  0.6946  0.0548  0.3826
    9SAPS  H15X 1186   6.213   4.708   8.150  0.6483  0.1243  1.2675
    9SAPS  H15Y 1187   6.324   4.600   8.232 -1.1500  0.0682  2.6160
    9SAPS  C316 1188   6.133   4.519   8.227  0.3723 -0.6390 -0.2899
    9SAPS  H16X 1189   6.048   4.494   8.159 -0.2830  0.4556  0.0935
    9SAPS  H16Y 1190   6.088   4.573   8.313 -0.8813 -2.3334  0.1777
    9SAPS  C317 1191   6.192   4.389   8.282 -0.2398 -0.3342 -0.1208
    9SAPS  H17X 1192   6.274   4.400   8.357 -0.2976 -1.3439  0.1096
    9SAPS  H17Y 1193   6.242   4.335   8.198  1.7162  1.3738 -0.1628
    9SAPS  C318 1194   6.089   4.311   8.356  0.4736 -0.3752  0.0078
    9SAPS  H18X 1195   6.024   4.254   8.286  0.4071 -0.2405 -0.0407
    9SAPS  H18Y 1196   6.028   4.369   8.429  0.6291  0.1173 -0.2535
    9SAPS  H18Z 1197   6.131   4.225   8.413  2.5073 -0.4252 -1.4529
   10SAPS     N 1198   4.282   2.049   5.976  0.2819  0.0143  0.3856
   10SAPS   HN1 1199   4.250   2.128   6.035  2.0221 -0.0169  1.4353
   10SAPS   HN2 1200   4.337   2.076   5.892  1.1752  1.0731  1.2821
   10SAPS   HN3 1201   4.197   1.996   5.948  0.5701 -0.4408  0.3669
   10SAPS   C12 1202   4.361   1.960   6.063  0.3965 -0.2008  0.4633
   10SAPS  H12A 1203   4.310   1.945   6.157  1.9572 -2.1069  1.0651
   10SAPS   C13 1204   4.383   1.814   5.999 -0.2155 -0.6005 -0.5181
   10SAPS  O13A 1205   4.342   1.790   5.886  0.0129 -0.1038  0.1551
   10SAPS  O13B 1206   4.425   1.722   6.068 -0.1625 -0.0009  0.5635
   10SAPS   C11 1207   4.497   2.027   6.079  0.1664  0.5053  0.2214
   10SAPS  H11A 1208   4.551   2.043   5.983 -1.1211 -0.8924 -0.7767
   10SAPS  H11B 1209   4.558   1.948   6.129 -0.9739 -0.2996  0.3752
   10SAPS     P 1210   4.505   2.159   6.309 -0.1097  0.3483 -0.2216
   10SAPS   O13 1211   4.479   2.298   6.362  0.1855  0.4573  0.1832
   10SAPS   O14 1212   4.430   2.050   6.377 -0.2971  0.0735 -0.0762
   10SAPS   O12 1213   4.484   2.153   6.153  0.0997  0.6813 -0.3302
   10SAPS   O11 1214   4.660   2.123   6.321  0.0590  0.5756  0.0274
   10SAPS    C1 1215   4.717   2.007   6.381  0.4571  0.4656 -1.2165
   10SAPS    HA 1216   4.646   1.922   6.378  2.2788 -1.3083  1.5284
   10SAPS    HB 1217   4.807   1.981   6.320 -0.0377 -1.5938 -1.1559
   10SAPS    C2 1218   4.762   2.032   6.528 -0.3070  0.2392  0.0908
   10SAPS    HS 1219   4.792   1.930   6.560 -1.5864 -0.0278  0.5120
   10SAPS   O21 1220   4.657   2.090   6.606 -0.5594 -0.0250  0.1745
   10SAPS   C21 1221   4.570   2.012   6.657  0.1530  0.2474  1.0042
   10SAPS   O22 1222   4.559   1.889   6.653 -0.6261  0.0223 -0.1491
   10SAPS   C22 1223   4.479   2.104   6.744 -0.6238 -0.3548  0.1744
   10SAPS   H2R 1224   4.531   2.199   6.769  1.5667 -0.9156 -1.8782
   10SAPS   H2S 1225   4.384   2.117   6.686 -0.7847  1.8609  0.8263
   10SAPS    C3 1226   4.890   2.114   6.549  0.4059 -0.5498 -0.5395
   10SAPS    HX 1227   4.874   2.210   6.497  0.9239 -1.1171 -1.7931
   10SAPS    HY 1228   4.976   2.074   6.491  1.7796  2.5557 -0.8541
   10SAPS   O31 1229   4.931   2.135   6.691  0.8215 -0.4721  0.6674
   10SAPS   C31 1230   4.932   2.035   6.778 -0.0581 -1.3051  0.1010
   10SAPS   O32 1231   4.920   1.923   6.749  0.0083  0.4260  0.3287
   10SAPS   C32 1232   4.946   2.102   6.916 -0.1791  0.8684 -0.1619
   10SAPS   H2X 1233   4.859   2.167   6.935  0.3167  1.6389 -0.4832
   10SAPS   H2Y 1234   5.039   2.161   6.903  1.9572 -2.1537  0.1863
   10SAPS   C23 1235   4.445   2.028   6.875 -0.2501  0.1316  0.0014
   10SAPS   H3R 1236   4.387   1.936   6.853  1.8291 -0.6240 -3.0029
   10SAPS   H3S 1237   4.390   2.096   6.942 -0.8681 -0.1199 -0.2444
   10SAPS   C24 1238   4.581   1.997   6.953  0.4373  0.4899  0.2715
   10SAPS   H4R 1239   4.638   2.091   6.969  0.3167  0.5140  0.5682
   10SAPS   H4S 1240   4.649   1.937   6.889  0.8595 -0.7382  1.7971
   10SAPS   C25 1241   4.569   1.924   7.086 -0.7859 -0.2095 -0.5279
   10SAPS   H5R 1242   4.542   1.817   7.085  0.0470 -0.4243 -0.5600
   10SAPS   C26 1243   4.577   1.973   7.213 -0.0386  1.0298 -0.3802
   10SAPS   H6R 1244   4.578   1.898   7.294 -1.6047  1.0916 -0.2760
   10SAPS   C27 1245   4.601   2.113   7.270  0.3056  0.1385  0.4542
   10SAPS   H7R 1246   4.666   2.166   7.197  0.2590 -0.4020  0.0199
   10SAPS   H7S 1247   4.656   2.099   7.365  1.9341 -1.3487 -0.6579
   10SAPS   C28 1248   4.484   2.201   7.293  0.4920 -0.5761  0.1996
   10SAPS   H8R 1249   4.390   2.180   7.238 -0.9930  1.4690  1.7910
   10SAPS   C29 1250   4.480   2.301   7.387  0.2314 -0.3534  0.7917
   10SAPS   H9R 1251   4.388   2.362   7.386  0.9056  1.0757 -4.2183
   10SAPS  C210 1252   4.589   2.338   7.479 -0.3066  0.3229 -0.1006
   10SAPS  H10R 1253   4.593   2.449   7.477  3.3476  0.3586 -3.2498
   10SAPS  H10S 1254   4.693   2.322   7.442 -1.0171  0.0636 -2.0778
   10SAPS  C211 1255   4.556   2.294   7.625 -0.3183 -0.2174 -0.2469
   10SAPS  H11R 1256   4.457   2.250   7.639 -0.6988  0.5230 -0.5210
   10SAPS  C212 1257   4.647   2.302   7.729  0.6344 -0.2016 -0.6599
   10SAPS  H12R 1258   4.628   2.257   7.827 -1.3627  3.1784  0.6996
   10SAPS  C213 1259   4.792   2.354   7.720  0.5285 -0.0544 -0.1375
   10SAPS  H13R 1260   4.786   2.451   7.664 -0.6221  0.5955  1.0550
   10SAPS  H13S 1261   4.857   2.281   7.668 -1.6114 -0.6353 -2.2169
   10SAPS  C214 1262   4.853   2.393   7.849 -0.5308  0.2492  0.2950
   10SAPS  H14R 1263   4.841   2.499   7.873 -1.4349  0.0859  0.6291
   10SAPS  C215 1264   4.896   2.303   7.944  0.0923  0.3461  0.1804
   10SAPS  H15R 1265   4.946   2.327   8.039 -2.1952  0.1023  1.5165
   10SAPS  C216 1266   4.887   2.153   7.920 -0.0954 -0.0459  0.9372
   10SAPS  H16R 1267   4.986   2.120   7.882 -0.4183 -0.3434  0.3307
   10SAPS  H16S 1268   4.813   2.127   7.842  2.1624 -1.7198 -0.7975
   10SAPS  C217 1269   4.870   2.092   8.061  0.0856 -0.1657 -0.3227
   10SAPS  H17R 1270   4.782   2.138   8.111 -1.8824 -1.6138 -2.2205
   10SAPS  H17S 1271   4.965   2.104   8.117  0.6867 -1.7744 -0.9449
   10SAPS  C218 1272   4.851   1.939   8.058  0.3438 -0.3238 -0.3586
   10SAPS  H18R 1273   4.921   1.896   7.984  1.6852 -0.6503  1.0336
   10SAPS  H18S 1274   4.752   1.914   8.013 -0.4054 -0.3017  1.1966
   10SAPS  C219 1275   4.859   1.877   8.200 -0.0703 -0.0801  0.4730
   10SAPS  H19R 1276   4.779   1.912   8.269  0.4359 -2.0266  2.1536
   10SAPS  H19S 1277   4.951   1.900   8.257  0.1111  3.1046 -0.8890
   10SAPS  C220 1278   4.850   1.718   8.185 -0.4951  0.9140  0.5868
   10SAPS  H20R 1279   4.743   1.692   8.172 -0.2088 -0.7792  1.2593
   10SAPS  H20S 1280   4.891   1.652   8.265 -2.2961 -0.4674  0.4338
   10SAPS  H20T 1281   4.903   1.690   8.091 -0.8099  0.1106  0.6415
   10SAPS   C33 1282   4.971   1.998   7.029  0.2079  0.4009  0.6825
   10SAPS   H3X 1283   5.064   1.937   7.018 -0.3013 -0.5502  1.5353
   10SAPS   H3Y 1284   4.880   1.935   7.037 -1.0637  2.1698  0.5748
   10SAPS   C34 1285   4.975   2.070   7.169 -0.4780  0.4557  0.5306
   10SAPS   H4X 1286   4.897   2.148   7.177  0.8346  1.5883  4.6241
   10SAPS   H4Y 1287   5.072   2.125   7.177  0.6032 -0.9266 -1.7850
   10SAPS   C35 1288   4.949   1.976   7.290 -0.4651 -0.7724  0.8403
   10SAPS   H5X 1289   5.020   1.891   7.299  0.3252 -0.4096 -1.3579
   10SAPS   H5Y 1290   4.848   1.931   7.283 -1.1050  0.0749  3.3957
   10SAPS   C36 1291   4.965   2.055   7.420 -0.4559 -0.2216  0.1948
   10SAPS   H6X 1292   4.878   2.124   7.430 -0.6473 -0.5672  0.9915
   10SAPS   H6Y 1293   5.057   2.118   7.419 -1.0796  0.7426 -1.4924
   10SAPS   C37 1294   4.964   1.976   7.555  0.6392 -0.1874  0.7488
   10SAPS   H7X 1295   4.945   2.044   7.641  0.6411  0.7299  0.0361
   10SAPS   H7Y 1296   5.060   1.922   7.567 -0.6539 -2.9542 -0.5523
   10SAPS   C38 1297   4.867   1.857   7.554 -0.9189 -0.3088 -0.0923
   10SAPS   H8X 1298   4.904   1.787   7.477 -2.5810 -2.1397  0.7023
   10SAPS   H8Y 1299   4.767   1.886   7.515 -0.4172 -0.7478 -1.7529
   10SAPS   C39 1300   4.852   1.785   7.690  0.1169  0.2516 -0.6533
   10SAPS   H9X 1301   4.797   1.853   7.759 -0.6339 -2.3175  1.4477
   10SAPS   H9Y 1302   4.948   1.773   7.744 -0.9402  0.7288  1.4544
   10SAPS  C310 1303   4.780   1.658   7.679 -0.0808  0.2527  0.2660
   10SAPS  H10X 1304   4.834   1.582   7.619 -0.8113 -1.0865  1.2645
   10SAPS  H10Y 1305   4.675   1.679   7.651 -0.7253 -1.0792  1.5536
   10SAPS  C311 1306   4.733   1.600   7.817 -0.6936  1.1546 -0.8390
   10SAPS  H11X 1307   4.688   1.674   7.887 -2.7891  0.1412 -1.0571
   10SAPS  H11Y 1308   4.809   1.552   7.883 -2.3404 -1.3807 -0.6407
   10SAPS  C312 1309   4.620   1.494   7.794 -0.0260 -0.2552 -0.2180
   10SAPS  H12X 1310   4.655   1.394   7.763  0.4290  0.3174 -1.6122
   10SAPS  H12Y 1311   4.551   1.533   7.716  1.7614  0.8091 -1.3300
   10SAPS  C313 1312   4.553   1.459   7.928 -0.0180 -0.5507  0.0362
   10SAPS  H13X 1313   4.522   1.555   7.975  0.2187 -0.0450 -0.8225
   10SAPS  H13Y 1314   4.625   1.420   8.003 -0.7183 -0.5039  0.7536
   10SAPS  C314 1315   4.436   1.365   7.902 -0.4946 -0.8711  0.7489
   10SAPS  H14X 1316   4.466   1.284   7.832 -0.6214  0.5504 -1.0074
   10SAPS  H14Y 1317   4.365   1.428   7.844  0.0629  1.0035  2.0315
   10SAPS  C315 1318   4.370   1.312   8.030  0.0519  0.4864  0.6070
   10SAPS  H15X 1319   4.452   1.260   8.085  0.4659  1.8537  1.3446
   10SAPS  H15Y 1320   4.286   1.243   8.009  1.0794 -0.9369  1.0006
   10SAPS  C316 1321   4.299   1.416   8.117 -0.0362 -0.2405  0.5286
   10SAPS  H16X 1322   4.208   1.461   8.071 -0.1002  1.0001  1.8011
   10SAPS  H16Y 1323   4.374   1.492   8.149  0.1962  0.1952 -0.9774
   10SAPS  C317 1324   4.226   1.345   8.237  0.0950  0.1704 -0.5947
   10SAPS  H17X 1325   4.296   1.279   8.292  0.2140 -0.3811 -1.3966
   10SAPS  H17Y 1326   4.141   1.289   8.193 -0.6681  0.5051  0.4126
   10SAPS  C318 1327   4.183   1.450   8.342 -0.1343 -0.0292  0.0210
   10SAPS  H18X 1328   4.255   1.525   8.381 -2.8687  2.3771  0.8421
   10SAPS  H18Y 1329   4.129   1.402   8.427  1.5360 -0.5517  0.8192
   10SAPS  H18Z 1330   4.107   1.511   8.288 -1.1944 -1.0355  0.3189
   11SAPS     N 1331   5.292   2.876   5.916 -0.1968 -0.5132 -0.1321
   11SAPS   HN1 1332   5.304   2.821   5.828  1.7230  0.3253 -0.4581
   11SAPS   HN2 1333   5.355   2.834   5.987 -0.3266  1.8751  1.5189
   11SAPS   HN3 1334   5.196   2.883   5.954  0.1514  2.0437  0.4759
   11SAPS   C12 1335   5.337   3.011   5.886 -0.2796 -0.6147 -0.0769
   11SAPS  H12A 1336   5.331   3.080   5.969 -0.4600  2.0630 -2.1886
   11SAPS   C13 1337   5.477   3.015   5.827  0.1794 -0.1335  0.2638
   11SAPS  O13A 1338   5.543   2.909   5.811 -0.1852 -0.2810 -0.6165
   11SAPS  O13B 1339   5.528   3.129   5.800  0.1576 -0.6338  0.2441
   11SAPS   C11 1340   5.239   3.076   5.782 -0.0605 -0.0974 -0.3470
   11SAPS  H11A 1341   5.243   3.011   5.691  1.0889  0.1192 -0.4708
   11SAPS  H11B 1342   5.275   3.169   5.734 -1.7918  0.5134 -0.5494
   11SAPS     P 1343   4.976   3.073   5.748  0.4041  0.0106  0.2731
   11SAPS   O13 1344   4.990   3.150   5.626  0.0140  0.0318 -0.0219
   11SAPS   O14 1345   4.940   2.928   5.734  0.2949  0.0761 -0.1212
   11SAPS   O12 1346   5.111   3.080   5.833  0.2454 -0.3594  0.4553
   11SAPS   O11 1347   4.865   3.150   5.838 -0.0517 -0.6043 -0.0377
   11SAPS    C1 1348   4.837   3.081   5.962 -0.4441 -0.0742 -0.5065
   11SAPS    HA 1349   4.792   2.981   5.945  0.5129 -0.2950 -1.9358
   11SAPS    HB 1350   4.920   3.076   6.036 -0.6855  0.3168 -0.2011
   11SAPS    C2 1351   4.732   3.162   6.036  0.0394 -0.2970  0.1912
   11SAPS    HS 1352   4.645   3.191   5.973 -0.4525  1.2667  1.5128
   11SAPS   O21 1353   4.796   3.270   6.100 -0.2137  0.6478  0.2410
   11SAPS   C21 1354   4.723   3.381   6.111 -0.5456 -0.5962  0.1730
   11SAPS   O22 1355   4.604   3.391   6.090 -1.0827 -0.4991  0.6465
   11SAPS   C22 1356   4.816   3.487   6.183  0.0172  0.0469 -1.0902
   11SAPS   H2R 1357   4.908   3.470   6.122  0.6259 -2.9144  0.4544
   11SAPS   H2S 1358   4.784   3.593   6.177 -1.1037 -0.1463  0.7370
   11SAPS    C3 1359   4.683   3.063   6.156  0.5273 -0.6553 -0.6276
   11SAPS    HX 1360   4.774   3.054   6.219  0.7478 -2.3639 -1.1564
   11SAPS    HY 1361   4.647   2.958   6.146  1.7492 -1.1969  0.3983
   11SAPS   O31 1362   4.579   3.135   6.237 -0.5988  0.3830 -0.3166
   11SAPS   C31 1363   4.596   3.125   6.371  0.0923 -0.1764  0.7837
   11SAPS   O32 1364   4.661   3.037   6.426 -0.3047 -0.0188 -0.3137
   11SAPS   C32 1365   4.526   3.242   6.444  0.3276  0.4942  0.2598
   11SAPS   H2X 1366   4.425   3.212   6.478  0.9362 -0.0387  1.6724
   11SAPS   H2Y 1367   4.507   3.331   6.380 -2.3644  0.7871  1.3501
   11SAPS   C23 1368   4.871   3.434   6.325 -0.3469  0.6259 -0.0682
   11SAPS   H3R 1369   4.866   3.323   6.325 -1.3471  0.6490 -1.2052
   11SAPS   H3S 1370   4.806   3.471   6.407 -0.0231 -1.6195  1.2708
   11SAPS   C24 1371   5.015   3.484   6.341  0.4883  0.3483  0.1909
   11SAPS   H4R 1372   5.036   3.585   6.299  1.0200  0.8970  1.7172
   11SAPS   H4S 1373   5.080   3.431   6.268 -0.0424  2.1336 -1.6630
   11SAPS   C25 1374   5.060   3.475   6.488  0.2045 -0.1186 -0.3469
   11SAPS   H5R 1375   5.043   3.563   6.551  1.2553  0.5759 -0.9970
   11SAPS   C26 1376   5.136   3.377   6.544 -0.5831  0.8390 -0.4972
   11SAPS   H6R 1377   5.174   3.375   6.647  0.5387  0.2049 -0.9075
   11SAPS   C27 1378   5.176   3.251   6.471 -0.0135 -0.1290 -0.8400
   11SAPS   H7R 1379   5.285   3.254   6.448  0.1702  1.2666  0.0994
   11SAPS   H7S 1380   5.128   3.247   6.371 -0.4140  0.5903 -0.6782
   11SAPS   C28 1381   5.147   3.115   6.534  0.2758  0.0821 -0.0423
   11SAPS   H8R 1382   5.048   3.079   6.504  0.4002 -0.2390 -0.0762
   11SAPS   C29 1383   5.235   3.045   6.612  0.3429 -0.1277  0.2625
   11SAPS   H9R 1384   5.205   2.949   6.657 -1.2407  0.3589  0.3225
   11SAPS  C210 1385   5.377   3.095   6.650 -0.1964  0.7250 -0.4656
   11SAPS  H10R 1386   5.361   3.173   6.729 -1.6063  1.6351 -1.5990
   11SAPS  H10S 1387   5.432   3.147   6.570 -0.2281 -1.3786 -1.9199
   11SAPS  C211 1388   5.454   2.972   6.692  0.7230 -0.0814 -0.6805
   11SAPS  H11R 1389   5.536   2.943   6.624  2.4036  1.2724  0.6723
   11SAPS  C212 1390   5.442   2.914   6.816 -0.1165 -0.4701  0.1822
   11SAPS  H12R 1391   5.514   2.837   6.849 -0.0452  0.1410  1.4886
   11SAPS  C213 1392   5.365   2.958   6.933  0.1178  0.0508 -0.3557
   11SAPS  H13R 1393   5.306   3.049   6.908  0.1849 -0.5358 -2.8537
   11SAPS  H13S 1394   5.444   2.989   7.005  0.8397 -0.0710 -1.0857
   11SAPS  C214 1395   5.270   2.861   6.993 -0.0260  1.0164  0.1058
   11SAPS  H14R 1396   5.179   2.841   6.934  0.0013  0.6004  0.2030
   11SAPS  C215 1397   5.295   2.786   7.106  0.5123  0.0040  0.5827
   11SAPS  H15R 1398   5.221   2.710   7.138  0.7385 -2.1145 -3.2943
   11SAPS  C216 1399   5.416   2.797   7.192  0.1080  0.5148 -0.1420
   11SAPS  H16R 1400   5.399   2.831   7.297  0.4593  0.2644 -0.0054
   11SAPS  H16S 1401   5.488   2.868   7.145 -0.5818  1.5505  0.3226
   11SAPS  C217 1402   5.503   2.663   7.205  0.5417  0.4959  0.1084
   11SAPS  H17R 1403   5.531   2.626   7.104  1.2157  2.8422 -0.6443
   11SAPS  H17S 1404   5.429   2.587   7.236 -0.0979  0.1265 -2.1466
   11SAPS  C218 1405   5.624   2.682   7.291 -0.3515  0.3760 -0.0318
   11SAPS  H18R 1406   5.698   2.602   7.268 -2.0491 -0.7229 -1.9245
   11SAPS  H18S 1407   5.594   2.666   7.396  0.8205 -0.5635  0.1860
   11SAPS  C219 1408   5.692   2.824   7.281  0.1496 -0.6574 -0.7023
   11SAPS  H19R 1409   5.621   2.906   7.304 -0.7000 -0.9140 -2.2409
   11SAPS  H19S 1410   5.723   2.828   7.174 -0.0705  0.1882 -0.7423
   11SAPS  C220 1411   5.819   2.826   7.367 -0.3490 -0.6481 -0.1582
   11SAPS  H20R 1412   5.795   2.813   7.475  1.4449 -0.9348  0.2399
   11SAPS  H20S 1413   5.872   2.922   7.348  1.0912 -0.6903  2.9967
   11SAPS  H20T 1414   5.873   2.732   7.343 -0.2335 -0.9779  1.3267
   11SAPS   C33 1415   4.588   3.279   6.576  0.4256  0.0497 -1.0126
   11SAPS   H3X 1416   4.699   3.287   6.574  0.4759  0.5428  1.0514
   11SAPS   H3Y 1417   4.551   3.200   6.645 -1.8854  0.8199 -1.3136
   11SAPS   C34 1418   4.544   3.416   6.630 -0.6655  1.1401  0.2899
   11SAPS   H4X 1419   4.437   3.433   6.604 -0.5764  2.8410  0.9666
   11SAPS   H4Y 1420   4.606   3.495   6.584  0.4234 -1.3658 -2.9914
   11SAPS   C35 1421   4.552   3.424   6.783 -0.1523 -0.4189  0.5012
   11SAPS   H5X 1422   4.654   3.418   6.826  0.1485  0.5576 -0.0552
   11SAPS   H5Y 1423   4.505   3.327   6.809  1.9912 -1.5531  0.3486
   11SAPS   C36 1424   4.464   3.538   6.850 -0.0676  0.9567 -0.1839
   11SAPS   H6X 1425   4.363   3.528   6.804 -0.2669  0.5523  0.3343
   11SAPS   H6Y 1426   4.502   3.642   6.835  0.7221  0.6603 -0.3111
   11SAPS   C37 1427   4.449   3.515   6.999 -0.1585  0.3105  1.2411
   11SAPS   H7X 1428   4.554   3.527   7.033  1.6393 -0.1658 -3.3393
   11SAPS   H7Y 1429   4.413   3.411   7.015  1.9164 -0.3117  2.1852
   11SAPS   C38 1430   4.361   3.619   7.065  0.0130  0.3613 -0.1493
   11SAPS   H8X 1431   4.261   3.601   7.021  0.1829 -2.3856  0.4210
   11SAPS   H8Y 1432   4.405   3.716   7.034  1.0384 -0.1315 -0.2781
   11SAPS   C39 1433   4.327   3.603   7.208 -0.1676  0.0615 -0.0277
   11SAPS   H9X 1434   4.394   3.530   7.259 -1.5949 -0.0068  1.8857
   11SAPS   H9Y 1435   4.225   3.559   7.223 -0.9448  0.4622 -3.4229
   11SAPS  C310 1436   4.338   3.729   7.297 -0.1203 -0.0261 -0.1697
   11SAPS  H10X 1437   4.278   3.814   7.259  0.8495  0.1747 -1.3253
   11SAPS  H10Y 1438   4.442   3.769   7.297  0.5702 -1.6852  1.5555
   11SAPS  C311 1439   4.306   3.687   7.444  0.2598  1.0009  0.5021
   11SAPS  H11X 1440   4.373   3.605   7.478  0.7692  0.9011 -0.6988
   11SAPS  H11Y 1441   4.198   3.662   7.452  0.3438  0.7808  1.0408
   11SAPS  C312 1442   4.322   3.802   7.541  0.4899  0.8598  0.5871
   11SAPS  H12X 1443   4.222   3.849   7.551 -0.4796 -0.5103 -1.8706
   11SAPS  H12Y 1444   4.395   3.868   7.489  0.2064 -1.0689 -2.4619
   11SAPS  C313 1445   4.374   3.771   7.676  0.0929  0.1425 -1.1224
   11SAPS  H13X 1446   4.397   3.873   7.713  2.5210 -1.0917  1.0545
   11SAPS  H13Y 1447   4.471   3.719   7.665 -1.2899 -2.3849 -2.3179
   11SAPS  C314 1448   4.281   3.683   7.759 -0.3958  0.2238  0.0964
   11SAPS  H14X 1449   4.275   3.585   7.707 -0.7460  0.0331  0.4795
   11SAPS  H14Y 1450   4.173   3.712   7.758 -0.5765 -0.4349 -1.5801
   11SAPS  C315 1451   4.327   3.656   7.900 -0.1845 -0.1482 -0.5189
   11SAPS  H15X 1452   4.308   3.751   7.954 -0.6599 -0.5639  0.0604
   11SAPS  H15Y 1453   4.438   3.646   7.902 -0.3133 -1.9607 -0.0331
   11SAPS  C316 1454   4.252   3.540   7.980 -0.7412 -0.7585 -0.2780
   11SAPS  H16X 1455   4.266   3.445   7.924  0.6623 -2.2769  2.4791
   11SAPS  H16Y 1456   4.145   3.568   7.969 -0.7031 -0.5967 -0.2463
   11SAPS  C317 1457   4.305   3.523   8.130  0.4210  0.5496  0.6890
   11SAPS  H17X 1458   4.234   3.452   8.178  0.7725  0.7056  1.4579
   11SAPS  H17Y 1459   4.302   3.622   8.180  1.5002  0.4397  1.0019
   11SAPS  C318 1460   4.433   3.445   8.141 -0.3508  0.6899  0.0557
   11SAPS  H18X 1461   4.505   3.490   8.070 -0.9309  1.3867 -0.1017
   11SAPS  H18Y 1462   4.420   3.336   8.127  0.9072  0.4618  0.5660
   11SAPS  H18Z 1463   4.488   3.477   8.232  0.9571 -1.8238  0.2513
   12SAPS     N 1464   3.246   5.131   6.188  0.1988 -0.6313 -0.8154
   12SAPS   HN1 1465   3.272   5.038   6.227 -2.5320 -0.4871  1.7901
   12SAPS   HN2 1466   3.327   5.196   6.194  0.5415 -1.1539  0.8344
   12SAPS   HN3 1467   3.174   5.172   6.251  0.0060  0.3500 -1.6365
   12SAPS   C12 1468   3.198   5.123   6.050  0.0831  0.2215  0.3018
   12SAPS  H12A 1469   3.258   5.042   6.010  2.4479  1.1175  1.8459
   12SAPS   C13 1470   3.051   5.068   6.035  0.3255 -0.4728 -0.4958
   12SAPS  O13A 1471   2.986   5.043   6.139 -0.1999  0.2014  0.0098
   12SAPS  O13B 1472   2.999   5.053   5.927 -0.1394 -0.0428  0.1253
   12SAPS   C11 1473   3.226   5.258   5.976  1.0463  0.2229 -0.0907
   12SAPS  H11A 1474   3.158   5.336   6.017  0.5356  0.9284 -2.1831
   12SAPS  H11B 1475   3.189   5.255   5.871 -1.3225  0.9174  0.6502
   12SAPS     P 1476   3.420   5.439   5.984  0.2101  0.2714 -0.0886
   12SAPS   O13 1477   3.411   5.466   5.839 -0.0141 -0.1546 -0.3737
   12SAPS   O14 1478   3.343   5.530   6.072 -0.0099  0.1956  0.2862
   12SAPS   O12 1479   3.366   5.289   5.989 -0.0475 -0.2721 -0.5982
   12SAPS   O11 1480   3.569   5.439   6.029  0.5076 -0.1976  0.2475
   12SAPS    C1 1481   3.654   5.325   5.998  0.3260 -1.4880 -0.0470
   12SAPS    HA 1482   3.625   5.265   5.909  2.2762 -1.8697 -0.4643
   12SAPS    HB 1483   3.751   5.364   5.960 -1.4664  1.3169 -2.2431
   12SAPS    C2 1484   3.668   5.229   6.121 -0.8207 -0.7520 -0.7421
   12SAPS    HS 1485   3.579   5.163   6.122  0.9621 -3.3623 -2.1449
   12SAPS   O21 1486   3.685   5.307   6.240  0.1803  0.1438  0.2771
   12SAPS   C21 1487   3.576   5.319   6.311 -0.5396  0.5888  0.4095
   12SAPS   O22 1488   3.470   5.272   6.278 -0.3525  0.6500 -0.7688
   12SAPS   C22 1489   3.596   5.410   6.432 -0.3223  0.5316  0.1645
   12SAPS   H2R 1490   3.621   5.344   6.517 -2.8209 -0.4145  0.2552
   12SAPS   H2S 1491   3.673   5.486   6.407  0.3207 -0.3369 -0.5586
   12SAPS    C3 1492   3.797   5.143   6.097 -0.1132 -0.4202 -0.2333
   12SAPS    HX 1493   3.882   5.214   6.088 -0.1720  0.0353  2.1101
   12SAPS    HY 1494   3.789   5.081   6.005  0.4779 -1.7384  0.5693
   12SAPS   O31 1495   3.830   5.062   6.212  0.6098 -0.3769  0.2325
   12SAPS   C31 1496   3.741   4.962   6.239 -0.3947 -0.4617 -0.0440
   12SAPS   O32 1497   3.637   4.946   6.180  0.4631 -0.7645 -0.2583
   12SAPS   C32 1498   3.800   4.870   6.347 -0.1071  0.2055  0.7764
   12SAPS   H2X 1499   3.877   4.806   6.299 -0.6267  0.3080 -0.2247
   12SAPS   H2Y 1500   3.719   4.799   6.372 -0.5737 -0.3155 -1.8581
   12SAPS   C23 1501   3.465   5.483   6.478 -0.6985  0.3974  0.7949
   12SAPS   H3R 1502   3.373   5.423   6.466 -0.4817  0.3721 -0.9930
   12SAPS   H3S 1503   3.439   5.572   6.416  0.0910 -0.8546 -1.4252
   12SAPS   C24 1504   3.491   5.527   6.618  0.3331 -0.2496 -0.4758
   12SAPS   H4R 1505   3.594   5.569   6.615  1.6712 -3.0513  1.6370
   12SAPS   H4S 1506   3.498   5.438   6.684  0.9621  0.6147  0.6562
   12SAPS   C25 1507   3.392   5.626   6.682  0.1023 -0.1145 -0.4964
   12SAPS   H5R 1508   3.292   5.583   6.696  1.1635 -2.8202 -0.5993
   12SAPS   C26 1509   3.421   5.748   6.732  0.0459  0.8274 -0.0482
   12SAPS   H6R 1510   3.339   5.807   6.774 -0.6303 -0.1424  0.0162
   12SAPS   C27 1511   3.550   5.823   6.744  0.7004  0.3679  0.4857
   12SAPS   H7R 1512   3.622   5.749   6.786  1.8868  2.2985  2.0324
   12SAPS   H7S 1513   3.547   5.901   6.823  0.6008  0.6220  0.2288
   12SAPS   C28 1514   3.596   5.875   6.610 -0.2366 -0.5113  0.5861
   12SAPS   H8R 1515   3.518   5.929   6.555  0.0107 -1.7284 -1.0476
   12SAPS   C29 1516   3.716   5.859   6.550 -0.0503  0.8020 -1.0525
   12SAPS   H9R 1517   3.726   5.892   6.446  0.4533 -0.7064 -1.5118
   12SAPS  C210 1518   3.838   5.794   6.609 -0.9701  0.6689  0.0253
   12SAPS  H10R 1519   3.824   5.776   6.718  0.3080 -1.1424 -0.0706
   12SAPS  H10S 1520   3.919   5.868   6.594 -0.8766  0.7405  0.8191
   12SAPS  C211 1521   3.879   5.662   6.546  0.2990  0.0378 -0.8897
   12SAPS  H11R 1522   3.903   5.676   6.440  0.7606  0.3768 -0.7451
   12SAPS  C212 1523   3.889   5.542   6.601 -0.6508 -0.7924  0.9033
   12SAPS  H12R 1524   3.935   5.456   6.550 -1.3452 -1.0021  0.6168
   12SAPS  C213 1525   3.864   5.504   6.742 -0.1769  0.1331 -0.2046
   12SAPS  H13R 1526   3.791   5.579   6.779  1.8351  2.5372 -0.8437
   12SAPS  H13S 1527   3.962   5.520   6.792  0.7168 -2.4719 -0.9662
   12SAPS  C214 1528   3.824   5.359   6.774 -0.1043 -0.0955 -0.1328
   12SAPS  H14R 1529   3.784   5.308   6.685  0.1420  1.1373 -0.9736
   12SAPS  C215 1530   3.836   5.301   6.895  0.1304 -0.4284  0.0375
   12SAPS  H15R 1531   3.806   5.195   6.901 -1.0304 -0.2408 -1.6916
   12SAPS  C216 1532   3.893   5.364   7.022  0.1415 -0.5740  0.3549
   12SAPS  H16R 1533   3.984   5.425   7.003 -0.3326 -0.2858 -1.1160
   12SAPS  H16S 1534   3.907   5.287   7.101 -1.7427 -2.2532 -0.8693
   12SAPS  C217 1535   3.793   5.469   7.081 -0.2467  0.5147 -0.2899
   12SAPS  H17R 1536   3.699   5.415   7.105  0.5262 -0.6730  0.0960
   12SAPS  H17S 1537   3.763   5.544   7.005  0.8873  0.7497 -0.5240
   12SAPS  C218 1538   3.848   5.552   7.203 -0.3569  0.4173  0.0444
   12SAPS  H18R 1539   3.785   5.643   7.192 -0.8852  0.2641  1.5274
   12SAPS  H18S 1540   3.954   5.578   7.184  0.1742 -0.6827  1.3393
   12SAPS  C219 1541   3.825   5.486   7.335 -0.0857  0.2256 -0.3841
   12SAPS  H19R 1542   3.893   5.401   7.356 -1.8806 -0.8151  1.7617
   12SAPS  H19S 1543   3.722   5.447   7.351  0.5826 -1.7533 -0.6331
   12SAPS  C220 1544   3.840   5.589   7.450 -0.5246 -0.1904 -0.0921
   12SAPS  H20R 1545   3.844   5.526   7.541  0.3935 -0.6233 -0.4170
   12SAPS  H20S 1546   3.761   5.667   7.449 -1.4684 -1.1176 -1.7920
   12SAPS  H20T 1547   3.934   5.646   7.435 -0.3622  0.2035  2.1327
   12SAPS   C33 1548   3.869   4.930   6.471  0.0524 -0.5329 -0.4363
   12SAPS   H3X 1549   3.812   5.006   6.529  1.7103  0.3561  0.1137
   12SAPS   H3Y 1550   3.960   4.985   6.437  0.0850  0.9565  1.8430
   12SAPS   C34 1551   3.903   4.821   6.559 -0.1430  0.6176  0.1391
   12SAPS   H4X 1552   3.955   4.736   6.510 -1.6298  0.4151 -1.1759
   12SAPS   H4Y 1553   3.807   4.778   6.594 -1.0244  1.7934 -0.7110
   12SAPS   C35 1554   3.971   4.872   6.693 -0.2040  0.1402  0.1552
   12SAPS   H5X 1555   3.917   4.964   6.723  0.9383  1.3476 -1.3560
   12SAPS   H5Y 1556   4.073   4.897   6.659 -0.0885 -0.1203  0.3078
   12SAPS   C36 1557   3.966   4.763   6.797 -0.6855  0.7637 -0.3382
   12SAPS   H6X 1558   3.989   4.665   6.748  0.1582  0.0834  1.3530
   12SAPS   H6Y 1559   3.856   4.767   6.814 -1.1389 -0.9633 -2.3635
   12SAPS   C37 1560   4.050   4.789   6.917  0.3176  0.3165 -0.1897
   12SAPS   H7X 1561   4.024   4.888   6.959  0.6845  1.2191 -2.0036
   12SAPS   H7Y 1562   4.157   4.781   6.888  0.0781 -0.5997 -0.8555
   12SAPS   C38 1563   4.021   4.682   7.026 -0.0656  0.4839 -0.0557
   12SAPS   H8X 1564   4.078   4.590   7.002 -0.6629 -0.2328  1.1809
   12SAPS   H8Y 1565   3.911   4.669   7.028 -0.5504  3.7086  2.0249
   12SAPS   C39 1566   4.072   4.733   7.163 -0.0837 -0.0337 -0.4562
   12SAPS   H9X 1567   4.020   4.828   7.185  0.6237 -0.3050  2.8512
   12SAPS   H9Y 1568   4.182   4.748   7.163 -0.2144  1.0555  1.0437
   12SAPS  C310 1569   4.047   4.630   7.269  0.1242  0.1621  0.3344
   12SAPS  H10X 1570   4.101   4.535   7.249 -1.0196 -0.3836 -0.2486
   12SAPS  H10Y 1571   3.938   4.608   7.266  0.2572 -0.8775  1.8748
   12SAPS  C311 1572   4.088   4.693   7.404 -0.0674  0.3475  0.1145
   12SAPS  H11X 1573   4.071   4.803   7.397  0.9713  0.4351 -2.0749
   12SAPS  H11Y 1574   4.198   4.679   7.413  0.0549  0.4155 -1.0597
   12SAPS  C312 1575   4.029   4.628   7.536 -0.5547 -0.3822  0.1704
   12SAPS  H12X 1576   4.047   4.518   7.534 -0.4251 -0.3678  0.6023
   12SAPS  H12Y 1577   3.920   4.649   7.531 -0.7504 -1.2531  0.6849
   12SAPS  C313 1578   4.090   4.673   7.666 -0.2020  0.0145 -0.7579
   12SAPS  H13X 1579   4.084   4.783   7.681 -0.2586  0.0419 -0.9797
   12SAPS  H13Y 1580   4.196   4.639   7.672  0.5011  1.8571 -1.9805
   12SAPS  C314 1581   4.024   4.619   7.793  0.2038 -0.9635  0.0927
   12SAPS  H14X 1582   4.048   4.511   7.798 -0.1858 -1.0278  0.7575
   12SAPS  H14Y 1583   3.915   4.632   7.772  0.3525  2.8188  0.8850
   12SAPS  C315 1584   4.043   4.701   7.923 -0.3532  0.0656  0.7764
   12SAPS  H15X 1585   4.008   4.805   7.912  1.6437  0.5653 -2.0743
   12SAPS  H15Y 1586   4.152   4.714   7.936  0.0198  0.5576 -2.1276
   12SAPS  C316 1587   3.979   4.642   8.047 -0.4172  0.5660 -0.2733
   12SAPS  H16X 1588   3.878   4.599   8.036 -0.5644  0.0877  2.3064
   12SAPS  H16Y 1589   3.976   4.727   8.119  1.6163 -0.0529  0.5985
   12SAPS  C317 1590   4.070   4.547   8.119  0.5104 -0.2139 -0.0368
   12SAPS  H17X 1591   4.161   4.609   8.128  1.2056 -1.0324 -1.1920
   12SAPS  H17Y 1592   4.091   4.459   8.054  0.9564  2.7465 -4.2426
   12SAPS  C318 1593   4.025   4.500   8.262  0.0348 -0.3105  0.4671
   12SAPS  H18X 1594   3.916   4.476   8.260 -0.6906  2.5268 -1.9910
   12SAPS  H18Y 1595   4.026   4.587   8.331 -1.3012 -0.9498  1.3340
   12SAPS  H18Z 1596   4.083   4.412   8.297 -1.0596 -0.7792  1.1525
   13SAPS     N 1597   6.089   5.170   5.898  0.5212  0.7159  0.4667
   13SAPS   HN1 1598   6.060   5.169   5.998 -0.7292  0.1951  0.1175
   13SAPS   HN2 1599   6.191   5.191   5.899  0.5292  0.9260 -1.1923
   13SAPS   HN3 1600   6.051   5.258   5.856 -0.2511  0.0951 -0.1585
   13SAPS   C12 1601   6.045   5.047   5.814 -0.9835 -0.3553  0.0112
   13SAPS  H12A 1602   5.938   5.055   5.803 -0.8579  3.3817  0.0299
   13SAPS   C13 1603   6.112   5.027   5.677 -0.1133  0.4420 -0.9654
   13SAPS  O13A 1604   6.200   5.100   5.636  0.7155 -0.0115  0.2773
   13SAPS  O13B 1605   6.065   4.937   5.600 -0.3430  0.5711  0.1250
   13SAPS   C11 1606   6.069   4.930   5.902  0.3903  0.7907 -0.6742
   13SAPS  H11A 1607   6.175   4.918   5.933 -0.2461  0.7873  1.6927
   13SAPS  H11B 1608   6.054   4.835   5.848  2.7395 -1.1435  1.7796
   13SAPS     P 1609   5.899   4.836   6.084  0.2332 -0.3275  0.1388
   13SAPS   O13 1610   5.865   4.884   6.219  0.7515 -0.6327 -0.2995
   13SAPS   O14 1611   5.784   4.814   5.994  0.1188 -0.0146  0.5641
   13SAPS   O12 1612   5.993   4.940   6.021  0.5291 -0.0259 -0.0519
   13SAPS   O11 1613   5.983   4.695   6.091 -0.4910 -0.1041 -0.4422
   13SAPS    C1 1614   6.107   4.703   6.162  0.2591 -0.2435 -0.9277
   13SAPS    HA 1615   6.189   4.716   6.089  2.1641 -1.1522  0.9340
   13SAPS    HB 1616   6.106   4.784   6.238 -2.9492 -0.5847 -0.4560
   13SAPS    C2 1617   6.139   4.573   6.241  0.3615 -0.4524  0.6436
   13SAPS    HS 1618   6.172   4.505   6.159 -1.0686  1.3057 -1.5263
   13SAPS   O21 1619   6.027   4.526   6.314 -0.5024  0.3025  0.5944
   13SAPS   C21 1620   6.046   4.393   6.335 -0.2949 -0.8291  0.3317
   13SAPS   O22 1621   6.136   4.322   6.291 -0.7041  0.1738 -0.2160
   13SAPS   C22 1622   5.947   4.342   6.434  0.0969  0.3721  0.0413
   13SAPS   H2R 1623   5.850   4.396   6.448 -0.0880  0.0513  0.0081
   13SAPS   H2S 1624   5.914   4.251   6.379 -1.6544  2.3963 -2.5275
   13SAPS    C3 1625   6.265   4.581   6.336 -0.4940 -0.3970 -1.4029
   13SAPS    HX 1626   6.355   4.610   6.276 -0.0414  0.0394 -0.5369
   13SAPS    HY 1627   6.289   4.488   6.391 -1.0278  0.8266  1.0215
   13SAPS   O31 1628   6.231   4.684   6.437  0.3032  0.1236  0.0130
   13SAPS   C31 1629   6.299   4.685   6.547  0.7688  0.3678 -0.5977
   13SAPS   O32 1630   6.393   4.616   6.575 -0.0174 -0.3993 -0.2944
   13SAPS   C32 1631   6.240   4.788   6.643  0.2695 -0.7003  0.1349
   13SAPS   H2X 1632   6.314   4.871   6.640  0.0256 -0.3689  1.8211
   13SAPS   H2Y 1633   6.250   4.749   6.747 -0.7147 -0.1223  0.4566
   13SAPS   C23 1634   6.018   4.300   6.566  0.7822  0.0212  0.7662
   13SAPS   H3R 1635   6.113   4.248   6.541  2.3959  2.6540  1.0099
   13SAPS   H3S 1636   5.959   4.227   6.626  3.2271 -1.6213  1.3227
   13SAPS   C24 1637   6.044   4.422   6.656 -0.7772  0.3123 -0.1144
   13SAPS   H4R 1638   5.951   4.468   6.697 -1.0338  2.2039 -2.6126
   13SAPS   H4S 1639   6.084   4.500   6.588  0.1414 -0.1265 -0.0832
   13SAPS   C25 1640   6.146   4.382   6.766  0.6543 -0.4700  0.2547
   13SAPS   H5R 1641   6.238   4.336   6.726 -0.9814 -1.6662 -2.4125
   13SAPS   C26 1642   6.127   4.384   6.900 -0.5403  0.1791  0.2679
   13SAPS   H6R 1643   6.200   4.335   6.965  1.4760  2.8970  0.2331
   13SAPS   C27 1644   6.001   4.438   6.963  0.3743 -0.1800 -0.6084
   13SAPS   H7R 1645   5.911   4.429   6.897  0.1299  0.0368 -0.3053
   13SAPS   H7S 1646   6.015   4.548   6.976 -2.8585  0.3853 -1.0497
   13SAPS   C28 1647   5.953   4.383   7.094 -0.0903 -0.4536  0.3264
   13SAPS   H8R 1648   5.869   4.313   7.083 -0.3848  0.1397 -1.6964
   13SAPS   C29 1649   6.014   4.414   7.210  0.3764  0.4407 -0.5939
   13SAPS   H9R 1650   5.982   4.377   7.308  0.4395 -2.0267 -1.4263
   13SAPS  C210 1651   6.122   4.511   7.224 -0.4737 -0.4125  0.1263
   13SAPS  H10R 1652   6.193   4.496   7.139  1.1780  0.7972  1.2281
   13SAPS  H10S 1653   6.175   4.483   7.317 -0.5964  1.2634  0.7296
   13SAPS  C211 1654   6.067   4.651   7.233  0.1630 -0.2476  0.1969
   13SAPS  H11R 1655   6.019   4.687   7.140 -0.6138 -0.7784  0.3818
   13SAPS  C212 1656   6.055   4.727   7.344  0.3790 -0.0049 -0.2753
   13SAPS  H12R 1657   6.001   4.823   7.336  0.4700  0.0577 -0.1484
   13SAPS  C213 1658   6.098   4.696   7.485  0.4291 -0.5313 -0.8993
   13SAPS  H13R 1659   6.197   4.744   7.502  0.3003  0.3194 -2.3783
   13SAPS  H13S 1660   6.118   4.592   7.520  0.3737  0.6159  3.0680
   13SAPS  C214 1661   5.994   4.749   7.591  0.0739  0.6664  0.3311
   13SAPS  H14R 1662   5.898   4.695   7.595  0.9865 -0.9366  1.6953
   13SAPS  C215 1663   6.016   4.843   7.685 -1.2795  0.1564 -0.0786
   13SAPS  H15R 1664   5.935   4.882   7.748 -1.2289  1.6216 -0.8997
   13SAPS  C216 1665   6.152   4.912   7.707  0.0759 -0.7340 -0.6568
   13SAPS  H16R 1666   6.146   5.015   7.666  0.8657 -0.2898  0.2905
   13SAPS  H16S 1667   6.239   4.854   7.671  2.4871  2.2760 -0.0585
   13SAPS  C217 1668   6.180   4.923   7.852  0.1081 -0.2203  0.5057
   13SAPS  H17R 1669   6.279   4.973   7.852  0.3213 -0.4019 -3.1730
   13SAPS  H17S 1670   6.196   4.823   7.898  2.2066 -1.6850 -3.0362
   13SAPS  C218 1671   6.093   5.018   7.926 -0.0075 -0.3680 -0.7080
   13SAPS  H18R 1672   5.992   4.974   7.938 -0.6538  1.2853  0.3924
   13SAPS  H18S 1673   6.088   5.120   7.882 -1.0715 -0.0528  0.1161
   13SAPS  C219 1674   6.139   5.029   8.074  0.4012  0.1403  0.0067
   13SAPS  H19R 1675   6.248   5.051   8.067  0.6566 -1.0985 -0.1766
   13SAPS  H19S 1676   6.124   4.929   8.119  0.4612  0.4840  0.8057
   13SAPS  C220 1677   6.064   5.135   8.155  0.1544 -0.3521 -0.2557
   13SAPS  H20R 1678   6.097   5.131   8.261 -0.9581  1.6889  0.2073
   13SAPS  H20S 1679   5.954   5.121   8.148 -0.0504  0.9574  0.1169
   13SAPS  H20T 1680   6.085   5.237   8.117  0.9072 -0.7022 -0.8072
   13SAPS   C33 1681   6.095   4.835   6.625  0.7578 -0.1370 -0.5097
   13SAPS   H3X 1682   6.016   4.759   6.642  1.4499 -0.6893  0.2950
   13SAPS   H3Y 1683   6.082   4.871   6.520 -1.0083  0.3143 -0.1670
   13SAPS   C34 1684   6.061   4.956   6.716 -0.2808  1.0815  0.2846
   13SAPS   H4X 1685   5.985   5.019   6.666 -0.8157 -0.5476 -1.0677
   13SAPS   H4Y 1686   6.153   5.017   6.729  0.8363 -0.6044  0.7244
   13SAPS   C35 1687   6.007   4.905   6.855  0.5704 -1.0744  0.0741
   13SAPS   H5X 1688   6.054   4.810   6.889  2.0386 -0.5473 -0.4041
   13SAPS   H5Y 1689   5.899   4.882   6.849  0.8705 -2.4219 -0.4316
   13SAPS   C36 1690   6.040   5.017   6.957 -0.1801 -0.1751  0.1076
   13SAPS   H6X 1691   5.970   5.001   7.042 -0.3703 -2.1254 -0.3529
   13SAPS   H6Y 1692   6.026   5.117   6.911 -0.7348 -0.1490  0.3266
   13SAPS   C37 1693   6.184   5.025   7.023  0.1749 -0.5112 -0.6805
   13SAPS   H7X 1694   6.259   5.032   6.941 -0.4818  2.3688 -1.1443
   13SAPS   H7Y 1695   6.207   4.934   7.083  1.6181  0.5957  0.5267
   13SAPS   C38 1696   6.204   5.157   7.103  0.3841 -0.6845  0.0672
   13SAPS   H8X 1697   6.103   5.203   7.109  0.9839  0.5869  0.7269
   13SAPS   H8Y 1698   6.274   5.221   7.045  1.1770 -0.3717  1.3329
   13SAPS   C39 1699   6.271   5.130   7.235  0.0900  0.1883 -0.4312
   13SAPS   H9X 1700   6.370   5.102   7.194  0.7115  1.3428  0.2438
   13SAPS   H9Y 1701   6.236   5.044   7.297  0.8038  0.6149  0.5876
   13SAPS  C310 1702   6.262   5.253   7.332 -0.1740 -0.0444  0.2428
   13SAPS  H10X 1703   6.153   5.271   7.341  0.1665  2.6892 -0.3823
   13SAPS  H10Y 1704   6.304   5.342   7.280  0.3483 -0.2883  0.2367
   13SAPS  C311 1705   6.314   5.223   7.472 -0.0147  0.4176  0.0241
   13SAPS  H11X 1706   6.416   5.180   7.464 -0.0643  0.1460  0.7522
   13SAPS  H11Y 1707   6.270   5.133   7.520  0.6762 -1.4337 -2.5681
   13SAPS  C312 1708   6.305   5.333   7.576  0.4881  0.0860  0.7971
   13SAPS  H12X 1709   6.198   5.357   7.587  0.6430  1.1851  0.0706
   13SAPS  H12Y 1710   6.364   5.425   7.557  0.4891  0.4822  2.5700
   13SAPS  C313 1711   6.357   5.282   7.709  0.5371 -0.2057  1.0688
   13SAPS  H13X 1712   6.459   5.247   7.681  0.4662  0.1307  0.3582
   13SAPS  H13Y 1713   6.290   5.199   7.741 -1.5681  0.4448 -1.2732
   13SAPS  C314 1714   6.374   5.395   7.808  0.1875  0.0932 -0.0686
   13SAPS  H14X 1715   6.284   5.458   7.796 -0.2937 -0.4585  0.5487
   13SAPS  H14Y 1716   6.460   5.457   7.775  0.2234  1.1238  1.8122
   13SAPS  C315 1717   6.406   5.345   7.948  0.0262  0.4020 -0.0527
   13SAPS  H15X 1718   6.497   5.283   7.932 -1.0928 -1.9685  2.0867
   13SAPS  H15Y 1719   6.329   5.281   7.996 -0.6938  2.0613  1.0872
   13SAPS  C316 1720   6.441   5.446   8.060  0.1007  0.0024 -0.1269
   13SAPS  H16X 1721   6.356   5.517   8.075  1.8062  1.9607  0.8620
   13SAPS  H16Y 1722   6.533   5.503   8.036  0.1804 -0.2152 -0.3373
   13SAPS  C317 1723   6.452   5.373   8.199  0.1632  0.1473  0.4624
   13SAPS  H17X 1724   6.560   5.357   8.219  0.9561  3.3463 -0.6747
   13SAPS  H17Y 1725   6.401   5.274   8.188  0.7445 -0.2635  1.3114
   13SAPS  C318 1726   6.395   5.450   8.312  0.7296  0.0488  0.4072
   13SAPS  H18X 1727   6.311   5.517   8.283 -0.6915 -2.4819 -1.7544
   13SAPS  H18Y 1728   6.472   5.513   8.362  1.0585 -1.0715  1.3671
   13SAPS  H18Z 1729   6.346   5.381   8.384  0.8466  1.2002  1.6374
   14SAPS     N 1730   5.652   2.105   5.388  0.6117  0.5056 -0.5176
   14SAPS   HN1 1731   5.657   2.001   5.389  0.6008  0.5052 -0.1222
   14SAPS   HN2 1732   5.555   2.132   5.414 -0.7881 -2.9383 -1.5717
   14SAPS   HN3 1733   5.675   2.136   5.292 -0.0427 -1.8579 -1.5244
   14SAPS   C12 1734   5.732   2.166   5.493 -0.1482  1.0011 -0.5021
   14SAPS  H12A 1735   5.808   2.091   5.510 -1.6125 -0.3056  0.5524
   14SAPS   C13 1736   5.788   2.306   5.449 -0.2111 -0.3562 -1.0923
   14SAPS  O13A 1737   5.735   2.369   5.356 -0.1125 -0.4053  0.3977
   14SAPS  O13B 1738   5.883   2.352   5.522 -0.5076 -0.2166  0.1900
   14SAPS   C11 1739   5.638   2.198   5.610 -0.9914  0.2148  0.0662
   14SAPS  H11A 1740   5.565   2.274   5.574 -1.2675 -0.4189 -0.7568
   14SAPS  H11B 1741   5.710   2.248   5.678  0.5046  1.6344 -2.3903
   14SAPS     P 1742   5.639   1.987   5.765  0.0997  0.2999  0.1517
   14SAPS   O13 1743   5.536   1.886   5.809  0.0284 -0.6757  0.1088
   14SAPS   O14 1744   5.763   1.929   5.704  0.2778  0.3386  0.1971
   14SAPS   O12 1745   5.569   2.087   5.663 -0.2550 -0.3104  0.1073
   14SAPS   O11 1746   5.673   2.084   5.892  0.7369  0.3005  0.6310
   14SAPS    C1 1747   5.563   2.153   5.945  0.2832 -0.1021 -0.9665
   14SAPS    HA 1748   5.568   2.263   5.927 -0.7533  0.3792  1.3011
   14SAPS    HB 1749   5.465   2.113   5.912  0.7456  1.3417 -4.6602
   14SAPS    C2 1750   5.566   2.122   6.100  0.0380 -0.0187 -0.3246
   14SAPS    HS 1751   5.470   2.153   6.147 -0.8760 -0.1566 -2.0122
   14SAPS   O21 1752   5.683   2.188   6.156 -0.4060  0.3858  0.1191
   14SAPS   C21 1753   5.655   2.291   6.229  0.5206 -0.3998  0.6123
   14SAPS   O22 1754   5.540   2.332   6.250  0.1924 -0.6211  0.0932
   14SAPS   C22 1755   5.778   2.343   6.297  0.4225  0.0535  0.1430
   14SAPS   H2R 1756   5.857   2.360   6.221 -0.1372 -1.0366 -0.7067
   14SAPS   H2S 1757   5.759   2.444   6.341  2.1244  0.4271  0.1012
   14SAPS    C3 1758   5.561   1.967   6.130  0.9245  0.1398 -1.1507
   14SAPS    HX 1759   5.646   1.923   6.074  2.6272  2.6931 -0.7480
   14SAPS    HY 1760   5.463   1.930   6.093  0.1062  0.1194  0.9200
   14SAPS   O31 1761   5.562   1.941   6.277  0.1636  0.4196 -0.3918
   14SAPS   C31 1762   5.677   1.883   6.322 -0.7022 -0.9440 -0.9528
   14SAPS   O32 1763   5.776   1.855   6.256 -0.0308  0.4919 -0.1044
   14SAPS   C32 1764   5.686   1.885   6.476  0.4292 -0.0706  0.2678
   14SAPS   H2X 1765   5.636   1.791   6.509  0.4633 -0.2169 -0.0943
   14SAPS   H2Y 1766   5.623   1.970   6.509 -2.1281 -2.0335  0.7733
   14SAPS   C23 1767   5.837   2.237   6.390 -0.2243  0.6809  0.2233
   14SAPS   H3R 1768   5.845   2.146   6.326 -2.1499  0.6403 -0.0257
   14SAPS   H3S 1769   5.769   2.202   6.470 -0.3281 -1.4872 -0.7431
   14SAPS   C24 1770   5.978   2.270   6.441  0.0001 -0.8615  0.1650
   14SAPS   H4R 1771   6.044   2.289   6.353  0.0195  1.7083  0.6611
   14SAPS   H4S 1772   6.020   2.187   6.501  3.5536  0.0481 -0.8324
   14SAPS   C25 1773   5.975   2.399   6.519  0.1592 -0.2437 -0.2922
   14SAPS   H5R 1774   5.978   2.488   6.455  1.9309 -0.7313 -0.9530
   14SAPS   C26 1775   5.969   2.411   6.655  0.0373  0.3048  0.4818
   14SAPS   H6R 1776   5.952   2.514   6.690  3.4595  0.8950  0.6643
   14SAPS   C27 1777   5.960   2.299   6.758  0.3498 -0.2094  0.3442
   14SAPS   H7R 1778   5.948   2.204   6.702  0.6506  1.0258 -1.9377
   14SAPS   H7S 1779   5.872   2.301   6.825  0.0782  2.2195  0.0049
   14SAPS   C28 1780   6.091   2.280   6.836 -0.6021  0.8918  0.2874
   14SAPS   H8R 1781   6.180   2.281   6.771 -2.0207  1.8708 -1.7236
   14SAPS   C29 1782   6.107   2.257   6.965  0.7245 -1.0721 -0.6856
   14SAPS   H9R 1783   6.211   2.250   7.001  0.2776 -0.7810  0.7054
   14SAPS  C210 1784   5.999   2.275   7.069  0.2116 -0.1606  1.0540
   14SAPS  H10R 1785   6.022   2.216   7.161 -1.0379 -1.5137  0.5437
   14SAPS  H10S 1786   5.903   2.233   7.031 -0.0711  0.7619  0.7402
   14SAPS  C211 1787   5.956   2.415   7.102  0.2631 -0.1118 -0.4971
   14SAPS  H11R 1788   5.868   2.456   7.049 -0.6447  0.0498  1.0666
   14SAPS  C212 1789   6.030   2.497   7.181  0.0198  0.1773 -0.4027
   14SAPS  H12R 1790   5.984   2.592   7.211 -0.7960 -0.4811  0.4685
   14SAPS  C213 1791   6.158   2.460   7.249  0.3050 -0.2724 -0.7650
   14SAPS  H13R 1792   6.161   2.349   7.246 -2.2557 -0.3797 -0.8178
   14SAPS  H13S 1793   6.147   2.489   7.356 -2.9681  1.7514 -1.5305
   14SAPS  C214 1794   6.277   2.505   7.179 -0.2142  0.5603 -0.1503
   14SAPS  H14R 1795   6.295   2.466   7.077 -2.4486 -0.4180 -0.2290
   14SAPS  C215 1796   6.373   2.578   7.217  0.0303  0.4144 -0.3093
   14SAPS  H15R 1797   6.455   2.588   7.143  1.8823 -1.0272  1.4504
   14SAPS  C216 1798   6.390   2.646   7.348  0.6688 -0.7422  0.0646
   14SAPS  H16R 1799   6.286   2.667   7.383  0.1111 -1.4892 -1.1062
   14SAPS  H16S 1800   6.448   2.739   7.330 -0.3422 -0.3305 -1.3076
   14SAPS  C217 1801   6.454   2.552   7.446  0.2775 -0.4528 -0.7051
   14SAPS  H17R 1802   6.562   2.556   7.420  0.2162  0.5275 -0.8351
   14SAPS  H17S 1803   6.404   2.453   7.433 -2.3735  0.8197 -0.8257
   14SAPS  C218 1804   6.422   2.611   7.584 -0.1190  0.0106 -0.2441
   14SAPS  H18R 1805   6.455   2.530   7.652  0.6895  0.4364 -0.1107
   14SAPS  H18S 1806   6.313   2.629   7.591  0.1115  1.3359  0.1668
   14SAPS  C219 1807   6.507   2.736   7.617 -0.1896  0.5816 -0.8926
   14SAPS  H19R 1808   6.448   2.822   7.578 -1.9729  0.0322  0.4469
   14SAPS  H19S 1809   6.611   2.732   7.576  0.2276 -0.3089  0.2016
   14SAPS  C220 1810   6.531   2.758   7.771 -0.4932  0.5413  0.2191
   14SAPS  H20R 1811   6.578   2.669   7.817  0.0927  0.4288 -0.5781
   14SAPS  H20S 1812   6.436   2.792   7.818 -1.0851 -0.6354 -0.1066
   14SAPS  H20T 1813   6.604   2.842   7.783  0.8442 -0.5235 -0.1741
   14SAPS   C33 1814   5.831   1.873   6.533  0.5066 -0.0090  0.1947
   14SAPS   H3X 1815   5.886   1.955   6.481  1.2263 -0.7111 -0.1802
   14SAPS   H3Y 1816   5.877   1.778   6.498  1.0595  0.7395 -1.1760
   14SAPS   C34 1817   5.843   1.890   6.682  0.0058 -0.4584 -0.0502
   14SAPS   H4X 1818   5.806   1.804   6.742  0.7450 -0.6039  0.2009
   14SAPS   H4Y 1819   5.786   1.979   6.717 -0.3904  0.1842 -2.2030
   14SAPS   C35 1820   5.996   1.891   6.732  0.7323  0.3277  0.5305
   14SAPS   H5X 1821   6.056   1.977   6.695 -1.1173  0.9694 -1.1779
   14SAPS   H5Y 1822   6.042   1.798   6.694 -0.4483 -0.7599  1.6734
   14SAPS   C36 1823   5.996   1.870   6.880 -0.1172  0.1970  0.2799
   14SAPS   H6X 1824   5.923   1.794   6.915 -0.8941  0.3013 -1.0349
   14SAPS   H6Y 1825   5.984   1.969   6.928  0.5504  1.0937 -1.3203
   14SAPS   C37 1826   6.130   1.807   6.916  0.0284  0.0996  0.3206
   14SAPS   H7X 1827   6.215   1.848   6.858 -1.0002  0.3057 -1.0944
   14SAPS   H7Y 1828   6.129   1.698   6.896 -0.7807 -0.0244  0.9635
   14SAPS   C38 1829   6.158   1.812   7.068 -0.1362  0.3283  0.5013
   14SAPS   H8X 1830   6.242   1.744   7.095  1.9245  3.5844  3.1309
   14SAPS   H8Y 1831   6.074   1.759   7.117  1.5510 -1.9454  1.1245
   14SAPS   C39 1832   6.180   1.944   7.130  0.0234 -0.0463 -0.2214
   14SAPS   H9X 1833   6.084   1.997   7.114 -0.8128 -2.0205 -2.2015
   14SAPS   H9Y 1834   6.255   2.002   7.072 -0.1615  1.6742  1.1801
   14SAPS  C310 1835   6.231   1.942   7.274 -0.1933 -0.0616 -0.7590
   14SAPS  H10X 1836   6.330   1.894   7.283 -0.4697 -0.6599 -0.8697
   14SAPS  H10Y 1837   6.165   1.871   7.329  2.9936 -2.7338 -0.0896
   14SAPS  C311 1838   6.241   2.087   7.329  0.6056 -0.0604 -0.1513
   14SAPS  H11X 1839   6.138   2.128   7.329  1.3159  1.8470  0.7746
   14SAPS  H11Y 1840   6.306   2.150   7.265  0.0651  0.2478 -0.4115
   14SAPS  C312 1841   6.282   2.082   7.475  1.0774  0.1465  0.1052
   14SAPS  H12X 1842   6.392   2.070   7.484  0.9183 -0.5475  1.5696
   14SAPS  H12Y 1843   6.239   1.996   7.531  0.4070 -0.1937 -0.9077
   14SAPS  C313 1844   6.247   2.213   7.543 -0.4310 -0.1228 -0.2920
   14SAPS  H13X 1845   6.144   2.249   7.521 -1.4919 -2.3969  0.6947
   14SAPS  H13Y 1846   6.321   2.292   7.517 -2.4873  2.7740  1.9207
   14SAPS  C314 1847   6.256   2.206   7.696 -0.5637  0.2236 -0.6145
   14SAPS  H14X 1848   6.179   2.137   7.735  0.6313 -1.9006 -1.8044
   14SAPS  H14Y 1849   6.247   2.311   7.731 -0.0823  0.0964 -0.0877
   14SAPS  C315 1850   6.388   2.160   7.759  0.7700  0.2089 -0.3051
   14SAPS  H15X 1851   6.462   2.230   7.714  0.8418  0.4598  0.2004
   14SAPS  H15Y 1852   6.408   2.060   7.716 -0.3770 -0.8153  1.4429
   14SAPS  C316 1853   6.382   2.160   7.910  0.0147 -0.1424 -0.2771
   14SAPS  H16X 1854   6.280   2.123   7.931 -0.2635  0.8373  0.1497
   14SAPS  H16Y 1855   6.404   2.263   7.945 -1.7743  0.4502 -0.8187
   14SAPS  C317 1856   6.489   2.063   7.972  0.0857 -0.3557 -0.2299
   14SAPS  H17X 1857   6.591   2.106   7.960  0.4823  0.3107  3.8773
   14SAPS  H17Y 1858   6.483   1.970   7.911  1.4000 -0.0284 -0.8925
   14SAPS  C318 1859   6.455   2.036   8.118 -0.0179 -0.2203 -0.3721
   14SAPS  H18X 1860   6.368   1.968   8.130  0.3447 -0.8693 -1.2559
   14SAPS  H18Y 1861   6.443   2.124   8.184  0.7680  0.0467 -0.5682
   14SAPS  H18Z 1862   6.533   1.975   8.168  0.8250  0.2022 -1.1389
   15SAPS     N 1863   4.789   6.839   5.566  0.2738 -0.2827  0.1797
   15SAPS   HN1 1864   4.725   6.817   5.645 -0.3029  1.1817  0.1520
   15SAPS   HN2 1865   4.780   6.940   5.544 -2.1570 -0.4665  0.0633
   15SAPS   HN3 1866   4.749   6.801   5.478 -3.0843  0.3200  1.3192
   15SAPS   C12 1867   4.938   6.802   5.591  0.0823 -0.3750  0.4220
   15SAPS  H12A 1868   4.994   6.780   5.502  0.5178  0.3202  0.5088
   15SAPS   C13 1869   5.022   6.910   5.658 -0.0449  0.1313 -0.2446
   15SAPS  O13A 1870   4.974   7.023   5.699 -0.3224  0.5876 -0.3786
   15SAPS  O13B 1871   5.148   6.890   5.662  0.3500 -0.1679 -1.1640
   15SAPS   C11 1872   4.944   6.673   5.686 -0.1471 -0.0034  0.3814
   15SAPS  H11A 1873   4.867   6.681   5.765 -0.7914 -0.0070 -0.2345
   15SAPS  H11B 1874   5.045   6.663   5.733  0.4141 -0.7907 -0.9124
   15SAPS     P 1875   4.927   6.413   5.678 -0.0615  0.2588 -0.1257
   15SAPS   O13 1876   4.838   6.410   5.796 -0.8455  0.4826  0.1379
   15SAPS   O14 1877   4.919   6.309   5.574  0.1277 -0.3178  0.3150
   15SAPS   O12 1878   4.919   6.554   5.605 -0.0054 -0.6524  0.4311
   15SAPS   O11 1879   5.078   6.408   5.731  0.1245 -0.3172  0.2365
   15SAPS    C1 1880   5.147   6.284   5.749 -0.3780 -0.2470 -0.2911
   15SAPS    HA 1881   5.117   6.206   5.676 -1.0630 -0.5002  0.2495
   15SAPS    HB 1882   5.255   6.310   5.748 -0.6122  0.7340 -0.7352
   15SAPS    C2 1883   5.113   6.225   5.889 -0.2326 -0.3423 -1.0088
   15SAPS    HS 1884   5.019   6.166   5.884 -1.0889  0.7157  1.4339
   15SAPS   O21 1885   5.116   6.325   6.000 -0.2324 -0.4257 -0.2393
   15SAPS   C21 1886   5.014   6.316   6.086 -0.3483 -0.2923  0.3215
   15SAPS   O22 1887   4.915   6.246   6.074 -0.1204  0.0880  0.4029
   15SAPS   C22 1888   5.023   6.414   6.204  0.4490 -0.7529  0.3983
   15SAPS   H2R 1889   5.131   6.442   6.202  0.0451  1.1492  2.0179
   15SAPS   H2S 1890   4.965   6.505   6.177  2.2658 -0.1220 -1.8258
   15SAPS    C3 1891   5.226   6.116   5.915 -0.0671 -0.3366 -0.1147
   15SAPS    HX 1892   5.323   6.170   5.911  0.2246 -0.9105 -1.5792
   15SAPS    HY 1893   5.228   6.040   5.834  1.0901 -3.0187  2.2555
   15SAPS   O31 1894   5.203   6.031   6.031 -0.1120  0.1923 -0.5751
   15SAPS   C31 1895   5.243   6.085   6.145  0.2431 -0.1092 -0.3207
   15SAPS   O32 1896   5.304   6.191   6.159  0.0056  0.4519  0.0933
   15SAPS   C32 1897   5.204   5.996   6.270 -0.3990 -0.3785 -0.0845
   15SAPS   H2X 1898   5.197   5.895   6.226 -2.1247 -0.8409  1.1093
   15SAPS   H2Y 1899   5.106   6.031   6.309  0.1832 -0.7906  1.8487
   15SAPS   C23 1900   4.979   6.363   6.344 -0.6936 -0.4910 -0.1741
   15SAPS   H3R 1901   5.042   6.277   6.374 -3.5525 -3.3961 -1.8145
   15SAPS   H3S 1902   4.878   6.315   6.342 -1.2870  0.7455 -1.2782
   15SAPS   C24 1903   4.976   6.470   6.454 -0.2090  0.1970  0.2334
   15SAPS   H4R 1904   4.908   6.436   6.535 -0.5757  0.5412  0.0742
   15SAPS   H4S 1905   4.936   6.565   6.413  0.6946  0.3464 -0.3247
   15SAPS   C25 1906   5.110   6.502   6.527  0.3728  1.1127  0.1458
   15SAPS   H5R 1907   5.180   6.568   6.473  0.7609  0.1099 -0.6188
   15SAPS   C26 1908   5.153   6.468   6.647 -0.2881  0.8336 -0.1111
   15SAPS   H6R 1909   5.256   6.488   6.679 -0.2047  1.1515 -0.5685
   15SAPS   C27 1910   5.076   6.398   6.753  0.5350 -0.2935 -0.2052
   15SAPS   H7R 1911   4.975   6.372   6.716 -0.1265  2.3838 -0.4548
   15SAPS   H7S 1912   5.041   6.463   6.835  1.4565  2.0454 -1.5586
   15SAPS   C28 1913   5.132   6.267   6.813 -0.3135  0.6756 -0.7424
   15SAPS   H8R 1914   5.201   6.205   6.754 -0.7916 -1.4649  0.8440
   15SAPS   C29 1915   5.090   6.207   6.926  0.3256 -0.3185 -0.0827
   15SAPS   H9R 1916   5.144   6.117   6.958 -0.5126 -0.0031  2.4199
   15SAPS  C210 1917   4.976   6.252   7.022 -0.0634 -0.7642  0.0218
   15SAPS  H10R 1918   4.875   6.210   7.001  0.2527 -1.5884  0.1379
   15SAPS  H10S 1919   4.961   6.362   7.019  2.0803 -0.3612  1.7333
   15SAPS  C211 1920   5.005   6.217   7.167 -0.5339 -0.3323 -0.2795
   15SAPS  H11R 1921   5.105   6.179   7.192 -1.1478 -0.8376  1.5695
   15SAPS  C212 1922   4.923   6.236   7.266 -0.2103 -0.4251 -0.3829
   15SAPS  H12R 1923   4.943   6.220   7.373  0.2327  2.3050  0.0084
   15SAPS  C213 1924   4.783   6.293   7.242 -0.0969  0.0174  0.5318
   15SAPS  H13R 1925   4.704   6.225   7.280  0.2771 -1.0119 -0.4744
   15SAPS  H13S 1926   4.753   6.295   7.135 -0.0452 -0.1993  0.5131
   15SAPS  C214 1927   4.763   6.423   7.314  0.3566 -0.8383 -0.7006
   15SAPS  H14R 1928   4.764   6.511   7.248 -0.9974 -1.3120 -1.3774
   15SAPS  C215 1929   4.732   6.439   7.443  0.1276 -0.4291  0.3496
   15SAPS  H15R 1930   4.726   6.543   7.479  2.6427  0.4028 -1.3806
   15SAPS  C216 1931   4.728   6.327   7.549  0.8234  0.2399 -0.0483
   15SAPS  H16R 1932   4.774   6.232   7.514 -1.3238 -0.6106 -0.6620
   15SAPS  H16S 1933   4.629   6.313   7.597  0.0723  2.2505 -0.9190
   15SAPS  C217 1934   4.832   6.361   7.661 -0.1564  0.0411  0.3358
   15SAPS  H17R 1935   4.930   6.369   7.609 -0.1977  1.5651  0.4603
   15SAPS  H17S 1936   4.834   6.277   7.734 -0.4510 -1.7838 -1.6649
   15SAPS  C218 1937   4.809   6.492   7.736  0.1579 -0.6895  0.0274
   15SAPS  H18R 1938   4.704   6.516   7.762 -0.2085 -1.6039 -0.5525
   15SAPS  H18S 1939   4.836   6.569   7.661 -0.2474 -2.4202 -1.9932
   15SAPS  C219 1940   4.902   6.510   7.858 -0.0428  0.1273  0.0254
   15SAPS  H19R 1941   4.878   6.606   7.908 -0.2163 -0.1047  0.3892
   15SAPS  H19S 1942   5.007   6.518   7.820 -0.8832 -0.7824 -2.7629
   15SAPS  C220 1943   4.895   6.395   7.961  0.0096  0.7514  0.8645
   15SAPS  H20R 1944   4.963   6.413   8.047  0.3091 -0.9573  1.0199
   15SAPS  H20S 1945   4.916   6.303   7.903  0.0109  1.2469  0.0556
   15SAPS  H20T 1946   4.797   6.370   8.007 -0.1731 -4.2221 -1.6105
   15SAPS   C33 1947   5.304   5.998   6.387  0.1321  1.1290  0.3833
   15SAPS   H3X 1948   5.406   5.989   6.344 -0.0298  1.0619  0.0105
   15SAPS   H3Y 1949   5.277   5.903   6.437 -3.8789  0.8575 -1.8700
   15SAPS   C34 1950   5.297   6.127   6.471  0.0127 -0.4560 -1.0367
   15SAPS   H4X 1951   5.192   6.146   6.502 -0.7354  0.1786 -3.7130
   15SAPS   H4Y 1952   5.326   6.216   6.412 -2.3022  0.9258 -0.1975
   15SAPS   C35 1953   5.394   6.128   6.588 -0.1572  0.4588  0.2379
   15SAPS   H5X 1954   5.392   6.226   6.641 -2.2727 -0.4547  2.0275
   15SAPS   H5Y 1955   5.496   6.106   6.550 -0.7457 -2.3054  0.1225
   15SAPS   C36 1956   5.352   6.013   6.691 -1.0135 -0.8061 -0.2445
   15SAPS   H6X 1957   5.367   5.911   6.648 -1.2937 -0.9297 -0.0565
   15SAPS   H6Y 1958   5.243   6.026   6.710 -0.5534  0.5760  1.8459
   15SAPS   C37 1959   5.424   6.036   6.829 -0.0980  0.7952 -0.3201
   15SAPS   H7X 1960   5.405   6.138   6.869 -2.3842  0.6642 -0.9367
   15SAPS   H7Y 1961   5.532   6.016   6.810 -0.7072 -3.3469 -0.2077
   15SAPS   C38 1962   5.369   5.945   6.949 -0.7615 -0.7355  0.9118
   15SAPS   H8X 1963   5.259   5.958   6.944 -0.5794  0.6876 -0.1428
   15SAPS   H8Y 1964   5.420   5.986   7.039  0.3348  1.4263 -0.5912
   15SAPS   C39 1965   5.417   5.801   6.939 -0.3117  0.2250  0.2459
   15SAPS   H9X 1966   5.528   5.798   6.929 -0.4724 -0.0090 -2.3141
   15SAPS   H9Y 1967   5.360   5.752   6.857 -2.5358 -1.7485  2.7921
   15SAPS  C310 1968   5.361   5.727   7.063 -0.3706 -0.4449  0.3736
   15SAPS  H10X 1969   5.253   5.755   7.063 -0.6548 -1.3887 -1.0520
   15SAPS  H10Y 1970   5.395   5.769   7.160 -1.3234  0.5437  0.2994
   15SAPS  C311 1971   5.361   5.579   7.054 -0.1694  0.2197  0.0629
   15SAPS  H11X 1972   5.466   5.543   7.053  1.0149  3.3382 -2.3023
   15SAPS  H11Y 1973   5.305   5.550   6.962 -0.5665  1.9324 -0.2758
   15SAPS  C312 1974   5.279   5.510   7.165 -0.7106 -0.2144 -0.6526
   15SAPS  H12X 1975   5.286   5.402   7.140 -0.8609 -0.1422 -1.0090
   15SAPS  H12Y 1976   5.172   5.541   7.175 -0.5462  0.0407  0.5734
   15SAPS  C313 1977   5.344   5.517   7.305  0.0415  0.4027  0.3050
   15SAPS  H13X 1978   5.323   5.616   7.350 -1.4676  0.3180 -0.1738
   15SAPS  H13Y 1979   5.455   5.512   7.298 -0.1014 -2.5633 -1.2185
   15SAPS  C314 1980   5.286   5.402   7.396 -0.3439 -0.2997  0.2910
   15SAPS  H14X 1981   5.316   5.311   7.340 -0.2484  0.8589 -1.6433
   15SAPS  H14Y 1982   5.175   5.408   7.388 -0.4755 -3.4979 -3.3915
   15SAPS  C315 1983   5.334   5.402   7.540  0.4457  0.7104 -0.1409
   15SAPS  H15X 1984   5.302   5.501   7.579 -2.6242  0.0893 -0.7739
   15SAPS  H15Y 1985   5.444   5.397   7.529  0.3082 -0.1444 -1.3907
   15SAPS  C316 1986   5.288   5.296   7.640 -0.3534 -0.9083  0.1953
   15SAPS  H16X 1987   5.356   5.315   7.726 -1.5058 -1.8377  1.3518
   15SAPS  H16Y 1988   5.310   5.198   7.593 -1.0701  0.0941 -2.4256
   15SAPS  C317 1989   5.142   5.296   7.674 -0.1933  0.6635  0.2336
   15SAPS  H17X 1990   5.117   5.209   7.739  1.6870 -0.5345 -0.5795
   15SAPS  H17Y 1991   5.085   5.274   7.582  0.0079 -0.0375  0.2737
   15SAPS  C318 1992   5.085   5.422   7.733  0.5828 -0.4713  0.3427
   15SAPS  H18X 1993   5.097   5.515   7.674 -3.1558  1.0821  1.7030
   15SAPS  H18Y 1994   5.122   5.441   7.836 -0.8125  0.5423  0.6937
   15SAPS  H18Z 1995   4.975   5.412   7.746  0.7524 -0.2771  2.3107
   16SAPS     N 1996   0.273   0.338   6.422 -0.1100  0.0832 -0.3996
   16SAPS   HN1 1997   0.224   0.430   6.424  0.5707  0.4466  0.4188
   16SAPS   HN2 1998   0.364   0.354   6.469 -0.6004  0.5570  0.4024
   16SAPS   HN3 1999   0.286   0.310   6.323 -0.4780 -0.6423 -0.2485
   16SAPS   C12 2000   0.206   0.233   6.505 -0.0868 -0.0635  0.8165
   16SAPS  H12A 2001   0.228   0.260   6.607  1.1102  0.6070  0.4159
   16SAPS   C13 2002   0.055   0.198   6.471 -0.4443  0.3700 -0.5074
   16SAPS  O13A 2003  -0.001   0.273   6.383 -0.6772  0.2818 -0.4452
   16SAPS  O13B 2004  -0.000   0.111   6.536 -0.0407 -0.9238 -0.1058
   16SAPS   C11 2005   0.291   0.097   6.485  0.7198 -0.6958 -0.3307
   16SAPS  H11A 2006   0.255   0.052   6.390  1.4094  0.4496 -1.1704
   16SAPS  H11B 2007   0.267   0.025   6.566 -2.7472  0.8048  0.1502
   16SAPS     P 2008   0.536   0.016   6.512 -0.4485  0.2194  0.5858
   16SAPS   O13 2009   0.489  -0.117   6.471  0.1105 -0.1685  0.1907
   16SAPS   O14 2010   0.672   0.056   6.472 -0.0029  0.7031 -0.5318
   16SAPS   O12 2011   0.431   0.126   6.459 -0.4018  0.7358  0.0223
   16SAPS   O11 2012   0.532   0.016   6.670  0.4399 -0.6548 -0.7391
   16SAPS    C1 2013   0.574   0.149   6.718  0.4010  0.9425 -0.2164
   16SAPS    HA 2014   0.666   0.187   6.670  1.0618 -1.4471 -1.0007
   16SAPS    HB 2015   0.503   0.231   6.692  0.2328  1.0967  0.6810
   16SAPS    C2 2016   0.592   0.157   6.870 -0.1167 -0.6782  0.4860
   16SAPS    HS 2017   0.689   0.107   6.892  0.1070 -1.1930 -1.4797
   16SAPS   O21 2018   0.494   0.083   6.949 -0.3865  0.4975  0.2023
   16SAPS   C21 2019   0.370   0.114   6.936  0.5975  0.3673 -0.3153
   16SAPS   O22 2020   0.327   0.205   6.863  0.0202 -0.3075 -0.3754
   16SAPS   C22 2021   0.279   0.046   7.037 -0.1347  0.2877  0.1543
   16SAPS   H2R 2022   0.299  -0.063   7.026  0.0061  0.3738 -0.4593
   16SAPS   H2S 2023   0.325   0.075   7.134  0.7236 -0.0505 -0.1388
   16SAPS    C3 2024   0.602   0.300   6.913  0.3435  0.2923 -0.1446
   16SAPS    HX 2025   0.511   0.353   6.877  0.2991 -0.2771 -0.8915
   16SAPS    HY 2026   0.685   0.355   6.863  0.9520 -0.5221 -0.0578
   16SAPS   O31 2027   0.611   0.293   7.056 -0.1739 -0.3239  0.2166
   16SAPS   C31 2028   0.735   0.295   7.105  0.1266  0.8565  0.0453
   16SAPS   O32 2029   0.831   0.346   7.054 -0.3890 -0.2727 -0.5519
   16SAPS   C32 2030   0.748   0.219   7.239 -0.4288  0.0244  0.1790
   16SAPS   H2X 2031   0.761   0.110   7.222  0.7631  0.1179  0.4055
   16SAPS   H2Y 2032   0.656   0.235   7.299 -0.4378 -0.3841  0.2748
   16SAPS   C23 2033   0.129   0.083   7.044 -0.5098 -0.1866 -0.8297
   16SAPS   H3R 2034   0.089   0.074   6.941 -0.1395 -1.0795 -0.9043
   16SAPS   H3S 2035   0.113   0.186   7.083 -0.8043 -0.1550 -1.0297
   16SAPS   C24 2036   0.048  -0.018   7.134 -0.1163 -0.1812  0.1091
   16SAPS   H4R 2037   0.110  -0.027   7.226  0.0537 -0.7039 -0.0543
   16SAPS   H4S 2038   0.057  -0.121   7.092 -0.2228 -0.2502  0.2513
   16SAPS   C25 2039  -0.099   0.025   7.138  0.3141 -0.5382 -0.2464
   16SAPS   H5R 2040  -0.153   0.027   7.042  0.6036  1.8318 -0.3965
   16SAPS   C26 2041  -0.173   0.064   7.246  0.5984  0.1266 -0.5227
   16SAPS   H6R 2042  -0.275   0.102   7.235  0.3203 -0.2920  0.4767
   16SAPS   C27 2043  -0.108   0.082   7.384  1.1729  0.6484 -0.7161
   16SAPS   H7R 2044  -0.011   0.134   7.367  0.7766  1.8129  0.4329
   16SAPS   H7S 2045  -0.086  -0.018   7.426  1.8074  1.4129  0.8515
   16SAPS   C28 2046  -0.179   0.160   7.488  0.4207  0.0626 -0.2164
   16SAPS   H8R 2047  -0.145   0.264   7.499  2.8451 -0.8192  1.5893
   16SAPS   C29 2048  -0.286   0.124   7.566 -0.2068  0.9183 -0.7107
   16SAPS   H9R 2049  -0.319   0.182   7.654 -0.3276 -2.8912  1.9951
   16SAPS  C210 2050  -0.347  -0.016   7.575 -0.3482  0.3058  0.1830
   16SAPS  H10R 2051  -0.345  -0.039   7.683 -0.1329  2.4552  0.6773
   16SAPS  H10S 2052  -0.283  -0.095   7.530  0.1403  0.6602  0.2473
   16SAPS  C211 2053  -0.487  -0.027   7.518  0.5255 -0.8461  0.6168
   16SAPS  H11R 2054  -0.485  -0.055   7.411  0.0784 -1.0697  0.6676
   16SAPS  C212 2055  -0.604  -0.015   7.588  0.1724 -0.6973  0.4740
   16SAPS  H12R 2056  -0.696  -0.018   7.528 -0.5796  0.3944  1.5107
   16SAPS  C213 2057  -0.631  -0.000   7.733 -0.4112 -0.3324 -0.2516
   16SAPS  H13R 2058  -0.535   0.037   7.774  0.9438 -1.7315 -1.9549
   16SAPS  H13S 2059  -0.653  -0.100   7.776 -0.5687 -1.5345 -2.9035
   16SAPS  C214 2060  -0.737   0.105   7.757  0.7605  0.4668 -0.3317
   16SAPS  H14R 2061  -0.750   0.174   7.672  0.3562 -0.7303 -1.2601
   16SAPS  C215 2062  -0.815   0.112   7.865 -0.1937 -0.3407  0.5829
   16SAPS  H15R 2063  -0.883   0.198   7.877  0.5915  0.5452 -1.0024
   16SAPS  C216 2064  -0.814   0.020   7.984  0.6360  0.4426 -0.2347
   16SAPS  H16R 2065  -0.818   0.073   8.081 -0.7035 -0.7552  0.3904
   16SAPS  H16S 2066  -0.735  -0.058   7.986  0.0443 -0.2936 -2.3755
   16SAPS  C217 2067  -0.955  -0.048   7.973 -0.7263 -0.1506  0.4394
   16SAPS  H17R 2068  -0.961  -0.107   7.879  0.2612 -0.9683  0.8779
   16SAPS  H17S 2069  -1.035   0.029   7.970 -0.1854  0.3952 -0.6431
   16SAPS  C218 2070  -0.983  -0.131   8.098 -0.5904  0.2719 -0.1562
   16SAPS  H18R 2071  -0.982  -0.059   8.182  2.7491  2.5336 -1.9215
   16SAPS  H18S 2072  -0.893  -0.194   8.115 -0.7006  0.1955  0.1551
   16SAPS  C219 2073  -1.102  -0.219   8.078  0.9454  0.2081  0.5560
   16SAPS  H19R 2074  -1.062  -0.295   8.007  0.5512  0.7154 -0.2178
   16SAPS  H19S 2075  -1.185  -0.163   8.030  0.3233 -0.7173  0.5234
   16SAPS  C220 2076  -1.157  -0.285   8.202 -0.2004  0.5550 -0.3859
   16SAPS  H20R 2077  -1.071  -0.344   8.241 -0.9942 -1.5482 -1.6483
   16SAPS  H20S 2078  -1.238  -0.359   8.185  0.9495 -0.1510 -3.4335
   16SAPS  H20T 2079  -1.209  -0.212   8.267 -1.7618 -1.4637  0.7477
   16SAPS   C33 2080   0.874   0.253   7.317  1.0664 -0.2216  0.1383
   16SAPS   H3X 2081   0.865   0.355   7.360 -0.2938  0.2170 -1.1143
   16SAPS   H3Y 2082   0.958   0.261   7.246 -0.7720  1.9168 -2.0038
   16SAPS   C34 2083   0.893   0.158   7.437 -0.3417  0.5128 -0.1763
   16SAPS   H4X 2084   0.912   0.058   7.394 -1.0873 -0.1628  1.0152
   16SAPS   H4Y 2085   0.804   0.156   7.504 -0.9588 -0.1933 -0.9971
   16SAPS   C35 2086   1.013   0.199   7.527  0.0064 -0.0847 -0.7687
   16SAPS   H5X 2087   0.987   0.302   7.558  2.6478  0.3646  0.2448
   16SAPS   H5Y 2088   1.112   0.188   7.478  0.6892  0.1835  0.4942
   16SAPS   C36 2089   1.010   0.122   7.669  0.2244 -0.1661 -0.1805
   16SAPS   H6X 2090   1.090   0.170   7.730  0.3199 -1.9475  1.1521
   16SAPS   H6Y 2091   1.047   0.020   7.647  0.8675  0.0403 -0.0827
   16SAPS   C37 2092   0.878   0.118   7.748  0.0547 -0.5097  0.1959
   16SAPS   H7X 2093   0.811   0.048   7.695 -1.1459  0.6832  0.0864
   16SAPS   H7Y 2094   0.843   0.223   7.755 -2.6467 -1.4140  1.3900
   16SAPS   C38 2095   0.901   0.051   7.884  0.6446  0.2448 -0.4147
   16SAPS   H8X 2096   0.930  -0.055   7.865  1.3366  0.7584 -2.5487
   16SAPS   H8Y 2097   0.803   0.037   7.934  1.5318 -1.7505  0.8849
   16SAPS   C39 2098   1.012   0.108   7.968 -0.1218 -0.2332 -0.3591
   16SAPS   H9X 2099   1.004   0.218   7.975  2.0525 -0.1213  1.6422
   16SAPS   H9Y 2100   1.112   0.091   7.922 -0.7029  1.0453 -2.1781
   16SAPS  C310 2101   1.008   0.055   8.113 -0.5244 -0.4221  0.3506
   16SAPS  H10X 2102   1.024  -0.054   8.108  1.3018 -0.1498 -0.5342
   16SAPS  H10Y 2103   0.912   0.075   8.166 -0.6570 -1.5742  0.5614
   16SAPS  C311 2104   1.108   0.111   8.211  0.1747  0.4282  0.4440
   16SAPS  H11X 2105   1.083   0.213   8.247 -0.6419  0.6760 -0.7907
   16SAPS  H11Y 2106   1.211   0.117   8.170 -0.7993  0.2384 -2.2404
   16SAPS  C312 2107   1.129   0.030   8.339  0.6894 -0.3526 -0.4116
   16SAPS  H12X 2108   1.031  -0.001   8.382  1.3513 -0.0860  1.3576
   16SAPS  H12Y 2109   1.176   0.096   8.414 -0.5430 -1.3109  1.2778
   16SAPS  C313 2110   1.217  -0.093   8.325 -0.4097 -0.6600  0.1471
   16SAPS  H13X 2111   1.321  -0.068   8.297 -0.4981 -0.2555  0.1724
   16SAPS  H13Y 2112   1.174  -0.158   8.245  0.0820 -1.7974  0.7887
   16SAPS  C314 2113   1.231  -0.179   8.455 -0.2311  0.6283 -0.0176
   16SAPS  H14X 2114   1.291  -0.271   8.437  2.0707  2.1837 -0.7328
   16SAPS  H14Y 2115   1.129  -0.219   8.472  0.2496 -1.7294 -2.0975
   16SAPS  C315 2116   1.292  -0.112   8.582 -0.1860 -0.4053 -0.1691
   16SAPS  H15X 2117   1.257  -0.007   8.585  2.3291  0.5164 -0.6678
   16SAPS  H15Y 2118   1.399  -0.107   8.551 -1.0229 -2.2655 -3.8895
   16SAPS  C316 2119   1.251  -0.183   8.705  0.1428 -0.0283 -0.5477
   16SAPS  H16X 2120   1.267  -0.293   8.701 -0.5371 -0.2181  1.2765
   16SAPS  H16Y 2121   1.142  -0.172   8.722  0.4418  0.2286  1.5023
   16SAPS  C317 2122   1.332  -0.135   8.832  0.4908  0.4311 -0.4158
   16SAPS  H17X 2123   1.274  -0.192   8.908 -1.2822  2.0930 -0.4336
   16SAPS  H17Y 2124   1.323  -0.025   8.846 -1.3301  0.6986 -3.0610
   16SAPS  C318 2125   1.468  -0.189   8.846  0.2912 -0.4745 -0.0515
   16SAPS  H18X 2126   1.469  -0.295   8.815  1.1999 -0.0570 -1.5474
   16SAPS  H18Y 2127   1.507  -0.161   8.947 -1.2676  3.9281 -0.4507
   16SAPS  H18Z 2128   1.522  -0.133   8.767 -0.9288  0.2612 -0.3921
   17SAPC     N 2129   0.184   0.305  10.643 -0.3926  0.2266 -0.0798
   17SAPC   C12 2130   0.101   0.179  10.649 -0.1503  0.4951 -0.3635
   17SAPC  H12A 2131   0.040   0.166  10.561 -0.1462 -1.1920 -0.1538
   17SAPC  H12B 2132   0.043   0.175  10.740  2.1749 -0.3114  1.1785
   17SAPC   C13 2133   0.292   0.314  10.747 -0.7173 -0.2698  0.2264
   17SAPC  H13A 2134   0.334   0.413  10.740 -0.8565 -0.2065  0.2750
   17SAPC  H13B 2135   0.254   0.306  10.848  1.5138 -2.8721  0.9886
   17SAPC  H13C 2136   0.366   0.236  10.747 -0.9335 -0.5060  1.8971
   17SAPC   C14 2137   0.255   0.309  10.507  0.1802 -0.1195 -0.4877
   17SAPC  H14A 2138   0.322   0.226  10.491  1.2325  1.1751 -3.3392
   17SAPC  H14B 2139   0.182   0.304  10.428 -0.3905 -1.0348  0.0819
   17SAPC  H14C 2140   0.320   0.395  10.497  0.4350 -0.4070 -1.3389
   17SAPC   C15 2141   0.091   0.422  10.649 -0.0866  0.5036 -0.3074
   17SAPC  H15A 2142   0.033   0.433  10.739 -2.0782  1.9144 -1.6624
   17SAPC  H15B 2143   0.144   0.516  10.650  2.9910 -1.1167  0.9287
   17SAPC  H15C 2144   0.019   0.411  10.568  0.4238 -0.4864 -0.6472
   17SAPC   C11 2145   0.173   0.042  10.660  0.3152  0.1744 -0.5431
   17SAPC  H11A 2146   0.090  -0.028  10.683  0.0290  1.2577  2.0390
   17SAPC  H11B 2147   0.240   0.042  10.748  0.8922  2.0260 -0.9282
   17SAPC     P 2148   0.208  -0.037  10.413  0.0455 -0.0894  0.0581
   17SAPC   O13 2149   0.243  -0.182  10.404 -0.0724 -0.2941 -0.1818
   17SAPC   O14 2150   0.066  -0.001  10.380 -0.4574 -0.0243  0.2463
   17SAPC   O12 2151   0.264   0.015  10.547  0.2386 -0.6246 -0.6188
   17SAPC   O11 2152   0.294   0.040  10.313 -0.3743  0.0827 -0.0117
   17SAPC    C1 2153   0.437   0.045  10.309 -0.4085  0.0031 -0.2959
   17SAPC    HA 2154   0.473   0.136  10.362 -0.0021 -0.6944  0.6636
   17SAPC    HB 2155   0.486  -0.029  10.376  0.2453  3.4104  3.3487
   17SAPC    C2 2156   0.485   0.036  10.158  0.1915  0.1389 -0.5735
   17SAPC    HS 2157   0.594   0.058  10.153  0.2410  0.4870  1.3088
   17SAPC   O21 2158   0.420   0.137  10.073 -0.1111  0.0234  0.4058
   17SAPC   C21 2159   0.473   0.261  10.097 -0.7887  0.0193 -1.2959
   17SAPC   O22 2160   0.564   0.286  10.179  0.2386  0.0462  0.4530
   17SAPC   C22 2161   0.419   0.358   9.992 -0.2418  0.2511 -0.1738
   17SAPC   H2R 2162   0.319   0.329   9.954 -0.4766  0.7192  0.0884
   17SAPC   H2S 2163   0.397   0.456  10.040 -1.3514  0.4973 -1.1309
   17SAPC    C3 2164   0.467  -0.110  10.100 -0.8722  0.1698 -0.5271
   17SAPC    HX 2165   0.362  -0.139  10.123 -1.2085  1.1097 -0.8467
   17SAPC    HY 2166   0.521  -0.178  10.170 -1.3299  0.9451  0.6104
   17SAPC   O31 2167   0.510  -0.118   9.967  0.3899  0.4951  0.0240
   17SAPC   C31 2168   0.404  -0.085   9.875 -0.2205  0.1028 -0.8440
   17SAPC   O32 2169   0.289  -0.066   9.904 -0.0507 -0.1957 -0.4346
   17SAPC   C32 2170   0.454  -0.077   9.733  0.5251  0.5802 -0.0366
   17SAPC   H2X 2171   0.563  -0.056   9.726  0.5653  0.0237 -1.1813
   17SAPC   H2Y 2172   0.397   0.007   9.688  0.1296 -0.1681 -0.9485
   17SAPC   C23 2173   0.534   0.384   9.891  0.6164  0.3873 -0.1992
   17SAPC   H3R 2174   0.637   0.396   9.933  1.1391  0.1136 -1.3577
   17SAPC   H3S 2175   0.516   0.478   9.835 -1.9053  0.8432  1.2406
   17SAPC   C24 2176   0.538   0.277   9.787  0.0240 -0.4444  0.0781
   17SAPC   H4R 2177   0.537   0.180   9.843  2.5626 -0.4299  0.2930
   17SAPC   H4S 2178   0.641   0.280   9.745  0.5865  0.6246  1.4596
   17SAPC   C25 2179   0.427   0.278   9.684 -0.4443  0.2465 -0.1594
   17SAPC   H5R 2180   0.327   0.297   9.726 -1.0486 -2.1971 -0.3382
   17SAPC   C26 2181   0.438   0.280   9.549 -0.8635 -0.8465  0.4571
   17SAPC   H6R 2182   0.344   0.273   9.492 -0.8832 -0.0074  0.3817
   17SAPC   C27 2183   0.565   0.277   9.468  0.0947 -0.2999 -0.0793
   17SAPC   H7R 2184   0.559   0.189   9.401  0.8262  0.0137 -0.5777
   17SAPC   H7S 2185   0.647   0.259   9.542 -0.2766  0.9793  0.6811
   17SAPC   C28 2186   0.602   0.401   9.386  0.0171 -0.1946 -0.5316
   17SAPC   H8R 2187   0.661   0.468   9.449 -0.3022 -0.2712 -0.1497
   17SAPC   C29 2188   0.589   0.417   9.250 -0.3648  0.5754  0.1635
   17SAPC   H9R 2189   0.617   0.512   9.202  3.3898 -1.0496 -1.2546
   17SAPC  C210 2190   0.530   0.316   9.153  0.2908  0.4113  0.1846
   17SAPC  H10R 2191   0.441   0.348   9.095 -1.9089  1.0349  3.5881
   17SAPC  H10S 2192   0.490   0.222   9.197  0.5990  0.1214 -0.1543
   17SAPC  C211 2193   0.633   0.280   9.053 -0.8437  0.3075  0.8247
   17SAPC  H11R 2194   0.713   0.211   9.081  0.3783  1.1651 -0.3937
   17SAPC  C212 2195   0.639   0.308   8.918  0.4108 -0.4861 -0.2197
   17SAPC  H12R 2196   0.718   0.255   8.863  1.3270 -1.8193  2.2097
   17SAPC  C213 2197   0.559   0.392   8.830 -0.3960 -0.3954  0.0101
   17SAPC  H13R 2198   0.461   0.415   8.877  0.1354 -0.8134  1.3411
   17SAPC  H13S 2199   0.540   0.343   8.732 -2.5706 -2.2077  1.2433
   17SAPC  C214 2200   0.618   0.530   8.808  0.4100 -0.1176  0.2969
   17SAPC  H14R 2201   0.593   0.603   8.887  2.1699 -0.1585  0.9388
   17SAPC  C215 2202   0.698   0.567   8.711 -0.0743 -0.2168 -0.0944
   17SAPC  H15R 2203   0.728   0.673   8.713 -0.1043 -0.2124  0.6905
   17SAPC  C216 2204   0.761   0.478   8.607 -0.5162  0.0383  0.6363
   17SAPC  H16R 2205   0.696   0.469   8.517 -0.0487  1.9632  0.0708
   17SAPC  H16S 2206   0.788   0.381   8.655  2.2319  0.3780 -0.0794
   17SAPC  C217 2207   0.904   0.513   8.558  0.3159 -0.6535 -0.3200
   17SAPC  H17R 2208   0.969   0.526   8.647 -1.2488  0.4761  0.7295
   17SAPC  H17S 2209   0.902   0.614   8.511  0.7909 -1.1609 -1.4471
   17SAPC  C218 2210   0.961   0.410   8.455  0.2387  0.0599 -0.8158
   17SAPC  H18R 2211   0.899   0.411   8.363 -0.3785 -2.3940 -0.4952
   17SAPC  H18S 2212   0.952   0.311   8.506  0.9826 -0.4650 -1.6631
   17SAPC  C219 2213   1.104   0.446   8.414 -0.4894 -0.4851 -0.3586
   17SAPC  H19R 2214   1.112   0.552   8.382 -2.4608 -0.9121 -2.5459
   17SAPC  H19S 2215   1.124   0.397   8.317 -0.1394  0.6033 -0.8543
   17SAPC  C220 2216   1.225   0.409   8.501  0.7764 -0.4479 -0.6793
   17SAPC  H20R 2217   1.324   0.433   8.456  2.3010 -2.3427  1.4424
   17SAPC  H20S 2218   1.224   0.303   8.535 -1.1886 -0.2270  0.0782
   17SAPC  H20T 2219   1.218   0.471   8.593 -0.8473 -0.7026 -0.5991
   17SAPC   C33 2220   0.430  -0.198   9.644  0.4265  0.5628 -0.1820
   17SAPC   H3X 2221   0.321  -0.218   9.659  0.7667 -0.2417  1.3707
   17SAPC   H3Y 2222   0.479  -0.292   9.676 -1.4777  0.2014  1.9340
   17SAPC   C34 2223   0.461  -0.175   9.498 -0.2168  0.6297  1.5066
   17SAPC   H4X 2224   0.468  -0.271   9.442 -0.8855  1.8186 -0.7082
   17SAPC   H4Y 2225   0.560  -0.125   9.495  0.1591 -0.1560  0.0905
   17SAPC   C35 2226   0.348  -0.097   9.419  0.4338 -1.0102  0.9167
   17SAPC   H5X 2227   0.358   0.007   9.457 -1.1357 -0.6403  0.4051
   17SAPC   H5Y 2228   0.246  -0.128   9.451 -0.2606 -0.0782 -0.2846
   17SAPC   C36 2229   0.350  -0.100   9.268  0.5117  0.0548  0.7205
   17SAPC   H6X 2230   0.309  -0.195   9.228 -0.5165  1.5526 -2.0843
   17SAPC   H6Y 2231   0.457  -0.096   9.236  0.5881 -1.2729  0.7708
   17SAPC   C37 2232   0.270   0.010   9.196  0.7869  0.0712  1.3420
   17SAPC   H7X 2233   0.308   0.112   9.216  1.7303 -0.3506  1.7126
   17SAPC   H7Y 2234   0.163   0.016   9.228  0.4097  1.3001 -0.0180
   17SAPC   C38 2235   0.261  -0.016   9.047  0.6754  0.2715  0.2265
   17SAPC   H8X 2236   0.217  -0.113   9.014  1.7292  0.3066 -1.4015
   17SAPC   H8Y 2237   0.361  -0.019   8.998 -0.0469  1.1275 -1.3663
   17SAPC   C39 2238   0.161   0.085   8.970  0.3466  0.4836  0.5260
   17SAPC   H9X 2239   0.219   0.179   8.961  0.4288  0.8144  3.4227
   17SAPC   H9Y 2240   0.077   0.090   9.043  1.9698  2.6917  2.3903
   17SAPC  C310 2241   0.115   0.022   8.830  0.5843 -0.1944  0.4372
   17SAPC  H10X 2242   0.030  -0.044   8.858  1.2182 -1.1216  0.2184
   17SAPC  H10Y 2243   0.196  -0.041   8.789  1.4580  1.2137 -0.1003
   17SAPC  C311 2244   0.059   0.129   8.748  0.2483  0.2144  0.4008
   17SAPC  H11X 2245   0.128   0.216   8.746  0.2822  0.2041  0.9389
   17SAPC  H11Y 2246  -0.031   0.156   8.808 -0.6042 -1.4992 -0.0380
   17SAPC  C312 2247   0.022   0.086   8.609 -0.0074  0.2919  0.1878
   17SAPC  H12X 2248  -0.049   0.001   8.615 -0.5135  0.2582 -3.6074
   17SAPC  H12Y 2249   0.106   0.050   8.546  0.8398 -2.3950  2.6590
   17SAPC  C313 2250  -0.052   0.201   8.545 -0.8045  0.3598  0.5114
   17SAPC  H13X 2251   0.017   0.281   8.510  0.1937 -0.5621  0.3130
   17SAPC  H13Y 2252  -0.124   0.249   8.615 -3.4954  0.4723 -2.0901
   17SAPC  C314 2253  -0.144   0.149   8.434  0.1179 -0.2475 -0.0720
   17SAPC  H14X 2254  -0.209   0.066   8.469  1.7722 -2.0243 -0.9949
   17SAPC  H14Y 2255  -0.092   0.126   8.338 -0.5805 -0.8927 -0.3083
   17SAPC  C315 2256  -0.246   0.264   8.393  0.1717  0.0346 -0.2059
   17SAPC  H15X 2257  -0.315   0.284   8.478 -0.1524 -1.1216 -0.1828
   17SAPC  H15Y 2258  -0.317   0.231   8.315  0.0850  2.5460 -1.2929
   17SAPC  C316 2259  -0.183   0.396   8.344 -0.8479  0.0317 -0.1490
   17SAPC  H16X 2260  -0.116   0.372   8.259 -0.6009 -0.2822  0.1314
   17SAPC  H16Y 2261  -0.112   0.431   8.421  1.1516 -0.9381 -1.4626
   17SAPC  C317 2262  -0.283   0.503   8.309 -0.9742 -0.5711  0.5844
   17SAPC  H17X 2263  -0.351   0.476   8.226 -0.0023  0.7665 -0.6914
   17SAPC  H17Y 2264  -0.235   0.594   8.267  0.3468 -0.1359  2.8542
   17SAPC  C318 2265  -0.373   0.542   8.424  0.0510 -0.4230 -0.6077
   17SAPC  H18X 2266  -0.449   0.462   8.438  0.1713 -0.7554 -1.7564
   17SAPC  H18Y 2267  -0.313   0.562   8.516 -0.3222 -0.1192 -0.4309
   17SAPC  H18Z 2268  -0.436   0.630   8.399  0.2025  0.0540  0.6150
   18SAPC     N 2269   5.981   6.558  10.749  0.3677  0.0687 -0.6061
   18SAPC   C12 2270   5.925   6.545  10.607  0.4332 -0.1706 -0.2513
   18SAPC  H12A 2271   5.818   6.558  10.605  0.4484 -0.1018 -0.6250
   18SAPC  H12B 2272   5.945   6.444  10.574  0.1028 -0.9606  1.8274
   18SAPC   C13 2273   6.131   6.560  10.743 -0.2462  0.0472 -0.1976
   18SAPC  H13A 2274   6.170   6.644  10.687  1.5027 -1.9203 -2.1568
   18SAPC  H13B 2275   6.176   6.569  10.840  4.1559  1.3143 -2.0951
   18SAPC  H13C 2276   6.150   6.464  10.696  0.1489 -0.2364  0.5289
   18SAPC   C14 2277   5.938   6.683  10.812  0.6329 -0.4094 -0.5741
   18SAPC  H14A 2278   6.004   6.702  10.896  1.4892  0.0186 -1.3263
   18SAPC  H14B 2279   5.944   6.761  10.737  2.1251  0.0673  0.0008
   18SAPC  H14C 2280   5.838   6.680  10.853  0.8450 -1.4701 -0.1033
   18SAPC   C15 2281   5.935   6.437  10.832 -0.3288 -0.9258 -0.1831
   18SAPC  H15A 2282   5.971   6.431  10.933  0.3541 -0.4666 -0.3933
   18SAPC  H15B 2283   5.827   6.437  10.828 -0.3946 -1.7676  1.1111
   18SAPC  H15C 2284   5.955   6.342  10.785  0.1372 -0.6087 -0.6331
   18SAPC   C11 2285   5.991   6.634  10.495 -0.2872 -0.3765 -0.3071
   18SAPC  H11A 2286   5.956   6.606  10.393  1.7827  0.5639 -1.3222
   18SAPC  H11B 2287   6.094   6.592  10.498  0.0562  0.3532 -1.4402
   18SAPC     P 2288   6.102   6.872  10.489 -0.7059 -0.2440  0.6430
   18SAPC   O13 2289   6.060   7.014  10.500  0.0300  0.2801 -0.0733
   18SAPC   O14 2290   6.233   6.830  10.548  0.8599 -0.2911  0.5465
   18SAPC   O12 2291   5.987   6.777  10.521  0.7751 -0.0535 -0.0784
   18SAPC   O11 2292   6.125   6.838  10.338 -0.2219 -0.3733  0.7476
   18SAPC    C1 2293   6.250   6.803  10.288 -0.4221 -0.2874 -0.2461
   18SAPC    HA 2294   6.331   6.856  10.342 -0.3265  0.2797 -0.9405
   18SAPC    HB 2295   6.270   6.694  10.293  0.9382 -0.0918 -0.9508
   18SAPC    C2 2296   6.277   6.856  10.148  0.7828 -0.0546  0.0407
   18SAPC    HS 2297   6.364   6.805  10.102 -0.8658  0.8906 -4.6782
   18SAPC   O21 2298   6.288   6.996  10.142  0.0561 -0.2394  0.0190
   18SAPC   C21 2299   6.380   7.048  10.064 -0.4259 -0.2516 -0.1965
   18SAPC   O22 2300   6.448   6.979   9.989 -0.2007 -0.0705  0.4999
   18SAPC   C22 2301   6.374   7.201  10.072 -0.3192 -0.5819 -0.8229
   18SAPC   H2R 2302   6.269   7.235  10.077  0.0978  0.6805  0.0025
   18SAPC   H2S 2303   6.430   7.236  10.162 -0.6159  0.8333 -1.1577
   18SAPC    C3 2304   6.158   6.829  10.059  0.4515 -0.1351 -0.5324
   18SAPC    HX 2305   6.064   6.878  10.092 -0.4560 -1.1833 -1.4909
   18SAPC    HY 2306   6.123   6.724  10.057  0.2535 -0.0644 -2.3588
   18SAPC   O31 2307   6.187   6.865   9.927  0.1685  0.1471  0.3647
   18SAPC   C31 2308   6.243   6.774   9.843  0.2497  0.3720 -0.4960
   18SAPC   O32 2309   6.272   6.659   9.871  0.1720  0.4521  0.0768
   18SAPC   C32 2310   6.280   6.825   9.705  0.3960  0.0280 -0.6974
   18SAPC   H2X 2311   6.378   6.876   9.720 -0.0950  0.3214  2.1589
   18SAPC   H2Y 2312   6.201   6.900   9.685  0.1702 -0.2519 -0.8576
   18SAPC   C23 2313   6.457   7.270   9.959  0.2562 -0.3403 -0.1056
   18SAPC   H3R 2314   6.439   7.225   9.860  1.9546 -0.2138 -0.4914
   18SAPC   H3S 2315   6.565   7.256   9.979  0.3888 -1.5885 -1.5803
   18SAPC   C24 2316   6.405   7.421   9.940  0.2799 -0.2259  0.1793
   18SAPC   H4R 2317   6.296   7.437   9.953  0.5705  0.8321  1.5510
   18SAPC   H4S 2318   6.440   7.462   9.843 -1.3036 -0.0621 -0.3499
   18SAPC   C25 2319   6.458   7.487  10.063  0.0355 -0.6631 -0.0622
   18SAPC   H5R 2320   6.408   7.453  10.155 -0.1820 -2.7563 -0.9036
   18SAPC   C26 2321   6.570   7.558  10.067 -0.0819  0.0398 -0.4390
   18SAPC   H6R 2322   6.587   7.614  10.161  0.4995  0.7024 -0.9291
   18SAPC   C27 2323   6.654   7.596   9.947 -0.2157  0.2141  0.1364
   18SAPC   H7R 2324   6.604   7.571   9.851  0.7422 -0.3429 -0.2313
   18SAPC   H7S 2325   6.746   7.534   9.945  0.8057  1.6782  0.0608
   18SAPC   C28 2326   6.699   7.740   9.952 -0.8672 -0.5462 -0.4442
   18SAPC   H8R 2327   6.721   7.768  10.056 -0.1552 -2.8347  0.0903
   18SAPC   C29 2328   6.701   7.831   9.851 -0.5960 -0.1436  0.1261
   18SAPC   H9R 2329   6.738   7.932   9.876 -0.0170 -0.4857  0.6798
   18SAPC  C210 2330   6.658   7.805   9.712 -0.3048  0.2750  0.1966
   18SAPC  H10R 2331   6.614   7.897   9.667  1.0892  1.2055  0.6889
   18SAPC  H10S 2332   6.573   7.732   9.711 -0.5544  0.5624  0.3001
   18SAPC  C211 2333   6.771   7.740   9.629 -0.7155 -0.4565  0.2966
   18SAPC  H11R 2334   6.829   7.666   9.686 -1.3380 -0.2955  1.1504
   18SAPC  C212 2335   6.810   7.767   9.502 -0.0407  0.2920  0.4153
   18SAPC  H12R 2336   6.883   7.703   9.450 -0.0816  0.1791  0.4951
   18SAPC  C213 2337   6.750   7.865   9.405  0.1920 -0.2928  0.2646
   18SAPC  H13R 2338   6.786   7.968   9.424 -0.1594  0.1392 -1.2678
   18SAPC  H13S 2339   6.640   7.880   9.410  0.3474  1.0685  0.0144
   18SAPC  C214 2340   6.783   7.839   9.253  0.3032  0.8349  0.3080
   18SAPC  H14R 2341   6.752   7.747   9.201  2.0765  2.3076 -3.8030
   18SAPC  C215 2342   6.848   7.927   9.178 -0.6956  0.3194 -0.3975
   18SAPC  H15R 2343   6.885   7.906   9.077 -1.1596  0.1554 -0.5337
   18SAPC  C216 2344   6.893   8.064   9.220 -0.2048 -0.3328 -0.5346
   18SAPC  H16R 2345   6.862   8.102   9.320  0.4518  0.2026 -0.5326
   18SAPC  H16S 2346   6.860   8.141   9.148  2.1145 -1.3923 -2.9094
   18SAPC  C217 2347   7.051   8.063   9.229 -0.1665 -0.7209  0.4586
   18SAPC  H17R 2348   7.097   8.055   9.128  0.8610  0.7771  0.7791
   18SAPC  H17S 2349   7.086   7.972   9.284  1.0707 -1.4310 -1.3974
   18SAPC  C218 2350   7.117   8.187   9.296  0.0160 -0.3011 -0.0409
   18SAPC  H18R 2351   7.076   8.278   9.247  1.3396  0.0573 -0.5254
   18SAPC  H18S 2352   7.227   8.193   9.284  0.0647 -1.0216  0.0255
   18SAPC  C219 2353   7.099   8.188   9.446 -0.5143 -0.5492 -0.0895
   18SAPC  H19R 2354   7.146   8.095   9.486 -0.4908 -0.8797 -0.8553
   18SAPC  H19S 2355   6.989   8.188   9.457 -0.6774 -1.9146 -1.3422
   18SAPC  C220 2356   7.143   8.311   9.523 -0.3957 -0.1387  0.4331
   18SAPC  H20R 2357   7.070   8.392   9.503 -0.9336 -0.7565 -0.1614
   18SAPC  H20S 2358   7.242   8.347   9.486 -0.5235  0.1269  0.3456
   18SAPC  H20T 2359   7.149   8.281   9.629  0.4257  0.7876  0.6632
   18SAPC   C33 2360   6.297   6.728   9.583  0.2939 -0.4400 -0.2631
   18SAPC   H3X 2361   6.207   6.669   9.552 -1.1818  0.7311  1.5492
   18SAPC   H3Y 2362   6.370   6.649   9.609 -2.5373 -3.0315  0.5050
   18SAPC   C34 2363   6.356   6.806   9.466  0.3798  0.4350 -0.2968
   18SAPC   H4X 2364   6.460   6.825   9.498  0.0933 -0.4201  1.2199
   18SAPC   H4Y 2365   6.300   6.902   9.455  0.2250  0.2442 -1.3403
   18SAPC   C35 2366   6.358   6.722   9.338 -0.5926 -0.2435  0.2486
   18SAPC   H5X 2367   6.256   6.687   9.310 -1.5686  3.2443 -1.1251
   18SAPC   H5Y 2368   6.413   6.627   9.351  1.1576  0.4291 -1.6393
   18SAPC   C36 2369   6.412   6.803   9.223 -0.7195 -0.1100 -0.2980
   18SAPC   H6X 2370   6.521   6.818   9.240 -0.7903  0.1337 -0.0552
   18SAPC   H6Y 2371   6.373   6.906   9.215  0.1854  0.3878  1.1684
   18SAPC   C37 2372   6.388   6.731   9.094 -0.4695 -0.5625 -0.0161
   18SAPC   H7X 2373   6.281   6.717   9.071 -0.2430  1.2435 -2.6008
   18SAPC   H7Y 2374   6.442   6.633   9.086  0.1758 -0.0502 -3.2412
   18SAPC   C38 2375   6.449   6.796   8.967 -0.5653  0.7131 -0.2958
   18SAPC   H8X 2376   6.419   6.720   8.892 -0.7958 -0.1066  0.5995
   18SAPC   H8Y 2377   6.559   6.783   8.974 -0.7319 -1.0550 -0.5391
   18SAPC   C39 2378   6.411   6.944   8.940 -0.7400  0.8860 -0.0353
   18SAPC   H9X 2379   6.465   7.001   9.018 -1.2938  1.5040 -0.0999
   18SAPC   H9Y 2380   6.304   6.945   8.969 -1.4832  0.6696 -2.5152
   18SAPC  C310 2381   6.424   6.989   8.792 -0.2195 -0.1356  0.1924
   18SAPC  H10X 2382   6.356   6.931   8.726  0.0218 -1.4432  1.0671
   18SAPC  H10Y 2383   6.531   6.968   8.772 -0.3960  0.0086 -0.9960
   18SAPC  C311 2384   6.371   7.130   8.765 -0.8181  0.4511 -0.2341
   18SAPC  H11X 2385   6.265   7.117   8.795 -0.9502 -0.1276 -0.9025
   18SAPC  H11Y 2386   6.363   7.154   8.657  1.7656  1.3929 -0.2789
   18SAPC  C312 2387   6.448   7.231   8.860 -0.6754 -0.3745  0.0143
   18SAPC  H12X 2388   6.550   7.244   8.817 -0.3375 -1.8913  0.2994
   18SAPC  H12Y 2389   6.456   7.193   8.964 -0.3224  1.2114  0.5930
   18SAPC  C313 2390   6.372   7.362   8.865 -0.4845 -0.3051 -0.3660
   18SAPC  H13X 2391   6.268   7.333   8.891 -0.7380 -0.5519 -1.5916
   18SAPC  H13Y 2392   6.364   7.403   8.762  2.8066 -0.1134 -0.6424
   18SAPC  C314 2393   6.433   7.463   8.961  0.1967  1.1765 -0.1664
   18SAPC  H14X 2394   6.466   7.554   8.907 -0.0707  0.9689 -0.6829
   18SAPC  H14Y 2395   6.512   7.410   9.018  0.0856  0.7082 -0.4448
   18SAPC  C315 2396   6.331   7.528   9.065  0.3376 -0.2149  0.4942
   18SAPC  H15X 2397   6.278   7.442   9.111  0.2564 -0.9965 -1.0020
   18SAPC  H15Y 2398   6.255   7.598   9.024  0.4447  1.9829  3.6937
   18SAPC  C316 2399   6.397   7.580   9.189  0.3464 -0.9415 -0.1963
   18SAPC  H16X 2400   6.466   7.666   9.174  1.1035 -1.6481 -0.8891
   18SAPC  H16Y 2401   6.463   7.508   9.243  0.8800  1.3908  2.4518
   18SAPC  C317 2402   6.298   7.627   9.302 -0.1118  0.4423 -0.0301
   18SAPC  H17X 2403   6.218   7.550   9.304  0.4909 -0.2099  2.7311
   18SAPC  H17Y 2404   6.242   7.719   9.276 -1.6472 -0.0767  1.2311
   18SAPC  C318 2405   6.369   7.639   9.437  0.2207 -0.6649  0.0765
   18SAPC  H18X 2406   6.466   7.691   9.426 -0.8241  1.3394 -0.0369
   18SAPC  H18Y 2407   6.375   7.538   9.482 -1.9253 -0.4852  0.8745
   18SAPC  H18Z 2408   6.317   7.706   9.508  3.7627  0.3326  1.9483
   19SAPC     N 2409   6.458   2.779  10.302 -0.5764 -0.0659  0.8919
   19SAPC   C12 2410   6.608   2.785  10.315 -0.7969 -0.4377 -0.2231
   19SAPC  H12A 2411   6.659   2.698  10.276  1.5354  1.1872 -0.9611
   19SAPC  H12B 2412   6.625   2.784  10.422 -0.7405 -1.4820 -0.2259
   19SAPC   C13 2413   6.396   2.673  10.388 -0.5229 -0.5206 -0.7072
   19SAPC  H13A 2414   6.425   2.691  10.490  1.4194 -1.1860 -1.0873
   19SAPC  H13B 2415   6.288   2.671  10.384 -0.7164  1.0283  1.9038
   19SAPC  H13C 2416   6.428   2.573  10.359 -3.0565 -0.7137 -3.3147
   19SAPC   C14 2417   6.393   2.900  10.344  0.0662 -0.6170 -0.6287
   19SAPC  H14A 2418   6.412   2.980  10.274  2.9775 -0.1341  0.5656
   19SAPC  H14B 2419   6.287   2.900  10.367 -0.1363  0.3958 -1.4649
   19SAPC  H14C 2420   6.439   2.930  10.437 -0.3499 -2.1937  0.1298
   19SAPC   C15 2421   6.426   2.744  10.163 -0.0443  0.6603 -0.7209
   19SAPC  H15A 2422   6.474   2.791  10.078 -1.8197  1.3674 -1.3924
   19SAPC  H15B 2423   6.438   2.638  10.147  0.2840  0.6849 -0.6437
   19SAPC  H15C 2424   6.322   2.769  10.145 -0.1231  0.9229  0.1001
   19SAPC   C11 2425   6.676   2.913  10.271 -0.0278  0.0923  0.1031
   19SAPC  H11A 2426   6.622   2.931  10.176 -0.8148  0.4839  0.6105
   19SAPC  H11B 2427   6.784   2.898  10.249  0.3507 -2.2249  2.8482
   19SAPC     P 2428   6.754   3.116  10.429  0.2970 -0.3053  0.1441
   19SAPC   O13 2429   6.683   3.243  10.440 -0.4731  0.7341  1.0936
   19SAPC   O14 2430   6.823   3.073  10.552 -0.2282  0.1335 -0.0373
   19SAPC   O12 2431   6.656   3.014  10.372 -0.5384  0.5987 -0.2236
   19SAPC   O11 2432   6.866   3.130  10.315  0.4632 -0.1013  0.8327
   19SAPC    C1 2433   6.908   3.255  10.258  0.5082 -0.1062 -0.3094
   19SAPC    HA 2434   6.817   3.314  10.235 -0.3503 -2.2283 -2.8113
   19SAPC    HB 2435   6.964   3.300  10.343  1.9330 -0.5112 -1.0040
   19SAPC    C2 2436   7.003   3.242  10.132 -0.3138  0.0924  1.0914
   19SAPC    HS 2437   7.086   3.316  10.143 -1.6599  2.3671 -2.4877
   19SAPC   O21 2438   6.927   3.268  10.012 -0.3565  0.2799 -0.5136
   19SAPC   C21 2439   6.894   3.389   9.996 -0.5430  0.4126 -0.4415
   19SAPC   O22 2440   6.899   3.482  10.073 -0.4707 -0.1128 -0.8227
   19SAPC   C22 2441   6.857   3.404   9.847 -0.8272 -0.1742 -0.0241
   19SAPC   H2R 2442   6.791   3.320   9.816 -0.0184 -0.3763 -1.2493
   19SAPC   H2S 2443   6.813   3.506   9.841  1.0259  0.6434 -0.4840
   19SAPC    C3 2444   7.053   3.098  10.122  0.1752  0.8119 -0.1304
   19SAPC    HX 2445   6.964   3.042  10.084  1.0249  0.2991 -1.4218
   19SAPC    HY 2446   7.077   3.066  10.225 -0.2179 -0.0979 -0.3057
   19SAPC   O31 2447   7.173   3.067  10.035  0.6816 -0.5704  0.0937
   19SAPC   C31 2448   7.200   2.944  10.018  0.3608  0.1641 -0.0659
   19SAPC   O32 2449   7.132   2.850  10.052  0.2362  0.0072 -0.7768
   19SAPC   C32 2450   7.340   2.931   9.960  0.0784  0.5874 -0.2140
   19SAPC   H2X 2451   7.416   2.952  10.038  2.3715  0.2902 -2.2306
   19SAPC   H2Y 2452   7.357   3.005   9.879 -2.6349  1.7958  0.2131
   19SAPC   C23 2453   6.978   3.402   9.755 -0.1435  0.7932  0.0688
   19SAPC   H3R 2454   7.028   3.303   9.761  0.8268  1.2902  0.4079
   19SAPC   H3S 2455   7.051   3.478   9.789  0.8222  0.2128 -0.6474
   19SAPC   C24 2456   6.945   3.442   9.610 -1.0770 -0.3904 -0.1615
   19SAPC   H4R 2457   6.850   3.389   9.585 -0.4295 -1.9146  0.5073
   19SAPC   H4S 2458   7.016   3.403   9.534 -0.6980  0.1369 -0.0867
   19SAPC   C25 2459   6.919   3.590   9.593 -0.3162 -0.5892 -0.7355
   19SAPC   H5R 2460   6.890   3.654   9.678 -0.2456  1.0640 -1.8867
   19SAPC   C26 2461   6.933   3.663   9.481  0.1309 -0.5365 -0.2712
   19SAPC   H6R 2462   6.912   3.771   9.483 -1.2690 -0.7302  3.5721
   19SAPC   C27 2463   6.985   3.604   9.350 -0.4798 -0.4372  0.5302
   19SAPC   H7R 2464   6.973   3.494   9.342 -0.6539 -0.4050  0.3467
   19SAPC   H7S 2465   7.094   3.616   9.336 -0.7736 -0.4834 -2.2287
   19SAPC   C28 2466   6.908   3.670   9.241  0.4535  0.6034 -0.6475
   19SAPC   H8R 2467   6.815   3.720   9.271  0.3384  1.7746 -2.7849
   19SAPC   C29 2468   6.953   3.679   9.114  0.2331  0.6271 -0.3897
   19SAPC   H9R 2469   6.879   3.734   9.054 -1.7184 -0.4571  0.9013
   19SAPC  C210 2470   7.083   3.642   9.050 -0.1023  1.1626 -0.5483
   19SAPC  H10R 2471   7.087   3.531   9.050  2.2584  1.2089 -0.0332
   19SAPC  H10S 2472   7.166   3.672   9.117 -2.2643  3.9810  1.1095
   19SAPC  C211 2473   7.086   3.688   8.903 -0.0256 -0.8598  0.5828
   19SAPC  H11R 2474   7.128   3.786   8.875 -1.8485 -0.1131  0.3385
   19SAPC  C212 2475   7.042   3.615   8.798  0.4661  0.2566  0.2068
   19SAPC  H12R 2476   7.059   3.656   8.697 -1.9773  0.8810 -0.0221
   19SAPC  C213 2477   6.984   3.477   8.798 -0.2210  0.0665 -0.4152
   19SAPC  H13R 2478   7.027   3.413   8.877 -2.0706  0.2283  0.7662
   19SAPC  H13S 2479   7.007   3.421   8.705 -2.1501  0.0876 -0.9618
   19SAPC  C214 2480   6.835   3.478   8.828  0.5334  0.5583  0.1942
   19SAPC  H14R 2481   6.804   3.542   8.912 -1.0781 -0.5075  0.4404
   19SAPC  C215 2482   6.744   3.427   8.742 -0.3640 -0.8505 -0.4343
   19SAPC  H15R 2483   6.639   3.437   8.771 -0.1001  0.6951  0.1072
   19SAPC  C216 2484   6.770   3.368   8.604  0.0098 -0.4106  0.4106
   19SAPC  H16R 2485   6.702   3.282   8.592  0.6527 -1.0395  1.1671
   19SAPC  H16S 2486   6.874   3.330   8.600  0.5744  0.8638  1.7871
   19SAPC  C217 2487   6.759   3.460   8.477 -0.0935  0.5539 -0.2188
   19SAPC  H17R 2488   6.822   3.417   8.397  1.8418  2.5383  0.1436
   19SAPC  H17S 2489   6.807   3.560   8.482 -1.3693  1.1788  0.3392
   19SAPC  C218 2490   6.616   3.485   8.430 -0.2473  0.5422 -0.1115
   19SAPC  H18R 2491   6.570   3.560   8.497 -0.0867 -0.6556  1.3767
   19SAPC  H18S 2492   6.552   3.395   8.436 -0.4988  0.8000  1.3266
   19SAPC  C219 2493   6.621   3.525   8.280  0.3828 -0.3329 -0.2941
   19SAPC  H19R 2494   6.516   3.531   8.244  1.0682 -2.3404 -2.9209
   19SAPC  H19S 2495   6.681   3.460   8.212 -1.8122 -1.0526 -1.6749
   19SAPC  C220 2496   6.667   3.669   8.264  0.1350 -0.5411 -0.4013
   19SAPC  H20R 2497   6.778   3.675   8.256  0.0378  0.4310 -7.1713
   19SAPC  H20S 2498   6.628   3.717   8.356  0.9300 -0.2096 -0.2315
   19SAPC  H20T 2499   6.624   3.706   8.168 -2.1291 -1.1886  0.3000
   19SAPC   C33 2500   7.375   2.796   9.913  0.1758  0.2856  0.5242
   19SAPC   H3X 2501   7.332   2.717   9.978  1.6471  1.0145  2.5030
   19SAPC   H3Y 2502   7.484   2.776   9.923  0.4072 -1.5357 -3.5696
   19SAPC   C34 2503   7.341   2.774   9.761  0.0388 -0.6571 -0.2633
   19SAPC   H4X 2504   7.242   2.823   9.751 -0.6882 -1.7696  1.0893
   19SAPC   H4Y 2505   7.334   2.664   9.743  1.7155 -1.0402  1.1327
   19SAPC   C35 2506   7.435   2.846   9.657 -0.0802 -0.0295  0.4509
   19SAPC   H5X 2507   7.541   2.823   9.680 -0.3609  1.0627  3.1500
   19SAPC   H5Y 2508   7.431   2.954   9.682  0.5341  0.4710 -1.4460
   19SAPC   C36 2509   7.414   2.812   9.514  0.1491  0.3971  0.7549
   19SAPC   H6X 2510   7.313   2.848   9.485  0.9520  0.5213 -2.1772
   19SAPC   H6Y 2511   7.418   2.703   9.494 -1.5241  0.9731 -4.0054
   19SAPC   C37 2512   7.514   2.876   9.409  0.4504 -0.3990 -0.0754
   19SAPC   H7X 2513   7.611   2.828   9.435  1.9593  1.9897 -0.8687
   19SAPC   H7Y 2514   7.523   2.984   9.434 -2.1440  0.2198 -1.4900
   19SAPC   C38 2515   7.488   2.849   9.253 -0.0900  0.0140  0.4657
   19SAPC   H8X 2516   7.385   2.881   9.228 -0.0482 -0.5344 -0.4201
   19SAPC   H8Y 2517   7.512   2.745   9.221  3.0746  0.7003  0.3082
   19SAPC   C39 2518   7.580   2.935   9.166  0.1065 -0.2448 -0.6338
   19SAPC   H9X 2519   7.678   2.886   9.150  1.0724  1.5792 -0.5106
   19SAPC   H9Y 2520   7.588   3.036   9.212  0.0253 -0.1824 -0.7575
   19SAPC  C310 2521   7.521   2.971   9.033 -0.2938  0.0534  0.1224
   19SAPC  H10X 2522   7.421   3.020   9.041  0.9187  2.4725  1.7906
   19SAPC  H10Y 2523   7.498   2.876   8.980  1.6486 -0.4346  0.0886
   19SAPC  C311 2524   7.626   3.054   8.961 -0.2754  0.1129 -0.6058
   19SAPC  H11X 2525   7.719   2.993   8.956 -0.9652 -1.2319  1.5115
   19SAPC  H11Y 2526   7.672   3.135   9.020  0.2551  0.9203 -2.0772
   19SAPC  C312 2527   7.579   3.107   8.829 -0.7203  0.6062 -0.5739
   19SAPC  H12X 2528   7.516   3.192   8.863 -1.0491  0.2290 -0.2217
   19SAPC  H12Y 2529   7.506   3.041   8.777  0.8171 -0.5766 -1.3002
   19SAPC  C313 2530   7.686   3.167   8.743 -0.4866 -0.2762 -0.7818
   19SAPC  H13X 2531   7.780   3.173   8.802 -1.4145  1.3212  0.6274
   19SAPC  H13Y 2532   7.659   3.269   8.709  2.2393  1.1995  1.0883
   19SAPC  C314 2533   7.708   3.083   8.617  0.0337  1.4857 -0.1387
   19SAPC  H14X 2534   7.621   3.083   8.547 -0.6724  0.2748  0.7122
   19SAPC  H14Y 2535   7.715   2.978   8.653  0.4011  1.3239 -0.6805
   19SAPC  C315 2536   7.836   3.122   8.548 -0.0740 -0.1836 -0.5740
   19SAPC  H15X 2537   7.916   3.129   8.625 -0.4188 -0.6302 -0.1672
   19SAPC  H15Y 2538   7.821   3.222   8.502 -0.1540  0.6079  1.0981
   19SAPC  C316 2539   7.866   3.024   8.439 -0.1796  0.3355 -0.5021
   19SAPC  H16X 2540   7.786   3.042   8.364  2.1662  1.1668 -2.9981
   19SAPC  H16Y 2541   7.846   2.926   8.488  2.7900  0.9107  2.1545
   19SAPC  C317 2542   7.997   3.028   8.370  0.5165  0.0432  0.7954
   19SAPC  H17X 2543   8.009   3.131   8.329  1.4398 -0.6595 -0.8171
   19SAPC  H17Y 2544   7.994   2.958   8.284  1.0872  1.0295 -0.0554
   19SAPC  C318 2545   8.113   2.995   8.459  0.1663 -0.3086 -0.1310
   19SAPC  H18X 2546   8.135   3.075   8.533  0.0607  0.3374 -0.7877
   19SAPC  H18Y 2547   8.201   2.977   8.393 -0.4870  1.7035 -1.6387
   19SAPC  H18Z 2548   8.100   2.904   8.521  1.6750  0.6878  1.7529
   20SAPC     N 2549   5.578   5.551  11.089  0.0225  0.5071 -0.6589
   20SAPC   C12 2550   5.632   5.631  10.972 -0.8998 -0.2022  0.0030
   20SAPC  H12A 2551   5.692   5.702  11.026 -0.3677 -1.6658  1.4148
   20SAPC  H12B 2552   5.558   5.697  10.929 -0.2996 -0.4617 -1.4903
   20SAPC   C13 2553   5.498   5.433  11.048 -0.7065 -0.2897 -0.1599
   20SAPC  H13A 2554   5.409   5.464  10.995  0.7598  1.6590 -1.6009
   20SAPC  H13B 2555   5.556   5.369  10.984  0.4882 -0.9907  1.5372
   20SAPC  H13C 2556   5.466   5.374  11.134  0.1938  1.7246  1.6481
   20SAPC   C14 2557   5.703   5.505  11.168  0.7721  0.6421  0.5155
   20SAPC  H14A 2558   5.748   5.421  11.116 -0.2782  1.8782 -2.6482
   20SAPC  H14B 2559   5.768   5.591  11.171  1.5041  0.0700  1.2972
   20SAPC  H14C 2560   5.679   5.474  11.269  1.3841 -1.0851  0.1606
   20SAPC   C15 2561   5.497   5.631  11.186  0.5680  0.1341 -0.2526
   20SAPC  H15A 2562   5.495   5.582  11.282  1.9697 -0.5684 -0.5478
   20SAPC  H15B 2563   5.547   5.725  11.205 -1.0625  1.4232 -2.0001
   20SAPC  H15C 2564   5.401   5.647  11.140  0.4462 -0.0394 -0.0591
   20SAPC   C11 2565   5.721   5.557  10.867 -0.0154  0.8056  0.7103
   20SAPC  H11A 2566   5.685   5.572  10.763  1.9932  0.1650 -0.1256
   20SAPC  H11B 2567   5.708   5.447  10.882  1.9326  0.1998 -1.4223
   20SAPC     P 2568   5.928   5.722  10.854  0.2497 -0.1276 -0.0142
   20SAPC   O13 2569   5.824   5.826  10.874  0.7090  0.1308 -0.1753
   20SAPC   O14 2570   6.051   5.734  10.932 -0.0347 -0.7583 -0.8586
   20SAPC   O12 2571   5.860   5.585  10.888  0.1242  0.5955  0.1816
   20SAPC   O11 2572   5.966   5.715  10.698 -0.1345 -0.1526  0.4860
   20SAPC    C1 2573   5.987   5.589  10.640 -0.0396 -0.0469  0.6964
   20SAPC    HA 2574   6.053   5.527  10.705  1.6108 -0.0208 -0.8593
   20SAPC    HB 2575   5.887   5.547  10.613 -0.6581  1.5909  0.3497
   20SAPC    C2 2576   6.081   5.586  10.511  0.0561 -0.0269 -0.1985
   20SAPC    HS 2577   6.173   5.639  10.543  0.3238 -1.3453  1.3680
   20SAPC   O21 2578   6.010   5.655  10.403  0.2882 -0.1707 -0.4557
   20SAPC   C21 2579   6.082   5.726  10.320  0.1746  0.8646 -0.6793
   20SAPC   O22 2580   6.201   5.746  10.332  0.0033 -0.3175  0.3881
   20SAPC   C22 2581   5.999   5.781  10.207  0.1954  0.1317 -0.2338
   20SAPC   H2R 2582   5.923   5.702  10.188  0.0299  0.1856  0.2087
   20SAPC   H2S 2583   5.932   5.858  10.251 -0.7741 -1.4975  1.2646
   20SAPC    C3 2584   6.109   5.439  10.471  0.0098  0.7005 -0.2433
   20SAPC    HX 2585   6.006   5.397  10.467 -0.5942  1.8870  1.5194
   20SAPC    HY 2586   6.155   5.386  10.557 -1.8179 -2.3417 -1.0016
   20SAPC   O31 2587   6.189   5.417  10.355 -0.1431 -0.2144  0.1563
   20SAPC   C31 2588   6.314   5.465  10.367  0.1329 -0.1731  0.2008
   20SAPC   O32 2589   6.357   5.520  10.465 -0.2185 -0.1136  0.6393
   20SAPC   C32 2590   6.393   5.429  10.240  0.1910 -0.2211 -0.1138
   20SAPC   H2X 2591   6.320   5.398  10.162  0.3898 -0.5125 -0.1833
   20SAPC   H2Y 2592   6.453   5.339  10.264 -0.6535 -0.5436  0.8822
   20SAPC   C23 2593   6.075   5.830  10.081  0.6865  0.1151 -0.1751
   20SAPC   H3R 2594   6.163   5.896  10.101 -1.0813  2.4190  0.4469
   20SAPC   H3S 2595   6.009   5.897  10.023  1.7887  0.6116 -0.8866
   20SAPC   C24 2596   6.117   5.723   9.983  0.6301 -0.7262  0.3632
   20SAPC   H4R 2597   6.177   5.642  10.030 -0.4049 -2.2467 -0.8012
   20SAPC   H4S 2598   6.177   5.769   9.901 -2.4249 -0.8159 -2.1236
   20SAPC   C25 2599   5.989   5.667   9.925 -0.6664  0.7048 -0.1851
   20SAPC   H5R 2600   5.921   5.607   9.988  0.0746 -0.4893 -0.4842
   20SAPC   C26 2601   5.959   5.663   9.793  0.2134 -0.4877 -0.0869
   20SAPC   H6R 2602   5.869   5.609   9.762 -0.2818  0.6251 -0.6435
   20SAPC   C27 2603   6.034   5.730   9.678  0.2820 -0.6784 -0.0163
   20SAPC   H7R 2604   6.142   5.745   9.701 -0.0676 -0.3690  1.5975
   20SAPC   H7S 2605   5.986   5.829   9.661 -0.4112 -1.0319 -0.1460
   20SAPC   C28 2606   6.025   5.643   9.554 -0.3470 -0.4086  0.8773
   20SAPC   H8R 2607   5.955   5.557   9.557 -0.7637 -0.1719 -0.8868
   20SAPC   C29 2608   6.100   5.670   9.441  0.0468  0.5963 -0.5489
   20SAPC   H9R 2609   6.083   5.613   9.349  1.1529  1.8290 -1.5562
   20SAPC  C210 2610   6.191   5.786   9.433 -0.4243 -0.4109  0.6586
   20SAPC  H10R 2611   6.284   5.773   9.374 -0.8752 -0.2482 -0.1088
   20SAPC  H10S 2612   6.229   5.804   9.536  1.2933 -1.0525  0.1615
   20SAPC  C211 2613   6.115   5.905   9.391 -0.0135 -0.0279 -0.0688
   20SAPC  H11R 2614   6.078   5.974   9.468 -3.4545 -0.9134 -0.7685
   20SAPC  C212 2615   6.093   5.947   9.263  0.2993 -0.0437  0.3064
   20SAPC  H12R 2616   6.038   6.038   9.235 -0.7698 -1.4362 -2.5277
   20SAPC  C213 2617   6.142   5.877   9.139  0.0797 -0.1527  0.4019
   20SAPC  H13R 2618   6.189   5.781   9.168  1.6838  0.0070 -1.5117
   20SAPC  H13S 2619   6.229   5.936   9.103 -0.6198  0.9539  0.4666
   20SAPC  C214 2620   6.047   5.865   9.025 -0.7381  0.3120  0.1136
   20SAPC  H14R 2621   5.944   5.901   9.043 -0.2020  1.5408  0.8561
   20SAPC  C215 2622   6.073   5.816   8.901 -0.2258  0.2374  0.2554
   20SAPC  H15R 2623   5.984   5.815   8.836 -0.3667 -0.4174  0.4505
   20SAPC  C216 2624   6.198   5.765   8.838  0.6380  0.1217 -0.4572
   20SAPC  H16R 2625   6.184   5.656   8.820  0.8205 -0.4560  2.4681
   20SAPC  H16S 2626   6.290   5.780   8.899  1.0563 -0.2546 -0.9905
   20SAPC  C217 2627   6.229   5.831   8.706 -0.6936  0.0655 -0.0010
   20SAPC  H17R 2628   6.225   5.942   8.715  1.3427  0.0468  1.9978
   20SAPC  H17S 2629   6.155   5.795   8.631  0.5913 -2.5633 -0.1312
   20SAPC  C218 2630   6.369   5.805   8.646  0.0346  0.0811  0.7243
   20SAPC  H18R 2631   6.376   5.698   8.616  0.3346  0.6954 -1.5872
   20SAPC  H18S 2632   6.442   5.833   8.725 -0.6523 -0.1387  1.4475
   20SAPC  C219 2633   6.396   5.890   8.521 -0.1330 -0.7210  1.0551
   20SAPC  H19R 2634   6.501   5.906   8.487 -0.5712  0.4828  0.2011
   20SAPC  H19S 2635   6.348   5.990   8.527 -0.3615 -0.6896 -0.6907
   20SAPC  C220 2636   6.330   5.830   8.398 -0.0958 -0.2395 -1.1970
   20SAPC  H20R 2637   6.363   5.726   8.381 -0.6967 -0.9671  1.5812
   20SAPC  H20S 2638   6.345   5.884   8.302 -1.9480  0.4864 -1.1225
   20SAPC  H20T 2639   6.220   5.828   8.415 -0.2945 -1.6978 -2.4925
   20SAPC   C33 2640   6.464   5.556  10.188 -0.3113  0.3752 -0.2794
   20SAPC   H3X 2641   6.537   5.592  10.264 -0.1389 -1.4279  0.4592
   20SAPC   H3Y 2642   6.395   5.642  10.176  1.2882  1.6512 -0.6964
   20SAPC   C34 2643   6.530   5.535  10.055 -0.1922  0.1898 -0.4220
   20SAPC   H4X 2644   6.570   5.431  10.053  0.1555  0.2755  1.2542
   20SAPC   H4Y 2645   6.621   5.598  10.046  1.0522 -1.2993  1.0795
   20SAPC   C35 2646   6.432   5.553   9.939 -0.4756  0.0241 -0.0333
   20SAPC   H5X 2647   6.395   5.658   9.936  0.1094  0.2144 -1.5766
   20SAPC   H5Y 2648   6.342   5.493   9.962  1.3013 -3.2605 -1.0085
   20SAPC   C36 2649   6.491   5.510   9.810 -0.4866  0.8854  0.7471
   20SAPC   H6X 2650   6.416   5.549   9.739 -1.7272 -1.3287  0.7651
   20SAPC   H6Y 2651   6.485   5.400   9.798  0.3265  0.8897  0.1955
   20SAPC   C37 2652   6.628   5.560   9.780 -0.5992 -0.0822  0.2306
   20SAPC   H7X 2653   6.704   5.517   9.848  2.6032  1.5685 -2.0271
   20SAPC   H7Y 2654   6.638   5.669   9.796 -0.9515  0.0502 -0.4095
   20SAPC   C38 2655   6.681   5.528   9.630  0.3950 -0.1044  0.2841
   20SAPC   H8X 2656   6.719   5.424   9.621  0.9939  0.1266  0.0652
   20SAPC   H8Y 2657   6.768   5.597   9.618 -0.3470  0.6598 -0.8294
   20SAPC   C39 2658   6.583   5.559   9.521  0.7799 -0.2058 -0.0233
   20SAPC   H9X 2659   6.542   5.662   9.521 -0.6622 -0.7365 -0.9876
   20SAPC   H9Y 2660   6.503   5.483   9.534 -0.9939  1.6910  0.8206
   20SAPC  C310 2661   6.640   5.559   9.379 -0.5422 -0.3338  0.4222
   20SAPC  H10X 2662   6.692   5.461   9.378  0.2093 -0.0063  2.6095
   20SAPC  H10Y 2663   6.722   5.634   9.373  0.2232 -1.2205 -0.6902
   20SAPC  C311 2664   6.534   5.586   9.269 -0.8230  0.6650 -0.2506
   20SAPC  H11X 2665   6.503   5.692   9.283 -1.2169  0.4478  0.6274
   20SAPC  H11Y 2666   6.436   5.534   9.282 -0.8560  0.8752  0.3467
   20SAPC  C312 2667   6.587   5.551   9.130  0.2768 -1.5345 -0.7659
   20SAPC  H12X 2668   6.617   5.446   9.111  0.5222 -1.1285 -2.9137
   20SAPC  H12Y 2669   6.677   5.614   9.114 -2.2412  2.2154 -1.3593
   20SAPC  C313 2670   6.479   5.578   9.020  0.7402  0.0806 -0.5443
   20SAPC  H13X 2671   6.454   5.686   9.031 -1.2552 -0.3277 -0.8225
   20SAPC  H13Y 2672   6.393   5.509   9.026  0.4894  0.1951 -2.3345
   20SAPC  C314 2673   6.523   5.564   8.875 -0.6921 -0.2287 -0.5029
   20SAPC  H14X 2674   6.614   5.626   8.864  0.8469 -2.1092  0.9675
   20SAPC  H14Y 2675   6.455   5.609   8.800  1.6614  2.0897 -1.3750
   20SAPC  C315 2676   6.559   5.422   8.835 -0.1271 -0.1281 -0.0283
   20SAPC  H15X 2677   6.460   5.372   8.841 -0.9000  1.4917  1.6736
   20SAPC  H15Y 2678   6.625   5.378   8.913  1.4833  1.2042 -0.6004
   20SAPC  C316 2679   6.611   5.403   8.695 -0.1264 -0.4833  0.3189
   20SAPC  H16X 2680   6.686   5.479   8.666 -1.6988  1.1348  0.3514
   20SAPC  H16Y 2681   6.533   5.410   8.616 -0.1968 -0.6703  0.3699
   20SAPC  C317 2682   6.687   5.270   8.681  0.1963  0.0534 -0.4294
   20SAPC  H17X 2683   6.611   5.189   8.688  0.3339 -0.2458 -1.9057
   20SAPC  H17Y 2684   6.749   5.260   8.772  1.2813  1.4321 -0.9854
   20SAPC  C318 2685   6.777   5.265   8.556 -0.0246  0.1133 -0.3732
   20SAPC  H18X 2686   6.839   5.177   8.530 -0.5819  0.3544 -2.7094
   20SAPC  H18Y 2687   6.848   5.349   8.577 -0.2044 -0.4471  3.1930
   20SAPC  H18Z 2688   6.723   5.301   8.466 -2.2961 -1.6505  0.2176
   21SAPC     N 2689   3.793   5.594  10.759  0.8369  0.5270 -0.1238
   21SAPC   C12 2690   3.662   5.506  10.763 -0.0035 -0.4350  0.3105
   21SAPC  H12A 2691   3.607   5.531  10.853  0.3783  1.8219 -0.0173
   21SAPC  H12B 2692   3.699   5.405  10.775  0.1735 -0.2715  1.2046
   21SAPC   C13 2693   3.876   5.573  10.627  0.7719  0.2300  0.1726
   21SAPC  H13A 2694   3.814   5.610  10.546 -1.9475  0.7879  2.3675
   21SAPC  H13B 2695   3.968   5.629  10.633  0.0256  1.5130  0.0583
   21SAPC  H13C 2696   3.893   5.468  10.608  0.3144 -0.0149  1.0978
   21SAPC   C14 2697   3.762   5.737  10.776 -0.3985 -0.0446  0.8656
   21SAPC  H14A 2698   3.851   5.795  10.755  0.9885 -2.3521 -0.0657
   21SAPC  H14B 2699   3.684   5.764  10.707 -0.0801  2.0396  1.2338
   21SAPC  H14C 2700   3.724   5.773  10.870 -0.3689  0.8324  0.5519
   21SAPC   C15 2701   3.868   5.553  10.875 -0.7299 -0.1809 -0.5126
   21SAPC  H15A 2702   3.827   5.589  10.968 -0.0583  0.2327 -0.3711
   21SAPC  H15B 2703   3.879   5.446  10.879  0.9506 -0.0047  0.5046
   21SAPC  H15C 2704   3.967   5.597  10.874 -1.6781  2.0735 -0.4106
   21SAPC   C11 2705   3.557   5.508  10.654  0.6510 -0.0991  0.1064
   21SAPC  H11A 2706   3.484   5.424  10.648  0.1199  0.2800  1.0252
   21SAPC  H11B 2707   3.610   5.512  10.556  0.3598  0.7415 -0.0197
   21SAPC     P 2708   3.355   5.639  10.762  0.9063  0.1348  0.3479
   21SAPC   O13 2709   3.337   5.519  10.844 -0.1592 -0.1706  0.5487
   21SAPC   O14 2710   3.360   5.767  10.833 -0.2981 -0.2004 -0.2751
   21SAPC   O12 2711   3.476   5.628  10.663 -0.3852 -0.1618  0.3512
   21SAPC   O11 2712   3.226   5.635  10.663 -0.2307  0.3115 -0.5325
   21SAPC    C1 2713   3.225   5.733  10.552  0.2277  0.3582  0.2113
   21SAPC    HA 2714   3.184   5.831  10.587  1.7877  0.9480  0.4652
   21SAPC    HB 2715   3.317   5.756  10.495 -0.5915  3.7417  0.0141
   21SAPC    C2 2716   3.127   5.689  10.438  0.7744  0.4580 -0.0681
   21SAPC    HS 2717   3.133   5.768  10.359  2.4020  2.5368  1.9667
   21SAPC   O21 2718   2.995   5.686  10.499  0.4214 -0.1733  0.7931
   21SAPC   C21 2719   2.890   5.724  10.424  0.0081 -0.1280  0.5804
   21SAPC   O22 2720   2.894   5.771  10.312 -0.0967  0.5156 -0.3509
   21SAPC   C22 2721   2.761   5.695  10.506 -0.0985 -0.2789 -0.0510
   21SAPC   H2R 2722   2.785   5.593  10.543 -0.5900  0.3313  2.1169
   21SAPC   H2S 2723   2.761   5.770  10.588 -0.8953 -1.1015  0.7358
   21SAPC    C3 2724   3.169   5.555  10.376 -0.5551 -0.9522 -0.3081
   21SAPC    HX 2725   3.146   5.500  10.470 -0.6090  0.0948  0.3077
   21SAPC    HY 2726   3.270   5.558  10.330 -1.7697  0.2169 -3.1191
   21SAPC   O31 2727   3.086   5.526  10.262  0.0251  0.4178 -0.0396
   21SAPC   C31 2728   3.067   5.389  10.266  0.2889 -0.1576  0.1227
   21SAPC   O32 2729   3.113   5.312  10.350  0.0234  0.2803  0.4671
   21SAPC   C32 2730   2.983   5.348  10.146  0.6401  0.7668  0.3657
   21SAPC   H2X 2731   3.019   5.421  10.071  2.2344  1.3177  1.6222
   21SAPC   H2Y 2732   2.877   5.369  10.171  0.3695 -1.9514  1.8574
   21SAPC   C23 2733   2.636   5.701  10.415  0.3441 -0.4979 -0.0061
   21SAPC   H3R 2734   2.646   5.792  10.352  2.3603 -0.8279 -0.2315
   21SAPC   H3S 2735   2.543   5.709  10.476 -0.1105 -0.0323 -0.7394
   21SAPC   C24 2736   2.632   5.571  10.336  0.6867 -0.3664  0.2539
   21SAPC   H4R 2737   2.655   5.484  10.402 -0.2905 -1.9379 -1.3678
   21SAPC   H4S 2738   2.715   5.577  10.262  1.9394 -0.0711  1.6351
   21SAPC   C25 2739   2.497   5.545  10.264  0.7116  0.1404 -0.1655
   21SAPC   H5R 2740   2.417   5.551  10.338  0.5085 -1.6043 -0.2085
   21SAPC   C26 2741   2.473   5.523  10.136 -0.2377  0.5225 -0.1258
   21SAPC   H6R 2742   2.369   5.508  10.103 -0.0352 -0.9460 -0.1812
   21SAPC   C27 2743   2.578   5.512  10.023 -0.9682  0.1487  0.4017
   21SAPC   H7R 2744   2.685   5.515  10.053 -1.3018  0.1199  1.6536
   21SAPC   H7S 2745   2.565   5.613   9.979  2.4854  0.8193  0.6144
   21SAPC   C28 2746   2.566   5.393   9.930 -0.2395 -0.0735 -0.0059
   21SAPC   H8R 2747   2.597   5.304   9.986  0.8387  0.4678  0.2922
   21SAPC   C29 2748   2.528   5.388   9.802 -0.5932 -0.3599  0.1021
   21SAPC   H9R 2749   2.528   5.289   9.754 -0.8858 -0.2488 -0.1253
   21SAPC  C210 2750   2.490   5.511   9.715  0.0277  0.4017 -0.1701
   21SAPC  H10R 2751   2.480   5.600   9.779  0.6621  1.4435 -1.4758
   21SAPC  H10S 2752   2.386   5.491   9.682  0.6400 -2.6360 -0.6188
   21SAPC  C211 2753   2.575   5.552   9.595 -0.5162  0.4233  0.1215
   21SAPC  H11R 2754   2.657   5.619   9.623  2.3079 -2.6754 -0.0165
   21SAPC  C212 2755   2.573   5.505   9.468 -0.0675  0.2641  0.2749
   21SAPC  H12R 2756   2.635   5.551   9.390  0.6982  1.3506  1.4874
   21SAPC  C213 2757   2.468   5.402   9.409  0.1897  0.7430  0.1949
   21SAPC  H13R 2758   2.390   5.384   9.485  0.2369 -1.7651 -0.2895
   21SAPC  H13S 2759   2.514   5.302   9.399 -0.6836  0.0781  2.3379
   21SAPC  C214 2760   2.404   5.452   9.282 -0.2408  0.5492 -1.0689
   21SAPC  H14R 2761   2.304   5.496   9.296  0.8666  2.2989  2.2784
   21SAPC  C215 2762   2.463   5.458   9.160  0.9878  0.7497 -0.1877
   21SAPC  H15R 2763   2.404   5.504   9.079 -0.4171 -1.0889 -0.2701
   21SAPC  C216 2764   2.601   5.411   9.128  0.3019  0.1591 -0.8120
   21SAPC  H16R 2765   2.583   5.313   9.078  1.0864 -0.1592 -0.4803
   21SAPC  H16S 2766   2.662   5.400   9.220  0.8109  1.1293 -1.0242
   21SAPC  C217 2767   2.673   5.517   9.046 -0.0274 -0.0741  0.7620
   21SAPC  H17R 2768   2.776   5.479   9.030 -1.0590 -1.7952 -3.3108
   21SAPC  H17S 2769   2.661   5.616   9.095  1.6511 -1.2447  3.7419
   21SAPC  C218 2770   2.614   5.523   8.906 -0.1105 -0.4020 -0.0605
   21SAPC  H18R 2771   2.504   5.534   8.909 -0.0434  0.8129 -1.3168
   21SAPC  H18S 2772   2.636   5.432   8.846  1.9019  0.4957 -0.7623
   21SAPC  C219 2773   2.669   5.643   8.824 -0.1264  0.4013 -0.7748
   21SAPC  H19R 2774   2.774   5.668   8.850 -0.8084  1.4041  1.3280
   21SAPC  H19S 2775   2.613   5.734   8.855  1.9547  1.3756  0.3167
   21SAPC  C220 2776   2.648   5.616   8.676 -0.3264 -0.3629 -0.4011
   21SAPC  H20R 2777   2.700   5.520   8.652 -1.7061 -1.8711  2.1530
   21SAPC  H20S 2778   2.693   5.707   8.631 -2.7239  1.7049  1.1578
   21SAPC  H20T 2779   2.544   5.612   8.639 -0.2331  0.6892 -0.8016
   21SAPC   C33 2780   3.000   5.198  10.120 -0.0775  0.2648 -0.4257
   21SAPC   H3X 2781   2.958   5.142  10.206  0.4767  2.0293  1.0674
   21SAPC   H3Y 2782   3.108   5.177  10.107  0.2092  0.9514  0.6951
   21SAPC   C34 2783   2.920   5.150  10.002 -0.0585 -0.2429  0.3959
   21SAPC   H4X 2784   2.810   5.164  10.012  0.0760  0.3050  1.2746
   21SAPC   H4Y 2785   2.923   5.039  10.008  0.0881 -0.3303 -1.1248
   21SAPC   C35 2786   2.969   5.193   9.860  0.3497  0.8473 -0.5182
   21SAPC   H5X 2787   3.065   5.139   9.840 -0.6779 -0.9882 -0.6945
   21SAPC   H5Y 2788   2.983   5.303   9.868  5.3115  0.3045  3.3549
   21SAPC   C36 2789   2.868   5.148   9.752 -0.0673  0.3064  0.4028
   21SAPC   H6X 2790   2.772   5.204   9.756 -1.3806 -1.7527 -0.6203
   21SAPC   H6Y 2791   2.852   5.039   9.764  2.2377 -0.2932 -1.2452
   21SAPC   C37 2792   2.908   5.188   9.609 -0.2194  0.0815  0.1664
   21SAPC   H7X 2793   3.011   5.150   9.596 -0.4845 -0.5396 -0.1969
   21SAPC   H7Y 2794   2.912   5.299   9.600  0.0340 -0.0021 -0.9723
   21SAPC   C38 2795   2.831   5.124   9.486  0.8542  0.5738 -0.2231
   21SAPC   H8X 2796   2.736   5.183   9.481  0.4904  0.0612  0.4388
   21SAPC   H8Y 2797   2.797   5.021   9.508  0.1663  0.7435 -0.4737
   21SAPC   C39 2798   2.915   5.116   9.360 -0.5442  0.0372  0.3914
   21SAPC   H9X 2799   2.990   5.034   9.368  0.9095  0.9784 -2.4148
   21SAPC   H9Y 2800   2.974   5.211   9.361 -0.0796 -0.1829 -1.7992
   21SAPC  C310 2801   2.838   5.122   9.230  0.8814  0.0317 -0.2084
   21SAPC  H10X 2802   2.792   5.223   9.226  1.0553  0.0938 -0.6814
   21SAPC  H10Y 2803   2.764   5.041   9.220  1.9175 -0.9516 -0.1038
   21SAPC  C311 2804   2.917   5.118   9.102  0.2202  0.4705  0.4783
   21SAPC  H11X 2805   2.965   5.022   9.073 -1.0234  0.3118 -1.2132
   21SAPC  H11Y 2806   2.993   5.198   9.118  0.5574  0.3115 -0.3052
   21SAPC  C312 2807   2.833   5.149   8.981 -0.2672 -0.7286  0.2792
   21SAPC  H12X 2808   2.828   5.258   8.959 -1.3617 -1.0681 -1.3732
   21SAPC  H12Y 2809   2.731   5.115   9.009 -0.8978  1.7839  1.3107
   21SAPC  C313 2810   2.880   5.071   8.855  0.4694 -0.2487  0.2868
   21SAPC  H13X 2811   2.906   4.969   8.891 -0.2070 -0.7941 -0.7101
   21SAPC  H13Y 2812   2.962   5.128   8.805 -0.2377  1.8528  1.3801
   21SAPC  C314 2813   2.756   5.052   8.759 -0.7859  0.6427  0.0655
   21SAPC  H14X 2814   2.722   5.148   8.714 -0.9095  0.3874 -0.3987
   21SAPC  H14Y 2815   2.674   5.008   8.819  1.4409 -1.5465  1.7589
   21SAPC  C315 2816   2.778   4.956   8.640  0.2670 -0.7407 -0.3454
   21SAPC  H15X 2817   2.858   4.884   8.666  1.8697  0.4903 -1.6638
   21SAPC  H15Y 2818   2.821   5.021   8.561 -0.3723  1.5547  1.0769
   21SAPC  C316 2819   2.653   4.886   8.593  0.0381  0.5900 -0.2131
   21SAPC  H16X 2820   2.595   4.963   8.537 -0.6001 -0.1555 -0.6049
   21SAPC  H16Y 2821   2.588   4.845   8.673  0.6877  1.6964  0.9041
   21SAPC  C317 2822   2.685   4.769   8.499  0.2085  0.0820 -0.1791
   21SAPC  H17X 2823   2.717   4.688   8.569  0.0186  1.0703  1.1010
   21SAPC  H17Y 2824   2.770   4.789   8.431  0.0014  1.6340 -0.0337
   21SAPC  C318 2825   2.577   4.718   8.408  0.5286 -0.0219  0.0999
   21SAPC  H18X 2826   2.615   4.631   8.350  2.4613 -0.7532  2.2708
   21SAPC  H18Y 2827   2.543   4.792   8.333  1.1078 -1.2846 -1.4621
   21SAPC  H18Z 2828   2.500   4.682   8.479  0.8339 -1.0902 -0.0912
   22SAPC     N 2829   4.340   1.551  10.883  0.4427  0.3730  0.0675
   22SAPC   C12 2830   4.321   1.672  10.790  0.5248  0.2750 -0.2479
   22SAPC  H12A 2831   4.321   1.759  10.854 -0.6880 -0.0523  0.2368
   22SAPC  H12B 2832   4.220   1.661  10.752  0.1714 -0.3697  0.8142
   22SAPC   C13 2833   4.471   1.579  10.954 -0.1003  0.4652  0.4064
   22SAPC  H13A 2834   4.554   1.595  10.885  0.3118  0.7213  0.9555
   22SAPC  H13B 2835   4.474   1.671  11.011 -0.2862  0.2426  0.7762
   22SAPC  H13C 2836   4.505   1.492  11.008 -1.9355  0.1441  1.0920
   22SAPC   C14 2837   4.226   1.537  10.978 -0.0245 -0.1350 -0.0747
   22SAPC  H14A 2838   4.141   1.510  10.918 -2.3023  2.7373  1.6155
   22SAPC  H14B 2839   4.233   1.461  11.054  0.2575 -0.0723 -0.0355
   22SAPC  H14C 2840   4.202   1.630  11.026  0.8563  0.3923 -0.6152
   22SAPC   C15 2841   4.344   1.420  10.815 -0.0606  0.1961 -0.0560
   22SAPC  H15A 2842   4.259   1.409  10.749  0.8260 -1.7176 -0.9576
   22SAPC  H15B 2843   4.433   1.398  10.759  0.2506 -0.1786  0.5760
   22SAPC  H15C 2844   4.338   1.346  10.893  2.1507 -0.3169 -0.3160
   22SAPC   C11 2845   4.416   1.694  10.672  0.9822 -0.1080  0.5094
   22SAPC  H11A 2846   4.376   1.753  10.587  1.0075 -2.5361 -1.2812
   22SAPC  H11B 2847   4.441   1.594  10.631 -1.6381 -0.7922  0.3922
   22SAPC     P 2848   4.662   1.763  10.636 -0.0045  0.0065 -0.1558
   22SAPC   O13 2849   4.724   1.897  10.664  0.0066 -0.4728  0.4620
   22SAPC   O14 2850   4.748   1.646  10.655  0.3013  0.4745 -0.1694
   22SAPC   O12 2851   4.532   1.749  10.728 -0.1059 -0.1688 -0.0172
   22SAPC   O11 2852   4.612   1.753  10.484  0.0343 -0.3335 -0.3528
   22SAPC    C1 2853   4.630   1.641  10.402  0.3664 -0.3707 -0.0354
   22SAPC    HA 2854   4.682   1.558  10.455  0.5998 -0.1487  0.0850
   22SAPC    HB 2855   4.529   1.620  10.362 -0.3304 -0.2465  1.5818
   22SAPC    C2 2856   4.728   1.678  10.285  0.1216  0.2626  0.2119
   22SAPC    HS 2857   4.822   1.714  10.331  0.1064  0.5792 -0.0043
   22SAPC   O21 2858   4.673   1.769  10.194 -0.0651  0.5313  1.1177
   22SAPC   C21 2859   4.761   1.853  10.139  0.7902  0.3367  0.5126
   22SAPC   O22 2860   4.883   1.853  10.158 -0.1023 -0.2546  0.5259
   22SAPC   C22 2861   4.691   1.934  10.039 -0.2752  0.3380  0.2979
   22SAPC   H2R 2862   4.590   1.959  10.077 -1.7314 -0.6336 -2.5772
   22SAPC   H2S 2863   4.743   2.032  10.028 -1.7624  1.0631 -0.5736
   22SAPC    C3 2864   4.759   1.547  10.203  0.1842 -0.1543  0.2837
   22SAPC    HX 2865   4.811   1.481  10.276  3.1206  0.9829 -0.5982
   22SAPC    HY 2866   4.834   1.564  10.122 -0.5858  2.8806  0.0818
   22SAPC   O31 2867   4.641   1.475  10.151  0.4324  0.4686 -0.4093
   22SAPC   C31 2868   4.623   1.477  10.021  0.2943  0.2590  0.4808
   22SAPC   O32 2869   4.701   1.524   9.938 -0.1665 -0.3736  0.1287
   22SAPC   C32 2870   4.491   1.420   9.990 -0.2003  0.0933 -0.3260
   22SAPC   H2X 2871   4.422   1.488  10.043 -0.6215 -1.1546  0.7926
   22SAPC   H2Y 2872   4.491   1.321  10.042  0.9853  0.4034  0.3021
   22SAPC   C23 2873   4.679   1.869   9.898  0.3623  0.1575  0.0476
   22SAPC   H3R 2874   4.610   1.934   9.840  1.9221  0.0761 -2.0354
   22SAPC   H3S 2875   4.627   1.772   9.912 -0.6614  0.9326  1.9437
   22SAPC   C24 2876   4.813   1.853   9.824 -0.1565  1.3139  0.0513
   22SAPC   H4R 2877   4.882   1.803   9.896 -2.0257  1.7105  2.2634
   22SAPC   H4S 2878   4.856   1.954   9.806 -1.0066  1.4063 -1.6283
   22SAPC   C25 2879   4.792   1.769   9.701 -0.3779 -0.0898  0.2860
   22SAPC   H5R 2880   4.767   1.664   9.719 -1.5241 -0.3027 -2.1990
   22SAPC   C26 2881   4.810   1.816   9.574 -0.1460  0.9792 -0.7076
   22SAPC   H6R 2882   4.799   1.742   9.494  1.1127 -2.0258  1.7034
   22SAPC   C27 2883   4.859   1.947   9.524 -0.0572  0.5204 -0.1129
   22SAPC   H7R 2884   4.920   2.002   9.600 -1.1267  1.6381 -0.0391
   22SAPC   H7S 2885   4.775   2.018   9.513  1.2390  2.1578  0.0080
   22SAPC   C28 2886   4.945   1.943   9.403 -0.7597  0.4449 -0.0310
   22SAPC   H8R 2887   5.052   1.948   9.429 -0.2912 -1.7054 -1.3431
   22SAPC   C29 2888   4.922   1.930   9.270  0.0442 -0.1453 -0.2143
   22SAPC   H9R 2889   5.009   1.943   9.203  2.5308 -1.0612  2.6046
   22SAPC  C210 2890   4.788   1.914   9.204 -0.2112 -0.0199 -0.1309
   22SAPC  H10R 2891   4.705   1.926   9.277  0.3947  0.8743  0.4247
   22SAPC  H10S 2892   4.781   1.813   9.159  0.7728 -0.2582  0.2271
   22SAPC  C211 2893   4.775   2.017   9.096 -0.3243 -0.3457  0.1828
   22SAPC  H11R 2894   4.839   2.106   9.107 -0.8573  0.3474 -1.9866
   22SAPC  C212 2895   4.689   2.004   8.989  0.1269 -0.3286 -0.2369
   22SAPC  H12R 2896   4.684   2.088   8.918  1.7697 -0.5974 -0.7202
   22SAPC  C213 2897   4.602   1.884   8.954  0.3878  0.4254 -0.1652
   22SAPC  H13R 2898   4.613   1.798   9.024 -3.1661 -0.0416  0.0165
   22SAPC  H13S 2899   4.636   1.848   8.854 -2.2174  1.0309 -1.3585
   22SAPC  C214 2900   4.454   1.915   8.940 -0.3081 -0.1721  0.0703
   22SAPC  H14R 2901   4.407   1.939   9.037 -1.5569 -0.2191 -0.5109
   22SAPC  C215 2902   4.373   1.930   8.826  0.1253  0.0067 -0.0710
   22SAPC  H15R 2903   4.264   1.942   8.831  0.0553  0.3970 -2.0341
   22SAPC  C216 2904   4.430   1.930   8.688 -0.4188  0.3613  0.7952
   22SAPC  H16R 2905   4.527   1.984   8.687  1.1101 -2.2108 -0.5473
   22SAPC  H16S 2906   4.359   1.982   8.620 -0.1500 -0.7463 -0.3775
   22SAPC  C217 2907   4.453   1.781   8.637 -0.4294 -0.5247  0.4241
   22SAPC  H17R 2908   4.352   1.735   8.632 -1.2265  0.9770  1.7491
   22SAPC  H17S 2909   4.513   1.719   8.707  2.9633  2.1475  0.1839
   22SAPC  C218 2910   4.525   1.772   8.495  0.2948  0.2488 -0.5928
   22SAPC  H18R 2911   4.622   1.823   8.479  0.6329 -0.1276  0.1958
   22SAPC  H18S 2912   4.461   1.818   8.416  1.6367 -0.6141 -2.2577
   22SAPC  C219 2913   4.546   1.629   8.464 -0.2118  0.1007  0.6036
   22SAPC  H19R 2914   4.543   1.631   8.353 -0.7402  0.8156  0.6300
   22SAPC  H19S 2915   4.467   1.564   8.506  0.4186 -1.9899 -1.2639
   22SAPC  C220 2916   4.681   1.578   8.518 -0.7927 -0.0410  0.6236
   22SAPC  H20R 2917   4.685   1.468   8.504 -0.2152 -0.1085  1.2880
   22SAPC  H20S 2918   4.693   1.582   8.628 -2.0723 -2.9861  0.9508
   22SAPC  H20T 2919   4.773   1.604   8.461  0.0941 -0.8854  1.6429
   22SAPC   C33 2920   4.462   1.395   9.843 -0.1993  0.5189  0.2134
   22SAPC   H3X 2921   4.525   1.309   9.810 -0.1965 -0.2847  2.1477
   22SAPC   H3Y 2922   4.483   1.486   9.783 -0.8629  0.7922  0.3929
   22SAPC   C34 2923   4.314   1.357   9.817  0.2076 -0.6497  0.3423
   22SAPC   H4X 2924   4.246   1.437   9.851  1.0174 -0.0850  0.6722
   22SAPC   H4Y 2925   4.272   1.271   9.874  1.0752  0.0825  2.1451
   22SAPC   C35 2926   4.281   1.326   9.667 -0.8236 -0.5613  0.2559
   22SAPC   H5X 2927   4.344   1.241   9.632  0.6732 -0.2290  1.9932
   22SAPC   H5Y 2928   4.308   1.414   9.606 -0.7518 -0.5287  0.3361
   22SAPC   C36 2929   4.133   1.293   9.635 -0.0114 -0.4337 -0.1358
   22SAPC   H6X 2930   4.077   1.383   9.671 -0.9028 -0.3076 -1.7260
   22SAPC   H6Y 2931   4.113   1.205   9.698 -1.4689 -1.2176 -1.6153
   22SAPC   C37 2932   4.088   1.265   9.489 -0.3168  0.7024  0.4904
   22SAPC   H7X 2933   3.983   1.229   9.502 -0.8969  2.9266  3.2751
   22SAPC   H7Y 2934   4.148   1.187   9.439 -1.3669  0.1847  0.0028
   22SAPC   C38 2935   4.092   1.381   9.387 -0.6393  0.5369  0.3469
   22SAPC   H8X 2936   4.194   1.423   9.384 -0.8361  0.9536 -1.0041
   22SAPC   H8Y 2937   4.019   1.461   9.412 -1.3054  0.2162 -0.5060
   22SAPC   C39 2938   4.074   1.326   9.240 -0.5646  0.9431 -0.5972
   22SAPC   H9X 2939   3.974   1.279   9.255 -0.8485  1.5649 -0.4781
   22SAPC   H9Y 2940   4.165   1.266   9.220 -0.1995  2.2284 -3.2130
   22SAPC  C310 2941   4.063   1.442   9.146  0.1202 -0.6850  0.2838
   22SAPC  H10X 2942   4.161   1.495   9.151 -0.6472  0.7588  0.8707
   22SAPC  H10Y 2943   3.980   1.508   9.179  0.0865 -0.4835 -0.1903
   22SAPC  C311 2944   4.045   1.400   8.998 -0.3167  0.2836  0.4510
   22SAPC  H11X 2945   4.144   1.363   8.964 -1.3224 -1.1027 -1.1186
   22SAPC  H11Y 2946   4.013   1.488   8.937 -0.4650  0.9219  1.4233
   22SAPC  C312 2947   3.940   1.286   8.983 -0.0344  0.3028  0.6470
   22SAPC  H12X 2948   3.840   1.317   9.020 -0.3096  0.9109 -0.5806
   22SAPC  H12Y 2949   3.973   1.209   9.056  0.9338  0.4648  0.3969
   22SAPC  C313 2950   3.925   1.245   8.838 -0.7715  0.3636 -0.2439
   22SAPC  H13X 2951   3.839   1.174   8.839 -0.6212  0.1767 -0.4582
   22SAPC  H13Y 2952   4.017   1.193   8.804 -0.3031  0.0829  1.3856
   22SAPC  C314 2953   3.884   1.362   8.750  0.6184 -0.0252 -0.3848
   22SAPC  H14X 2954   3.964   1.440   8.748  0.5873 -0.0051 -2.0138
   22SAPC  H14Y 2955   3.796   1.411   8.797  0.0359 -1.5246  0.1273
   22SAPC  C315 2956   3.845   1.322   8.609 -0.8280  0.3646 -0.0445
   22SAPC  H15X 2957   3.758   1.253   8.622 -1.6117  1.2397 -0.5550
   22SAPC  H15Y 2958   3.926   1.267   8.557 -0.6135  0.3228  0.3243
   22SAPC  C316 2959   3.809   1.445   8.527 -0.1944  0.4413  0.0226
   22SAPC  H16X 2960   3.906   1.495   8.510  0.0326 -0.4716 -1.5650
   22SAPC  H16Y 2961   3.739   1.518   8.573 -1.4136 -0.2035 -0.7492
   22SAPC  C317 2962   3.777   1.415   8.379  0.0765 -0.0455  0.3102
   22SAPC  H17X 2963   3.686   1.352   8.378  0.3308 -0.4388 -1.3794
   22SAPC  H17Y 2964   3.857   1.352   8.334  1.2369  1.2129  0.5369
   22SAPC  C318 2965   3.750   1.545   8.305 -0.5176 -0.0268 -0.1120
   22SAPC  H18X 2966   3.688   1.609   8.370  0.4290  0.2523  0.5368
   22SAPC  H18Y 2967   3.688   1.533   8.213  0.5399  1.1772 -1.0193
   22SAPC  H18Z 2968   3.846   1.593   8.275 -0.8437  1.6334  1.4268
   23SAPC     N 2969   6.231   4.258  10.824 -0.3871  0.0974  0.0723
   23SAPC   C12 2970   6.328   4.371  10.874  0.0241 -1.0017  0.3975
   23SAPC  H12A 2971   6.381   4.408  10.787 -2.4256  0.0987 -0.7131
   23SAPC  H12B 2972   6.414   4.336  10.930 -0.0030 -1.3227  0.2383
   23SAPC   C13 2973   6.129   4.298  10.730  0.6811  0.1343  0.0300
   23SAPC  H13A 2974   6.088   4.214  10.677 -1.3804  1.6819 -0.9639
   23SAPC  H13B 2975   6.045   4.349  10.774  1.8945 -0.2227  3.0026
   23SAPC  H13C 2976   6.170   4.373  10.663 -0.3637  0.6068 -0.0997
   23SAPC   C14 2977   6.314   4.143  10.767 -0.3813 -0.3510 -0.4332
   23SAPC  H14A 2978   6.373   4.182  10.685 -1.0781 -2.1698 -1.8694
   23SAPC  H14B 2979   6.370   4.118  10.856 -1.1089  1.9285  0.7565
   23SAPC  H14C 2980   6.261   4.058  10.726 -2.7428  1.6686 -1.8954
   23SAPC   C15 2981   6.165   4.201  10.940 -0.0768  0.3494 -0.0997
   23SAPC  H15A 2982   6.093   4.129  10.904  0.2296  0.9292 -1.9854
   23SAPC  H15B 2983   6.235   4.146  11.001  1.0020 -0.2307 -1.7619
   23SAPC  H15C 2984   6.112   4.270  11.004  2.2663  1.0226  1.2299
   23SAPC   C11 2985   6.274   4.498  10.962  0.0349  0.5621 -0.2370
   23SAPC  H11A 2986   6.356   4.556  11.009  0.3600  0.3537 -0.5374
   23SAPC  H11B 2987   6.208   4.459  11.043  0.3197 -2.2494 -1.2474
   23SAPC     P 2988   6.263   4.690  10.795 -0.2024 -0.4476 -0.0939
   23SAPC   O13 2989   6.157   4.769  10.728 -0.0675 -0.1000  0.6713
   23SAPC   O14 2990   6.355   4.767  10.882 -0.1680  0.0637  0.2310
   23SAPC   O12 2991   6.191   4.583  10.882  0.2534  0.7384 -0.4269
   23SAPC   O11 2992   6.333   4.601  10.689 -0.8596  0.2537 -0.4856
   23SAPC    C1 2993   6.464   4.653  10.639  0.3984  0.2861 -0.3557
   23SAPC    HA 2994   6.527   4.686  10.724 -0.8363  0.4664  0.5112
   23SAPC    HB 2995   6.507   4.560  10.595 -0.2449  0.6907 -1.9008
   23SAPC    C2 2996   6.455   4.745  10.518  0.8710 -0.6379  0.6867
   23SAPC    HS 2997   6.388   4.826  10.553  0.6704 -0.3276 -0.3777
   23SAPC   O21 2998   6.400   4.668  10.404 -0.3108  0.4876  0.1534
   23SAPC   C21 2999   6.315   4.736  10.324  0.2205  0.2286 -0.5290
   23SAPC   O22 3000   6.269   4.847  10.348 -0.7543 -0.2900 -0.3254
   23SAPC   C22 3001   6.280   4.647  10.202  0.3513 -0.4045  0.4286
   23SAPC   H2R 3002   6.371   4.643  10.139 -0.5806  1.0080 -1.0940
   23SAPC   H2S 3003   6.268   4.544  10.242 -0.3074 -0.4707  0.0729
   23SAPC    C3 3004   6.594   4.809  10.485 -0.0620  0.8021 -0.0650
   23SAPC    HX 3005   6.663   4.728  10.454 -0.3450  0.1877  0.8728
   23SAPC    HY 3006   6.631   4.865  10.573  1.2023  1.7181 -1.1451
   23SAPC   O31 3007   6.581   4.907  10.379  0.1235 -0.1297 -0.4174
   23SAPC   C31 3008   6.601   4.874  10.254  0.3164  0.3008 -0.2889
   23SAPC   O32 3009   6.633   4.771  10.205 -0.5004 -0.5287 -0.1531
   23SAPC   C32 3010   6.554   4.994  10.167 -0.4944  0.3438 -0.5132
   23SAPC   H2X 3011   6.599   5.086  10.208 -1.7933  0.3575  0.9901
   23SAPC   H2Y 3012   6.443   5.007  10.168 -0.3550  1.6492 -1.0312
   23SAPC   C23 3013   6.141   4.680  10.140 -0.3822  0.5317  0.0664
   23SAPC   H3R 3014   6.159   4.770  10.078  0.3848  0.9618  0.9033
   23SAPC   H3S 3015   6.069   4.705  10.221 -0.0736 -0.4152  0.6481
   23SAPC   C24 3016   6.099   4.563  10.043  0.5771  0.0135  1.3150
   23SAPC   H4R 3017   6.066   4.470  10.094 -3.2563 -0.0038 -0.8243
   23SAPC   H4S 3018   6.191   4.536   9.988 -1.0446 -1.7313 -0.7102
   23SAPC   C25 3019   5.978   4.604   9.959 -0.1926 -0.3863  0.2215
   23SAPC   H5R 3020   5.881   4.589  10.008  0.3572  1.9655  2.2188
   23SAPC   C26 3021   5.987   4.614   9.821 -0.4213 -0.8097 -0.8471
   23SAPC   H6R 3022   5.897   4.608   9.757 -0.8784 -0.2295 -0.2747
   23SAPC   C27 3023   6.116   4.612   9.745  0.3579 -0.1565 -0.1174
   23SAPC   H7R 3024   6.140   4.506   9.723  1.8162  0.4341 -1.5712
   23SAPC   H7S 3025   6.197   4.648   9.811  0.0111  0.6541 -0.1098
   23SAPC   C28 3026   6.133   4.700   9.623 -0.4695  0.7501 -0.4523
   23SAPC   H8R 3027   6.117   4.808   9.638  2.6882  1.1585  0.5996
   23SAPC   C29 3028   6.177   4.663   9.502 -0.0047  0.1159 -0.8216
   23SAPC   H9R 3029   6.192   4.740   9.425  0.2691 -0.1392 -1.0263
   23SAPC  C210 3030   6.208   4.521   9.450  0.5623  0.5405 -0.4414
   23SAPC  H10R 3031   6.147   4.450   9.510  1.9836 -2.6345 -2.4825
   23SAPC  H10S 3032   6.306   4.482   9.486 -0.0257  0.2852  0.9563
   23SAPC  C211 3033   6.189   4.505   9.304 -0.1518  0.3010  0.4457
   23SAPC  H11R 3034   6.271   4.503   9.231 -2.0360  0.6323 -1.8163
   23SAPC  C212 3035   6.065   4.493   9.240 -0.4526 -0.5467 -0.5610
   23SAPC  H12R 3036   6.064   4.462   9.135  1.7817  1.3361 -1.2127
   23SAPC  C213 3037   5.928   4.496   9.311  0.3406 -0.0019 -0.1017
   23SAPC  H13R 3038   5.937   4.481   9.420 -0.1377  2.9146  0.4157
   23SAPC  H13S 3039   5.872   4.411   9.266 -1.5573  0.4671  1.2506
   23SAPC  C214 3040   5.843   4.619   9.285  0.1496  0.0875 -0.8715
   23SAPC  H14R 3041   5.857   4.702   9.356  0.8314 -0.0524 -0.8352
   23SAPC  C215 3042   5.773   4.647   9.176 -0.0715 -0.4176  0.4014
   23SAPC  H15R 3043   5.731   4.747   9.160 -0.6429 -0.7490 -0.2839
   23SAPC  C216 3044   5.751   4.553   9.071  0.4180 -0.1926  1.0278
   23SAPC  H16R 3045   5.644   4.525   9.066 -0.0085  1.5067 -2.9340
   23SAPC  H16S 3046   5.816   4.465   9.088  1.5698  0.7311  1.5794
   23SAPC  C217 3047   5.798   4.622   8.940  0.6420  0.5928  0.1853
   23SAPC  H17R 3048   5.908   4.632   8.952  0.5005  1.7653  0.6000
   23SAPC  H17S 3049   5.755   4.720   8.912  1.6136  0.6411 -1.2646
   23SAPC  C218 3050   5.777   4.533   8.822 -0.5139  0.1026  0.4119
   23SAPC  H18R 3051   5.682   4.476   8.819  0.3459 -1.4039 -2.1032
   23SAPC  H18S 3052   5.849   4.449   8.812 -0.2791  0.3939 -0.5417
   23SAPC  C219 3053   5.785   4.602   8.689  0.3026 -0.2572  0.0979
   23SAPC  H19R 3054   5.716   4.689   8.687  0.9601  0.2825  0.4351
   23SAPC  H19S 3055   5.748   4.528   8.614  1.2663 -0.0237 -0.6175
   23SAPC  C220 3056   5.927   4.639   8.658  0.6411 -0.4017 -0.0738
   23SAPC  H20R 3057   5.999   4.554   8.660  0.2436 -0.8278 -1.7060
   23SAPC  H20S 3058   5.970   4.713   8.729  0.6266 -1.8874  1.5495
   23SAPC  H20T 3059   5.921   4.685   8.557 -1.4662  0.1861  0.2715
   23SAPC   C33 3060   6.598   4.967  10.023 -1.0862  0.2585 -0.3658
   23SAPC   H3X 3061   6.527   4.906   9.962  0.5088 -0.3478 -1.6883
   23SAPC   H3Y 3062   6.698   4.919  10.019 -0.9821  0.3475  0.9070
   23SAPC   C34 3063   6.614   5.102   9.945 -0.3197 -0.4663  0.4192
   23SAPC   H4X 3064   6.695   5.164   9.987  1.5464 -2.1131 -0.6016
   23SAPC   H4Y 3065   6.516   5.154   9.960 -0.7101 -1.5533  1.8668
   23SAPC   C35 3066   6.654   5.089   9.794  0.2001 -0.6305  0.0715
   23SAPC   H5X 3067   6.760   5.067   9.770  0.5441  1.6054 -0.7263
   23SAPC   H5Y 3068   6.629   5.194   9.767 -2.6608 -1.0355  0.7538
   23SAPC   C36 3069   6.565   4.977   9.722 -0.0915 -0.6975  0.2210
   23SAPC   H6X 3070   6.459   4.994   9.751  0.4911 -0.3011  2.3279
   23SAPC   H6Y 3071   6.590   4.878   9.768  0.5975 -0.2069  0.9336
   23SAPC   C37 3072   6.602   4.983   9.579 -0.7281  0.4617 -0.0925
   23SAPC   H7X 3073   6.711   4.965   9.572 -0.6501  0.3127  1.3045
   23SAPC   H7Y 3074   6.576   5.083   9.539  0.3534  1.5806  1.8768
   23SAPC   C38 3075   6.527   4.877   9.495  0.0720  0.1703  0.0603
   23SAPC   H8X 3076   6.422   4.907   9.516 -0.4707  0.2662 -2.4695
   23SAPC   H8Y 3077   6.548   4.775   9.531  3.3848  1.0173  0.8086
   23SAPC   C39 3078   6.545   4.880   9.352 -0.6611 -0.4024 -0.6105
   23SAPC   H9X 3079   6.654   4.856   9.346 -0.2182  1.4556 -0.5076
   23SAPC   H9Y 3080   6.536   4.982   9.311 -0.7009 -1.1143 -2.4350
   23SAPC  C310 3081   6.469   4.788   9.265 -0.0461 -0.6388 -0.0076
   23SAPC  H10X 3082   6.365   4.824   9.260  0.0171 -0.3869 -5.2703
   23SAPC  H10Y 3083   6.467   4.680   9.293  0.5457 -0.5347  0.4556
   23SAPC  C311 3084   6.514   4.788   9.118  0.3651 -0.4801 -0.0489
   23SAPC  H11X 3085   6.611   4.735   9.124 -0.7946 -2.9304 -1.4674
   23SAPC  H11Y 3086   6.534   4.894   9.093  0.5753 -0.5579 -0.2130
   23SAPC  C312 3087   6.414   4.716   9.030  0.5856  0.0196 -0.0637
   23SAPC  H12X 3088   6.321   4.770   9.056  0.9368  1.4890 -1.6932
   23SAPC  H12Y 3089   6.402   4.607   9.050  0.9927  0.3626  2.3784
   23SAPC  C313 3090   6.445   4.738   8.875  0.2724  0.2096 -0.8978
   23SAPC  H13X 3091   6.542   4.689   8.853  0.3141 -1.1399  1.8875
   23SAPC  H13Y 3092   6.462   4.847   8.861 -1.5719  0.3970 -2.0403
   23SAPC  C314 3093   6.323   4.695   8.789 -0.1649  0.0925 -0.5202
   23SAPC  H14X 3094   6.234   4.756   8.818  0.3531  0.8662 -0.5178
   23SAPC  H14Y 3095   6.308   4.588   8.815  0.4204  0.2871  0.6823
   23SAPC  C315 3096   6.353   4.695   8.640  1.1000 -0.0901  0.1655
   23SAPC  H15X 3097   6.318   4.598   8.598  0.5614  0.2764 -0.2482
   23SAPC  H15Y 3098   6.463   4.705   8.630  1.6514 -2.0177  3.0082
   23SAPC  C316 3099   6.284   4.800   8.552  0.0483 -0.8423  0.0277
   23SAPC  H16X 3100   6.175   4.812   8.571  0.4084  0.2338  1.5211
   23SAPC  H16Y 3101   6.278   4.757   8.449 -1.2513  2.9976 -1.7092
   23SAPC  C317 3102   6.363   4.935   8.558 -0.2330 -0.1108  0.0944
   23SAPC  H17X 3103   6.472   4.914   8.548 -0.2173 -0.1810  0.4084
   23SAPC  H17Y 3104   6.340   4.970   8.661  1.2002 -1.2089  0.8379
   23SAPC  C318 3105   6.316   5.046   8.461 -0.3328  0.3625  0.5951
   23SAPC  H18X 3106   6.294   5.007   8.359  0.4772 -1.5302  1.0912
   23SAPC  H18Y 3107   6.383   5.133   8.448 -1.1662  0.5717 -3.7984
   23SAPC  H18Z 3108   6.234   5.093   8.519  1.5830  0.5884  3.3306
   24SAPC     N 3109   0.765   5.120  10.850  0.4837 -0.3063 -0.1078
   24SAPC   C12 3110   0.898   5.087  10.922 -0.1229 -0.5407 -0.7971
   24SAPC  H12A 3111   0.857   5.068  11.020  0.6963 -2.1629 -0.7429
   24SAPC  H12B 3112   0.963   5.173  10.932  0.7606 -1.2231 -0.5129
   24SAPC   C13 3113   0.711   5.250  10.895  0.3911 -0.6363 -0.3579
   24SAPC  H13A 3114   0.754   5.333  10.840 -3.1774  0.3934 -1.9010
   24SAPC  H13B 3115   0.605   5.254  10.874  0.6503  2.5261 -1.6527
   24SAPC  H13C 3116   0.716   5.261  11.002  1.8342 -0.0146 -0.4704
   24SAPC   C14 3117   0.766   5.116  10.700 -0.2031 -0.2220 -0.3219
   24SAPC  H14A 3118   0.675   5.158  10.660  0.0458 -0.2799 -0.9559
   24SAPC  H14B 3119   0.856   5.166  10.667  0.4511 -0.6413  0.7738
   24SAPC  H14C 3120   0.776   5.011  10.677  0.2123 -0.0041 -1.1732
   24SAPC   C15 3121   0.663   5.018  10.890 -0.4864  0.2008 -0.8485
   24SAPC  H15A 3122   0.664   5.002  10.997  2.7411 -1.8123 -1.0411
   24SAPC  H15B 3123   0.563   5.042  10.857 -1.2504  0.7443  1.5936
   24SAPC  H15C 3124   0.695   4.923  10.849 -0.5572 -1.4355  2.5201
   24SAPC   C11 3125   0.985   4.967  10.887  0.2344 -0.3781  0.5177
   24SAPC  H11A 3126   1.063   4.948  10.964  0.9617 -1.8066 -0.5220
   24SAPC  H11B 3127   1.042   4.995  10.795  0.5143  1.7277  1.2741
   24SAPC     P 3128   0.956   4.717  10.817  0.1789 -0.1035  0.3100
   24SAPC   O13 3129   1.079   4.686  10.895 -0.3785  0.0447  0.1307
   24SAPC   O14 3130   0.854   4.613  10.833 -0.2580 -0.1179 -0.1298
   24SAPC   O12 3131   0.906   4.851  10.871 -0.2423 -0.2621 -0.1825
   24SAPC   O11 3132   0.996   4.728  10.656  0.3291  0.2457 -0.8373
   24SAPC    C1 3133   0.935   4.833  10.577  0.8778  0.3512  0.1042
   24SAPC    HA 3134   0.826   4.850  10.591  0.3677 -2.3944  0.0756
   24SAPC    HB 3135   0.989   4.926  10.604  0.2443  1.3987 -2.0270
   24SAPC    C2 3136   0.960   4.821  10.421 -0.0850 -0.0528 -0.1153
   24SAPC    HS 3137   0.894   4.896  10.373 -0.2190  0.2505  0.5402
   24SAPC   O21 3138   0.927   4.687  10.378  0.0172 -0.0379  0.6676
   24SAPC   C21 3139   0.796   4.671  10.368 -0.1554  0.1857 -0.0691
   24SAPC   O22 3140   0.712   4.754  10.390 -0.1306 -0.5755 -0.0406
   24SAPC   C22 3141   0.772   4.530  10.319  0.3402  0.8096  0.5094
   24SAPC   H2R 3142   0.843   4.463  10.373  0.3828  1.4022  1.2006
   24SAPC   H2S 3143   0.667   4.505  10.345 -0.7295 -0.6760 -4.2232
   24SAPC    C3 3144   1.102   4.856  10.364 -0.1151 -0.1621  0.1880
   24SAPC    HX 3145   1.178   4.789  10.411 -2.6533 -1.9483  2.0340
   24SAPC    HY 3146   1.133   4.960  10.387 -1.5298  0.6333 -1.2409
   24SAPC   O31 3147   1.112   4.834  10.217  0.3491  0.2723 -0.2693
   24SAPC   C31 3148   1.231   4.849  10.173  0.2562  0.4599  0.1016
   24SAPC   O32 3149   1.325   4.892  10.237 -0.3301  0.1699  0.6307
   24SAPC   C32 3150   1.234   4.802  10.025  1.0085  0.5451 -0.0891
   24SAPC   H2X 3151   1.148   4.858   9.983  0.9615  0.9878  0.5898
   24SAPC   H2Y 3152   1.214   4.693  10.017  2.0042  0.3716 -0.3865
   24SAPC   C23 3153   0.794   4.527  10.163 -0.4347 -0.3122  0.0034
   24SAPC   H3R 3154   0.704   4.573  10.119  0.3556 -0.1529 -1.4991
   24SAPC   H3S 3155   0.796   4.417  10.144  2.0257 -0.6660  1.7670
   24SAPC   C24 3156   0.924   4.583  10.111  0.1498  0.5284 -0.7701
   24SAPC   H4R 3157   1.001   4.549  10.182 -1.4263 -0.6990  0.4308
   24SAPC   H4S 3158   0.937   4.693  10.125 -1.1026  0.3788  2.3240
   24SAPC   C25 3159   0.958   4.543   9.969  0.7003  0.1803 -0.2984
   24SAPC   H5R 3160   0.894   4.588   9.892  0.9556 -0.4651 -0.8953
   24SAPC   C26 3161   1.054   4.448   9.935  0.5668  0.7781 -0.5909
   24SAPC   H6R 3162   1.092   4.441   9.832  2.3551  2.3578 -0.0927
   24SAPC   C27 3163   1.130   4.365  10.026  0.3636 -0.4928  0.9598
   24SAPC   H7R 3164   1.150   4.260   9.994 -0.0198 -0.2176 -0.2359
   24SAPC   H7S 3165   1.070   4.361  10.120 -1.3420 -0.1609 -0.0730
   24SAPC   C28 3166   1.260   4.428  10.062 -0.4962  0.6028  0.3461
   24SAPC   H8R 3167   1.259   4.467  10.165  1.4909 -0.3793  0.7772
   24SAPC   C29 3168   1.372   4.446   9.983  0.2311  0.8057  0.1560
   24SAPC   H9R 3169   1.462   4.495  10.022 -1.0865  3.2153  0.3135
   24SAPC  C210 3170   1.394   4.394   9.838 -0.1099 -0.5310 -0.7456
   24SAPC  H10R 3171   1.359   4.472   9.768 -0.9645  1.0327  1.3309
   24SAPC  H10S 3172   1.322   4.310   9.825  0.0083 -1.2063  2.2111
   24SAPC  C211 3173   1.524   4.322   9.811  1.2555 -0.2981  0.4292
   24SAPC  H11R 3174   1.537   4.224   9.858 -1.0418  0.0050  1.8325
   24SAPC  C212 3175   1.611   4.374   9.729 -0.0789 -0.5149  0.7635
   24SAPC  H12R 3176   1.708   4.327   9.704 -0.4471 -2.3393  2.5076
   24SAPC  C213 3177   1.609   4.508   9.662  0.9588 -0.1487  0.1652
   24SAPC  H13R 3178   1.672   4.570   9.729 -0.6144 -0.0657  1.6453
   24SAPC  H13S 3179   1.510   4.558   9.654  1.0381 -0.0271 -0.0656
   24SAPC  C214 3180   1.675   4.510   9.525 -0.2211  0.1930 -0.0609
   24SAPC  H14R 3181   1.781   4.534   9.509  0.4697 -2.5652 -0.0309
   24SAPC  C215 3182   1.607   4.479   9.412 -0.2940 -0.4093  0.5900
   24SAPC  H15R 3183   1.663   4.501   9.320 -1.0284 -0.3071  0.1651
   24SAPC  C216 3184   1.464   4.440   9.402  0.4162  0.2980  0.0885
   24SAPC  H16R 3185   1.427   4.390   9.494  0.3788 -1.6520 -0.9288
   24SAPC  H16S 3186   1.455   4.361   9.325  1.2675  0.2904 -0.0084
   24SAPC  C217 3187   1.363   4.561   9.373 -0.6694  0.4800  0.6768
   24SAPC  H17R 3188   1.390   4.581   9.268  1.0767 -3.7600  0.1196
   24SAPC  H17S 3189   1.385   4.653   9.432 -0.5878  0.8429  0.0914
   24SAPC  C218 3190   1.225   4.507   9.371  0.5258  0.2354  0.1852
   24SAPC  H18R 3191   1.225   4.397   9.359  1.1255  0.2069  0.4122
   24SAPC  H18S 3192   1.174   4.546   9.281  0.2075  0.3131  0.3966
   24SAPC  C219 3193   1.138   4.537   9.490  0.5991  0.3127 -0.0295
   24SAPC  H19R 3194   1.203   4.513   9.577  0.6483  1.5009  0.2834
   24SAPC  H19S 3195   1.050   4.471   9.500 -0.0396  0.8497 -1.8699
   24SAPC  C220 3196   1.088   4.680   9.510  0.5837  0.4070  0.6542
   24SAPC  H20R 3197   1.049   4.690   9.613  0.0431  0.4130  0.4502
   24SAPC  H20S 3198   1.003   4.705   9.443  2.9840  0.6276 -2.6071
   24SAPC  H20T 3199   1.168   4.758   9.503 -0.3744  1.5892  2.1626
   24SAPC   C33 3200   1.364   4.847   9.960 -0.0417  0.5846  1.0194
   24SAPC   H3X 3201   1.449   4.796  10.009  1.1620  0.3611 -1.1715
   24SAPC   H3Y 3202   1.386   4.956   9.961  2.5358  0.2968 -2.7549
   24SAPC   C34 3203   1.364   4.814   9.806 -0.1136 -0.3482 -0.2162
   24SAPC   H4X 3204   1.267   4.838   9.758 -0.2854  0.7494  0.6363
   24SAPC   H4Y 3205   1.375   4.706   9.783 -0.1766 -0.1875 -1.0118
   24SAPC   C35 3206   1.472   4.897   9.736  0.2440 -0.2244 -0.5583
   24SAPC   H5X 3207   1.566   4.867   9.787  0.0976  0.8024  0.3501
   24SAPC   H5Y 3208   1.460   5.004   9.761 -0.3921 -0.2251 -0.8570
   24SAPC   C36 3209   1.483   4.890   9.587 -0.2055 -0.1747 -0.1150
   24SAPC   H6X 3210   1.380   4.898   9.544  0.4706 -0.1509 -1.7968
   24SAPC   H6Y 3211   1.521   4.788   9.564  2.4767  0.5555  0.7655
   24SAPC   C37 3212   1.567   4.995   9.517  1.0521 -0.2556  0.7604
   24SAPC   H7X 3213   1.642   5.038   9.587  0.5704  2.0551 -0.0608
   24SAPC   H7Y 3214   1.495   5.077   9.494 -0.3601 -2.0205 -1.5256
   24SAPC   C38 3215   1.623   4.953   9.386 -0.1255  0.4415  0.5512
   24SAPC   H8X 3216   1.698   4.872   9.399  0.3970  1.1515  2.2358
   24SAPC   H8Y 3217   1.674   5.041   9.343 -0.8601  1.3108  1.4293
   24SAPC   C39 3218   1.519   4.900   9.285  0.7078  0.0090 -0.2723
   24SAPC   H9X 3219   1.455   4.981   9.242  1.2831  0.1195 -0.9322
   24SAPC   H9Y 3220   1.442   4.835   9.331 -2.5998  2.9358 -1.2060
   24SAPC  C310 3221   1.579   4.831   9.167  0.3926 -0.0470  0.0370
   24SAPC  H10X 3222   1.628   4.735   9.192  0.2529 -1.2573 -3.7456
   24SAPC  H10Y 3223   1.648   4.906   9.123 -0.3311  0.7948  0.3046
   24SAPC  C311 3224   1.471   4.803   9.060  0.0245 -0.6797  0.1727
   24SAPC  H11X 3225   1.403   4.891   9.052  0.1940 -0.4758  0.8624
   24SAPC  H11Y 3226   1.403   4.730   9.108 -0.1417  0.2260  1.3815
   24SAPC  C312 3227   1.536   4.754   8.924  0.1370  0.2432  0.2394
   24SAPC  H12X 3228   1.605   4.832   8.886 -0.3323  1.0847  1.0672
   24SAPC  H12Y 3229   1.451   4.745   8.853 -3.3730 -0.4920  4.1471
   24SAPC  C313 3230   1.600   4.608   8.925 -0.1283 -0.1313 -0.1057
   24SAPC  H13X 3231   1.544   4.534   8.986 -2.0247  0.4239 -1.1185
   24SAPC  H13Y 3232   1.702   4.608   8.970 -0.4040  2.3522  0.6641
   24SAPC  C314 3233   1.604   4.553   8.779  0.4766  0.1679 -0.4181
   24SAPC  H14X 3234   1.674   4.619   8.723 -0.9257 -0.2973 -2.8656
   24SAPC  H14Y 3235   1.508   4.560   8.723  0.5119  2.0787 -0.3312
   24SAPC  C315 3236   1.663   4.408   8.770  0.8774  0.1165  0.3035
   24SAPC  H15X 3237   1.678   4.388   8.662 -0.9088  1.6682 -0.2994
   24SAPC  H15Y 3238   1.581   4.338   8.797 -0.2013  0.9672 -0.6447
   24SAPC  C316 3239   1.800   4.380   8.837  0.8147  0.6233  0.0850
   24SAPC  H16X 3240   1.782   4.409   8.943 -1.0618  3.7607 -0.9365
   24SAPC  H16Y 3241   1.880   4.439   8.787  0.7856  1.6267  1.1685
   24SAPC  C317 3242   1.841   4.229   8.821 -0.4249 -0.0978  0.5897
   24SAPC  H17X 3243   1.828   4.191   8.717  0.0169 -1.9587  1.1758
   24SAPC  H17Y 3244   1.768   4.178   8.888  0.4369  1.6907  3.0081
   24SAPC  C318 3245   1.985   4.202   8.865 -0.8921 -0.1766  0.0289
   24SAPC  H18X 3246   2.006   4.246   8.965  0.1370 -0.1948 -0.1657
   24SAPC  H18Y 3247   2.056   4.256   8.800  0.3766  1.5273  2.6533
   24SAPC  H18Z 3248   2.019   4.096   8.873 -1.8764 -0.4084  1.6121
   25SAPC     N 3249   3.955   4.305   6.090 -0.5367  0.1423 -0.2102
   25SAPC   C12 3250   3.935   4.425   6.189  0.3482  0.9086 -0.1364
   25SAPC  H12A 3251   3.888   4.385   6.278  0.3422  0.0233 -0.5238
   25SAPC  H12B 3252   3.867   4.495   6.143  0.2909 -0.0518 -1.5848
   25SAPC   C13 3253   4.038   4.202   6.149 -0.1272  0.8782 -0.2206
   25SAPC  H13A 3254   4.054   4.128   6.072 -1.6079 -0.7003  0.9072
   25SAPC  H13B 3255   4.139   4.237   6.162  1.0556 -1.6120 -1.9246
   25SAPC  H13C 3256   3.999   4.155   6.238  1.8431  0.0521  0.2507
   25SAPC   C14 3257   3.826   4.249   6.052  0.4061 -0.0686  0.2061
   25SAPC  H14A 3258   3.761   4.330   6.024  0.6292  0.1419  0.2939
   25SAPC  H14B 3259   3.828   4.181   5.969  1.9386 -1.5916  1.4007
   25SAPC  H14C 3260   3.782   4.197   6.136 -3.8351 -1.7747 -2.7226
   25SAPC   C15 3261   4.029   4.353   5.974 -0.4975 -0.2992 -0.5230
   25SAPC  H15A 3262   4.110   4.418   6.003  0.0311 -0.8328 -0.8010
   25SAPC  H15B 3263   4.067   4.269   5.919  1.8358  0.2739  0.0812
   25SAPC  H15C 3264   3.964   4.414   5.913 -0.4619 -0.1429 -0.4060
   25SAPC   C11 3265   4.055   4.508   6.235 -0.2244 -0.0513  0.2504
   25SAPC  H11A 3266   4.133   4.441   6.278 -0.4572 -2.3074 -2.5188
   25SAPC  H11B 3267   4.016   4.571   6.317  1.0284  2.0654 -0.6902
   25SAPC     P 3268   4.217   4.699   6.144 -0.4875  0.0511  0.5327
   25SAPC   O13 3269   4.336   4.620   6.140 -0.5074  0.4728 -0.0763
   25SAPC   O14 3270   4.206   4.801   6.038 -0.8300 -0.1875  0.1987
   25SAPC   O12 3271   4.102   4.592   6.124 -0.1273  0.1649  0.1056
   25SAPC   O11 3272   4.203   4.761   6.286  0.4043  0.2617  0.0966
   25SAPC    C1 3273   4.162   4.895   6.299  0.1163 -0.0531  0.0179
   25SAPC    HA 3274   4.071   4.926   6.244 -0.3005 -0.1266  0.6614
   25SAPC    HB 3275   4.147   4.909   6.408  2.9885  0.9670  0.3702
   25SAPC    C2 3276   4.281   4.994   6.272  0.3118 -0.8459  0.1908
   25SAPC    HS 3277   4.313   4.976   6.167 -1.5231  0.4304 -0.6351
   25SAPC   O21 3278   4.393   4.981   6.359  0.4234  0.1765  0.3652
   25SAPC   C21 3279   4.500   5.059   6.341 -0.1848 -0.9041  0.1721
   25SAPC   O22 3280   4.516   5.131   6.246  0.6225  0.0415  0.1944
   25SAPC   C22 3281   4.602   5.046   6.447 -0.3348  0.5486 -0.3991
   25SAPC   H2R 3282   4.574   5.120   6.524 -0.0710 -1.6240  1.9153
   25SAPC   H2S 3283   4.597   4.944   6.490 -1.5470  0.0673 -1.5987
   25SAPC    C3 3284   4.221   5.139   6.276 -0.9727  0.9117 -0.8024
   25SAPC    HX 3285   4.144   5.126   6.197 -0.1239  0.5394 -1.5818
   25SAPC    HY 3286   4.286   5.222   6.241 -0.0054  1.4428  1.9978
   25SAPC   O31 3287   4.163   5.178   6.409  0.1858  0.7794 -0.1858
   25SAPC   C31 3288   4.235   5.258   6.493  0.4742  0.2841 -0.3210
   25SAPC   O32 3289   4.345   5.301   6.468  0.4854 -0.6047  0.2680
   25SAPC   C32 3290   4.162   5.253   6.632 -0.0186 -0.0999  0.2587
   25SAPC   H2X 3291   4.061   5.211   6.610 -0.4019  1.5003 -1.2827
   25SAPC   H2Y 3292   4.150   5.359   6.661  0.4757  0.5982 -1.8499
   25SAPC   C23 3293   4.750   5.061   6.406  0.1660  0.2239 -0.6012
   25SAPC   H3R 3294   4.764   5.136   6.325 -0.3654  1.2983  0.2793
   25SAPC   H3S 3295   4.793   4.960   6.385 -0.0088 -0.0164  0.1542
   25SAPC   C24 3296   4.838   5.112   6.520  0.5495  0.2288  0.5030
   25SAPC   H4R 3297   4.847   5.042   6.606  1.9548  1.3258  1.3054
   25SAPC   H4S 3298   4.800   5.204   6.569  0.8678  0.4128  0.4109
   25SAPC   C25 3299   4.980   5.131   6.474  0.1044 -0.1700  0.2344
   25SAPC   H5R 3300   5.002   5.212   6.403  1.6153 -1.3175 -0.6565
   25SAPC   C26 3301   5.084   5.042   6.486  0.4585 -0.7390 -0.4252
   25SAPC   H6R 3302   5.187   5.081   6.485  1.0486 -1.7020  3.9652
   25SAPC   C27 3303   5.069   4.907   6.551 -0.1899 -0.7687  0.3762
   25SAPC   H7R 3304   5.027   4.850   6.466 -0.4221 -1.3335  0.8599
   25SAPC   H7S 3305   4.991   4.918   6.630 -1.7885  2.2512 -1.4185
   25SAPC   C28 3306   5.193   4.848   6.604  0.4946  0.1765  0.2725
   25SAPC   H8R 3307   5.286   4.897   6.569 -0.2298  0.2364 -1.7190
   25SAPC   C29 3308   5.189   4.743   6.685  0.0220 -0.5330  0.1317
   25SAPC   H9R 3309   5.281   4.687   6.708  0.3701 -0.6624 -1.4860
   25SAPC  C210 3310   5.072   4.662   6.721 -0.2537 -0.2509 -0.0889
   25SAPC  H10R 3311   4.979   4.668   6.661 -0.0610 -0.9319 -0.4629
   25SAPC  H10S 3312   5.048   4.702   6.821  1.3590  1.6954 -0.4080
   25SAPC  C211 3313   5.112   4.514   6.719 -0.3069 -0.0979 -0.6332
   25SAPC  H11R 3314   5.102   4.460   6.624 -0.9778 -0.2222 -0.4907
   25SAPC  C212 3315   5.162   4.451   6.832  0.3381  0.4325  0.1587
   25SAPC  H12R 3316   5.187   4.346   6.809 -0.7625  0.1205  0.3518
   25SAPC  C213 3317   5.180   4.513   6.967 -0.2346  0.1276 -0.5026
   25SAPC  H13R 3318   5.079   4.506   7.013  1.1830  0.0118  2.9085
   25SAPC  H13S 3319   5.205   4.621   6.965  0.0046  0.1742  1.8360
   25SAPC  C214 3320   5.283   4.435   7.042  0.0431  0.1387  0.1346
   25SAPC  H14R 3321   5.380   4.437   6.990 -0.1967 -0.4770 -0.3464
   25SAPC  C215 3322   5.265   4.365   7.156 -1.0556 -0.7635  0.0689
   25SAPC  H15R 3323   5.342   4.299   7.199  0.5036  1.3260  0.6591
   25SAPC  C216 3324   5.135   4.351   7.230  0.0645 -0.2763  0.3483
   25SAPC  H16R 3325   5.090   4.249   7.226 -1.4835  0.4085 -1.3565
   25SAPC  H16S 3326   5.052   4.413   7.189  0.3389  1.4951  2.3388
   25SAPC  C217 3327   5.159   4.387   7.375  0.5900  0.2331 -0.4581
   25SAPC  H17R 3328   5.064   4.395   7.432  0.8873  0.3478  0.0305
   25SAPC  H17S 3329   5.216   4.482   7.384  1.8793 -0.5019 -0.5931
   25SAPC  C218 3330   5.235   4.280   7.455 -0.2195 -0.3701 -0.3075
   25SAPC  H18R 3331   5.335   4.257   7.413  0.2187  1.9383 -0.6960
   25SAPC  H18S 3332   5.186   4.181   7.458  0.4649 -0.7545 -1.4496
   25SAPC  C219 3333   5.271   4.313   7.605 -0.0503  0.4367  0.1254
   25SAPC  H19R 3334   5.181   4.346   7.663 -1.7204  2.4529 -3.3216
   25SAPC  H19S 3335   5.327   4.409   7.612  0.1251  0.2831  0.9677
   25SAPC  C220 3336   5.343   4.201   7.672 -0.4844 -0.0979  0.1091
   25SAPC  H20R 3337   5.383   4.240   7.768 -0.9150  0.3980  0.0880
   25SAPC  H20S 3338   5.424   4.161   7.607 -1.2794 -2.1165  0.2893
   25SAPC  H20T 3339   5.268   4.120   7.687 -0.3481 -0.6208 -1.7666
   25SAPC   C33 3340   4.243   5.169   6.732 -0.1065  0.5187 -0.1060
   25SAPC   H3X 3341   4.344   5.214   6.743  1.0184 -2.1181  1.2212
   25SAPC   H3Y 3342   4.257   5.066   6.692 -1.4165  0.6842 -1.0622
   25SAPC   C34 3343   4.180   5.166   6.870 -0.1809  0.8408 -0.2060
   25SAPC   H4X 3344   4.094   5.095   6.866  1.3620 -1.1676  0.6554
   25SAPC   H4Y 3345   4.149   5.272   6.885 -1.3357  1.0418 -3.1526
   25SAPC   C35 3346   4.268   5.118   6.987 -0.1094 -0.3199 -0.0430
   25SAPC   H5X 3347   4.362   5.178   6.986  0.1489 -0.7219 -0.2041
   25SAPC   H5Y 3348   4.296   5.011   6.979  2.8375  0.3647 -0.0932
   25SAPC   C36 3349   4.186   5.139   7.113  0.2394  0.0055 -0.3140
   25SAPC   H6X 3350   4.089   5.087   7.099  0.9530 -1.3046 -0.4576
   25SAPC   H6Y 3351   4.170   5.248   7.131 -0.7757 -0.1779 -0.0764
   25SAPC   C37 3352   4.238   5.082   7.242 -0.3477 -0.2226  0.2814
   25SAPC   H7X 3353   4.348   5.090   7.255 -0.4275  1.5646  0.2303
   25SAPC   H7Y 3354   4.212   4.976   7.261 -1.0845 -0.6330 -2.5899
   25SAPC   C38 3355   4.182   5.159   7.362 -0.0483  0.4927 -0.1098
   25SAPC   H8X 3356   4.071   5.159   7.363 -0.1091 -2.2034  1.2166
   25SAPC   H8Y 3357   4.204   5.268   7.358  1.4890  0.1648 -1.6551
   25SAPC   C39 3358   4.245   5.096   7.488 -0.3556 -0.2462  0.0329
   25SAPC   H9X 3359   4.355   5.090   7.480 -0.0488  1.1896  2.3656
   25SAPC   H9Y 3360   4.209   4.991   7.500 -0.6965 -0.1526 -0.1432
   25SAPC  C310 3361   4.210   5.186   7.606 -0.4089 -0.5328  0.2246
   25SAPC  H10X 3362   4.111   5.153   7.645 -0.1145 -0.8318  0.7249
   25SAPC  H10Y 3363   4.204   5.293   7.574 -0.3438 -0.8643 -0.9553
   25SAPC  C311 3364   4.316   5.184   7.716  0.4265  0.9064  0.2537
   25SAPC  H11X 3365   4.412   5.214   7.670 -0.2775 -0.0930 -2.0047
   25SAPC  H11Y 3366   4.325   5.080   7.756 -1.1605  0.7329  0.2321
   25SAPC  C312 3367   4.269   5.264   7.844  0.0615 -0.2153  0.2255
   25SAPC  H12X 3368   4.176   5.227   7.892 -0.8918  0.6923 -0.8686
   25SAPC  H12Y 3369   4.242   5.366   7.810 -0.5723 -0.6405 -0.6079
   25SAPC  C313 3370   4.379   5.271   7.960  0.4719 -0.2027 -0.0620
   25SAPC  H13X 3371   4.435   5.362   7.930  0.7236 -0.8282 -1.5653
   25SAPC  H13Y 3372   4.439   5.178   7.952 -0.4113 -0.7331 -0.7934
   25SAPC  C314 3373   4.330   5.297   8.105 -0.2239  0.0865  0.2547
   25SAPC  H14X 3374   4.267   5.389   8.115 -0.1159  0.0891  0.9806
   25SAPC  H14Y 3375   4.427   5.311   8.156 -0.1616  1.7864 -0.2596
   25SAPC  C315 3376   4.258   5.177   8.170 -0.1770  0.0696 -0.3098
   25SAPC  H15X 3377   4.191   5.125   8.098  1.4723 -2.3338 -0.2141
   25SAPC  H15Y 3378   4.193   5.219   8.251 -0.7530 -0.8264 -0.2957
   25SAPC  C316 3379   4.352   5.071   8.239 -0.2575  0.2290 -0.4366
   25SAPC  H16X 3380   4.426   5.117   8.308  0.9751 -1.5380 -0.5153
   25SAPC  H16Y 3381   4.420   5.033   8.159  1.2728  1.3804  0.2687
   25SAPC  C317 3382   4.273   4.962   8.309  0.3681 -0.2193 -0.3814
   25SAPC  H17X 3383   4.180   5.002   8.355 -0.7192 -0.5416 -2.2303
   25SAPC  H17Y 3384   4.335   4.921   8.392 -1.2844  0.9261  1.5232
   25SAPC  C318 3385   4.232   4.866   8.203 -0.3941 -0.3299 -0.1583
   25SAPC  H18X 3386   4.189   4.913   8.112 -0.5627  0.2512  0.2103
   25SAPC  H18Y 3387   4.150   4.798   8.236 -1.4117  0.3243 -1.2676
   25SAPC  H18Z 3388   4.318   4.807   8.167 -0.8169 -1.3889  0.5258
   26SAPC     N 3389   2.987   0.857   6.083  0.8280  0.8797  0.3683
   26SAPC   C12 3390   3.006   0.866   6.233 -0.4246 -0.2419  0.1229
   26SAPC  H12A 3391   2.909   0.886   6.277 -0.7699  1.7406 -1.3980
   26SAPC  H12B 3392   3.052   0.962   6.251  1.1220 -1.2736  2.0929
   26SAPC   C13 3393   3.126   0.834   6.021  0.3411 -0.3104 -0.0778
   26SAPC  H13A 3394   3.108   0.814   5.916  0.2501  0.9918 -0.3256
   26SAPC  H13B 3395   3.182   0.926   6.031 -2.1895  1.5609 -1.7471
   26SAPC  H13C 3396   3.180   0.751   6.064  0.9010 -1.1862 -2.3076
   26SAPC   C14 3397   2.895   0.746   6.045  0.1602 -0.1029  0.1028
   26SAPC  H14A 3398   2.930   0.647   6.072  0.6902 -1.1279 -3.8009
   26SAPC  H14B 3399   2.794   0.762   6.078 -0.3521 -0.2330 -1.3310
   26SAPC  H14C 3400   2.888   0.743   5.938  1.3748  1.5017 -0.0500
   26SAPC   C15 3401   2.917   0.982   6.030 -0.5871  0.5321  0.3330
   26SAPC  H15A 3402   2.829   1.006   6.089 -0.2792  0.3955  0.8522
   26SAPC  H15B 3403   2.984   1.067   6.031 -0.9836  0.9688 -2.5254
   26SAPC  H15C 3404   2.895   0.970   5.926  0.6699  0.7105  0.0295
   26SAPC   C11 3405   3.071   0.750   6.311 -0.1614  0.3275  0.3030
   26SAPC  H11A 3406   3.055   0.772   6.418  0.0780  1.3666  0.1373
   26SAPC  H11B 3407   3.179   0.754   6.284 -0.1871 -0.9874 -0.0652
   26SAPC     P 3408   3.075   0.483   6.327  0.2131  0.2015  0.2978
   26SAPC   O13 3409   3.076   0.387   6.215 -0.0775  0.2270 -0.2730
   26SAPC   O14 3410   3.208   0.496   6.391 -0.9150 -0.9288 -0.4993
   26SAPC   O12 3411   3.022   0.619   6.271  0.3391  0.4670  0.3809
   26SAPC   O11 3412   2.971   0.437   6.431 -0.2761  0.1138  0.0628
   26SAPC    C1 3413   2.868   0.514   6.482  0.1914  0.4911 -0.4770
   26SAPC    HA 3414   2.829   0.586   6.407  1.1530  1.0097 -0.5018
   26SAPC    HB 3415   2.789   0.442   6.513  2.3425 -2.0755 -0.5542
   26SAPC    C2 3416   2.913   0.605   6.598  1.1258 -0.7849 -0.0200
   26SAPC    HS 3417   2.994   0.668   6.556 -0.6777  0.9578 -1.1117
   26SAPC   O21 3418   2.968   0.517   6.701 -0.3298 -0.3443  0.0640
   26SAPC   C21 3419   3.067   0.564   6.761 -0.1406  0.2052 -0.3399
   26SAPC   O22 3420   3.124   0.671   6.740  0.1174 -0.0344  0.1015
   26SAPC   C22 3421   3.106   0.473   6.881  0.0778 -0.1939  0.3240
   26SAPC   H2R 3422   3.017   0.409   6.902 -1.7865  1.7060 -1.2606
   26SAPC   H2S 3423   3.193   0.411   6.851  0.5728  0.4799  0.3363
   26SAPC    C3 3424   2.807   0.706   6.667 -0.4316 -0.2437  0.0525
   26SAPC    HX 3425   2.761   0.779   6.596 -1.9492 -0.7350  0.4817
   26SAPC    HY 3426   2.861   0.766   6.743 -0.5450  0.3351 -0.3117
   26SAPC   O31 3427   2.700   0.640   6.733  0.8243  0.3060 -0.9185
   26SAPC   C31 3428   2.609   0.709   6.797 -0.5675  0.2319  0.1794
   26SAPC   O32 3429   2.600   0.832   6.798  0.0437 -0.4473  0.4747
   26SAPC   C32 3430   2.503   0.628   6.863  0.3477  0.6874  0.2289
   26SAPC   H2X 3431   2.497   0.526   6.820 -0.9972  1.5013 -1.6286
   26SAPC   H2Y 3432   2.409   0.682   6.839 -0.3409 -1.0001 -1.0724
   26SAPC   C23 3433   3.141   0.551   7.011 -0.3821  0.0374  0.4452
   26SAPC   H3R 3434   3.058   0.614   7.051  0.3891  2.0418 -0.9175
   26SAPC   H3S 3435   3.216   0.628   6.983 -0.3889  0.0296  0.4051
   26SAPC   C24 3436   3.184   0.461   7.123  0.8692  0.4189 -0.5702
   26SAPC   H4R 3437   3.101   0.390   7.143  0.7056  1.3929  2.6662
   26SAPC   H4S 3438   3.197   0.527   7.211  2.1628  0.5152 -0.8038
   26SAPC   C25 3439   3.300   0.369   7.112  0.1220 -0.1935  0.1546
   26SAPC   H5R 3440   3.396   0.420   7.094 -0.5330  0.6793 -0.9751
   26SAPC   C26 3441   3.299   0.237   7.131  0.4970 -0.2240  0.0661
   26SAPC   H6R 3442   3.395   0.186   7.117 -0.2352 -1.8043  0.5282
   26SAPC   C27 3443   3.181   0.144   7.156 -0.2406  0.0958 -0.0979
   26SAPC   H7R 3444   3.091   0.181   7.103 -2.7123 -1.8541  2.4113
   26SAPC   H7S 3445   3.148   0.150   7.263  0.0713  1.3971 -0.0619
   26SAPC   C28 3446   3.185  -0.003   7.116 -0.1981  0.1568 -0.1643
   26SAPC   H8R 3447   3.124  -0.036   7.031 -0.1360 -0.8088  0.1488
   26SAPC   C29 3448   3.282  -0.081   7.170 -0.1840 -0.1963  0.1761
   26SAPC   H9R 3449   3.283  -0.183   7.129 -0.3226 -0.0667 -0.1493
   26SAPC  C210 3450   3.385  -0.072   7.276 -0.3030 -0.6510 -0.2640
   26SAPC  H10R 3451   3.357  -0.137   7.362  0.8105 -0.6914  0.0847
   26SAPC  H10S 3452   3.381   0.026   7.328  2.6095 -0.9410  0.7183
   26SAPC  C211 3453   3.528  -0.083   7.229 -0.1270  0.6158 -0.0541
   26SAPC  H11R 3454   3.541  -0.068   7.120  1.1390  1.1513  0.1496
   26SAPC  C212 3455   3.633  -0.107   7.303 -0.0909 -1.1419 -0.0004
   26SAPC  H12R 3456   3.733  -0.099   7.257 -0.6194 -0.4856 -1.0454
   26SAPC  C213 3457   3.623  -0.138   7.450 -0.0782 -0.4021  0.0595
   26SAPC  H13R 3458   3.612  -0.248   7.463 -3.0760  0.0557  2.1858
   26SAPC  H13S 3459   3.529  -0.097   7.493 -0.5922 -0.3145 -1.1085
   26SAPC  C214 3460   3.745  -0.089   7.524 -1.1858 -0.9017 -0.3903
   26SAPC  H14R 3461   3.822  -0.036   7.466 -1.4514 -0.9457 -0.7824
   26SAPC  C215 3462   3.788  -0.099   7.650  0.1012  0.0052 -0.3083
   26SAPC  H15R 3463   3.889  -0.065   7.676 -0.2568  0.6986  0.2146
   26SAPC  C216 3464   3.719  -0.159   7.771 -0.6241  0.3785  0.4830
   26SAPC  H16R 3465   3.693  -0.264   7.744 -2.1399  1.6576 -3.9585
   26SAPC  H16S 3466   3.630  -0.101   7.804  1.1316  1.1176  4.5367
   26SAPC  C217 3467   3.821  -0.172   7.891 -0.4364  0.0711 -0.1098
   26SAPC  H17R 3468   3.922  -0.200   7.852  1.0930  1.6945  2.4348
   26SAPC  H17S 3469   3.798  -0.251   7.965  2.1603  0.3866  1.1635
   26SAPC  C218 3470   3.848  -0.046   7.977 -0.1309  0.1815  0.6850
   26SAPC  H18R 3471   3.764  -0.025   8.046 -0.6907 -0.3491  0.1838
   26SAPC  H18S 3472   3.835   0.038   7.906 -4.8152 -1.3589 -0.6269
   26SAPC  C219 3473   3.978  -0.036   8.063 -0.7985 -0.4396 -0.0551
   26SAPC  H19R 3474   3.982   0.067   8.105 -1.8397  0.2621 -1.6089
   26SAPC  H19S 3475   4.061  -0.039   7.989 -0.1234 -2.1533  0.7056
   26SAPC  C220 3476   3.992  -0.135   8.173  0.2226  0.0778  0.3761
   26SAPC  H20R 3477   4.032  -0.234   8.143  1.1756  0.2262  1.1134
   26SAPC  H20S 3478   3.902  -0.142   8.238  0.3985 -0.7372  0.5435
   26SAPC  H20T 3479   4.069  -0.103   8.246 -0.0334  2.1325 -0.2102
   26SAPC   C33 3480   2.511   0.636   7.013 -0.5548  0.3314  0.3383
   26SAPC   H3X 3481   2.500   0.744   7.033 -0.2247  0.3537  0.4051
   26SAPC   H3Y 3482   2.613   0.609   7.049 -0.0291 -0.1374 -1.3920
   26SAPC   C34 3483   2.394   0.568   7.087 -0.4400 -0.2184  0.2055
   26SAPC   H4X 3484   2.379   0.470   7.037 -0.7663 -1.0789  1.9252
   26SAPC   H4Y 3485   2.308   0.637   7.075 -0.4577 -0.2609  0.0872
   26SAPC   C35 3486   2.406   0.538   7.237  0.4185  0.3495 -0.2195
   26SAPC   H5X 3487   2.476   0.453   7.249 -1.0532 -0.6958  1.3894
   26SAPC   H5Y 3488   2.309   0.504   7.278  1.5383 -2.5384  0.2858
   26SAPC   C36 3489   2.444   0.660   7.322 -0.4717  0.7803  0.3761
   26SAPC   H6X 3490   2.362   0.731   7.299 -0.5528  0.9097  1.0574
   26SAPC   H6Y 3491   2.524   0.719   7.273 -0.0274 -0.7525 -0.8120
   26SAPC   C37 3492   2.466   0.625   7.465 -0.4768 -0.1463  0.2121
   26SAPC   H7X 3493   2.558   0.562   7.470 -1.5972 -1.8109  0.6411
   26SAPC   H7Y 3494   2.388   0.557   7.504  0.5951 -1.6688 -0.1979
   26SAPC   C38 3495   2.470   0.749   7.557  0.1794  0.3190  0.3089
   26SAPC   H8X 3496   2.374   0.805   7.546 -0.3939 -0.2982  1.8341
   26SAPC   H8Y 3497   2.556   0.809   7.521  3.3317 -3.5918  0.7062
   26SAPC   C39 3498   2.475   0.716   7.709 -0.2413  0.5137  0.3046
   26SAPC   H9X 3499   2.400   0.637   7.733 -0.4078  0.2461 -1.0062
   26SAPC   H9Y 3500   2.458   0.809   7.768 -0.2556  0.0630  1.0211
   26SAPC  C310 3501   2.617   0.669   7.759 -0.3722  0.4951 -0.2869
   26SAPC  H10X 3502   2.689   0.741   7.715 -0.2799  1.2872  1.1175
   26SAPC  H10Y 3503   2.628   0.564   7.723  0.3269  1.1667 -2.1905
   26SAPC  C311 3504   2.622   0.667   7.913  0.6020 -0.0824  0.4083
   26SAPC  H11X 3505   2.573   0.759   7.953  0.3723  0.3264 -0.7810
   26SAPC  H11Y 3506   2.730   0.670   7.941  0.7123  0.2597 -0.0525
   26SAPC  C312 3507   2.547   0.546   7.963  0.3335  0.3813  0.1983
   26SAPC  H12X 3508   2.584   0.452   7.918 -3.4775  0.4259 -3.7366
   26SAPC  H12Y 3509   2.437   0.554   7.943  0.2707 -1.7383 -0.5640
   26SAPC  C313 3510   2.552   0.528   8.114 -0.0874  0.3599 -0.1926
   26SAPC  H13X 3511   2.503   0.434   8.148  1.8304 -0.5088  0.3022
   26SAPC  H13Y 3512   2.501   0.616   8.158 -1.5044  1.2590 -3.2879
   26SAPC  C314 3513   2.697   0.525   8.169  0.3225 -0.2172  0.1847
   26SAPC  H14X 3514   2.727   0.631   8.182  0.4574 -0.3276  0.8074
   26SAPC  H14Y 3515   2.763   0.483   8.090  1.4351  0.1913  0.8656
   26SAPC  C315 3516   2.703   0.453   8.305 -0.4489 -0.4282 -0.1250
   26SAPC  H15X 3517   2.704   0.343   8.290 -0.8075 -0.2638 -1.4502
   26SAPC  H15Y 3518   2.606   0.487   8.346 -0.5163  0.1098 -0.7209
   26SAPC  C316 3519   2.827   0.517   8.382  0.5425  0.1985  0.3061
   26SAPC  H16X 3520   2.840   0.624   8.357  0.7145  0.2675  0.6828
   26SAPC  H16Y 3521   2.919   0.474   8.335  1.2490  0.2851  1.5631
   26SAPC  C317 3522   2.821   0.488   8.538 -0.2598  0.0709 -0.1156
   26SAPC  H17X 3523   2.730   0.541   8.573  0.0188  1.1215 -0.9261
   26SAPC  H17Y 3524   2.912   0.533   8.583 -0.6635  0.6112  0.1651
   26SAPC  C318 3525   2.813   0.338   8.569  0.9573  0.0013  0.2442
   26SAPC  H18X 3526   2.724   0.290   8.521  0.2430  1.2514  0.2794
   26SAPC  H18Y 3527   2.800   0.316   8.677 -0.7235  1.3350  0.3595
   26SAPC  H18Z 3528   2.899   0.287   8.521  1.4457  1.6737 -0.7010
   27SAPC     N 3529   1.210   0.389   6.292  0.3156 -0.3368  0.3077
   27SAPC   C12 3530   1.151   0.246   6.292  0.2810 -1.6404  0.2932
   27SAPC  H12A 3531   1.087   0.242   6.205 -0.5959  1.6278  0.6469
   27SAPC  H12B 3532   1.084   0.236   6.377 -0.8125  0.0790 -0.3131
   27SAPC   C13 3533   1.092   0.485   6.285  0.1539 -0.6147 -0.0851
   27SAPC  H13A 3534   1.022   0.459   6.363  1.5642 -2.7939  0.5742
   27SAPC  H13B 3535   1.132   0.583   6.305 -1.1985  0.5733 -2.7710
   27SAPC  H13C 3536   1.033   0.481   6.194 -1.1954  1.7436  0.6249
   27SAPC   C14 3537   1.306   0.429   6.407 -0.4096 -0.4176 -0.2781
   27SAPC  H14A 3538   1.246   0.422   6.497 -1.9453 -0.5754 -1.2746
   27SAPC  H14B 3539   1.385   0.357   6.422  0.5175  0.9309  2.0303
   27SAPC  H14C 3540   1.354   0.526   6.410  2.6198 -1.7891  2.6548
   27SAPC   C15 3541   1.270   0.414   6.159  0.0710 -0.1657  0.5875
   27SAPC  H15A 3542   1.367   0.368   6.147  1.4917  2.1610  2.2980
   27SAPC  H15B 3543   1.216   0.384   6.070  0.1964  2.9371 -0.6859
   27SAPC  H15C 3544   1.281   0.521   6.146 -1.5168 -0.1218 -0.7555
   27SAPC   C11 3545   1.246   0.130   6.296 -0.6974 -0.2350  0.5479
   27SAPC  H11A 3546   1.316   0.146   6.211 -0.5656 -0.9531  0.5170
   27SAPC  H11B 3547   1.191   0.036   6.272 -1.7694 -0.2236  2.6555
   27SAPC     P 3548   1.266   0.072   6.549 -0.0373  0.4628 -0.0179
   27SAPC   O13 3549   1.323  -0.064   6.565  0.0666 -0.3463  0.2437
   27SAPC   O14 3550   1.299   0.174   6.648  0.0942 -0.6606  0.1697
   27SAPC   O12 3551   1.330   0.125   6.414  0.3340  0.0214 -0.1064
   27SAPC   O11 3552   1.104   0.070   6.536 -0.4619  0.2823  0.2586
   27SAPC    C1 3553   1.031  -0.047   6.578  0.1416  0.5373  0.5844
   27SAPC    HA 3554   0.969  -0.070   6.489  1.7725 -0.0064 -0.4791
   27SAPC    HB 3555   1.096  -0.135   6.596  1.0674  1.2072  0.5954
   27SAPC    C2 3556   0.941  -0.020   6.703 -0.1021  0.0810  0.3152
   27SAPC    HS 3557   0.884   0.073   6.684  2.3469  1.3691 -1.2463
   27SAPC   O21 3558   1.030  -0.015   6.808 -0.0121  0.0660  0.1277
   27SAPC   C21 3559   1.027   0.093   6.878  0.0446  0.8978  0.5423
   27SAPC   O22 3560   0.963   0.190   6.845 -0.3267  0.5924 -0.0882
   27SAPC   C22 3561   1.121   0.080   7.000  0.3341  0.1190  0.8233
   27SAPC   H2R 3562   1.070   0.038   7.089  2.7676 -2.0488  1.3269
   27SAPC   H2S 3563   1.203   0.012   6.970 -0.3762  0.3150 -1.8485
   27SAPC    C3 3564   0.843  -0.143   6.743  0.0473  0.4996 -0.4317
   27SAPC    HX 3565   0.906  -0.233   6.758 -2.0052 -0.5286  2.8600
   27SAPC    HY 3566   0.771  -0.169   6.663 -0.2932 -3.7362  1.0391
   27SAPC   O31 3567   0.774  -0.106   6.861 -0.2383  0.2460 -0.5215
   27SAPC   C31 3568   0.715  -0.205   6.922 -0.1887  0.0391 -0.8839
   27SAPC   O32 3569   0.708  -0.317   6.879  0.6052 -0.0850 -0.6185
   27SAPC   C32 3570   0.662  -0.171   7.065 -0.7378  0.0727 -0.0079
   27SAPC   H2X 3571   0.559  -0.132   7.050 -1.4303 -1.3666  0.7950
   27SAPC   H2Y 3572   0.733  -0.094   7.103  1.8684 -1.9749 -0.4330
   27SAPC   C23 3573   1.184   0.216   7.034 -0.4757 -0.3557 -0.6984
   27SAPC   H3R 3574   1.110   0.297   7.024 -0.6969 -0.1625  1.7915
   27SAPC   H3S 3575   1.254   0.239   6.951 -0.0801  1.1621  0.0304
   27SAPC   C24 3576   1.265   0.201   7.172  0.3548  0.3510  0.6154
   27SAPC   H4R 3577   1.281   0.098   7.210 -0.2926  0.7657  2.0760
   27SAPC   H4S 3578   1.198   0.242   7.251 -2.1821 -1.2928 -0.5264
   27SAPC   C25 3579   1.401   0.280   7.156  0.3457  0.6650 -0.3194
   27SAPC   H5R 3580   1.463   0.272   7.066 -0.0649  0.2180 -0.5735
   27SAPC   C26 3581   1.449   0.368   7.253 -0.1223 -0.1605  0.6261
   27SAPC   H6R 3582   1.541   0.426   7.237 -0.9836  2.0340  2.9084
   27SAPC   C27 3583   1.396   0.386   7.387  0.1804 -0.3146 -0.0677
   27SAPC   H7R 3584   1.336   0.299   7.422 -0.2388  0.1106  0.3034
   27SAPC   H7S 3585   1.328   0.474   7.384 -0.6513 -0.9125  0.5192
   27SAPC   C28 3586   1.499   0.404   7.496  0.8080 -0.1439 -0.1445
   27SAPC   H8R 3587   1.598   0.436   7.460 -0.6099  1.9548 -2.5188
   27SAPC   C29 3588   1.473   0.383   7.627 -0.6920  0.4996  0.7134
   27SAPC   H9R 3589   1.562   0.383   7.692 -0.5111  2.3904  0.5360
   27SAPC  C210 3590   1.347   0.329   7.688 -0.6244 -0.8590  0.5505
   27SAPC  H10R 3591   1.359   0.224   7.723  1.6918 -1.0490 -0.5978
   27SAPC  H10S 3592   1.265   0.324   7.614  1.1666 -1.5878 -1.5227
   27SAPC  C211 3593   1.294   0.412   7.797  0.0552  0.0152  0.0515
   27SAPC  H11R 3594   1.227   0.494   7.768  0.4368  1.2603  2.4141
   27SAPC  C212 3595   1.334   0.402   7.921  0.4330 -0.8886  0.1007
   27SAPC  H12R 3596   1.307   0.469   8.004 -0.3609 -0.5762 -0.4017
   27SAPC  C213 3597   1.437   0.308   7.977 -0.1237  0.0718  0.0010
   27SAPC  H13R 3598   1.515   0.285   7.901 -2.6056 -1.9730 -2.1375
   27SAPC  H13S 3599   1.387   0.210   7.991 -2.5365  1.5896  3.1559
   27SAPC  C214 3600   1.485   0.350   8.111  0.7740 -0.7342  0.3625
   27SAPC  H14R 3601   1.486   0.265   8.181  0.4788 -0.3615  0.8175
   27SAPC  C215 3602   1.531   0.473   8.146 -0.1919  0.4597  0.1845
   27SAPC  H15R 3603   1.556   0.480   8.253 -0.0260  2.2057  0.0569
   27SAPC  C216 3604   1.546   0.597   8.062  0.8151 -0.1631  0.0281
   27SAPC  H16R 3605   1.453   0.658   8.069 -1.2189 -3.1100  0.2110
   27SAPC  H16S 3606   1.565   0.572   7.955  1.0670  3.0215 -0.7835
   27SAPC  C217 3607   1.669   0.676   8.097  0.0450 -0.0546  1.2909
   27SAPC  H17R 3608   1.669   0.759   8.023 -0.1877  0.6998  2.1136
   27SAPC  H17S 3609   1.763   0.618   8.091  0.3093  0.5663 -2.5937
   27SAPC  C218 3610   1.666   0.758   8.230  0.2300 -0.1801 -0.4035
   27SAPC  H18R 3611   1.651   0.686   8.314 -2.1134  0.9502  0.2390
   27SAPC  H18S 3612   1.591   0.840   8.232 -1.9164 -1.9987 -1.3124
   27SAPC  C219 3613   1.801   0.826   8.256 -0.3710 -0.7071 -0.2748
   27SAPC  H19R 3614   1.880   0.749   8.268  0.3503 -0.1355 -1.2223
   27SAPC  H19S 3615   1.785   0.889   8.346  0.0368  0.1931 -0.8174
   27SAPC  C220 3616   1.850   0.917   8.144  0.0850 -0.0832  0.1170
   27SAPC  H20R 3617   1.877   0.851   8.058  2.1615 -0.4905  1.0449
   27SAPC  H20S 3618   1.939   0.978   8.168  0.5442 -0.7002  0.0045
   27SAPC  H20T 3619   1.779   1.000   8.123  0.0742  0.2050  1.2464
   27SAPC   C33 3620   0.640  -0.295   7.154 -0.2710 -0.3526  0.5474
   27SAPC   H3X 3621   0.722  -0.370   7.151  0.5030  0.5062 -0.4516
   27SAPC   H3Y 3622   0.550  -0.346   7.115 -0.6721 -0.3388  1.4230
   27SAPC   C34 3623   0.624  -0.259   7.303  0.9459 -0.2413 -0.1483
   27SAPC   H4X 3624   0.718  -0.230   7.355  0.8649 -0.6197  0.2180
   27SAPC   H4Y 3625   0.597  -0.358   7.347  2.3434 -1.3039 -1.5462
   27SAPC   C35 3626   0.512  -0.149   7.330 -0.5360 -0.3894  0.7943
   27SAPC   H5X 3627   0.428  -0.179   7.263 -3.1265 -0.4908  3.8802
   27SAPC   H5Y 3628   0.541  -0.043   7.312 -2.3351  0.0121  0.0495
   27SAPC   C36 3629   0.452  -0.159   7.472 -0.1616  1.0777 -0.0260
   27SAPC   H6X 3630   0.414  -0.260   7.498  0.2348  0.3530 -2.0487
   27SAPC   H6Y 3631   0.365  -0.090   7.471 -0.0247  1.2503 -0.4881
   27SAPC   C37 3632   0.549  -0.113   7.584 -0.3811  0.5430  0.1264
   27SAPC   H7X 3633   0.583  -0.011   7.553  0.6354  0.5477  1.1381
   27SAPC   H7Y 3634   0.633  -0.185   7.584 -1.0652 -0.3222 -2.1346
   27SAPC   C38 3635   0.492  -0.113   7.725  0.3151 -0.0552 -0.5209
   27SAPC   H8X 3636   0.381  -0.111   7.721  0.2729 -1.8082 -1.6310
   27SAPC   H8Y 3637   0.522  -0.017   7.771  0.3193 -1.6386  3.1245
   27SAPC   C39 3638   0.534  -0.239   7.804 -0.0227  0.5114  0.2399
   27SAPC   H9X 3639   0.645  -0.237   7.814  0.0384 -0.1887 -0.1943
   27SAPC   H9Y 3640   0.502  -0.334   7.755  0.0341 -0.2946  1.6907
   27SAPC  C310 3641   0.477  -0.242   7.950 -0.3121  0.2840 -0.7461
   27SAPC  H10X 3642   0.376  -0.287   7.941 -1.0170  1.0569  2.3168
   27SAPC  H10Y 3643   0.458  -0.140   7.990 -1.9814 -0.9980  1.9935
   27SAPC  C311 3644   0.568  -0.331   8.038 -0.2943 -0.3826  0.0413
   27SAPC  H11X 3645   0.586  -0.427   7.985 -0.1834 -0.1673 -0.3198
   27SAPC  H11Y 3646   0.503  -0.359   8.123 -1.6705 -0.2614 -0.9313
   27SAPC  C312 3647   0.700  -0.268   8.078 -0.6791  0.4055  0.0728
   27SAPC  H12X 3648   0.675  -0.162   8.100  1.0840  0.5978  1.3612
   27SAPC  H12Y 3649   0.763  -0.272   7.986  1.2754 -1.0895  1.3882
   27SAPC  C313 3650   0.788  -0.346   8.171 -0.1852 -0.2793 -0.3004
   27SAPC  H13X 3651   0.892  -0.325   8.139 -0.0958 -0.1400  0.0886
   27SAPC  H13Y 3652   0.779  -0.455   8.152 -1.4640 -0.4553  1.1735
   27SAPC  C314 3653   0.774  -0.308   8.322 -0.0453  0.3802  0.3662
   27SAPC  H14X 3654   0.670  -0.328   8.354 -0.7498 -0.8374 -2.3587
   27SAPC  H14Y 3655   0.806  -0.202   8.329  3.1563 -0.4236 -0.3336
   27SAPC  C315 3656   0.869  -0.369   8.426  0.0985 -0.4064 -0.2693
   27SAPC  H15X 3657   0.976  -0.366   8.394 -0.0338 -1.4900 -0.8739
   27SAPC  H15Y 3658   0.830  -0.473   8.431  1.5973 -0.9294  2.0975
   27SAPC  C316 3659   0.843  -0.287   8.555 -0.5032  0.7783 -1.0045
   27SAPC  H16X 3660   0.733  -0.275   8.566 -1.1080 -1.6984 -3.1130
   27SAPC  H16Y 3661   0.887  -0.186   8.545 -1.0583  1.2686  1.0954
   27SAPC  C317 3662   0.905  -0.360   8.686 -0.8837 -0.7345 -0.3105
   27SAPC  H17X 3663   0.908  -0.286   8.769  0.6550  1.6520 -2.3281
   27SAPC  H17Y 3664   1.005  -0.392   8.649 -1.7631 -1.3133 -2.3129
   27SAPC  C318 3665   0.829  -0.487   8.720  0.1295 -0.6689 -0.2498
   27SAPC  H18X 3666   0.723  -0.456   8.734  0.2579 -0.5952  0.5709
   27SAPC  H18Y 3667   0.879  -0.536   8.806  1.3043 -0.9218 -1.0653
   27SAPC  H18Z 3668   0.833  -0.571   8.647  0.3856 -2.6303  1.9015
   28SAPC     N 3669   6.083   6.275   6.309 -0.4131 -0.6193  0.0000
   28SAPC   C12 3670   6.176   6.391   6.287  0.4208  0.2063 -0.2868
   28SAPC  H12A 3671   6.218   6.396   6.188  3.2218 -0.2318  0.7961
   28SAPC  H12B 3672   6.267   6.387   6.345  1.4734  0.3464 -1.8623
   28SAPC   C13 3673   6.033   6.268   6.457 -0.5005  0.1186  0.1288
   28SAPC  H13A 3674   5.989   6.364   6.480  1.9017  1.4241 -0.3265
   28SAPC  H13B 3675   5.954   6.195   6.466  0.3492 -0.6882  1.4921
   28SAPC  H13C 3676   6.109   6.250   6.532  2.7201  2.0350 -2.4028
   28SAPC   C14 3677   5.969   6.284   6.213 -0.4081  0.5635  0.3130
   28SAPC  H14A 3678   6.005   6.268   6.112 -0.8801  0.4285  0.1608
   28SAPC  H14B 3679   5.890   6.213   6.235 -0.8510  0.4054 -1.5892
   28SAPC  H14C 3680   5.927   6.383   6.211  0.9285  1.1425 -0.9409
   28SAPC   C15 3681   6.157   6.151   6.278  0.0859  0.9815  0.1635
   28SAPC  H15A 3682   6.186   6.151   6.174 -1.4196  1.7267 -0.2913
   28SAPC  H15B 3683   6.243   6.138   6.342  0.2174  0.2603 -0.1438
   28SAPC  H15C 3684   6.103   6.059   6.293  0.0235  0.9028 -0.4981
   28SAPC   C11 3685   6.113   6.529   6.314  0.4681  0.3457 -0.4332
   28SAPC  H11A 3686   6.192   6.607   6.313 -0.3053  1.1519 -0.7381
   28SAPC  H11B 3687   6.051   6.519   6.406  0.5759 -1.1618 -0.4982
   28SAPC     P 3688   5.946   6.704   6.243 -0.2435 -0.2686  0.2825
   28SAPC   O13 3689   6.043   6.808   6.288 -0.0992  0.7222  0.0085
   28SAPC   O14 3690   5.866   6.739   6.126  0.7006  0.3407 -0.1332
   28SAPC   O12 3691   6.021   6.571   6.209 -0.6868  0.1468 -0.1701
   28SAPC   O11 3692   5.852   6.664   6.365 -0.3262  0.0447 -0.1518
   28SAPC    C1 3693   5.781   6.540   6.382 -0.1827 -0.7095  0.1950
   28SAPC    HA 3694   5.717   6.512   6.295 -0.9875 -0.6452  0.7485
   28SAPC    HB 3695   5.859   6.462   6.392  0.5376 -0.3926 -2.2175
   28SAPC    C2 3696   5.685   6.537   6.508 -0.7550  0.2281 -0.0617
   28SAPC    HS 3697   5.601   6.607   6.490 -1.8291 -0.0627  3.1971
   28SAPC   O21 3698   5.755   6.573   6.627  0.3145  0.2418 -0.1714
   28SAPC   C21 3699   5.755   6.702   6.655 -0.3874  0.4558  0.6939
   28SAPC   O22 3700   5.679   6.783   6.607 -0.0763  0.1216 -0.0938
   28SAPC   C22 3701   5.862   6.732   6.759 -0.4761  0.7229  0.0686
   28SAPC   H2R 3702   5.863   6.650   6.835  1.3749 -1.0520 -1.7540
   28SAPC   H2S 3703   5.966   6.743   6.723 -0.9960  1.2328 -1.3602
   28SAPC    C3 3704   5.626   6.403   6.524 -0.2300 -0.0434 -0.5002
   28SAPC    HX 3705   5.580   6.356   6.434 -0.4557 -2.1247  0.6411
   28SAPC    HY 3706   5.536   6.415   6.587 -0.6476  1.7609 -1.3907
   28SAPC   O31 3707   5.727   6.302   6.557  0.2665  0.5152  0.1076
   28SAPC   C31 3708   5.717   6.266   6.690 -0.3578 -0.6693  0.5582
   28SAPC   O32 3709   5.659   6.331   6.772 -0.8407 -0.0570  0.8135
   28SAPC   C32 3710   5.816   6.149   6.718  0.9700  0.6813  0.5751
   28SAPC   H2X 3711   5.916   6.188   6.691 -0.4948  2.6080 -2.5360
   28SAPC   H2Y 3712   5.796   6.066   6.646 -1.1906  1.4260  0.2557
   28SAPC   C23 3713   5.837   6.860   6.834  0.1337  0.5535  0.2908
   28SAPC   H3R 3714   5.733   6.868   6.871  0.0010  0.3183 -0.0214
   28SAPC   H3S 3715   5.854   6.937   6.755  2.8604  0.4466  0.6612
   28SAPC   C24 3716   5.934   6.905   6.950 -0.6197  0.1612 -0.0277
   28SAPC   H4R 3717   5.898   6.996   7.003 -0.6684 -0.6739  1.4155
   28SAPC   H4S 3718   5.933   6.828   7.029 -0.9786 -0.4057 -0.5731
   28SAPC   C25 3719   6.074   6.931   6.901 -0.1179 -0.3222  0.0983
   28SAPC   H5R 3720   6.089   6.912   6.794  0.7543  1.2600 -0.0968
   28SAPC   C26 3721   6.182   6.971   6.968  0.3618  0.6110  0.2539
   28SAPC   H6R 3722   6.273   7.000   6.914  0.6301  1.5805  1.1775
   28SAPC   C27 3723   6.193   7.010   7.112  0.3919 -0.3163 -0.3280
   28SAPC   H7R 3724   6.277   6.951   7.154  1.1011 -1.1471 -2.7549
   28SAPC   H7S 3725   6.096   6.976   7.154 -0.3911  0.3660 -1.5238
   28SAPC   C28 3726   6.230   7.154   7.118  0.6847  0.4520  0.4757
   28SAPC   H8R 3727   6.262   7.204   7.025  0.9177 -0.8127 -0.1392
   28SAPC   C29 3728   6.209   7.219   7.230  0.4598  0.3911  0.1101
   28SAPC   H9R 3729   6.229   7.327   7.235 -1.2308  0.7965 -1.2623
   28SAPC  C210 3730   6.161   7.181   7.362 -0.1035 -0.1467  1.1958
   28SAPC  H10R 3731   6.249   7.191   7.429 -0.7123  0.5573  1.9208
   28SAPC  H10S 3732   6.126   7.075   7.361 -1.2729  0.2246  1.1989
   28SAPC  C211 3733   6.056   7.282   7.398  0.3617 -0.0978 -0.0688
   28SAPC  H11R 3734   5.952   7.265   7.367  0.0314  2.5710 -0.6813
   28SAPC  C212 3735   6.073   7.379   7.498 -0.2844 -0.3251 -0.0967
   28SAPC  H12R 3736   5.984   7.439   7.517  0.2665  0.7379 -0.7783
   28SAPC  C213 3737   6.191   7.418   7.587 -0.2260 -0.0413  1.0911
   28SAPC  H13R 3738   6.197   7.529   7.585 -0.0236 -0.0630 -0.3852
   28SAPC  H13S 3739   6.290   7.382   7.550  1.2000  1.3110  3.3533
   28SAPC  C214 3740   6.173   7.374   7.729 -0.0912 -0.2321 -0.1824
   28SAPC  H14R 3741   6.154   7.265   7.727 -2.8388  0.1608 -2.8073
   28SAPC  C215 3742   6.203   7.441   7.835 -0.2097 -0.8405 -0.1518
   28SAPC  H15R 3743   6.181   7.399   7.934 -3.0976  2.1535  0.6100
   28SAPC  C216 3744   6.258   7.585   7.841 -0.0802  0.1180  0.0023
   28SAPC  H16R 3745   6.172   7.655   7.848 -1.0904 -0.5940 -3.5393
   28SAPC  H16S 3746   6.306   7.620   7.748 -0.9862 -1.1345 -0.9693
   28SAPC  C217 3747   6.357   7.600   7.962 -0.3528  0.1856  0.0489
   28SAPC  H17R 3748   6.451   7.543   7.948 -0.7099 -0.6089  0.8328
   28SAPC  H17S 3749   6.308   7.544   8.044 -3.4104 -0.2414 -1.9194
   28SAPC  C218 3750   6.384   7.753   8.006  0.0400  0.0617  0.1865
   28SAPC  H18R 3751   6.295   7.810   7.971  0.4488  0.2700 -0.5226
   28SAPC  H18S 3752   6.479   7.782   7.956 -0.5898  1.4512 -0.2559
   28SAPC  C219 3753   6.395   7.757   8.160  1.1749 -0.4536 -0.9119
   28SAPC  H19R 3754   6.465   7.675   8.188  2.3956 -0.1601 -2.9388
   28SAPC  H19S 3755   6.298   7.732   8.207  0.9969  0.4792 -0.7581
   28SAPC  C220 3756   6.440   7.882   8.225 -0.7502 -0.4912 -0.1924
   28SAPC  H20R 3757   6.376   7.966   8.190  1.5336  1.4787  0.0214
   28SAPC  H20S 3758   6.546   7.903   8.199 -1.8056  1.6847 -3.3495
   28SAPC  H20T 3759   6.432   7.861   8.333 -1.1163 -3.6957 -0.7583
   28SAPC   C33 3760   5.805   6.098   6.865 -0.0299  0.0362 -0.2838
   28SAPC   H3X 3761   5.701   6.072   6.892 -0.4490  0.6676 -1.2095
   28SAPC   H3Y 3762   5.819   6.188   6.930 -0.5250 -1.4427  1.9847
   28SAPC   C34 3763   5.905   5.983   6.912  0.4020 -0.5573 -0.4137
   28SAPC   H4X 3764   6.006   6.015   6.879  0.3588  1.1943  0.9893
   28SAPC   H4Y 3765   5.879   5.893   6.852  0.9532  1.0195 -3.1618
   28SAPC   C35 3766   5.913   5.947   7.064 -0.2334 -0.2575 -0.4727
   28SAPC   H5X 3767   5.976   6.025   7.111  2.5148 -1.1517 -2.4537
   28SAPC   H5Y 3768   5.958   5.846   7.067  1.7425  0.5595 -1.3288
   28SAPC   C36 3769   5.775   5.952   7.134 -0.5222  0.1124  0.5032
   28SAPC   H6X 3770   5.706   5.878   7.087  0.5022 -0.2664 -0.4504
   28SAPC   H6Y 3771   5.729   6.052   7.119  0.2986  0.5288  0.7033
   28SAPC   C37 3772   5.792   5.910   7.281  0.5866 -0.1902  0.2337
   28SAPC   H7X 3773   5.851   5.984   7.340 -1.4676  1.6270  0.1422
   28SAPC   H7Y 3774   5.830   5.807   7.296 -0.2685 -0.7209 -1.0180
   28SAPC   C38 3775   5.652   5.909   7.349  0.5269  0.3801 -0.7053
   28SAPC   H8X 3776   5.579   5.864   7.278  1.0866 -0.8067 -0.5462
   28SAPC   H8Y 3777   5.612   6.009   7.374 -0.4114 -0.1932  0.1359
   28SAPC   C39 3778   5.668   5.826   7.482 -0.5643  0.6661  0.5541
   28SAPC   H9X 3779   5.746   5.864   7.551  1.4985 -0.4858 -1.0139
   28SAPC   H9Y 3780   5.691   5.721   7.453  1.4752  0.8509  1.3830
   28SAPC  C310 3781   5.536   5.826   7.566  0.0218 -0.5535  0.6408
   28SAPC  H10X 3782   5.444   5.803   7.508  0.5302 -0.8990 -0.0280
   28SAPC  H10Y 3783   5.527   5.925   7.615  1.0954  0.4140 -1.0270
   28SAPC  C311 3784   5.547   5.736   7.691  0.2383  1.0090 -0.3819
   28SAPC  H11X 3785   5.640   5.763   7.746 -0.1825  3.1860 -0.6602
   28SAPC  H11Y 3786   5.549   5.627   7.666  1.1714  1.1163 -0.8248
   28SAPC  C312 3787   5.428   5.759   7.783 -0.4220  0.0964  0.0408
   28SAPC  H12X 3788   5.340   5.766   7.715 -1.5401  0.0740  1.4443
   28SAPC  H12Y 3789   5.445   5.856   7.835 -1.8306  0.5248 -0.2394
   28SAPC  C313 3790   5.398   5.641   7.871  0.0433  0.0190 -0.1200
   28SAPC  H13X 3791   5.491   5.620   7.928 -0.3613  0.6702  0.7903
   28SAPC  H13Y 3792   5.374   5.554   7.807 -2.4647  1.7713 -1.7295
   28SAPC  C314 3793   5.283   5.673   7.962  0.1787 -0.3711 -0.0145
   28SAPC  H14X 3794   5.248   5.581   8.014  0.2530 -0.5847 -0.3423
   28SAPC  H14Y 3795   5.188   5.705   7.915  0.2874  1.0669  0.6843
   28SAPC  C315 3796   5.320   5.775   8.074  0.2668  0.0768 -0.3652
   28SAPC  H15X 3797   5.359   5.873   8.038  0.6349  0.0244 -0.1194
   28SAPC  H15Y 3798   5.403   5.734   8.135 -1.9472 -0.0404  2.7995
   28SAPC  C316 3799   5.201   5.797   8.166  0.1492 -0.1569  0.2625
   28SAPC  H16X 3800   5.140   5.704   8.163 -0.6545  0.3553 -2.9733
   28SAPC  H16Y 3801   5.131   5.873   8.125 -1.5080 -1.5398  0.3991
   28SAPC  C317 3802   5.251   5.832   8.305  0.3511  0.6867  0.3709
   28SAPC  H17X 3803   5.304   5.929   8.296  2.3920 -0.4153 -0.0480
   28SAPC  H17Y 3804   5.316   5.748   8.339  0.1819  0.0641 -0.7857
   28SAPC  C318 3805   5.152   5.847   8.413 -0.9670 -0.1748  0.2918
   28SAPC  H18X 3806   5.225   5.857   8.496 -0.1300  0.7284 -0.5244
   28SAPC  H18Y 3807   5.092   5.755   8.428 -1.9566  0.2890 -0.6433
   28SAPC  H18Z 3808   5.101   5.946   8.412  3.4294  2.3804 -0.1905
   29SAPC     N 3809   4.360   2.527   5.896  0.2373  0.1317  0.8348
   29SAPC   C12 3810   4.440   2.435   5.988  0.4117 -0.3903 -0.0019
   29SAPC  H12A 3811   4.497   2.371   5.923 -1.1543  1.1991 -3.1374
   29SAPC  H12B 3812   4.365   2.374   6.037 -1.0770  0.1559 -1.4986
   29SAPC   C13 3813   4.274   2.630   5.971 -0.0929  0.4266  0.1188
   29SAPC  H13A 3814   4.199   2.676   5.909 -0.1276  0.3602  0.1110
   29SAPC  H13B 3815   4.233   2.582   6.059  1.0731 -1.8709 -0.5156
   29SAPC  H13C 3816   4.339   2.709   6.006  1.1078 -0.2473 -0.5219
   29SAPC   C14 3817   4.453   2.609   5.818 -0.6376  0.0120  0.3946
   29SAPC  H14A 3818   4.516   2.550   5.753 -0.9219  2.4422 -2.2530
   29SAPC  H14B 3819   4.398   2.671   5.750 -2.0890 -2.0737 -0.4399
   29SAPC  H14C 3820   4.520   2.663   5.883 -1.5046 -0.1838  1.4794
   29SAPC   C15 3821   4.270   2.466   5.797  0.1704  0.2453 -0.3066
   29SAPC  H15A 3822   4.233   2.536   5.724 -0.2586 -0.7040 -1.0308
   29SAPC  H15B 3823   4.303   2.375   5.748 -1.5323 -1.0591  0.8496
   29SAPC  H15C 3824   4.182   2.438   5.854  1.6425  0.8406  2.4245
   29SAPC   C11 3825   4.542   2.483   6.104 -0.9527  0.8274 -0.4249
   29SAPC  H11A 3826   4.619   2.404   6.108  0.6894  2.4151  0.5556
   29SAPC  H11B 3827   4.486   2.496   6.199 -3.6065 -3.8648 -1.0151
   29SAPC     P 3828   4.751   2.636   6.126 -0.1972 -0.1819  0.0679
   29SAPC   O13 3829   4.834   2.516   6.102 -0.1318  0.1952 -0.5011
   29SAPC   O14 3830   4.800   2.758   6.064 -0.4827 -0.4643 -0.1596
   29SAPC   O12 3831   4.613   2.601   6.070  0.2257 -0.6358  0.4343
   29SAPC   O11 3832   4.722   2.664   6.280 -0.5451 -0.2835  0.1864
   29SAPC    C1 3833   4.766   2.566   6.379 -0.5896  0.1889  0.1020
   29SAPC    HA 3834   4.721   2.468   6.354  3.1357 -1.6682 -0.0740
   29SAPC    HB 3835   4.877   2.561   6.373 -0.4667 -0.3419  2.0036
   29SAPC    C2 3836   4.708   2.612   6.518 -0.2583  0.0285  0.2241
   29SAPC    HS 3837   4.604   2.641   6.492 -0.1553 -0.9814 -1.5008
   29SAPC   O21 3838   4.776   2.726   6.573 -0.1873  0.0321  0.2953
   29SAPC   C21 3839   4.699   2.816   6.638 -0.1157  0.0349  0.3816
   29SAPC   O22 3840   4.582   2.805   6.667  0.2339  1.3210 -0.2141
   29SAPC   C22 3841   4.790   2.916   6.703  0.7974 -0.0082  0.1535
   29SAPC   H2R 3842   4.881   2.938   6.643  1.3636 -1.0966  0.5906
   29SAPC   H2S 3843   4.743   3.015   6.688 -0.5190 -0.7038 -0.5077
   29SAPC    C3 3844   4.707   2.498   6.626  0.4269 -0.1855 -0.0889
   29SAPC    HX 3845   4.817   2.483   6.639  0.3629 -0.2949  0.3340
   29SAPC    HY 3846   4.660   2.407   6.584 -0.2061 -0.3821  1.0309
   29SAPC   O31 3847   4.653   2.540   6.756  0.3397 -0.7118 -0.1336
   29SAPC   C31 3848   4.523   2.529   6.762  0.1749  0.5463  0.4985
   29SAPC   O32 3849   4.452   2.468   6.680 -0.1154 -0.0594  0.2220
   29SAPC   C32 3850   4.477   2.582   6.896  0.3037 -0.2714  0.1619
   29SAPC   H2X 3851   4.368   2.562   6.897  0.0180  0.7180 -2.4736
   29SAPC   H2Y 3852   4.488   2.693   6.903 -1.3184 -0.1620  1.5567
   29SAPC   C23 3853   4.811   2.896   6.856  0.6168  0.1533  1.0237
   29SAPC   H3R 3854   4.900   2.837   6.887  3.0184  2.3073 -1.3216
   29SAPC   H3S 3855   4.718   2.842   6.888  0.8254 -0.6223  0.3532
   29SAPC   C24 3856   4.813   3.037   6.928  0.9279  0.4893 -0.2226
   29SAPC   H4R 3857   4.788   3.023   7.035 -0.8065 -2.9646 -0.9559
   29SAPC   H4S 3858   4.731   3.096   6.880  2.6568  1.1050 -2.5929
   29SAPC   C25 3859   4.942   3.105   6.895 -0.3798 -0.4443 -0.1222
   29SAPC   H5R 3860   4.984   3.089   6.794  2.5366  1.8638  0.5747
   29SAPC   C26 3861   5.033   3.169   6.977 -0.2184  0.1989  0.0113
   29SAPC   H6R 3862   5.126   3.210   6.935 -0.5861  0.8116 -0.2102
   29SAPC   C27 3863   5.013   3.197   7.124 -1.0807 -0.3329 -0.1007
   29SAPC   H7R 3864   4.913   3.239   7.149 -1.3629 -0.0589 -1.5890
   29SAPC   H7S 3865   5.079   3.274   7.168 -2.5671  0.2169  1.2723
   29SAPC   C28 3866   5.050   3.084   7.211  0.1919  0.1976 -0.2308
   29SAPC   H8R 3867   5.111   3.007   7.161 -0.0676  0.0479 -0.3200
   29SAPC   C29 3868   5.035   3.070   7.341  0.8650 -0.2901 -0.2438
   29SAPC   H9R 3869   5.070   2.978   7.392  1.3578 -1.5339 -2.6617
   29SAPC  C210 3870   4.953   3.156   7.442  0.3495  0.0533 -0.0738
   29SAPC  H10R 3871   4.947   3.258   7.398  3.1704  0.4628  0.2886
   29SAPC  H10S 3872   5.021   3.166   7.529 -0.2718 -0.0796  0.4293
   29SAPC  C211 3873   4.824   3.097   7.485 -0.0869  0.4786  0.4852
   29SAPC  H11R 3874   4.777   3.041   7.403  2.5450 -1.4647  0.1573
   29SAPC  C212 3875   4.770   3.107   7.606 -0.4583  0.1999 -0.4852
   29SAPC  H12R 3876   4.679   3.051   7.633 -0.1721  0.0477  0.1859
   29SAPC  C213 3877   4.844   3.164   7.728 -0.0273  0.1311  0.3665
   29SAPC  H13R 3878   4.800   3.265   7.743 -0.4638 -0.1752  1.2132
   29SAPC  H13S 3879   4.952   3.172   7.706 -0.4953  1.9715 -1.6731
   29SAPC  C214 3880   4.816   3.082   7.855 -0.2495  1.0275  0.4283
   29SAPC  H14R 3881   4.805   2.975   7.832 -0.4624  1.4093 -1.3832
   29SAPC  C215 3882   4.807   3.129   7.977  0.1150  0.0760 -0.6523
   29SAPC  H15R 3883   4.797   3.060   8.062 -3.3115 -0.8271 -1.6511
   29SAPC  C216 3884   4.815   3.270   8.019 -0.9762 -0.2207  0.1447
   29SAPC  H16R 3885   4.731   3.323   7.970 -1.7944 -0.4030  1.3012
   29SAPC  H16S 3886   4.914   3.310   7.990 -1.0199  0.3189  0.7160
   29SAPC  C217 3887   4.793   3.290   8.168 -0.9829 -0.6721 -0.4386
   29SAPC  H17R 3888   4.874   3.235   8.220 -0.1152  0.6228 -0.3791
   29SAPC  H17S 3889   4.694   3.255   8.205 -1.5764  1.4861  0.1608
   29SAPC  C218 3890   4.831   3.438   8.206 -0.1981 -0.3231 -0.4339
   29SAPC  H18R 3891   4.759   3.508   8.157 -1.4925 -1.9326 -0.9118
   29SAPC  H18S 3892   4.936   3.464   8.182  0.3622  0.2422  2.2949
   29SAPC  C219 3893   4.819   3.483   8.354 -0.0807 -0.6434  0.7666
   29SAPC  H19R 3894   4.709   3.486   8.368 -0.3144  0.0116 -0.9473
   29SAPC  H19S 3895   4.857   3.588   8.356  0.5571 -0.8645  2.4142
   29SAPC  C220 3896   4.892   3.405   8.451  0.6961  0.6203 -0.1521
   29SAPC  H20R 3897   4.881   3.451   8.551  0.1796 -1.5243  0.8486
   29SAPC  H20S 3898   5.000   3.396   8.423  0.0936  1.5423 -3.1724
   29SAPC  H20T 3899   4.857   3.301   8.468  1.7869 -0.2061 -2.4603
   29SAPC   C33 3900   4.564   2.530   7.012  0.5282 -0.2771 -0.3306
   29SAPC   H3X 3901   4.668   2.535   6.975  0.5011 -2.1472 -0.7312
   29SAPC   H3Y 3902   4.526   2.427   7.029 -0.5459 -0.1630 -1.8094
   29SAPC   C34 3903   4.537   2.609   7.136 -1.2650  0.0346 -0.4656
   29SAPC   H4X 3904   4.580   2.557   7.225  2.1848 -0.4944 -2.3025
   29SAPC   H4Y 3905   4.430   2.632   7.158 -1.6217 -0.3011 -1.7866
   29SAPC   C35 3906   4.615   2.752   7.149 -0.2916  0.7428 -0.2314
   29SAPC   H5X 3907   4.573   2.817   7.069 -3.0742  2.4534  2.3547
   29SAPC   H5Y 3908   4.723   2.735   7.136 -0.3545  0.6328 -0.6021
   29SAPC   C36 3909   4.585   2.823   7.281 -0.4578  0.5664  0.1715
   29SAPC   H6X 3910   4.477   2.835   7.302  0.0021  3.1002  1.5494
   29SAPC   H6Y 3911   4.614   2.930   7.281  0.5105  0.3135 -0.3652
   29SAPC   C37 3912   4.659   2.766   7.404 -0.1319  0.1194  0.0611
   29SAPC   H7X 3913   4.764   2.796   7.423  0.6157 -1.7826 -0.8448
   29SAPC   H7Y 3914   4.670   2.656   7.391  0.0857  0.1438  0.0314
   29SAPC   C38 3915   4.570   2.784   7.526 -0.1746 -0.3441  0.0874
   29SAPC   H8X 3916   4.474   2.737   7.495  0.1057 -1.7241  1.2197
   29SAPC   H8Y 3917   4.556   2.892   7.549  1.1311 -0.0943 -0.1957
   29SAPC   C39 3918   4.634   2.719   7.646  0.5809  0.5596  0.3921
   29SAPC   H9X 3919   4.741   2.748   7.646  0.0681  2.8487  2.6384
   29SAPC   H9Y 3920   4.643   2.609   7.633 -0.0698  0.6920 -1.4784
   29SAPC  C310 3921   4.566   2.742   7.779 -0.0963  0.7022 -0.2404
   29SAPC  H10X 3922   4.460   2.710   7.763 -0.9180  3.2308 -0.2869
   29SAPC  H10Y 3923   4.565   2.849   7.808 -1.3968  1.0326 -1.3752
   29SAPC  C311 3924   4.649   2.673   7.893 -0.7963  0.0159  0.7213
   29SAPC  H11X 3925   4.757   2.695   7.882 -0.9580  2.6585  3.1020
   29SAPC  H11Y 3926   4.654   2.563   7.886  0.1274  0.1066 -0.2960
   29SAPC  C312 3927   4.610   2.704   8.036 -0.8476  0.4159  0.4317
   29SAPC  H12X 3928   4.514   2.655   8.063 -0.2785 -0.2275  1.3787
   29SAPC  H12Y 3929   4.603   2.813   8.056 -0.9692  0.3296  0.8883
   29SAPC  C313 3930   4.719   2.655   8.130 -0.3660 -0.5328 -0.0122
   29SAPC  H13X 3931   4.740   2.546   8.117  1.3298 -0.1292 -0.9875
   29SAPC  H13Y 3932   4.676   2.660   8.232 -1.8568  0.4888 -0.6600
   29SAPC  C314 3933   4.847   2.734   8.115 -1.2609 -0.0295 -0.5669
   29SAPC  H14X 3934   4.823   2.832   8.069 -0.3971 -0.2264 -1.4655
   29SAPC  H14Y 3935   4.902   2.669   8.043  0.0597  1.3559 -0.8562
   29SAPC  C315 3936   4.920   2.758   8.246  0.1767  0.5809  0.5256
   29SAPC  H15X 3937   4.903   2.666   8.306 -0.3525 -0.5689 -1.3055
   29SAPC  H15Y 3938   4.869   2.841   8.299  1.0080  2.0383 -0.8611
   29SAPC  C316 3939   5.068   2.779   8.224 -0.6263  0.4582 -0.1881
   29SAPC  H16X 3940   5.106   2.727   8.134  0.5391  1.8862 -0.5599
   29SAPC  H16Y 3941   5.118   2.734   8.313 -1.0788  0.4133  0.0502
   29SAPC  C317 3942   5.112   2.916   8.203 -0.8677 -0.0853 -0.4422
   29SAPC  H17X 3943   5.092   2.947   8.098  1.1006 -2.3338 -1.6062
   29SAPC  H17Y 3944   5.223   2.909   8.203 -0.6612  2.0865 -2.3178
   29SAPC  C318 3945   5.075   3.020   8.306 -0.0287 -0.6911  0.5675
   29SAPC  H18X 3946   5.096   2.993   8.412 -2.4266  1.5816  1.7175
   29SAPC  H18Y 3947   4.967   3.046   8.302 -0.8258 -3.6795 -0.2303
   29SAPC  H18Z 3948   5.127   3.118   8.297 -0.9997 -0.1448  0.8169
   30SAPC     N 3949   3.850   0.976   5.810 -0.4631  0.3900  0.3569
   30SAPC   C12 3950   3.944   0.950   5.932 -0.0663  0.4499  0.0803
   30SAPC  H12A 3951   3.949   1.038   5.995 -0.4683 -2.3209  4.4125
   30SAPC  H12B 3952   4.042   0.925   5.895 -1.6961 -1.7340 -3.2550
   30SAPC   C13 3953   3.897   1.088   5.727  0.1272  0.5876  0.3945
   30SAPC  H13A 3954   3.844   1.105   5.635  1.1395  2.7398  0.1571
   30SAPC  H13B 3955   3.884   1.180   5.782 -1.6347 -1.1547  3.2341
   30SAPC  H13C 3956   3.996   1.078   5.687 -1.2520  1.7896 -3.8812
   30SAPC   C14 3957   3.845   0.850   5.718 -0.3331  0.3919 -0.1300
   30SAPC  H14A 3958   3.792   0.768   5.764 -0.0509 -0.0017 -0.4953
   30SAPC  H14B 3959   3.795   0.871   5.625 -1.0321 -1.3858 -0.1905
   30SAPC  H14C 3960   3.944   0.812   5.699  0.5307  2.9672 -1.2383
   30SAPC   C15 3961   3.715   1.016   5.859  0.2325 -0.4121  0.2442
   30SAPC  H15A 3962   3.704   1.108   5.914 -0.2702 -0.3093 -0.0300
   30SAPC  H15B 3963   3.642   1.004   5.780  0.3509  0.8729 -0.0716
   30SAPC  H15C 3964   3.685   0.938   5.928  0.2045 -0.1425  0.5358
   30SAPC   C11 3965   3.905   0.839   6.031 -0.3904 -0.2210 -0.1494
   30SAPC  H11A 3966   3.797   0.855   6.054 -0.1989  1.6735 -0.4029
   30SAPC  H11B 3967   3.954   0.844   6.130 -1.0784 -2.1235  0.3386
   30SAPC     P 3968   4.083   0.675   5.928  0.2772  0.0961 -0.2274
   30SAPC   O13 3969   4.067   0.578   5.819 -0.0434  0.7970 -0.3484
   30SAPC   O14 3970   4.175   0.788   5.908  0.4681 -0.2840 -0.0507
   30SAPC   O12 3971   3.931   0.717   5.973  0.3455 -0.3309  0.1437
   30SAPC   O11 3972   4.136   0.589   6.047 -0.1355  0.0137 -0.0937
   30SAPC    C1 3973   4.049   0.518   6.138  0.2021  0.1385 -0.2185
   30SAPC    HA 3974   3.945   0.512   6.099  0.4325 -1.6767 -0.6459
   30SAPC    HB 3975   4.081   0.412   6.143 -1.2810 -0.3390 -0.2473
   30SAPC    C2 3976   4.043   0.574   6.282  0.5631 -0.0437  0.5879
   30SAPC    HS 3977   3.999   0.676   6.285  0.7337  0.0123  1.2557
   30SAPC   O21 3978   4.171   0.576   6.337  0.0333  0.1810  0.2084
   30SAPC   C21 3979   4.234   0.686   6.315  0.2695  0.4629  0.1575
   30SAPC   O22 3980   4.190   0.794   6.280 -0.1710 -0.3533  0.3479
   30SAPC   C22 3981   4.379   0.653   6.353 -0.6808  0.6295 -0.0357
   30SAPC   H2R 3982   4.381   0.619   6.459  0.7683 -0.5632 -0.4099
   30SAPC   H2S 3983   4.424   0.579   6.284  0.3522  2.0017 -0.8783
   30SAPC    C3 3984   3.946   0.481   6.364 -0.1137 -0.4283  0.1111
   30SAPC    HX 3985   4.009   0.394   6.391  1.9701  0.0651 -2.7507
   30SAPC    HY 3986   3.866   0.451   6.292 -0.6579 -0.7881  0.8462
   30SAPC   O31 3987   3.905   0.546   6.491 -0.2262  0.1212 -0.3724
   30SAPC   C31 3988   3.804   0.632   6.482 -0.4130 -0.6446 -0.5287
   30SAPC   O32 3989   3.730   0.648   6.388 -0.4797  0.3237  0.1008
   30SAPC   C32 3990   3.791   0.704   6.614 -0.0612 -0.4124 -0.0410
   30SAPC   H2X 3991   3.886   0.756   6.639  0.6830 -0.3143 -2.7464
   30SAPC   H2Y 3992   3.777   0.626   6.692  0.0708 -0.0525  0.3471
   30SAPC   C23 3993   4.466   0.773   6.366  0.2918 -0.1190 -0.3034
   30SAPC   H3R 3994   4.400   0.860   6.390 -0.1699 -1.1439  2.4544
   30SAPC   H3S 3995   4.513   0.792   6.267 -0.9378 -0.9426 -1.0723
   30SAPC   C24 3996   4.565   0.759   6.484 -0.3150 -0.1299 -0.4014
   30SAPC   H4R 3997   4.631   0.673   6.464 -2.0039 -1.3809 -0.8141
   30SAPC   H4S 3998   4.508   0.731   6.575 -1.3910  0.4958 -0.8578
   30SAPC   C25 3999   4.652   0.886   6.494  0.5037 -0.2615 -0.2095
   30SAPC   H5R 4000   4.669   0.940   6.400 -0.3066 -0.1652 -0.3146
   30SAPC   C26 4001   4.703   0.941   6.611  0.4833 -0.3067  0.8153
   30SAPC   H6R 4002   4.771   1.026   6.599  0.0910  0.0315  0.9662
   30SAPC   C27 4003   4.681   0.888   6.754  0.0316 -0.2595  0.3719
   30SAPC   H7R 4004   4.761   0.812   6.767  0.7003  0.1529 -1.0873
   30SAPC   H7S 4005   4.580   0.841   6.752 -1.8507  3.4596  0.2870
   30SAPC   C28 4006   4.683   1.005   6.852 -0.3961 -0.0530 -0.4470
   30SAPC   H8R 4007   4.708   1.105   6.813  0.4444  0.1337  0.5176
   30SAPC   C29 4008   4.655   1.009   6.982 -0.5911 -0.0245 -0.3034
   30SAPC   H9R 4009   4.649   1.110   7.024  0.7118  0.8525 -2.1080
   30SAPC  C210 4010   4.624   0.894   7.069 -0.0998  0.3475 -0.2625
   30SAPC  H10R 4011   4.711   0.826   7.080 -0.1464  0.1691 -0.9576
   30SAPC  H10S 4012   4.549   0.828   7.020 -0.5324  0.8215 -0.2435
   30SAPC  C211 4013   4.570   0.933   7.203 -0.4374 -0.1970 -0.5045
   30SAPC  H11R 4014   4.468   0.973   7.212  0.3466  1.5557  1.3894
   30SAPC  C212 4015   4.634   0.930   7.322 -0.5485  0.2707  0.4609
   30SAPC  H12R 4016   4.578   0.954   7.414 -2.1339 -0.6448 -0.2273
   30SAPC  C213 4017   4.779   0.886   7.356  0.9354  0.5506 -0.4539
   30SAPC  H13R 4018   4.821   0.822   7.276 -0.9326  0.9749 -1.8456
   30SAPC  H13S 4019   4.775   0.823   7.447 -0.3037  0.8495 -0.2864
   30SAPC  C214 4020   4.865   1.010   7.381 -0.6907 -0.0931  0.0552
   30SAPC  H14R 4021   4.907   1.058   7.291  0.4112 -0.1612  0.5238
   30SAPC  C215 4022   4.905   1.065   7.494 -0.1084 -1.0516  0.4713
   30SAPC  H15R 4023   4.982   1.142   7.509 -0.5278 -0.9053  2.0592
   30SAPC  C216 4024   4.861   1.017   7.634  0.0308  0.6585  0.1844
   30SAPC  H16R 4025   4.947   1.037   7.701 -0.2472 -2.1013  1.5032
   30SAPC  H16S 4026   4.830   0.911   7.644  0.9777  0.5140  1.8195
   30SAPC  C217 4027   4.735   1.093   7.681  0.0455  0.4476 -0.4704
   30SAPC  H17R 4028   4.650   1.053   7.623 -2.1466  1.1404  2.0719
   30SAPC  H17S 4029   4.753   1.200   7.654  0.8662 -0.3900 -3.6404
   30SAPC  C218 4030   4.724   1.074   7.831  0.0401  0.2554  0.3598
   30SAPC  H18R 4031   4.626   1.111   7.867  1.1553  2.8113  0.9574
   30SAPC  H18S 4032   4.807   1.136   7.871  0.3310  0.8793 -1.1551
   30SAPC  C219 4033   4.721   0.930   7.884 -0.4663  0.3644  0.1551
   30SAPC  H19R 4034   4.699   0.928   7.993  0.5333  0.8743  0.3762
   30SAPC  H19S 4035   4.824   0.889   7.879 -0.5959  0.0102  0.3063
   30SAPC  C220 4036   4.617   0.841   7.810 -0.7296 -0.4484 -0.5444
   30SAPC  H20R 4037   4.650   0.795   7.714 -1.2635 -0.7513 -0.5854
   30SAPC  H20S 4038   4.527   0.901   7.786  0.6854  1.1920 -1.9777
   30SAPC  H20T 4039   4.591   0.756   7.878 -3.6276  1.3684  0.8148
   30SAPC   C33 4040   3.669   0.805   6.631 -0.0705  0.1836 -0.0505
   30SAPC   H3X 4041   3.574   0.748   6.633 -0.3642  0.3630 -3.3259
   30SAPC   H3Y 4042   3.675   0.882   6.552 -0.2663  2.0205  1.6586
   30SAPC   C34 4043   3.662   0.898   6.754 -0.0710  0.1333 -0.3204
   30SAPC   H4X 4044   3.697   0.831   6.836 -0.1664  2.1942  1.5017
   30SAPC   H4Y 4045   3.558   0.933   6.777  0.3157  0.5769  0.8510
   30SAPC   C35 4046   3.756   1.015   6.760  0.0109  0.1888 -0.4021
   30SAPC   H5X 4047   3.734   1.086   6.678 -1.7652  1.7566  1.3130
   30SAPC   H5Y 4048   3.858   0.977   6.742  0.7877  1.0314  1.8312
   30SAPC   C36 4049   3.748   1.091   6.888 -0.3623 -0.7935  0.2140
   30SAPC   H6X 4050   3.645   1.119   6.918 -0.4840 -0.2329 -0.6868
   30SAPC   H6Y 4051   3.791   1.192   6.879  1.2870 -1.3295  1.5726
   30SAPC   C37 4052   3.822   1.024   6.998 -0.1302 -0.0722  0.1139
   30SAPC   H7X 4053   3.924   0.999   6.962  0.1404 -1.0379  1.4769
   30SAPC   H7Y 4054   3.770   0.929   7.024 -1.6596  0.9267  0.9299
   30SAPC   C38 4055   3.830   1.120   7.117  0.4560  1.0138  0.0285
   30SAPC   H8X 4056   3.726   1.155   7.139 -0.1847  0.9352 -2.5647
   30SAPC   H8Y 4057   3.886   1.212   7.088  0.7242  0.2352 -2.0445
   30SAPC   C39 4058   3.887   1.062   7.249 -0.3558 -0.4088 -0.0997
   30SAPC   H9X 4059   3.998   1.069   7.247 -0.3853  1.2534  1.1185
   30SAPC   H9Y 4060   3.859   0.958   7.273  1.7188 -0.5252  2.1720
   30SAPC  C310 4061   3.840   1.145   7.377  0.6058  0.2216  0.4619
   30SAPC  H10X 4062   3.886   1.089   7.461  1.9860 -0.3556 -0.6338
   30SAPC  H10Y 4063   3.732   1.120   7.369  1.1536 -1.6811 -3.8753
   30SAPC  C311 4064   3.873   1.296   7.378  0.2534  0.3152  0.3427
   30SAPC  H11X 4065   3.781   1.352   7.405  0.0219  0.1952 -0.1986
   30SAPC  H11Y 4066   3.899   1.326   7.275  0.8039 -0.7717  0.1397
   30SAPC  C312 4067   3.986   1.335   7.467  0.1312 -0.3837  0.0238
   30SAPC  H12X 4068   4.057   1.408   7.424 -1.1761  0.5991 -0.5391
   30SAPC  H12Y 4069   4.046   1.247   7.497  1.5009  0.7905  0.8598
   30SAPC  C313 4070   3.922   1.411   7.585  0.5051 -0.5234  0.4663
   30SAPC  H13X 4071   3.819   1.374   7.605 -0.2439  0.9083 -0.5644
   30SAPC  H13Y 4072   3.894   1.514   7.554  0.4328 -0.8253 -0.4747
   30SAPC  C314 4073   3.995   1.402   7.721  0.5427 -0.2647  0.1408
   30SAPC  H14X 4074   4.070   1.485   7.724 -1.9259  2.1386 -0.2332
   30SAPC  H14Y 4075   4.042   1.306   7.750 -0.3813 -0.4190  1.2154
   30SAPC  C315 4076   3.891   1.431   7.835  0.2457  0.7355 -0.2705
   30SAPC  H15X 4077   3.819   1.508   7.801  0.8523  1.5892  0.3245
   30SAPC  H15Y 4078   3.947   1.459   7.927  0.0728 -3.4756  1.3424
   30SAPC  C316 4079   3.800   1.307   7.865 -0.1059  0.7296 -0.3332
   30SAPC  H16X 4080   3.876   1.227   7.877 -1.0825 -0.3625 -1.2084
   30SAPC  H16Y 4081   3.753   1.270   7.771 -1.1003  1.6341 -0.2016
   30SAPC  C317 4082   3.720   1.336   7.986 -0.1916  0.4716 -0.9335
   30SAPC  H17X 4083   3.667   1.430   7.959 -3.0098 -0.1385  1.9526
   30SAPC  H17Y 4084   3.790   1.348   8.071 -0.0119  0.1576 -1.0327
   30SAPC  C318 4085   3.624   1.225   8.017  0.0551  0.5787 -0.5821
   30SAPC  H18X 4086   3.554   1.249   8.100 -0.6223 -2.5609 -0.1457
   30SAPC  H18Y 4087   3.668   1.127   8.042  1.0693  0.6874 -1.8622
   30SAPC  H18Z 4088   3.560   1.202   7.929 -2.4228 -0.0322  1.2489
   31SAPC     N 4089   0.682   1.533   6.187  0.5428 -1.2016  0.0368
   31SAPC   C12 4090   0.745   1.570   6.322  0.8021  0.0055 -0.2738
   31SAPC  H12A 4091   0.675   1.529   6.394  2.4684  0.7909  1.9111
   31SAPC  H12B 4092   0.734   1.676   6.338 -1.0791 -0.0272 -1.0935
   31SAPC   C13 4093   0.544   1.596   6.175  0.9351 -0.6241 -0.9038
   31SAPC  H13A 4094   0.549   1.699   6.142  0.4514  0.2593  1.5649
   31SAPC  H13B 4095   0.482   1.536   6.110  0.5266  0.8488 -1.9553
   31SAPC  H13C 4096   0.498   1.596   6.273 -1.1902  1.4578 -1.8040
   31SAPC   C14 4097   0.768   1.586   6.075 -0.1822  0.2364 -0.2414
   31SAPC  H14A 4098   0.745   1.690   6.059 -1.2085 -0.1436 -1.4714
   31SAPC  H14B 4099   0.873   1.579   6.095 -0.1188  0.2612 -0.5650
   31SAPC  H14C 4100   0.744   1.542   5.979  2.1442  2.2943 -1.8664
   31SAPC   C15 4101   0.671   1.389   6.177 -0.4418  0.9250 -0.1025
   31SAPC  H15A 4102   0.621   1.367   6.084 -2.3380 -0.3182  1.1481
   31SAPC  H15B 4103   0.771   1.347   6.185 -0.0631  1.7232 -0.4849
   31SAPC  H15C 4104   0.603   1.338   6.243  0.7293  1.4336  1.5922
   31SAPC   C11 4105   0.889   1.515   6.360  0.2086 -0.1993  0.1293
   31SAPC  H11A 4106   0.891   1.411   6.323 -1.7489 -0.4372  0.5403
   31SAPC  H11B 4107   0.899   1.512   6.471 -3.6110 -1.6665  0.5995
   31SAPC     P 4108   1.060   1.721   6.306  0.3064  0.0978  0.1399
   31SAPC   O13 4109   1.198   1.717   6.254  0.3393 -0.6104 -0.4284
   31SAPC   O14 4110   0.980   1.834   6.254  0.2632  0.2051 -0.5519
   31SAPC   O12 4111   0.993   1.579   6.281  0.2041  1.2436  0.5461
   31SAPC   O11 4112   1.065   1.732   6.460  0.2907  0.2173  0.2782
   31SAPC    C1 4113   1.142   1.643   6.544 -0.1046 -0.0298  0.1558
   31SAPC    HA 4114   1.112   1.536   6.542  1.4786 -0.5479  1.7085
   31SAPC    HB 4115   1.250   1.645   6.517 -0.7390 -0.2874 -2.8101
   31SAPC    C2 4116   1.136   1.696   6.687  0.3643 -0.5032  0.0994
   31SAPC    HS 4117   1.171   1.614   6.753 -1.4542 -1.5005 -0.1079
   31SAPC   O21 4118   1.000   1.751   6.723 -0.3608  0.1377 -0.1208
   31SAPC   C21 4119   0.913   1.654   6.728  0.1279 -0.0974 -0.2902
   31SAPC   O22 4120   0.939   1.537   6.737  0.4795  0.1436 -0.0978
   31SAPC   C22 4121   0.770   1.722   6.711  0.3842 -0.4302 -0.1468
   31SAPC   H2R 4122   0.767   1.768   6.610 -1.4658 -3.1369 -1.4192
   31SAPC   H2S 4123   0.692   1.643   6.708 -0.3666  0.3247 -0.9780
   31SAPC    C3 4124   1.238   1.811   6.700 -0.3221 -0.0639  0.2193
   31SAPC    HX 4125   1.196   1.909   6.671 -0.1556  1.0736  3.4131
   31SAPC    HY 4126   1.322   1.793   6.628 -0.7662  0.0848 -0.3443
   31SAPC   O31 4127   1.283   1.822   6.841 -0.3372 -0.0815 -0.0533
   31SAPC   C31 4128   1.377   1.735   6.886  0.1979  0.2259 -0.4126
   31SAPC   O32 4129   1.426   1.650   6.820 -0.2978  0.0876  0.3713
   31SAPC   C32 4130   1.412   1.769   7.026 -0.5504  0.9040 -0.1731
   31SAPC   H2X 4131   1.347   1.713   7.096 -0.8726  1.0160 -0.3792
   31SAPC   H2Y 4132   1.382   1.876   7.035 -0.6637  0.9953 -1.3995
   31SAPC   C23 4133   0.728   1.824   6.821  0.2090 -0.2081  0.0333
   31SAPC   H3R 4134   0.630   1.866   6.788  1.3221  1.4714 -1.2566
   31SAPC   H3S 4135   0.799   1.907   6.834  0.5028 -0.4743  0.1383
   31SAPC   C24 4136   0.699   1.765   6.958 -0.0970 -0.0705  0.2216
   31SAPC   H4R 4137   0.796   1.731   7.001 -0.5154  1.6852  2.7472
   31SAPC   H4S 4138   0.633   1.677   6.943 -1.2169  0.6637  0.7094
   31SAPC   C25 4139   0.639   1.876   7.039 -0.4024  0.0167  0.6596
   31SAPC   H5R 4140   0.549   1.918   6.991  0.6880  0.6991 -0.8452
   31SAPC   C26 4141   0.681   1.919   7.154  0.4335  0.6453 -0.2870
   31SAPC   H6R 4142   0.628   1.999   7.207 -3.3058 -2.1835  0.6755
   31SAPC   C27 4143   0.799   1.851   7.219  0.7924  0.6362 -0.0209
   31SAPC   H7R 4144   0.883   1.861   7.147  0.4644  2.2618 -0.2206
   31SAPC   H7S 4145   0.777   1.747   7.250 -1.4647  1.5151  1.6125
   31SAPC   C28 4146   0.838   1.923   7.345 -0.3780  0.1854  0.7151
   31SAPC   H8R 4147   0.817   2.031   7.354  0.7319  0.4717  0.1265
   31SAPC   C29 4148   0.902   1.870   7.455  0.1207  0.0528  0.8606
   31SAPC   H9R 4149   0.926   1.936   7.539 -1.0926  1.4805  0.1561
   31SAPC  C210 4150   0.952   1.726   7.467 -0.4861  0.1628  0.1241
   31SAPC  H10R 4151   1.052   1.724   7.420  0.2750  1.3154  1.6069
   31SAPC  H10S 4152   0.883   1.660   7.409 -0.4470 -0.6123  0.9283
   31SAPC  C211 4153   0.965   1.678   7.610 -0.2463  0.2945 -0.5703
   31SAPC  H11R 4154   1.066   1.655   7.647  0.1628  4.1262  1.2024
   31SAPC  C212 4155   0.863   1.665   7.692 -0.9084  0.8244  0.3389
   31SAPC  H12R 4156   0.887   1.621   7.790 -0.8622  1.1942  0.4930
   31SAPC  C213 4157   0.719   1.693   7.666 -0.8290 -0.1493  0.4848
   31SAPC  H13R 4158   0.642   1.613   7.679 -1.8679  0.5632 -1.0031
   31SAPC  H13S 4159   0.705   1.736   7.565 -1.1554 -0.1353  0.5327
   31SAPC  C214 4160   0.682   1.812   7.748 -0.6202  0.1318 -0.5629
   31SAPC  H14R 4161   0.747   1.899   7.734  0.0433 -0.6085 -2.4894
   31SAPC  C215 4162   0.595   1.818   7.849 -0.2551  0.1572 -0.1400
   31SAPC  H15R 4163   0.588   1.913   7.905 -0.6701  0.0845 -0.0581
   31SAPC  C216 4164   0.510   1.708   7.905  0.1759 -0.2846  0.3090
   31SAPC  H16R 4165   0.510   1.622   7.835 -1.4808 -0.6700  0.7617
   31SAPC  H16S 4166   0.409   1.754   7.908 -0.3581 -1.4102  3.5821
   31SAPC  C217 4167   0.538   1.678   8.056  0.5994  0.3080 -0.2645
   31SAPC  H17R 4168   0.635   1.625   8.066  0.7895  1.0176  2.6591
   31SAPC  H17S 4169   0.459   1.608   8.092  0.2165  2.2982  3.2393
   31SAPC  C218 4170   0.544   1.803   8.147 -0.5403 -0.4836 -1.5788
   31SAPC  H18R 4171   0.626   1.866   8.104 -0.5973 -0.0519 -1.0618
   31SAPC  H18S 4172   0.572   1.763   8.246 -1.4183 -0.9773 -1.5296
   31SAPC  C219 4173   0.416   1.889   8.147  0.0502 -0.2500 -0.1281
   31SAPC  H19R 4174   0.340   1.818   8.184  1.8546 -2.3367 -0.2579
   31SAPC  H19S 4175   0.398   1.911   8.039 -2.1858  1.2492  0.4706
   31SAPC  C220 4176   0.406   2.020   8.230 -0.5698 -0.4912 -0.2721
   31SAPC  H20R 4177   0.440   2.112   8.177 -2.7625 -1.6671 -4.1836
   31SAPC  H20S 4178   0.450   2.005   8.330 -1.2769  0.2240  0.1671
   31SAPC  H20T 4179   0.299   2.044   8.252 -0.1941 -0.1276  1.2356
   31SAPC   C33 4180   1.557   1.742   7.045 -0.1537  0.0973 -0.8032
   31SAPC   H3X 4181   1.611   1.757   6.950  1.2734 -0.0277 -0.0401
   31SAPC   H3Y 4182   1.575   1.635   7.070 -0.1756  0.5192  1.2490
   31SAPC   C34 4183   1.615   1.815   7.174 -0.4681 -0.2159 -0.2466
   31SAPC   H4X 4184   1.598   1.922   7.150  3.5232  0.6110 -0.1401
   31SAPC   H4Y 4185   1.725   1.799   7.173 -0.4670 -0.3839  1.1914
   31SAPC   C35 4186   1.569   1.770   7.312  0.2191  0.0608  0.5631
   31SAPC   H5X 4187   1.623   1.827   7.391  1.5176  0.5672 -0.6525
   31SAPC   H5Y 4188   1.597   1.665   7.339  2.5078  0.6134  0.6064
   31SAPC   C36 4189   1.411   1.778   7.340 -0.7957 -0.2797  0.0358
   31SAPC   H6X 4190   1.367   1.688   7.292 -0.3966 -1.4551  1.7779
   31SAPC   H6Y 4191   1.373   1.857   7.272  1.3749  0.2928 -0.5775
   31SAPC   C37 4192   1.362   1.815   7.483 -0.4172  0.4624  0.0931
   31SAPC   H7X 4193   1.251   1.816   7.484 -0.4154  0.5533  0.2237
   31SAPC   H7Y 4194   1.392   1.921   7.493  1.8868 -0.1080 -0.1013
   31SAPC   C38 4195   1.422   1.725   7.600 -0.4548 -0.3659  0.8082
   31SAPC   H8X 4196   1.531   1.708   7.586 -0.2240  0.8524  1.0436
   31SAPC   H8Y 4197   1.368   1.632   7.570  1.0892 -0.6598 -1.1984
   31SAPC   C39 4198   1.404   1.765   7.745  0.1581 -0.4879 -0.7433
   31SAPC   H9X 4199   1.315   1.831   7.747 -1.4803 -2.4498 -2.8446
   31SAPC   H9Y 4200   1.489   1.835   7.763 -0.7271  0.7636 -1.2840
   31SAPC  C310 4201   1.401   1.652   7.847  0.5672 -0.0526 -0.3287
   31SAPC  H10X 4202   1.483   1.577   7.842  0.7625 -0.0801  2.2270
   31SAPC  H10Y 4203   1.306   1.595   7.833  0.5194 -0.0923  0.1487
   31SAPC  C311 4204   1.393   1.709   7.991  0.2022  0.0765 -0.4935
   31SAPC  H11X 4205   1.450   1.804   8.003 -0.8300  0.8049 -1.2863
   31SAPC  H11Y 4206   1.450   1.630   8.045  3.2054  1.2310 -1.7129
   31SAPC  C312 4207   1.259   1.720   8.071 -0.0860  0.7131 -0.5349
   31SAPC  H12X 4208   1.193   1.642   8.027  0.4634  0.7165 -1.3714
   31SAPC  H12Y 4209   1.205   1.815   8.054 -0.1136  0.5123 -1.6460
   31SAPC  C313 4210   1.273   1.678   8.221  0.3191  0.6415 -0.2570
   31SAPC  H13X 4211   1.370   1.711   8.264  1.1805 -1.7123 -0.2151
   31SAPC  H13Y 4212   1.275   1.567   8.209  0.6986  0.4193  1.5836
   31SAPC  C314 4213   1.156   1.723   8.313 -0.8531  0.2723 -1.0028
   31SAPC  H14X 4214   1.158   1.834   8.321  1.8450  0.1375  1.5630
   31SAPC  H14Y 4215   1.171   1.677   8.412  1.6440  1.6149 -0.6924
   31SAPC  C315 4216   1.009   1.683   8.278 -0.3781 -0.2838  0.3987
   31SAPC  H15X 4217   0.991   1.714   8.173  2.3067 -2.2444 -0.7742
   31SAPC  H15Y 4218   0.936   1.741   8.338 -0.1634  2.2807 -1.6452
   31SAPC  C316 4219   0.980   1.530   8.283  0.2344 -0.5401 -0.3830
   31SAPC  H16X 4220   0.992   1.497   8.389 -0.0323 -1.7934 -0.7218
   31SAPC  H16Y 4221   1.041   1.469   8.213  1.3939  1.7785 -1.5120
   31SAPC  C317 4222   0.831   1.511   8.242  0.4552  0.0456 -0.1752
   31SAPC  H17X 4223   0.820   1.555   8.140 -2.0773  0.0540  0.0170
   31SAPC  H17Y 4224   0.774   1.569   8.318  0.4755  1.6420 -1.3383
   31SAPC  C318 4225   0.782   1.368   8.232 -0.0142 -0.0333 -0.0678
   31SAPC  H18X 4226   0.800   1.307   8.323 -0.0818 -0.6052 -0.4298
   31SAPC  H18Y 4227   0.849   1.325   8.154  2.2287  0.9393  1.2235
   31SAPC  H18Z 4228   0.676   1.360   8.199  0.0240  0.3854 -0.3032
   32SAPC     N 4229   2.548   5.181   6.170  0.2918 -0.3204 -0.6256
   32SAPC   C12 4230   2.564   5.032   6.183 -0.5207  0.0176 -0.8301
   32SAPC  H12A 4231   2.655   5.007   6.236 -1.6384 -0.8168  0.7606
   32SAPC  H12B 4232   2.584   4.990   6.086  0.1950  1.9603 -1.5805
   32SAPC   C13 4233   2.479   5.240   6.290 -0.5483 -0.1904  0.0793
   32SAPC  H13A 4234   2.377   5.207   6.299 -1.2214  2.1726  2.8585
   32SAPC  H13B 4235   2.520   5.218   6.387 -0.7518 -0.2147  0.1595
   32SAPC  H13C 4236   2.470   5.348   6.282 -0.9652 -0.0221  2.2832
   32SAPC   C14 4237   2.677   5.252   6.152 -0.1869  0.2701 -0.0546
   32SAPC  H14A 4238   2.668   5.358   6.135 -1.8616 -0.1421 -2.0695
   32SAPC  H14B 4239   2.747   5.222   6.229  0.8478  2.4752 -0.0672
   32SAPC  H14C 4240   2.723   5.211   6.063 -0.0997 -1.5672  0.7781
   32SAPC   C15 4241   2.460   5.207   6.051 -0.1531 -0.2624  0.7360
   32SAPC  H15A 4242   2.439   5.311   6.030 -1.1853 -0.3815  1.0923
   32SAPC  H15B 4243   2.515   5.173   5.965  2.4113  0.0800  2.1530
   32SAPC  H15C 4244   2.363   5.159   6.053 -1.4542  2.0210 -1.3057
   32SAPC   C11 4245   2.447   4.966   6.251 -0.5865 -0.6068 -0.1462
   32SAPC  H11A 4246   2.446   4.998   6.357 -0.1350  2.6339 -1.0215
   32SAPC  H11B 4247   2.458   4.856   6.253  0.5602 -0.5041  2.1314
   32SAPC     P 4248   2.197   4.908   6.159 -0.2827  0.3512  0.2363
   32SAPC   O13 4249   2.110   4.973   6.055  0.0191  0.3848  0.0683
   32SAPC   O14 4250   2.247   4.769   6.125 -0.4875  0.3065  0.1229
   32SAPC   O12 4251   2.319   5.000   6.189 -0.9888 -0.1320 -0.2395
   32SAPC   O11 4252   2.115   4.901   6.290  0.0188 -0.0655  0.0259
   32SAPC    C1 4253   2.132   5.024   6.368  0.1445  0.1367  0.2882
   32SAPC    HA 4254   2.226   5.021   6.426 -0.3644 -0.3510  1.1156
   32SAPC    HB 4255   2.126   5.119   6.310 -1.6059 -1.7131 -2.8244
   32SAPC    C2 4256   2.017   5.028   6.474  0.5240  0.5015 -0.4533
   32SAPC    HS 4257   1.932   5.079   6.424  2.5068  2.7651 -1.6893
   32SAPC   O21 4258   2.060   5.101   6.591 -0.3741 -0.3237 -0.2940
   32SAPC   C21 4259   2.087   5.227   6.568  0.2973 -0.1121 -0.2751
   32SAPC   O22 4260   2.079   5.287   6.461 -0.3974 -0.2627 -0.0677
   32SAPC   C22 4261   2.116   5.303   6.695  0.0178 -0.1655  0.2030
   32SAPC   H2R 4262   2.029   5.312   6.763 -1.0850  2.9754 -1.4242
   32SAPC   H2S 4263   2.209   5.253   6.729  1.5926 -0.1660 -3.5899
   32SAPC    C3 4264   1.973   4.885   6.524 -0.1363  0.0486  0.0484
   32SAPC    HX 4265   2.068   4.837   6.554 -0.2155  0.5326  1.1277
   32SAPC    HY 4266   1.930   4.833   6.436  1.3217 -1.1062 -0.0134
   32SAPC   O31 4267   1.874   4.907   6.627  0.1009  0.2052 -0.5929
   32SAPC   C31 4268   1.882   4.831   6.732  1.6155 -0.0571 -0.2783
   32SAPC   O32 4269   1.955   4.735   6.753  0.4744  0.0476  0.1528
   32SAPC   C32 4270   1.780   4.876   6.844  0.2356  0.2129 -0.0017
   32SAPC   H2X 4271   1.840   4.883   6.938 -0.5049 -0.5248  0.5482
   32SAPC   H2Y 4272   1.708   4.791   6.852 -0.1365  0.6522  1.7588
   32SAPC   C23 4273   2.169   5.443   6.656 -0.0827  0.3213  0.2135
   32SAPC   H3R 4274   2.089   5.497   6.600 -0.3475  0.5920  0.8414
   32SAPC   H3S 4275   2.263   5.433   6.598  0.4844  2.4921  0.6480
   32SAPC   C24 4276   2.212   5.517   6.776  0.0513  0.3814 -0.9158
   32SAPC   H4R 4277   2.258   5.612   6.740  0.3266  0.2384 -0.9498
   32SAPC   H4S 4278   2.289   5.466   6.839  0.6456  2.2884 -0.0427
   32SAPC   C25 4279   2.100   5.567   6.865  0.0544  0.4525  0.2997
   32SAPC   H5R 4280   2.022   5.627   6.816  0.8342  0.1637 -1.3596
   32SAPC   C26 4281   2.110   5.576   6.996 -1.0578 -1.2304  0.0828
   32SAPC   H6R 4282   2.031   5.627   7.052  1.1627  4.0421 -1.0205
   32SAPC   C27 4283   2.227   5.529   7.078  0.5125 -0.0124  0.1058
   32SAPC   H7R 4284   2.256   5.618   7.138  1.7383  0.0314 -0.5167
   32SAPC   H7S 4285   2.311   5.510   7.007 -1.1116 -2.1202 -1.4052
   32SAPC   C28 4286   2.202   5.409   7.170  0.6317 -0.0271 -0.0806
   32SAPC   H8R 4287   2.177   5.322   7.108  2.8310 -0.9386  0.2293
   32SAPC   C29 4288   2.193   5.395   7.302 -0.1226 -0.0024  0.0440
   32SAPC   H9R 4289   2.166   5.294   7.337  1.1221 -0.5540 -0.5107
   32SAPC  C210 4290   2.223   5.499   7.399 -0.7810 -0.1701 -0.5059
   32SAPC  H10R 4291   2.214   5.597   7.348  0.9147  0.4896  0.3583
   32SAPC  H10S 4292   2.332   5.500   7.423 -0.9400  1.1340  0.2553
   32SAPC  C211 4293   2.135   5.498   7.521 -0.5806  0.0092  0.0669
   32SAPC  H11R 4294   2.035   5.456   7.505 -1.0102  1.5728 -1.7576
   32SAPC  C212 4295   2.173   5.547   7.646  0.8258  0.1478  0.4850
   32SAPC  H12R 4296   2.094   5.537   7.722 -1.2151 -0.3959 -1.5962
   32SAPC  C213 4297   2.302   5.615   7.680 -0.3505 -0.1916 -0.0850
   32SAPC  H13R 4298   2.318   5.709   7.623  0.9703 -0.5756 -0.4023
   32SAPC  H13S 4299   2.387   5.551   7.648  0.9689 -0.0928  2.8848
   32SAPC  C214 4300   2.314   5.636   7.827 -0.5769  1.0071 -0.3907
   32SAPC  H14R 4301   2.279   5.732   7.869 -1.5910  1.3531 -1.9306
   32SAPC  C215 4302   2.350   5.544   7.922  0.2037 -0.0380  0.1162
   32SAPC  H15R 4303   2.362   5.580   8.025 -1.1209 -0.7390  0.5340
   32SAPC  C216 4304   2.391   5.399   7.898 -0.0836  0.2898  0.4716
   32SAPC  H16R 4305   2.501   5.387   7.891  0.0943  0.7213  2.1455
   32SAPC  H16S 4306   2.343   5.357   7.807  0.7120 -1.6437  0.8930
   32SAPC  C217 4307   2.354   5.297   8.009 -0.5960  0.3425  0.0309
   32SAPC  H17R 4308   2.383   5.195   7.976  0.8644  0.1754  1.7057
   32SAPC  H17S 4309   2.246   5.301   8.033 -1.1491  0.2491 -2.1937
   32SAPC  C218 4310   2.436   5.324   8.137  0.0427  0.6463 -0.1787
   32SAPC  H18R 4311   2.423   5.429   8.172 -0.9822  0.3336  0.4289
   32SAPC  H18S 4312   2.542   5.323   8.104  1.0221  0.1829  2.6714
   32SAPC  C219 4313   2.412   5.216   8.243 -1.2054  0.1343 -0.1659
   32SAPC  H19R 4314   2.424   5.115   8.199  1.9536  1.4803 -2.8412
   32SAPC  H19S 4315   2.308   5.230   8.280 -1.2379  0.6156 -0.4222
   32SAPC  C220 4316   2.508   5.210   8.362  0.0768 -0.4181 -0.1786
   32SAPC  H20R 4317   2.481   5.282   8.442  0.7938 -0.0788 -0.2326
   32SAPC  H20S 4318   2.609   5.243   8.329  0.4762  0.6250  1.9344
   32SAPC  H20T 4319   2.509   5.110   8.411  1.2126  0.6600  2.1276
   32SAPC   C33 4320   1.701   5.008   6.825  0.2022 -0.1336  0.5019
   32SAPC   H3X 4321   1.607   5.004   6.885  0.4312 -3.0130  0.8159
   32SAPC   H3Y 4322   1.678   5.014   6.717 -2.8029 -1.1927  0.9681
   32SAPC   C34 4323   1.791   5.130   6.870 -0.8093  0.0989 -0.0349
   32SAPC   H4X 4324   1.810   5.196   6.782  3.3397 -2.5392 -1.4299
   32SAPC   H4Y 4325   1.890   5.084   6.891  0.5927  2.3236 -1.4242
   32SAPC   C35 4326   1.731   5.207   6.984  0.0011  0.3276  0.1030
   32SAPC   H5X 4327   1.698   5.127   7.053  0.1072 -0.6991 -0.9909
   32SAPC   H5Y 4328   1.639   5.258   6.948 -0.9615 -0.1454  1.7986
   32SAPC   C36 4329   1.817   5.324   7.045  0.4043  0.2516 -0.4522
   32SAPC   H6X 4330   1.830   5.406   6.971  1.5722  1.3258  0.9041
   32SAPC   H6Y 4331   1.916   5.282   7.072 -1.0468 -3.1411  0.0740
   32SAPC   C37 4332   1.760   5.376   7.177  0.6916 -0.4540 -0.1085
   32SAPC   H7X 4333   1.660   5.415   7.148  1.4226  3.1076  1.5665
   32SAPC   H7Y 4334   1.823   5.458   7.217  0.1986 -0.0693 -0.1134
   32SAPC   C38 4335   1.750   5.270   7.287 -0.0634 -0.6453  0.0290
   32SAPC   H8X 4336   1.851   5.228   7.306  0.1044 -0.8333 -1.1739
   32SAPC   H8Y 4337   1.689   5.188   7.243 -0.2362  0.1512 -1.2775
   32SAPC   C39 4338   1.704   5.334   7.415  0.3093 -0.1710  0.8142
   32SAPC   H9X 4339   1.624   5.408   7.395  1.7188  1.0370 -0.6382
   32SAPC   H9Y 4340   1.791   5.392   7.453  0.2265 -0.1985  1.0444
   32SAPC  C310 4341   1.660   5.225   7.507  0.3119 -0.5224 -0.1410
   32SAPC  H10X 4342   1.742   5.153   7.529  1.7736  1.8262  2.7525
   32SAPC  H10Y 4343   1.578   5.169   7.456  0.1790  1.2293 -1.9674
   32SAPC  C311 4344   1.622   5.281   7.640  0.9092 -0.0859  0.2383
   32SAPC  H11X 4345   1.556   5.210   7.694  1.2836 -1.0144 -0.4939
   32SAPC  H11Y 4346   1.566   5.376   7.636 -0.7626 -1.0592 -0.8710
   32SAPC  C312 4347   1.742   5.286   7.739 -0.1755  0.5090 -0.2110
   32SAPC  H12X 4348   1.812   5.368   7.714 -0.0091  1.1010  1.9816
   32SAPC  H12Y 4349   1.791   5.188   7.760 -1.6564  0.1868  2.1683
   32SAPC  C313 4350   1.698   5.316   7.887  0.0980  0.5568 -0.1071
   32SAPC  H13X 4351   1.627   5.236   7.918  1.1942  0.0921  1.3219
   32SAPC  H13Y 4352   1.636   5.408   7.887 -0.8383 -0.0392 -1.4921
   32SAPC  C314 4353   1.816   5.318   7.985 -0.1360 -0.1517 -0.3481
   32SAPC  H14X 4354   1.894   5.379   7.935 -0.4737  0.8004  0.2571
   32SAPC  H14Y 4355   1.852   5.213   7.984  1.6394  0.4227  0.0658
   32SAPC  C315 4356   1.761   5.381   8.117  0.3523  0.2157  0.1988
   32SAPC  H15X 4357   1.664   5.337   8.147  0.9104  1.1195  3.8563
   32SAPC  H15Y 4358   1.747   5.490   8.101 -0.6078  0.2797  1.3517
   32SAPC  C316 4359   1.852   5.365   8.242 -0.2097 -0.2922  0.7481
   32SAPC  H16X 4360   1.791   5.399   8.328  0.6674  0.7291  0.9896
   32SAPC  H16Y 4361   1.945   5.426   8.243 -0.7747  0.5894  1.6470
   32SAPC  C317 4362   1.903   5.221   8.261  0.4020 -0.0869  0.4046
   32SAPC  H17X 4363   1.966   5.199   8.172 -1.1852 -4.3873  0.1352
   32SAPC  H17Y 4364   1.815   5.155   8.254  0.7130 -0.3287 -1.9621
   32SAPC  C318 4365   1.981   5.190   8.389  0.3416 -0.2850 -0.6484
   32SAPC  H18X 4366   2.089   5.203   8.368  1.0121 -1.5427  1.7209
   32SAPC  H18Y 4367   1.964   5.081   8.406 -0.2018 -0.1701 -0.4311
   32SAPC  H18Z 4368   1.951   5.256   8.473 -1.0348 -1.6161 -0.0293
   33POPC     N 4369   3.764   1.936  11.107 -0.2169 -0.1042  0.5789
   33POPC   C12 4370   3.687   1.881  10.986  0.2895  0.0607 -0.4038
   33POPC  H12A 4371   3.622   1.959  10.949  0.9885  0.6955 -0.3197
   33POPC  H12B 4372   3.625   1.796  11.011 -0.2117  0.8294  1.0714
   33POPC   C13 4373   3.850   2.057  11.071  0.2841  0.3956 -0.2518
   33POPC  H13A 4374   3.927   2.028  11.002  0.4370 -0.2253  0.1696
   33POPC  H13B 4375   3.796   2.134  11.019 -0.8427 -1.4915 -2.0291
   33POPC  H13C 4376   3.907   2.086  11.158  2.0084 -0.1795 -1.1475
   33POPC   C14 4377   3.676   1.976  11.218  0.2673 -0.1063 -0.7933
   33POPC  H14A 4378   3.613   2.058  11.187  1.6407  1.2158 -0.2254
   33POPC  H14B 4379   3.616   1.896  11.258  0.6771  0.2090  0.4828
   33POPC  H14C 4380   3.733   2.016  11.300 -2.5293  1.0128  0.7306
   33POPC   C15 4381   3.858   1.834  11.156 -0.2428  0.8462 -0.2859
   33POPC  H15A 4382   3.813   1.746  11.200  3.6417 -1.0704  0.2451
   33POPC  H15B 4383   3.926   1.879  11.226  1.6950 -1.1395 -0.8096
   33POPC  H15C 4384   3.917   1.797  11.074 -0.2066  0.8882 -0.2791
   33POPC   C11 4385   3.768   1.833  10.862  0.5931  0.4361  1.1055
   33POPC  H11A 4386   3.839   1.914  10.837  0.4833  0.0925 -0.4252
   33POPC  H11B 4387   3.701   1.822  10.773  1.8522 -1.5984  0.3321
   33POPC     P 4388   3.942   1.660  10.782  0.0492  0.1868  0.1571
   33POPC   O13 4389   3.974   1.516  10.815  0.4213 -0.8548 -0.3361
   33POPC   O14 4390   4.051   1.757  10.796  0.6497  0.1523 -0.0916
   33POPC   O12 4391   3.827   1.706  10.880  0.3099  0.1826 -0.3035
   33POPC   O11 4392   3.869   1.670  10.642  0.6927  0.1374  0.0483
   33POPC    C1 4393   3.783   1.572  10.583 -0.1547 -0.7356  0.0530
   33POPC    HA 4394   3.726   1.511  10.656  1.5107 -0.9644  1.2211
   33POPC    HB 4395   3.725   1.636  10.513  0.2704 -0.7827 -0.3479
   33POPC    C2 4396   3.869   1.467  10.500  0.4188  0.7216  0.4395
   33POPC    HS 4397   3.933   1.416  10.575 -0.1350 -0.9283 -0.1645
   33POPC   O21 4398   3.934   1.528  10.379  0.1836  0.0374  0.7929
   33POPC   C21 4399   4.060   1.562  10.391  0.2766 -0.2565 -0.7035
   33POPC   O22 4400   4.128   1.536  10.486  0.3409  0.0565 -0.0889
   33POPC   C22 4401   4.106   1.630  10.255  0.0563 -0.6975  0.5495
   33POPC   H2R 4402   4.014   1.679  10.216  1.5033  1.4378 -0.3545
   33POPC   H2S 4403   4.132   1.546  10.186 -0.9799 -1.8623  1.5149
   33POPC    C3 4404   3.781   1.350  10.444  0.6470  0.7606 -1.2283
   33POPC    HX 4405   3.719   1.315  10.530 -0.2574  0.5278 -1.9622
   33POPC    HY 4406   3.849   1.269  10.411  2.8756  0.5947  3.1033
   33POPC   O31 4407   3.703   1.403  10.342  0.2803 -0.2300 -0.0862
   33POPC   C31 4408   3.721   1.383  10.219 -0.0018 -0.1590 -1.0731
   33POPC   O32 4409   3.799   1.300  10.173 -0.4617 -0.2614  0.0096
   33POPC   C32 4410   3.631   1.479  10.144  0.3635  0.2780 -0.6467
   33POPC   H2X 4411   3.632   1.576  10.198 -2.2463  0.6282 -1.1045
   33POPC   H2Y 4412   3.527   1.442  10.152  0.9811 -1.5886 -0.6042
   33POPC   C23 4413   4.223   1.724  10.279 -0.1770  0.0975 -0.3579
   33POPC   H3R 4414   4.306   1.653  10.297  0.1883  0.6107  0.0151
   33POPC   H3S 4415   4.200   1.783  10.370 -0.5924  1.2137 -1.1714
   33POPC   C24 4416   4.260   1.816  10.160  0.2908  0.0314  0.1311
   33POPC   H4R 4417   4.364   1.851  10.179 -0.3921  1.5369  1.3920
   33POPC   H4S 4418   4.190   1.901  10.178 -0.3657 -0.6214  0.7444
   33POPC   C25 4419   4.248   1.750  10.022 -0.9442 -0.7237 -0.4645
   33POPC   H5R 4420   4.145   1.733   9.985 -1.6804 -1.0853  1.5881
   33POPC   H5S 4421   4.294   1.650  10.031  0.4559  0.0467  1.8941
   33POPC   C26 4422   4.321   1.844   9.917 -0.5510 -0.7680  0.3377
   33POPC   H6R 4423   4.426   1.812   9.932 -0.9867 -1.9746  0.8897
   33POPC   H6S 4424   4.302   1.948   9.951 -1.6250 -0.7378 -0.3100
   33POPC   C27 4425   4.266   1.825   9.776 -0.6636  0.4311  1.5222
   33POPC   H7R 4426   4.160   1.850   9.753 -1.3999 -3.4419 -0.0137
   33POPC   H7S 4427   4.269   1.717   9.753  1.6293  0.3489  2.0158
   33POPC   C28 4428   4.363   1.902   9.679 -0.2608  0.3145  0.3980
   33POPC   H8R 4429   4.460   1.850   9.677 -2.1035 -3.6638 -4.0964
   33POPC   H8S 4430   4.378   2.005   9.719  1.4165  0.0802  0.4123
   33POPC   C29 4431   4.321   1.891   9.535  0.9604  0.3653  0.2127
   33POPC   H91 4432   4.270   1.976   9.489  1.7279  0.5743 -0.2612
   33POPC  C210 4433   4.345   1.786   9.451  0.4363  0.2300 -0.4402
   33POPC  H101 4434   4.299   1.791   9.351 -0.5155 -0.8177 -0.0806
   33POPC  C211 4435   4.417   1.654   9.480 -0.0216  0.2935 -0.1507
   33POPC  H11R 4436   4.341   1.573   9.470 -2.6528  2.4000  1.5769
   33POPC  H11S 4437   4.464   1.668   9.579  0.7196 -1.1453 -0.2557
   33POPC  C212 4438   4.517   1.639   9.365  0.5092  0.1056  0.3025
   33POPC  H12R 4439   4.577   1.553   9.401 -1.0947  0.0198  3.0263
   33POPC  H12S 4440   4.581   1.729   9.352  4.1479 -2.0908  1.4490
   33POPC  C213 4441   4.445   1.600   9.234  0.1698  0.1204  0.3240
   33POPC  H13R 4442   4.403   1.691   9.186 -0.5389 -0.0241  0.6542
   33POPC  H13S 4443   4.357   1.537   9.259  0.1364 -0.3014 -0.7922
   33POPC  C214 4444   4.515   1.517   9.133 -0.8218  0.4194 -0.8103
   33POPC  H14R 4445   4.559   1.422   9.171  0.4806  0.4473 -2.1490
   33POPC  H14S 4446   4.604   1.572   9.096 -0.7083 -0.4996 -1.9717
   33POPC  C215 4447   4.426   1.484   9.010 -0.5472  0.3460  0.0801
   33POPC  H15R 4448   4.383   1.579   8.973  1.3629  0.4313 -2.0666
   33POPC  H15S 4449   4.347   1.414   9.045  0.0956  0.0990  1.0846
   33POPC  C216 4450   4.505   1.417   8.898 -0.2091  0.1539  0.0976
   33POPC  H16R 4451   4.560   1.330   8.941 -1.5470 -0.4091  0.7253
   33POPC  H16S 4452   4.578   1.490   8.858 -0.4087 -0.0867 -0.7135
   33POPC  C217 4453   4.410   1.376   8.790  0.6001 -0.4552  0.1900
   33POPC  H17R 4454   4.357   1.463   8.748  0.7175 -1.0100 -1.1831
   33POPC  H17S 4455   4.337   1.299   8.823  0.3466 -1.8293 -3.0904
   33POPC  C218 4456   4.473   1.299   8.679  0.1234  0.2042  0.0715
   33POPC  H18R 4457   4.499   1.192   8.696  1.0009  0.3644 -0.2395
   33POPC  H18S 4458   4.557   1.353   8.631  0.1156  0.6007  0.4862
   33POPC  H18T 4459   4.391   1.295   8.604 -0.8324  2.3944  0.8957
   33POPC   C33 4460   3.670   1.498   9.994 -0.0459  0.2568  0.0520
   33POPC   H3X 4461   3.583   1.522   9.930  0.1901  0.7495 -0.0948
   33POPC   H3Y 4462   3.706   1.401   9.955  1.2624  1.6969 -2.6161
   33POPC   C34 4463   3.789   1.607   9.987  0.5495  1.0616 -0.2890
   33POPC   H4X 4464   3.878   1.560  10.034 -0.6508 -1.0392  0.0219
   33POPC   H4Y 4465   3.761   1.705  10.031  0.1751  1.6514 -1.7600
   33POPC   C35 4466   3.846   1.639   9.843 -0.1727  0.1090 -0.2802
   33POPC   H5X 4467   3.900   1.547   9.812 -0.1861  0.0316 -0.0750
   33POPC   H5Y 4468   3.925   1.717   9.852 -0.0535 -0.0154 -0.2365
   33POPC   C36 4469   3.736   1.690   9.744 -0.4235  0.3040  0.0522
   33POPC   H6X 4470   3.677   1.774   9.785  1.6215  0.6896  2.4324
   33POPC   H6Y 4471   3.655   1.615   9.731 -2.1883  2.2435 -0.7698
   33POPC   C37 4472   3.793   1.729   9.604  0.7741  0.3225  0.7207
   33POPC   H7X 4473   3.859   1.649   9.564 -0.2502  0.4329 -1.2953
   33POPC   H7Y 4474   3.852   1.822   9.597 -0.3349  0.9526 -0.7915
   33POPC   C38 4475   3.682   1.747   9.496  0.0570  0.2749  0.3162
   33POPC   H8X 4476   3.603   1.820   9.523 -0.2840  1.1377 -2.5995
   33POPC   H8Y 4477   3.628   1.650   9.491 -0.5127  0.5686  0.7067
   33POPC   C39 4478   3.730   1.788   9.354  0.6663  0.1611  0.1379
   33POPC   H9X 4479   3.795   1.876   9.372  1.5083 -0.2316 -0.8871
   33POPC   H9Y 4480   3.646   1.816   9.287  0.6045  2.3060  1.0148
   33POPC  C310 4481   3.810   1.690   9.269 -0.3038 -0.2848  0.1910
   33POPC  H10X 4482   3.768   1.587   9.272 -4.5442  1.1998 -0.0539
   33POPC  H10Y 4483   3.908   1.700   9.319 -0.1041  0.8667 -0.4119
   33POPC  C311 4484   3.829   1.741   9.117 -0.5113 -0.0411 -0.5309
   33POPC  H11X 4485   3.741   1.718   9.054 -1.2860  1.9752 -0.2348
   33POPC  H11Y 4486   3.910   1.675   9.080 -1.4594 -2.3733  1.2860
   33POPC  C312 4487   3.876   1.891   9.108  0.5403  0.1900  0.2795
   33POPC  H12X 4488   3.924   1.915   9.205 -0.0439 -1.3832  0.9974
   33POPC  H12Y 4489   3.785   1.956   9.104  1.5995  1.6709 -2.3419
   33POPC  C313 4490   3.951   1.912   8.973  0.3213 -0.5530 -0.0530
   33POPC  H13X 4491   3.988   1.815   8.932  1.3207 -0.4248  0.5194
   33POPC  H13Y 4492   4.042   1.966   9.006  0.7722 -1.3961  0.1219
   33POPC  C314 4493   3.868   1.984   8.863  0.1438 -0.1638  0.1882
   33POPC  H14X 4494   3.936   2.003   8.778  1.3704  0.0109  1.1810
   33POPC  H14Y 4495   3.839   2.085   8.898  1.7755  0.6251 -0.6115
   33POPC  C315 4496   3.743   1.907   8.817  0.0778  1.1435 -1.0804
   33POPC  H15X 4497   3.683   1.914   8.910  1.7867 -1.6741  0.3764
   33POPC  H15Y 4498   3.775   1.802   8.799 -1.0356  0.9465 -2.0453
   33POPC  C316 4499   3.675   1.974   8.696  0.3196 -0.0790  0.4625
   33POPC  H16X 4500   3.736   1.958   8.605 -1.9827 -0.4884 -1.0906
   33POPC  H16Y 4501   3.679   2.084   8.713  1.3818  0.0827 -0.6645
   33POPC  H16Z 4502   3.575   1.936   8.669 -0.1160  0.9282  0.6131
   34POPC     N 4503   3.838   0.461  11.172  0.5242  0.1753 -0.1054
   34POPC   C12 4504   3.975   0.526  11.183  0.4736 -0.0468 -0.0966
   34POPC  H12A 4505   4.046   0.454  11.146 -1.2911 -0.5631 -2.6906
   34POPC  H12B 4506   3.997   0.536  11.288  2.4464  3.1349 -0.6620
   34POPC   C13 4507   3.722   0.558  11.202  0.1738  0.1705 -0.5703
   34POPC  H13A 4508   3.723   0.584  11.307  1.6006  1.8372 -0.9461
   34POPC  H13B 4509   3.726   0.654  11.154 -0.0669  0.0213 -0.8925
   34POPC  H13C 4510   3.628   0.518  11.168  1.4994 -1.8256 -2.0772
   34POPC   C14 4511   3.821   0.411  11.036  0.4299 -0.1779 -0.0951
   34POPC  H14A 4512   3.851   0.477  10.956  0.0567 -0.4431 -0.4593
   34POPC  H14B 4513   3.889   0.326  11.030  2.1045  0.6273  4.2167
   34POPC  H14C 4514   3.723   0.370  11.018  0.5715 -0.8315  0.5737
   34POPC   C15 4515   3.827   0.347  11.271 -0.1092 -0.4276 -0.4321
   34POPC  H15A 4516   3.722   0.320  11.279 -1.0004  2.3685 -1.3546
   34POPC  H15B 4517   3.871   0.377  11.364  1.3050  0.5391 -1.3747
   34POPC  H15C 4518   3.888   0.269  11.227 -1.8649 -2.2138  0.1496
   34POPC   C11 4519   3.993   0.664  11.110  0.3392 -0.1934  0.2712
   34POPC  H11A 4520   4.101   0.689  11.110  0.1497  1.1122 -2.9245
   34POPC  H11B 4521   3.935   0.743  11.163 -0.9014 -0.0814 -1.1563
   34POPC     P 4522   4.071   0.651  10.859  0.3211  0.1399 -0.1766
   34POPC   O13 4523   4.146   0.526  10.884 -0.6422  0.0867  0.3391
   34POPC   O14 4524   4.144   0.778  10.867 -0.0383 -0.1751 -0.4789
   34POPC   O12 4525   3.956   0.665  10.970 -0.4482  0.6404  0.6910
   34POPC   O11 4526   3.990   0.647  10.723  0.2933  0.0595  0.2458
   34POPC    C1 4527   3.886   0.561  10.696 -0.3925 -0.3965  0.0710
   34POPC    HA 4528   3.788   0.608  10.720 -1.7746 -2.0328 -1.9734
   34POPC    HB 4529   3.903   0.467  10.753  0.7605 -0.3568 -0.1805
   34POPC    C2 4530   3.885   0.514  10.539  0.2649 -0.3193 -0.6493
   34POPC    HS 4531   3.980   0.457  10.533  1.4650  1.4669  0.4744
   34POPC   O21 4532   3.873   0.643  10.467  0.3188  0.1381 -0.1960
   34POPC   C21 4533   3.933   0.632  10.346  0.3208  0.9656 -0.5787
   34POPC   O22 4534   4.028   0.559  10.324 -0.6773 -0.6892  0.1525
   34POPC   C22 4535   3.859   0.721  10.251 -0.5594  0.4162 -0.4004
   34POPC   H2R 4536   3.891   0.825  10.273  0.0427 -0.3163  2.4945
   34POPC   H2S 4537   3.750   0.709  10.270 -0.2806  0.4118  1.3660
   34POPC    C3 4538   3.765   0.421  10.503 -0.2435 -0.3761  0.2066
   34POPC    HX 4539   3.666   0.472  10.502  0.1863  0.5292 -1.9575
   34POPC    HY 4540   3.753   0.347  10.585  1.9302  1.8245  2.7074
   34POPC   O31 4541   3.795   0.349  10.376 -0.2794 -0.6042  0.4258
   34POPC   C31 4542   3.706   0.350  10.269  0.4081 -0.5630  0.0039
   34POPC   O32 4543   3.626   0.434  10.250  0.2595  0.4191 -0.2395
   34POPC   C32 4544   3.744   0.229  10.173  0.1810 -0.3290  0.0412
   34POPC   H2X 4545   3.725   0.137  10.232  0.1368  0.1201  0.7337
   34POPC   H2Y 4546   3.850   0.250  10.145  0.0762  0.7865  0.4716
   34POPC   C23 4547   3.862   0.684  10.098  0.1077 -0.0701 -0.2179
   34POPC   H3R 4548   3.874   0.575  10.081 -0.9131 -0.1110 -0.7232
   34POPC   H3S 4549   3.958   0.730  10.067  0.7525  0.8712  2.7761
   34POPC   C24 4550   3.734   0.740  10.029 -0.5618  0.4063  0.1950
   34POPC   H4R 4551   3.640   0.698  10.070 -0.7294 -0.7777 -1.2880
   34POPC   H4S 4552   3.725   0.690   9.930 -2.3244  0.1290  0.4770
   34POPC   C25 4553   3.731   0.891  10.024 -0.1436 -0.0167  0.4892
   34POPC   H5R 4554   3.804   0.930   9.950 -1.0100  1.3949  0.3412
   34POPC   H5S 4555   3.768   0.939  10.116  1.9067  1.1190 -0.8481
   34POPC   C26 4556   3.596   0.952   9.976  0.4463  0.6598 -0.3130
   34POPC   H6R 4557   3.526   0.959  10.062 -0.2920 -3.1756 -0.4343
   34POPC   H6S 4558   3.544   0.888   9.902 -0.6333  1.7646 -0.5352
   34POPC   C27 4559   3.624   1.094   9.920 -0.4390  0.3795 -0.0830
   34POPC   H7R 4560   3.686   1.140  10.000 -1.5750  1.5608  0.1514
   34POPC   H7S 4561   3.530   1.153   9.908  0.1788  0.9717 -2.6677
   34POPC   C28 4562   3.690   1.097   9.784 -0.7561  0.0782 -0.0970
   34POPC   H8R 4563   3.618   1.064   9.706 -0.3132 -1.5584  0.1408
   34POPC   H8S 4564   3.775   1.028   9.770 -2.7805 -2.0483 -3.1469
   34POPC   C29 4565   3.755   1.229   9.750  0.2905  0.7343 -0.8042
   34POPC   H91 4566   3.843   1.251   9.813  0.8816 -2.0693 -0.5192
   34POPC  C210 4567   3.715   1.316   9.657  0.5832 -0.3417  0.5566
   34POPC  H101 4568   3.755   1.418   9.667  1.5740 -0.8483  2.3212
   34POPC  C211 4569   3.595   1.289   9.566 -0.7780  0.2662 -0.5257
   34POPC  H11R 4570   3.497   1.313   9.613 -1.6862 -1.9957 -1.1011
   34POPC  H11S 4571   3.596   1.181   9.541 -0.0734 -0.3503  1.9474
   34POPC  C212 4572   3.614   1.349   9.424 -0.1399  0.8511  0.4053
   34POPC  H12R 4573   3.718   1.334   9.388 -0.7818 -1.7119 -0.5712
   34POPC  H12S 4574   3.587   1.457   9.431  0.9347  1.0853  1.2451
   34POPC  C213 4575   3.529   1.273   9.317  0.2486 -0.6320 -0.1479
   34POPC  H13R 4576   3.428   1.301   9.353  0.9766 -0.2141  1.6579
   34POPC  H13S 4577   3.537   1.162   9.318 -4.0554 -1.1191  0.0618
   34POPC  C214 4578   3.555   1.320   9.172 -0.3271 -0.3061  0.3433
   34POPC  H14R 4579   3.658   1.289   9.144  0.8711  3.7033 -0.3898
   34POPC  H14S 4580   3.554   1.431   9.163  1.7668 -0.3305 -0.8382
   34POPC  C215 4581   3.474   1.252   9.067  0.9765 -0.8690  0.1336
   34POPC  H15R 4582   3.368   1.283   9.085  0.8454 -1.0674 -0.2883
   34POPC  H15S 4583   3.480   1.142   9.080  0.6438 -0.6436  2.7493
   34POPC  C216 4584   3.496   1.304   8.926  0.1590  0.4075  0.0936
   34POPC  H16R 4585   3.598   1.271   8.897 -0.7461  0.0860 -3.0697
   34POPC  H16S 4586   3.485   1.415   8.926 -0.4855  0.3817  2.1427
   34POPC  C217 4587   3.408   1.260   8.802  0.5732 -0.1667 -0.9811
   34POPC  H17R 4588   3.299   1.256   8.824  0.3687 -1.4260 -2.0621
   34POPC  H17S 4589   3.423   1.152   8.782  0.1712 -0.4405  0.1343
   34POPC  C218 4590   3.431   1.332   8.671  0.1347 -0.1732 -0.1634
   34POPC  H18R 4591   3.405   1.439   8.685 -1.1037 -0.5389  0.5593
   34POPC  H18S 4592   3.362   1.285   8.597 -0.7992 -0.5746  0.9120
   34POPC  H18T 4593   3.537   1.316   8.643  0.2056 -1.9751  0.9249
   34POPC   C33 4594   3.643   0.237  10.049  0.2517 -0.2695 -0.9616
   34POPC   H3X 4595   3.653   0.345  10.026 -2.1528  0.5235  1.1882
   34POPC   H3Y 4596   3.541   0.209  10.083  0.5168  0.2308  0.3331
   34POPC   C34 4597   3.681   0.166   9.927 -0.3687  0.3336  0.3362
   34POPC   H4X 4598   3.594   0.183   9.860 -0.5220 -1.2603  0.0878
   34POPC   H4Y 4599   3.667   0.055   9.928  0.7589  0.1768 -0.1865
   34POPC   C35 4600   3.825   0.202   9.866 -0.3157  0.5844  0.4301
   34POPC   H5X 4601   3.905   0.183   9.940 -0.0677  2.2532  0.6317
   34POPC   H5Y 4602   3.829   0.307   9.830  1.1929  0.5400  0.3868
   34POPC   C36 4603   3.867   0.122   9.736  0.6994  0.5981  0.4987
   34POPC   H6X 4604   3.854   0.015   9.762  1.3954 -0.0961 -1.7822
   34POPC   H6Y 4605   3.973   0.130   9.701  0.5442 -1.5378 -0.5861
   34POPC   C37 4606   3.766   0.152   9.612  0.0945  0.4902 -0.5766
   34POPC   H7X 4607   3.663   0.131   9.647 -0.0096  0.5514 -0.8502
   34POPC   H7Y 4608   3.783   0.069   9.539  0.4438 -2.1742  2.3046
   34POPC   C38 4609   3.778   0.297   9.555  0.1528  0.1768 -0.0150
   34POPC   H8X 4610   3.886   0.314   9.570  0.7611 -2.0708 -1.3045
   34POPC   H8Y 4611   3.723   0.357   9.630  0.2461  0.6547 -0.3220
   34POPC   C39 4612   3.728   0.303   9.412 -0.5734 -0.3953  0.1124
   34POPC   H9X 4613   3.631   0.251   9.393 -0.7098  0.0610 -0.4818
   34POPC   H9Y 4614   3.803   0.266   9.339 -2.5831 -1.7974 -1.3897
   34POPC  C310 4615   3.705   0.448   9.367 -0.1063 -0.3405 -0.0334
   34POPC  H10X 4616   3.805   0.493   9.348 -0.2614 -0.6256 -1.6753
   34POPC  H10Y 4617   3.655   0.510   9.445 -1.0355 -0.5874 -0.4188
   34POPC  C311 4618   3.631   0.466   9.229 -0.5813 -0.2190 -0.4664
   34POPC  H11X 4619   3.588   0.569   9.221  1.3930  0.5023 -2.8866
   34POPC  H11Y 4620   3.537   0.409   9.247  0.3031 -1.7518 -0.6343
   34POPC  C312 4621   3.698   0.437   9.101  0.1863 -0.2761  0.1588
   34POPC  H12X 4622   3.739   0.333   9.098  1.2218  0.1455 -0.6508
   34POPC  H12Y 4623   3.778   0.508   9.073  1.4945 -1.3788  0.9387
   34POPC  C313 4624   3.594   0.436   8.984  0.5915 -0.7014 -0.1195
   34POPC  H13X 4625   3.537   0.531   8.985 -0.7953 -1.5173  0.1053
   34POPC  H13Y 4626   3.521   0.355   9.006  0.4897 -0.5863 -0.0395
   34POPC  C314 4627   3.649   0.431   8.848  0.8068  0.3411  0.6490
   34POPC  H14X 4628   3.737   0.363   8.844 -0.2513 -1.0712  0.4733
   34POPC  H14Y 4629   3.680   0.535   8.826 -0.5958  0.8614  1.0523
   34POPC  C315 4630   3.548   0.393   8.742 -0.0387  0.8214  0.1225
   34POPC  H15X 4631   3.460   0.460   8.754 -0.7508  0.2279 -1.4104
   34POPC  H15Y 4632   3.513   0.290   8.762 -1.7797  1.2851 -0.3243
   34POPC  C316 4633   3.598   0.398   8.593 -0.9938 -0.2833  0.3842
   34POPC  H16X 4634   3.663   0.308   8.586 -1.3728 -0.5547  0.3472
   34POPC  H16Y 4635   3.673   0.479   8.580  1.5562 -2.4357  0.8554
   34POPC  H16Z 4636   3.516   0.386   8.519 -1.7847  0.4185  1.1308
   35POPC     N 4637   4.025   6.064  11.232  0.1998 -0.0473 -0.5544
   35POPC   C12 4638   3.941   5.988  11.135 -0.9558  0.3705  0.9596
   35POPC  H12A 4639   3.883   5.919  11.193  1.2418 -0.4665  2.2978
   35POPC  H12B 4640   4.003   5.920  11.078 -2.5430 -0.9498  0.7373
   35POPC   C13 4641   4.110   6.172  11.172  0.3476  0.1196  0.2502
   35POPC  H13A 4642   4.181   6.138  11.099 -1.6464 -1.0005 -1.2677
   35POPC  H13B 4643   4.045   6.240  11.118 -0.4691  0.2672  1.3822
   35POPC  H13C 4644   4.156   6.225  11.254 -2.3502  0.9071  1.3755
   35POPC   C14 4645   3.928   6.125  11.325 -0.0238 -0.0198 -0.3669
   35POPC  H14A 4646   3.978   6.174  11.408 -0.6230  0.7219 -0.4360
   35POPC  H14B 4647   3.863   6.196  11.276 -0.9256  2.5071  3.8988
   35POPC  H14C 4648   3.851   6.060  11.363 -0.4229 -0.5839 -2.0654
   35POPC   C15 4649   4.110   5.961  11.299 -0.3679  0.5748  0.4374
   35POPC  H15A 4650   4.054   5.879  11.341 -0.5164  0.0589 -0.7575
   35POPC  H15B 4651   4.163   5.983  11.391  0.0117  1.9374 -0.0811
   35POPC  H15C 4652   4.177   5.920  11.226 -1.6427  1.0220 -1.0370
   35POPC   C11 4653   3.857   6.063  11.034 -0.7999  0.2190 -0.5343
   35POPC  H11A 4654   3.788   6.134  11.085 -0.3865 -0.2647  0.7506
   35POPC  H11B 4655   3.779   5.993  10.998 -0.3429 -0.5749 -0.0117
   35POPC     P 4656   3.984   6.040  10.808  0.1675 -0.5684  0.6833
   35POPC   O13 4657   4.048   5.918  10.862 -0.1086 -0.2673  0.1902
   35POPC   O14 4658   4.073   6.124  10.729 -0.0257  0.5042  0.3254
   35POPC   O12 4659   3.935   6.129  10.933  0.6218 -0.4020 -0.7558
   35POPC   O11 4660   3.859   6.002  10.726  0.2951 -0.1163 -0.2490
   35POPC    C1 4661   3.746   6.079  10.678 -0.5405  0.0528  0.4710
   35POPC    HA 4662   3.761   6.188  10.696  1.0383  0.3330 -1.9813
   35POPC    HB 4663   3.648   6.038  10.709 -0.0375 -0.7368  1.0466
   35POPC    C2 4664   3.733   6.094  10.522 -0.0677  0.1678  0.1695
   35POPC    HS 4665   3.638   6.146  10.498 -0.5483 -0.9814 -0.4857
   35POPC   O21 4666   3.737   5.961  10.463  0.4124  0.3963 -1.0223
   35POPC   C21 4667   3.616   5.904  10.460 -0.4978 -0.5122 -0.2136
   35POPC   O22 4668   3.524   5.937  10.530  0.2435  0.2361  0.5464
   35POPC   C22 4669   3.616   5.785  10.363  1.0230 -0.3650  0.3762
   35POPC   H2R 4670   3.535   5.715  10.391 -0.1443  0.2842 -1.2047
   35POPC   H2S 4671   3.706   5.720  10.368  1.7356  0.6143  0.4878
   35POPC    C3 4672   3.847   6.188  10.458  0.5256  0.1963 -0.8525
   35POPC    HX 4673   3.950   6.150  10.476  0.5436  0.4611 -0.3922
   35POPC    HY 4674   3.839   6.283  10.513 -1.0481  0.7168 -1.8957
   35POPC   O31 4675   3.817   6.209  10.318  0.1291 -0.0284 -0.1797
   35POPC   C31 4676   3.874   6.122  10.232  0.6319  0.8348 -0.6543
   35POPC   O32 4677   3.946   6.031  10.262  0.0141  0.3262  0.6287
   35POPC   C32 4678   3.833   6.165  10.090  0.1294  0.0101  0.2499
   35POPC   H2X 4679   3.880   6.264  10.070  0.7745  0.0115  1.6387
   35POPC   H2Y 4680   3.723   6.170  10.080  0.2029 -2.0309 -3.0678
   35POPC   C23 4681   3.579   5.826  10.217 -0.1382  0.1053  0.6073
   35POPC   H3R 4682   3.668   5.872  10.168  0.5904 -0.6834  1.1567
   35POPC   H3S 4683   3.501   5.904  10.219 -0.6686 -0.4135  0.4418
   35POPC   C24 4684   3.527   5.707  10.127 -0.4433  0.0425  0.5177
   35POPC   H4R 4685   3.425   5.684  10.164 -1.2000  1.0955 -0.8163
   35POPC   H4S 4686   3.596   5.620  10.124  0.9755  1.1265 -2.1623
   35POPC   C25 4687   3.481   5.768   9.992  0.0457 -0.6083 -0.6955
   35POPC   H5R 4688   3.451   5.875   9.999  0.6321 -0.4467 -0.5715
   35POPC   H5S 4689   3.392   5.710   9.960 -1.3064  0.5124  0.8318
   35POPC   C26 4690   3.587   5.771   9.882  0.3961  0.0241  0.5982
   35POPC   H6R 4691   3.640   5.674   9.892  2.5415  1.2488  2.1060
   35POPC   H6S 4692   3.659   5.853   9.902 -0.6019  0.7665  1.2609
   35POPC   C27 4693   3.519   5.775   9.742 -0.3776 -0.1249 -0.2145
   35POPC   H7R 4694   3.477   5.873   9.713 -0.5188 -0.2649 -0.4809
   35POPC   H7S 4695   3.435   5.702   9.747  0.2552 -0.7975  1.5145
   35POPC   C28 4696   3.616   5.736   9.632  0.3656 -1.2046  0.0413
   35POPC   H8R 4697   3.639   5.627   9.639 -3.5042 -2.0618  2.6169
   35POPC   H8S 4698   3.714   5.783   9.659 -0.5627  2.1735 -1.9412
   35POPC   C29 4699   3.572   5.791   9.502 -0.2326  0.1377  0.0768
   35POPC   H91 4700   3.556   5.900   9.505  1.0638  0.4321 -1.8284
   35POPC  C210 4701   3.539   5.718   9.391  0.2485 -0.7129 -0.3886
   35POPC  H101 4702   3.503   5.782   9.309 -0.8754 -0.3835  0.3333
   35POPC  C211 4703   3.542   5.568   9.373 -0.1880  1.0043 -0.0740
   35POPC  H11R 4704   3.440   5.538   9.341  0.7764  0.1776 -2.6697
   35POPC  H11S 4705   3.567   5.514   9.467  0.8046 -0.7978 -1.2955
   35POPC  C212 4706   3.639   5.523   9.266 -0.4354 -0.1121  0.1687
   35POPC  H12R 4707   3.643   5.412   9.257  2.6785  0.0603 -2.9437
   35POPC  H12S 4708   3.743   5.558   9.286 -0.9918  1.5653  0.2413
   35POPC  C213 4709   3.601   5.564   9.129  0.2924 -0.6220  0.7793
   35POPC  H13R 4710   3.604   5.673   9.109  1.2356 -0.3340  2.3718
   35POPC  H13S 4711   3.492   5.546   9.118  0.4022 -1.0251  0.3384
   35POPC  C214 4712   3.671   5.473   9.031  0.6362  0.0328  0.4519
   35POPC  H14R 4713   3.656   5.367   9.060  0.3306  0.2154  0.9603
   35POPC  H14S 4714   3.780   5.495   9.026  0.3484  1.3981 -0.3890
   35POPC  C215 4715   3.621   5.498   8.894 -0.3255  0.2251  0.2917
   35POPC  H15R 4716   3.647   5.601   8.861 -0.2287 -0.0977 -0.6790
   35POPC  H15S 4717   3.511   5.495   8.878 -0.3129  2.6327 -0.5499
   35POPC  C216 4718   3.690   5.409   8.795 -0.1843  1.4070 -0.9606
   35POPC  H16R 4719   3.663   5.303   8.812 -0.5386  1.8256  1.4262
   35POPC  H16S 4720   3.799   5.401   8.818 -0.5315  1.4617  0.9218
   35POPC  C217 4721   3.661   5.438   8.651 -0.1726  0.5888  0.4944
   35POPC  H17R 4722   3.722   5.523   8.612 -1.1741 -0.0123 -2.6855
   35POPC  H17S 4723   3.559   5.482   8.650 -0.8169 -0.8769 -0.1633
   35POPC  C218 4724   3.650   5.320   8.555  0.4857  0.2708 -0.1123
   35POPC  H18R 4725   3.628   5.361   8.454 -0.2579 -1.3518 -0.6504
   35POPC  H18S 4726   3.563   5.254   8.572 -0.6974  1.0637 -2.6117
   35POPC  H18T 4727   3.744   5.261   8.561  0.4165 -0.2924 -3.0365
   35POPC   C33 4728   3.877   6.070   9.980  0.0813 -0.4199 -0.0981
   35POPC   H3X 4729   3.821   5.975   9.994 -1.4926  0.3307 -1.0506
   35POPC   H3Y 4730   3.987   6.057   9.971 -0.1729 -1.8395 -1.6849
   35POPC   C34 4731   3.825   6.138   9.848 -0.2974 -0.9129  0.8801
   35POPC   H4X 4732   3.874   6.238   9.840 -0.1967 -1.0022  0.3330
   35POPC   H4Y 4733   3.716   6.159   9.850 -0.0159  1.2566 -1.5871
   35POPC   C35 4734   3.866   6.047   9.730  0.3405  0.6243 -0.7633
   35POPC   H5X 4735   3.828   5.945   9.750  0.8213  0.8853  1.7321
   35POPC   H5Y 4736   3.976   6.044   9.740  0.2992  0.5786 -0.3356
   35POPC   C36 4737   3.822   6.095   9.595  0.0265 -0.9069  0.1420
   35POPC   H6X 4738   3.832   6.205   9.584 -0.8744 -0.9940 -1.8935
   35POPC   H6Y 4739   3.711   6.085   9.598 -0.0424 -1.6506 -2.6381
   35POPC   C37 4740   3.892   6.013   9.489  0.3064 -1.1851  0.0012
   35POPC   H7X 4741   3.877   5.904   9.506  0.6242 -1.1165  0.7792
   35POPC   H7Y 4742   4.001   6.034   9.503 -0.1772  0.2942  1.9904
   35POPC   C38 4743   3.849   6.054   9.357  0.2587  0.1715  0.4733
   35POPC   H8X 4744   3.851   6.163   9.332  0.3492  0.1025  0.1677
   35POPC   H8Y 4745   3.745   6.016   9.347  0.9101 -1.3501 -0.9504
   35POPC   C39 4746   3.938   5.988   9.248 -0.2764  0.7014 -0.2000
   35POPC   H9X 4747   3.906   5.882   9.251 -0.6683  0.8361  1.7719
   35POPC   H9Y 4748   4.047   5.987   9.268 -0.4882  2.8522  1.5188
   35POPC  C310 4749   3.904   6.033   9.108  0.1003 -0.3548  0.0919
   35POPC  H10X 4750   3.930   6.141   9.102  1.4745 -0.6554  0.1483
   35POPC  H10Y 4751   3.793   6.025   9.108 -0.1188  1.7512  1.7964
   35POPC  C311 4752   3.973   5.957   8.992  0.6055  0.9884  0.1107
   35POPC  H11X 4753   4.081   5.979   8.982  0.1523  2.9853 -0.8534
   35POPC  H11Y 4754   3.916   5.984   8.901 -0.6597 -0.8663  0.2784
   35POPC  C312 4755   3.966   5.803   8.995  0.3554 -0.3323  0.3811
   35POPC  H12X 4756   3.859   5.777   9.007  0.5093 -0.5778  1.2688
   35POPC  H12Y 4757   4.016   5.758   9.083 -0.1094  0.0660  0.8487
   35POPC  C313 4758   4.031   5.736   8.875  0.0490  0.2175  0.0828
   35POPC  H13X 4759   4.059   5.633   8.908  1.4040  0.4584 -0.2470
   35POPC  H13Y 4760   4.122   5.792   8.846  0.4423 -1.0079 -1.1545
   35POPC  C314 4761   3.947   5.725   8.753  0.6358 -0.0718  0.3471
   35POPC  H14X 4762   3.913   5.828   8.729  1.3273  0.0756 -0.0147
   35POPC  H14Y 4763   3.854   5.668   8.776  0.3852  0.5553  0.9452
   35POPC  C315 4764   4.006   5.674   8.619 -0.1170 -0.6998  0.1710
   35POPC  H15X 4765   4.010   5.563   8.618 -2.2120 -0.8244 -1.4943
   35POPC  H15Y 4766   4.111   5.709   8.618  0.2731 -1.6289 -3.3119
   35POPC  C316 4767   3.937   5.726   8.492 -0.1336  0.0800 -0.5011
   35POPC  H16X 4768   4.011   5.726   8.409 -0.8771 -2.5021 -1.2672
   35POPC  H16Y 4769   3.910   5.832   8.511 -2.2547 -0.7557  1.7217
   35POPC  H16Z 4770   3.849   5.672   8.451 -1.5814  2.1786 -0.3077
   36POPC     N 4771   3.531   2.570  11.120 -0.0999 -0.2673 -0.1420
   36POPC   C12 4772   3.473   2.650  11.006  0.1469  0.0695 -0.4163
   36POPC  H12A 4773   3.447   2.749  11.040 -1.1196 -0.8875  1.5879
   36POPC  H12B 4774   3.382   2.606  10.970 -0.0044  1.4490 -1.8650
   36POPC   C13 4775   3.640   2.644  11.176  0.3843 -0.3613 -0.6069
   36POPC  H13A 4776   3.601   2.742  11.199  2.3153  0.8090 -1.9929
   36POPC  H13B 4777   3.675   2.598  11.267 -2.2881  0.5814  1.0350
   36POPC  H13C 4778   3.721   2.656  11.105  1.1244  0.2401  0.3161
   36POPC   C14 4779   3.431   2.549  11.232 -0.0754 -0.6250  0.2955
   36POPC  H14A 4780   3.346   2.496  11.191 -0.3813 -0.3147  0.5192
   36POPC  H14B 4781   3.471   2.490  11.313 -2.4973 -2.8832 -0.0121
   36POPC  H14C 4782   3.400   2.642  11.278 -0.6607 -1.4728  1.6789
   36POPC   C15 4783   3.564   2.428  11.081 -0.3473 -0.3764  0.7917
   36POPC  H15A 4784   3.595   2.380  11.172 -0.5556  0.1018  1.1227
   36POPC  H15B 4785   3.634   2.422  10.999  0.8374 -0.7998  1.8157
   36POPC  H15C 4786   3.469   2.384  11.052  0.1628 -0.8924 -0.1450
   36POPC   C11 4787   3.560   2.660  10.883  0.1127  0.6735  0.0313
   36POPC  H11A 4788   3.485   2.711  10.818 -1.1492 -1.5929 -0.3807
   36POPC  H11B 4789   3.573   2.556  10.847 -1.7770 -0.4445  2.3615
   36POPC     P 4790   3.696   2.890  10.886  0.0732  0.3113  0.3273
   36POPC   O13 4791   3.838   2.936  10.878  0.0852  0.8839 -0.2200
   36POPC   O14 4792   3.619   2.939  10.999 -0.0698  0.6757  0.0588
   36POPC   O12 4793   3.684   2.735  10.897 -0.1140 -0.0580 -0.7738
   36POPC   O11 4794   3.642   2.941  10.745  0.1087 -0.5400  0.4248
   36POPC    C1 4795   3.714   2.917  10.628 -0.4211  0.9192  1.3282
   36POPC    HA 4796   3.756   2.814  10.631 -0.0825  0.9901 -0.2921
   36POPC    HB 4797   3.803   2.982  10.616 -1.0802  1.7615  0.9023
   36POPC    C2 4798   3.621   2.932  10.508  0.0341  0.0717  0.0671
   36POPC    HS 4799   3.610   3.038  10.476  0.6410 -0.7008 -3.0776
   36POPC   O21 4800   3.499   2.856  10.526 -0.5006  0.7560  0.0247
   36POPC   C21 4801   3.410   2.929  10.580  0.0704  0.7149 -0.0773
   36POPC   O22 4802   3.427   3.045  10.616 -0.3220 -0.1912  0.2453
   36POPC   C22 4803   3.287   2.834  10.616  0.3019  0.5430 -0.1660
   36POPC   H2R 4804   3.234   2.902  10.686 -0.9689 -1.3890  0.8407
   36POPC   H2S 4805   3.319   2.743  10.671 -1.0082 -0.5413 -1.1260
   36POPC    C3 4806   3.688   2.876  10.381 -0.0109 -0.0455 -0.2316
   36POPC    HX 4807   3.619   2.874  10.293  0.7545 -2.1305 -0.8328
   36POPC    HY 4808   3.706   2.769  10.404 -1.0249 -1.0007 -3.3686
   36POPC   O31 4809   3.809   2.948  10.358  0.5495  0.4103  0.4392
   36POPC   C31 4810   3.889   2.895  10.264  0.5892 -0.3919  0.4365
   36POPC   O32 4811   3.859   2.798  10.194 -0.2287  0.5457  0.0273
   36POPC   C32 4812   4.011   2.988  10.251  0.1867 -0.0566  0.2336
   36POPC   H2X 4813   4.071   2.974  10.344  1.8428 -1.0324 -0.9142
   36POPC   H2Y 4814   3.978   3.094  10.251  0.2354  0.0040 -1.9828
   36POPC   C23 4815   3.212   2.799  10.484 -0.3863 -0.2434 -0.0208
   36POPC   H3R 4816   3.228   2.691  10.464 -0.0530 -0.3414  0.7149
   36POPC   H3S 4817   3.257   2.846  10.395  0.5396 -1.1320 -0.0399
   36POPC   C24 4818   3.068   2.843  10.483  0.5390  0.2400  0.4953
   36POPC   H4R 4819   3.042   2.948  10.457 -1.9986 -0.6276 -0.8121
   36POPC   H4S 4820   3.028   2.836  10.587 -1.5651  0.2649 -0.2697
   36POPC   C25 4821   2.984   2.753  10.393  0.6132 -0.4723 -0.0795
   36POPC   H5R 4822   2.877   2.780  10.404 -0.1510 -3.5573  0.9720
   36POPC   H5S 4823   2.982   2.648  10.427 -3.1651 -0.2845  0.7702
   36POPC   C26 4824   3.030   2.761  10.247  0.7774  0.2150 -0.9054
   36POPC   H6R 4825   3.140   2.745  10.252  0.7401  0.2064 -0.0414
   36POPC   H6S 4826   2.999   2.862  10.213  0.3873 -0.1873 -1.7718
   36POPC   C27 4827   2.973   2.660  10.147  0.2468 -0.5651 -0.6779
   36POPC   H7R 4828   2.964   2.559  10.193  0.3543  0.1980  1.1047
   36POPC   H7S 4829   3.041   2.642  10.061  0.1267 -2.1209 -0.4714
   36POPC   C28 4830   2.835   2.693  10.084 -0.0637  0.1546 -0.3372
   36POPC   H8R 4831   2.770   2.698  10.173  1.2549  0.2889  0.6450
   36POPC   H8S 4832   2.807   2.600  10.031  1.3122  0.7977 -2.3275
   36POPC   C29 4833   2.833   2.820   9.999 -0.0547  0.2469 -0.1735
   36POPC   H91 4834   2.797   2.912  10.047  0.0999 -0.7890  2.0921
   36POPC  C210 4835   2.865   2.823   9.874  0.0890 -0.8023 -0.2453
   36POPC  H101 4836   2.863   2.920   9.822 -2.9066 -1.2056 -1.0929
   36POPC  C211 4837   2.901   2.709   9.781  0.4857 -0.4895 -0.7132
   36POPC  H11R 4838   2.869   2.613   9.826  0.9296 -0.2255  0.1814
   36POPC  H11S 4839   3.011   2.710   9.764  0.8268 -0.7058  1.2839
   36POPC  C212 4840   2.827   2.729   9.651  0.0023 -0.3092 -1.1221
   36POPC  H12R 4841   2.844   2.832   9.612  1.5364  0.0426  0.3763
   36POPC  H12S 4842   2.718   2.717   9.671  0.1245  1.2178  0.8427
   36POPC  C213 4843   2.873   2.627   9.546  1.1636 -0.2038 -0.2644
   36POPC  H13R 4844   2.860   2.525   9.588  0.1315 -0.5706 -1.4359
   36POPC  H13S 4845   2.979   2.651   9.522  0.1066  2.8125 -2.5685
   36POPC  C214 4846   2.792   2.627   9.417 -0.3512 -0.1220  0.0959
   36POPC  H14R 4847   2.807   2.724   9.366  0.8683 -0.2485  0.1965
   36POPC  H14S 4848   2.684   2.615   9.443 -0.6013  2.1683  0.2917
   36POPC  C215 4849   2.832   2.514   9.323  0.3316  0.5940  0.8021
   36POPC  H15R 4850   2.815   2.416   9.373 -1.6259  1.3471  1.7470
   36POPC  H15S 4851   2.942   2.523   9.308 -0.0451  2.5272 -1.3652
   36POPC  C216 4852   2.752   2.524   9.192 -0.2245  0.5448 -0.6080
   36POPC  H16R 4853   2.764   2.626   9.148 -1.2547  0.6962 -0.5745
   36POPC  H16S 4854   2.645   2.528   9.224  0.5001  3.9658  2.0159
   36POPC  C217 4855   2.782   2.410   9.086 -0.9787  0.1839  0.1371
   36POPC  H17R 4856   2.736   2.321   9.133 -0.3540  1.0559  2.5806
   36POPC  H17S 4857   2.893   2.405   9.080 -1.0233 -0.8704  0.0900
   36POPC  C218 4858   2.724   2.430   8.944 -0.7340 -0.6840 -0.5207
   36POPC  H18R 4859   2.764   2.519   8.890 -0.7870 -1.8740 -2.6505
   36POPC  H18S 4860   2.614   2.446   8.949 -0.4677  1.8680 -1.2860
   36POPC  H18T 4861   2.749   2.345   8.878  2.1811 -0.3274  0.0216
   36POPC   C33 4862   4.105   2.938  10.135 -0.0592 -0.3112 -0.2722
   36POPC   H3X 4863   4.104   2.827  10.128 -2.0937 -0.3962  0.6699
   36POPC   H3Y 4864   4.208   2.979  10.148  0.3240 -1.7380  1.5951
   36POPC   C34 4865   4.052   2.984   9.997  0.1413 -0.6021 -0.7205
   36POPC   H4X 4866   4.022   3.091   9.993  2.6206  0.1307 -2.4584
   36POPC   H4Y 4867   3.962   2.924   9.971  1.0783 -2.8005  0.7855
   36POPC   C35 4868   4.153   2.962   9.885  0.1113 -0.2779 -0.0319
   36POPC   H5X 4869   4.251   2.996   9.926  0.1199  0.0595 -0.3261
   36POPC   H5Y 4870   4.128   3.027   9.798  1.2779 -0.4761 -0.5317
   36POPC   C36 4871   4.155   2.826   9.830  0.6806 -0.1877 -0.7647
   36POPC   H6X 4872   4.051   2.788   9.837  0.3010  1.1322  1.7607
   36POPC   H6Y 4873   4.210   2.762   9.902  1.6230  2.3971  0.9988
   36POPC   C37 4874   4.205   2.805   9.688  0.3941  0.3144  0.1888
   36POPC   H7X 4875   4.213   2.705   9.640  3.6150  1.4892 -2.0791
   36POPC   H7Y 4876   4.305   2.852   9.675  0.7842 -0.4530  0.3243
   36POPC   C38 4877   4.110   2.857   9.586  0.7721 -0.4240 -0.5981
   36POPC   H8X 4878   4.088   2.963   9.609  0.6208 -0.6230  0.1924
   36POPC   H8Y 4879   4.018   2.795   9.597  0.8477 -0.0813  2.7895
   36POPC   C39 4880   4.173   2.852   9.448 -0.0751  0.1155 -0.4537
   36POPC   H9X 4881   4.229   2.757   9.443 -1.9937 -1.1986  1.0612
   36POPC   H9Y 4882   4.260   2.919   9.435 -0.6217  0.6602 -1.3869
   36POPC  C310 4883   4.070   2.857   9.338 -0.1721 -0.1580 -0.9098
   36POPC  H10X 4884   4.031   2.961   9.350 -0.1428 -0.2335 -0.0603
   36POPC  H10Y 4885   4.001   2.772   9.358  0.3101 -0.2299  0.5864
   36POPC  C311 4886   4.125   2.827   9.200  0.3652 -0.1929 -0.2676
   36POPC  H11X 4887   4.137   2.717   9.207 -0.6368 -0.2464  0.8628
   36POPC  H11Y 4888   4.220   2.883   9.182 -0.2924  1.3108  0.7625
   36POPC  C312 4889   4.020   2.850   9.093  0.3237  0.8943 -0.5249
   36POPC  H12X 4890   3.929   2.800   9.133  0.3964  0.5421 -0.7952
   36POPC  H12Y 4891   4.059   2.810   8.997 -1.4028 -2.7277  0.1044
   36POPC  C313 4892   3.980   2.991   9.054  0.1598 -0.0804  0.1567
   36POPC  H13X 4893   4.073   3.049   9.038  1.0582 -1.7526 -1.0914
   36POPC  H13Y 4894   3.940   3.033   9.149 -0.4154  3.2322 -1.4195
   36POPC  C314 4895   3.891   2.997   8.931  0.2606 -0.3878  0.4523
   36POPC  H14X 4896   3.794   2.947   8.953 -0.4310  2.2058  4.1043
   36POPC  H14Y 4897   3.949   2.939   8.856  0.6295 -0.3542  0.7111
   36POPC  C315 4898   3.848   3.132   8.869 -0.1885 -0.2990 -0.6081
   36POPC  H15X 4899   3.898   3.209   8.930  0.8676 -2.8435  1.9733
   36POPC  H15Y 4900   3.740   3.145   8.893 -0.0870 -0.6693  0.0879
   36POPC  C316 4901   3.876   3.133   8.718 -0.0694 -0.6124 -0.2946
   36POPC  H16X 4902   3.983   3.120   8.690  0.1775 -1.2440  0.8434
   36POPC  H16Y 4903   3.825   3.226   8.684  1.3899  0.5874  0.6446
   36POPC  H16Z 4904   3.831   3.049   8.662 -0.0154 -1.6694  1.1903
   37POPC     N 4905   3.582   2.119   6.261  0.6821  0.3685  0.2461
   37POPC   C12 4906   3.486   2.228   6.303 -0.5253 -0.0314 -0.2458
   37POPC  H12A 4907   3.392   2.180   6.327 -0.6551  0.2287 -0.2339
   37POPC  H12B 4908   3.469   2.300   6.224 -1.3213 -0.7502 -0.7482
   37POPC   C13 4909   3.584   2.007   6.364  0.1759  0.3254  0.6067
   37POPC  H13A 4910   3.619   2.040   6.460  0.8400 -2.5380  1.4525
   37POPC  H13B 4911   3.485   1.964   6.370  0.3437 -0.8567 -2.8068
   37POPC  H13C 4912   3.657   1.933   6.334  2.2660  2.1632  0.8900
   37POPC   C14 4913   3.548   2.060   6.127 -0.6611  0.6680  0.0729
   37POPC  H14A 4914   3.632   1.998   6.099 -0.8056  0.2110  0.6395
   37POPC  H14B 4915   3.456   2.004   6.122 -0.2739  0.0322 -0.1197
   37POPC  H14C 4916   3.550   2.133   6.047 -1.6922  0.1854 -0.4149
   37POPC   C15 4917   3.718   2.180   6.245  0.8054 -0.3057 -0.4512
   37POPC  H15A 4918   3.726   2.263   6.177  1.4253  2.5663  2.8370
   37POPC  H15B 4919   3.797   2.112   6.217 -0.7586 -2.8843  1.0516
   37POPC  H15C 4920   3.740   2.223   6.342  0.2471  0.8025 -0.7968
   37POPC   C11 4921   3.511   2.308   6.428  0.0340  0.0183  0.0364
   37POPC  H11A 4922   3.517   2.245   6.518 -3.9640 -0.3209  0.2110
   37POPC  H11B 4923   3.423   2.374   6.442  0.7414  0.9145  0.3794
   37POPC     P 4924   3.612   2.554   6.389 -0.0698  0.2647 -0.0958
   37POPC   O13 4925   3.478   2.587   6.338 -0.3686  0.2779 -0.2477
   37POPC   O14 4926   3.736   2.608   6.327 -0.5650  0.2422 -0.0618
   37POPC   O12 4927   3.619   2.396   6.407  0.1802  0.5007  0.2028
   37POPC   O11 4928   3.610   2.601   6.534  0.2646  0.6492 -0.3806
   37POPC    C1 4929   3.706   2.544   6.624  0.8593  0.1665 -0.0650
   37POPC    HA 4930   3.805   2.591   6.610  0.5750  0.6430 -0.5020
   37POPC    HB 4931   3.711   2.433   6.614 -0.4006 -0.0026  0.8213
   37POPC    C2 4932   3.660   2.566   6.770  0.5736 -0.1867 -0.7172
   37POPC    HS 4933   3.563   2.512   6.783 -0.1871  0.3588 -3.4262
   37POPC   O21 4934   3.665   2.714   6.802  0.2321 -0.1931  0.1216
   37POPC   C21 4935   3.573   2.768   6.874 -0.8263  0.1299 -0.1798
   37POPC   O22 4936   3.471   2.714   6.910 -0.4993  0.2485 -0.5210
   37POPC   C22 4937   3.618   2.904   6.919  1.1340  0.4714 -0.0135
   37POPC   H2R 4938   3.621   2.971   6.831 -3.0074  0.2381 -0.4975
   37POPC   H2S 4939   3.719   2.903   6.967  1.8315 -0.9923 -1.4328
   37POPC    C3 4940   3.763   2.505   6.872 -0.6296  0.3835 -0.4104
   37POPC    HX 4941   3.854   2.567   6.857 -1.5290  1.5396 -1.3403
   37POPC    HY 4942   3.782   2.400   6.843 -3.0144 -0.3727  0.5459
   37POPC   O31 4943   3.705   2.523   7.003 -0.4899  0.0376  0.2556
   37POPC   C31 4944   3.625   2.424   7.037  0.5094 -0.1869 -0.0708
   37POPC   O32 4945   3.591   2.334   6.961 -0.0732 -0.1792  0.4070
   37POPC   C32 4946   3.582   2.443   7.184 -0.2130 -0.5287 -0.3969
   37POPC   H2X 4947   3.522   2.537   7.181 -0.7629 -0.6607  2.7816
   37POPC   H2Y 4948   3.674   2.466   7.242  1.6107  0.1414 -3.3574
   37POPC   C23 4949   3.505   2.964   7.005  0.8469 -0.1985  0.0740
   37POPC   H3R 4950   3.405   2.966   6.955  0.3145  1.6107  1.0919
   37POPC   H3S 4951   3.525   3.071   7.026 -1.1634  0.0945  0.7251
   37POPC   C24 4952   3.485   2.899   7.140 -0.2672  0.5084 -0.1449
   37POPC   H4R 4953   3.582   2.887   7.193  0.9286  0.6026 -2.1717
   37POPC   H4S 4954   3.442   2.799   7.118 -1.3411  1.0525 -0.5783
   37POPC   C25 4955   3.382   2.977   7.226  0.2738 -0.3017 -0.5152
   37POPC   H5R 4956   3.294   2.926   7.183  1.1918 -1.0537 -1.5706
   37POPC   H5S 4957   3.364   3.084   7.202  0.7006  0.0842  0.8049
   37POPC   C26 4958   3.391   2.945   7.375 -0.1877  0.3305 -0.6544
   37POPC   H6R 4959   3.401   2.834   7.378  2.0813  0.4741 -0.7587
   37POPC   H6S 4960   3.300   2.974   7.432 -0.7759 -0.3970 -1.1935
   37POPC   C27 4961   3.510   3.016   7.436  0.2525  0.0967 -0.2619
   37POPC   H7R 4962   3.495   3.125   7.421 -1.8630 -0.2778 -1.2012
   37POPC   H7S 4963   3.603   2.985   7.383 -0.2440 -2.6016  0.3461
   37POPC   C28 4964   3.531   2.971   7.577  0.0190  0.1397 -0.3963
   37POPC   H8R 4965   3.499   2.864   7.582  0.6738 -0.0184  0.7142
   37POPC   H8S 4966   3.457   3.037   7.626  0.7655  3.6665 -3.4949
   37POPC   C29 4967   3.671   3.001   7.630 -0.7204 -0.1839 -0.4501
   37POPC   H91 4968   3.756   3.016   7.562  1.0737 -0.0066  1.6922
   37POPC  C210 4969   3.703   3.005   7.762  0.2018  0.0671  0.7409
   37POPC  H101 4970   3.808   3.034   7.777  0.9867 -1.5158 -1.0880
   37POPC  C211 4971   3.606   2.967   7.872 -0.6932  0.2289  0.2892
   37POPC  H11R 4972   3.672   2.933   7.955 -0.1033  1.9038  0.5571
   37POPC  H11S 4973   3.546   2.880   7.839 -1.3600  0.5956  0.5136
   37POPC  C212 4974   3.537   3.088   7.921  0.4080 -0.5946 -0.0990
   37POPC  H12R 4975   3.491   3.155   7.845  0.6994  0.1577  0.3830
   37POPC  H12S 4976   3.606   3.152   7.980  2.4906 -1.5073 -1.4295
   37POPC  C213 4977   3.417   3.036   8.014 -0.4197 -0.1384 -0.2144
   37POPC  H13R 4978   3.463   2.969   8.089 -1.3762  0.1337  0.6282
   37POPC  H13S 4979   3.350   2.976   7.949  1.8078 -1.2726 -1.5842
   37POPC  C214 4980   3.333   3.156   8.076 -0.8773  0.2679  0.3710
   37POPC  H14R 4981   3.230   3.129   8.043 -1.0022  1.7637 -0.5282
   37POPC  H14S 4982   3.360   3.254   8.032 -1.1241 -0.1800 -0.8284
   37POPC  C215 4983   3.333   3.158   8.228  0.3987  1.0178  0.1404
   37POPC  H15R 4984   3.296   3.060   8.265  0.8932  1.5159  2.0896
   37POPC  H15S 4985   3.271   3.243   8.263 -1.7585  0.1653 -1.3940
   37POPC  C216 4986   3.468   3.174   8.292 -0.1667  0.1732  0.8890
   37POPC  H16R 4987   3.507   3.273   8.259 -0.2444 -0.2236 -0.4358
   37POPC  H16S 4988   3.534   3.099   8.244 -0.9807  0.5022 -0.8019
   37POPC  C217 4989   3.466   3.168   8.439 -0.2386  0.0188 -0.0662
   37POPC  H17R 4990   3.385   3.095   8.462 -2.4810  2.1141 -0.8710
   37POPC  H17S 4991   3.435   3.262   8.490 -0.4395 -0.4886  0.7775
   37POPC  C218 4992   3.606   3.129   8.494  0.4320 -0.3130  0.4969
   37POPC  H18R 4993   3.673   3.210   8.459 -2.1603  1.1630 -1.4545
   37POPC  H18S 4994   3.639   3.029   8.458  1.6760 -0.3879  1.7623
   37POPC  H18T 4995   3.605   3.128   8.605  0.2134  0.9123  0.5160
   37POPC   C33 4996   3.499   2.327   7.250  0.3707 -0.3171  0.4772
   37POPC   H3X 4997   3.530   2.230   7.204  0.8538  0.8138 -1.7164
   37POPC   H3Y 4998   3.393   2.357   7.257  0.3484 -0.7317  2.1849
   37POPC   C34 4999   3.545   2.332   7.392  0.2986 -0.6616  0.0601
   37POPC   H4X 5000   3.527   2.435   7.428  1.0026 -0.1245 -1.0818
   37POPC   H4Y 5001   3.655   2.319   7.405  0.3840 -0.4475 -0.4616
   37POPC   C35 5002   3.486   2.232   7.486 -0.0792  0.3775 -0.4471
   37POPC   H5X 5003   3.502   2.130   7.446 -1.3213 -0.3148  0.7270
   37POPC   H5Y 5004   3.375   2.238   7.486 -0.0459  1.0652 -0.5361
   37POPC   C36 5005   3.536   2.239   7.628  0.6730 -0.6029 -0.4074
   37POPC   H6X 5006   3.639   2.280   7.633  0.7305 -0.8651  0.8247
   37POPC   H6Y 5007   3.533   2.134   7.665  1.8716 -1.1094 -1.6747
   37POPC   C37 5008   3.456   2.334   7.720  0.1679  0.6560  0.0366
   37POPC   H7X 5009   3.350   2.302   7.705  0.7870 -1.5548 -0.0239
   37POPC   H7Y 5010   3.458   2.440   7.687 -2.4130  0.4556 -1.0700
   37POPC   C38 5011   3.498   2.319   7.870 -0.4021  1.4379 -0.3018
   37POPC   H8X 5012   3.606   2.337   7.891 -0.4320 -0.5381  2.0176
   37POPC   H8Y 5013   3.477   2.212   7.894  0.7530  1.1540 -0.4789
   37POPC   C39 5014   3.426   2.408   7.965 -0.4060 -1.2710  0.1905
   37POPC   H9X 5015   3.316   2.400   7.967 -0.5408  0.2469  0.0869
   37POPC   H9Y 5016   3.439   2.509   7.921  0.5103 -1.6488 -0.4395
   37POPC  C310 5017   3.479   2.396   8.116 -0.1277 -0.1869  0.6135
   37POPC  H10X 5018   3.590   2.406   8.115  0.0459 -1.8181 -1.2925
   37POPC  H10Y 5019   3.456   2.298   8.162 -1.6806  0.8805  2.1954
   37POPC  C311 5020   3.431   2.511   8.205 -0.1563 -0.6337 -0.0153
   37POPC  H11X 5021   3.451   2.492   8.313  1.3138 -1.1034 -0.3568
   37POPC  H11Y 5022   3.322   2.503   8.186 -0.1937 -0.1996  0.0122
   37POPC  C312 5023   3.479   2.649   8.163 -0.2518  0.0817 -0.5967
   37POPC  H12X 5024   3.450   2.723   8.241 -1.2266 -1.8085  0.9069
   37POPC  H12Y 5025   3.437   2.685   8.066  0.7837  3.1533 -0.0414
   37POPC  C313 5026   3.631   2.659   8.152 -0.4955 -0.8845  0.4932
   37POPC  H13X 5027   3.651   2.764   8.121 -2.6255 -1.2172 -2.4650
   37POPC  H13Y 5028   3.672   2.596   8.071  1.1836 -0.2748  0.8402
   37POPC  C314 5029   3.708   2.638   8.286 -0.7978  0.4652 -0.2024
   37POPC  H14X 5030   3.713   2.529   8.308 -0.3349  0.3700 -0.7732
   37POPC  H14Y 5031   3.652   2.686   8.369 -1.5586  0.2251 -0.5719
   37POPC  C315 5032   3.838   2.710   8.288 -0.1009 -0.9463  0.8516
   37POPC  H15X 5033   3.818   2.818   8.273  1.8159 -0.8978 -2.5308
   37POPC  H15Y 5034   3.897   2.673   8.201 -1.1683 -1.8148  0.4658
   37POPC  C316 5035   3.911   2.697   8.420 -0.2026  0.6819 -0.3868
   37POPC  H16X 5036   3.848   2.711   8.511 -1.3627 -1.2938 -0.8167
   37POPC  H16Y 5037   3.989   2.773   8.437  1.5569 -1.7080  3.6322
   37POPC  H16Z 5038   3.959   2.597   8.427 -0.3425  0.6330 -0.1307
   38POPC     N 5039   5.356   1.256   6.035  0.0484 -0.4876  0.0537
   38POPC   C12 5040   5.346   1.181   6.166 -0.9553 -0.2040 -0.4354
   38POPC  H12A 5041   5.437   1.198   6.222 -1.3276 -1.6096  0.6647
   38POPC  H12B 5042   5.336   1.075   6.152  1.3908 -0.2175 -2.7273
   38POPC   C13 5043   5.474   1.206   5.954 -0.0563  0.9872  0.1769
   38POPC  H13A 5044   5.562   1.262   5.981 -0.0010  1.5593 -1.1158
   38POPC  H13B 5045   5.485   1.098   5.953 -1.2253  0.8432 -1.0945
   38POPC  H13C 5046   5.452   1.227   5.850 -3.7594 -2.5127  0.0209
   38POPC   C14 5047   5.231   1.245   5.960  0.1242  1.0254  0.8060
   38POPC  H14A 5048   5.149   1.293   6.011 -0.6573 -1.2850  1.8789
   38POPC  H14B 5049   5.247   1.290   5.864  1.8886  1.3357  1.1970
   38POPC  H14C 5050   5.213   1.140   5.941  2.4234  0.7485 -0.1328
   38POPC   C15 5051   5.386   1.398   6.058 -0.1558 -0.3561  0.4488
   38POPC  H15A 5052   5.492   1.401   6.080  0.0642  0.8390 -0.6054
   38POPC  H15B 5053   5.329   1.439   6.140 -1.1902 -0.1120 -0.3690
   38POPC  H15C 5054   5.370   1.457   5.968  1.4420 -0.5125  0.0305
   38POPC   C11 5055   5.231   1.219   6.261  0.0789 -0.9586 -0.0547
   38POPC  H11A 5056   5.232   1.142   6.341  2.0415  0.0838  0.9827
   38POPC  H11B 5057   5.132   1.201   6.213 -0.0180 -2.8313  0.7698
   38POPC     P 5058   5.201   1.373   6.467 -0.4941  0.0650  0.1876
   38POPC   O13 5059   5.073   1.306   6.490 -0.2014 -0.0906 -0.0972
   38POPC   O14 5060   5.212   1.511   6.516 -0.3669  0.0223  0.1818
   38POPC   O12 5061   5.237   1.359   6.311 -0.3104  0.1576 -0.3680
   38POPC   O11 5062   5.312   1.291   6.545  0.0414  0.5660 -0.2426
   38POPC    C1 5063   5.447   1.309   6.498  0.3714  0.7156  0.3462
   38POPC    HA 5064   5.462   1.394   6.428 -0.0187  1.6634  1.3935
   38POPC    HB 5065   5.468   1.217   6.439 -1.8951  0.1438  0.3305
   38POPC    C2 5066   5.546   1.325   6.614 -1.1401 -0.6366 -0.7013
   38POPC    HS 5067   5.651   1.338   6.579 -0.2406 -0.5888  1.8558
   38POPC   O21 5068   5.530   1.220   6.714 -0.1825  0.1341  0.2541
   38POPC   C21 5069   5.596   1.107   6.675  0.0483 -0.4065 -0.0490
   38POPC   O22 5070   5.663   1.096   6.571  0.8095 -0.7768 -0.9954
   38POPC   C22 5071   5.578   0.999   6.782  0.2185  0.2450 -0.4117
   38POPC   H2R 5072   5.481   0.949   6.758 -0.7788  2.1647 -0.6215
   38POPC   H2S 5073   5.582   1.042   6.884 -0.3757 -0.1408 -0.2170
   38POPC    C3 5074   5.504   1.454   6.684  0.3332  0.0839  0.0721
   38POPC    HX 5075   5.403   1.436   6.726  0.0426 -0.4302 -0.8202
   38POPC    HY 5076   5.495   1.538   6.612 -0.0036 -0.9710 -1.1554
   38POPC   O31 5077   5.596   1.497   6.789  0.8619 -0.3209 -0.5020
   38POPC   C31 5078   5.560   1.603   6.853  0.1884 -0.0117 -0.1715
   38POPC   O32 5079   5.464   1.678   6.829 -0.3844 -0.6037  0.0231
   38POPC   C32 5080   5.658   1.625   6.969 -0.8095  0.8923 -0.5996
   38POPC   H2X 5081   5.761   1.623   6.927 -0.8088 -0.0530 -0.5815
   38POPC   H2Y 5082   5.647   1.538   7.038  1.2104  0.0640 -1.2273
   38POPC   C23 5083   5.702   0.903   6.783  0.4694  0.6558  0.1799
   38POPC   H3R 5084   5.794   0.965   6.789  1.0124 -0.1070 -0.0415
   38POPC   H3S 5085   5.709   0.853   6.684  1.7747  0.6140  0.2780
   38POPC   C24 5086   5.695   0.797   6.893  0.2588  0.1633 -0.5534
   38POPC   H4R 5087   5.776   0.726   6.866 -0.0774 -0.9660  1.2109
   38POPC   H4S 5088   5.596   0.748   6.878 -0.1286  0.9673 -0.6651
   38POPC   C25 5089   5.711   0.850   7.041  0.0992 -0.5737  0.0797
   38POPC   H5R 5090   5.644   0.935   7.066  1.0424  0.0953  0.3910
   38POPC   H5S 5091   5.815   0.889   7.044 -0.5403  1.2116  2.7788
   38POPC   C26 5092   5.691   0.742   7.150  0.1934 -0.2124  0.1470
   38POPC   H6R 5093   5.770   0.668   7.129 -1.4273 -2.3566  1.2424
   38POPC   H6S 5094   5.594   0.688   7.140  0.1735  0.1489 -2.1360
   38POPC   C27 5095   5.715   0.789   7.292  0.2426 -0.1389 -0.3908
   38POPC   H7R 5096   5.644   0.862   7.335  2.1591  0.8045  1.3315
   38POPC   H7S 5097   5.809   0.849   7.295 -0.9933  1.8581  0.9564
   38POPC   C28 5098   5.740   0.672   7.392  0.1398 -0.2117 -0.2674
   38POPC   H8R 5099   5.789   0.707   7.485  0.2980 -3.1578  0.8566
   38POPC   H8S 5100   5.811   0.607   7.336 -0.4090  0.2346 -1.5282
   38POPC   C29 5101   5.607   0.599   7.428 -0.2397 -0.4915  1.1943
   38POPC   H91 5102   5.563   0.552   7.339 -0.8684  2.4539 -0.1688
   38POPC  C210 5103   5.541   0.582   7.543 -0.3478  0.0192 -0.3531
   38POPC  H101 5104   5.441   0.537   7.542 -0.2995 -0.1090  0.3202
   38POPC  C211 5105   5.579   0.652   7.668 -0.2889  0.2158 -0.0418
   38POPC  H11R 5106   5.670   0.713   7.650  1.8223 -2.6086  0.3344
   38POPC  H11S 5107   5.613   0.576   7.742 -0.2554  2.4591  2.4196
   38POPC  C212 5108   5.470   0.734   7.727 -0.3390 -0.7341 -0.4015
   38POPC  H12R 5109   5.424   0.803   7.653 -0.3843  0.7459  0.9393
   38POPC  H12S 5110   5.526   0.799   7.798 -1.0682 -0.5912  0.0571
   38POPC  C213 5111   5.357   0.664   7.800  0.0417 -1.1758 -0.3298
   38POPC  H13R 5112   5.387   0.592   7.879 -0.3804 -0.7251  0.2535
   38POPC  H13S 5113   5.299   0.609   7.723  0.2745  0.2535 -1.5686
   38POPC  C214 5114   5.271   0.777   7.859  0.4605  0.1271 -0.5346
   38POPC  H14R 5115   5.230   0.839   7.776 -2.5932  2.7280  2.6172
   38POPC  H14S 5116   5.338   0.834   7.927 -0.1430  0.0223  0.1505
   38POPC  C215 5117   5.153   0.735   7.950  0.5309  0.7544  0.1283
   38POPC  H15R 5118   5.178   0.648   8.014 -1.1708  0.6471  0.6785
   38POPC  H15S 5119   5.061   0.702   7.898  1.4538  1.2009 -1.9314
   38POPC  C216 5120   5.107   0.862   8.032  0.1398 -0.0604  0.0450
   38POPC  H16R 5121   5.059   0.932   7.960 -1.0306  0.4039  1.2337
   38POPC  H16S 5122   5.198   0.907   8.076  1.5497 -2.3041 -0.4431
   38POPC  C217 5123   5.011   0.824   8.133  0.1563  0.2725  0.3460
   38POPC  H17R 5124   5.063   0.755   8.203 -0.0312 -0.2719 -0.0429
   38POPC  H17S 5125   4.919   0.768   8.104 -0.2088  1.3344 -0.5962
   38POPC  C218 5126   4.974   0.945   8.219 -0.4162  0.1131  0.0383
   38POPC  H18R 5127   4.907   1.018   8.170 -1.4166 -0.5508  0.3830
   38POPC  H18S 5128   5.068   0.987   8.261 -0.8020  1.8407 -0.7637
   38POPC  H18T 5129   4.914   0.897   8.299 -0.8041 -1.7511 -1.2954
   38POPC   C33 5130   5.627   1.766   7.036 -0.1848 -0.4850  0.4907
   38POPC   H3X 5131   5.523   1.766   7.074 -0.8600  1.0126 -1.2095
   38POPC   H3Y 5132   5.634   1.849   6.963  1.4257 -0.5486  0.5341
   38POPC   C34 5133   5.724   1.809   7.153  0.6317  0.4120  0.5638
   38POPC   H4X 5134   5.832   1.797   7.126  0.9032  2.7220  0.4692
   38POPC   H4Y 5135   5.707   1.736   7.235 -0.2759 -1.6029 -1.3128
   38POPC   C35 5136   5.699   1.950   7.193  0.9546 -0.4429  0.3316
   38POPC   H5X 5137   5.601   1.975   7.239  0.7841  1.0160 -0.7693
   38POPC   H5Y 5138   5.711   2.021   7.109  0.5305  0.3552  0.9369
   38POPC   C36 5139   5.802   2.007   7.283  0.0541 -0.2870  0.2416
   38POPC   H6X 5140   5.901   2.005   7.233  0.1827 -0.8172  0.5166
   38POPC   H6Y 5141   5.804   1.937   7.369 -2.0950 -1.4391 -0.5649
   38POPC   C37 5142   5.760   2.146   7.333 -0.7339  0.2841  0.0731
   38POPC   H7X 5143   5.659   2.145   7.380 -0.8348  0.8593 -0.1297
   38POPC   H7Y 5144   5.767   2.212   7.244  0.8137  0.7071  0.4917
   38POPC   C38 5145   5.852   2.221   7.434  0.1972  0.2761 -0.2424
   38POPC   H8X 5146   5.960   2.199   7.421 -0.1743 -0.8570 -1.7544
   38POPC   H8Y 5147   5.823   2.180   7.533 -0.3991  0.2502 -0.4199
   38POPC   C39 5148   5.816   2.369   7.445  0.2587  0.1504  0.1009
   38POPC   H9X 5149   5.714   2.386   7.486 -0.3674 -1.4438 -0.7170
   38POPC   H9Y 5150   5.828   2.401   7.339  0.9274 -0.4263  0.0038
   38POPC  C310 5151   5.908   2.451   7.533  0.7159  0.4238 -0.5611
   38POPC  H10X 5152   5.918   2.557   7.499  0.6944  1.6472  2.8052
   38POPC  H10Y 5153   6.015   2.422   7.538  0.0929 -1.8442  0.6800
   38POPC  C311 5154   5.858   2.469   7.677 -0.2338  0.8038 -0.3152
   38POPC  H11X 5155   5.831   2.365   7.708  1.3073  0.3926 -0.2390
   38POPC  H11Y 5156   5.772   2.538   7.682 -0.1844  0.9232 -1.0790
   38POPC  C312 5157   5.965   2.532   7.767 -0.3228  0.4198 -1.0806
   38POPC  H12X 5158   6.040   2.450   7.768 -0.2879  0.4625  0.0872
   38POPC  H12Y 5159   5.928   2.540   7.871 -1.0739 -2.7345 -1.0079
   38POPC  C313 5160   6.015   2.670   7.713  0.2279 -0.3300 -0.8888
   38POPC  H13X 5161   5.919   2.723   7.694 -2.3803 -2.9591  3.3063
   38POPC  H13Y 5162   6.065   2.649   7.616  0.5452  0.3444 -0.8748
   38POPC  C314 5163   6.115   2.749   7.793 -0.2537 -0.0704 -0.1902
   38POPC  H14X 5164   6.212   2.695   7.792 -0.6773 -0.8660  0.2555
   38POPC  H14Y 5165   6.063   2.764   7.891  1.6243 -0.4896  0.9191
   38POPC  C315 5166   6.149   2.892   7.742 -0.3665  0.6878  0.0120
   38POPC  H15X 5167   6.050   2.934   7.712 -0.6415  1.3477  1.7080
   38POPC  H15Y 5168   6.206   2.883   7.647 -0.3847 -0.5052  0.1005
   38POPC  C316 5169   6.217   2.985   7.836 -0.5423 -0.4284 -0.5181
   38POPC  H16X 5170   6.310   2.938   7.875 -1.1221 -0.7098  0.5633
   38POPC  H16Y 5171   6.163   3.003   7.931  0.8202 -2.9497  0.8451
   38POPC  H16Z 5172   6.243   3.083   7.790  2.3787 -0.0980  1.5378
   39POPC     N 5173   0.647   4.283   5.867  0.3772  0.0979  0.2339
   39POPC   C12 5174   0.697   4.310   6.005 -0.1188  0.7107  0.0253
   39POPC  H12A 5175   0.626   4.279   6.080  2.4484 -0.8161  1.9645
   39POPC  H12B 5176   0.695   4.416   6.027 -0.2940  0.3205  2.1059
   39POPC   C13 5177   0.629   4.135   5.851 -0.8473 -0.4047 -0.7622
   39POPC  H13A 5178   0.726   4.092   5.868 -0.5357  0.2266 -0.8826
   39POPC  H13B 5179   0.563   4.101   5.930  1.7122 -1.3633  1.1003
   39POPC  H13C 5180   0.601   4.112   5.749  0.7493 -1.5951 -0.9678
   39POPC   C14 5181   0.513   4.356   5.848  0.0623  0.1754  0.1474
   39POPC  H14A 5182   0.518   4.461   5.873 -1.0243  0.3093 -0.1462
   39POPC  H14B 5183   0.470   4.353   5.749 -0.0611 -0.7614  0.2192
   39POPC  H14C 5184   0.438   4.309   5.910  1.3232 -0.8316  0.9585
   39POPC   C15 5185   0.736   4.331   5.758 -0.0764  0.2917 -0.5581
   39POPC  H15A 5186   0.754   4.437   5.764  0.6366  0.1015  2.7516
   39POPC  H15B 5187   0.700   4.323   5.657  2.0860  2.2903 -1.5759
   39POPC  H15C 5188   0.839   4.304   5.773  0.0062  1.4925  1.4901
   39POPC   C11 5189   0.838   4.260   6.049  0.1424  0.3054  1.4258
   39POPC  H11A 5190   0.871   4.308   6.144  1.3264  1.6787  0.3679
   39POPC  H11B 5191   0.904   4.299   5.968 -0.6623 -1.4192 -0.1274
   39POPC     P 5192   0.817   4.029   6.169  0.0139  0.2666 -0.3703
   39POPC   O13 5193   0.933   3.939   6.191  0.1128 -0.8337 -0.1785
   39POPC   O14 5194   0.687   3.954   6.148 -0.0372 -0.1515 -0.1809
   39POPC   O12 5195   0.843   4.121   6.047 -0.3288  0.6725 -0.0332
   39POPC   O11 5196   0.801   4.119   6.300  0.4757  0.2044 -0.0593
   39POPC    C1 5197   0.734   4.054   6.410  0.0667  0.7198  0.0534
   39POPC    HA 5198   0.801   4.004   6.483  0.2410 -1.2793 -1.4044
   39POPC    HB 5199   0.668   3.971   6.377  1.3344 -0.2762 -0.0605
   39POPC    C2 5200   0.632   4.144   6.479  0.3148 -0.8995 -0.4408
   39POPC    HS 5201   0.612   4.223   6.404 -2.6588 -0.4621  0.6824
   39POPC   O21 5202   0.683   4.191   6.603  0.3123  0.0777  0.1278
   39POPC   C21 5203   0.688   4.317   6.624  0.5707 -0.5058 -0.0786
   39POPC   O22 5204   0.644   4.408   6.557 -0.2613 -0.6919 -0.1049
   39POPC   C22 5205   0.775   4.336   6.739  0.0619 -0.5195 -0.3398
   39POPC   H2R 5206   0.803   4.443   6.749  0.6701 -0.6350 -0.7945
   39POPC   H2S 5207   0.868   4.279   6.718  0.4562 -0.9011  2.1147
   39POPC    C3 5208   0.497   4.069   6.506  0.2110 -0.2423 -0.5690
   39POPC    HX 5209   0.448   4.058   6.407  0.8219 -1.8522 -0.7230
   39POPC    HY 5210   0.440   4.141   6.569  0.9711 -0.3780  0.2911
   39POPC   O31 5211   0.526   3.942   6.562 -0.2949  0.0759 -0.7403
   39POPC   C31 5212   0.424   3.860   6.580 -0.1368 -1.3924 -0.2930
   39POPC   O32 5213   0.316   3.871   6.527 -0.1228  0.4539 -0.5649
   39POPC   C32 5214   0.463   3.769   6.696 -0.0105 -0.4284  0.1687
   39POPC   H2X 5215   0.372   3.708   6.713 -0.2676  0.2412  1.2891
   39POPC   H2Y 5216   0.554   3.711   6.671  1.5711  2.4717 -1.4336
   39POPC   C23 5217   0.710   4.279   6.871 -0.3777 -0.4425  0.0816
   39POPC   H3R 5218   0.681   4.171   6.866 -0.7419 -0.2943 -2.6750
   39POPC   H3S 5219   0.620   4.338   6.897 -0.5503 -0.2075 -1.0079
   39POPC   C24 5220   0.812   4.298   6.985  0.3897  0.2235 -0.4991
   39POPC   H4R 5221   0.870   4.393   6.982 -0.0563  0.7954  3.5005
   39POPC   H4S 5222   0.890   4.221   6.969 -1.4798 -1.9019  0.1108
   39POPC   C25 5223   0.741   4.276   7.120  0.7099 -0.1351 -0.1906
   39POPC   H5R 5224   0.687   4.179   7.111 -1.5749  0.9203  0.9961
   39POPC   H5S 5225   0.658   4.349   7.129 -0.6923 -1.7578  0.7831
   39POPC   C26 5226   0.818   4.280   7.254  0.5341 -0.4682  0.2203
   39POPC   H6R 5227   0.881   4.372   7.261 -0.3826  0.1696  0.1885
   39POPC   H6S 5228   0.889   4.194   7.256  2.5642  1.1153  0.2058
   39POPC   C27 5229   0.732   4.270   7.378  0.2068 -0.3118  0.3445
   39POPC   H7R 5230   0.646   4.201   7.361 -1.6773  2.2867 -1.3450
   39POPC   H7S 5231   0.685   4.369   7.396  0.8572  0.0619  0.0219
   39POPC   C28 5232   0.803   4.229   7.507 -0.2004  0.1700  0.4782
   39POPC   H8R 5233   0.816   4.119   7.519 -0.7569  0.0472 -0.0204
   39POPC   H8S 5234   0.738   4.267   7.588 -0.6648 -0.2056  0.2851
   39POPC   C29 5235   0.928   4.307   7.520 -0.5120  0.1119  0.1920
   39POPC   H91 5236   0.960   4.387   7.452  2.2835 -0.1002  1.1166
   39POPC  C210 5237   1.021   4.276   7.615  0.2885  0.1073 -0.6406
   39POPC  H101 5238   1.103   4.348   7.626 -0.8760  1.6283 -1.5214
   39POPC  C211 5239   1.008   4.168   7.723  0.5205  0.2520 -0.0727
   39POPC  H11R 5240   1.090   4.093   7.726 -0.3165 -0.6535  1.3083
   39POPC  H11S 5241   0.917   4.106   7.711  2.6192 -3.2864  0.9059
   39POPC  C212 5242   0.989   4.227   7.867  0.3667 -0.2152  0.6340
   39POPC  H12R 5243   0.908   4.303   7.857  0.9134  0.2724 -0.1902
   39POPC  H12S 5244   1.085   4.277   7.889  0.7752 -0.9201  0.4750
   39POPC  C213 5245   0.957   4.124   7.976  0.1345 -0.8092 -0.3588
   39POPC  H13R 5246   1.047   4.061   7.990 -1.1831 -2.5830  0.6309
   39POPC  H13S 5247   0.866   4.064   7.951 -0.5219  0.4949 -1.2016
   39POPC  C214 5248   0.937   4.184   8.116  0.6606 -0.5646  0.3424
   39POPC  H14R 5249   0.827   4.200   8.112  0.6683 -0.7683 -1.8501
   39POPC  H14S 5250   0.982   4.286   8.115  2.4401 -1.3239 -0.2128
   39POPC  C215 5251   0.991   4.105   8.240  0.0274 -0.7202 -0.1141
   39POPC  H15R 5252   0.958   4.155   8.334 -0.6579 -3.1147  0.9893
   39POPC  H15S 5253   1.102   4.111   8.242 -0.0159  3.7827  0.4535
   39POPC  C216 5254   0.943   3.958   8.244 -0.2545 -0.3813  0.3170
   39POPC  H16R 5255   0.997   3.926   8.335 -0.3633  0.7667  0.8106
   39POPC  H16S 5256   0.987   3.901   8.159  0.3073  0.0461  0.3168
   39POPC  C217 5257   0.788   3.928   8.255  0.4253  0.0349  0.3136
   39POPC  H17R 5258   0.759   3.821   8.259 -1.1514  0.4121 -0.1344
   39POPC  H17S 5259   0.747   3.970   8.161  2.0749  1.8065  0.3334
   39POPC  C218 5260   0.717   3.998   8.374  0.2540 -0.2917  0.6548
   39POPC  H18R 5261   0.729   4.108   8.375  0.4087 -0.3063  1.8550
   39POPC  H18S 5262   0.762   3.968   8.471 -0.4209 -1.9741  0.4946
   39POPC  H18T 5263   0.607   3.980   8.365 -0.1049  1.7722  0.3567
   39POPC   C33 5264   0.489   3.852   6.828 -0.3881 -0.0192 -0.2264
   39POPC   H3X 5265   0.586   3.900   6.807 -0.0537 -0.7158 -0.3201
   39POPC   H3Y 5266   0.510   3.787   6.916 -2.8222 -2.2165 -1.1264
   39POPC   C34 5267   0.367   3.931   6.881  0.4856 -0.0811 -0.9022
   39POPC   H4X 5268   0.283   3.861   6.900  1.8561 -2.4122 -2.8587
   39POPC   H4Y 5269   0.322   4.000   6.805 -1.5361 -0.5110 -0.1495
   39POPC   C35 5270   0.395   4.024   6.998 -0.5711  0.3979  0.0771
   39POPC   H5X 5271   0.302   4.080   7.020 -3.0434 -2.2690 -2.5889
   39POPC   H5Y 5272   0.470   4.100   6.970 -2.5488  2.4162 -0.0048
   39POPC   C36 5273   0.450   3.964   7.130 -0.3862 -0.1212  0.6696
   39POPC   H6X 5274   0.485   4.039   7.204  2.3827 -0.5368 -0.0962
   39POPC   H6Y 5275   0.539   3.908   7.093 -1.2064 -0.5038 -0.7920
   39POPC   C37 5276   0.347   3.869   7.193 -0.4295 -0.3033 -0.2387
   39POPC   H7X 5277   0.325   3.795   7.113  1.0642 -2.3381  1.1085
   39POPC   H7Y 5278   0.251   3.919   7.216 -1.1181 -1.2723 -0.9097
   39POPC   C38 5279   0.391   3.794   7.317 -1.0200  0.2906 -0.0373
   39POPC   H8X 5280   0.472   3.722   7.290 -1.3502  0.2250 -0.8833
   39POPC   H8Y 5281   0.304   3.732   7.346 -0.4010  0.6398  2.8814
   39POPC   C39 5282   0.428   3.883   7.435 -0.2162  0.3755  0.0891
   39POPC   H9X 5283   0.527   3.929   7.418 -0.3650  1.4755  1.9009
   39POPC   H9Y 5284   0.445   3.814   7.521  0.7804  0.3708 -0.1091
   39POPC  C310 5285   0.329   3.990   7.479  0.1012  0.4839 -0.0181
   39POPC  H10X 5286   0.230   3.945   7.505 -1.0668  1.9034 -1.7469
   39POPC  H10Y 5287   0.316   4.066   7.399  0.8961  0.2923 -0.3281
   39POPC  C311 5288   0.378   4.077   7.603  0.3592 -0.8072  0.0505
   39POPC  H11X 5289   0.310   4.164   7.614  3.7143  1.9190  1.1283
   39POPC  H11Y 5290   0.470   4.126   7.566  0.2408 -0.0926  0.6958
   39POPC  C312 5291   0.415   3.999   7.726  0.1167  0.1470 -0.6046
   39POPC  H12X 5292   0.475   3.909   7.705 -0.7338 -0.4455 -0.5713
   39POPC  H12Y 5293   0.319   3.966   7.773 -1.3775 -1.9470 -4.7096
   39POPC  C313 5294   0.508   4.083   7.831 -0.6180 -0.0454  0.0921
   39POPC  H13X 5295   0.472   4.188   7.834 -0.9736 -0.1418 -0.6229
   39POPC  H13Y 5296   0.607   4.078   7.783 -1.2362 -1.2861 -1.1329
   39POPC  C314 5297   0.501   4.023   7.972 -0.7558 -0.6941 -0.3373
   39POPC  H14X 5298   0.576   4.062   8.043 -0.0664 -1.7203 -0.4753
   39POPC  H14Y 5299   0.537   3.918   7.965  0.4123 -0.4737  1.6085
   39POPC  C315 5300   0.366   4.023   8.052  0.1143  0.3062 -0.4700
   39POPC  H15X 5301   0.281   3.982   7.992  0.2686 -1.2401  0.3158
   39POPC  H15Y 5302   0.346   4.131   8.070 -3.0181 -0.2443 -0.0299
   39POPC  C316 5303   0.376   3.943   8.185 -0.2216  0.8185  0.1941
   39POPC  H16X 5304   0.422   3.843   8.171  1.1256  1.2191  1.5400
   39POPC  H16Y 5305   0.275   3.933   8.232  0.0278  1.2826  0.8477
   39POPC  H16Z 5306   0.419   4.004   8.267  0.0551 -0.4168  1.0027
   40POPC     N 5307   6.154   0.241   6.094 -0.3800  0.1343 -0.5095
   40POPC   C12 5308   6.209   0.352   6.004  0.2099  0.4277  0.2337
   40POPC  H12A 5309   6.287   0.307   5.945  0.5431 -0.4478  1.3015
   40POPC  H12B 5310   6.268   0.417   6.066 -0.2928  1.0827  0.0332
   40POPC   C13 5311   6.084   0.140   6.009  0.5665  0.3663  0.0605
   40POPC  H13A 5312   6.022   0.069   6.062 -2.2815  0.4327 -2.8572
   40POPC  H13B 5313   6.020   0.189   5.938 -0.4421 -1.8983 -0.7036
   40POPC  H13C 5314   6.152   0.080   5.951  1.9087  0.2594  1.6682
   40POPC   C14 5315   6.268   0.174   6.170  0.5589  0.0978 -0.5743
   40POPC  H14A 5316   6.318   0.246   6.234 -0.7012  1.6386 -1.2666
   40POPC  H14B 5317   6.224   0.099   6.234 -2.6073  2.2241 -0.0444
   40POPC  H14C 5318   6.338   0.132   6.099 -1.3273  0.1150 -2.5441
   40POPC   C15 5319   6.061   0.294   6.192  0.4046  0.5186  0.2652
   40POPC  H15A 5320   6.110   0.357   6.265  1.0671  0.9612 -0.5329
   40POPC  H15B 5321   6.003   0.222   6.248  0.1609  1.3883  1.1675
   40POPC  H15C 5322   5.988   0.357   6.142  0.6370  2.3622  2.1081
   40POPC   C11 5323   6.124   0.445   5.905  0.3473  0.0323 -0.3141
   40POPC  H11A 5324   6.038   0.388   5.863 -0.0542 -0.1097  0.6892
   40POPC  H11B 5325   6.182   0.478   5.816  2.4914 -1.6457  0.3513
   40POPC     P 5326   6.172   0.671   6.026 -0.0182  0.1549  0.1647
   40POPC   O13 5327   6.115   0.785   5.952 -0.0173  0.0742 -0.2579
   40POPC   O14 5328   6.311   0.630   5.993 -0.3299 -0.2035 -0.9418
   40POPC   O12 5329   6.075   0.551   5.983 -0.3749 -0.3578  0.1006
   40POPC   O11 5330   6.162   0.692   6.173  0.1631  0.0717 -0.6228
   40POPC    C1 5331   6.252   0.785   6.241  0.0948  0.1273  0.0965
   40POPC    HA 5332   6.315   0.841   6.168 -0.4494  3.1088  1.7195
   40POPC    HB 5333   6.337   0.736   6.295  0.8184  0.5894 -0.5950
   40POPC    C2 5334   6.177   0.890   6.332 -0.6314 -0.2598  0.1450
   40POPC    HS 5335   6.251   0.953   6.387  0.8360  0.1893 -2.1727
   40POPC   O21 5336   6.075   0.828   6.413  0.6630  0.4725 -0.7105
   40POPC   C21 5337   6.123   0.748   6.507 -0.9610  0.2511 -0.0956
   40POPC   O22 5338   6.242   0.730   6.531 -0.2113  0.1325  0.5855
   40POPC   C22 5339   6.011   0.693   6.594 -0.6651  0.0045  0.4127
   40POPC   H2R 5340   5.982   0.601   6.539 -2.2136  2.1218 -2.6047
   40POPC   H2S 5341   5.928   0.765   6.610 -1.3863 -0.3672 -1.4469
   40POPC    C3 5342   6.109   0.988   6.229  0.3225  0.0659  0.7462
   40POPC    HX 5343   6.046   0.920   6.169  1.1105 -1.1081  1.2129
   40POPC    HY 5344   6.175   1.039   6.156 -1.0575  0.5492 -0.2032
   40POPC   O31 5345   6.022   1.085   6.288  0.0170 -0.3004 -0.0567
   40POPC   C31 5346   6.065   1.174   6.368  0.3876  0.0732  0.7519
   40POPC   O32 5347   6.183   1.195   6.401  0.7476  0.6896  0.2057
   40POPC   C32 5348   5.943   1.259   6.411 -0.3469  0.1819 -0.4959
   40POPC   H2X 5349   5.860   1.189   6.432 -0.5756  0.6411  0.1424
   40POPC   H2Y 5350   5.919   1.307   6.313 -0.1970 -1.2824 -1.2695
   40POPC   C23 5351   6.063   0.647   6.734 -0.2594  0.6482 -0.1310
   40POPC   H3R 5352   6.155   0.584   6.736 -0.9644 -0.5326 -2.2503
   40POPC   H3S 5353   5.983   0.592   6.787  0.3814 -1.0365 -0.8359
   40POPC   C24 5354   6.105   0.771   6.816  0.1831 -0.0308 -0.3695
   40POPC   H4R 5355   6.015   0.837   6.813  1.6944  2.1228 -1.1938
   40POPC   H4S 5356   6.191   0.823   6.768 -0.0566  1.5775  0.8544
   40POPC   C25 5357   6.130   0.744   6.961 -0.1421  1.1180 -0.2671
   40POPC   H5R 5358   6.228   0.691   6.969  0.4384  1.8687 -1.9959
   40POPC   H5S 5359   6.045   0.681   6.993  1.0314 -1.2627 -1.5637
   40POPC   C26 5360   6.146   0.866   7.041 -0.3755 -0.0838  0.0971
   40POPC   H6R 5361   6.061   0.935   7.022  1.3620  1.5939 -2.2763
   40POPC   H6S 5362   6.242   0.911   7.007  0.0129 -0.1187  1.1250
   40POPC   C27 5363   6.164   0.842   7.200  0.0826 -0.3696 -0.0501
   40POPC   H7R 5364   6.256   0.780   7.206 -1.3480 -2.5743  0.5193
   40POPC   H7S 5365   6.072   0.790   7.236  0.4628  0.7356  2.7460
   40POPC   C28 5366   6.213   0.967   7.281  0.0410 -0.4499 -0.0981
   40POPC   H8R 5367   6.132   1.042   7.268 -0.7626 -1.6107 -2.0717
   40POPC   H8S 5368   6.305   1.016   7.242 -0.6099  0.7620 -0.1695
   40POPC   C29 5369   6.221   0.943   7.431  0.2467  0.4298 -0.8408
   40POPC   H91 5370   6.160   0.858   7.465  0.8141 -0.2241 -1.4235
   40POPC  C210 5371   6.306   1.000   7.525  0.1348  0.1481 -0.6634
   40POPC  H101 5372   6.285   0.969   7.629  0.7233 -0.9606 -0.8525
   40POPC  C211 5373   6.411   1.098   7.503 -0.2286  0.1781  0.3203
   40POPC  H11R 5374   6.358   1.188   7.467  1.5567  1.2861  0.3909
   40POPC  H11S 5375   6.477   1.058   7.423 -2.5481 -1.1444 -1.0619
   40POPC  C212 5376   6.493   1.130   7.629 -0.0265 -0.2632 -0.1133
   40POPC  H12R 5377   6.602   1.144   7.608 -0.2742 -1.3676 -2.3981
   40POPC  H12S 5378   6.500   1.033   7.683  1.5997 -1.9082 -3.0155
   40POPC  C213 5379   6.439   1.254   7.714  0.2132 -0.2099 -0.0896
   40POPC  H13R 5380   6.405   1.331   7.640 -1.0337  0.2172  0.8768
   40POPC  H13S 5381   6.521   1.286   7.782  1.0534 -0.9070 -0.7577
   40POPC  C214 5382   6.316   1.224   7.798  0.8463  0.3089 -0.2914
   40POPC  H14R 5383   6.332   1.151   7.881  1.6170  0.3124 -0.4280
   40POPC  H14S 5384   6.227   1.187   7.742  0.2221 -1.2657  1.6255
   40POPC  C215 5385   6.247   1.349   7.868  0.2465 -0.3390  0.1163
   40POPC  H15R 5386   6.211   1.401   7.777 -0.0904  0.0858  0.4918
   40POPC  H15S 5387   6.318   1.417   7.920  0.0105 -0.9575  1.2936
   40POPC  C216 5388   6.141   1.308   7.985 -0.7553  0.2096  0.1310
   40POPC  H16R 5389   6.187   1.227   8.046 -2.6216 -1.4271 -0.5037
   40POPC  H16S 5390   6.055   1.251   7.945 -1.6625  1.4594  0.2623
   40POPC  C217 5391   6.083   1.423   8.070 -0.2729  0.4435 -0.2192
   40POPC  H17R 5392   5.999   1.385   8.132 -2.3181  0.5049 -2.7579
   40POPC  H17S 5393   6.034   1.496   8.001  1.0959 -1.6108 -3.5976
   40POPC  C218 5394   6.189   1.487   8.159  0.0039 -0.4019 -0.2662
   40POPC  H18R 5395   6.256   1.560   8.108 -0.0737 -0.3582 -0.3074
   40POPC  H18S 5396   6.247   1.410   8.213 -0.5785 -0.3599  0.4316
   40POPC  H18T 5397   6.134   1.543   8.237 -0.1697  0.4529 -0.9809
   40POPC   C33 5398   5.957   1.354   6.534 -0.5292 -0.1354  0.0597
   40POPC   H3X 5399   5.868   1.420   6.543 -0.7239 -0.2192 -1.0778
   40POPC   H3Y 5400   6.040   1.423   6.507 -1.8159  0.9264 -1.3962
   40POPC   C34 5401   5.972   1.278   6.665  0.1014  0.6599  0.7879
   40POPC   H4X 5402   6.062   1.213   6.654 -0.2207  0.6208 -3.3301
   40POPC   H4Y 5403   5.891   1.203   6.680 -0.3337  1.4518  2.7049
   40POPC   C35 5404   5.972   1.376   6.788  0.2753 -0.0388  0.3625
   40POPC   H5X 5405   5.884   1.442   6.775  0.1747  0.0764  1.4913
   40POPC   H5Y 5406   6.068   1.432   6.782 -0.9269  1.9098 -3.0967
   40POPC   C36 5407   5.945   1.310   6.922 -0.5998 -0.2916 -0.4883
   40POPC   H6X 5408   5.962   1.390   6.997 -0.8863 -1.5657  0.9809
   40POPC   H6Y 5409   6.023   1.235   6.948  1.8484  2.5333  0.7858
   40POPC   C37 5410   5.801   1.258   6.936  1.1388 -0.7740 -0.3663
   40POPC   H7X 5411   5.788   1.188   6.851 -1.1197 -0.1111 -0.6379
   40POPC   H7Y 5412   5.730   1.340   6.915  0.0405 -2.0058 -1.5988
   40POPC   C38 5413   5.759   1.198   7.072  0.2060 -0.1412 -1.0473
   40POPC   H8X 5414   5.818   1.104   7.075 -2.0780 -1.6327  1.4700
   40POPC   H8Y 5415   5.650   1.181   7.078  0.0478  1.3256  1.6283
   40POPC   C39 5416   5.792   1.289   7.196 -1.2679  0.2436 -0.4956
   40POPC   H9X 5417   5.762   1.396   7.186  1.8552  1.0698 -2.6119
   40POPC   H9Y 5418   5.903   1.284   7.194 -1.2995 -0.2879 -1.7267
   40POPC  C310 5419   5.738   1.234   7.327 -0.4382  0.0713 -0.1885
   40POPC  H10X 5420   5.692   1.137   7.297 -1.2102  0.6929 -1.0774
   40POPC  H10Y 5421   5.653   1.292   7.369 -0.6319 -2.3720  3.2147
   40POPC  C311 5422   5.835   1.206   7.440  0.8260 -0.7992 -0.2715
   40POPC  H11X 5423   5.869   1.300   7.489  1.0975 -1.3677  0.6659
   40POPC  H11Y 5424   5.932   1.184   7.392  2.1345  0.4454  1.6202
   40POPC  C312 5425   5.798   1.098   7.546 -0.3142 -0.1401 -0.0734
   40POPC  H12X 5426   5.831   0.997   7.512 -0.4747 -0.1595 -0.1716
   40POPC  H12Y 5427   5.691   1.090   7.573 -0.0911 -1.4230  0.5187
   40POPC  C313 5428   5.887   1.122   7.672  0.1956 -0.0230 -0.7490
   40POPC  H13X 5429   5.884   1.229   7.702 -0.0460 -0.4560  0.8129
   40POPC  H13Y 5430   5.990   1.087   7.653  0.6910  0.3071  1.1514
   40POPC  C314 5431   5.849   1.052   7.800  0.6695  0.1682  0.1462
   40POPC  H14X 5432   5.928   1.054   7.878 -0.7373  0.0731  1.6315
   40POPC  H14Y 5433   5.834   0.943   7.785  0.5492  0.3601 -1.2638
   40POPC  C315 5434   5.720   1.113   7.857 -0.2091 -0.2401  0.4959
   40POPC  H15X 5435   5.634   1.061   7.810 -0.5049  0.0545  0.7098
   40POPC  H15Y 5436   5.697   1.219   7.832  0.0823 -0.2564  0.1563
   40POPC  C316 5437   5.724   1.113   8.008  0.1996 -0.0925 -0.1411
   40POPC  H16X 5438   5.627   1.119   8.061  2.1570 -0.3991  3.8641
   40POPC  H16Y 5439   5.787   1.201   8.035 -0.3226  0.2555 -0.0443
   40POPC  H16Z 5440   5.777   1.018   8.030 -0.4227 -1.0539 -2.5494
   41CHL1    C3 5441   3.699   2.145  10.256  0.2193 -0.3110  0.5569
   41CHL1    H3 5442   3.615   2.216  10.245  0.9247  0.1727 -2.7074
   41CHL1    O3 5443   3.688   2.089  10.387  0.1133  0.1503  0.8566
   41CHL1   H3' 5444   3.732   2.003  10.383 -1.5957 -0.7636  1.1196
   41CHL1    C4 5445   3.677   2.033  10.149 -0.5062  0.2814 -0.3733
   41CHL1   H4A 5446   3.749   1.951  10.170 -1.6928 -0.0818  2.8614
   41CHL1   H4B 5447   3.577   1.987  10.161  0.2363 -1.3609 -0.2404
   41CHL1    C5 5448   3.689   2.085  10.007  0.5234  0.3371  0.5412
   41CHL1    C6 5449   3.601   2.074   9.907  0.5560  0.3742 -0.1612
   41CHL1    H6 5450   3.502   2.031   9.927 -0.0712  2.1031  0.6555
   41CHL1    C7 5451   3.625   2.118   9.762 -0.3139  0.1745 -0.4369
   41CHL1   H7A 5452   3.592   2.047   9.684 -0.5760  0.6056 -0.7201
   41CHL1   H7B 5453   3.578   2.218   9.749  0.3321  0.8930  1.9906
   41CHL1    C8 5454   3.785   2.134   9.736 -0.0235 -0.2407  0.4157
   41CHL1    H8 5455   3.827   2.032   9.743  0.6351  0.0101  0.1481
   41CHL1   C14 5456   3.801   2.208   9.599  0.4353 -0.3665 -0.6989
   41CHL1   H14 5457   3.757   2.306   9.626  1.9199  0.9201 -2.6891
   41CHL1   C15 5458   3.730   2.156   9.471  0.7067  0.2725  0.7075
   41CHL1  H15A 5459   3.729   2.044   9.475  0.5273  0.2907  1.2582
   41CHL1  H15B 5460   3.629   2.202   9.466 -0.3934 -1.9368  1.3156
   41CHL1   C16 5461   3.826   2.193   9.357  0.5659  0.4443  0.4474
   41CHL1  H16A 5462   3.883   2.100   9.341  0.8172  0.2318  2.3911
   41CHL1  H16B 5463   3.774   2.236   9.269 -0.5893  1.1010  1.4141
   41CHL1   C17 5464   3.940   2.281   9.415  0.5009  0.0809 -0.2952
   41CHL1   H17 5465   3.898   2.383   9.425 -0.4053 -0.4088  1.4005
   41CHL1   C13 5466   3.942   2.231   9.569 -0.6017 -0.5189  0.8571
   41CHL1   C18 5467   4.025   2.101   9.567  0.2769  0.7794  0.2340
   41CHL1  H18A 5468   4.030   2.057   9.669 -1.5383 -0.0798 -0.0205
   41CHL1  H18B 5469   3.984   2.022   9.500 -0.0516  0.5540  0.6930
   41CHL1  H18C 5470   4.130   2.111   9.531 -0.1523 -2.7871 -2.5549
   41CHL1   C12 5471   3.999   2.333   9.670 -0.4537  0.4605 -0.4665
   41CHL1  H12A 5472   4.108   2.347   9.649 -0.2101  0.9342  1.0354
   41CHL1  H12B 5473   3.952   2.434   9.665 -1.5859  0.0142  0.6575
   41CHL1   C11 5474   3.994   2.266   9.810  0.0940 -1.3050  0.7747
   41CHL1  H11A 5475   4.061   2.177   9.817  2.3763  0.3540  1.0659
   41CHL1  H11B 5476   4.022   2.341   9.887 -0.0216 -0.9076  0.4329
   41CHL1    C9 5477   3.851   2.215   9.849 -0.2582  0.1446  0.4752
   41CHL1    H9 5478   3.782   2.301   9.856 -1.3217 -0.7654  1.7151
   41CHL1   C10 5479   3.835   2.148   9.993 -0.6879 -1.1180  0.2936
   41CHL1   C19 5480   3.952   2.045  10.011  0.2867  0.7238 -0.3022
   41CHL1  H19A 5481   4.047   2.100  10.028  1.0674 -0.1619 -1.6515
   41CHL1  H19B 5482   3.952   1.990  10.107  2.4250  1.7086  0.3196
   41CHL1  H19C 5483   3.951   1.983   9.918 -2.8075 -0.5109  0.4435
   41CHL1    C1 5484   3.853   2.266  10.102  0.9952  0.1027  0.0948
   41CHL1   H1A 5485   3.955   2.309  10.094  1.3314 -0.8065 -0.6650
   41CHL1   H1B 5486   3.795   2.352  10.062  0.1685 -0.7130 -0.5163
   41CHL1    C2 5487   3.828   2.222  10.246  0.5872  0.3881 -0.1197
   41CHL1   H2A 5488   3.828   2.305  10.320  0.0297 -0.7921  1.2438
   41CHL1   H2B 5489   3.911   2.157  10.279  0.4250  0.9601  1.5035
   41CHL1   C20 5490   4.071   2.285   9.333  0.0578  0.0135 -0.0761
   41CHL1   H20 5491   4.123   2.189   9.353 -3.0666 -1.3253  2.6152
   41CHL1   C21 5492   4.155   2.404   9.368 -0.0119 -0.7498  0.2070
   41CHL1  H21A 5493   4.241   2.419   9.299 -0.4349 -0.1993 -0.2107
   41CHL1  H21B 5494   4.201   2.382   9.466 -1.0307  0.0135  0.8816
   41CHL1  H21C 5495   4.093   2.496   9.374 -0.7332 -1.0082 -2.1073
   41CHL1   C22 5496   4.044   2.272   9.181  0.1907  0.0440 -0.9334
   41CHL1  H22A 5497   4.136   2.242   9.127  2.0344  1.6077  1.1811
   41CHL1  H22B 5498   3.975   2.191   9.147  0.4719 -0.2734 -0.7564
   41CHL1   C23 5499   4.003   2.413   9.115  0.1108 -0.0112 -0.3122
   41CHL1  H23A 5500   3.926   2.461   9.178 -0.5892  0.7616 -1.6982
   41CHL1  H23B 5501   4.099   2.468   9.098 -0.0537  0.1598 -0.7196
   41CHL1   C24 5502   3.940   2.394   8.980  0.5263 -0.5473  0.1173
   41CHL1  H24A 5503   4.001   2.318   8.928  0.1974 -1.3023  0.8080
   41CHL1  H24B 5504   3.844   2.339   8.991  1.4607 -2.4124 -0.5725
   41CHL1   C25 5505   3.923   2.525   8.898  0.4288 -0.2120 -0.5425
   41CHL1   H25 5506   3.884   2.604   8.965 -2.5104 -1.9852  0.0427
   41CHL1   C26 5507   4.058   2.560   8.843  0.4011  0.2216  0.1994
   41CHL1  H26A 5508   4.052   2.652   8.781  0.0025  0.0716  0.0116
   41CHL1  H26B 5509   4.114   2.599   8.930  0.1697  2.9682 -0.7940
   41CHL1  H26C 5510   4.122   2.484   8.793 -0.4396  1.1139 -2.3723
   41CHL1   C27 5511   3.826   2.501   8.781 -0.4507 -0.3142  0.3021
   41CHL1  H27A 5512   3.861   2.418   8.716 -1.1801  0.4830 -1.1553
   41CHL1  H27B 5513   3.724   2.473   8.813 -0.3997  1.2328  1.9875
   41CHL1  H27C 5514   3.818   2.594   8.721 -1.3999 -0.3383  0.3828
   42CHL1    C3 5515   6.806   0.094   9.852  0.0617 -0.5212  0.8675
   42CHL1    H3 5516   6.915   0.080   9.838 -0.1481  0.5786 -3.1111
   42CHL1    O3 5517   6.747   0.039   9.968 -0.0245 -0.2268 -0.2874
   42CHL1   H3' 5518   6.656   0.069   9.963  0.8679  3.0444  0.1900
   42CHL1    C4 5519   6.779   0.245   9.851  0.1992 -0.4841 -0.1471
   42CHL1   H4A 5520   6.668   0.245   9.863 -0.0697 -0.7546 -2.3262
   42CHL1   H4B 5521   6.830   0.298   9.934 -0.1174 -0.3892 -0.0111
   42CHL1    C5 5522   6.814   0.301   9.717  0.1166 -0.8023 -0.4909
   42CHL1    C6 5523   6.905   0.406   9.712 -0.1386 -0.3393 -0.0729
   42CHL1    H6 5524   6.945   0.446   9.806 -0.6783  0.2126 -0.0753
   42CHL1    C7 5525   6.939   0.478   9.586 -0.0237 -0.1777  0.6965
   42CHL1   H7A 5526   6.917   0.587   9.585  0.0186 -0.1446 -1.7424
   42CHL1   H7B 5527   7.050   0.466   9.583  0.1947  1.4029  1.4267
   42CHL1    C8 5528   6.871   0.430   9.459  0.1321 -0.1707  0.3578
   42CHL1    H8 5529   6.776   0.487   9.450 -0.4902 -0.9585  1.6417
   42CHL1   C14 5530   6.950   0.462   9.329 -0.3934  0.4334 -0.2957
   42CHL1   H14 5531   7.030   0.385   9.328 -1.2234 -0.4745  0.7289
   42CHL1   C15 5532   7.013   0.598   9.321  0.2215 -1.1349 -0.5070
   42CHL1  H15A 5533   6.947   0.679   9.358  0.4975 -0.2490 -1.9130
   42CHL1  H15B 5534   7.116   0.596   9.363  0.0095 -2.4145  0.0177
   42CHL1   C16 5535   7.019   0.625   9.169 -0.0087  0.3874 -0.3284
   42CHL1  H16A 5536   6.977   0.723   9.138 -0.9418  0.2637  0.4871
   42CHL1  H16B 5537   7.123   0.624   9.131 -0.2307  1.0367 -0.9625
   42CHL1   C17 5538   6.953   0.504   9.099 -0.1925  0.2519  0.5155
   42CHL1   H17 5539   7.037   0.431   9.101 -0.0121  0.4646  0.8210
   42CHL1   C13 5540   6.860   0.443   9.206  0.7090 -0.6627 -0.0618
   42CHL1   C18 5541   6.733   0.520   9.210  0.0462 -0.2393  0.7210
   42CHL1  H18A 5542   6.660   0.491   9.289  0.7245 -0.1298  1.4035
   42CHL1  H18B 5543   6.761   0.625   9.233  0.9517 -0.5748  1.1979
   42CHL1  H18C 5544   6.677   0.518   9.114  0.2845  1.1021  0.5340
   42CHL1   C12 5545   6.821   0.295   9.198 -0.1754  0.0408  0.4508
   42CHL1  H12A 5546   6.752   0.268   9.116 -0.2704 -1.8317  1.0916
   42CHL1  H12B 5547   6.914   0.238   9.176 -0.8247 -0.0806 -2.3162
   42CHL1   C11 5548   6.752   0.252   9.329  1.0730  0.3681  0.1857
   42CHL1  H11A 5549   6.656   0.306   9.339  0.3646 -1.1386  2.0477
   42CHL1  H11B 5550   6.724   0.145   9.324 -1.1681  0.9368 -0.2943
   42CHL1    C9 5551   6.829   0.281   9.458 -0.0718  0.0570 -0.8066
   42CHL1    H9 5552   6.923   0.222   9.457 -0.2889 -0.3730  0.8828
   42CHL1   C10 5553   6.761   0.236   9.588  0.6472 -0.3558  0.9122
   42CHL1   C19 5554   6.604   0.267   9.584  0.9474 -0.4309  0.0049
   42CHL1  H19A 5555   6.548   0.261   9.679 -0.0804 -1.9858 -0.6605
   42CHL1  H19B 5556   6.609   0.376   9.561  0.3960 -0.3232  0.3761
   42CHL1  H19C 5557   6.546   0.216   9.504 -0.2404  0.8774 -0.0244
   42CHL1    C1 5558   6.783   0.086   9.604 -0.1586  0.2587 -0.0083
   42CHL1   H1A 5559   6.734   0.030   9.521  0.0039  1.7827 -1.1928
   42CHL1   H1B 5560   6.891   0.061   9.593 -0.7440 -2.0763 -1.1312
   42CHL1    C2 5561   6.731   0.031   9.735  0.6821  0.0235  0.3440
   42CHL1   H2A 5562   6.745  -0.079   9.740  2.8345 -0.0150 -3.0227
   42CHL1   H2B 5563   6.621   0.044   9.736  0.7855  1.0459  1.5624
   42CHL1   C20 5564   6.885   0.517   8.960  0.3364  0.3351  0.5916
   42CHL1   H20 5565   6.803   0.442   8.949  0.9743 -0.2739 -0.0840
   42CHL1   C21 5566   6.991   0.476   8.856  0.1688 -0.0912 -0.3452
   42CHL1  H21A 5567   7.052   0.391   8.895 -0.6449  0.6572  2.8609
   42CHL1  H21B 5568   7.055   0.567   8.852  1.7426 -1.1625 -0.3023
   42CHL1  H21C 5569   6.937   0.471   8.760 -1.7901 -0.4558  0.7289
   42CHL1   C22 5570   6.837   0.662   8.930 -0.4420 -0.3818 -0.3308
   42CHL1  H22A 5571   6.780   0.683   9.024 -0.2644  0.3465 -0.3756
   42CHL1  H22B 5572   6.925   0.729   8.924 -1.1493  0.5183 -0.8494
   42CHL1   C23 5573   6.754   0.678   8.805  0.1929 -0.6097  0.3604
   42CHL1  H23A 5574   6.817   0.652   8.717 -1.5216 -1.5762 -0.6334
   42CHL1  H23B 5575   6.672   0.604   8.793 -1.9854  1.5023  1.3083
   42CHL1   C24 5576   6.705   0.820   8.779  0.4790  0.1228  0.0589
   42CHL1  H24A 5577   6.634   0.846   8.860  0.1985 -2.5795  0.7797
   42CHL1  H24B 5578   6.789   0.891   8.793 -2.3773  3.5223  1.6740
   42CHL1   C25 5579   6.634   0.847   8.643 -0.2698 -0.7557  0.0103
   42CHL1   H25 5580   6.555   0.769   8.634 -0.6184 -0.3904 -0.1418
   42CHL1   C26 5581   6.556   0.982   8.651 -0.3699  0.0690  0.3833
   42CHL1  H26A 5582   6.493   0.989   8.742  2.1423 -0.2377  2.2316
   42CHL1  H26B 5583   6.625   1.069   8.654 -0.8115  0.7138 -3.3164
   42CHL1  H26C 5584   6.501   1.000   8.556  1.6575 -0.1591 -0.8967
   42CHL1   C27 5585   6.724   0.853   8.524 -0.6159  0.2713  0.5087
   42CHL1  H27A 5586   6.796   0.770   8.509 -1.7508 -0.2796 -2.9796
   42CHL1  H27B 5587   6.661   0.855   8.432 -0.0524 -0.2850  0.1038
   42CHL1  H27C 5588   6.776   0.952   8.533  0.2434 -0.1939  0.7782
   43CHL1    C3 5589   5.991   0.429   9.867 -0.5054 -0.2231 -0.3170
   43CHL1    H3 5590   5.881   0.428   9.854 -0.7848  2.5259  1.1856
   43CHL1    O3 5591   6.032   0.454   9.999 -0.1599 -0.2872 -0.1350
   43CHL1   H3' 5592   6.026   0.549  10.015  1.7162  0.0168 -0.9659
   43CHL1    C4 5593   6.038   0.297   9.816 -0.6419 -0.5128  0.0953
   43CHL1   H4A 5594   6.145   0.283   9.840 -1.4156 -2.6778  2.8483
   43CHL1   H4B 5595   5.986   0.218   9.875 -1.9272  0.4341  0.2838
   43CHL1    C5 5596   6.007   0.271   9.670  0.6014  0.9549 -0.0419
   43CHL1    C6 5597   5.948   0.156   9.630  0.4018 -0.2805 -0.1920
   43CHL1    H6 5598   5.905   0.088   9.705 -0.0207  0.5493  0.3380
   43CHL1    C7 5599   5.917   0.121   9.493  0.3810  0.7722  0.0852
   43CHL1   H7A 5600   5.967   0.025   9.469 -1.0767 -0.0377  0.2035
   43CHL1   H7B 5601   5.808   0.134   9.474  0.2897  1.8587  1.2195
   43CHL1    C8 5602   5.974   0.224   9.393 -0.0831  0.3145  0.5102
   43CHL1    H8 5603   6.084   0.212   9.387 -0.0353  0.8579  0.2605
   43CHL1   C14 5604   5.914   0.203   9.252  0.1598  0.1215 -1.2891
   43CHL1   H14 5605   5.808   0.233   9.267  0.1733 -0.6166  0.6561
   43CHL1   C15 5606   5.907   0.061   9.187  0.0586 -0.2306 -0.2532
   43CHL1  H15A 5607   6.011   0.022   9.197  0.1771  0.1500  0.0220
   43CHL1  H15B 5608   5.837  -0.017   9.223 -3.0286  2.3503 -0.2174
   43CHL1   C16 5609   5.882   0.088   9.045 -0.1553 -1.0971  0.2043
   43CHL1  H16A 5610   5.959   0.029   8.990  0.1426 -0.4543 -0.0867
   43CHL1  H16B 5611   5.782   0.063   9.003 -0.6393  0.3283  0.4496
   43CHL1   C17 5612   5.888   0.245   9.021 -0.5436 -0.4388  0.6032
   43CHL1   H17 5613   5.789   0.292   9.037 -0.8410 -0.7361 -0.2580
   43CHL1   C13 5614   5.966   0.292   9.148  0.0217 -0.0395  0.2468
   43CHL1   C18 5615   6.118   0.281   9.128 -0.3685  0.7705  0.2614
   43CHL1  H18A 5616   6.132   0.176   9.095  1.4726  1.4677 -1.4012
   43CHL1  H18B 5617   6.155   0.360   9.059  2.3418  1.5607  2.4578
   43CHL1  H18C 5618   6.181   0.292   9.219 -0.3094  0.7373  0.2249
   43CHL1   C12 5619   5.935   0.439   9.191  0.4942 -0.6022 -0.0930
   43CHL1  H12A 5620   6.000   0.511   9.136  1.3780  0.4827  2.2606
   43CHL1  H12B 5621   5.825   0.458   9.194  0.5358 -0.4384  2.6467
   43CHL1   C11 5622   5.988   0.471   9.334  0.2061  0.9230 -0.4026
   43CHL1  H11A 5623   6.099   0.481   9.336  0.2590  0.3068 -0.1238
   43CHL1  H11B 5624   5.944   0.570   9.360  1.5153  1.3250  0.3548
   43CHL1    C9 5625   5.956   0.366   9.443 -0.2447 -0.3999  0.1275
   43CHL1    H9 5626   5.848   0.367   9.470 -0.0422 -2.2240  1.1987
   43CHL1   C10 5627   6.032   0.389   9.581  0.0847  0.2601 -0.5350
   43CHL1   C19 5628   6.190   0.390   9.570  0.0059 -1.0688  0.2134
   43CHL1  H19A 5629   6.237   0.405   9.670 -1.1201 -1.0080  0.7578
   43CHL1  H19B 5630   6.227   0.294   9.528  0.5173 -0.4628 -0.7338
   43CHL1  H19C 5631   6.218   0.474   9.504 -0.3335  0.6468  2.1386
   43CHL1    C1 5632   5.991   0.531   9.638  0.6268  0.4326  0.2188
   43CHL1   H1A 5633   6.027   0.616   9.577  1.0372  1.5718  1.9871
   43CHL1   H1B 5634   5.882   0.522   9.618  0.8934 -1.7852 -0.5186
   43CHL1    C2 5635   6.030   0.551   9.787 -0.4814 -0.0831  0.7296
   43CHL1   H2A 5636   5.975   0.640   9.824 -3.8498 -1.7241  0.0779
   43CHL1   H2B 5637   6.139   0.569   9.793 -0.4040  0.0336 -0.7773
   43CHL1   C20 5638   5.931   0.288   8.878 -0.7294 -0.3052  0.2520
   43CHL1   H20 5639   6.033   0.252   8.853 -0.1373  1.0580  0.6041
   43CHL1   C21 5640   5.922   0.438   8.875 -0.0043 -0.5781  0.4026
   43CHL1  H21A 5641   5.819   0.476   8.892 -0.5522 -0.1105 -3.0616
   43CHL1  H21B 5642   5.953   0.480   8.777  1.0099  3.4176  2.2399
   43CHL1  H21C 5643   5.992   0.483   8.948  1.8930 -1.6830 -0.6512
   43CHL1   C22 5644   5.844   0.219   8.769  0.9688 -0.1405 -0.7944
   43CHL1  H22A 5645   5.863   0.110   8.769  1.9513 -0.0600  1.9426
   43CHL1  H22B 5646   5.738   0.225   8.799  1.0858 -1.2135 -0.1198
   43CHL1   C23 5647   5.882   0.263   8.627 -0.4998  0.4840 -0.2670
   43CHL1  H23A 5648   5.805   0.231   8.554 -0.6660 -1.3578  0.6778
   43CHL1  H23B 5649   5.873   0.374   8.631  1.9774  0.7045  1.2698
   43CHL1   C24 5650   6.022   0.216   8.564 -0.6033 -0.4755 -0.6050
   43CHL1  H24A 5651   6.097   0.263   8.632 -0.9378  2.2703 -2.0081
   43CHL1  H24B 5652   6.029   0.105   8.572  0.6684 -0.3143  1.0861
   43CHL1   C25 5653   6.044   0.270   8.423 -0.1693  0.3931 -0.2176
   43CHL1   H25 5654   5.962   0.230   8.360  0.0683  0.4936 -0.5906
   43CHL1   C26 5655   6.043   0.425   8.426 -0.0139  0.6083 -0.2703
   43CHL1  H26A 5656   5.974   0.486   8.488  0.6657  0.5879  0.5162
   43CHL1  H26B 5657   6.142   0.468   8.454 -0.2643  1.3000 -0.4312
   43CHL1  H26C 5658   6.030   0.469   8.325  0.9924 -0.0133 -0.6941
   43CHL1   C27 5659   6.170   0.218   8.351  0.4652  0.3122 -0.6412
   43CHL1  H27A 5660   6.170   0.110   8.329 -1.5843  0.5605 -2.2365
   43CHL1  H27B 5661   6.172   0.269   8.252 -0.2130  0.6133 -0.5082
   43CHL1  H27C 5662   6.258   0.247   8.412  1.0545 -0.4479 -1.1215
   44CHL1    C3 5663   4.391   0.445   9.857 -0.7652  0.7998 -0.0732
   44CHL1    H3 5664   4.369   0.340   9.831 -0.6186  0.8213 -0.2871
   44CHL1    O3 5665   4.364   0.455   9.994  0.5997 -0.1176 -0.4870
   44CHL1   H3' 5666   4.428   0.523  10.017 -0.9784  1.7810 -1.3828
   44CHL1    C4 5667   4.545   0.463   9.844 -0.5421  0.1489 -0.5936
   44CHL1   H4A 5668   4.579   0.563   9.879  0.2403  0.2023 -1.4590
   44CHL1   H4B 5669   4.585   0.381   9.906 -1.7838 -1.5733 -1.9517
   44CHL1    C5 5670   4.588   0.444   9.701 -0.5039  0.1174 -0.7314
   44CHL1    C6 5671   4.683   0.354   9.670 -0.0943 -0.4891 -0.4604
   44CHL1    H6 5672   4.739   0.306   9.752  1.3603 -1.3247 -1.8806
   44CHL1    C7 5673   4.730   0.327   9.524  0.4664  0.0275  0.3530
   44CHL1   H7A 5674   4.841   0.322   9.515  0.6526 -3.1866  2.4572
   44CHL1   H7B 5675   4.687   0.227   9.500  2.6501 -0.5677 -1.3318
   44CHL1    C8 5676   4.679   0.426   9.420  0.4780 -0.1081 -0.1244
   44CHL1    H8 5677   4.740   0.518   9.427  0.5869 -0.1095 -0.9943
   44CHL1   C14 5678   4.701   0.368   9.279  0.2383  0.2793  0.5780
   44CHL1   H14 5679   4.659   0.265   9.281 -0.0906  0.4197  2.3133
   44CHL1   C15 5680   4.848   0.354   9.231  0.3926  0.5407  0.0438
   44CHL1  H15A 5681   4.895   0.450   9.262 -0.3873  0.4419  1.6393
   44CHL1  H15B 5682   4.891   0.261   9.275 -0.5575  0.7641  1.5413
   44CHL1   C16 5683   4.836   0.333   9.073  1.2048 -0.1165 -0.2432
   44CHL1  H16A 5684   4.913   0.398   9.027  1.3467  0.0219  0.1820
   44CHL1  H16B 5685   4.862   0.227   9.050 -1.4268 -1.2011  1.3423
   44CHL1   C17 5686   4.684   0.371   9.045 -0.1450 -0.3191 -0.5928
   44CHL1   H17 5687   4.625   0.278   9.063 -0.4961  0.0837  0.4063
   44CHL1   C13 5688   4.639   0.452   9.158 -0.2455 -0.1813 -0.2312
   44CHL1   C18 5689   4.698   0.595   9.155  0.3823  0.0309 -0.5664
   44CHL1  H18A 5690   4.693   0.649   9.252 -3.0070 -0.1614 -0.5101
   44CHL1  H18B 5691   4.794   0.611   9.103  0.3261  1.4072 -0.2911
   44CHL1  H18C 5692   4.634   0.655   9.087 -0.0808 -0.6193 -0.7154
   44CHL1   C12 5693   4.481   0.456   9.194 -0.4263  0.4654  0.1037
   44CHL1  H12A 5694   4.433   0.499   9.103  0.3147  0.4478 -0.3069
   44CHL1  H12B 5695   4.458   0.350   9.219  1.9110  0.6196  3.7439
   44CHL1   C11 5696   4.455   0.532   9.330 -1.2276  0.5001 -0.6989
   44CHL1  H11A 5697   4.495   0.635   9.328  1.3972 -0.2246  3.2952
   44CHL1  H11B 5698   4.345   0.525   9.345 -1.2317 -0.0225 -0.9287
   44CHL1    C9 5699   4.532   0.458   9.447  0.3062 -0.8983 -0.2055
   44CHL1    H9 5700   4.498   0.353   9.440  3.6593 -2.1095  0.1216
   44CHL1   C10 5701   4.505   0.517   9.591  0.7205  0.2298 -0.3460
   44CHL1   C19 5702   4.557   0.666   9.587 -0.2580 -0.3478 -0.7983
   44CHL1  H19A 5703   4.502   0.735   9.519 -2.1924 -1.2135 -0.1636
   44CHL1  H19B 5704   4.553   0.720   9.684 -0.1836  1.1046 -1.5668
   44CHL1  H19C 5705   4.659   0.676   9.543 -1.3825  2.0634 -3.1547
   44CHL1    C1 5706   4.351   0.510   9.620  0.1075 -0.1318  0.0103
   44CHL1   H1A 5707   4.286   0.572   9.554  2.5898  1.0625 -1.4667
   44CHL1   H1B 5708   4.324   0.405   9.600 -0.1096 -0.2690  0.9512
   44CHL1    C2 5709   4.310   0.539   9.772 -0.1022 -0.0727  0.1816
   44CHL1   H2A 5710   4.205   0.537   9.806 -0.0202 -0.4909  0.4155
   44CHL1   H2B 5711   4.345   0.640   9.804  1.8042 -0.7657  0.4204
   44CHL1   C20 5712   4.652   0.416   8.903 -0.3776 -0.2471  0.0377
   44CHL1   H20 5713   4.558   0.476   8.910 -0.6520 -0.5711 -0.8113
   44CHL1   C21 5714   4.625   0.292   8.824 -0.5121  0.1670 -0.1920
   44CHL1  H21A 5715   4.543   0.231   8.867  0.4702 -0.9979  0.0758
   44CHL1  H21B 5716   4.717   0.230   8.819 -0.9081 -0.5369  1.1156
   44CHL1  H21C 5717   4.597   0.322   8.720  1.6609 -2.1554 -1.5597
   44CHL1   C22 5718   4.766   0.502   8.838  0.0971  0.6567  0.0185
   44CHL1  H22A 5719   4.810   0.559   8.923 -2.0242 -0.6779  2.1233
   44CHL1  H22B 5720   4.842   0.432   8.796  0.0546  1.4219 -1.3757
   44CHL1   C23 5721   4.723   0.585   8.721 -0.0236 -0.3504  0.2482
   44CHL1  H23A 5722   4.712   0.511   8.638 -0.9412 -1.2763  1.1644
   44CHL1  H23B 5723   4.623   0.631   8.736 -0.3879 -1.0294 -0.0103
   44CHL1   C24 5724   4.827   0.695   8.693 -0.2020 -0.9242 -0.2675
   44CHL1  H24A 5725   4.840   0.753   8.787  0.4823  1.4119 -1.7339
   44CHL1  H24B 5726   4.925   0.658   8.657 -0.7761 -1.6817 -1.1013
   44CHL1   C25 5727   4.784   0.815   8.601 -0.0663 -0.3036 -0.4691
   44CHL1   H25 5728   4.877   0.877   8.595 -0.0975 -0.2489 -0.4052
   44CHL1   C26 5729   4.757   0.751   8.460 -0.1670 -0.5502 -0.4302
   44CHL1  H26A 5730   4.731   0.832   8.389  1.1093  1.4251  1.2062
   44CHL1  H26B 5731   4.843   0.693   8.421 -0.5253  0.1744 -2.4028
   44CHL1  H26C 5732   4.668   0.685   8.465 -2.4674  2.2704 -1.0076
   44CHL1   C27 5733   4.666   0.894   8.651 -0.2507  0.2621  0.3452
   44CHL1  H27A 5734   4.698   0.931   8.751  2.3741  1.9325 -1.0007
   44CHL1  H27B 5735   4.657   0.982   8.585  0.6170  0.0600 -0.0473
   44CHL1  H27C 5736   4.574   0.832   8.660 -0.7942  0.9065 -0.6278
   45CHL1    C3 5737   2.273   1.360  10.027 -0.1461 -0.0226 -0.7013
   45CHL1    H3 5738   2.257   1.464   9.992 -2.3768  0.4201  1.3878
   45CHL1    O3 5739   2.277   1.354  10.163  0.0379 -0.3464  0.2771
   45CHL1   H3' 5740   2.254   1.262  10.177 -0.7713 -0.1928  0.0182
   45CHL1    C4 5741   2.158   1.270   9.967 -0.0896 -0.3406 -0.0966
   45CHL1   H4A 5742   2.165   1.168  10.011 -1.3173  0.6851  2.6851
   45CHL1   H4B 5743   2.069   1.320  10.010 -0.0286  0.1933 -0.5643
   45CHL1    C5 5744   2.148   1.267   9.815 -0.3560 -0.0784 -0.6841
   45CHL1    C6 5745   2.045   1.314   9.746  0.6058  0.2910  0.5237
   45CHL1    H6 5746   1.958   1.353   9.801 -0.4334  0.3650 -1.0857
   45CHL1    C7 5747   2.034   1.297   9.592 -0.8945  0.4512 -0.1843
   45CHL1   H7A 5748   1.942   1.242   9.565  0.4135 -1.4569 -0.9354
   45CHL1   H7B 5749   2.045   1.392   9.536  0.9800  0.4395  0.0992
   45CHL1    C8 5750   2.146   1.201   9.536 -0.4288  0.7955  0.9851
   45CHL1    H8 5751   2.161   1.248   9.436 -0.7862 -0.9642  0.0785
   45CHL1   C14 5752   2.106   1.056   9.495  0.2157  0.8948  0.5196
   45CHL1   H14 5753   2.065   0.994   9.577 -0.7507  1.3121  0.3757
   45CHL1   C15 5754   1.991   1.049   9.389  0.0325  0.4748 -0.9781
   45CHL1  H15A 5755   1.946   0.948   9.384  2.8728 -1.2648  2.7652
   45CHL1  H15B 5756   1.908   1.117   9.414 -1.0898 -1.5772  1.3304
   45CHL1   C16 5757   2.063   1.074   9.257 -0.4359  0.1173  0.3383
   45CHL1  H16A 5758   2.014   1.019   9.174 -1.2700  0.5576  0.5193
   45CHL1  H16B 5759   2.048   1.183   9.240  1.4537  0.8368  2.7120
   45CHL1   C17 5760   2.215   1.039   9.276 -0.4730  0.4119 -0.6728
   45CHL1   H17 5761   2.272   1.134   9.281  1.9721 -0.9450 -1.1312
   45CHL1   C13 5762   2.220   0.982   9.421 -0.3277 -0.1227  0.3876
   45CHL1   C18 5763   2.187   0.832   9.423 -0.0663  0.6621  0.1647
   45CHL1  H18A 5764   2.267   0.782   9.365 -0.3630 -0.3164  0.5801
   45CHL1  H18B 5765   2.184   0.788   9.525 -2.2035  0.6402  0.1499
   45CHL1  H18C 5766   2.094   0.803   9.369  0.7670 -2.2674  0.1761
   45CHL1   C12 5767   2.365   1.000   9.491  0.0702  0.6052  0.5232
   45CHL1  H12A 5768   2.372   0.932   9.579 -0.3492 -1.7399 -1.1651
   45CHL1  H12B 5769   2.447   0.969   9.423 -0.5122  3.4843 -1.6996
   45CHL1   C11 5770   2.400   1.151   9.528  0.0116  0.0745  0.0333
   45CHL1  H11A 5771   2.495   1.162   9.586 -0.4545  0.2573  0.7749
   45CHL1  H11B 5772   2.403   1.215   9.437 -0.4208 -0.2925 -0.2421
   45CHL1    C9 5773   2.285   1.220   9.607 -0.2295  0.6052  0.3522
   45CHL1    H9 5774   2.316   1.326   9.597  1.1837  0.3976  2.1363
   45CHL1   C10 5775   2.280   1.208   9.758 -0.1296  0.0642 -0.3857
   45CHL1   C19 5776   2.296   1.063   9.802 -0.2306  0.2208  0.2298
   45CHL1  H19A 5777   2.227   0.993   9.750  2.1109 -1.5095 -0.7330
   45CHL1  H19B 5778   2.399   1.031   9.775  0.6667  2.5308  0.6694
   45CHL1  H19C 5779   2.281   1.041   9.910  0.5774  0.0892  0.3197
   45CHL1    C1 5780   2.403   1.287   9.819 -0.6139 -0.1689  0.4487
   45CHL1   H1A 5781   2.495   1.229   9.794  1.4363  3.5726 -1.7505
   45CHL1   H1B 5782   2.416   1.389   9.777 -0.5898 -0.2232  0.3237
   45CHL1    C2 5783   2.402   1.312   9.972  0.0110 -0.9041 -0.5411
   45CHL1   H2A 5784   2.484   1.387   9.978  1.1071 -2.1288  0.1627
   45CHL1   H2B 5785   2.444   1.225  10.027 -1.5904 -1.8578 -0.7666
   45CHL1   C20 5786   2.279   0.948   9.163 -0.2673  0.7780  0.7408
   45CHL1   H20 5787   2.225   0.851   9.164  0.3541  0.3250 -1.9776
   45CHL1   C21 5788   2.436   0.926   9.178  0.1020  0.1281 -0.1221
   45CHL1  H21A 5789   2.481   0.902   9.080  0.3767  0.6579 -0.1285
   45CHL1  H21B 5790   2.446   0.846   9.255 -0.5674 -0.3988 -0.5681
   45CHL1  H21C 5791   2.492   1.017   9.209  0.7133 -0.0013 -0.8341
   45CHL1   C22 5792   2.266   1.012   9.022 -0.4980  0.0626  0.8675
   45CHL1  H22A 5793   2.295   0.932   8.950 -0.5260  3.0777 -2.7997
   45CHL1  H22B 5794   2.160   1.032   8.995 -0.4623  0.0465  0.7152
   45CHL1   C23 5795   2.348   1.134   9.005  0.7101  0.1320  0.7149
   45CHL1  H23A 5796   2.326   1.209   9.084 -0.0954 -0.3613  0.9781
   45CHL1  H23B 5797   2.458   1.124   9.012  0.5760 -0.9583  1.4723
   45CHL1   C24 5798   2.316   1.212   8.873 -0.5986  0.5549  0.1239
   45CHL1  H24A 5799   2.300   1.136   8.793  0.4699  0.3394  0.0894
   45CHL1  H24B 5800   2.215   1.252   8.892  0.2287  2.4722  0.7278
   45CHL1   C25 5801   2.407   1.332   8.847  1.3453  0.6537 -0.0809
   45CHL1   H25 5802   2.427   1.394   8.937 -2.8915  1.1061  0.7738
   45CHL1   C26 5803   2.540   1.280   8.789 -0.8403 -0.2348  1.1460
   45CHL1  H26A 5804   2.529   1.231   8.690  1.0969 -1.5928  1.5354
   45CHL1  H26B 5805   2.613   1.362   8.775  1.9440 -2.6878  0.1484
   45CHL1  H26C 5806   2.595   1.210   8.856 -0.9861 -0.3564  1.1390
   45CHL1   C27 5807   2.329   1.420   8.740 -0.6639 -0.1341 -0.2427
   45CHL1  H27A 5808   2.227   1.442   8.778 -1.3562 -0.2994 -1.9107
   45CHL1  H27B 5809   2.385   1.515   8.738  0.2364 -0.6622 -0.3846
   45CHL1  H27C 5810   2.326   1.371   8.640 -1.8067  0.5100 -0.5427
   46CHL1    C3 5811   6.675   4.452  10.074  0.0600  0.4935 -0.0075
   46CHL1    H3 5812   6.565   4.434  10.068 -0.4150  2.7269  0.9007
   46CHL1    O3 5813   6.699   4.495  10.205 -0.3190  0.4344  0.2319
   46CHL1   H3' 5814   6.687   4.590  10.203  2.8122  0.9334 -0.9902
   46CHL1    C4 5815   6.763   4.330  10.055 -0.6062 -0.3545 -0.4059
   46CHL1   H4A 5816   6.863   4.378  10.062 -0.8201  0.0521 -0.1149
   46CHL1   H4B 5817   6.754   4.263  10.143 -0.9347 -0.1706 -0.2979
   46CHL1    C5 5818   6.758   4.267   9.919  0.3393  0.3895  0.1919
   46CHL1    C6 5819   6.726   4.141   9.894  0.4799 -0.2029  0.1340
   46CHL1    H6 5820   6.710   4.081   9.985 -0.3771  0.2382  0.2867
   46CHL1    C7 5821   6.705   4.076   9.762  0.0076  0.5160  0.7916
   46CHL1   H7A 5822   6.762   3.981   9.754 -0.1599  0.4404  0.4836
   46CHL1   H7B 5823   6.599   4.042   9.757  0.5839 -1.1289 -1.5386
   46CHL1    C8 5824   6.747   4.178   9.643  0.3347  0.1969 -0.1435
   46CHL1    H8 5825   6.857   4.166   9.634  0.5170  0.2155  1.6463
   46CHL1   C14 5826   6.677   4.135   9.517  0.6059  0.1364  0.5413
   46CHL1   H14 5827   6.571   4.147   9.548  0.9868 -1.2254  2.5549
   46CHL1   C15 5828   6.687   3.981   9.479 -0.2614  0.6456  0.2808
   46CHL1  H15A 5829   6.790   3.949   9.505 -0.1993  1.4140  1.0257
   46CHL1  H15B 5830   6.609   3.921   9.529 -0.1950  1.5726  1.5594
   46CHL1   C16 5831   6.658   3.975   9.327 -0.0569 -0.1235  0.1719
   46CHL1  H16A 5832   6.742   3.920   9.279 -0.0786 -0.8350  0.9171
   46CHL1  H16B 5833   6.563   3.929   9.291  0.2197 -0.7418  0.2165
   46CHL1   C17 5834   6.648   4.122   9.283  0.2177 -0.9102  0.1522
   46CHL1   H17 5835   6.543   4.151   9.303 -0.4172 -1.1908 -2.5032
   46CHL1   C13 5836   6.711   4.212   9.394 -0.5640 -0.1783 -0.2880
   46CHL1   C18 5837   6.869   4.210   9.371  0.8500 -0.2035 -0.7944
   46CHL1  H18A 5838   6.892   4.274   9.283 -1.0264  2.5855  0.5621
   46CHL1  H18B 5839   6.931   4.244   9.456  1.0229 -1.0498 -0.5730
   46CHL1  H18C 5840   6.892   4.104   9.346  0.4255 -0.1148 -1.5646
   46CHL1   C12 5841   6.664   4.355   9.415  0.4071  0.3473 -0.6020
   46CHL1  H12A 5842   6.698   4.419   9.331  1.7899  0.9391  0.3662
   46CHL1  H12B 5843   6.553   4.359   9.416  0.4294  2.3514 -1.8393
   46CHL1   C11 5844   6.722   4.408   9.543 -0.2555 -0.2147 -0.2446
   46CHL1  H11A 5845   6.831   4.431   9.541 -0.2844 -0.0841 -0.3703
   46CHL1  H11B 5846   6.659   4.497   9.564 -1.3515 -1.0445  0.0699
   46CHL1    C9 5847   6.709   4.319   9.674  0.6281  0.8860 -0.3762
   46CHL1    H9 5848   6.600   4.322   9.692  0.7110  0.5175  0.2207
   46CHL1   C10 5849   6.770   4.371   9.810  0.8717 -0.8483  0.2902
   46CHL1   C19 5850   6.915   4.422   9.788  0.4891  0.2719 -0.3147
   46CHL1  H19A 5851   6.960   4.454   9.884  0.1078  1.2297 -0.4477
   46CHL1  H19B 5852   6.977   4.336   9.753  2.4266  0.4763  2.2797
   46CHL1  H19C 5853   6.934   4.497   9.709  0.0092 -0.3527 -1.0393
   46CHL1    C1 5854   6.685   4.498   9.840 -0.6177  0.1056  0.4354
   46CHL1   H1A 5855   6.720   4.566   9.759  2.0845  0.7151  1.9961
   46CHL1   H1B 5856   6.574   4.490   9.831 -0.6466 -0.5499  1.2767
   46CHL1    C2 5857   6.712   4.566   9.972  0.3978  0.4377  0.6654
   46CHL1   H2A 5858   6.639   4.647   9.994  1.6561  1.3424  1.6204
   46CHL1   H2B 5859   6.815   4.602   9.990  2.0560 -3.4823  0.0106
   46CHL1   C20 5860   6.686   4.159   9.138  0.0424 -0.0404 -1.0481
   46CHL1   H20 5861   6.789   4.198   9.122  0.5340 -1.3107 -1.0627
   46CHL1   C21 5862   6.590   4.273   9.084  0.8005 -0.0144  0.1037
   46CHL1  H21A 5863   6.631   4.307   8.986  1.0211  3.2023  1.1819
   46CHL1  H21B 5864   6.580   4.360   9.152 -2.4127 -0.7498  0.7106
   46CHL1  H21C 5865   6.490   4.232   9.061  1.3627 -0.2114 -2.2613
   46CHL1   C22 5866   6.662   4.035   9.038  0.2209 -0.5018  0.4192
   46CHL1  H22A 5867   6.710   3.943   9.079 -0.0312 -1.8184 -2.0175
   46CHL1  H22B 5868   6.554   4.014   9.023  0.3384  0.0970 -1.5583
   46CHL1   C23 5869   6.722   4.051   8.895 -0.5351  0.0015  0.1104
   46CHL1  H23A 5870   6.688   4.152   8.864  0.4952  0.8670  1.6514
   46CHL1  H23B 5871   6.833   4.054   8.901 -0.5000  0.3960 -0.7171
   46CHL1   C24 5872   6.680   3.935   8.800 -0.2620 -0.2593 -0.3066
   46CHL1  H24A 5873   6.704   3.831   8.833 -3.3639 -0.7054  0.8653
   46CHL1  H24B 5874   6.570   3.940   8.784 -0.1539  3.3252 -0.6575
   46CHL1   C25 5875   6.749   3.943   8.665  0.1652 -0.1158  0.3826
   46CHL1   H25 5876   6.855   3.964   8.687  0.2118  1.8322 -1.3895
   46CHL1   C26 5877   6.743   3.812   8.582 -0.0622  0.3629  0.0004
   46CHL1  H26A 5878   6.802   3.814   8.488  1.6500  0.3080  1.0317
   46CHL1  H26B 5879   6.789   3.730   8.641 -1.8139 -0.3060  0.4835
   46CHL1  H26C 5880   6.640   3.778   8.558  0.9948 -3.1995 -0.0328
   46CHL1   C27 5881   6.708   4.057   8.578  0.3731 -0.7840  0.5009
   46CHL1  H27A 5882   6.733   4.156   8.621 -0.0840  0.0139 -1.0256
   46CHL1  H27B 5883   6.766   4.041   8.484 -0.0821 -0.7781  0.2151
   46CHL1  H27C 5884   6.600   4.046   8.555  0.4873 -1.7081  0.3729
   47CHL1    C3 5885   6.684   2.663   9.825  0.4934  0.7108  0.5398
   47CHL1    H3 5886   6.671   2.771   9.801 -0.3909  0.4361 -0.3116
   47CHL1    O3 5887   6.614   2.639   9.947  0.1479 -0.3248  0.1004
   47CHL1   H3' 5888   6.690   2.607   9.996  0.1870  0.1723  0.3685
   47CHL1    C4 5889   6.617   2.583   9.702 -0.5643  0.1682 -0.0656
   47CHL1   H4A 5890   6.618   2.478   9.739 -0.6037  0.3531  0.4743
   47CHL1   H4B 5891   6.514   2.624   9.704 -0.3780  0.7561  3.0270
   47CHL1    C5 5892   6.679   2.611   9.565 -0.6866 -0.5051 -0.2085
   47CHL1    C6 5893   6.616   2.664   9.459  0.3466  0.3934 -0.2551
   47CHL1    H6 5894   6.507   2.673   9.463  0.3981  0.7465  0.9407
   47CHL1    C7 5895   6.680   2.683   9.325  0.4078  0.0651  0.7362
   47CHL1   H7A 5896   6.619   2.654   9.237  1.1180  3.1381 -0.9121
   47CHL1   H7B 5897   6.691   2.793   9.315 -0.1098  0.1952  1.4892
   47CHL1    C8 5898   6.815   2.617   9.311  0.3086 -0.5196  0.7413
   47CHL1    H8 5899   6.801   2.509   9.287  0.9750 -0.3616 -0.4538
   47CHL1   C14 5900   6.891   2.661   9.180  0.3565  0.2009  0.6712
   47CHL1   H14 5901   6.895   2.772   9.185 -0.7729  0.5461 -3.0191
   47CHL1   C15 5902   6.813   2.637   9.047 -0.3891  0.5978  0.0131
   47CHL1  H15A 5903   6.779   2.531   9.044  0.7292  0.2248 -0.1760
   47CHL1  H15B 5904   6.729   2.708   9.055 -0.1755  0.6457  3.1935
   47CHL1   C16 5905   6.926   2.668   8.949  0.1443  0.2902  0.0707
   47CHL1  H16A 5906   6.941   2.586   8.875  0.9565 -0.0812  0.6413
   47CHL1  H16B 5907   6.889   2.760   8.898  0.4023  0.2109 -0.2626
   47CHL1   C17 5908   7.060   2.686   9.020  0.0064 -0.4888  0.0262
   47CHL1   H17 5909   7.069   2.795   9.041 -1.2082 -0.4000  0.1454
   47CHL1   C13 5910   7.034   2.625   9.155  0.5448  0.5198 -0.2282
   47CHL1   C18 5911   7.047   2.464   9.140 -0.1190  0.1661  0.5829
   47CHL1  H18A 5912   6.986   2.422   9.057 -0.0509  0.4259  0.3985
   47CHL1  H18B 5913   7.157   2.449   9.134  0.3323  0.9240  4.3786
   47CHL1  H18C 5914   7.011   2.425   9.237  0.9604 -0.0442  0.9167
   47CHL1   C12 5915   7.109   2.677   9.281 -0.4205 -0.0529 -0.3774
   47CHL1  H12A 5916   7.212   2.637   9.268 -0.9810 -1.0681 -1.9407
   47CHL1  H12B 5917   7.098   2.787   9.288 -1.5827 -0.1589 -0.3747
   47CHL1   C11 5918   7.052   2.614   9.414 -0.6973  0.3518 -0.4455
   47CHL1  H11A 5919   7.060   2.504   9.404  0.9561  0.4572 -0.5014
   47CHL1  H11B 5920   7.111   2.647   9.503 -0.7851 -0.0288 -0.2462
   47CHL1    C9 5921   6.900   2.639   9.436  0.9512  0.6541  0.4825
   47CHL1    H9 5922   6.893   2.749   9.452  3.5683  0.9348  0.1287
   47CHL1   C10 5923   6.829   2.585   9.567 -0.6965 -0.0130  1.1898
   47CHL1   C19 5924   6.862   2.428   9.571 -0.3906 -0.8426  0.3535
   47CHL1  H19A 5925   6.807   2.382   9.656 -2.4433  0.2728 -0.2965
   47CHL1  H19B 5926   6.852   2.383   9.470  1.1761 -2.5226  0.9075
   47CHL1  H19C 5927   6.971   2.428   9.591 -0.6186  1.4068  2.0315
   47CHL1    C1 5928   6.904   2.646   9.691 -0.1483 -0.2971 -0.5398
   47CHL1   H1A 5929   7.006   2.612   9.717  0.5359  2.6374  1.0060
   47CHL1   H1B 5930   6.914   2.756   9.684  1.5000 -0.5112 -2.3377
   47CHL1    C2 5931   6.835   2.627   9.832  0.8502  0.2198  0.6232
   47CHL1   H2A 5932   6.879   2.695   9.909 -3.0725  4.1108 -0.1157
   47CHL1   H2B 5933   6.841   2.520   9.858 -0.4903 -0.2653 -0.8863
   47CHL1   C20 5934   7.179   2.645   8.937 -0.3773  0.9907  0.6490
   47CHL1   H20 5935   7.171   2.535   8.929  0.3618  0.8544  1.6129
   47CHL1   C21 5936   7.310   2.677   9.010  0.0071  0.6445  0.2384
   47CHL1  H21A 5937   7.314   2.613   9.100  0.3221  1.5265  0.8648
   47CHL1  H21B 5938   7.308   2.785   9.034 -0.9964  0.9514 -1.0977
   47CHL1  H21C 5939   7.401   2.656   8.949 -0.0272 -0.3621  0.5230
   47CHL1   C22 5940   7.195   2.711   8.795 -0.1437 -0.4637 -0.5341
   47CHL1  H22A 5941   7.292   2.672   8.756  0.1454  0.6927 -1.0068
   47CHL1  H22B 5942   7.106   2.671   8.740 -0.1146 -1.8392  0.3734
   47CHL1   C23 5943   7.190   2.862   8.794 -0.5815  0.3732  1.2171
   47CHL1  H23A 5944   7.100   2.902   8.847 -2.6058  0.5901 -2.1313
   47CHL1  H23B 5945   7.276   2.897   8.854  0.1491  0.2891  0.2340
   47CHL1   C24 5946   7.179   2.928   8.654  0.3185 -0.1994 -0.6424
   47CHL1  H24A 5947   7.253   2.882   8.584  0.2936  0.3513 -1.0316
   47CHL1  H24B 5948   7.077   2.910   8.614  0.8642  0.5198 -2.4751
   47CHL1   C25 5949   7.215   3.079   8.660 -0.7050 -0.1445 -0.3987
   47CHL1   H25 5950   7.317   3.087   8.704 -1.3778  0.7217  1.0847
   47CHL1   C26 5951   7.216   3.137   8.518  0.0871 -0.1655  0.4603
   47CHL1  H26A 5952   7.280   3.070   8.457  1.9866 -0.4928  2.6795
   47CHL1  H26B 5953   7.248   3.243   8.510  3.8351 -1.0901  1.1492
   47CHL1  H26C 5954   7.111   3.126   8.484  0.2723 -1.7390  0.3556
   47CHL1   C27 5955   7.120   3.159   8.746  0.1806 -0.1252 -0.0709
   47CHL1  H27A 5956   7.126   3.131   8.853  0.2068 -0.1756 -0.0850
   47CHL1  H27B 5957   7.142   3.267   8.733 -1.1762  0.0554 -1.0592
   47CHL1  H27C 5958   7.016   3.136   8.715  0.1233 -0.1022  0.1059
   48CHL1    C3 5959   0.445   3.503  10.082 -0.1634 -0.9543  0.1172
   48CHL1    H3 5960   0.336   3.515  10.064 -0.4349  0.9638  2.4525
   48CHL1    O3 5961   0.467   3.513  10.225 -0.6020  0.5609  0.2705
   48CHL1   H3' 5962   0.461   3.420  10.247 -2.5969  0.4466 -0.5742
   48CHL1    C4 5963   0.499   3.374  10.025 -0.1296  0.8740  0.4730
   48CHL1   H4A 5964   0.598   3.348  10.070 -0.3038  1.9030  1.4964
   48CHL1   H4B 5965   0.435   3.290  10.060  2.4237 -1.0291  0.9092
   48CHL1    C5 5966   0.509   3.377   9.872  0.1546 -0.0030  0.4944
   48CHL1    C6 5967   0.456   3.280   9.797 -0.0788 -0.3094  0.3342
   48CHL1    H6 5968   0.403   3.205   9.857 -0.7990  0.7281  1.0221
   48CHL1    C7 5969   0.459   3.278   9.642  0.1553 -0.2021  0.1522
   48CHL1   H7A 5970   0.498   3.182   9.600  0.5409 -0.2031  0.5102
   48CHL1   H7B 5971   0.359   3.306   9.602  0.4975  2.7894  1.2030
   48CHL1    C8 5972   0.555   3.381   9.580  0.0919  0.0381  0.2363
   48CHL1    H8 5973   0.661   3.347   9.579 -0.4060 -1.5875  0.0475
   48CHL1   C14 5974   0.533   3.390   9.427  0.5613  0.0357 -0.7688
   48CHL1   H14 5975   0.427   3.421   9.415  0.6075  0.5087 -0.0483
   48CHL1   C15 5976   0.545   3.262   9.348 -0.6636 -0.0591 -0.3682
   48CHL1  H15A 5977   0.640   3.206   9.360  0.1946  0.8767 -2.2341
   48CHL1  H15B 5978   0.458   3.193   9.360 -0.5372 -0.4764 -1.6132
   48CHL1   C16 5979   0.546   3.324   9.200 -0.4278 -0.1274 -0.2145
   48CHL1  H16A 5980   0.623   3.275   9.137  0.1531  0.1783  0.2475
   48CHL1  H16B 5981   0.446   3.294   9.161  0.4774 -1.2962 -1.6993
   48CHL1   C17 5982   0.555   3.481   9.210 -0.1449  0.0717  0.3730
   48CHL1   H17 5983   0.450   3.519   9.213  0.7334  2.9479 -1.5304
   48CHL1   C13 5984   0.615   3.499   9.351 -0.1696 -0.6029 -0.1216
   48CHL1   C18 5985   0.775   3.476   9.342  0.7292 -0.7483 -0.1953
   48CHL1  H18A 5986   0.819   3.458   9.443  0.4657  0.8743  0.2528
   48CHL1  H18B 5987   0.789   3.380   9.288 -1.4472  0.1156 -2.4990
   48CHL1  H18C 5988   0.821   3.561   9.287  1.4732  0.3042  1.9078
   48CHL1   C12 5989   0.583   3.631   9.423  0.3109 -0.5288  0.5747
   48CHL1  H12A 5990   0.630   3.715   9.368 -2.5209  1.4879  1.0461
   48CHL1  H12B 5991   0.475   3.653   9.419  0.3856 -0.2980 -2.8990
   48CHL1   C11 5992   0.619   3.620   9.573 -1.0224 -0.5949  0.1884
   48CHL1  H11A 5993   0.728   3.601   9.582 -0.7561  1.0462  0.7958
   48CHL1  H11B 5994   0.610   3.716   9.629 -0.6586 -0.6014  0.2583
   48CHL1    C9 5995   0.544   3.519   9.651  0.4639 -0.4855  0.2852
   48CHL1    H9 5996   0.435   3.541   9.645  0.3693 -0.3503  1.9212
   48CHL1   C10 5997   0.576   3.499   9.804 -0.7396  0.0085  0.7505
   48CHL1   C19 5998   0.733   3.499   9.817  0.0647 -0.1191 -0.0929
   48CHL1  H19A 5999   0.779   3.591   9.777 -0.3648 -0.0873 -0.5257
   48CHL1  H19B 6000   0.758   3.492   9.925  1.0935 -2.9678 -0.4155
   48CHL1  H19C 6001   0.772   3.408   9.766 -1.1179 -1.0618  0.6163
   48CHL1    C1 6002   0.518   3.626   9.876  0.2883  0.3107  0.2923
   48CHL1   H1A 6003   0.583   3.711   9.847  1.8336 -1.1605 -0.7450
   48CHL1   H1B 6004   0.414   3.643   9.840  0.6182 -0.4259 -1.1094
   48CHL1    C2 6005   0.518   3.626  10.029 -0.2928 -0.2637 -0.1082
   48CHL1   H2A 6006   0.456   3.715  10.055  0.3643 -0.0707  0.8114
   48CHL1   H2B 6007   0.618   3.634  10.075  0.5596 -0.6450 -1.7951
   48CHL1   C20 6008   0.624   3.558   9.093  0.4100  0.3440  0.0935
   48CHL1   H20 6009   0.733   3.542   9.099  0.5616  1.5803  0.8267
   48CHL1   C21 6010   0.617   3.709   9.101 -0.0385 -0.2145 -0.0257
   48CHL1  H21A 6011   0.525   3.751   9.148 -0.0120 -0.8039  0.5789
   48CHL1  H21B 6012   0.621   3.747   8.997 -2.9483 -1.2289 -0.6208
   48CHL1  H21C 6013   0.711   3.747   9.146  2.6898 -2.4970 -3.2437
   48CHL1   C22 6014   0.581   3.517   8.955 -0.3703 -0.3333  0.1269
   48CHL1  H22A 6015   0.555   3.409   8.955 -1.4097 -0.0853 -0.0490
   48CHL1  H22B 6016   0.491   3.574   8.925  0.1308  0.7020  0.5710
   48CHL1   C23 6017   0.684   3.536   8.847 -0.0179 -0.0713 -0.0844
   48CHL1  H23A 6018   0.740   3.631   8.848 -2.3721  1.4505  2.6227
   48CHL1  H23B 6019   0.751   3.453   8.878  0.4110 -0.4832 -2.0345
   48CHL1   C24 6020   0.634   3.515   8.704  0.4900  0.4434  0.2622
   48CHL1  H24A 6021   0.566   3.427   8.701  0.6269  0.2506  1.9727
   48CHL1  H24B 6022   0.557   3.593   8.684 -0.0615  0.2985  1.6837
   48CHL1   C25 6023   0.728   3.518   8.581  0.0048  0.0102 -0.7940
   48CHL1   H25 6024   0.804   3.440   8.597  2.0022  1.8277 -0.9649
   48CHL1   C26 6025   0.638   3.489   8.460 -0.5681 -0.0165 -0.1324
   48CHL1  H26A 6026   0.580   3.395   8.472  2.5068 -2.5259 -2.9889
   48CHL1  H26B 6027   0.562   3.567   8.438 -0.6471 -0.3393 -1.0536
   48CHL1  H26C 6028   0.699   3.479   8.367 -1.8871 -0.2403 -0.9919
   48CHL1   C27 6029   0.806   3.657   8.565  0.2133  0.5618  0.2691
   48CHL1  H27A 6030   0.730   3.736   8.582 -0.2428  0.2476 -0.2706
   48CHL1  H27B 6031   0.884   3.656   8.644  0.4318 -0.6326  0.0627
   48CHL1  H27C 6032   0.844   3.680   8.463  1.1874 -0.2084  0.4451
   49CHL1    C3 6033   5.522   4.382  10.083 -0.2689  0.1463 -0.3748
   49CHL1    H3 6034   5.419   4.416  10.062  0.2474  1.3594 -1.0388
   49CHL1    O3 6035   5.544   4.408  10.222 -0.1428 -0.2177  0.0684
   49CHL1   H3' 6036   5.638   4.412  10.236  0.1489 -2.5404 -0.7005
   49CHL1    C4 6037   5.537   4.231  10.060 -0.2177 -0.0063 -0.7222
   49CHL1   H4A 6038   5.637   4.198  10.097  0.5869  1.4970 -1.4649
   49CHL1   H4B 6039   5.467   4.182  10.131 -2.1225  0.9416 -1.8646
   49CHL1    C5 6040   5.510   4.194   9.915  0.0159 -0.1924  0.6155
   49CHL1    C6 6041   5.417   4.108   9.872  0.7757 -0.3700 -0.0497
   49CHL1    H6 6042   5.354   4.056   9.945 -0.1482 -0.8858 -1.1816
   49CHL1    C7 6043   5.393   4.078   9.726  0.3202 -0.2987  1.2147
   49CHL1   H7A 6044   5.393   3.971   9.697  0.2976  0.7170 -3.3922
   49CHL1   H7B 6045   5.299   4.120   9.683  2.6745  3.7172 -0.5470
   49CHL1    C8 6046   5.500   4.143   9.619  0.1209  0.0153 -0.6938
   49CHL1    H8 6047   5.590   4.078   9.620  0.0698 -0.0666  0.5430
   49CHL1   C14 6048   5.439   4.151   9.484  0.2191  0.4637  0.6231
   49CHL1   H14 6049   5.353   4.219   9.499 -0.1860  0.2462 -0.5652
   49CHL1   C15 6050   5.370   4.031   9.425 -0.0765  0.6513  0.2640
   49CHL1  H15A 6051   5.428   3.940   9.451  1.7902  1.7318  0.0235
   49CHL1  H15B 6052   5.266   4.007   9.456 -0.5282  1.2428 -0.7462
   49CHL1   C16 6053   5.364   4.063   9.273 -0.7166  0.2139  0.2272
   49CHL1  H16A 6054   5.431   3.991   9.222  1.4829  2.5862 -0.4129
   49CHL1  H16B 6055   5.264   4.065   9.224 -0.4682  2.3245 -0.2917
   49CHL1   C17 6056   5.436   4.204   9.263  0.8352  0.6113  1.1504
   49CHL1   H17 6057   5.352   4.271   9.291 -0.5314 -1.4993  2.3272
   49CHL1   C13 6058   5.531   4.213   9.371 -0.8299 -0.0437 -0.6878
   49CHL1   C18 6059   5.648   4.117   9.351  0.2032  0.3789  0.1472
   49CHL1  H18A 6060   5.616   4.030   9.291 -2.1585  1.4202 -0.2205
   49CHL1  H18B 6061   5.724   4.160   9.282 -0.9129  0.8014 -0.8581
   49CHL1  H18C 6062   5.708   4.080   9.437 -0.3770 -0.4722  0.1955
   49CHL1   C12 6063   5.583   4.349   9.415  0.0711 -0.4644  0.7031
   49CHL1  H12A 6064   5.663   4.388   9.349 -1.4451  0.3861 -0.7174
   49CHL1  H12B 6065   5.507   4.430   9.411  1.3155  0.7261  0.4823
   49CHL1   C11 6066   5.645   4.348   9.561 -0.6996 -0.6844  0.1920
   49CHL1  H11A 6067   5.732   4.283   9.537 -0.4077  0.0657 -0.8588
   49CHL1  H11B 6068   5.679   4.450   9.586 -1.5223 -0.0850 -1.0366
   49CHL1    C9 6069   5.552   4.288   9.661  0.2320 -0.2211  0.0408
   49CHL1    H9 6070   5.458   4.346   9.666  0.4425  0.0738  0.7945
   49CHL1   C10 6071   5.590   4.291   9.810  0.1214 -0.0423 -0.1613
   49CHL1   C19 6072   5.734   4.232   9.817 -0.3014  0.1614  0.2287
   49CHL1  H19A 6073   5.806   4.300   9.767 -0.8901  1.7706  1.4914
   49CHL1  H19B 6074   5.769   4.218   9.921 -0.8397 -0.7997  0.2915
   49CHL1  H19C 6075   5.727   4.136   9.761 -1.5388  2.0646 -3.1576
   49CHL1    C1 6076   5.584   4.445   9.856  0.5613 -0.2196  0.1698
   49CHL1   H1A 6077   5.665   4.499   9.803  1.7926 -0.1159  2.0355
   49CHL1   H1B 6078   5.484   4.488   9.831 -0.0803 -1.9863 -0.4414
   49CHL1    C2 6079   5.613   4.464  10.001  0.1111 -0.3194  0.1776
   49CHL1   H2A 6080   5.607   4.572  10.024 -0.3409 -0.7437  2.2552
   49CHL1   H2B 6081   5.717   4.430  10.020 -0.4106 -2.2443 -0.2160
   49CHL1   C20 6082   5.494   4.257   9.130 -0.6853  0.1091  0.2725
   49CHL1   H20 6083   5.583   4.317   9.158  0.9540 -0.8788 -2.4184
   49CHL1   C21 6084   5.394   4.348   9.059  0.3072 -0.6643  0.0618
   49CHL1  H21A 6085   5.443   4.406   8.978  1.1212 -0.3954  0.7312
   49CHL1  H21B 6086   5.349   4.421   9.129  0.8577  0.8304 -1.0802
   49CHL1  H21C 6087   5.307   4.289   9.022  0.4129 -0.8402  0.0901
   49CHL1   C22 6088   5.555   4.145   9.040  0.5544 -0.2284 -0.3133
   49CHL1  H22A 6089   5.640   4.098   9.094  1.2072  0.6460 -0.5578
   49CHL1  H22B 6090   5.470   4.079   9.012  1.4976 -1.5022 -0.2318
   49CHL1   C23 6091   5.616   4.200   8.916 -0.1506 -0.8004  0.3790
   49CHL1  H23A 6092   5.541   4.250   8.851  1.4762 -1.1928 -1.9436
   49CHL1  H23B 6093   5.698   4.268   8.948 -1.0276  1.1813 -1.2945
   49CHL1   C24 6094   5.679   4.085   8.828  0.1330  0.7777  0.8492
   49CHL1  H24A 6095   5.753   4.030   8.890  0.0723 -0.2381  0.0305
   49CHL1  H24B 6096   5.616   3.999   8.797  0.6043  0.3438  1.0878
   49CHL1   C25 6097   5.761   4.139   8.715  0.3338  0.1607 -0.4775
   49CHL1   H25 6098   5.833   4.206   8.765  0.4730 -1.2819  1.3526
   49CHL1   C26 6099   5.831   4.022   8.646 -0.1382 -0.3742 -0.4031
   49CHL1  H26A 6100   5.920   4.059   8.590  0.9701 -1.3222  0.6846
   49CHL1  H26B 6101   5.875   3.952   8.721  1.2645  1.9370  1.0628
   49CHL1  H26C 6102   5.769   3.968   8.572 -0.9174 -1.1517  0.7897
   49CHL1   C27 6103   5.674   4.220   8.617  0.0504 -1.3797  0.0317
   49CHL1  H27A 6104   5.637   4.304   8.678 -0.8178 -1.5121 -0.2974
   49CHL1  H27B 6105   5.737   4.265   8.536 -0.1963  3.3486  2.1239
   49CHL1  H27C 6106   5.573   4.184   8.589 -0.9750  0.2157  1.5169
   50CHL1    C3 6107   2.846   6.595  10.130  0.4777  0.7803 -1.2974
   50CHL1    H3 6108   2.872   6.700  10.103 -2.2295  1.3682 -1.9319
   50CHL1    O3 6109   2.820   6.586  10.271 -0.6400 -0.1283  0.3885
   50CHL1   H3' 6110   2.789   6.496  10.285 -1.8920  0.3811  1.0490
   50CHL1    C4 6111   2.727   6.558  10.049 -0.0848 -0.1378 -0.6665
   50CHL1   H4A 6112   2.700   6.454  10.079 -1.2974  0.0155 -1.1547
   50CHL1   H4B 6113   2.645   6.630  10.074  1.3525  0.2910  3.7592
   50CHL1    C5 6114   2.754   6.554   9.897 -0.1338 -0.6240  0.6576
   50CHL1    C6 6115   2.683   6.634   9.810 -0.5829 -0.1209 -0.0956
   50CHL1    H6 6116   2.598   6.688   9.854  0.2266  2.3514 -1.3823
   50CHL1    C7 6117   2.706   6.632   9.660  0.0328  0.2332  0.1407
   50CHL1   H7A 6118   2.617   6.605   9.599  0.5408  1.0487 -1.0057
   50CHL1   H7B 6119   2.737   6.731   9.621 -1.6990 -0.2282 -2.6475
   50CHL1    C8 6120   2.810   6.526   9.611 -0.1782 -0.5264 -0.8021
   50CHL1    H8 6121   2.756   6.430   9.603  0.5896 -1.1454  0.8428
   50CHL1   C14 6122   2.865   6.565   9.472 -0.6406  0.2759  0.6167
   50CHL1   H14 6123   2.919   6.661   9.488 -0.3571  0.4001 -0.9631
   50CHL1   C15 6124   2.773   6.607   9.355 -0.4157  1.0716 -0.5654
   50CHL1  H15A 6125   2.693   6.535   9.330 -0.2948  1.1268 -1.1116
   50CHL1  H15B 6126   2.732   6.710   9.364  0.8459  1.5443  0.1831
   50CHL1   C16 6127   2.869   6.599   9.239 -0.0850 -0.5984  0.6653
   50CHL1  H16A 6128   2.832   6.539   9.153 -1.4831  2.1179 -0.7896
   50CHL1  H16B 6129   2.898   6.698   9.196 -0.4885 -0.3325  1.0036
   50CHL1   C17 6130   3.008   6.529   9.288 -0.2404 -0.0437  0.7880
   50CHL1   H17 6131   3.075   6.614   9.311 -0.7908  0.7501 -0.4393
   50CHL1   C13 6132   2.971   6.457   9.419 -0.3237  0.1755 -0.3043
   50CHL1   C18 6133   2.899   6.327   9.388  0.6797 -0.1767  0.9844
   50CHL1  H18A 6134   2.966   6.247   9.350 -0.3283 -0.4802 -0.1873
   50CHL1  H18B 6135   2.847   6.287   9.478 -0.7159  1.4955  0.9582
   50CHL1  H18C 6136   2.821   6.349   9.313  0.8328 -0.7261  0.6609
   50CHL1   C12 6137   3.082   6.443   9.522  0.4644 -1.2554  0.1486
   50CHL1  H12A 6138   3.151   6.363   9.486 -1.9058 -3.2618 -0.1602
   50CHL1  H12B 6139   3.131   6.543   9.524  1.4397 -1.6201 -1.8794
   50CHL1   C11 6140   3.024   6.402   9.659 -0.0643 -0.3065  0.1846
   50CHL1  H11A 6141   2.982   6.299   9.652 -1.6492  0.2950  0.4457
   50CHL1  H11B 6142   3.114   6.394   9.723 -0.2614  0.0847  0.5108
   50CHL1    C9 6143   2.919   6.507   9.705  0.0462  0.9802 -0.2247
   50CHL1    H9 6144   2.961   6.608   9.718 -0.6220  1.2602 -0.1747
   50CHL1   C10 6145   2.875   6.471   9.852  0.8469 -0.0989  0.0789
   50CHL1   C19 6146   2.842   6.327   9.864  0.1992 -0.3406  0.2819
   50CHL1  H19A 6147   2.929   6.259   9.851 -0.9197 -1.8751  0.4025
   50CHL1  H19B 6148   2.806   6.310   9.968 -2.2885  1.1581 -0.2592
   50CHL1  H19C 6149   2.765   6.306   9.786 -0.5381 -0.2874  0.9816
   50CHL1    C1 6150   2.992   6.499   9.949  0.1047 -0.6033 -0.4161
   50CHL1   H1A 6151   3.087   6.445   9.930 -1.6237 -4.3651  0.6520
   50CHL1   H1B 6152   3.025   6.604   9.936 -0.0799 -0.3826  0.8145
   50CHL1    C2 6153   2.961   6.486  10.098 -0.5516  0.0576  0.2626
   50CHL1   H2A 6154   3.055   6.507  10.153 -0.4883  1.1866 -0.2536
   50CHL1   H2B 6155   2.914   6.390  10.131 -2.0398  1.2573  1.7788
   50CHL1   C20 6156   3.076   6.457   9.162 -1.0747  0.3525 -0.1990
   50CHL1   H20 6157   3.004   6.380   9.126  0.6983 -1.3291 -0.3476
   50CHL1   C21 6158   3.202   6.384   9.213 -0.2183 -0.1096  0.6429
   50CHL1  H21A 6159   3.280   6.343   9.145  0.3535  1.8212  0.0828
   50CHL1  H21B 6160   3.169   6.301   9.279 -0.3934 -2.3047 -2.0212
   50CHL1  H21C 6161   3.260   6.453   9.278  0.5734  0.4439 -0.6130
   50CHL1   C22 6162   3.108   6.554   9.048 -0.2739 -0.5269  0.1481
   50CHL1  H22A 6163   3.014   6.605   9.016  0.1287 -0.6067 -1.2216
   50CHL1  H22B 6164   3.178   6.636   9.074  0.2395 -0.9173  0.0248
   50CHL1   C23 6165   3.160   6.481   8.922  0.0295 -0.1505 -0.4158
   50CHL1  H23A 6166   3.257   6.433   8.946 -0.5195 -0.3565  1.5884
   50CHL1  H23B 6167   3.085   6.399   8.922  0.6499 -0.7377  0.5946
   50CHL1   C24 6168   3.160   6.572   8.801  0.2425  0.6490  0.6613
   50CHL1  H24A 6169   3.063   6.621   8.781  0.9719  1.9386  0.1385
   50CHL1  H24B 6170   3.228   6.658   8.822 -0.3352  1.8289 -1.8694
   50CHL1   C25 6171   3.195   6.494   8.673 -0.6022 -0.2333 -0.1038
   50CHL1   H25 6172   3.281   6.427   8.695 -0.5738 -0.8575 -1.8932
   50CHL1   C26 6173   3.083   6.398   8.628  0.4379 -0.4696 -0.0082
   50CHL1  H26A 6174   3.136   6.333   8.555  1.7465  1.2846 -0.7044
   50CHL1  H26B 6175   3.055   6.332   8.713  0.1069 -1.5581 -0.9363
   50CHL1  H26C 6176   2.996   6.445   8.578  0.5601  0.5757  0.7281
   50CHL1   C27 6177   3.232   6.600   8.563 -0.1435  0.3101 -0.3576
   50CHL1  H27A 6178   3.271   6.545   8.475 -0.0570 -0.9295  0.4296
   50CHL1  H27B 6179   3.141   6.652   8.528 -0.5475  1.4097  2.1660
   50CHL1  H27C 6180   3.301   6.680   8.598 -0.8862  1.7193 -2.0027
   51CHL1    C3 6181   5.407   0.177  10.084  0.1818 -0.2177 -0.1804
   51CHL1    H3 6182   5.398   0.281  10.047  1.1921  0.0748  0.3519
   51CHL1    O3 6183   5.408   0.184  10.225 -0.2840  0.0368  0.3836
   51CHL1   H3' 6184   5.391   0.092  10.246 -2.4210 -0.2328 -2.0852
   51CHL1    C4 6185   5.280   0.101  10.038 -0.0859 -0.0124  0.1558
   51CHL1   H4A 6186   5.281  -0.007  10.064  3.3771  0.3921  2.2806
   51CHL1   H4B 6187   5.195   0.149  10.092  0.9688  3.0921 -0.7287
   51CHL1    C5 6188   5.265   0.112   9.887 -0.8293 -0.8743 -0.0125
   51CHL1    C6 6189   5.158   0.165   9.833  0.0111  0.0168  0.5578
   51CHL1    H6 6190   5.069   0.179   9.895 -1.3283  0.1437 -1.2992
   51CHL1    C7 6191   5.145   0.173   9.683 -0.2477  0.8296 -0.3147
   51CHL1   H7A 6192   5.053   0.122   9.648  0.5735  0.2668 -1.7907
   51CHL1   H7B 6193   5.143   0.280   9.650 -1.8036  0.5456 -1.2620
   51CHL1    C8 6194   5.258   0.097   9.602  0.2038 -0.3444 -0.6956
   51CHL1    H8 6195   5.244  -0.012   9.589  1.7685 -0.9128  1.7884
   51CHL1   C14 6196   5.262   0.156   9.463 -0.8686  0.0218 -0.3480
   51CHL1   H14 6197   5.306   0.258   9.465 -0.8932  0.0946  3.1787
   51CHL1   C15 6198   5.133   0.185   9.386 -0.4484 -0.8419 -0.3260
   51CHL1  H15A 6199   5.063   0.101   9.407 -0.2760 -0.6986  0.9146
   51CHL1  H15B 6200   5.081   0.280   9.411  0.2871 -0.2777 -0.8938
   51CHL1   C16 6201   5.181   0.194   9.239  0.1314 -0.4045  0.4082
   51CHL1  H16A 6202   5.136   0.124   9.165 -1.7175  3.0113 -1.9534
   51CHL1  H16B 6203   5.162   0.298   9.205  1.6368 -0.1331  0.3087
   51CHL1   C17 6204   5.337   0.179   9.236  0.0696 -0.3573 -0.4130
   51CHL1   H17 6205   5.381   0.280   9.247 -0.7773  0.0658 -0.8285
   51CHL1   C13 6206   5.357   0.098   9.359  0.8105 -0.3099 -0.0969
   51CHL1   C18 6207   5.323  -0.052   9.329 -0.7927 -0.4352  0.1656
   51CHL1  H18A 6208   5.323  -0.125   9.413  0.2035 -1.1551 -0.4563
   51CHL1  H18B 6209   5.224  -0.072   9.283 -1.3893  0.5862  0.9367
   51CHL1  H18C 6210   5.403  -0.091   9.263  1.3804 -2.9781  3.9162
   51CHL1   C12 6211   5.500   0.112   9.414 -0.1510  0.3140 -0.7032
   51CHL1  H12A 6212   5.576   0.061   9.351 -0.0143  0.8429 -0.9685
   51CHL1  H12B 6213   5.535   0.217   9.405 -0.2967  0.3411 -0.9703
   51CHL1   C11 6214   5.510   0.064   9.568  0.0329  0.2847  0.3915
   51CHL1  H11A 6215   5.514  -0.047   9.568  0.5694  0.2724 -1.3380
   51CHL1  H11B 6216   5.608   0.106   9.598 -0.6841  1.7827  0.7578
   51CHL1    C9 6217   5.400   0.117   9.664  0.1054  1.0645 -1.1708
   51CHL1    H9 6218   5.421   0.225   9.679  0.1726  0.9709 -0.5570
   51CHL1   C10 6219   5.400   0.067   9.814 -0.3885 -0.0221  0.3070
   51CHL1   C19 6220   5.419  -0.087   9.818 -0.2070 -0.0985  0.4022
   51CHL1  H19A 6221   5.342  -0.134   9.752 -0.6082 -1.0251  1.4920
   51CHL1  H19B 6222   5.522  -0.111   9.785 -0.8451 -1.6089 -0.6363
   51CHL1  H19C 6223   5.405  -0.127   9.920 -2.7242  1.2710  0.6875
   51CHL1    C1 6224   5.526   0.135   9.880 -0.7566 -0.6254  0.3568
   51CHL1   H1A 6225   5.621   0.091   9.844 -0.7736 -2.5995  2.4547
   51CHL1   H1B 6226   5.515   0.243   9.857  2.8274 -0.6877 -2.4905
   51CHL1    C2 6227   5.530   0.114  10.031 -0.6425  0.1002  0.3703
   51CHL1   H2A 6228   5.617   0.175  10.065 -1.3551  1.4080 -0.0950
   51CHL1   H2B 6229   5.534   0.006  10.058 -2.2374 -0.4115 -1.2700
   51CHL1   C20 6230   5.380   0.131   9.104 -0.5111  0.0993  0.5612
   51CHL1   H20 6231   5.359   0.023   9.089  0.9024 -0.2553  1.0056
   51CHL1   C21 6232   5.532   0.121   9.088  0.8151 -0.6812  0.0758
   51CHL1  H21A 6233   5.575   0.029   9.134  1.0684 -0.3888  0.4195
   51CHL1  H21B 6234   5.568   0.215   9.135  1.8030 -1.0062 -0.0250
   51CHL1  H21C 6235   5.564   0.120   8.982  0.4978  1.7085 -0.0806
   51CHL1   C22 6236   5.321   0.209   8.981  0.2330 -0.3828  0.0601
   51CHL1  H22A 6237   5.364   0.160   8.891  0.0651 -2.1422  0.9088
   51CHL1  H22B 6238   5.210   0.211   8.974  0.1863  0.5723  0.8367
   51CHL1   C23 6239   5.366   0.355   8.965  0.1125  0.6005  0.0278
   51CHL1  H23A 6240   5.332   0.406   9.058 -2.6699 -0.6353 -0.1974
   51CHL1  H23B 6241   5.475   0.368   8.950  0.3673 -1.1595  0.1731
   51CHL1   C24 6242   5.292   0.436   8.853 -0.0278  0.7671 -0.1769
   51CHL1  H24A 6243   5.187   0.451   8.888 -0.2188  2.3427 -1.3493
   51CHL1  H24B 6244   5.328   0.541   8.854  0.0561  0.8020 -2.6566
   51CHL1   C25 6245   5.286   0.381   8.705  0.3323  0.1069 -1.1531
   51CHL1   H25 6246   5.228   0.288   8.719 -0.8754  1.0517  0.4787
   51CHL1   C26 6247   5.188   0.456   8.614 -0.0329  0.4044  0.5208
   51CHL1  H26A 6248   5.089   0.464   8.664  0.2558  0.0643  1.1544
   51CHL1  H26B 6249   5.239   0.553   8.594  2.3786 -0.7929  0.5256
   51CHL1  H26C 6250   5.174   0.399   8.520 -1.0199 -0.3805  1.1205
   51CHL1   C27 6251   5.419   0.353   8.637 -0.2652  0.8250  0.1419
   51CHL1  H27A 6252   5.475   0.446   8.616 -1.5628  1.0886 -2.5663
   51CHL1  H27B 6253   5.491   0.283   8.684 -0.6410  0.4543  0.1777
   51CHL1  H27C 6254   5.388   0.305   8.542 -0.2314  0.4082  0.3385
   52CHL1    C3 6255   6.084   2.235   9.891 -0.0206 -0.0395  0.0797
   52CHL1    H3 6256   6.169   2.296   9.855 -0.6874  0.3428 -0.8737
   52CHL1    O3 6257   6.074   2.240  10.034  0.3160  0.8914 -1.0119
   52CHL1   H3' 6258   5.994   2.195  10.059  1.7087 -1.4026 -0.3821
   52CHL1    C4 6259   5.957   2.287   9.827  0.0470 -0.3270  0.1368
   52CHL1   H4A 6260   5.872   2.242   9.882  1.5399 -0.7466  2.2271
   52CHL1   H4B 6261   5.961   2.394   9.857  3.7074  0.0258 -1.1629
   52CHL1    C5 6262   5.934   2.268   9.680  1.4011 -0.5104 -0.1666
   52CHL1    C6 6263   5.916   2.376   9.594 -1.1092  0.2031 -0.4533
   52CHL1    H6 6264   5.899   2.474   9.642 -1.8623  0.4316 -1.1789
   52CHL1    C7 6265   5.914   2.370   9.444 -0.3112  0.4966 -0.8068
   52CHL1   H7A 6266   5.825   2.421   9.401  0.1048  1.8793 -0.1119
   52CHL1   H7B 6267   6.008   2.418   9.410  0.0185  1.3951  1.1974
   52CHL1    C8 6268   5.907   2.223   9.389 -0.0574 -0.2634 -0.2018
   52CHL1    H8 6269   5.803   2.186   9.402  0.0377 -1.0940 -1.5463
   52CHL1   C14 6270   5.952   2.219   9.244  0.3944  0.6446  0.2392
   52CHL1   H14 6271   6.059   2.242   9.259  0.7610 -2.0306  2.5746
   52CHL1   C15 6272   5.900   2.320   9.146  0.3833  0.1517  0.0386
   52CHL1  H15A 6273   5.790   2.330   9.138  0.5767  3.1914 -0.2208
   52CHL1  H15B 6274   5.941   2.420   9.173 -1.6271  0.7914  0.8704
   52CHL1   C16 6275   5.945   2.272   9.013  0.3441 -0.7195 -0.1033
   52CHL1  H16A 6276   5.859   2.251   8.945 -2.6381  1.1728  2.7565
   52CHL1  H16B 6277   6.027   2.336   8.974 -0.3020  0.1043 -0.1543
   52CHL1   C17 6278   6.017   2.129   9.038 -0.3211 -0.0894 -0.5851
   52CHL1   H17 6279   6.124   2.153   9.053  0.4851 -2.1540 -2.5466
   52CHL1   C13 6280   5.963   2.083   9.173 -1.5859 -0.6793 -0.1497
   52CHL1   C18 6281   5.824   2.023   9.168  0.3615 -0.0667  0.1487
   52CHL1  H18A 6282   5.830   1.923   9.119  1.5278  0.1221 -0.1419
   52CHL1  H18B 6283   5.787   1.995   9.269 -0.7285 -1.2560 -0.5562
   52CHL1  H18C 6284   5.758   2.096   9.117  0.6639 -0.1453 -0.3608
   52CHL1   C12 6285   6.061   2.000   9.258  0.2600 -0.2586 -0.1574
   52CHL1  H12A 6286   6.073   1.900   9.211 -0.7996 -0.3380 -0.2780
   52CHL1  H12B 6287   6.156   2.057   9.257 -0.5068  1.0567 -0.6673
   52CHL1   C11 6288   6.016   1.986   9.406  0.3550 -0.1163 -0.2761
   52CHL1  H11A 6289   5.924   1.924   9.412  1.5647 -1.8245  2.4660
   52CHL1  H11B 6290   6.097   1.928   9.454  1.1066  0.2271 -1.0985
   52CHL1    C9 6291   5.993   2.125   9.472 -0.6323 -1.0181  0.2517
   52CHL1    H9 6292   6.093   2.173   9.464 -1.7460  1.0651 -2.8150
   52CHL1   C10 6293   5.967   2.127   9.629  0.3583 -0.5792  0.5729
   52CHL1   C19 6294   5.842   2.039   9.664  0.3649  0.0759  0.1704
   52CHL1  H19A 6295   5.777   2.055   9.575  0.5480 -2.3726 -0.4937
   52CHL1  H19B 6296   5.876   1.933   9.670  0.6902  0.2542  2.3286
   52CHL1  H19C 6297   5.795   2.066   9.761 -0.1610  1.7538 -0.5130
   52CHL1    C1 6298   6.100   2.079   9.693  0.3961  0.3815  0.4722
   52CHL1   H1A 6299   6.129   1.978   9.655  2.2049  2.2091 -3.7206
   52CHL1   H1B 6300   6.179   2.146   9.653 -0.0480  1.0369  0.6779
   52CHL1    C2 6301   6.093   2.086   9.848 -0.4543  0.2069 -0.2824
   52CHL1   H2A 6302   6.187   2.040   9.887 -0.9730  0.0536  0.8231
   52CHL1   H2B 6303   6.009   2.031   9.895  1.8529 -2.7289  0.7551
   52CHL1   C20 6304   6.011   2.033   8.917  0.1468 -0.9694 -0.3214
   52CHL1   H20 6305   5.905   2.012   8.892 -0.6854  0.5870  1.6363
   52CHL1   C21 6306   6.082   1.906   8.948  0.0037  1.2673 -0.6290
   52CHL1  H21A 6307   6.177   1.931   9.001  0.2577  0.4497 -0.6837
   52CHL1  H21B 6308   6.097   1.851   8.853 -0.4139  1.7928 -1.0013
   52CHL1  H21C 6309   6.023   1.848   9.023  1.1286  1.8717  0.7782
   52CHL1   C22 6310   6.082   2.097   8.792  0.4050 -0.4119 -0.3481
   52CHL1  H22A 6311   6.042   2.199   8.774  1.2666  0.2059  1.0535
   52CHL1  H22B 6312   6.190   2.111   8.813  0.0126 -0.4834  1.9875
   52CHL1   C23 6313   6.052   2.023   8.662 -0.2380  0.4465 -0.5027
   52CHL1  H23A 6314   6.094   1.920   8.662 -1.3996 -0.0412 -0.5654
   52CHL1  H23B 6315   5.943   2.013   8.642 -0.0488 -0.6029 -1.0836
   52CHL1   C24 6316   6.105   2.086   8.535 -0.4158 -0.7517 -0.2627
   52CHL1  H24A 6317   6.060   2.187   8.525  0.1118 -0.2961  1.6225
   52CHL1  H24B 6318   6.215   2.096   8.533 -0.5653  1.2796 -0.4667
   52CHL1   C25 6319   6.053   2.011   8.408 -0.4908  0.5582  0.5620
   52CHL1   H25 6320   5.942   2.012   8.418 -0.4756 -3.3964  3.4272
   52CHL1   C26 6321   6.089   2.082   8.277  0.0855  0.1167 -0.6028
   52CHL1  H26A 6322   6.033   2.176   8.258 -1.1057 -0.4814 -0.1907
   52CHL1  H26B 6323   6.199   2.098   8.273  0.2270 -0.6198 -0.0262
   52CHL1  H26C 6324   6.069   2.018   8.189  0.0175  1.2051 -1.3930
   52CHL1   C27 6325   6.089   1.862   8.397 -0.2406 -0.0945 -0.1862
   52CHL1  H27A 6326   6.198   1.858   8.379 -0.4381  0.2403 -1.5510
   52CHL1  H27B 6327   6.059   1.797   8.483 -0.7100 -0.8013 -0.8674
   52CHL1  H27C 6328   6.034   1.818   8.311 -0.6897 -0.5317  0.3116
   53CHL1    C3 6329   1.058   0.529   9.877  0.2181  0.0940  0.3581
   53CHL1    H3 6330   1.104   0.630   9.877 -1.4050  0.9296 -2.1396
   53CHL1    O3 6331   1.043   0.484  10.011  0.3284 -0.0064  0.0643
   53CHL1   H3' 6332   0.955   0.519  10.025  0.9918  1.4754  0.6616
   53CHL1    C4 6333   0.921   0.546   9.805  0.2148  0.0309  0.3100
   53CHL1   H4A 6334   0.872   0.447   9.802  0.3325 -0.0074 -2.2386
   53CHL1   H4B 6335   0.858   0.610   9.871 -0.3461 -0.6741  0.4735
   53CHL1    C5 6336   0.929   0.591   9.658  0.2479 -0.1506  0.3700
   53CHL1    C6 6337   0.858   0.698   9.607 -0.6304  0.3244  0.2280
   53CHL1    H6 6338   0.788   0.752   9.673 -0.2887  1.7587 -0.5475
   53CHL1    C7 6339   0.858   0.741   9.461 -0.3976 -0.5381 -0.0071
   53CHL1   H7A 6340   0.757   0.744   9.415 -0.6675 -1.9870  0.4630
   53CHL1   H7B 6341   0.906   0.842   9.462 -0.4508 -0.5105  0.8175
   53CHL1    C8 6342   0.944   0.654   9.364 -0.4989 -0.1298 -0.7471
   53CHL1    H8 6343   0.881   0.568   9.334 -0.8587 -1.7517  3.8059
   53CHL1   C14 6344   0.996   0.738   9.244  0.0842 -0.3226  0.0150
   53CHL1   H14 6345   1.075   0.812   9.267  1.9003 -0.9281 -3.5815
   53CHL1   C15 6346   0.887   0.813   9.165  0.2320 -0.3776 -0.2027
   53CHL1  H15A 6347   0.808   0.736   9.149 -1.5186  1.2144  0.4263
   53CHL1  H15B 6348   0.836   0.901   9.209 -0.1811  0.6977 -2.6954
   53CHL1   C16 6349   0.953   0.840   9.033  0.0949 -0.6373  0.7806
   53CHL1  H16A 6350   0.891   0.826   8.942  0.4388  1.4622  0.1692
   53CHL1  H16B 6351   0.979   0.948   9.023 -0.8168 -0.5155 -0.6741
   53CHL1   C17 6352   1.088   0.759   9.026  0.0106  0.3364 -0.4670
   53CHL1   H17 6353   1.170   0.827   9.058  1.8989 -1.2244 -1.7963
   53CHL1   C13 6354   1.068   0.654   9.141 -0.6551 -0.1851  0.0792
   53CHL1   C18 6355   0.983   0.541   9.092  0.9297  0.1068  0.1399
   53CHL1  H18A 6356   0.881   0.560   9.053  1.3050 -0.2564 -1.0994
   53CHL1  H18B 6357   1.026   0.490   9.002  0.0526 -0.1770 -0.1306
   53CHL1  H18C 6358   0.967   0.461   9.167  1.5661  0.6146  0.8208
   53CHL1   C12 6359   1.195   0.596   9.206 -0.7126  0.1160 -0.4711
   53CHL1  H12A 6360   1.251   0.528   9.139  0.7354 -0.1142  0.9258
   53CHL1  H12B 6361   1.261   0.679   9.239  0.9401 -1.2362 -0.2830
   53CHL1   C11 6362   1.157   0.516   9.334  0.4483  0.1212 -0.4160
   53CHL1  H11A 6363   1.103   0.424   9.303  2.1768 -1.2646  0.5226
   53CHL1  H11B 6364   1.241   0.471   9.390 -1.8957 -1.5065  2.0309
   53CHL1    C9 6365   1.065   0.595   9.433 -0.4189  0.6879 -0.0621
   53CHL1    H9 6366   1.125   0.680   9.472  1.5315 -0.1546 -1.0263
   53CHL1   C10 6367   1.032   0.515   9.566  0.4423  0.7448 -0.3682
   53CHL1   C19 6368   0.964   0.376   9.520 -0.2444  0.1458 -0.4277
   53CHL1  H19A 6369   1.035   0.317   9.459 -0.8829  0.3451 -1.3837
   53CHL1  H19B 6370   0.940   0.311   9.607  2.8090 -3.9553 -2.3065
   53CHL1  H19C 6371   0.863   0.385   9.474  0.2111 -1.4888 -1.8227
   53CHL1    C1 6372   1.161   0.484   9.650  0.5609  0.1447  0.2226
   53CHL1   H1A 6373   1.212   0.409   9.586 -0.1054 -0.3641  0.2690
   53CHL1   H1B 6374   1.213   0.582   9.652  1.6662 -0.4422  0.5289
   53CHL1    C2 6375   1.145   0.430   9.796 -0.2135  0.0824 -0.4504
   53CHL1   H2A 6376   1.247   0.428   9.841  0.7203  1.0917 -2.3648
   53CHL1   H2B 6377   1.098   0.330   9.790 -0.2443  0.0433  0.3345
   53CHL1   C20 6378   1.121   0.711   8.883  0.2227  0.0266 -0.3324
   53CHL1   H20 6379   1.039   0.643   8.852 -0.4016  0.0932  1.0873
   53CHL1   C21 6380   1.255   0.628   8.892  0.4668 -0.6544  1.1690
   53CHL1  H21A 6381   1.304   0.612   8.794 -1.4917  0.3015 -0.0325
   53CHL1  H21B 6382   1.244   0.526   8.934  1.6669 -1.2831  0.0229
   53CHL1  H21C 6383   1.335   0.674   8.954  1.0123  0.1929 -0.1091
   53CHL1   C22 6384   1.129   0.830   8.782  0.3685  0.1888  0.7134
   53CHL1  H22A 6385   1.036   0.891   8.783 -1.6061 -2.3565 -2.9157
   53CHL1  H22B 6386   1.223   0.886   8.802  0.7218 -0.3483  0.5755
   53CHL1   C23 6387   1.151   0.784   8.634 -1.4948  0.0021  0.0270
   53CHL1  H23A 6388   1.231   0.707   8.636 -0.7727  0.5095 -3.1879
   53CHL1  H23B 6389   1.065   0.727   8.595  0.2348 -1.8172 -1.3462
   53CHL1   C24 6390   1.201   0.908   8.550 -0.1957  0.6600 -0.1134
   53CHL1  H24A 6391   1.134   0.990   8.584  0.7271  0.9854  0.9770
   53CHL1  H24B 6392   1.303   0.943   8.573 -0.5531  1.1328  0.7963
   53CHL1   C25 6393   1.186   0.880   8.402  0.4953  0.2926  0.3492
   53CHL1   H25 6394   1.090   0.826   8.389  1.4576 -1.6049  0.5805
   53CHL1   C26 6395   1.185   1.004   8.318 -0.2600 -0.1811 -0.2065
   53CHL1  H26A 6396   1.104   1.075   8.344  0.6158  0.1733  1.6990
   53CHL1  H26B 6397   1.282   1.058   8.310 -0.0457 -0.7680 -2.4301
   53CHL1  H26C 6398   1.168   0.966   8.215 -1.1268  0.9591 -0.5118
   53CHL1   C27 6399   1.293   0.776   8.351  0.3714 -0.4502 -0.4400
   53CHL1  H27A 6400   1.274   0.679   8.401 -0.3586 -1.0635 -1.8583
   53CHL1  H27B 6401   1.283   0.759   8.241 -1.0622  0.1764 -0.4232
   53CHL1  H27C 6402   1.389   0.822   8.384 -1.3476  2.7540  0.4944
   54CHL1    C3 6403   1.883   3.320  10.144 -0.2628 -0.7028  0.6791
   54CHL1    H3 6404   1.979   3.289  10.099  0.5625  1.2185  1.0346
   54CHL1    O3 6405   1.892   3.313  10.285 -0.1047  0.8613 -0.1284
   54CHL1   H3' 6406   1.985   3.329  10.300  0.4933 -2.3473  0.2717
   54CHL1    C4 6407   1.854   3.463  10.102  0.2674 -0.2548 -0.2426
   54CHL1   H4A 6408   1.754   3.488  10.143  0.2921 -0.5233 -0.0184
   54CHL1   H4B 6409   1.931   3.527  10.150 -0.2443  0.6116 -0.5405
   54CHL1    C5 6410   1.836   3.477   9.955 -0.3356 -0.1039 -0.3290
   54CHL1    C6 6411   1.907   3.565   9.884 -0.0554 -0.5355  0.5782
   54CHL1    H6 6412   1.966   3.644   9.933 -0.7187 -0.8850  1.9777
   54CHL1    C7 6413   1.910   3.578   9.730  0.3858 -0.3101 -0.1285
   54CHL1   H7A 6414   1.897   3.684   9.700 -2.2695 -0.6889 -0.5913
   54CHL1   H7B 6415   2.011   3.551   9.694  1.0165  1.7650  0.0024
   54CHL1    C8 6416   1.784   3.499   9.673  0.1440  0.0905 -0.5232
   54CHL1    H8 6417   1.688   3.552   9.688 -0.5344 -1.1015 -0.5305
   54CHL1   C14 6418   1.801   3.462   9.529 -0.2433  0.0339  0.1281
   54CHL1   H14 6419   1.886   3.393   9.515 -3.2802 -3.9668 -0.4525
   54CHL1   C15 6420   1.828   3.589   9.442 -0.3127  0.1201 -0.3531
   54CHL1  H15A 6421   1.742   3.656   9.462 -1.9283 -2.1932  1.0932
   54CHL1  H15B 6422   1.926   3.634   9.464 -0.2911 -0.6986  1.3695
   54CHL1   C16 6423   1.812   3.543   9.295  0.2092  0.3337  0.0343
   54CHL1  H16A 6424   1.759   3.623   9.238 -0.9200  0.1526  0.7993
   54CHL1  H16B 6425   1.907   3.535   9.238 -0.3877  1.0103 -1.1085
   54CHL1   C17 6426   1.729   3.408   9.307 -0.1345 -0.8173  0.3250
   54CHL1   H17 6427   1.810   3.334   9.287  1.3895  1.1342 -1.1014
   54CHL1   C13 6428   1.684   3.390   9.459 -0.7941  0.4239  0.6900
   54CHL1   C18 6429   1.544   3.466   9.476 -0.1514  0.2042  0.5103
   54CHL1  H18A 6430   1.513   3.482   9.582 -2.3517  1.8836 -0.3067
   54CHL1  H18B 6431   1.548   3.567   9.430 -0.2198  0.4767  1.1010
   54CHL1  H18C 6432   1.455   3.418   9.429 -1.7069  2.6328  0.8035
   54CHL1   C12 6433   1.688   3.249   9.516  0.2922  0.7325  0.3730
   54CHL1  H12A 6434   1.589   3.207   9.485 -0.4869  0.4092  3.0568
   54CHL1  H12B 6435   1.769   3.184   9.479  0.1114  0.6208  0.1640
   54CHL1   C11 6436   1.677   3.253   9.666 -0.6056 -0.1981 -0.3546
   54CHL1  H11A 6437   1.575   3.272   9.707  0.5412 -0.3303  2.7925
   54CHL1  H11B 6438   1.698   3.157   9.717 -1.0551 -0.3762 -0.4930
   54CHL1    C9 6439   1.771   3.356   9.740  0.2562 -0.0097 -0.3154
   54CHL1    H9 6440   1.874   3.315   9.736  0.8346  1.4741 -2.1629
   54CHL1   C10 6441   1.748   3.365   9.890 -0.3541 -0.7420  0.3177
   54CHL1   C19 6442   1.600   3.412   9.911  0.6672 -0.1269 -0.4503
   54CHL1  H19A 6443   1.527   3.334   9.882 -0.0328  0.3736 -0.0615
   54CHL1  H19B 6444   1.578   3.431  10.019 -3.1976 -4.9849 -0.0366
   54CHL1  H19C 6445   1.578   3.511   9.866  1.8196 -0.1161 -1.0392
   54CHL1    C1 6446   1.759   3.221   9.951 -0.1597 -1.1641 -0.1439
   54CHL1   H1A 6447   1.674   3.152   9.931  1.3901 -2.5644 -2.3232
   54CHL1   H1B 6448   1.852   3.172   9.916  0.7875  0.3488  0.1422
   54CHL1    C2 6449   1.766   3.232  10.099  0.1260 -0.0832  0.5527
   54CHL1   H2A 6450   1.780   3.127  10.133 -0.3880 -1.2223 -2.5179
   54CHL1   H2B 6451   1.671   3.269  10.142 -0.2446  1.0805 -1.1710
   54CHL1   C20 6452   1.620   3.388   9.196 -0.6214  0.2657 -0.1263
   54CHL1   H20 6453   1.545   3.470   9.204 -0.9657  0.0332 -0.8490
   54CHL1   C21 6454   1.555   3.251   9.203  0.6246 -0.2957  0.2952
   54CHL1  H21A 6455   1.468   3.239   9.135  0.4587  1.0735  0.2385
   54CHL1  H21B 6456   1.499   3.242   9.298 -0.4491 -0.5114 -0.3423
   54CHL1  H21C 6457   1.628   3.168   9.195 -0.4901 -1.1434 -1.6760
   54CHL1   C22 6458   1.694   3.401   9.059 -0.4003 -0.2981  0.7286
   54CHL1  H22A 6459   1.723   3.507   9.048 -0.0991 -0.5934 -2.0518
   54CHL1  H22B 6460   1.786   3.338   9.058  0.5149  0.8341 -2.6789
   54CHL1   C23 6461   1.610   3.375   8.941  0.5696 -0.5226  0.3170
   54CHL1  H23A 6462   1.561   3.275   8.947 -1.8996  0.5385 -0.9092
   54CHL1  H23B 6463   1.534   3.456   8.942  0.9029 -0.2064  1.5338
   54CHL1   C24 6464   1.681   3.386   8.800 -0.4534 -0.1384 -0.5886
   54CHL1  H24A 6465   1.618   3.330   8.727 -1.2593 -2.9192  2.0109
   54CHL1  H24B 6466   1.678   3.495   8.777  0.2659 -0.0575 -0.3242
   54CHL1   C25 6467   1.826   3.328   8.779 -0.1084 -0.0003  0.3946
   54CHL1   H25 6468   1.888   3.370   8.861  0.3987  0.0968 -0.0305
   54CHL1   C26 6469   1.828   3.177   8.791  0.1981 -0.3339 -0.1795
   54CHL1  H26A 6470   1.930   3.134   8.792  1.0236  1.5318  1.6455
   54CHL1  H26B 6471   1.773   3.146   8.883  0.7853  0.0832  0.3125
   54CHL1  H26C 6472   1.769   3.134   8.707 -1.0436 -0.0349  0.5109
   54CHL1   C27 6473   1.887   3.373   8.639  0.4542  0.2166 -0.0634
   54CHL1  H27A 6474   1.878   3.484   8.629 -3.8519 -0.1293 -2.9845
   54CHL1  H27B 6475   1.994   3.347   8.624  0.7954  1.3932  0.2241
   54CHL1  H27C 6476   1.824   3.342   8.553  1.4699  1.5795 -1.3521
   55CHL1    C3 6477   0.709   5.076  10.152  0.2640  0.3728 -0.4045
   55CHL1    H3 6478   0.599   5.088  10.147  0.2101  0.3604  0.5892
   55CHL1    O3 6479   0.755   5.071  10.293 -0.1708  0.4425 -0.0544
   55CHL1   H3' 6480   0.843   5.110  10.298 -0.7486  1.6226  2.0864
   55CHL1    C4 6481   0.757   4.951  10.078 -0.1861 -0.0552  0.1490
   55CHL1   H4A 6482   0.864   4.939  10.105  0.1688  0.7558 -0.8036
   55CHL1   H4B 6483   0.708   4.866  10.130 -1.3883  1.1806  1.1353
   55CHL1    C5 6484   0.723   4.942   9.933  0.2630 -0.5816 -0.0734
   55CHL1    C6 6485   0.664   4.837   9.877  0.0041 -0.2126 -0.3160
   55CHL1    H6 6486   0.640   4.751   9.942  2.8655  0.1314  1.3851
   55CHL1    C7 6487   0.617   4.842   9.734  0.7532  0.1894  0.4698
   55CHL1   H7A 6488   0.610   4.737   9.698  0.1211 -0.3175  1.9826
   55CHL1   H7B 6489   0.509   4.869   9.728  0.3332 -1.5229 -0.3109
   55CHL1    C8 6490   0.699   4.942   9.652 -0.0385  0.0886  0.5682
   55CHL1    H8 6491   0.806   4.913   9.648  0.3642  1.5251 -2.7100
   55CHL1   C14 6492   0.658   4.939   9.504  0.6310  0.3341  0.6884
   55CHL1   H14 6493   0.552   4.972   9.493  0.9817  1.3296  0.1315
   55CHL1   C15 6494   0.658   4.804   9.433  0.0003  0.6611  0.6349
   55CHL1  H15A 6495   0.754   4.752   9.455  1.1726  1.5314 -2.1052
   55CHL1  H15B 6496   0.571   4.753   9.481 -0.7677 -0.2475 -1.6030
   55CHL1   C16 6497   0.650   4.834   9.288 -0.3695  0.3170 -0.2928
   55CHL1  H16A 6498   0.727   4.789   9.222  2.0687  1.2249  1.7199
   55CHL1  H16B 6499   0.552   4.807   9.244 -0.7506  0.3890  0.4977
   55CHL1   C17 6500   0.662   4.987   9.278 -0.4497 -0.3453 -0.5993
   55CHL1   H17 6501   0.557   5.024   9.281 -0.8788 -1.4007 -1.8884
   55CHL1   C13 6502   0.728   5.034   9.409  0.5890 -0.1039 -0.5392
   55CHL1   C18 6503   0.880   5.004   9.406  0.7019  0.7076  0.0642
   55CHL1  H18A 6504   0.925   5.022   9.506 -0.1008 -1.7397  0.9367
   55CHL1  H18B 6505   0.899   4.896   9.391  1.3762  0.6682  1.1365
   55CHL1  H18C 6506   0.938   5.069   9.337  2.1615  2.0635  2.4395
   55CHL1   C12 6507   0.711   5.177   9.467 -0.9429 -0.1226  0.8603
   55CHL1  H12A 6508   0.761   5.248   9.398 -1.6362  0.5300  1.0228
   55CHL1  H12B 6509   0.602   5.198   9.476 -1.7110 -3.1511 -0.0187
   55CHL1   C11 6510   0.769   5.189   9.611 -0.8523 -0.0894  0.4805
   55CHL1  H11A 6511   0.880   5.184   9.604 -0.8049  1.4137 -0.3088
   55CHL1  H11B 6512   0.751   5.293   9.645 -2.7114  1.1666 -3.6514
   55CHL1    C9 6513   0.702   5.085   9.712 -0.2203  0.4619 -0.0232
   55CHL1    H9 6514   0.595   5.112   9.725 -0.3548 -1.0871  2.8819
   55CHL1   C10 6515   0.765   5.074   9.855  0.1552  0.2819 -0.5515
   55CHL1   C19 6516   0.923   5.065   9.846 -0.6323  0.7278  0.5033
   55CHL1  H19A 6517   0.944   5.168   9.808 -1.1505  0.6745  0.0717
   55CHL1  H19B 6518   0.964   5.052   9.948 -2.0909 -0.1415  1.0033
   55CHL1  H19C 6519   0.966   4.978   9.791  1.2980  2.2768 -0.5839
   55CHL1    C1 6520   0.736   5.202   9.939 -0.2009 -0.5196 -0.7762
   55CHL1   H1A 6521   0.775   5.292   9.887  1.1260 -0.4289  0.3135
   55CHL1   H1B 6522   0.625   5.206   9.940 -0.3320 -2.2610  1.6552
   55CHL1    C2 6523   0.769   5.203  10.091 -0.3481  0.3493 -0.5229
   55CHL1   H2A 6524   0.722   5.296  10.128  1.2284  0.4119  1.4224
   55CHL1   H2B 6525   0.879   5.204  10.100 -0.1567  0.9604 -2.3450
   55CHL1   C20 6526   0.714   5.038   9.143  0.3765  0.1603  0.9478
   55CHL1   H20 6527   0.824   5.048   9.138  0.4738 -1.3112 -0.8193
   55CHL1   C21 6528   0.641   5.176   9.121  0.2328 -0.3131 -0.4312
   55CHL1  H21A 6529   0.656   5.240   9.210 -1.8790 -0.1218 -0.1522
   55CHL1  H21B 6530   0.530   5.176   9.117  0.2504  0.8868 -1.3957
   55CHL1  H21C 6531   0.677   5.230   9.031  0.0243  0.4056 -0.0892
   55CHL1   C22 6532   0.657   4.956   9.024 -0.5261 -0.4513  0.4769
   55CHL1  H22A 6533   0.685   4.848   9.026 -0.4201 -0.4726 -1.1136
   55CHL1  H22B 6534   0.547   4.952   9.040 -0.7686 -1.9700 -1.2946
   55CHL1   C23 6535   0.687   5.015   8.881 -1.0334  0.3034  0.1041
   55CHL1  H23A 6536   0.642   4.944   8.808 -0.6979  0.8288 -0.6218
   55CHL1  H23B 6537   0.649   5.119   8.870 -3.0359 -0.3992 -0.1227
   55CHL1   C24 6538   0.833   5.017   8.849 -0.3164  0.6106  0.6282
   55CHL1  H24A 6539   0.882   5.094   8.912 -1.6319  0.1245  2.3024
   55CHL1  H24B 6540   0.883   4.920   8.872  0.7466  1.2569  1.0820
   55CHL1   C25 6541   0.870   5.038   8.701  0.1007  0.6889  0.3546
   55CHL1   H25 6542   0.844   5.142   8.671 -1.0122  0.9489  2.1113
   55CHL1   C26 6543   1.024   5.019   8.681  0.8478 -0.0031 -0.7158
   55CHL1  H26A 6544   1.044   5.087   8.595 -2.2519 -0.5122 -1.9803
   55CHL1  H26B 6545   1.073   5.053   8.774 -0.6968  0.1806  0.0568
   55CHL1  H26C 6546   1.056   4.917   8.652 -0.3831 -0.5216 -0.2929
   55CHL1   C27 6547   0.805   4.939   8.604 -0.8988 -0.2325  0.2912
   55CHL1  H27A 6548   0.695   4.924   8.596 -0.7605 -0.4428 -1.8424
   55CHL1  H27B 6549   0.849   4.959   8.504  0.3973 -0.0097  0.8858
   55CHL1  H27C 6550   0.860   4.844   8.618 -0.2763  0.0347 -0.3112
   56CHL1    C3 6551   0.546   5.667   9.895  0.1358  0.3180  0.1950
   56CHL1    H3 6552   0.616   5.697   9.814  0.5974  0.8817  0.7910
   56CHL1    O3 6553   0.583   5.734  10.014  0.2011 -0.5244  0.5154
   56CHL1   H3' 6554   0.542   5.694  10.091 -0.8676  1.0923  0.8334
   56CHL1    C4 6555   0.407   5.715   9.849 -0.3343  0.0000 -0.2067
   56CHL1   H4A 6556   0.318   5.706   9.915 -1.6777  2.9254 -1.3966
   56CHL1   H4B 6557   0.414   5.826   9.843  3.1160  0.0972  2.5601
   56CHL1    C5 6558   0.366   5.644   9.717  0.2039 -0.0945  0.0179
   56CHL1    C6 6559   0.334   5.712   9.601  0.6722 -0.4616 -0.2147
   56CHL1    H6 6560   0.339   5.821   9.594  0.0076 -0.3962  0.1765
   56CHL1    C7 6561   0.283   5.648   9.476 -0.7643  0.3408  0.4747
   56CHL1   H7A 6562   0.188   5.695   9.446 -0.8877  0.1073  0.4963
   56CHL1   H7B 6563   0.358   5.659   9.394 -1.0576  1.4356  0.3392
   56CHL1    C8 6564   0.243   5.497   9.495  0.0800  0.0272 -0.1084
   56CHL1    H8 6565   0.142   5.482   9.538  0.5590  0.0046  1.0473
   56CHL1   C14 6566   0.253   5.435   9.353  0.6494  0.7807  0.3906
   56CHL1   H14 6567   0.361   5.427   9.329  0.2196 -3.2688 -0.9366
   56CHL1   C15 6568   0.180   5.497   9.231  0.0307  0.2582  0.6027
   56CHL1  H15A 6569   0.080   5.531   9.268  0.9474  0.9862  2.5417
   56CHL1  H15B 6570   0.241   5.581   9.190  3.2150 -0.5371  3.3313
   56CHL1   C16 6571   0.163   5.376   9.136 -0.2246 -0.1088 -0.0540
   56CHL1  H16A 6572   0.053   5.364   9.130 -0.1019 -1.6683  0.3247
   56CHL1  H16B 6573   0.199   5.389   9.032 -0.5463  0.1819 -0.1311
   56CHL1   C17 6574   0.215   5.255   9.205 -0.2395  0.2061  0.6875
   56CHL1   H17 6575   0.324   5.252   9.183 -0.2556  1.7665  0.2982
   56CHL1   C13 6576   0.208   5.290   9.358  0.2554  0.7144  0.3832
   56CHL1   C18 6577   0.064   5.281   9.404 -0.1670 -0.1980 -0.3151
   56CHL1  H18A 6578   0.020   5.180   9.393 -0.2352 -0.5079  2.1481
   56CHL1  H18B 6579   0.033   5.304   9.509 -0.7272 -0.5362 -0.4009
   56CHL1  H18C 6580  -0.008   5.348   9.353 -3.6911 -2.6922  1.0094
   56CHL1   C12 6581   0.308   5.210   9.451  0.3726 -0.2634 -0.0245
   56CHL1  H12A 6582   0.285   5.102   9.460  1.5344 -0.6184 -1.0402
   56CHL1  H12B 6583   0.410   5.231   9.413  0.4013  0.3866  0.3966
   56CHL1   C11 6584   0.308   5.268   9.593  0.2203  0.1166 -0.5639
   56CHL1  H11A 6585   0.211   5.253   9.645  0.8087  2.3618  1.3319
   56CHL1  H11B 6586   0.384   5.224   9.661 -2.4786 -0.7406  2.1363
   56CHL1    C9 6587   0.343   5.424   9.587  0.4559  0.6389 -0.0003
   56CHL1    H9 6588   0.441   5.440   9.538  1.1296  2.4139  1.7623
   56CHL1   C10 6589   0.364   5.491   9.728 -0.1560 -0.0098 -0.4978
   56CHL1   C19 6590   0.256   5.447   9.829  1.0891  0.6475 -0.1974
   56CHL1  H19A 6591   0.263   5.491   9.930 -0.0799 -1.3474  0.8082
   56CHL1  H19B 6592   0.154   5.463   9.790  0.6611  0.8953  1.0032
   56CHL1  H19C 6593   0.259   5.337   9.845 -0.3382  0.4206 -1.2794
   56CHL1    C1 6594   0.498   5.441   9.785 -0.5501  0.1338 -0.7093
   56CHL1   H1A 6595   0.483   5.335   9.814 -2.5443  0.3221 -0.9171
   56CHL1   H1B 6596   0.579   5.471   9.714 -0.7107  1.3149 -0.4166
   56CHL1    C2 6597   0.542   5.514   9.918  0.3162 -0.8028  0.7713
   56CHL1   H2A 6598   0.638   5.475   9.959  0.3078 -0.2251  1.3475
   56CHL1   H2B 6599   0.461   5.508   9.994  0.1003  1.1244  0.7514
   56CHL1   C20 6600   0.159   5.121   9.146 -0.4567  0.3165 -0.3685
   56CHL1   H20 6601   0.050   5.115   9.166 -0.4754 -0.0057 -0.5709
   56CHL1   C21 6602   0.221   4.995   9.207  0.3046 -0.0950 -0.3215
   56CHL1  H21A 6603   0.328   5.000   9.179  0.5958 -1.5700  0.4352
   56CHL1  H21B 6604   0.182   4.900   9.164 -0.1667 -0.0882  0.0767
   56CHL1  H21C 6605   0.200   4.999   9.316 -0.1023 -0.5092 -0.3787
   56CHL1   C22 6606   0.169   5.116   8.992 -0.3046  0.2628 -0.2360
   56CHL1  H22A 6607   0.119   5.209   8.958 -0.8038  0.9278  2.0895
   56CHL1  H22B 6608   0.272   5.118   8.952 -0.8476  1.5302 -1.6580
   56CHL1   C23 6609   0.096   4.994   8.943  0.0890 -0.1439 -0.1576
   56CHL1  H23A 6610   0.140   4.897   8.975 -0.3432 -0.9119 -1.7877
   56CHL1  H23B 6611  -0.012   5.004   8.971 -0.5404 -2.5253 -1.4402
   56CHL1   C24 6612   0.114   4.977   8.791  1.0013  0.2878  0.1899
   56CHL1  H24A 6613   0.075   5.069   8.743  0.8130  0.3920  0.5329
   56CHL1  H24B 6614   0.219   4.952   8.765  0.1682 -0.4413 -2.8751
   56CHL1   C25 6615   0.017   4.860   8.735  0.0703  0.3773  0.2892
   56CHL1   H25 6616   0.034   4.771   8.800  1.3237  0.0567 -0.4572
   56CHL1   C26 6617  -0.133   4.903   8.734 -0.1103  0.7556  0.3982
   56CHL1  H26A 6618  -0.212   4.826   8.743 -2.2578  2.5789 -1.3722
   56CHL1  H26B 6619  -0.146   4.979   8.814  0.4931  1.5812 -0.2633
   56CHL1  H26C 6620  -0.161   4.963   8.644 -3.7711 -0.0874  0.8245
   56CHL1   C27 6621   0.060   4.807   8.599  0.1119 -0.4073 -0.3216
   56CHL1  H27A 6622  -0.009   4.732   8.554  1.3546 -1.7058 -0.1154
   56CHL1  H27B 6623   0.057   4.895   8.530 -1.3958  0.1275  0.3701
   56CHL1  H27C 6624   0.158   4.756   8.608  0.6247  0.5544 -0.2361
   57CHL1    C3 6625   1.363   6.596  10.170  0.2210 -0.1798  0.2795
   57CHL1    H3 6626   1.424   6.513  10.128 -1.2568 -0.3093 -1.7988
   57CHL1    O3 6627   1.334   6.554  10.305  0.0605  0.1909  0.3218
   57CHL1   H3' 6628   1.277   6.625  10.337  0.3508  0.9499 -0.7750
   57CHL1    C4 6629   1.427   6.738  10.168 -0.2067 -0.0070  0.2957
   57CHL1   H4A 6630   1.347   6.808  10.202 -0.8640  2.0816 -4.6827
   57CHL1   H4B 6631   1.516   6.739  10.234  0.1767 -0.1595 -0.2123
   57CHL1    C5 6632   1.453   6.785  10.028 -0.5315  0.3559 -0.5284
   57CHL1    C6 6633   1.575   6.818   9.984  0.0493  0.1127 -0.1999
   57CHL1    H6 6634   1.655   6.805  10.058  0.2986 -0.6244 -0.5802
   57CHL1    C7 6635   1.613   6.863   9.851 -0.3321  0.0231 -0.5038
   57CHL1   H7A 6636   1.685   6.947   9.849 -0.0219 -0.2350 -1.6968
   57CHL1   H7B 6637   1.673   6.783   9.802 -0.9376 -1.0683  0.4933
   57CHL1    C8 6638   1.491   6.888   9.766  0.1712  0.3222  0.3726
   57CHL1    H8 6639   1.436   6.981   9.792 -0.0348  0.3168 -0.0295
   57CHL1   C14 6640   1.534   6.884   9.618  0.4577 -0.6867  0.5482
   57CHL1   H14 6641   1.574   6.782   9.600 -1.5102 -1.0358 -2.4953
   57CHL1   C15 6642   1.651   6.982   9.581  0.5336  0.0200  0.4101
   57CHL1  H15A 6643   1.634   7.081   9.627  0.8992 -0.5410  1.8251
   57CHL1  H15B 6644   1.746   6.939   9.620  0.5107 -2.3347 -1.8491
   57CHL1   C16 6645   1.647   6.988   9.428 -0.1793  0.4279  0.2969
   57CHL1  H16A 6646   1.638   7.092   9.392 -1.0530  0.3470  0.2636
   57CHL1  H16B 6647   1.737   6.945   9.379  0.3125  2.1209 -0.3471
   57CHL1   C17 6648   1.523   6.908   9.378  0.1703 -0.0578  0.5095
   57CHL1   H17 6649   1.550   6.801   9.365  0.0437  0.0526 -0.7943
   57CHL1   C13 6650   1.431   6.894   9.508  0.1863 -0.0613  0.1505
   57CHL1   C18 6651   1.356   7.036   9.523  0.1398  0.0531  0.0986
   57CHL1  H18A 6652   1.425   7.123   9.527  0.4524 -0.0098 -2.5347
   57CHL1  H18B 6653   1.284   7.060   9.442  0.8326  0.8526 -0.2975
   57CHL1  H18C 6654   1.286   7.037   9.609 -0.9403  2.1395 -0.7564
   57CHL1   C12 6655   1.335   6.779   9.526  0.3061 -0.5719 -0.3754
   57CHL1  H12A 6656   1.249   6.787   9.456 -1.0217 -0.9327  1.1511
   57CHL1  H12B 6657   1.390   6.684   9.508 -1.7302 -1.7077 -0.9586
   57CHL1   C11 6658   1.272   6.767   9.663  0.0815  0.2593 -0.8628
   57CHL1  H11A 6659   1.204   6.854   9.674  0.1523  0.3562 -1.1819
   57CHL1  H11B 6660   1.217   6.671   9.672  2.5190 -1.1721 -0.5344
   57CHL1    C9 6661   1.383   6.775   9.783 -0.5150 -0.1308  0.0661
   57CHL1    H9 6662   1.437   6.678   9.777  0.0416  0.0535  1.6356
   57CHL1   C10 6663   1.334   6.778   9.933  0.0153  0.0540  0.3723
   57CHL1   C19 6664   1.233   6.893   9.953 -0.2735  0.0452  1.0110
   57CHL1  H19A 6665   1.136   6.874   9.903 -1.1354  2.0768  1.7911
   57CHL1  H19B 6666   1.196   6.898  10.058 -0.2731 -1.5495  1.1101
   57CHL1  H19C 6667   1.273   6.990   9.918 -0.1902 -0.5893 -0.7400
   57CHL1    C1 6668   1.260   6.641   9.954 -0.5419 -0.2284  0.9986
   57CHL1   H1A 6669   1.168   6.651   9.894  0.4049  0.2955 -0.4225
   57CHL1   H1B 6670   1.314   6.556   9.907  0.4306  1.3480 -0.8446
   57CHL1    C2 6671   1.230   6.604  10.095 -0.1587 -0.1523  0.0778
   57CHL1   H2A 6672   1.175   6.507  10.095 -1.1983  0.3572 -2.2802
   57CHL1   H2B 6673   1.164   6.674  10.149  0.3394 -1.1946  2.1333
   57CHL1   C20 6674   1.464   6.961   9.250  0.1487 -0.6992  0.2064
   57CHL1   H20 6675   1.414   7.059   9.263 -0.8223 -1.0361 -0.8154
   57CHL1   C21 6676   1.355   6.860   9.207 -0.1014 -0.4465 -0.1440
   57CHL1  H21A 6677   1.333   6.893   9.103  2.1766  0.5910 -0.3523
   57CHL1  H21B 6678   1.271   6.872   9.278  0.8818  3.1224  0.5902
   57CHL1  H21C 6679   1.394   6.756   9.215 -0.0080 -0.7802 -3.3413
   57CHL1   C22 6680   1.561   6.987   9.136 -0.0079  0.2905  0.0677
   57CHL1  H22A 6681   1.642   7.051   9.177 -2.0026  2.4371  0.9478
   57CHL1  H22B 6682   1.598   6.887   9.106  0.2389  0.5518 -0.5167
   57CHL1   C23 6683   1.510   7.058   9.007 -0.2690 -0.5784  0.0130
   57CHL1  H23A 6684   1.459   6.991   8.934 -0.5494  0.1262 -0.4606
   57CHL1  H23B 6685   1.433   7.129   9.044 -0.3055 -0.4531 -0.2943
   57CHL1   C24 6686   1.619   7.141   8.931  0.3904 -0.2832 -0.1673
   57CHL1  H24A 6687   1.562   7.215   8.870 -0.5478  0.9623  2.1048
   57CHL1  H24B 6688   1.669   7.194   9.015 -1.0936 -0.7722  1.0727
   57CHL1   C25 6689   1.721   7.064   8.845 -0.0824 -0.3979 -0.2746
   57CHL1   H25 6690   1.779   6.991   8.903  0.3180  0.5442  0.5387
   57CHL1   C26 6691   1.657   6.986   8.735 -0.3403  0.2454  0.6427
   57CHL1  H26A 6692   1.600   7.053   8.667 -1.5493 -0.5886  0.8031
   57CHL1  H26B 6693   1.723   6.932   8.663 -2.0662 -0.6718 -0.3246
   57CHL1  H26C 6694   1.571   6.918   8.754 -1.6890  1.4573 -0.8251
   57CHL1   C27 6695   1.829   7.160   8.787  0.1051  0.3183 -0.1847
   57CHL1  H27A 6696   1.913   7.111   8.735  0.2673  0.9350 -0.5108
   57CHL1  H27B 6697   1.790   7.242   8.723 -0.8603  1.5100  1.8194
   57CHL1  H27C 6698   1.876   7.209   8.875  0.5884  1.4033 -1.0168
   58CHL1    C3 6699   4.811   6.609  10.073 -0.3225  0.2700  0.0432
   58CHL1    H3 6700   4.814   6.501  10.047  0.2606  0.2805  0.0603
   58CHL1    O3 6701   4.835   6.616  10.208 -0.0742 -0.0441  0.0734
   58CHL1   H3' 6702   4.886   6.697  10.217  0.9642 -0.7182  0.5216
   58CHL1    C4 6703   4.915   6.690   9.999 -0.0329  0.5471 -0.2526
   58CHL1   H4A 6704   4.908   6.797  10.027  0.9870  0.2074  1.4717
   58CHL1   H4B 6705   5.019   6.658  10.022 -0.1198 -1.6980 -2.5058
   58CHL1    C5 6706   4.894   6.675   9.852 -0.6705  0.9463 -0.0624
   58CHL1    C6 6707   4.996   6.621   9.776 -0.9207  0.6199 -1.0767
   58CHL1    H6 6708   5.091   6.599   9.827 -1.0143 -0.5234 -1.3785
   58CHL1    C7 6709   4.983   6.585   9.633  0.6413  0.0968 -0.0216
   58CHL1   H7A 6710   5.079   6.585   9.577  0.4038 -1.6078 -0.4835
   58CHL1   H7B 6711   4.961   6.476   9.626 -2.0817  0.5662  0.4210
   58CHL1    C8 6712   4.869   6.671   9.571 -0.5079 -0.2269  0.0911
   58CHL1    H8 6713   4.897   6.777   9.556 -0.6517 -0.0432  1.0789
   58CHL1   C14 6714   4.833   6.607   9.437  0.0672 -0.1882  0.3470
   58CHL1   H14 6715   4.800   6.502   9.451 -0.1743 -0.0422  0.9222
   58CHL1   C15 6716   4.947   6.586   9.335 -0.1350  0.0422  0.0664
   58CHL1  H15A 6717   5.020   6.668   9.316  0.2218 -0.7219 -2.1055
   58CHL1  H15B 6718   5.005   6.496   9.366  0.3489  0.4029  0.2256
   58CHL1   C16 6719   4.872   6.556   9.202  0.0014 -0.2598  0.4746
   58CHL1  H16A 6720   4.921   6.583   9.106 -1.5285  0.0079 -0.2656
   58CHL1  H16B 6721   4.867   6.445   9.191 -1.8491 -0.0349 -1.5449
   58CHL1   C17 6722   4.718   6.593   9.223 -0.3934 -0.1082  0.5798
   58CHL1   H17 6723   4.661   6.502   9.251  0.3555 -0.3374  1.4099
   58CHL1   C13 6724   4.719   6.677   9.359 -0.1147 -0.3646  0.0142
   58CHL1   C18 6725   4.774   6.824   9.318  0.5547 -0.1104  0.0837
   58CHL1  H18A 6726   4.804   6.884   9.406  0.0907  2.0879 -1.1712
   58CHL1  H18B 6727   4.862   6.819   9.249  1.6618  0.8166  1.3763
   58CHL1  H18C 6728   4.696   6.877   9.260  0.5365  1.1246  1.2055
   58CHL1   C12 6729   4.597   6.657   9.455 -0.0987 -0.6202 -0.4133
   58CHL1  H12A 6730   4.507   6.703   9.410 -0.8813 -1.0444  0.6547
   58CHL1  H12B 6731   4.579   6.549   9.474 -1.5332 -0.2462  0.5579
   58CHL1   C11 6732   4.624   6.728   9.585  0.2187 -0.1583  1.1064
   58CHL1  H11A 6733   4.638   6.835   9.559 -0.3089  0.1023  1.8617
   58CHL1  H11B 6734   4.537   6.727   9.654  0.8073  2.0517  1.9534
   58CHL1    C9 6735   4.744   6.664   9.660 -0.4544 -0.1826 -0.0499
   58CHL1    H9 6736   4.746   6.553   9.666 -0.6323 -0.3919 -2.8261
   58CHL1   C10 6737   4.764   6.714   9.796 -0.8538 -0.3639  0.5673
   58CHL1   C19 6738   4.760   6.865   9.807 -0.8300 -0.9649  0.4824
   58CHL1  H19A 6739   4.846   6.915   9.757  0.3274 -1.0110  2.3336
   58CHL1  H19B 6740   4.661   6.897   9.768 -0.0328 -0.0311 -0.8340
   58CHL1  H19C 6741   4.769   6.898   9.913  0.3458 -2.8339  1.0156
   58CHL1    C1 6742   4.655   6.657   9.885 -0.1302 -0.0881  0.2782
   58CHL1   H1A 6743   4.563   6.718   9.872  0.0705 -0.2190 -2.1814
   58CHL1   H1B 6744   4.623   6.555   9.852 -0.7430 -0.1066  0.9010
   58CHL1    C2 6745   4.672   6.649  10.039  0.2602 -0.5416  0.1302
   58CHL1   H2A 6746   4.593   6.585  10.084  0.3097 -1.1222 -0.5913
   58CHL1   H2B 6747   4.664   6.752  10.082  0.7882 -0.0348 -0.9403
   58CHL1   C20 6748   4.636   6.652   9.095 -0.2524 -0.9791  0.1233
   58CHL1   H20 6749   4.689   6.747   9.071 -3.6279  0.8025 -0.9405
   58CHL1   C21 6750   4.482   6.692   9.114 -0.3695 -0.4267  0.3968
   58CHL1  H21A 6751   4.440   6.745   9.027  0.9567  0.3174  0.1875
   58CHL1  H21B 6752   4.475   6.771   9.192  0.9782  0.0602  0.0590
   58CHL1  H21C 6753   4.421   6.603   9.142 -0.2849 -0.3524  0.8365
   58CHL1   C22 6754   4.644   6.551   8.982 -0.4104 -0.6037  0.1286
   58CHL1  H22A 6755   4.749   6.542   8.945 -1.6009  0.8222 -4.2436
   58CHL1  H22B 6756   4.605   6.455   9.020 -0.8799 -0.1792  0.7344
   58CHL1   C23 6757   4.568   6.589   8.851 -0.2356  0.1938  0.3092
   58CHL1  H23A 6758   4.460   6.584   8.876  0.0327 -0.6830  1.3776
   58CHL1  H23B 6759   4.586   6.694   8.818 -3.0443 -0.3203 -3.6349
   58CHL1   C24 6760   4.621   6.488   8.745  0.0756 -0.2289  0.8043
   58CHL1  H24A 6761   4.731   6.490   8.734 -0.0771 -0.0781 -1.1744
   58CHL1  H24B 6762   4.594   6.384   8.773 -1.4976  0.1024  0.6424
   58CHL1   C25 6763   4.572   6.507   8.597 -0.3386  0.9346  0.5801
   58CHL1   H25 6764   4.462   6.498   8.582 -1.0314  4.2518  2.6535
   58CHL1   C26 6765   4.608   6.644   8.541  0.1982  0.3839  0.1358
   58CHL1  H26A 6766   4.716   6.667   8.552  0.4156 -1.0205  1.1164
   58CHL1  H26B 6767   4.573   6.644   8.435 -2.0254 -0.8976  0.7981
   58CHL1  H26C 6768   4.541   6.713   8.597  1.0701  1.2284  0.1554
   58CHL1   C27 6769   4.646   6.398   8.513 -0.0486 -0.2858  0.4883
   58CHL1  H27A 6770   4.611   6.402   8.408  0.0367  0.6712  0.4886
   58CHL1  H27B 6771   4.755   6.418   8.521  0.0418 -0.2972 -0.5913
   58CHL1  H27C 6772   4.624   6.299   8.560  2.3851 -1.6546 -1.0404
   59CHL1    C3 6773   4.252   6.187  10.441 -0.1361 -0.6688 -0.1795
   59CHL1    H3 6774   4.184   6.110  10.399 -0.8777  0.2088 -0.5998
   59CHL1    O3 6775   4.274   6.167  10.579 -0.2570  0.0543 -0.4779
   59CHL1   H3' 6776   4.192   6.186  10.625  0.0919 -0.4013  0.3608
   59CHL1    C4 6777   4.386   6.172  10.375 -0.1058 -0.0329 -0.3877
   59CHL1   H4A 6778   4.459   6.247  10.411 -1.2354  1.5185 -1.2394
   59CHL1   H4B 6779   4.427   6.072  10.403 -1.8300 -1.0848 -1.4305
   59CHL1    C5 6780   4.362   6.177  10.224  0.4213 -0.0723 -0.4830
   59CHL1    C6 6781   4.389   6.071  10.145  0.2572 -0.1726  0.2659
   59CHL1    H6 6782   4.439   5.993  10.204  3.7337  1.5274 -0.2070
   59CHL1    C7 6783   4.362   6.073   9.998 -0.0243 -0.6726 -0.1589
   59CHL1   H7A 6784   4.445   6.017   9.949  1.1054  0.4580  0.4063
   59CHL1   H7B 6785   4.277   6.005   9.973 -0.4325 -0.8694  1.6342
   59CHL1    C8 6786   4.340   6.213   9.942  0.1026 -0.0249 -0.4720
   59CHL1    H8 6787   4.436   6.269   9.937  0.5261 -0.7580 -0.6812
   59CHL1   C14 6788   4.281   6.216   9.804  0.4646  0.0925 -0.1479
   59CHL1   H14 6789   4.181   6.172   9.820  1.1833 -1.5102  0.1486
   59CHL1   C15 6790   4.360   6.139   9.697 -0.9274  0.6047 -0.2892
   59CHL1  H15A 6791   4.466   6.173   9.698 -0.1833 -1.4480  1.9777
   59CHL1  H15B 6792   4.341   6.030   9.709 -1.6349  0.9224  1.9238
   59CHL1   C16 6793   4.302   6.189   9.567 -0.3404 -0.8181 -0.0886
   59CHL1  H16A 6794   4.383   6.241   9.511  0.5956  0.0220  1.9458
   59CHL1  H16B 6795   4.266   6.105   9.504 -0.0159 -2.2009  1.4947
   59CHL1   C17 6796   4.203   6.297   9.608  0.1620 -0.3699  1.4675
   59CHL1   H17 6797   4.105   6.247   9.614 -1.1352  2.1067  2.3187
   59CHL1   C13 6798   4.254   6.349   9.744 -0.2555  0.4016  0.5941
   59CHL1   C18 6799   4.376   6.439   9.720  0.2370 -0.1387 -0.3462
   59CHL1  H18A 6800   4.452   6.396   9.652  0.1897 -0.9976  0.1269
   59CHL1  H18B 6801   4.354   6.545   9.696 -2.3446  0.3676  3.3276
   59CHL1  H18C 6802   4.432   6.447   9.816 -0.2304  0.7748 -0.1450
   59CHL1   C12 6803   4.153   6.419   9.841  0.4643 -0.1291  1.0014
   59CHL1  H12A 6804   4.129   6.516   9.793  0.0407 -0.8253 -0.2400
   59CHL1  H12B 6805   4.060   6.358   9.837 -0.3150  1.0829 -0.9635
   59CHL1   C11 6806   4.210   6.430   9.979 -0.3689 -0.3947  0.0641
   59CHL1  H11A 6807   4.302   6.491   9.967 -0.5695 -0.0763  0.1136
   59CHL1  H11B 6808   4.150   6.502  10.039 -0.2912 -0.5987  0.3849
   59CHL1    C9 6809   4.245   6.289  10.040  0.3611 -0.3828  0.3295
   59CHL1    H9 6810   4.147   6.237  10.037  0.0486  0.2032  0.0664
   59CHL1   C10 6811   4.301   6.308  10.178 -0.1580 -0.5641 -0.5242
   59CHL1   C19 6812   4.412   6.418  10.180 -0.1198  0.2711  0.4016
   59CHL1  H19A 6813   4.486   6.395  10.100 -0.5539  1.3718 -0.3486
   59CHL1  H19B 6814   4.369   6.519  10.159 -0.7083  0.2382  1.3725
   59CHL1  H19C 6815   4.470   6.422  10.274  0.4470  0.6227  0.0417
   59CHL1    C1 6816   4.182   6.349  10.269 -0.6438 -0.3198 -0.2167
   59CHL1   H1A 6817   4.162   6.457  10.251 -0.1167 -0.0157  0.9642
   59CHL1   H1B 6818   4.089   6.292  10.247 -0.0261 -1.3039 -0.3368
   59CHL1    C2 6819   4.201   6.332  10.422  0.2350  0.0730  0.5249
   59CHL1   H2A 6820   4.106   6.350  10.476 -0.0622 -1.1131  0.4209
   59CHL1   H2B 6821   4.285   6.400  10.450  1.4255 -0.6265 -1.1531
   59CHL1   C20 6822   4.185   6.399   9.499 -0.0169 -0.2119 -0.1099
   59CHL1   H20 6823   4.275   6.460   9.479  0.1494 -0.0066  1.1744
   59CHL1   C21 6824   4.073   6.501   9.537 -0.0355 -0.0909 -0.4374
   59CHL1  H21A 6825   4.041   6.547   9.441 -0.0804  2.7268  0.8050
   59CHL1  H21B 6826   4.120   6.579   9.601  0.9664 -0.1772 -1.0501
   59CHL1  H21C 6827   3.981   6.452   9.576 -1.7681  2.0040 -1.6587
   59CHL1   C22 6828   4.142   6.323   9.368 -0.1840  0.0511 -0.6765
   59CHL1  H22A 6829   4.199   6.230   9.344 -0.0433  0.5310 -2.3745
   59CHL1  H22B 6830   4.032   6.306   9.363 -0.0992 -0.4630 -0.8718
   59CHL1   C23 6831   4.182   6.411   9.251  0.8804 -0.3182  0.4387
   59CHL1  H23A 6832   4.116   6.500   9.242 -1.2029 -1.9463 -1.7277
   59CHL1  H23B 6833   4.288   6.445   9.262  1.0780 -1.1180  1.0595
   59CHL1   C24 6834   4.162   6.345   9.113 -0.1233  0.3901  1.2701
   59CHL1  H24A 6835   4.196   6.240   9.127 -1.1844  0.0658  1.5881
   59CHL1  H24B 6836   4.055   6.352   9.082  0.2434  0.7908  0.0595
   59CHL1   C25 6837   4.236   6.397   8.986 -0.5591  0.3086  0.2519
   59CHL1   H25 6838   4.346   6.395   9.007 -0.3310 -1.6311 -0.9132
   59CHL1   C26 6839   4.218   6.302   8.870  0.5027 -0.3325 -0.2278
   59CHL1  H26A 6840   4.115   6.316   8.831  1.6964  0.9952 -3.2072
   59CHL1  H26B 6841   4.287   6.315   8.784 -0.3174 -1.9544 -1.1839
   59CHL1  H26C 6842   4.232   6.202   8.916  0.0037  0.3723  1.5348
   59CHL1   C27 6843   4.184   6.536   8.939 -0.3946  0.4607 -0.5129
   59CHL1  H27A 6844   4.082   6.524   8.899  0.1878 -0.0509 -1.9150
   59CHL1  H27B 6845   4.189   6.603   9.027  0.0595  3.1026 -2.4266
   59CHL1  H27C 6846   4.248   6.577   8.858  1.3458 -2.4223 -0.7646
   60CHL1    C3 6847   4.809   5.141  10.127 -0.0801  0.1915  0.1954
   60CHL1    H3 6848   4.759   5.062  10.068  0.1459 -0.5558  0.9762
   60CHL1    O3 6849   4.774   5.119  10.266 -0.3044  0.0980 -0.4624
   60CHL1   H3' 6850   4.705   5.183  10.286 -2.0649 -1.4774 -1.2282
   60CHL1    C4 6851   4.959   5.119  10.114 -0.1284 -0.3502  0.5855
   60CHL1   H4A 6852   5.011   5.170  10.196 -0.4381  3.4753 -1.3860
   60CHL1   H4B 6853   4.979   5.009  10.119 -0.2827 -0.4984 -1.2024
   60CHL1    C5 6854   5.018   5.153   9.974  0.6028 -0.0284 -0.0033
   60CHL1    C6 6855   5.076   5.050   9.903 -0.7508 -0.6696 -0.2464
   60CHL1    H6 6856   5.098   4.952   9.947  1.5581  0.0105  0.2793
   60CHL1    C7 6857   5.119   5.065   9.763 -0.2808  0.0685  0.9077
   60CHL1   H7A 6858   5.220   5.022   9.742 -0.3427  0.0324  0.6706
   60CHL1   H7B 6859   5.054   5.004   9.696 -0.1145 -0.7200  1.4514
   60CHL1    C8 6860   5.118   5.214   9.713  0.2723  0.4564  0.5099
   60CHL1    H8 6861   5.204   5.264   9.765 -0.0305  1.3536  0.1648
   60CHL1   C14 6862   5.142   5.214   9.564  1.2987  0.0314 -0.1266
   60CHL1   H14 6863   5.064   5.146   9.522  1.6242 -1.4413  1.5341
   60CHL1   C15 6864   5.274   5.150   9.503  0.6103 -0.6223  0.6919
   60CHL1  H15A 6865   5.351   5.193   9.570 -0.4436 -2.2828  3.1112
   60CHL1  H15B 6866   5.274   5.040   9.520  0.6221 -0.5261  1.3508
   60CHL1   C16 6867   5.272   5.209   9.363 -0.1668  0.0628 -0.3085
   60CHL1  H16A 6868   5.364   5.268   9.344 -0.2132 -0.2997 -1.8594
   60CHL1  H16B 6869   5.258   5.131   9.285  0.7181 -1.2289  0.7899
   60CHL1   C17 6870   5.153   5.305   9.351  0.1139 -0.0831 -0.2341
   60CHL1   H17 6871   5.069   5.241   9.317  1.0060 -0.6115 -1.5276
   60CHL1   C13 6872   5.125   5.356   9.497  0.2690  0.9043  0.4640
   60CHL1   C18 6873   5.239   5.454   9.547 -0.0876 -0.0939  0.2871
   60CHL1  H18A 6874   5.231   5.447   9.657 -3.2251 -1.9987  0.0811
   60CHL1  H18B 6875   5.338   5.421   9.510  0.1043 -0.9271  1.4797
   60CHL1  H18C 6876   5.202   5.552   9.510  0.2939  0.6590  1.8556
   60CHL1   C12 6877   4.992   5.408   9.530 -0.0068 -1.1689  0.0465
   60CHL1  H12A 6878   4.988   5.516   9.504 -0.5269 -0.9619  0.9756
   60CHL1  H12B 6879   4.895   5.364   9.498 -0.5932 -1.7311  2.4280
   60CHL1   C11 6880   4.960   5.420   9.685  0.3759  0.5103 -0.2304
   60CHL1  H11A 6881   5.038   5.492   9.719  0.4752 -0.4729  1.7602
   60CHL1  H11B 6882   4.861   5.464   9.709  0.6819  1.3820 -0.5299
   60CHL1    C9 6883   4.988   5.279   9.756  0.7736 -0.6054 -0.0618
   60CHL1    H9 6884   4.902   5.220   9.718  1.0718  0.0799 -1.9514
   60CHL1   C10 6885   4.966   5.284   9.911 -0.5223  0.1520 -0.0518
   60CHL1   C19 6886   5.051   5.403   9.965  0.0351  0.5538  0.3484
   60CHL1  H19A 6887   5.056   5.390  10.075 -0.6218 -1.9933  0.1590
   60CHL1  H19B 6888   5.155   5.394   9.928 -0.4923  0.6379 -1.2428
   60CHL1  H19C 6889   5.015   5.507   9.949  2.3423  1.2483 -0.6890
   60CHL1    C1 6890   4.808   5.316   9.936 -0.2223  0.1427  0.2510
   60CHL1   H1A 6891   4.775   5.420   9.912  0.3610  1.1221  3.2440
   60CHL1   H1B 6892   4.744   5.244   9.881 -1.1432  0.2043  1.2031
   60CHL1    C2 6893   4.772   5.286  10.084 -0.4250 -0.0638  0.4515
   60CHL1   H2A 6894   4.665   5.305  10.105 -0.2320 -0.1941  1.6486
   60CHL1   H2B 6895   4.838   5.356  10.140  0.2847 -0.7559  0.4966
   60CHL1   C20 6896   5.178   5.411   9.242  0.7270  0.1027 -0.3890
   60CHL1   H20 6897   5.252   5.482   9.284  0.1745 -0.4276  1.5866
   60CHL1   C21 6898   5.052   5.494   9.210  0.4281  0.3229  0.1893
   60CHL1  H21A 6899   5.071   5.545   9.113  2.4685 -1.2653 -0.3225
   60CHL1  H21B 6900   5.043   5.564   9.295  1.9541 -0.7120  1.2581
   60CHL1  H21C 6901   4.958   5.435   9.202  0.0642  0.9986 -0.7870
   60CHL1   C22 6902   5.238   5.359   9.106  0.0660 -0.2347  0.4619
   60CHL1  H22A 6903   5.266   5.453   9.054  0.2281 -0.0146  0.9491
   60CHL1  H22B 6904   5.332   5.302   9.119 -0.1013 -0.5592  0.2637
   60CHL1   C23 6905   5.135   5.286   9.014  0.2328 -0.3826  0.0577
   60CHL1  H23A 6906   5.122   5.186   9.060 -3.4173  0.6155  1.6072
   60CHL1  H23B 6907   5.034   5.327   8.992  0.0345 -0.0939  1.4154
   60CHL1   C24 6908   5.188   5.244   8.870 -0.7533  0.0639 -0.7576
   60CHL1  H24A 6909   5.289   5.199   8.871 -0.0033  1.7127  0.3215
   60CHL1  H24B 6910   5.120   5.161   8.838 -0.2117  0.2750 -2.5510
   60CHL1   C25 6911   5.184   5.352   8.763 -0.1878  0.5818 -0.1127
   60CHL1   H25 6912   5.096   5.418   8.773 -0.9120 -0.4860  0.9523
   60CHL1   C26 6913   5.304   5.443   8.754 -0.1724  0.2345  0.3007
   60CHL1  H26A 6914   5.314   5.493   8.852 -1.9524 -0.8785  1.1036
   60CHL1  H26B 6915   5.405   5.402   8.734  1.1590  1.6414  3.4989
   60CHL1  H26C 6916   5.282   5.521   8.678 -0.9983 -0.8628 -0.6322
   60CHL1   C27 6917   5.168   5.276   8.628 -0.0037 -0.0106 -0.5348
   60CHL1  H27A 6918   5.075   5.219   8.609  0.2716  0.4586 -3.7058
   60CHL1  H27B 6919   5.181   5.348   8.545 -2.8486 -0.1481 -1.2107
   60CHL1  H27C 6920   5.253   5.204   8.625  0.8729  0.8738  1.2175
   61CHL1    C3 6921   4.387   3.566  10.121 -0.0355 -0.4781  0.5922
   61CHL1    H3 6922   4.295   3.507  10.102  0.6829 -1.2872 -0.4832
   61CHL1    O3 6923   4.393   3.587  10.260 -0.1920  0.2093  0.1297
   61CHL1   H3' 6924   4.448   3.517  10.297  1.6860  1.1173 -0.7866
   61CHL1    C4 6925   4.506   3.470  10.090 -0.2835 -0.2572  0.3707
   61CHL1   H4A 6926   4.600   3.525  10.112  1.0743 -1.2162 -2.5673
   61CHL1   H4B 6927   4.512   3.381  10.156 -0.1632  0.3436  1.1912
   61CHL1    C5 6928   4.501   3.432   9.942 -0.3081  0.4387 -0.8409
   61CHL1    C6 6929   4.485   3.304   9.912 -1.1557  0.6149  0.2236
   61CHL1    H6 6930   4.495   3.228   9.991  1.1567  1.0288  0.4135
   61CHL1    C7 6931   4.465   3.256   9.764  0.2671 -0.6670 -0.2533
   61CHL1   H7A 6932   4.506   3.155   9.743 -2.6327 -1.7535 -1.1834
   61CHL1   H7B 6933   4.358   3.227   9.757  0.2693 -0.7146 -0.1009
   61CHL1    C8 6934   4.507   3.363   9.660 -0.0499  0.3499 -0.3434
   61CHL1    H8 6935   4.618   3.367   9.658  0.1565 -2.8131  0.7081
   61CHL1   C14 6936   4.446   3.325   9.527 -0.9226 -0.1101  0.3829
   61CHL1   H14 6937   4.335   3.332   9.530 -0.7794  3.2202  2.7722
   61CHL1   C15 6938   4.475   3.185   9.480  0.7789  0.4570 -0.4742
   61CHL1  H15A 6939   4.572   3.146   9.518 -0.1600 -0.1607  1.3995
   61CHL1  H15B 6940   4.393   3.119   9.515  0.1682 -0.2012 -2.9517
   61CHL1   C16 6941   4.463   3.184   9.331  0.7760 -0.1067 -0.3838
   61CHL1  H16A 6942   4.553   3.141   9.283 -0.1335 -4.2832  1.2486
   61CHL1  H16B 6943   4.381   3.111   9.313 -0.0416  0.2824  1.4923
   61CHL1   C17 6944   4.428   3.330   9.291 -0.4935 -0.2054  0.4954
   61CHL1   H17 6945   4.317   3.336   9.299 -0.5074  0.7425 -0.1598
   61CHL1   C13 6946   4.484   3.415   9.411  0.9495  0.0179  0.0548
   61CHL1   C18 6947   4.636   3.428   9.393 -0.1803 -0.0731 -0.1798
   61CHL1  H18A 6948   4.673   3.502   9.318  1.8629  0.2360  1.0628
   61CHL1  H18B 6949   4.693   3.455   9.485  0.9883 -2.9138  0.0278
   61CHL1  H18C 6950   4.676   3.326   9.378 -2.4019 -1.2838  1.5420
   61CHL1   C12 6951   4.416   3.544   9.446  0.2511 -0.0172 -0.0273
   61CHL1  H12A 6952   4.436   3.626   9.375 -0.0192 -0.4464 -0.6052
   61CHL1  H12B 6953   4.307   3.522   9.450  0.6293 -2.1757 -0.4220
   61CHL1   C11 6954   4.457   3.606   9.586  0.5248 -0.3530 -1.1212
   61CHL1  H11A 6955   4.557   3.655   9.585  0.8985 -1.0795 -0.5974
   61CHL1  H11B 6956   4.374   3.671   9.620  2.7065  1.6189  0.7549
   61CHL1    C9 6957   4.452   3.502   9.698 -0.3382 -0.1274 -0.0699
   61CHL1    H9 6958   4.343   3.481   9.706 -0.5262  1.4094  1.9951
   61CHL1   C10 6959   4.491   3.552   9.842  0.4519  0.7094 -0.2748
   61CHL1   C19 6960   4.633   3.614   9.830 -0.2039 -0.4270 -0.7655
   61CHL1  H19A 6961   4.665   3.647   9.931  0.5254 -1.1162 -0.7576
   61CHL1  H19B 6962   4.704   3.532   9.803  0.4033  0.5919 -2.3685
   61CHL1  H19C 6963   4.638   3.702   9.764  0.9645  0.2298  0.1569
   61CHL1    C1 6964   4.379   3.653   9.886 -0.1962 -1.3258 -0.6528
   61CHL1   H1A 6965   4.394   3.745   9.825  0.6260 -0.8666  0.2068
   61CHL1   H1B 6966   4.276   3.614   9.873 -0.3549 -1.1648  0.0613
   61CHL1    C2 6967   4.394   3.692  10.036 -0.1964 -0.1323  0.2819
   61CHL1   H2A 6968   4.312   3.759  10.069  0.7067  0.2436  1.8729
   61CHL1   H2B 6969   4.489   3.748  10.050 -1.3067  2.2839 -1.1355
   61CHL1   C20 6970   4.460   3.388   9.154  0.2277  0.1630  0.0579
   61CHL1   H20 6971   4.445   3.497   9.165 -0.0407  0.2443 -1.0604
   61CHL1   C21 6972   4.351   3.344   9.048  0.1729 -0.4332 -0.1237
   61CHL1  H21A 6973   4.348   3.235   9.029 -0.4053 -0.6694  1.2251
   61CHL1  H21B 6974   4.369   3.401   8.954 -0.6663  2.1517  1.2080
   61CHL1  H21C 6975   4.246   3.370   9.072  0.7322  0.5907  1.3496
   61CHL1   C22 6976   4.593   3.340   9.082  0.0454  0.0596  0.1071
   61CHL1  H22A 6977   4.673   3.327   9.157  0.3786  1.7395  0.0799
   61CHL1  H22B 6978   4.569   3.245   9.029 -0.4829  0.5111 -0.4944
   61CHL1   C23 6979   4.633   3.440   8.977  0.1305  0.0473  0.2459
   61CHL1  H23A 6980   4.705   3.393   8.908  1.3786 -1.9648  2.7539
   61CHL1  H23B 6981   4.555   3.477   8.907  1.2792 -0.1510 -1.1644
   61CHL1   C24 6982   4.711   3.562   9.037 -0.2862  0.0057 -0.2208
   61CHL1  H24A 6983   4.646   3.609   9.114  1.2678  0.1807  1.0535
   61CHL1  H24B 6984   4.811   3.536   9.079 -0.0439  3.2036  1.4882
   61CHL1   C25 6985   4.738   3.678   8.935 -0.9700  1.4821 -0.3363
   61CHL1   H25 6986   4.644   3.734   8.915 -0.3296  3.7075  2.1521
   61CHL1   C26 6987   4.826   3.785   8.992 -0.3147  0.2495  0.8390
   61CHL1  H26A 6988   4.841   3.868   8.919  0.0059  1.3253  2.0712
   61CHL1  H26B 6989   4.773   3.821   9.082 -2.9517 -1.9779  0.2827
   61CHL1  H26C 6990   4.929   3.755   9.021  0.1045  0.4352 -0.3897
   61CHL1   C27 6991   4.800   3.629   8.797  0.2062  0.2654  0.9879
   61CHL1  H27A 6992   4.897   3.584   8.827 -0.7181 -1.2445  1.8098
   61CHL1  H27B 6993   4.750   3.551   8.736  2.6772 -1.5707  1.1728
   61CHL1  H27C 6994   4.827   3.715   8.732  0.8014 -1.6162 -1.4073
   62CHL1    C3 6995   1.138   0.905   9.992  0.4293  0.0462  0.5372
   62CHL1    H3 6996   1.191   0.808  10.000  0.1107 -0.2574 -0.7436
   62CHL1    O3 6997   1.061   0.939  10.111 -0.2490 -0.0333 -0.1975
   62CHL1   H3' 6998   1.036   1.030  10.094  1.7906  0.8019  0.8737
   62CHL1    C4 6999   1.241   1.015   9.973 -0.1368 -0.4979 -0.3447
   62CHL1   H4A 7000   1.183   1.110   9.979 -1.8651 -1.5192 -0.2366
   62CHL1   H4B 7001   1.313   1.007  10.057 -0.6680 -1.2900  0.0418
   62CHL1    C5 7002   1.317   1.000   9.848  0.5455  0.3354  0.2814
   62CHL1    C6 7003   1.449   0.982   9.832  0.1128 -0.1262 -0.0208
   62CHL1    H6 7004   1.519   0.994   9.916  0.5858  2.5475 -0.7010
   62CHL1    C7 7005   1.522   0.981   9.698 -0.3692 -0.2021  0.2694
   62CHL1   H7A 7006   1.610   1.047   9.713 -0.7716  0.2884  0.4869
   62CHL1   H7B 7007   1.556   0.878   9.672 -2.3289 -1.0239  0.7262
   62CHL1    C8 7008   1.436   1.043   9.581  1.1649 -0.1674 -0.6460
   62CHL1    H8 7009   1.433   1.153   9.595  0.2543 -0.4050  1.2420
   62CHL1   C14 7010   1.493   1.004   9.446  0.3501 -0.0881  0.1469
   62CHL1   H14 7011   1.488   0.894   9.430 -0.6515 -0.0588  0.2441
   62CHL1   C15 7012   1.642   1.034   9.418  0.1473 -0.1202  0.2380
   62CHL1  H15A 7013   1.672   1.136   9.453 -1.1710  0.6398 -0.7564
   62CHL1  H15B 7014   1.709   0.966   9.474  0.0557  0.5777  1.2156
   62CHL1   C16 7015   1.659   1.019   9.265  1.1362 -0.6717 -0.3374
   62CHL1  H16A 7016   1.719   1.101   9.219 -0.9311  0.9936 -0.2110
   62CHL1  H16B 7017   1.711   0.922   9.246 -0.1610 -1.0795 -2.1219
   62CHL1   C17 7018   1.514   1.015   9.212 -0.5209  0.4210 -0.7247
   62CHL1   H17 7019   1.496   0.906   9.198  1.4535 -0.1186  0.5547
   62CHL1   C13 7020   1.417   1.056   9.329 -0.2308  0.0103  0.5905
   62CHL1   C18 7021   1.417   1.213   9.318  0.6431  0.6720 -1.1563
   62CHL1  H18A 7022   1.351   1.246   9.401 -3.1094 -0.8884 -3.2649
   62CHL1  H18B 7023   1.514   1.263   9.339  1.4904 -1.1559 -0.4921
   62CHL1  H18C 7024   1.371   1.250   9.224 -1.0536  1.5884 -0.0182
   62CHL1   C12 7025   1.277   0.996   9.326  0.0059 -0.0295  0.5048
   62CHL1  H12A 7026   1.215   1.049   9.251 -2.1326 -0.5052  1.8387
   62CHL1  H12B 7027   1.285   0.887   9.303  1.5766  0.4095 -1.3038
   62CHL1   C11 7028   1.212   1.020   9.458 -0.3287 -0.2849 -0.5909
   62CHL1  H11A 7029   1.192   1.129   9.471  0.1547 -0.2596 -0.0159
   62CHL1  H11B 7030   1.110   0.978   9.472  0.5813 -1.5578  3.6329
   62CHL1    C9 7031   1.294   0.985   9.580  0.3859  0.7620 -0.7632
   62CHL1    H9 7032   1.313   0.875   9.583  0.2337  0.6568 -2.5783
   62CHL1   C10 7033   1.228   1.009   9.718  0.4005  0.0331  0.3956
   62CHL1   C19 7034   1.147   1.143   9.705 -0.2712  0.0559 -0.5631
   62CHL1  H19A 7035   1.052   1.118   9.653  0.2613 -1.4168 -0.9017
   62CHL1  H19B 7036   1.115   1.177   9.806  2.2522 -2.1459  1.1376
   62CHL1  H19C 7037   1.217   1.219   9.665  1.1439  0.4771  2.4805
   62CHL1    C1 7038   1.126   0.887   9.739 -1.1655 -0.2880 -0.1225
   62CHL1   H1A 7039   1.052   0.867   9.659 -1.2690  1.1212 -0.3984
   62CHL1   H1B 7040   1.194   0.799   9.746 -0.1466  0.4287 -0.6188
   62CHL1    C2 7041   1.042   0.908   9.869 -0.0449  0.0641 -0.9754
   62CHL1   H2A 7042   0.980   0.815   9.869 -1.5772  1.0525  0.0712
   62CHL1   H2B 7043   0.979   0.999   9.863  1.6399  1.3547  0.1373
   62CHL1   C20 7044   1.504   1.070   9.068  0.2803  0.2933 -0.4973
   62CHL1   H20 7045   1.522   1.180   9.067 -2.3806  0.8492  1.0817
   62CHL1   C21 7046   1.360   1.043   9.012  0.0213  0.1701  0.7442
   62CHL1  H21A 7047   1.335   0.936   9.026  0.5624 -0.0829 -0.2006
   62CHL1  H21B 7048   1.365   1.057   8.902  0.4361 -2.0527  0.4458
   62CHL1  H21C 7049   1.284   1.109   9.060 -1.7677 -0.6383 -0.8552
   62CHL1   C22 7050   1.614   1.017   8.967  0.3344  0.2833  0.3755
   62CHL1  H22A 7051   1.604   1.088   8.882  1.1154  2.6817  2.1906
   62CHL1  H22B 7052   1.717   1.038   9.001  0.9773 -0.4607 -1.0411
   62CHL1   C23 7053   1.604   0.870   8.930  0.9064  0.1491 -0.2489
   62CHL1  H23A 7054   1.611   0.805   9.020 -2.1117  2.6325  2.0068
   62CHL1  H23B 7055   1.499   0.851   8.901  0.7981  1.1249 -0.5114
   62CHL1   C24 7056   1.701   0.835   8.814  0.3113  0.7141  0.4288
   62CHL1  H24A 7057   1.698   0.926   8.749  1.5617  1.6272  1.5932
   62CHL1  H24B 7058   1.799   0.829   8.864 -0.2049 -1.6423  1.2901
   62CHL1   C25 7059   1.663   0.711   8.731 -0.3649  0.2538  0.4211
   62CHL1   H25 7060   1.639   0.625   8.797 -0.6454  0.9430  1.2317
   62CHL1   C26 7061   1.542   0.743   8.634 -0.4225 -0.1545 -0.3733
   62CHL1  H26A 7062   1.501   0.647   8.597  0.1350 -0.8864  0.8554
   62CHL1  H26B 7063   1.459   0.778   8.700  0.3114 -2.8691  2.2012
   62CHL1  H26C 7064   1.571   0.816   8.555 -2.8359  2.5029  1.0058
   62CHL1   C27 7065   1.788   0.678   8.644  0.6681  0.1483 -0.3491
   62CHL1  H27A 7066   1.821   0.767   8.587  1.7868  0.0427  0.1066
   62CHL1  H27B 7067   1.871   0.641   8.708  0.7936  0.3968 -0.3676
   62CHL1  H27C 7068   1.767   0.602   8.565 -2.4607 -0.4137  0.8796
   63CHL1    C3 7069   2.010   2.101  10.495  0.1306 -0.6869 -0.4155
   63CHL1    H3 7070   1.993   1.998  10.459  0.1311 -0.2905 -1.6179
   63CHL1    O3 7071   2.028   2.097  10.636  0.3127  0.1944 -0.3236
   63CHL1   H3' 7072   2.050   2.186  10.664  1.2947 -0.5460  1.4069
   63CHL1    C4 7073   2.134   2.163  10.425  0.3822  0.0728  0.8248
   63CHL1   H4A 7074   2.141   2.270  10.454  0.0549  0.2831  0.1462
   63CHL1   H4B 7075   2.218   2.106  10.471  1.0397 -0.6918 -1.2146
   63CHL1    C5 7076   2.120   2.156  10.276  0.0696 -0.0916  0.4038
   63CHL1    C6 7077   2.202   2.083  10.198 -0.1242  0.3687 -0.4657
   63CHL1    H6 7078   2.269   2.010  10.245 -0.9182 -0.3853 -0.4801
   63CHL1    C7 7079   2.192   2.081  10.046 -0.6879 -0.2836  0.1050
   63CHL1   H7A 7080   2.292   2.092   9.998 -0.5154 -0.9736  0.2937
   63CHL1   H7B 7081   2.150   1.981  10.023 -1.5081  0.2323 -0.7304
   63CHL1    C8 7082   2.097   2.183   9.982  0.3324  0.2833 -0.0193
   63CHL1    H8 7083   2.143   2.284   9.985 -3.0880  1.9667  0.1614
   63CHL1   C14 7084   2.054   2.136   9.845  0.1289  0.3843 -0.7618
   63CHL1   H14 7085   1.982   2.051   9.845  0.1421  0.3381  0.8022
   63CHL1   C15 7086   2.166   2.074   9.755 -0.7738  0.3701 -0.4770
   63CHL1  H15A 7087   2.258   2.137   9.752  0.1118 -0.8252  0.6786
   63CHL1  H15B 7088   2.195   1.974   9.791  0.9485  1.9021  2.8187
   63CHL1   C16 7089   2.105   2.080   9.617  0.5061 -0.1460  0.0976
   63CHL1  H16A 7090   2.179   2.110   9.540  1.6361  1.4444  1.7019
   63CHL1  H16B 7091   2.072   1.977   9.590 -1.6518  0.6076 -0.3209
   63CHL1   C17 7092   1.978   2.174   9.624  0.5791 -0.4580  0.3229
   63CHL1   H17 7093   1.886   2.113   9.633 -0.8094  1.5794  0.4401
   63CHL1   C13 7094   1.985   2.245   9.762 -0.4132  0.1535  0.3431
   63CHL1   C18 7095   2.075   2.370   9.748 -0.1222  0.4207  0.1906
   63CHL1  H18A 7096   2.167   2.336   9.697 -0.4906 -0.6459  0.2221
   63CHL1  H18B 7097   2.023   2.450   9.691 -0.3837 -0.4500 -0.8339
   63CHL1  H18C 7098   2.108   2.410   9.846  0.4365 -2.8957  1.4817
   63CHL1   C12 7099   1.851   2.286   9.842 -0.1272  0.5509 -0.0978
   63CHL1  H12A 7100   1.802   2.374   9.795 -1.2679 -0.1651 -0.2959
   63CHL1  H12B 7101   1.782   2.199   9.834  0.6290 -0.1796  1.0169
   63CHL1   C11 7102   1.874   2.309   9.989  0.2248 -0.2133  0.2493
   63CHL1  H11A 7103   1.930   2.405   9.995  2.8988 -1.3176 -3.2784
   63CHL1  H11B 7104   1.780   2.327  10.046  0.8712  1.9082  0.7507
   63CHL1    C9 7105   1.966   2.206  10.058  0.9874 -0.1108 -0.1729
   63CHL1    H9 7106   1.909   2.111  10.056  0.0090  0.4675 -0.4186
   63CHL1   C10 7107   2.003   2.235  10.213  0.3856  0.3829  0.0329
   63CHL1   C19 7108   2.017   2.389  10.225  0.1591  0.0260 -0.2848
   63CHL1  H19A 7109   2.087   2.428  10.149 -1.6232 -0.4780 -2.2836
   63CHL1  H19B 7110   1.917   2.435  10.214 -0.5360 -1.4026 -0.1886
   63CHL1  H19C 7111   2.048   2.431  10.323 -3.7687 -0.2709  1.2572
   63CHL1    C1 7112   1.874   2.200  10.293 -0.1296  0.2247 -1.0694
   63CHL1   H1A 7113   1.792   2.273  10.276  0.3233  1.2378  0.8605
   63CHL1   H1B 7114   1.830   2.106  10.254 -0.8369 -0.1602  0.5581
   63CHL1    C2 7115   1.888   2.186  10.451  0.6699 -0.8668  0.1286
   63CHL1   H2A 7116   1.800   2.129  10.489 -1.1075  0.6453 -1.5462
   63CHL1   H2B 7117   1.878   2.287  10.495 -0.4927 -0.9569  0.0992
   63CHL1   C20 7118   1.956   2.258   9.496 -0.5672  0.3032 -0.3034
   63CHL1   H20 7119   2.039   2.330   9.478 -1.6363  1.0144 -2.8859
   63CHL1   C21 7120   1.828   2.332   9.497 -0.0603 -0.0874  0.2825
   63CHL1  H21A 7121   1.826   2.382   9.596 -0.9877  0.9699 -0.2556
   63CHL1  H21B 7122   1.739   2.266   9.494 -0.9967  1.0144  2.0386
   63CHL1  H21C 7123   1.822   2.405   9.414 -0.4155  0.9004  1.1529
   63CHL1   C22 7124   1.966   2.171   9.359  0.4316  0.0378 -0.0011
   63CHL1  H22A 7125   2.058   2.108   9.361  0.3074 -0.1258  0.7445
   63CHL1  H22B 7126   1.877   2.106   9.347 -0.0572  0.9896 -2.0053
   63CHL1   C23 7127   1.973   2.263   9.226 -0.8849 -0.3938  0.4952
   63CHL1  H23A 7128   1.868   2.289   9.202 -0.8327 -0.2058  0.4713
   63CHL1  H23B 7129   2.041   2.349   9.245  0.4310 -0.9318 -1.4882
   63CHL1   C24 7130   2.029   2.196   9.099 -0.0574  0.6680  0.0557
   63CHL1  H24A 7131   2.025   2.281   9.028 -0.0105  2.3996  2.0102
   63CHL1  H24B 7132   2.136   2.167   9.104  0.1672  1.1171 -1.6751
   63CHL1   C25 7133   1.956   2.077   9.050 -0.3535 -0.0507 -0.2257
   63CHL1   H25 7134   1.952   2.003   9.133 -0.9873  0.8756  0.5956
   63CHL1   C26 7135   1.813   2.102   9.005  0.3666 -0.2758  0.1608
   63CHL1  H26A 7136   1.772   2.018   8.945 -3.3177  0.9432  0.7630
   63CHL1  H26B 7137   1.753   2.120   9.097  0.1943 -0.3426  0.0603
   63CHL1  H26C 7138   1.803   2.199   8.952  0.1299 -0.5256 -0.2574
   63CHL1   C27 7139   2.038   2.005   8.945  0.2203 -0.1555  0.4098
   63CHL1  H27A 7140   2.049   2.077   8.861 -1.4238  0.4822  0.7116
   63CHL1  H27B 7141   2.141   1.978   8.979  1.1146  1.2196 -1.0360
   63CHL1  H27C 7142   1.998   1.905   8.920  0.9951 -0.2617 -0.4601
   64CHL1    C3 7143   6.596   2.222   9.925  0.4128 -0.3807  0.0890
   64CHL1    H3 7144   6.663   2.303   9.887 -2.0046  1.6985  0.0140
   64CHL1    O3 7145   6.571   2.232  10.064  0.4830  0.0336 -0.1169
   64CHL1   H3' 7146   6.478   2.208  10.068 -0.0950  2.0943 -0.1206
   64CHL1    C4 7147   6.459   2.241   9.854 -0.6767  0.6254 -0.1471
   64CHL1   H4A 7148   6.386   2.171   9.901 -1.7807  0.5765 -1.8258
   64CHL1   H4B 7149   6.426   2.340   9.893  1.0198  0.8840  0.7150
   64CHL1    C5 7150   6.456   2.226   9.704  0.2100 -0.4333 -0.4873
   64CHL1    C6 7151   6.390   2.314   9.633  0.0157 -0.3741 -0.0049
   64CHL1    H6 7152   6.340   2.399   9.682 -0.9345  0.6156 -2.5270
   64CHL1    C7 7153   6.378   2.313   9.480 -0.0264 -0.2041 -0.2168
   64CHL1   H7A 7154   6.269   2.315   9.460 -0.2632 -1.2342  0.8663
   64CHL1   H7B 7155   6.426   2.411   9.456  1.4566 -0.6554  0.7820
   64CHL1    C8 7156   6.460   2.196   9.416  0.2149 -0.0871 -0.0049
   64CHL1    H8 7157   6.387   2.113   9.404 -0.6951  0.2091  2.7451
   64CHL1   C14 7158   6.517   2.230   9.275 -0.0323  0.4617  0.4497
   64CHL1   H14 7159   6.589   2.313   9.293  0.4301  0.0869  0.3375
   64CHL1   C15 7160   6.414   2.283   9.171 -0.9263  0.1861 -1.0504
   64CHL1  H15A 7161   6.323   2.220   9.176 -1.1884  0.5139 -1.5193
   64CHL1  H15B 7162   6.400   2.389   9.200  0.9043  0.2156 -0.1725
   64CHL1   C16 7163   6.479   2.261   9.036  0.0068 -0.0302 -0.1717
   64CHL1  H16A 7164   6.429   2.194   8.963  1.3956 -0.7843 -0.4648
   64CHL1  H16B 7165   6.507   2.355   8.985  4.4359 -1.3293 -0.5691
   64CHL1   C17 7166   6.607   2.178   9.067 -0.5038  0.0127  0.0620
   64CHL1   H17 7167   6.681   2.259   9.081 -1.1511  0.4727  0.9143
   64CHL1   C13 7168   6.586   2.113   9.207 -0.0417  0.7806  0.9248
   64CHL1   C18 7169   6.478   1.992   9.185 -0.0167 -1.0307 -0.2077
   64CHL1  H18A 7170   6.446   1.951   9.283 -2.0341  2.6017  0.8121
   64CHL1  H18B 7171   6.383   2.009   9.131  0.1102 -0.8409 -0.3759
   64CHL1  H18C 7172   6.526   1.916   9.119 -0.6455 -1.7161  0.1069
   64CHL1   C12 7173   6.706   2.076   9.289 -0.0996 -0.3053 -0.3750
   64CHL1  H12A 7174   6.753   1.987   9.242 -3.1798 -0.9237 -2.6366
   64CHL1  H12B 7175   6.762   2.172   9.290 -1.3355  0.4539 -1.1261
   64CHL1   C11 7176   6.663   2.032   9.437  0.7716  0.2804  0.1863
   64CHL1  H11A 7177   6.603   1.939   9.432 -1.4052  1.5929  0.5648
   64CHL1  H11B 7178   6.750   2.011   9.504 -0.1469  0.7908  1.5685
   64CHL1    C9 7179   6.574   2.144   9.501 -0.0845 -0.2689  0.2319
   64CHL1    H9 7180   6.643   2.231   9.510 -0.3224 -0.0219 -0.2994
   64CHL1   C10 7181   6.527   2.105   9.644  0.4814  1.0456  0.0629
   64CHL1   C19 7182   6.435   1.985   9.636  0.4389 -0.9049  0.2812
   64CHL1  H19A 7183   6.479   1.892   9.595 -2.0555 -1.0899 -2.3177
   64CHL1  H19B 7184   6.401   1.952   9.736 -0.0818 -2.1178 -0.2810
   64CHL1  H19C 7185   6.346   2.000   9.572  1.1960  1.9632 -0.2374
   64CHL1    C1 7186   6.651   2.065   9.728  0.2305 -0.1876 -0.4544
   64CHL1   H1A 7187   6.688   1.963   9.705  0.2686  0.2963 -2.7156
   64CHL1   H1B 7188   6.738   2.135   9.719  0.4555  0.0808  2.6806
   64CHL1    C2 7189   6.627   2.080   9.886  0.4086  1.2229 -0.0390
   64CHL1   H2A 7190   6.721   2.042   9.932  0.0683  0.0289 -0.2928
   64CHL1   H2B 7191   6.549   2.005   9.909  1.5398 -0.0461 -0.2097
   64CHL1   C20 7192   6.661   2.090   8.952  0.3366  0.6847 -0.0583
   64CHL1   H20 7193   6.717   2.006   8.998  1.9081  2.1308  0.7906
   64CHL1   C21 7194   6.763   2.180   8.875 -0.4401  0.0767 -0.0402
   64CHL1  H21A 7195   6.815   2.127   8.793  0.5997  0.0418  0.6182
   64CHL1  H21B 7196   6.850   2.202   8.940 -1.4570  1.9544  0.7620
   64CHL1  H21C 7197   6.710   2.272   8.842 -3.1532 -1.4791 -0.3014
   64CHL1   C22 7198   6.559   2.026   8.854 -0.3617  0.2274  0.8830
   64CHL1  H22A 7199   6.476   1.974   8.906 -0.6504  0.3749  0.5716
   64CHL1  H22B 7200   6.520   2.108   8.790  0.5802  1.3302  1.6727
   64CHL1   C23 7201   6.620   1.934   8.750  0.1657 -0.3645 -0.2341
   64CHL1  H23A 7202   6.686   2.002   8.691 -1.0617 -0.4492 -1.7540
   64CHL1  H23B 7203   6.674   1.850   8.800 -1.4641  0.8074  3.9164
   64CHL1   C24 7204   6.523   1.873   8.658  0.2086 -0.1596  1.3424
   64CHL1  H24A 7205   6.463   1.794   8.710 -0.3185 -1.2160 -0.7536
   64CHL1  H24B 7206   6.447   1.947   8.625  0.3948 -0.8825 -0.8089
   64CHL1   C25 7207   6.585   1.819   8.531  0.4632  0.8792 -0.2863
   64CHL1   H25 7208   6.503   1.778   8.468  0.9237  0.9393 -0.9336
   64CHL1   C26 7209   6.645   1.922   8.436 -0.1762 -0.4239 -0.1353
   64CHL1  H26A 7210   6.729   1.975   8.486 -2.1893  1.6412  1.2587
   64CHL1  H26B 7211   6.665   1.871   8.339  0.3573  0.5987 -0.5823
   64CHL1  H26C 7212   6.563   1.989   8.401 -0.0433 -1.4824 -2.6751
   64CHL1   C27 7213   6.686   1.698   8.549 -0.1469  0.3801  0.0217
   64CHL1  H27A 7214   6.745   1.677   8.457 -0.2113 -0.5784  0.1930
   64CHL1  H27B 7215   6.747   1.706   8.642  0.4472 -0.1580 -0.3131
   64CHL1  H27C 7216   6.616   1.613   8.559 -0.0872  0.2577 -0.5587
   65CHL1    C3 7217   3.025   5.925  10.021  0.1567 -1.0290  0.2852
   65CHL1    H3 7218   3.095   6.005   9.990 -0.4796 -0.7610 -0.4990
   65CHL1    O3 7219   2.983   5.965  10.152 -0.0580 -0.0296  0.0785
   65CHL1   H3' 7220   2.940   5.885  10.184 -0.4450  0.1278 -0.0523
   65CHL1    C4 7221   2.902   5.925   9.926  0.3666 -0.1713 -0.0935
   65CHL1   H4A 7222   2.817   5.861   9.959  0.1255  0.2995  0.2171
   65CHL1   H4B 7223   2.856   6.026   9.930  0.1531 -0.3041  2.5387
   65CHL1    C5 7224   2.934   5.893   9.785 -0.0890  0.2371 -0.0481
   65CHL1    C6 7225   2.914   5.980   9.682 -0.7407  0.1609 -0.0979
   65CHL1    H6 7226   2.885   6.082   9.714  1.0840  0.3592  1.0515
   65CHL1    C7 7227   2.954   5.958   9.541  0.4197  0.5188 -0.1192
   65CHL1   H7A 7228   2.878   6.005   9.475  0.6661  0.1663 -0.6602
   65CHL1   H7B 7229   3.046   6.014   9.514  1.4832 -1.5237 -0.9846
   65CHL1    C8 7230   2.969   5.813   9.514 -0.3054  0.0948 -0.5640
   65CHL1    H8 7231   2.870   5.762   9.514  0.3947 -1.5531  2.8518
   65CHL1   C14 7232   3.036   5.790   9.379  0.0171  0.6706  0.0549
   65CHL1   H14 7233   3.135   5.842   9.380 -0.3729  1.4360 -0.3613
   65CHL1   C15 7234   2.959   5.845   9.257  0.0406  0.6521 -0.2158
   65CHL1  H15A 7235   2.851   5.818   9.260  0.9268 -4.2063 -2.1851
   65CHL1  H15B 7236   2.967   5.954   9.242 -2.9896  0.9751 -0.0891
   65CHL1   C16 7237   3.027   5.768   9.136  0.6127 -0.0703  0.3991
   65CHL1  H16A 7238   2.951   5.733   9.063 -0.0219 -0.0162  1.0237
   65CHL1  H16B 7239   3.090   5.836   9.076 -1.1738  0.0352 -1.4667
   65CHL1   C17 7240   3.112   5.654   9.194 -0.2767 -0.4976 -0.2042
   65CHL1   H17 7241   3.218   5.686   9.181 -0.0603 -1.7353 -1.9749
   65CHL1   C13 7242   3.069   5.649   9.340 -0.1872 -0.2546  0.2908
   65CHL1   C18 7243   2.940   5.561   9.340 -0.4004  0.1330  0.2791
   65CHL1  H18A 7244   2.963   5.452   9.334 -1.3190  0.0170 -3.4435
   65CHL1  H18B 7245   2.882   5.575   9.433  0.9887 -1.7724  1.4944
   65CHL1  H18C 7246   2.882   5.589   9.249  0.9609  0.9725 -0.3665
   65CHL1   C12 7247   3.168   5.595   9.439  0.3104 -0.4975 -0.3429
   65CHL1  H12A 7248   3.197   5.489   9.419  2.4793  0.2348 -1.4411
   65CHL1  H12B 7249   3.260   5.657   9.438  0.4117 -0.6463 -1.6968
   65CHL1   C11 7250   3.106   5.601   9.585 -0.4323  0.0453  0.1973
   65CHL1  H11A 7251   3.024   5.526   9.596 -1.1845  0.6696 -0.9473
   65CHL1  H11B 7252   3.182   5.576   9.662 -0.4106 -1.5877 -0.3060
   65CHL1    C9 7253   3.058   5.749   9.623 -0.4442  0.0944  0.3308
   65CHL1    H9 7254   3.158   5.797   9.621 -0.5309  0.3673  1.4659
   65CHL1   C10 7255   2.999   5.760   9.770 -0.8454  0.5480 -0.4815
   65CHL1   C19 7256   2.907   5.639   9.815  0.4660 -0.5952  0.0374
   65CHL1  H19A 7257   2.861   5.655   9.915 -1.1050  0.1852 -0.7751
   65CHL1  H19B 7258   2.822   5.636   9.743  0.4348 -1.1365  0.0904
   65CHL1  H19C 7259   2.965   5.544   9.817  1.8939  0.2124 -1.1750
   65CHL1    C1 7260   3.121   5.763   9.863  0.2393  0.9810  0.8222
   65CHL1   H1A 7261   3.168   5.663   9.868 -0.8237  0.3030 -1.3902
   65CHL1   H1B 7262   3.203   5.823   9.817  1.0756 -1.7148 -1.5221
   65CHL1    C2 7263   3.095   5.791  10.013  0.1648  1.1857 -0.5655
   65CHL1   H2A 7264   3.194   5.786  10.065  0.0171 -1.4426 -0.3737
   65CHL1   H2B 7265   3.036   5.707  10.056 -2.9732  2.9551 -1.1701
   65CHL1   C20 7266   3.107   5.521   9.108  0.2254 -0.3859  0.6506
   65CHL1   H20 7267   3.003   5.483   9.110 -0.0051  0.1871 -0.0294
   65CHL1   C21 7268   3.201   5.412   9.163  0.2893 -0.4728 -0.5852
   65CHL1  H21A 7269   3.209   5.327   9.091 -1.3266 -2.3001  1.2736
   65CHL1  H21B 7270   3.160   5.365   9.255  2.7280 -1.0052  0.3137
   65CHL1  H21C 7271   3.305   5.447   9.180  0.5324 -0.9160 -1.1270
   65CHL1   C22 7272   3.137   5.552   8.962 -0.5055 -0.6495 -0.5097
   65CHL1  H22A 7273   3.061   5.623   8.924  0.2087  0.3822 -0.0576
   65CHL1  H22B 7274   3.236   5.603   8.959 -1.1753  0.6788 -0.4376
   65CHL1   C23 7275   3.118   5.428   8.869  0.8900  0.5629  0.1486
   65CHL1  H23A 7276   3.209   5.365   8.882  1.7184  1.1959 -2.1792
   65CHL1  H23B 7277   3.034   5.367   8.910  2.9330 -2.1737  0.5068
   65CHL1   C24 7278   3.088   5.465   8.714  0.1377 -0.4495 -0.7498
   65CHL1  H24A 7279   3.008   5.541   8.723 -0.6591 -1.2261 -1.0583
   65CHL1  H24B 7280   3.182   5.509   8.675  0.7727  0.3535  1.5865
   65CHL1   C25 7281   3.030   5.352   8.640  0.6515 -0.3547 -0.1124
   65CHL1   H25 7282   2.939   5.312   8.688 -0.6565  0.6662 -1.6450
   65CHL1   C26 7283   2.978   5.412   8.507  0.0725  0.2395 -0.3905
   65CHL1  H26A 7284   2.927   5.337   8.443 -1.1249  2.7409 -2.5249
   65CHL1  H26B 7285   2.898   5.489   8.514 -1.3142 -1.0783 -1.1481
   65CHL1  H26C 7286   3.063   5.455   8.449  0.0969  0.3025 -0.3086
   65CHL1   C27 7287   3.139   5.246   8.612 -0.5395  0.4608  0.1222
   65CHL1  H27A 7288   3.091   5.167   8.550 -0.0512 -0.5927  1.0601
   65CHL1  H27B 7289   3.224   5.287   8.553 -0.9913 -0.6761 -1.3981
   65CHL1  H27C 7290   3.182   5.215   8.709  0.2076  0.2224 -0.2731
   66CHL1    C3 7291   2.709   0.879  10.405  0.0357 -1.0299 -0.6413
   66CHL1    H3 7292   2.755   0.785  10.444  0.1655 -0.6437  0.1398
   66CHL1    O3 7293   2.700   0.967  10.515  0.1515 -0.6140 -0.6118
   66CHL1   H3' 7294   2.623   0.947  10.568 -0.7016 -2.5406 -2.4408
   66CHL1    C4 7295   2.813   0.933  10.302 -0.6685  0.2337 -0.0989
   66CHL1   H4A 7296   2.785   1.040  10.287 -0.7149  0.0867 -1.1440
   66CHL1   H4B 7297   2.917   0.951  10.335 -0.9601  3.1895 -0.5184
   66CHL1    C5 7298   2.820   0.865  10.167 -0.8477  0.4655 -0.0056
   66CHL1    C6 7299   2.936   0.824  10.105  0.9349 -0.1979  0.2768
   66CHL1    H6 7300   3.038   0.836  10.145  1.8890  0.4646 -2.1754
   66CHL1    C7 7301   2.936   0.771   9.964 -0.3402  0.0495 -0.3720
   66CHL1   H7A 7302   3.022   0.815   9.909  0.9386  0.3478  1.7346
   66CHL1   H7B 7303   2.956   0.664   9.984  0.2109 -0.3758 -2.8441
   66CHL1    C8 7304   2.813   0.783   9.880  0.2974  0.3775 -0.0446
   66CHL1    H8 7305   2.806   0.890   9.849 -1.6740  0.6691  1.2341
   66CHL1   C14 7306   2.819   0.708   9.753  0.2230  0.7432  0.7769
   66CHL1   H14 7307   2.800   0.604   9.786  1.5353  0.9069  2.1477
   66CHL1   C15 7308   2.939   0.712   9.657  0.4608  0.0539  0.1167
   66CHL1  H15A 7309   2.976   0.816   9.667  0.3843 -0.0404  1.6652
   66CHL1  H15B 7310   3.021   0.642   9.685  0.2403 -0.2753 -0.0507
   66CHL1   C16 7311   2.888   0.674   9.514  0.0330  0.3465 -0.0338
   66CHL1  H16A 7312   2.912   0.760   9.448 -0.3127  0.8085  0.4324
   66CHL1  H16B 7313   2.936   0.580   9.479  0.7707 -0.2827  2.4840
   66CHL1   C17 7314   2.733   0.651   9.537 -0.1766 -0.0004 -0.2522
   66CHL1   H17 7315   2.723   0.544   9.568 -0.3672 -0.1301 -0.7475
   66CHL1   C13 7316   2.702   0.728   9.660  0.2655 -0.3779  0.0718
   66CHL1   C18 7317   2.687   0.878   9.619  0.1232  0.3111 -0.1986
   66CHL1  H18A 7318   2.593   0.887   9.560  1.8434  0.5642 -3.0785
   66CHL1  H18B 7319   2.678   0.945   9.708  1.8495  0.8496 -0.3947
   66CHL1  H18C 7320   2.782   0.910   9.571  0.1836  0.2945 -0.0905
   66CHL1   C12 7321   2.575   0.694   9.737 -0.5793  0.3712  0.5412
   66CHL1  H12A 7322   2.480   0.711   9.682  0.8147 -1.2436 -2.6562
   66CHL1  H12B 7323   2.578   0.584   9.756  0.5945 -0.1284 -2.0587
   66CHL1   C11 7324   2.560   0.756   9.874 -0.0152  0.6123 -0.2121
   66CHL1  H11A 7325   2.529   0.861   9.854  0.8944  1.5545  2.7573
   66CHL1  H11B 7326   2.478   0.701   9.926 -0.6912  1.1578 -0.6945
   66CHL1    C9 7327   2.687   0.747   9.964  0.0695 -0.6072  0.3524
   66CHL1    H9 7328   2.700   0.643  10.003 -1.9608 -0.8078  0.6058
   66CHL1   C10 7329   2.681   0.829  10.101  0.5037  0.5940 -0.0925
   66CHL1   C19 7330   2.604   0.959  10.078 -0.3891 -0.3998 -0.0288
   66CHL1  H19A 7331   2.614   1.016  10.173 -0.3531 -1.6317  0.7360
   66CHL1  H19B 7332   2.651   1.018   9.997 -0.5095  0.4549  0.5081
   66CHL1  H19C 7333   2.497   0.946  10.054 -1.1737  1.7066  1.9790
   66CHL1    C1 7334   2.598   0.757  10.204 -0.7368 -0.3381  1.0591
   66CHL1   H1A 7335   2.500   0.736  10.157 -0.8056  1.7963  0.1294
   66CHL1   H1B 7336   2.639   0.654  10.215 -1.9139 -0.8931  0.4129
   66CHL1    C2 7337   2.576   0.833  10.345 -0.0756  0.2851  0.3658
   66CHL1   H2A 7338   2.515   0.782  10.424 -0.5380 -1.4426 -1.0263
   66CHL1   H2B 7339   2.524   0.930  10.327 -1.7752 -0.3219  1.6449
   66CHL1   C20 7340   2.639   0.664   9.412  0.3550 -0.9846 -0.7658
   66CHL1   H20 7341   2.604   0.769   9.399  1.2349  0.0216  3.5496
   66CHL1   C21 7342   2.513   0.571   9.425 -0.3680 -0.3383 -0.0676
   66CHL1  H21A 7343   2.465   0.584   9.524  0.9346  1.0183  0.4335
   66CHL1  H21B 7344   2.543   0.466   9.406 -0.8979  0.0485 -4.0514
   66CHL1  H21C 7345   2.445   0.591   9.339  0.8083 -0.0646 -0.9624
   66CHL1   C22 7346   2.720   0.629   9.285  0.3070  0.0514  0.4541
   66CHL1  H22A 7347   2.813   0.685   9.265 -0.0903  0.0844 -1.5716
   66CHL1  H22B 7348   2.744   0.521   9.283  1.9899  0.3653 -2.7068
   66CHL1   C23 7349   2.647   0.663   9.153  0.1493  0.0898  0.1975
   66CHL1  H23A 7350   2.536   0.669   9.158  0.1222  1.5921 -1.2725
   66CHL1  H23B 7351   2.669   0.768   9.126  2.6656 -0.9443 -2.3051
   66CHL1   C24 7352   2.671   0.557   9.043  0.2607 -0.5442  0.2910
   66CHL1  H24A 7353   2.771   0.511   9.056  0.4071 -0.0204  1.1323
   66CHL1  H24B 7354   2.591   0.481   9.057  0.1957 -0.7642 -1.1326
   66CHL1   C25 7355   2.639   0.609   8.901 -0.4175  0.7087  0.1368
   66CHL1   H25 7356   2.569   0.693   8.920 -0.4194  0.9498 -0.9074
   66CHL1   C26 7357   2.763   0.676   8.842  0.5417  0.3956  0.1217
   66CHL1  H26A 7358   2.782   0.764   8.907  0.3035 -2.0970  3.8420
   66CHL1  H26B 7359   2.853   0.614   8.822  0.5445  0.5843 -0.4910
   66CHL1  H26C 7360   2.741   0.707   8.737  1.5527 -4.6296 -1.8469
   66CHL1   C27 7361   2.581   0.498   8.818 -0.4077  0.2720  0.2939
   66CHL1  H27A 7362   2.653   0.413   8.813  1.8249  2.0970 -0.2524
   66CHL1  H27B 7363   2.495   0.453   8.873 -0.0605 -1.3102 -0.4091
   66CHL1  H27C 7364   2.553   0.532   8.716  0.9399 -1.3355 -0.6685
   67CHL1    C3 7365   6.079   3.995  10.150 -0.0842 -0.1034  0.4331
   67CHL1    H3 7366   5.974   3.961  10.150  0.0477 -0.9822 -3.5323
   67CHL1    O3 7367   6.120   3.988  10.282  0.0013 -0.1167  0.7662
   67CHL1   H3' 7368   6.078   4.062  10.325  0.5190  1.0433 -0.6457
   67CHL1    C4 7369   6.160   3.897  10.067  0.9272  0.6819  0.0023
   67CHL1   H4A 7370   6.271   3.899  10.077  1.1524  1.0463 -2.0836
   67CHL1   H4B 7371   6.132   3.795  10.101 -0.6838  0.7294 -1.0635
   67CHL1    C5 7372   6.137   3.896   9.919 -0.0771 -0.9831 -0.0183
   67CHL1    C6 7373   6.110   3.785   9.851 -0.5047 -0.7009  0.5016
   67CHL1    H6 7374   6.118   3.696   9.914 -0.6546  0.4433  2.2122
   67CHL1    C7 7375   6.099   3.773   9.700  1.1190  0.0289  0.3531
   67CHL1   H7A 7376   6.162   3.696   9.650 -1.1602 -0.6585 -1.6737
   67CHL1   H7B 7377   5.995   3.743   9.675  1.3437 -1.4239  1.0389
   67CHL1    C8 7378   6.137   3.915   9.634  0.9471 -0.1234 -0.2498
   67CHL1    H8 7379   6.247   3.922   9.644  1.0695 -1.7118 -0.2415
   67CHL1   C14 7380   6.094   3.923   9.492 -0.4778  0.2477 -0.8709
   67CHL1   H14 7381   5.984   3.908   9.488 -0.8664  2.4769  0.0344
   67CHL1   C15 7382   6.165   3.815   9.406  0.8417  0.4157 -0.4735
   67CHL1  H15A 7383   6.274   3.806   9.425  0.4885 -1.9834  0.7926
   67CHL1  H15B 7384   6.113   3.720   9.431 -1.9891  1.3459 -2.3500
   67CHL1   C16 7385   6.141   3.851   9.258  0.3433  0.1113 -0.7310
   67CHL1  H16A 7386   6.237   3.844   9.203  3.1427  1.1399  3.5279
   67CHL1  H16B 7387   6.067   3.785   9.208  0.6131  0.0639 -1.0725
   67CHL1   C17 7388   6.085   3.998   9.268  0.1060  0.1378 -0.6527
   67CHL1   H17 7389   5.974   3.996   9.281  0.3257  2.1310  2.6130
   67CHL1   C13 7390   6.126   4.052   9.412  0.1842  0.3193 -0.5503
   67CHL1   C18 7391   6.278   4.083   9.403  0.5673  0.1292  0.0202
   67CHL1  H18A 7392   6.310   4.113   9.505 -2.4742  1.3924  0.7283
   67CHL1  H18B 7393   6.343   4.000   9.368 -0.1460 -1.4646  2.2522
   67CHL1  H18C 7394   6.296   4.171   9.338 -3.6548  0.8000 -0.5537
   67CHL1   C12 7395   6.036   4.157   9.470 -0.4369  0.7904 -0.2511
   67CHL1  H12A 7396   6.062   4.259   9.435 -1.3633  2.5718  3.6315
   67CHL1  H12B 7397   5.929   4.131   9.456 -0.2675 -1.9165  2.4327
   67CHL1   C11 7398   6.079   4.167   9.630  0.1806 -0.6949  0.5915
   67CHL1  H11A 7399   6.177   4.220   9.626  0.7766 -1.8019  0.1206
   67CHL1  H11B 7400   6.004   4.237   9.673 -0.4336 -0.6191 -0.5769
   67CHL1    C9 7401   6.068   4.035   9.711 -0.4036 -0.6713  0.5911
   67CHL1    H9 7402   5.959   4.016   9.724 -0.3973 -1.0412  0.1390
   67CHL1   C10 7403   6.134   4.043   9.849  0.7136  0.8262  0.2644
   67CHL1   C19 7404   6.283   4.090   9.850  0.7126 -0.1844 -0.3663
   67CHL1  H19A 7405   6.298   4.191   9.807  0.7619 -0.6651 -1.4867
   67CHL1  H19B 7406   6.322   4.086   9.954  1.6012  1.0917 -0.6255
   67CHL1  H19C 7407   6.340   4.015   9.791 -3.0688 -2.3026 -1.7006
   67CHL1    C1 7408   6.052   4.141   9.940  0.3146 -0.0178 -0.5822
   67CHL1   H1A 7409   6.055   4.242   9.892 -1.1296  1.1206  1.5496
   67CHL1   H1B 7410   5.947   4.106   9.945  0.6703 -0.9269  1.6653
   67CHL1    C2 7411   6.087   4.130  10.096 -0.0591 -1.2688 -0.3950
   67CHL1   H2A 7412   6.026   4.208  10.146  0.9908 -0.1459 -0.8094
   67CHL1   H2B 7413   6.194   4.156  10.112 -0.7033  0.4395  1.4788
   67CHL1   C20 7414   6.108   4.077   9.136  0.1700  0.3284  0.1618
   67CHL1   H20 7415   6.214   4.109   9.139  0.5132 -0.7903  0.1589
   67CHL1   C21 7416   6.010   4.192   9.119 -0.2006 -0.6240  0.0741
   67CHL1  H21A 7417   6.011   4.256   9.210  3.7575 -1.1297  0.5606
   67CHL1  H21B 7418   5.918   4.135   9.095 -0.1702  0.0466 -1.7319
   67CHL1  H21C 7419   6.043   4.262   9.040  0.3724 -0.3759  0.5252
   67CHL1   C22 7420   6.089   3.993   9.004  0.1170 -0.0366  0.4273
   67CHL1  H22A 7421   6.163   3.910   9.006  1.6630  1.2958  0.3448
   67CHL1  H22B 7422   5.988   3.947   9.002  1.0081 -2.1031  0.1823
   67CHL1   C23 7423   6.110   4.066   8.871 -0.4827  0.4586 -0.2048
   67CHL1  H23A 7424   6.105   3.989   8.791  2.3764 -0.4654  0.3836
   67CHL1  H23B 7425   6.027   4.139   8.860 -1.0507  0.1104  1.5145
   67CHL1   C24 7426   6.251   4.132   8.857 -0.1797  0.0112 -0.0542
   67CHL1  H24A 7427   6.263   4.204   8.942 -0.8432 -0.4489  0.4362
   67CHL1  H24B 7428   6.330   4.053   8.861  0.7081  0.8969  0.6085
   67CHL1   C25 7429   6.263   4.214   8.725 -0.7937 -0.0291 -0.0956
   67CHL1   H25 7430   6.236   4.147   8.640  1.1151  0.8029 -1.4167
   67CHL1   C26 7431   6.178   4.344   8.722 -0.0581 -0.4182  0.1151
   67CHL1  H26A 7432   6.213   4.400   8.632  0.7677 -2.4108 -0.8881
   67CHL1  H26B 7433   6.069   4.324   8.715 -0.2538  0.5009  0.4629
   67CHL1  H26C 7434   6.196   4.402   8.815 -1.9562 -1.2094  1.0358
   67CHL1   C27 7435   6.414   4.262   8.703  0.2256 -0.3349 -0.3067
   67CHL1  H27A 7436   6.444   4.301   8.803 -1.0986 -0.2804  0.0949
   67CHL1  H27B 7437   6.474   4.171   8.683 -2.1215 -2.0626  0.1623
   67CHL1  H27C 7438   6.425   4.349   8.635  0.3521  0.3586  0.5792
   68CHL1    C3 7439   3.184   4.860  10.208  1.1121  0.1855 -1.0417
   68CHL1    H3 7440   3.126   4.954  10.215  1.4812  0.3054  1.0895
   68CHL1    O3 7441   3.240   4.835  10.332 -0.0757 -0.3946 -0.7070
   68CHL1   H3' 7442   3.330   4.812  10.307  0.4799  2.3375 -1.5426
   68CHL1    C4 7443   3.088   4.744  10.177 -0.9304 -0.3121 -0.1974
   68CHL1   H4A 7444   3.141   4.647  10.190  0.9945  0.5812 -1.0032
   68CHL1   H4B 7445   2.995   4.756  10.236 -1.1172  1.4374 -0.7799
   68CHL1    C5 7446   3.041   4.756  10.032  0.0284 -0.4136 -0.3780
   68CHL1    C6 7447   2.910   4.760  10.006 -0.0303  0.0758 -0.2962
   68CHL1    H6 7448   2.834   4.750  10.084  0.0717 -0.4005 -0.2571
   68CHL1    C7 7449   2.861   4.758   9.865  0.0950 -1.1019 -0.1635
   68CHL1   H7A 7450   2.778   4.685   9.853 -0.7441 -0.1359 -0.3362
   68CHL1   H7B 7451   2.821   4.858   9.838  1.7829  0.4603  2.6005
   68CHL1    C8 7452   2.968   4.725   9.759  0.1893  0.4775 -0.5086
   68CHL1    H8 7453   2.985   4.616   9.772 -1.5106  0.0949 -1.1231
   68CHL1   C14 7454   2.915   4.747   9.616  0.8161 -0.0888 -0.2169
   68CHL1   H14 7455   2.896   4.856   9.604 -1.3587 -0.4775 -0.6686
   68CHL1   C15 7456   2.785   4.676   9.580 -0.2909  0.8066  0.5578
   68CHL1  H15A 7457   2.777   4.577   9.629  1.9513  0.8924  1.2029
   68CHL1  H15B 7458   2.701   4.744   9.606 -0.3155  1.3325 -0.8276
   68CHL1   C16 7459   2.794   4.669   9.427  0.4760  0.0530  0.6074
   68CHL1  H16A 7460   2.784   4.564   9.392  2.5947  0.5950 -1.9871
   68CHL1  H16B 7461   2.715   4.724   9.371 -0.6323 -1.0098  1.0999
   68CHL1   C17 7462   2.937   4.723   9.377 -0.2714 -0.1136 -0.2967
   68CHL1   H17 7463   2.909   4.830   9.365 -1.5995 -0.5137 -1.0139
   68CHL1   C13 7464   3.021   4.704   9.504  0.5248  0.2461 -0.7135
   68CHL1   C18 7465   3.051   4.549   9.516 -0.4483  0.1822 -0.1604
   68CHL1  H18A 7466   2.962   4.485   9.498  0.9004 -2.0513  0.7444
   68CHL1  H18B 7467   3.133   4.525   9.446  1.0441  0.0800  1.5566
   68CHL1  H18C 7468   3.080   4.533   9.622  1.8625 -1.0093 -0.9047
   68CHL1   C12 7469   3.146   4.787   9.530 -0.2977  0.0752 -0.0029
   68CHL1  H12A 7470   3.218   4.760   9.450 -0.9185 -0.6345 -0.3235
   68CHL1  H12B 7471   3.126   4.896   9.515 -1.3023  0.1486  1.6734
   68CHL1   C11 7472   3.206   4.777   9.670 -0.0509  0.7850 -0.2588
   68CHL1  H11A 7473   3.246   4.673   9.674  1.9098  1.5196  2.4328
   68CHL1  H11B 7474   3.286   4.854   9.681  1.0519 -0.1987 -1.0344
   68CHL1    C9 7475   3.098   4.800   9.783 -1.2646  0.7795  0.7513
   68CHL1    H9 7476   3.077   4.909   9.778  3.5890  1.9275 -2.6567
   68CHL1   C10 7477   3.156   4.776   9.926 -0.2731 -0.4386  0.3349
   68CHL1   C19 7478   3.238   4.645   9.913  0.4246 -0.3675 -0.4426
   68CHL1  H19A 7479   3.265   4.605  10.013 -3.4467  0.0083  0.8953
   68CHL1  H19B 7480   3.178   4.566   9.863  0.7867 -1.6311  1.0186
   68CHL1  H19C 7481   3.332   4.661   9.856  0.1974  0.0183 -0.7155
   68CHL1    C1 7482   3.244   4.897   9.969 -0.4222  0.3872  0.1488
   68CHL1   H1A 7483   3.332   4.914   9.903 -0.3852 -1.4700 -0.3537
   68CHL1   H1B 7484   3.175   4.981   9.950  2.1591  2.5808 -0.1891
   68CHL1    C2 7485   3.297   4.879  10.108 -0.7681 -0.0146  0.3816
   68CHL1   H2A 7486   3.361   4.959  10.151  0.7794 -1.3409  0.6456
   68CHL1   H2B 7487   3.361   4.788  10.102  0.8282  1.1690 -2.0471
   68CHL1   C20 7488   2.980   4.667   9.241  0.0634  0.1977 -0.1242
   68CHL1   H20 7489   3.005   4.560   9.255  1.5404  0.4439 -0.6587
   68CHL1   C21 7490   3.109   4.732   9.182  0.4547  0.3501 -0.2844
   68CHL1  H21A 7491   3.142   4.685   9.086 -1.5341  0.8889 -1.3012
   68CHL1  H21B 7492   3.203   4.714   9.237  1.2546  2.5656 -0.8413
   68CHL1  H21C 7493   3.088   4.840   9.171 -1.9522 -0.0573 -0.4134
   68CHL1   C22 7494   2.870   4.677   9.138  0.0206 -0.2708 -0.3343
   68CHL1  H22A 7495   2.781   4.620   9.173 -0.5850  0.2394 -1.0346
   68CHL1  H22B 7496   2.851   4.785   9.121 -0.3956  0.1462  2.3312
   68CHL1   C23 7497   2.896   4.603   9.002  0.1961  0.1899 -0.4317
   68CHL1  H23A 7498   2.806   4.608   8.937  1.3465  0.4514 -2.0339
   68CHL1  H23B 7499   2.965   4.658   8.935 -0.8638 -0.3582 -2.0277
   68CHL1   C24 7500   2.950   4.461   9.029  0.0187  0.7317  0.0451
   68CHL1  H24A 7501   3.051   4.471   9.075 -0.0848 -1.1438  0.7602
   68CHL1  H24B 7502   2.876   4.416   9.099  0.2088 -0.0878 -0.2716
   68CHL1   C25 7503   2.962   4.371   8.902 -1.0516  0.4493 -0.0603
   68CHL1   H25 7504   2.859   4.336   8.882 -0.6646 -0.5897 -0.2503
   68CHL1   C26 7505   3.013   4.454   8.779 -0.4100  0.4038 -0.5314
   68CHL1  H26A 7506   3.114   4.498   8.792  0.2741 -1.2953  0.2745
   68CHL1  H26B 7507   3.034   4.383   8.696 -0.1412 -0.0427 -0.0873
   68CHL1  H26C 7508   2.942   4.532   8.745 -1.9013 -1.7471 -2.7080
   68CHL1   C27 7509   3.053   4.247   8.922  0.6580 -1.1166 -0.7511
   68CHL1  H27A 7510   3.026   4.189   9.013  0.9162 -1.0168 -0.6089
   68CHL1  H27B 7511   3.028   4.184   8.834 -0.8634  0.6243 -1.6541
   68CHL1  H27C 7512   3.158   4.281   8.914 -0.4380  2.6220 -1.3558
   69CHL1    C3 7513   4.138   6.692   6.678 -0.4568  0.0107  0.1917
   69CHL1    H3 7514   4.244   6.724   6.672 -0.0328 -1.0457  1.5447
   69CHL1    O3 7515   4.092   6.715   6.545 -0.0402 -0.3639 -0.1643
   69CHL1   H3' 7516   4.168   6.704   6.488  0.1019  0.2205 -0.0901
   69CHL1    C4 7517   4.119   6.541   6.713  0.3562  0.1068  0.3611
   69CHL1   H4A 7518   4.017   6.509   6.685  1.1270 -1.2434 -1.0909
   69CHL1   H4B 7519   4.192   6.490   6.647 -1.6976 -1.0141 -1.1522
   69CHL1    C5 7520   4.154   6.521   6.860 -0.4299 -0.1418 -0.4269
   69CHL1    C6 7521   4.245   6.431   6.906 -0.3495  0.1062  0.6579
   69CHL1    H6 7522   4.290   6.369   6.826 -0.4713  1.2709 -0.3415
   69CHL1    C7 7523   4.274   6.400   7.053 -0.1284  0.3183 -0.1014
   69CHL1   H7A 7524   4.277   6.291   7.074  1.7951  0.5645  1.1354
   69CHL1   H7B 7525   4.375   6.442   7.071  0.3730 -0.7037 -0.4661
   69CHL1    C8 7526   4.176   6.473   7.154  0.3184 -0.2206 -0.4670
   69CHL1    H8 7527   4.086   6.409   7.173 -0.3886  1.0480  0.6127
   69CHL1   C14 7528   4.244   6.486   7.290  0.3517 -0.2062 -0.0007
   69CHL1   H14 7529   4.336   6.549   7.284  0.4610 -0.1936  1.4775
   69CHL1   C15 7530   4.296   6.356   7.351  0.0714 -0.3054  0.1465
   69CHL1  H15A 7531   4.221   6.279   7.323 -0.4538 -0.8632  2.7880
   69CHL1  H15B 7532   4.396   6.322   7.316  0.5180  0.5877  0.5320
   69CHL1   C16 7533   4.299   6.371   7.499  0.2260 -1.0556  0.3558
   69CHL1  H16A 7534   4.220   6.303   7.540 -0.6139 -0.9209 -0.9853
   69CHL1  H16B 7535   4.399   6.356   7.544  1.2175  0.9879 -1.0529
   69CHL1   C17 7536   4.247   6.520   7.528 -0.5018  0.3480  0.5035
   69CHL1   H17 7537   4.335   6.588   7.526  0.9169 -1.4161  0.2312
   69CHL1   C13 7538   4.159   6.557   7.401  0.2055 -0.7625 -0.1755
   69CHL1   C18 7539   4.027   6.489   7.430 -0.1296 -0.3131 -0.4345
   69CHL1  H18A 7540   3.976   6.530   7.521  3.1912  1.5871  0.7808
   69CHL1  H18B 7541   3.950   6.505   7.352 -0.4361  1.6118  0.1957
   69CHL1  H18C 7542   4.037   6.379   7.443 -1.3714 -0.7798 -2.8782
   69CHL1   C12 7543   4.131   6.700   7.353 -0.4604 -0.4631 -0.6825
   69CHL1  H12A 7544   4.067   6.751   7.429 -1.4629 -1.9404 -0.4864
   69CHL1  H12B 7545   4.237   6.732   7.346 -1.0342  1.3527 -1.5747
   69CHL1   C11 7546   4.061   6.694   7.214 -0.0170 -1.6084  0.4578
   69CHL1  H11A 7547   3.951   6.680   7.220 -0.7967  2.0265 -1.7030
   69CHL1  H11B 7548   4.067   6.802   7.186 -1.0074 -0.9558  2.5614
   69CHL1    C9 7549   4.137   6.613   7.106 -0.0402 -0.4783  0.4277
   69CHL1    H9 7550   4.239   6.653   7.093 -0.5327  0.3311 -1.2945
   69CHL1   C10 7551   4.081   6.611   6.960  0.8766 -0.2360  0.4424
   69CHL1   C19 7552   3.937   6.552   6.979 -0.1277 -0.2447  0.4919
   69CHL1  H19A 7553   3.931   6.448   7.020 -0.0199 -1.1325 -1.6348
   69CHL1  H19B 7554   3.870   6.615   7.042 -2.3899 -0.2715 -1.7255
   69CHL1  H19C 7555   3.886   6.529   6.883  1.2350 -0.9408 -0.0912
   69CHL1    C1 7556   4.076   6.758   6.917 -0.3200 -0.0850  0.2246
   69CHL1   H1A 7557   4.008   6.822   6.978  1.9537  1.1978  1.5427
   69CHL1   H1B 7558   4.174   6.808   6.933 -0.4879  0.1754  0.4476
   69CHL1    C2 7559   4.047   6.772   6.768 -0.2503 -0.2308  0.2240
   69CHL1   H2A 7560   4.051   6.880   6.745 -0.1204 -0.5833 -1.5232
   69CHL1   H2B 7561   3.944   6.738   6.742  0.0556 -0.2653 -0.9719
   69CHL1   C20 7562   4.196   6.536   7.674  0.2319 -0.2339  0.2765
   69CHL1   H20 7563   4.097   6.487   7.685  0.2878 -0.6605 -0.9653
   69CHL1   C21 7564   4.167   6.687   7.704 -0.5510  0.0883 -0.2416
   69CHL1  H21A 7565   4.093   6.724   7.630 -0.8492 -1.0649 -0.5529
   69CHL1  H21B 7566   4.259   6.743   7.678  1.6153 -2.5906  1.1807
   69CHL1  H21C 7567   4.129   6.708   7.806 -0.4322  1.2138 -0.4199
   69CHL1   C22 7568   4.293   6.492   7.784  0.8703  0.0866 -0.5956
   69CHL1  H22A 7569   4.327   6.389   7.759 -2.0879 -0.8660 -1.0594
   69CHL1  H22B 7570   4.377   6.564   7.790 -0.2128  1.2861  1.0743
   69CHL1   C23 7571   4.230   6.469   7.925  0.1487  0.7098  0.6625
   69CHL1  H23A 7572   4.150   6.539   7.958 -0.3144  0.4106  0.1848
   69CHL1  H23B 7573   4.176   6.372   7.922  1.5192 -0.1006  1.2302
   69CHL1   C24 7574   4.346   6.458   8.026  0.4268  0.3037  0.4862
   69CHL1  H24A 7575   4.413   6.547   8.029  1.3955 -0.4163  0.7436
   69CHL1  H24B 7576   4.289   6.461   8.121  0.9858 -1.6505  0.9359
   69CHL1   C25 7577   4.434   6.331   8.022 -0.0728  0.4618 -0.2587
   69CHL1   H25 7578   4.504   6.342   7.936 -0.1059 -0.5659 -0.4331
   69CHL1   C26 7579   4.522   6.328   8.143 -0.0858 -0.0394 -0.4607
   69CHL1  H26A 7580   4.482   6.354   8.243 -0.0792  0.3701 -0.5624
   69CHL1  H26B 7581   4.586   6.238   8.161  1.5257  1.3570  1.1488
   69CHL1  H26C 7582   4.586   6.418   8.129  1.3863 -1.0551 -0.5252
   69CHL1   C27 7583   4.352   6.202   8.015 -0.4131 -0.2349 -0.5020
   69CHL1  H27A 7584   4.423   6.122   8.045 -1.4087 -1.0113 -0.1665
   69CHL1  H27B 7585   4.292   6.209   8.108 -1.0878 -1.4128 -0.8230
   69CHL1  H27C 7586   4.284   6.178   7.931 -1.8832 -0.9105  0.8183
   70CHL1    C3 7587   2.683   5.089   6.899  0.3851 -0.4762 -0.5417
   70CHL1    H3 7588   2.669   4.992   6.951 -1.7107 -0.4417 -0.9640
   70CHL1    O3 7589   2.648   5.077   6.760  0.1229  0.2420 -0.1388
   70CHL1   H3' 7590   2.731   5.083   6.712 -1.3772  0.0617 -2.9073
   70CHL1    C4 7591   2.590   5.197   6.958 -0.0088  0.5483  0.3349
   70CHL1   H4A 7592   2.602   5.290   6.898  0.2266  0.3619  0.0955
   70CHL1   H4B 7593   2.484   5.177   6.932  0.0202 -2.0565  1.9113
   70CHL1    C5 7594   2.618   5.229   7.100  0.3178  0.5214 -0.5176
   70CHL1    C6 7595   2.516   5.212   7.196  0.2938 -1.0726 -0.0008
   70CHL1    H6 7596   2.412   5.187   7.173  0.4428 -0.0459 -2.0325
   70CHL1    C7 7597   2.548   5.242   7.341  0.1850 -0.6459  0.0651
   70CHL1   H7A 7598   2.476   5.314   7.385  1.2299  2.0441 -2.3019
   70CHL1   H7B 7599   2.543   5.142   7.391  2.5051 -0.0408  1.7122
   70CHL1    C8 7600   2.686   5.306   7.376 -0.3521 -0.6799 -0.1035
   70CHL1    H8 7601   2.674   5.414   7.352 -0.4803 -1.2115 -2.7776
   70CHL1   C14 7602   2.728   5.283   7.521  0.1126 -0.1866 -0.2262
   70CHL1   H14 7603   2.746   5.174   7.532 -2.4817 -0.4720  2.8855
   70CHL1   C15 7604   2.616   5.311   7.631  0.0681  0.2059 -0.3695
   70CHL1  H15A 7605   2.572   5.413   7.624  1.0768  0.6793 -0.0559
   70CHL1  H15B 7606   2.537   5.233   7.639 -0.0237  0.0060 -2.5541
   70CHL1   C16 7607   2.701   5.326   7.758  0.4544 -0.5826  0.4308
   70CHL1  H16A 7608   2.684   5.426   7.802 -0.7342 -0.4731 -0.2384
   70CHL1  H16B 7609   2.681   5.249   7.836  0.5660  0.0813  1.1206
   70CHL1   C17 7610   2.853   5.313   7.715  0.5156 -0.6086  0.0011
   70CHL1   H17 7611   2.877   5.205   7.717 -1.2353 -1.0965 -2.1273
   70CHL1   C13 7612   2.858   5.346   7.565  0.1906  0.4707  0.1314
   70CHL1   C18 7613   2.846   5.502   7.555  0.7645 -0.0344 -1.2267
   70CHL1  H18A 7614   2.949   5.538   7.578  0.0056  1.9223 -0.7236
   70CHL1  H18B 7615   2.818   5.529   7.451 -1.9305 -1.4735 -0.9665
   70CHL1  H18C 7616   2.780   5.540   7.635  0.3290 -0.2774 -1.4671
   70CHL1   C12 7617   2.972   5.290   7.472  0.4079 -0.0792 -0.7057
   70CHL1  H12A 7618   3.057   5.353   7.505  0.7232 -0.7675 -0.1791
   70CHL1  H12B 7619   2.983   5.184   7.503  2.1126  0.4381  0.5880
   70CHL1   C11 7620   2.943   5.297   7.326 -0.4482 -0.4696  0.2579
   70CHL1  H11A 7621   2.950   5.405   7.304  1.2866 -0.6751 -0.3682
   70CHL1  H11B 7622   3.019   5.245   7.264  1.1664  0.1188  1.6715
   70CHL1    C9 7623   2.799   5.248   7.291  0.0819  0.2003 -0.3171
   70CHL1    H9 7624   2.788   5.140   7.315  0.2299  0.7934  2.8488
   70CHL1   C10 7625   2.769   5.258   7.140 -0.3797  0.1598 -0.1778
   70CHL1   C19 7626   2.793   5.406   7.088 -0.0914 -0.3643  0.2401
   70CHL1  H19A 7627   2.763   5.406   6.981  0.9912 -2.0956 -0.0912
   70CHL1  H19B 7628   2.752   5.490   7.148  0.6971  0.5201 -0.4215
   70CHL1  H19C 7629   2.903   5.418   7.083 -0.1180 -0.7226 -2.1093
   70CHL1    C1 7630   2.869   5.159   7.063 -0.0165 -0.3890  0.1921
   70CHL1   H1A 7631   2.972   5.202   7.065 -0.6372  1.1724  0.0336
   70CHL1   H1B 7632   2.880   5.058   7.107  1.4864 -0.9588 -1.3512
   70CHL1    C2 7633   2.831   5.128   6.918 -0.1875 -1.0547  0.3572
   70CHL1   H2A 7634   2.897   5.048   6.878 -0.5794  0.2738 -3.3501
   70CHL1   H2B 7635   2.845   5.222   6.860  0.9684 -1.4017  0.0482
   70CHL1   C20 7636   2.945   5.388   7.810  0.0437  0.1182 -0.1894
   70CHL1   H20 7637   2.914   5.495   7.818 -3.1322 -0.7348  0.4838
   70CHL1   C21 7638   3.086   5.382   7.761 -0.1380 -0.1494 -0.5550
   70CHL1  H21A 7639   3.105   5.462   7.686 -0.5076  0.2030 -0.2804
   70CHL1  H21B 7640   3.104   5.280   7.720  0.8386 -1.0934  1.9911
   70CHL1  H21C 7641   3.154   5.389   7.849  0.7864 -0.1273 -1.2600
   70CHL1   C22 7642   2.937   5.330   7.953  0.4320  0.1411  1.1194
   70CHL1  H22A 7643   2.846   5.268   7.967  0.5975 -0.7713 -1.2930
   70CHL1  H22B 7644   3.013   5.249   7.960 -0.7999 -1.2377 -0.6799
   70CHL1   C23 7645   2.947   5.421   8.072 -0.1278 -0.4097 -0.3635
   70CHL1  H23A 7646   2.929   5.358   8.162 -0.2099 -1.3472 -1.0184
   70CHL1  H23B 7647   3.053   5.453   8.077 -0.2309 -0.1093 -0.1011
   70CHL1   C24 7648   2.836   5.523   8.086 -1.1482 -0.0397 -0.0741
   70CHL1  H24A 7649   2.822   5.569   7.986 -3.5953 -1.4960 -0.4692
   70CHL1  H24B 7650   2.750   5.460   8.115 -2.2089  1.7775  0.9553
   70CHL1   C25 7651   2.847   5.619   8.205  0.3888  0.1013  0.2721
   70CHL1   H25 7652   2.885   5.567   8.296 -2.8945  0.4620  1.9983
   70CHL1   C26 7653   2.927   5.740   8.178 -0.2264 -0.3851 -0.0236
   70CHL1  H26A 7654   2.930   5.793   8.275 -0.8478  0.3020 -0.3753
   70CHL1  H26B 7655   3.030   5.716   8.145 -0.3184  0.2261 -0.7745
   70CHL1  H26C 7656   2.880   5.805   8.101 -0.1934  0.2976  0.5301
   70CHL1   C27 7657   2.705   5.655   8.243  0.7994 -0.0846  0.0038
   70CHL1  H27A 7658   2.638   5.570   8.266 -0.2921 -0.0676 -2.7253
   70CHL1  H27B 7659   2.707   5.712   8.339 -0.6357 -0.0116  0.0238
   70CHL1  H27C 7660   2.649   5.724   8.176  0.7717  0.9167  1.0336
   71CHL1    C3 7661   4.634   4.702   6.713  0.4665 -0.5154 -0.1630
   71CHL1    H3 7662   4.726   4.761   6.730  0.8013 -0.7032 -1.2069
   71CHL1    O3 7663   4.605   4.682   6.576 -0.1182  0.2508  0.3994
   71CHL1   H3' 7664   4.509   4.682   6.573 -0.1767 -2.1617  0.1579
   71CHL1    C4 7665   4.651   4.568   6.789 -0.2873 -0.6226  0.1413
   71CHL1   H4A 7666   4.559   4.508   6.773 -0.7028 -0.2276  1.0011
   71CHL1   H4B 7667   4.743   4.517   6.754 -0.4219 -1.4322  0.9279
   71CHL1    C5 7668   4.656   4.594   6.935  0.9499  0.4782 -0.2304
   71CHL1    C6 7669   4.772   4.571   6.997  0.3242 -0.0504 -0.9123
   71CHL1    H6 7670   4.862   4.537   6.945  0.5700 -0.8406  0.0115
   71CHL1    C7 7671   4.786   4.579   7.146  0.1220  0.4032  0.0947
   71CHL1   H7A 7672   4.824   4.480   7.176  0.5409  0.4990 -0.1162
   71CHL1   H7B 7673   4.852   4.661   7.181  0.2747 -0.3067  1.5131
   71CHL1    C8 7674   4.649   4.588   7.220 -0.7701  0.3907  0.3025
   71CHL1    H8 7675   4.593   4.492   7.226  1.8813 -1.4241 -1.5622
   71CHL1   C14 7676   4.683   4.624   7.363 -0.1663 -0.0880  0.0079
   71CHL1   H14 7677   4.738   4.720   7.351 -2.1904  0.8583 -2.9905
   71CHL1   C15 7678   4.764   4.519   7.441 -0.1840 -0.1462 -0.5817
   71CHL1  H15A 7679   4.718   4.419   7.423 -0.2816 -0.1813 -0.1413
   71CHL1  H15B 7680   4.871   4.513   7.412  0.0962 -0.2554  0.4575
   71CHL1   C16 7681   4.754   4.583   7.580  0.1927  0.5632 -0.0826
   71CHL1  H16A 7682   4.749   4.501   7.655 -0.6351 -1.0459 -1.8050
   71CHL1  H16B 7683   4.846   4.638   7.610 -1.6307  3.5082  0.5433
   71CHL1   C17 7684   4.646   4.694   7.580  0.1955 -0.0598 -0.2153
   71CHL1   H17 7685   4.703   4.790   7.572  0.7382 -0.4267 -0.9015
   71CHL1   C13 7686   4.567   4.676   7.447 -0.4204  0.9521  0.2272
   71CHL1   C18 7687   4.467   4.562   7.477 -0.7031 -0.1289  0.0357
   71CHL1  H18A 7688   4.431   4.512   7.384 -0.4154  2.1469 -1.4019
   71CHL1  H18B 7689   4.523   4.493   7.544 -1.7389  0.1096  1.1790
   71CHL1  H18C 7690   4.384   4.612   7.531 -2.8450  0.3590 -3.4090
   71CHL1   C12 7691   4.508   4.791   7.371  0.3028 -0.4227 -0.3752
   71CHL1  H12A 7692   4.422   4.822   7.434  0.4029 -0.9209  0.0121
   71CHL1  H12B 7693   4.579   4.876   7.365 -2.1982  1.9963  1.4742
   71CHL1   C11 7694   4.454   4.742   7.235 -0.2194 -0.1764  0.4722
   71CHL1  H11A 7695   4.372   4.668   7.237  0.3561 -0.8020  1.3047
   71CHL1  H11B 7696   4.406   4.827   7.181  0.4834 -1.0289 -1.6209
   71CHL1    C9 7697   4.571   4.693   7.151 -0.2774  0.0940  0.2146
   71CHL1    H9 7698   4.638   4.781   7.138 -0.7628  0.5613  0.8234
   71CHL1   C10 7699   4.538   4.660   7.001  0.4575  0.1829 -0.3020
   71CHL1   C19 7700   4.412   4.571   7.006 -0.1051  0.8550  0.2038
   71CHL1  H19A 7701   4.435   4.480   7.066 -2.5620  0.2544  0.3349
   71CHL1  H19B 7702   4.325   4.627   7.046 -1.5531 -1.4001  0.4345
   71CHL1  H19C 7703   4.388   4.532   6.905 -0.6097  1.0189  0.2585
   71CHL1    C1 7704   4.518   4.791   6.928  0.5517 -0.2710 -0.4703
   71CHL1   H1A 7705   4.430   4.846   6.967  0.6187 -1.0151  0.7970
   71CHL1   H1B 7706   4.610   4.850   6.949  0.9119 -1.9906  3.8516
   71CHL1    C2 7707   4.513   4.773   6.773 -0.3026 -0.4456 -0.9394
   71CHL1   H2A 7708   4.507   4.875   6.729  1.5413  1.3311  2.5251
   71CHL1   H2B 7709   4.426   4.707   6.753  0.8686 -3.3833  2.5790
   71CHL1   C20 7710   4.582   4.713   7.725  0.5634  0.0137  0.3015
   71CHL1   H20 7711   4.529   4.621   7.758  2.3843 -0.0760  3.3770
   71CHL1   C21 7712   4.484   4.837   7.724  0.9002  0.4074  0.5563
   71CHL1  H21A 7713   4.399   4.818   7.654  1.2510 -0.2978  0.3083
   71CHL1  H21B 7714   4.540   4.930   7.699  3.9552 -1.6404 -0.8461
   71CHL1  H21C 7715   4.431   4.846   7.821 -0.1309 -2.3087  0.3453
   71CHL1   C22 7716   4.691   4.742   7.833 -0.8301 -0.4660  0.5136
   71CHL1  H22A 7717   4.750   4.651   7.855  0.8767  0.8285  1.5345
   71CHL1  H22B 7718   4.751   4.831   7.803  2.0804 -2.1484  0.9636
   71CHL1   C23 7719   4.636   4.788   7.969 -0.4233  0.1917 -0.4089
   71CHL1  H23A 7720   4.588   4.888   7.958 -2.3925 -0.5555  0.7542
   71CHL1  H23B 7721   4.562   4.706   7.983 -0.6469  0.4117 -0.3059
   71CHL1   C24 7722   4.742   4.784   8.080 -0.8371  0.4085  0.3061
   71CHL1  H24A 7723   4.798   4.691   8.100  1.3166  1.4731 -0.4489
   71CHL1  H24B 7724   4.819   4.857   8.046 -0.8019  0.1538 -0.1618
   71CHL1   C25 7725   4.695   4.852   8.207  0.0475  0.1739  1.1611
   71CHL1   H25 7726   4.635   4.944   8.187  0.1735  0.0776  0.2978
   71CHL1   C26 7727   4.594   4.765   8.290 -0.1454 -0.2710  0.2795
   71CHL1  H26A 7728   4.513   4.719   8.229  0.3075 -0.4224 -0.2174
   71CHL1  H26B 7729   4.653   4.689   8.346 -0.9080 -0.9016  0.2471
   71CHL1  H26C 7730   4.553   4.840   8.360  2.0164 -0.7790  2.1986
   71CHL1   C27 7731   4.810   4.897   8.295  0.2487  0.3194  0.0372
   71CHL1  H27A 7732   4.865   4.981   8.248 -1.0763  0.5370 -1.1950
   71CHL1  H27B 7733   4.760   4.938   8.385 -1.5877 -1.9247  0.1469
   71CHL1  H27C 7734   4.872   4.808   8.320 -0.1632 -0.1809 -0.6689
   72CHL1    C3 7735   3.763   4.403   7.131  0.0148 -0.5008  0.0302
   72CHL1    H3 7736   3.867   4.441   7.136 -0.1156  0.4877 -2.9248
   72CHL1    O3 7737   3.759   4.348   7.000 -0.4469 -1.0751 -0.3684
   72CHL1   H3' 7738   3.665   4.326   6.997 -1.1057  1.4284 -0.0579
   72CHL1    C4 7739   3.736   4.287   7.226  0.4275  0.8788 -0.2477
   72CHL1   H4A 7740   3.653   4.223   7.189 -0.0244  1.0128  0.5209
   72CHL1   H4B 7741   3.822   4.218   7.210  0.2295  0.6753 -0.4367
   72CHL1    C5 7742   3.726   4.331   7.374  0.4156  0.4204  0.0089
   72CHL1    C6 7743   3.811   4.283   7.469 -0.4446 -0.3824  0.2850
   72CHL1    H6 7744   3.879   4.204   7.435 -0.9014 -0.2762 -0.9210
   72CHL1    C7 7745   3.799   4.324   7.613  0.0369  0.2333  0.4899
   72CHL1   H7A 7746   3.836   4.238   7.672 -2.6955 -0.4232  1.3910
   72CHL1   H7B 7747   3.857   4.417   7.632  0.1608  0.1400  0.5725
   72CHL1    C8 7748   3.654   4.373   7.645 -0.2059 -0.1811  0.1978
   72CHL1    H8 7749   3.585   4.287   7.636  1.2096 -1.3823  0.4996
   72CHL1   C14 7750   3.652   4.430   7.788 -0.0817  0.4954  0.1277
   72CHL1   H14 7751   3.735   4.504   7.795 -0.2679  0.6308  1.0456
   72CHL1   C15 7752   3.675   4.335   7.907  0.5680 -0.1542  0.0906
   72CHL1  H15A 7753   3.602   4.252   7.913 -1.5271  1.4553 -1.4189
   72CHL1  H15B 7754   3.777   4.292   7.911  0.0428 -1.7540 -2.0778
   72CHL1   C16 7755   3.642   4.426   8.027 -0.1932 -0.2421 -0.0991
   72CHL1  H16A 7756   3.563   4.372   8.085 -0.1769  0.0440  0.1958
   72CHL1  H16B 7757   3.718   4.444   8.107  0.7419 -0.5316 -0.9138
   72CHL1   C17 7758   3.569   4.553   7.976 -0.4709  0.6121  0.2403
   72CHL1   H17 7759   3.642   4.636   7.968  0.9672 -0.3023  2.6775
   72CHL1   C13 7760   3.527   4.515   7.831 -0.0880  0.0276  0.7895
   72CHL1   C18 7761   3.403   4.423   7.824  0.2174  0.3286 -0.2764
   72CHL1  H18A 7762   3.395   4.369   7.728 -0.9989 -1.1133  0.5886
   72CHL1  H18B 7763   3.404   4.343   7.901 -0.6166  0.3751 -0.2098
   72CHL1  H18C 7764   3.319   4.493   7.846  0.4605  0.2076  1.1397
   72CHL1   C12 7765   3.526   4.631   7.729  0.3949 -0.5496  0.5258
   72CHL1  H12A 7766   3.440   4.699   7.744 -0.1414 -0.0740 -3.6268
   72CHL1  H12B 7767   3.612   4.698   7.746 -1.2096  1.6181  0.4993
   72CHL1   C11 7768   3.516   4.584   7.584 -0.0004  0.1052  0.3778
   72CHL1  H11A 7769   3.411   4.552   7.570 -0.4668  2.2188 -1.4378
   72CHL1  H11B 7770   3.523   4.674   7.520 -0.7353  0.6934  1.1136
   72CHL1    C9 7771   3.625   4.482   7.540  0.4202 -0.2030  0.1440
   72CHL1    H9 7772   3.715   4.547   7.531  0.3976 -0.3038 -0.9205
   72CHL1   C10 7773   3.611   4.424   7.400  0.1637  0.2574  0.3152
   72CHL1   C19 7774   3.478   4.347   7.392  0.3594  0.1729  0.8904
   72CHL1  H19A 7775   3.458   4.289   7.299 -1.4559  0.9391  0.7681
   72CHL1  H19B 7776   3.479   4.270   7.472  2.0393 -1.3212 -0.4689
   72CHL1  H19C 7777   3.397   4.423   7.391  0.4335  0.3179  2.9513
   72CHL1    C1 7778   3.628   4.540   7.300  0.5687  0.4857  0.1427
   72CHL1   H1A 7779   3.535   4.600   7.302  0.1620 -0.1281  0.1143
   72CHL1   H1B 7780   3.709   4.609   7.331 -0.7382  2.4604 -0.6498
   72CHL1    C2 7781   3.652   4.509   7.154 -1.2100 -0.0510 -0.7623
   72CHL1   H2A 7782   3.677   4.601   7.095 -1.3014  0.9920  0.7662
   72CHL1   H2B 7783   3.555   4.475   7.114  0.0741 -1.3187 -3.0128
   72CHL1   C20 7784   3.458   4.596   8.078 -0.9216 -0.0658  0.5776
   72CHL1   H20 7785   3.386   4.512   8.085 -2.2346  0.8931 -0.5845
   72CHL1   C21 7786   3.388   4.722   8.023 -0.2177 -0.5641  0.4280
   72CHL1  H21A 7787   3.323   4.712   7.934 -0.3858 -1.3109  0.6206
   72CHL1  H21B 7788   3.460   4.805   8.009  1.8343 -1.3417  4.5869
   72CHL1  H21C 7789   3.338   4.779   8.104  0.7063 -0.5947  1.0354
   72CHL1   C22 7790   3.519   4.626   8.217 -0.2774 -1.0012 -0.0607
   72CHL1  H22A 7791   3.426   4.659   8.267  0.3941  0.9640 -0.0133
   72CHL1  H22B 7792   3.559   4.529   8.254  0.9246 -1.3405 -2.1121
   72CHL1   C23 7793   3.622   4.742   8.235 -0.0791 -0.5715  0.6545
   72CHL1  H23A 7794   3.692   4.745   8.149 -0.5894 -0.8897  0.2201
   72CHL1  H23B 7795   3.558   4.833   8.236 -0.0622 -0.4755 -1.3756
   72CHL1   C24 7796   3.701   4.733   8.369  0.2824  0.2157  0.2898
   72CHL1  H24A 7797   3.637   4.715   8.458 -0.5973  2.1978  0.0966
   72CHL1  H24B 7798   3.787   4.663   8.363  0.2438 -0.0246  1.9094
   72CHL1   C25 7799   3.768   4.866   8.413  0.5937 -0.7656  0.1908
   72CHL1   H25 7800   3.705   4.954   8.387  0.6811 -0.5392  0.7320
   72CHL1   C26 7801   3.802   4.862   8.568 -0.2559 -0.2053  0.4742
   72CHL1  H26A 7802   3.825   4.968   8.593 -1.0932  0.4140 -1.2149
   72CHL1  H26B 7803   3.713   4.817   8.617 -1.2570  0.8801 -0.2551
   72CHL1  H26C 7804   3.893   4.804   8.593  1.9446  1.8286 -2.0954
   72CHL1   C27 7805   3.899   4.887   8.333  0.0988  0.3023 -0.1015
   72CHL1  H27A 7806   3.961   4.971   8.370  0.8095 -1.0908  2.1074
   72CHL1  H27B 7807   3.954   4.792   8.350 -0.6437  0.0764  1.1871
   72CHL1  H27C 7808   3.878   4.896   8.224  0.1994  1.8783 -0.0077
   73CHL1    C3 7809   0.218   6.177   6.940 -0.4504  0.4186  0.2130
   73CHL1    H3 7810   0.113   6.200   6.911  0.3753  1.9837 -1.7458
   73CHL1    O3 7811   0.288   6.141   6.823 -0.4197  0.9963  0.0679
   73CHL1   H3' 7812   0.379   6.166   6.838  0.0403 -1.2696  1.6090
   73CHL1    C4 7813   0.294   6.295   6.992  0.2914  0.0701  1.2436
   73CHL1   H4A 7814   0.405   6.288   6.996  0.3123 -0.0259  0.4901
   73CHL1   H4B 7815   0.267   6.369   6.914  0.6191  0.9508  1.9352
   73CHL1    C5 7816   0.251   6.344   7.128 -0.1397 -0.8794  0.4667
   73CHL1    C6 7817   0.205   6.463   7.159 -0.0598 -0.0988 -0.0163
   73CHL1    H6 7818   0.211   6.536   7.076  1.5876 -1.1293 -0.8681
   73CHL1    C7 7819   0.151   6.508   7.293 -0.4487  0.2354 -0.2600
   73CHL1   H7A 7820   0.190   6.610   7.311 -4.0946  1.6746  0.2863
   73CHL1   H7B 7821   0.041   6.521   7.293 -0.4219  0.8473 -2.2217
   73CHL1    C8 7822   0.190   6.402   7.406  0.6719  0.2620 -0.6103
   73CHL1    H8 7823   0.297   6.408   7.436  0.6003 -0.7131 -0.1358
   73CHL1   C14 7824   0.103   6.427   7.533  0.8693  0.3839 -0.7652
   73CHL1   H14 7825  -0.002   6.410   7.501  0.0400  0.9771  1.4365
   73CHL1   C15 7826   0.112   6.565   7.586 -0.2052 -0.6212  0.1691
   73CHL1  H15A 7827   0.221   6.582   7.579 -0.1920  0.2322  1.8969
   73CHL1  H15B 7828   0.062   6.644   7.525  0.4124  0.3973  0.9508
   73CHL1   C16 7829   0.052   6.558   7.728  0.2511  0.4126 -0.5116
   73CHL1  H16A 7830   0.127   6.604   7.796  0.4135 -2.0104  1.0601
   73CHL1  H16B 7831  -0.050   6.604   7.727  0.4981  1.0202 -2.3185
   73CHL1   C17 7832   0.033   6.403   7.749  0.1192  0.3610  0.4062
   73CHL1   H17 7833  -0.074   6.380   7.730  0.0063  0.6720  0.6719
   73CHL1   C13 7834   0.130   6.336   7.650  0.1238  0.1582 -0.3440
   73CHL1   C18 7835   0.275   6.341   7.702 -0.3911  0.4025  0.5141
   73CHL1  H18A 7836   0.306   6.444   7.732 -1.6346  1.4525 -1.5293
   73CHL1  H18B 7837   0.280   6.276   7.791 -1.4142  0.8213  0.8907
   73CHL1  H18C 7838   0.345   6.302   7.625 -1.2411 -1.5416  0.6682
   73CHL1   C12 7839   0.092   6.196   7.602 -0.0142 -0.8437 -0.4802
   73CHL1  H12A 7840   0.117   6.119   7.678  1.0040 -0.6225 -0.5829
   73CHL1  H12B 7841  -0.018   6.185   7.588 -0.2321 -0.5900  0.9652
   73CHL1   C11 7842   0.160   6.155   7.473  0.1052 -0.2863 -0.6592
   73CHL1  H11A 7843   0.265   6.138   7.504 -0.6078 -2.1174  0.9695
   73CHL1  H11B 7844   0.123   6.060   7.429 -0.5093 -0.4826  0.2470
   73CHL1    C9 7845   0.157   6.265   7.358  0.0981  0.2821 -0.3403
   73CHL1    H9 7846   0.048   6.278   7.340 -0.5638 -1.4224  1.8623
   73CHL1   C10 7847   0.233   6.224   7.226 -0.1476 -0.4652 -1.0514
   73CHL1   C19 7848   0.377   6.194   7.260  0.8176 -0.4970  0.4584
   73CHL1  H19A 7849   0.386   6.112   7.335  1.4412 -0.6877  0.1840
   73CHL1  H19B 7850   0.436   6.166   7.170 -0.8906  1.8178 -1.5322
   73CHL1  H19C 7851   0.426   6.284   7.303 -0.1618  1.7371 -2.7480
   73CHL1    C1 7852   0.171   6.093   7.163 -0.0662 -0.0990 -0.3299
   73CHL1   H1A 7853   0.178   6.002   7.226  1.5273 -1.1411 -1.9028
   73CHL1   H1B 7854   0.062   6.102   7.144 -0.3612  0.5900  1.4293
   73CHL1    C2 7855   0.233   6.058   7.030  0.4531  0.2725 -0.0847
   73CHL1   H2A 7856   0.196   5.964   6.983  0.4177  0.4901 -0.4929
   73CHL1   H2B 7857   0.341   6.038   7.045  0.8109  2.8203  1.3761
   73CHL1   C20 7858   0.050   6.368   7.903  0.7316  0.7680 -0.0318
   73CHL1   H20 7859   0.154   6.377   7.941  0.4340 -1.2644  1.4221
   73CHL1   C21 7860   0.008   6.223   7.920 -0.6776  0.0624  0.9741
   73CHL1  H21A 7861   0.080   6.157   7.868 -2.1689  0.5051 -1.8645
   73CHL1  H21B 7862  -0.096   6.191   7.895 -0.6280 -0.5740  1.5554
   73CHL1  H21C 7863   0.026   6.198   8.027  3.6727  0.9415  0.6224
   73CHL1   C22 7864  -0.030   6.472   7.997  0.2136  0.1496 -0.0651
   73CHL1  H22A 7865  -0.026   6.578   7.964  1.4704  0.3789  0.7651
   73CHL1  H22B 7866  -0.137   6.442   7.987 -0.1191  1.7196 -1.8034
   73CHL1   C23 7867   0.020   6.461   8.147 -0.0377  0.4231  0.1867
   73CHL1  H23A 7868  -0.036   6.529   8.214  1.4340  1.3104  0.5498
   73CHL1  H23B 7869   0.005   6.360   8.192 -0.0407 -0.2103 -1.1659
   73CHL1   C24 7870   0.163   6.510   8.173  0.3055 -0.0606  0.3663
   73CHL1  H24A 7871   0.227   6.432   8.126 -1.3931 -0.9248 -0.6157
   73CHL1  H24B 7872   0.177   6.607   8.121 -0.9291  1.4866  2.7674
   73CHL1   C25 7873   0.217   6.523   8.320 -0.0643  0.5607 -0.3622
   73CHL1   H25 7874   0.322   6.559   8.316  0.4380 -0.8607 -0.2185
   73CHL1   C26 7875   0.143   6.632   8.404 -0.7710  0.1966  0.1824
   73CHL1  H26A 7876   0.204   6.640   8.497  1.7721  2.9866 -1.5198
   73CHL1  H26B 7877   0.149   6.729   8.350 -1.1536  0.4831  0.6489
   73CHL1  H26C 7878   0.037   6.601   8.414 -0.1586 -2.4610 -0.8003
   73CHL1   C27 7879   0.230   6.391   8.395  0.8722  0.0015 -0.6168
   73CHL1  H27A 7880   0.131   6.345   8.417  1.0817  0.3692  1.2402
   73CHL1  H27B 7881   0.296   6.313   8.351 -0.0813 -1.5162  0.5613
   73CHL1  H27C 7882   0.290   6.415   8.486 -0.2032 -0.6902  0.2950
   74CHL1    C3 7883   6.674   4.454   6.833 -0.2293 -0.4744 -0.3321
   74CHL1    H3 7884   6.766   4.409   6.876 -0.0520  0.7716  0.6695
   74CHL1    O3 7885   6.671   4.414   6.704 -0.0243 -0.2700 -0.0610
   74CHL1   H3' 7886   6.759   4.432   6.668  1.6562 -4.8615  1.0493
   74CHL1    C4 7887   6.548   4.409   6.899  0.4375 -0.7001  0.9077
   74CHL1   H4A 7888   6.472   4.457   6.834 -0.5349  0.6336  2.9210
   74CHL1   H4B 7889   6.532   4.300   6.891 -0.7396 -0.6411  2.0641
   74CHL1    C5 7890   6.550   4.463   7.044  0.4476 -0.1038  0.0965
   74CHL1    C6 7891   6.535   4.385   7.149 -0.2371  0.2761 -0.1081
   74CHL1    H6 7892   6.504   4.281   7.128  0.3025  0.6825 -3.5744
   74CHL1    C7 7893   6.551   4.428   7.291  0.5517 -0.0798 -0.0682
   74CHL1   H7A 7894   6.475   4.373   7.351 -1.2265  0.6427 -1.5634
   74CHL1   H7B 7895   6.647   4.380   7.320  1.4902  0.8940 -1.4638
   74CHL1    C8 7896   6.547   4.579   7.314  1.3807 -0.3207 -0.7692
   74CHL1    H8 7897   6.443   4.617   7.302  1.1010  0.2421  2.5607
   74CHL1   C14 7898   6.602   4.617   7.454  0.6400  0.5028  0.0258
   74CHL1   H14 7899   6.711   4.592   7.451  0.6648  0.1231  2.3594
   74CHL1   C15 7900   6.548   4.544   7.584  0.5727 -0.0939 -0.5109
   74CHL1  H15A 7901   6.438   4.537   7.568  0.7976 -1.6635 -1.6909
   74CHL1  H15B 7902   6.597   4.446   7.603  0.5763  0.1933  1.0374
   74CHL1   C16 7903   6.580   4.647   7.696  0.3801  0.2472 -0.0143
   74CHL1  H16A 7904   6.494   4.671   7.762 -0.9309  0.8395 -1.8522
   74CHL1  H16B 7905   6.661   4.614   7.764 -1.8608 -2.2591  1.6270
   74CHL1   C17 7906   6.639   4.779   7.629  0.3505 -0.0160  0.2980
   74CHL1   H17 7907   6.750   4.771   7.627  0.5841  2.5725 -0.1033
   74CHL1   C13 7908   6.604   4.768   7.479 -0.2223  0.2466  0.2098
   74CHL1   C18 7909   6.460   4.821   7.457 -0.8880 -1.1830  0.6855
   74CHL1  H18A 7910   6.376   4.784   7.519 -2.8107 -1.7217 -2.0639
   74CHL1  H18B 7911   6.465   4.932   7.465 -0.4840 -1.0702 -0.8270
   74CHL1  H18C 7912   6.416   4.808   7.356 -0.9267  1.8515  0.2174
   74CHL1   C12 7913   6.696   4.832   7.378 -0.3586 -0.6327  0.2938
   74CHL1  H12A 7914   6.701   4.942   7.392  0.5045 -0.9468  3.2665
   74CHL1  H12B 7915   6.799   4.793   7.394 -0.0967 -0.7388 -1.5074
   74CHL1   C11 7916   6.652   4.801   7.233 -0.4485 -0.3296  0.6146
   74CHL1  H11A 7917   6.558   4.852   7.202  1.1311  0.8720 -2.5908
   74CHL1  H11B 7918   6.727   4.844   7.163 -0.7077 -1.4396 -0.3623
   74CHL1    C9 7919   6.640   4.643   7.210  0.4350 -0.7927 -0.4152
   74CHL1    H9 7920   6.740   4.598   7.226  0.0439 -1.1229  1.2791
   74CHL1   C10 7921   6.596   4.613   7.066 -0.2736  0.2359 -0.7080
   74CHL1   C19 7922   6.468   4.705   7.032 -0.2092  0.0526 -0.5103
   74CHL1  H19A 7923   6.406   4.657   6.953 -0.8074 -2.0687  1.1742
   74CHL1  H19B 7924   6.393   4.706   7.114  0.2583  0.3870 -0.0851
   74CHL1  H19C 7925   6.501   4.805   6.997  0.7392  0.3670  1.2318
   74CHL1    C1 7926   6.706   4.661   6.976  0.2719  0.0807 -0.3925
   74CHL1   H1A 7927   6.717   4.771   6.969  0.4239  0.2911  2.1685
   74CHL1   H1B 7928   6.802   4.622   7.015  0.6329  1.6793  0.3816
   74CHL1    C2 7929   6.693   4.604   6.838  0.0629 -1.0368  0.5155
   74CHL1   H2A 7930   6.783   4.631   6.778 -2.1267 -0.1322 -2.5616
   74CHL1   H2B 7931   6.610   4.657   6.787  1.4714  2.0897  1.2120
   74CHL1   C20 7932   6.610   4.909   7.702  0.0179  0.1213  1.3084
   74CHL1   H20 7933   6.499   4.911   7.700 -0.0345 -1.6062  0.0888
   74CHL1   C21 7934   6.682   5.027   7.630  0.3519  0.8253  0.3908
   74CHL1  H21A 7935   6.789   5.007   7.606  0.7699  3.9230 -0.7563
   74CHL1  H21B 7936   6.681   5.113   7.700 -3.4310  2.2414 -1.1639
   74CHL1  H21C 7937   6.630   5.072   7.543 -0.5926 -0.2366  0.3789
   74CHL1   C22 7938   6.640   4.909   7.857  0.7124  0.3488 -1.3760
   74CHL1  H22A 7939   6.593   4.992   7.914  0.8564 -1.0118  0.8692
   74CHL1  H22B 7940   6.610   4.814   7.906  1.0153 -0.6585 -3.0579
   74CHL1   C23 7941   6.789   4.929   7.892 -0.3241  0.2283 -0.0947
   74CHL1  H23A 7942   6.846   4.848   7.842 -0.1256  0.0179  0.4663
   74CHL1  H23B 7943   6.823   5.021   7.841 -1.8954 -0.0904 -1.8420
   74CHL1   C24 7944   6.816   4.932   8.041  0.1899 -0.0970 -0.0812
   74CHL1  H24A 7945   6.749   4.993   8.105  0.8612 -0.0769  0.6237
   74CHL1  H24B 7946   6.813   4.826   8.074  1.0665 -0.8969 -2.3504
   74CHL1   C25 7947   6.962   4.978   8.084 -0.2369 -0.0980  0.3475
   74CHL1   H25 7948   7.035   4.943   8.007  0.7858  3.2453 -0.3520
   74CHL1   C26 7949   6.979   5.128   8.053 -0.3773  0.1975 -0.2153
   74CHL1  H26A 7950   6.881   5.180   8.058  0.1702  1.1518  1.4675
   74CHL1  H26B 7951   7.063   5.173   8.111 -0.5730 -1.0317  1.0786
   74CHL1  H26C 7952   7.016   5.139   7.949  0.1021  0.6250 -0.0069
   74CHL1   C27 7953   7.000   4.930   8.229  0.4290 -0.2547 -0.6961
   74CHL1  H27A 7954   7.110   4.934   8.245  0.2400 -0.0270  0.6253
   74CHL1  H27B 7955   6.959   4.996   8.308  0.6198  0.4850 -1.2038
   74CHL1  H27C 7956   6.966   4.824   8.237 -0.3450  0.0927  0.8526
   75CHL1    C3 7957   5.167   6.794   6.803 -0.0534 -0.4263  0.8665
   75CHL1    H3 7958   5.232   6.705   6.815 -0.4071 -0.9897 -1.0890
   75CHL1    O3 7959   5.141   6.814   6.662  0.0231 -0.8612  0.0143
   75CHL1   H3' 7960   5.230   6.803   6.627 -0.2313  0.0955 -0.9963
   75CHL1    C4 7961   5.036   6.770   6.883  0.0606 -0.3164 -0.0133
   75CHL1   H4A 7962   4.962   6.845   6.849  0.3838 -0.3236 -0.7351
   75CHL1   H4B 7963   5.007   6.664   6.864  1.0029 -0.4722 -0.6324
   75CHL1    C5 7964   5.052   6.787   7.036  0.3276 -1.3257  0.5704
   75CHL1    C6 7965   5.014   6.689   7.121  0.4986 -0.1175  0.2482
   75CHL1    H6 7966   4.959   6.601   7.085  2.1633 -0.9313 -0.4296
   75CHL1    C7 7967   5.022   6.701   7.270  0.4873  0.2882  0.0596
   75CHL1   H7A 7968   4.920   6.690   7.313  1.4084 -0.4967  2.1391
   75CHL1   H7B 7969   5.087   6.617   7.302 -0.5404  0.4798  2.9334
   75CHL1    C8 7970   5.062   6.837   7.318 -0.5126  0.1873  0.3596
   75CHL1    H8 7971   4.972   6.903   7.315  0.8461  2.3253  2.7184
   75CHL1   C14 7972   5.115   6.821   7.460  0.7864  0.3770  0.3173
   75CHL1   H14 7973   5.199   6.749   7.453 -0.6650 -1.2857 -0.8791
   75CHL1   C15 7974   5.007   6.765   7.560 -0.2735  0.0582  0.5269
   75CHL1  H15A 7975   4.911   6.810   7.526 -1.1189 -1.0518  1.3801
   75CHL1  H15B 7976   4.989   6.657   7.541 -1.0094  0.5736 -2.1450
   75CHL1   C16 7977   5.046   6.817   7.698 -0.0710 -0.8593  0.6975
   75CHL1  H16A 7978   4.952   6.855   7.744  1.5672  1.7608  2.1312
   75CHL1  H16B 7979   5.085   6.730   7.756  1.5409 -0.4355  0.2976
   75CHL1   C17 7980   5.173   6.909   7.671 -0.0808  0.5913 -0.4269
   75CHL1   H17 7981   5.261   6.846   7.693 -1.0185 -0.3185  0.8722
   75CHL1   C13 7982   5.161   6.949   7.521 -0.3587 -0.3845  0.2579
   75CHL1   C18 7983   5.051   7.060   7.501 -0.3432  0.1247 -0.0277
   75CHL1  H18A 7984   5.028   7.081   7.394  0.0152 -1.5157 -0.4521
   75CHL1  H18B 7985   4.962   7.034   7.562  0.8668 -0.8696  1.3951
   75CHL1  H18C 7986   5.081   7.154   7.552  0.3162 -0.5932  0.9467
   75CHL1   C12 7987   5.288   6.991   7.444  0.2100 -0.8260  0.7013
   75CHL1  H12A 7988   5.333   7.086   7.481 -0.4891 -0.4914  0.7123
   75CHL1  H12B 7989   5.373   6.920   7.452  2.3660  1.4360 -0.4957
   75CHL1   C11 7990   5.255   7.013   7.289 -0.0745 -0.3205 -1.1942
   75CHL1  H11A 7991   5.207   7.114   7.288  1.6285  0.5352 -0.8699
   75CHL1  H11B 7992   5.347   7.031   7.229  0.2242 -1.4544 -1.0889
   75CHL1    C9 7993   5.173   6.887   7.231 -0.4707 -0.0763 -0.2992
   75CHL1    H9 7994   5.246   6.803   7.232 -0.1718  0.1071  2.8971
   75CHL1   C10 7995   5.126   6.909   7.083  0.0053 -1.0024  0.0647
   75CHL1   C19 7996   5.042   7.044   7.083  0.0891 -0.7916  0.3767
   75CHL1  H19A 7997   5.105   7.135   7.079 -2.3724  1.0065  0.1123
   75CHL1  H19B 7998   5.000   7.039   6.980 -0.4633  1.7465  0.4308
   75CHL1  H19C 7999   4.952   7.061   7.145 -1.3359 -1.4641 -1.4185
   75CHL1    C1 8000   5.260   6.931   7.002 -0.2323  0.1763 -0.5308
   75CHL1   H1A 8001   5.313   7.026   7.026 -0.8822  1.1192 -2.6015
   75CHL1   H1B 8002   5.332   6.850   7.025  0.0341  0.2728 -1.0168
   75CHL1    C2 8003   5.245   6.919   6.854 -0.0728  0.1108  0.4034
   75CHL1   H2A 8004   5.340   6.931   6.796 -0.9074  1.6418 -0.7289
   75CHL1   H2B 8005   5.190   7.013   6.831  0.5342  0.2363 -0.6158
   75CHL1   C20 8006   5.182   7.020   7.778  0.0811 -0.2707  0.0960
   75CHL1   H20 8007   5.095   7.088   7.768  1.3795  1.6651  1.2960
   75CHL1   C21 8008   5.302   7.110   7.747 -0.2452 -0.3579 -0.0058
   75CHL1  H21A 8009   5.326   7.179   7.831 -0.7275 -0.8263  0.5303
   75CHL1  H21B 8010   5.272   7.172   7.660 -0.0517 -2.6840 -1.8243
   75CHL1  H21C 8011   5.396   7.054   7.730  0.2222 -0.0330  1.3501
   75CHL1   C22 8012   5.182   6.983   7.925  0.3652 -0.3263  0.3641
   75CHL1  H22A 8013   5.212   7.072   7.984  0.0291  0.9387 -1.3201
   75CHL1  H22B 8014   5.078   6.953   7.952 -0.7131  1.1551 -1.8262
   75CHL1   C23 8015   5.284   6.874   7.970 -0.0655 -0.7483  0.2134
   75CHL1  H23A 8016   5.240   6.776   7.940 -0.3660  0.0592 -2.2195
   75CHL1  H23B 8017   5.378   6.896   7.914 -1.4253 -0.3236 -2.0482
   75CHL1   C24 8018   5.309   6.882   8.122  0.7083  0.8782  0.3747
   75CHL1  H24A 8019   5.401   6.822   8.140 -1.6805 -3.5548 -0.6135
   75CHL1  H24B 8020   5.341   6.987   8.138 -1.4330  1.7125 -0.4553
   75CHL1   C25 8021   5.194   6.845   8.215  0.6323 -0.0989  0.3221
   75CHL1   H25 8022   5.109   6.910   8.188  0.8131  0.0784  0.1830
   75CHL1   C26 8023   5.150   6.702   8.186  0.5177  0.3066  0.1638
   75CHL1  H26A 8024   5.127   6.671   8.082 -0.7977  0.1014  0.4988
   75CHL1  H26B 8025   5.235   6.635   8.210 -0.9500 -1.7290 -0.0475
   75CHL1  H26C 8026   5.060   6.675   8.246 -0.4342 -0.0229 -1.3576
   75CHL1   C27 8027   5.221   6.858   8.361  0.5881  0.0873 -0.1141
   75CHL1  H27A 8028   5.220   6.962   8.402  0.4176 -0.5628  1.6467
   75CHL1  H27B 8029   5.140   6.803   8.415  1.1991  0.1360  0.8823
   75CHL1  H27C 8030   5.313   6.799   8.379  0.1960 -1.7700 -3.4354
   76CHL1    C3 8031   1.159   6.500   7.045 -0.6173 -0.0019  0.7082
   76CHL1    H3 8032   1.192   6.396   7.021  0.5124  0.7565 -1.3236
   76CHL1    O3 8033   1.146   6.550   6.916 -0.2540 -0.1899 -0.0942
   76CHL1   H3' 8034   1.215   6.617   6.913  0.8014 -0.8817  3.6919
   76CHL1    C4 8035   1.016   6.505   7.115 -0.0095 -0.5807  0.7666
   76CHL1   H4A 8036   0.986   6.611   7.103 -1.1443 -0.8212  1.3517
   76CHL1   H4B 8037   0.935   6.450   7.064 -1.3905  3.1206 -1.3853
   76CHL1    C5 8038   1.032   6.467   7.259 -0.0874 -0.1938  0.1785
   76CHL1    C6 8039   0.947   6.377   7.312 -0.1812  0.5824 -0.0048
   76CHL1    H6 8040   0.867   6.337   7.248 -0.4412 -2.8041  2.1595
   76CHL1    C7 8041   0.944   6.338   7.460  0.1652 -0.0486  0.3461
   76CHL1   H7A 8042   0.845   6.320   7.507 -0.8043  1.5223 -0.9949
   76CHL1   H7B 8043   0.986   6.235   7.467  0.4257 -0.1001 -1.5122
   76CHL1    C8 8044   1.024   6.435   7.548  0.0380 -0.0347 -0.1013
   76CHL1    H8 8045   0.974   6.533   7.563  0.4868 -0.0883  2.2611
   76CHL1   C14 8046   1.043   6.368   7.686  0.1989  0.1038  0.2122
   76CHL1   H14 8047   1.106   6.279   7.666 -2.1352 -1.6036 -0.0177
   76CHL1   C15 8048   0.922   6.322   7.776 -0.9273 -0.0719 -0.0410
   76CHL1  H15A 8049   0.850   6.406   7.778  0.1358  0.8720  0.1773
   76CHL1  H15B 8050   0.869   6.235   7.732  1.8844 -0.7930 -2.3435
   76CHL1   C16 8051   0.980   6.304   7.914  0.1760 -0.4710 -0.4020
   76CHL1  H16A 8052   0.919   6.363   7.985  0.6159  0.6225 -0.9127
   76CHL1  H16B 8053   0.997   6.198   7.941  2.8085  0.1193  0.6371
   76CHL1   C17 8054   1.129   6.366   7.914 -0.4111 -0.2749  0.0435
   76CHL1   H17 8055   1.207   6.288   7.900  0.5477  0.5094  0.8913
   76CHL1   C13 8056   1.135   6.445   7.783 -0.0899 -0.1820  0.4721
   76CHL1   C18 8057   1.083   6.592   7.808 -0.2067  0.3091 -0.5655
   76CHL1  H18A 8058   1.164   6.651   7.857 -2.6542  2.6431  0.9427
   76CHL1  H18B 8059   1.067   6.643   7.711 -0.2431  2.2229  0.3894
   76CHL1  H18C 8060   0.994   6.600   7.874  0.9326  1.7578  0.8740
   76CHL1   C12 8061   1.275   6.460   7.710  0.1315  0.9677  0.1269
   76CHL1  H12A 8062   1.348   6.511   7.777 -0.6126  1.9756  0.1904
   76CHL1  H12B 8063   1.316   6.358   7.692  1.7637  1.5064  0.5921
   76CHL1   C11 8064   1.273   6.526   7.573 -0.4039 -0.0708  0.5092
   76CHL1  H11A 8065   1.249   6.632   7.596  0.3907 -0.0912  1.4937
   76CHL1  H11B 8066   1.371   6.504   7.525 -1.3900 -0.4862 -1.4242
   76CHL1    C9 8067   1.164   6.466   7.486  0.1182  0.3080  0.3526
   76CHL1    H9 8068   1.202   6.364   7.464  1.0397  0.5453  0.8226
   76CHL1   C10 8069   1.151   6.530   7.342 -0.3895  0.1095  0.2576
   76CHL1   C19 8070   1.099   6.684   7.363  0.0683 -0.1089  0.5083
   76CHL1  H19A 8071   1.090   6.731   7.264 -2.2967 -0.8622  0.2959
   76CHL1  H19B 8072   0.997   6.680   7.407 -1.0419 -0.3783 -1.9239
   76CHL1  H19C 8073   1.177   6.739   7.419  0.5629 -0.4136  0.1297
   76CHL1    C1 8074   1.280   6.522   7.265 -0.3272 -0.0159  0.3385
   76CHL1   H1A 8075   1.345   6.596   7.317 -0.3473  1.3891 -1.5229
   76CHL1   H1B 8076   1.313   6.418   7.282 -0.0901 -0.1704 -0.9423
   76CHL1    C2 8077   1.284   6.559   7.117 -0.5139 -0.0216  0.5727
   76CHL1   H2A 8078   1.379   6.534   7.065 -1.7017  0.6049 -2.0171
   76CHL1   H2B 8079   1.271   6.669   7.113 -3.9553 -0.3665 -0.3383
   76CHL1   C20 8080   1.176   6.424   8.042  0.8056 -1.0509 -0.3779
   76CHL1   H20 8081   1.122   6.520   8.055  1.3082 -0.9360  1.0032
   76CHL1   C21 8082   1.323   6.454   8.055  0.0042 -0.1965  0.2465
   76CHL1  H21A 8083   1.355   6.437   8.160 -3.4410 -2.4690  1.1193
   76CHL1  H21B 8084   1.345   6.559   8.028 -3.7731  0.5569 -0.5682
   76CHL1  H21C 8085   1.385   6.386   7.992 -0.0046 -1.3750  1.4579
   76CHL1   C22 8086   1.134   6.342   8.166  0.2531 -1.4624  1.5469
   76CHL1  H22A 8087   1.152   6.395   8.262 -2.0162 -0.1451  1.3205
   76CHL1  H22B 8088   1.025   6.321   8.165  0.2717 -1.5854  0.0274
   76CHL1   C23 8089   1.201   6.202   8.178  0.1480 -0.3325 -0.4286
   76CHL1  H23A 8090   1.167   6.151   8.085 -1.9563  0.4526 -0.1490
   76CHL1  H23B 8091   1.311   6.214   8.181  0.1603  0.6739 -3.0000
   76CHL1   C24 8092   1.137   6.123   8.298 -0.6630  0.5159  0.4943
   76CHL1  H24A 8093   1.032   6.092   8.279 -0.1539 -0.6254 -0.5716
   76CHL1  H24B 8094   1.201   6.033   8.304 -0.8875  0.0972 -2.1966
   76CHL1   C25 8095   1.163   6.187   8.436  0.8260  0.4372 -0.5219
   76CHL1   H25 8096   1.096   6.276   8.435  0.0414 -0.1501 -1.4800
   76CHL1   C26 8097   1.120   6.090   8.553  0.0943  0.0917  0.2098
   76CHL1  H26A 8098   1.015   6.060   8.530  0.4972  0.0311 -1.7058
   76CHL1  H26B 8099   1.183   5.998   8.549 -1.7191 -1.1841 -1.8748
   76CHL1  H26C 8100   1.119   6.137   8.653  1.8669  3.6439 -1.2985
   76CHL1   C27 8101   1.308   6.244   8.454  0.3482 -0.0997  0.6078
   76CHL1  H27A 8102   1.379   6.163   8.429 -0.5810  0.2455 -3.9003
   76CHL1  H27B 8103   1.335   6.330   8.390 -0.5892 -1.4227 -1.6751
   76CHL1  H27C 8104   1.328   6.282   8.557  3.1077  0.0971  0.0737
   77CHL1    C3 8105   3.086   5.775   6.899 -0.2718 -0.1970 -0.5883
   77CHL1    H3 8106   3.165   5.851   6.883 -2.1813  1.5120 -2.3776
   77CHL1    O3 8107   3.049   5.707   6.782 -0.3718  0.3229 -0.4216
   77CHL1   H3' 8108   3.009   5.773   6.725  0.3346  0.9204 -0.2484
   77CHL1    C4 8109   3.141   5.688   7.007 -0.7761 -0.1535  0.3101
   77CHL1   H4A 8110   3.076   5.597   7.003 -2.3960  0.9504  0.2855
   77CHL1   H4B 8111   3.234   5.641   6.969  0.3162  0.8703  1.6645
   77CHL1    C5 8112   3.174   5.747   7.143 -0.1575 -0.5534 -0.0291
   77CHL1    C6 8113   3.301   5.742   7.191  0.0114 -0.0807 -0.2012
   77CHL1    H6 8114   3.381   5.697   7.130 -0.1975 -1.3557  0.4135
   77CHL1    C7 8115   3.340   5.784   7.330 -0.1435  0.1568  0.4513
   77CHL1   H7A 8116   3.398   5.700   7.374  0.8319  0.5482 -0.0691
   77CHL1   H7B 8117   3.408   5.870   7.313  0.3202  0.0932  1.8146
   77CHL1    C8 8118   3.215   5.831   7.414  0.0222  0.4916  0.6176
   77CHL1    H8 8119   3.174   5.735   7.453  1.7170 -0.7043 -0.4213
   77CHL1   C14 8120   3.253   5.919   7.526 -0.4762 -0.0905 -0.3275
   77CHL1   H14 8121   3.285   6.013   7.478  0.0573 -0.9782 -1.7568
   77CHL1   C15 8122   3.377   5.876   7.611 -0.0733  0.2483 -0.2361
   77CHL1  H15A 8123   3.373   5.767   7.630 -1.7807  0.5319  1.2579
   77CHL1  H15B 8124   3.469   5.903   7.553  0.4494 -0.7844  0.0956
   77CHL1   C16 8125   3.371   5.961   7.742  0.9720 -0.7198 -0.6638
   77CHL1  H16A 8126   3.396   5.891   7.826  3.2030  1.9250  1.0575
   77CHL1  H16B 8127   3.444   6.045   7.745  0.3808 -0.2215  1.0606
   77CHL1   C17 8128   3.229   6.025   7.747 -0.1508 -0.8254  0.1834
   77CHL1   H17 8129   3.237   6.129   7.708  1.1701 -0.5910  1.0055
   77CHL1   C13 8130   3.151   5.948   7.636  0.4002  0.1081 -0.6143
   77CHL1   C18 8131   3.093   5.813   7.698  0.2415 -0.6633 -0.6733
   77CHL1  H18A 8132   3.140   5.763   7.786 -1.8905 -0.4560  0.6674
   77CHL1  H18B 8133   3.002   5.843   7.753  3.4188  2.4634  3.5444
   77CHL1  H18C 8134   3.069   5.740   7.618 -0.2023 -0.0843 -1.0707
   77CHL1   C12 8135   3.044   6.030   7.562  0.4159  0.3602  0.8139
   77CHL1  H12A 8136   2.952   6.045   7.622 -0.0358  0.1322  0.1862
   77CHL1  H12B 8137   3.098   6.118   7.520  1.9975 -1.4109 -1.0930
   77CHL1   C11 8138   2.997   5.949   7.434  0.0151  0.2488 -0.4449
   77CHL1  H11A 8139   2.929   5.866   7.463 -0.4426 -0.0611 -2.2527
   77CHL1  H11B 8140   2.932   6.010   7.368 -3.7449 -2.7011  0.1863
   77CHL1    C9 8141   3.107   5.901   7.335  0.5280  0.1215 -0.7442
   77CHL1    H9 8142   3.167   5.987   7.297  1.7882  0.3791  1.6726
   77CHL1   C10 8143   3.060   5.814   7.210 -0.1022 -1.2437  0.2138
   77CHL1   C19 8144   2.966   5.709   7.254  0.9207  0.3112 -0.2628
   77CHL1  H19A 8145   2.881   5.746   7.314  2.2344  1.3590  1.0401
   77CHL1  H19B 8146   2.913   5.656   7.172 -1.7380  0.3496  1.3357
   77CHL1  H19C 8147   3.017   5.630   7.313  1.4550 -0.1038 -1.2457
   77CHL1    C1 8148   3.003   5.910   7.101 -0.6650  0.4594  0.5926
   77CHL1   H1A 8149   2.908   5.952   7.140 -1.1301 -0.0617  0.0356
   77CHL1   H1B 8150   3.072   5.997   7.094 -1.1539  0.9139  1.2872
   77CHL1    C2 8151   2.967   5.860   6.960  0.0010 -0.3940 -0.3963
   77CHL1   H2A 8152   2.951   5.938   6.882  2.9004 -0.1421 -0.8503
   77CHL1   H2B 8153   2.881   5.791   6.954  1.7298 -2.5114 -2.5564
   77CHL1   C20 8154   3.164   6.027   7.884 -0.3666  0.1358  0.0560
   77CHL1   H20 8155   3.145   5.928   7.931 -1.2183  0.7039  0.9708
   77CHL1   C21 8156   3.035   6.103   7.887  0.6880  0.0425  0.1299
   77CHL1  H21A 8157   3.036   6.205   7.844  0.8956 -0.3725 -0.8801
   77CHL1  H21B 8158   2.995   6.102   7.991  1.9444  2.2274  0.6916
   77CHL1  H21C 8159   2.959   6.057   7.820  0.7629  1.4855 -0.9975
   77CHL1   C22 8160   3.266   6.094   7.978  0.4662  0.1403 -0.1595
   77CHL1  H22A 8161   3.339   6.017   8.013 -2.5855 -2.7115  0.5143
   77CHL1  H22B 8162   3.327   6.166   7.919  0.1451  0.2401 -0.3729
   77CHL1   C23 8163   3.217   6.169   8.101  1.1919  0.4157  0.4182
   77CHL1  H23A 8164   3.138   6.245   8.083 -0.9052 -1.5916  0.6129
   77CHL1  H23B 8165   3.178   6.084   8.161 -0.9605  0.9137 -0.1641
   77CHL1   C24 8166   3.331   6.238   8.180 -0.0928 -0.7779  0.0385
   77CHL1  H24A 8167   3.294   6.257   8.283 -0.9137  0.9840 -0.5448
   77CHL1  H24B 8168   3.413   6.163   8.188 -0.2630 -0.8719  0.9733
   77CHL1   C25 8169   3.396   6.368   8.125 -0.3115 -0.5000  0.0240
   77CHL1   H25 8170   3.421   6.350   8.018  0.5633  1.2602 -0.1112
   77CHL1   C26 8171   3.295   6.489   8.118  0.3143 -0.0344  0.3866
   77CHL1  H26A 8172   3.203   6.450   8.069 -0.1916  1.8220 -0.2106
   77CHL1  H26B 8173   3.270   6.525   8.220 -0.5639  0.4262  0.0221
   77CHL1  H26C 8174   3.332   6.570   8.053 -0.0852 -1.1083 -1.2264
   77CHL1   C27 8175   3.525   6.396   8.201  0.1468 -0.5182 -0.0548
   77CHL1  H27A 8176   3.495   6.401   8.308  2.7705 -0.2506  0.7271
   77CHL1  H27B 8177   3.609   6.324   8.199 -0.3538 -1.1713  1.1750
   77CHL1  H27C 8178   3.560   6.495   8.165 -1.6348 -0.3707 -1.5427
   78CHL1    C3 8179   3.326   1.203   7.006  0.3907  0.0391  0.5162
   78CHL1    H3 8180   3.431   1.241   7.008  0.2469  0.4541  0.2524
   78CHL1    O3 8181   3.257   1.257   6.893  0.0622 -0.4356  0.0709
   78CHL1   H3' 8182   3.248   1.187   6.828  0.6255 -0.2069 -0.2563
   78CHL1    C4 8183   3.326   1.049   7.001  0.5539 -0.2356 -0.2077
   78CHL1   H4A 8184   3.226   1.013   6.970  0.3585 -0.6991  0.9090
   78CHL1   H4B 8185   3.388   1.016   6.915  0.3008 -0.2514 -0.3838
   78CHL1    C5 8186   3.396   0.994   7.127 -0.1987 -0.3402  0.2486
   78CHL1    C6 8187   3.505   0.916   7.125 -0.3425 -0.7589  0.0718
   78CHL1    H6 8188   3.557   0.905   7.029 -0.4766  1.2793 -0.2743
   78CHL1    C7 8189   3.559   0.833   7.241  0.3857 -0.2856 -0.2567
   78CHL1   H7A 8190   3.561   0.727   7.211  2.4948  0.2280 -2.2340
   78CHL1   H7B 8191   3.665   0.860   7.263  0.0254 -0.2663  1.6979
   78CHL1    C8 8192   3.476   0.848   7.369  0.9895 -0.5494 -1.1954
   78CHL1    H8 8193   3.399   0.768   7.365  0.4012 -0.0715  0.0665
   78CHL1   C14 8194   3.564   0.836   7.495  0.6779 -0.7320  0.5171
   78CHL1   H14 8195   3.618   0.933   7.492 -0.3236 -0.1394 -3.0923
   78CHL1   C15 8196   3.668   0.720   7.502  0.4227 -0.0350 -0.5992
   78CHL1  H15A 8197   3.625   0.626   7.463  0.1415 -0.4842  0.7392
   78CHL1  H15B 8198   3.760   0.748   7.446  1.9367 -1.8058  0.8700
   78CHL1   C16 8199   3.696   0.713   7.656  0.3671  0.1275  0.3479
   78CHL1  H16A 8200   3.690   0.606   7.687  2.1550  0.0913  0.7244
   78CHL1  H16B 8201   3.796   0.746   7.692  1.7965 -2.6171 -0.7435
   78CHL1   C17 8202   3.591   0.802   7.735  0.5722  0.3800  0.6703
   78CHL1   H17 8203   3.639   0.901   7.754  0.4459  0.1636  2.1687
   78CHL1   C13 8204   3.482   0.824   7.632 -0.1860  0.1830  0.6327
   78CHL1   C18 8205   3.392   0.701   7.633 -0.3575 -0.2837  0.6647
   78CHL1  H18A 8206   3.442   0.613   7.586 -1.3335 -0.8888  0.7128
   78CHL1  H18B 8207   3.343   0.680   7.730 -0.9983 -0.7342  0.2588
   78CHL1  H18C 8208   3.310   0.723   7.561  1.1533 -0.2492 -1.1145
   78CHL1   C12 8209   3.393   0.956   7.631 -0.2295  0.2195  0.2686
   78CHL1  H12A 8210   3.311   0.941   7.704 -1.1747  1.0534 -0.5908
   78CHL1  H12B 8211   3.460   1.042   7.656 -1.1305  0.7789  0.8473
   78CHL1   C11 8212   3.319   0.989   7.505  0.2330 -0.1194  1.0049
   78CHL1  H11A 8213   3.241   0.910   7.502  1.4288 -1.4346  2.4797
   78CHL1  H11B 8214   3.276   1.090   7.519  0.1200  0.1614 -1.0744
   78CHL1    C9 8215   3.405   0.988   7.379  0.2551  0.8601 -0.4714
   78CHL1    H9 8216   3.496   1.052   7.388  0.1345  0.8890  0.6728
   78CHL1   C10 8217   3.321   1.027   7.251  0.2214 -0.3357 -0.5897
   78CHL1   C19 8218   3.179   0.966   7.253 -0.1395 -0.6561 -0.1270
   78CHL1  H19A 8219   3.126   1.019   7.335  0.9441  0.3764 -0.0697
   78CHL1  H19B 8220   3.125   0.987   7.159 -1.2407  3.9786  1.2829
   78CHL1  H19C 8221   3.177   0.858   7.280 -0.6467 -0.5361  0.3286
   78CHL1    C1 8222   3.318   1.184   7.252 -0.0586 -0.3187 -0.0693
   78CHL1   H1A 8223   3.260   1.213   7.341 -0.8210 -1.2557 -0.2422
   78CHL1   H1B 8224   3.424   1.218   7.256 -0.3437  1.8989 -4.5348
   78CHL1    C2 8225   3.257   1.252   7.126 -0.1721 -0.6132 -0.9315
   78CHL1   H2A 8226   3.280   1.361   7.130  1.3642 -0.8842 -1.8470
   78CHL1   H2B 8227   3.147   1.241   7.133 -0.1892 -0.6149 -1.1912
   78CHL1   C20 8228   3.550   0.749   7.866  0.9310  0.4698  0.7104
   78CHL1   H20 8229   3.507   0.646   7.864  2.8106 -0.3719  1.2416
   78CHL1   C21 8230   3.459   0.854   7.941 -0.4144  0.0129  1.2092
   78CHL1  H21A 8231   3.357   0.857   7.897 -0.7549 -0.2974  1.9578
   78CHL1  H21B 8232   3.497   0.956   7.924 -2.6847  0.6116 -0.8335
   78CHL1  H21C 8233   3.430   0.839   8.047 -1.7038 -0.2487  0.8403
   78CHL1   C22 8234   3.677   0.734   7.945 -0.2865 -0.0851  0.7331
   78CHL1  H22A 8235   3.745   0.664   7.891  0.5421  0.5209  0.9626
   78CHL1  H22B 8236   3.726   0.834   7.949  1.1575 -0.7178 -0.3118
   78CHL1   C23 8237   3.663   0.670   8.083  0.5057  0.2667 -0.9198
   78CHL1  H23A 8238   3.596   0.736   8.143  1.3454  0.4697 -0.1808
   78CHL1  H23B 8239   3.618   0.571   8.066  1.6895 -1.0098  2.5087
   78CHL1   C24 8240   3.805   0.673   8.147 -0.1874  0.0294 -0.3839
   78CHL1  H24A 8241   3.881   0.638   8.073  0.5882  0.9177 -0.0276
   78CHL1  H24B 8242   3.828   0.778   8.175  1.6486 -0.2854 -0.5592
   78CHL1   C25 8243   3.803   0.598   8.285 -0.1643 -0.9238 -0.2115
   78CHL1   H25 8244   3.732   0.649   8.355 -1.8624 -2.4265 -0.7457
   78CHL1   C26 8245   3.756   0.455   8.269  0.3689  0.0023 -0.8765
   78CHL1  H26A 8246   3.797   0.404   8.360  0.1066  1.1042 -0.1227
   78CHL1  H26B 8247   3.645   0.450   8.269  0.2785  0.9674  0.9376
   78CHL1  H26C 8248   3.797   0.397   8.184  2.9415  0.8666 -0.3117
   78CHL1   C27 8249   3.947   0.612   8.346 -0.3800  0.0479 -1.1664
   78CHL1  H27A 8250   4.026   0.558   8.290 -0.1080  0.1386 -0.8689
   78CHL1  H27B 8251   3.977   0.718   8.353 -1.0888  0.2087 -0.3231
   78CHL1  H27C 8252   3.967   0.574   8.448  0.4022  1.0069 -0.9555
   79CHL1    C3 8253   1.902   0.536   6.985  0.4402 -0.2538  0.5515
   79CHL1    H3 8254   1.949   0.437   6.971 -2.2039 -1.5875  0.5518
   79CHL1    O3 8255   1.863   0.595   6.854 -0.8575  0.6617 -0.5926
   79CHL1   H3' 8256   1.814   0.674   6.875  1.3918  2.0726 -0.3131
   79CHL1    C4 8257   1.784   0.516   7.079  0.2696 -0.4155  0.2378
   79CHL1   H4A 8258   1.733   0.614   7.092 -0.2731 -0.8298  1.3261
   79CHL1   H4B 8259   1.707   0.448   7.038 -0.6014  0.7208 -0.0707
   79CHL1    C5 8260   1.837   0.466   7.214 -0.5920  0.0778 -0.8811
   79CHL1    C6 8261   1.823   0.337   7.249 -0.1024 -0.4215  0.3024
   79CHL1    H6 8262   1.776   0.270   7.176  1.0023 -0.3526 -0.5062
   79CHL1    C7 8263   1.858   0.286   7.386 -0.1281 -0.1547  0.6962
   79CHL1   H7A 8264   1.767   0.247   7.436 -0.6434  0.1798  0.0249
   79CHL1   H7B 8265   1.937   0.208   7.385 -0.2660 -0.3008  0.9300
   79CHL1    C8 8266   1.896   0.403   7.482 -0.1386  0.0709 -0.6550
   79CHL1    H8 8267   1.802   0.456   7.505 -1.6998 -3.4297  1.9868
   79CHL1   C14 8268   1.956   0.361   7.616 -0.1665 -0.9347 -0.1871
   79CHL1   H14 8269   2.052   0.311   7.591  1.2010  0.8946  1.1554
   79CHL1   C15 8270   1.884   0.246   7.685  0.0147 -0.3425  0.8661
   79CHL1  H15A 8271   1.779   0.278   7.700 -0.6433 -0.4508 -2.5247
   79CHL1  H15B 8272   1.887   0.155   7.622  1.9062  1.2186 -1.5023
   79CHL1   C16 8273   1.955   0.246   7.823  0.2748 -0.6050 -0.1306
   79CHL1  H16A 8274   1.887   0.239   7.910  0.6270 -0.5947  0.1461
   79CHL1  H16B 8275   2.026   0.161   7.824  1.1362  0.1111 -0.1684
   79CHL1   C17 8276   2.046   0.366   7.831 -0.0205 -0.0882 -0.0965
   79CHL1   H17 8277   2.148   0.346   7.793 -0.1191  0.4655 -0.6761
   79CHL1   C13 8278   1.988   0.463   7.718 -0.2559 -0.0255  0.5394
   79CHL1   C18 8279   1.858   0.535   7.769 -0.2764 -0.2893  0.1705
   79CHL1  H18A 8280   1.870   0.610   7.850  1.2717  0.0596 -0.3457
   79CHL1  H18B 8281   1.827   0.593   7.679  1.6498  0.4015 -0.1004
   79CHL1  H18C 8282   1.781   0.460   7.797 -0.4721 -1.0351 -2.1547
   79CHL1   C12 8283   2.097   0.549   7.653 -0.1924 -0.4362 -0.3044
   79CHL1  H12A 8284   2.142   0.632   7.711  0.9227 -1.5440  0.4726
   79CHL1  H12B 8285   2.185   0.484   7.634 -0.8031 -1.0433 -1.1734
   79CHL1   C11 8286   2.058   0.607   7.517  0.3646  0.6907  0.6532
   79CHL1  H11A 8287   1.978   0.683   7.529 -0.8679  0.0811 -2.6149
   79CHL1  H11B 8288   2.146   0.644   7.459  0.9799 -1.7948 -0.1380
   79CHL1    C9 8289   1.988   0.498   7.421  0.0952 -0.2632  0.4278
   79CHL1    H9 8290   2.076   0.436   7.393  0.6294  1.3507 -1.7874
   79CHL1   C10 8291   1.924   0.566   7.288  0.2865 -0.1187 -0.7165
   79CHL1   C19 8292   1.833   0.688   7.330  0.2517 -0.0485 -0.1750
   79CHL1  H19A 8293   1.893   0.772   7.371  0.3676 -0.2067 -0.0143
   79CHL1  H19B 8294   1.788   0.727   7.236 -0.5305 -1.7879 -0.5719
   79CHL1  H19C 8295   1.750   0.653   7.395  1.1064 -0.9783  0.4532
   79CHL1    C1 8296   2.041   0.596   7.191  0.0394  0.6724 -0.3852
   79CHL1   H1A 8297   2.099   0.681   7.232 -0.0195  0.4822  0.0907
   79CHL1   H1B 8298   2.105   0.506   7.192  1.2603  1.5153 -0.9258
   79CHL1    C2 8299   1.997   0.632   7.051 -0.2411  0.4437  0.3638
   79CHL1   H2A 8300   2.091   0.635   6.991  0.3722 -0.7813  1.2036
   79CHL1   H2B 8301   1.962   0.736   7.042 -0.4696  0.7218  3.3444
   79CHL1   C20 8302   2.052   0.423   7.971 -0.1526 -0.4145  0.6829
   79CHL1   H20 8303   1.948   0.444   8.003 -0.3531 -0.9279  0.3791
   79CHL1   C21 8304   2.134   0.560   7.981 -0.3381  0.6217  0.6579
   79CHL1  H21A 8305   2.171   0.585   8.083  1.9258 -0.7167  0.2358
   79CHL1  H21B 8306   2.062   0.639   7.949 -0.3313  0.8699  1.2556
   79CHL1  H21C 8307   2.218   0.555   7.909 -0.3536 -0.4263  0.7032
   79CHL1   C22 8308   2.112   0.327   8.076 -0.4135  0.1375  0.3077
   79CHL1  H22A 8309   2.049   0.236   8.074 -1.5098  0.5472  4.8806
   79CHL1  H22B 8310   2.220   0.302   8.066 -0.8283 -2.2581  1.3087
   79CHL1   C23 8311   2.101   0.384   8.219  0.2548 -0.5298  0.6950
   79CHL1  H23A 8312   2.192   0.436   8.256 -0.1934  1.3646 -0.7330
   79CHL1  H23B 8313   2.020   0.459   8.226  2.6812  2.2230  0.9515
   79CHL1   C24 8314   2.079   0.270   8.322 -0.0681 -0.0392  0.2336
   79CHL1  H24A 8315   2.132   0.175   8.298  1.5035  1.4692 -2.8415
   79CHL1  H24B 8316   2.120   0.305   8.419  0.9356  1.7897 -0.7894
   79CHL1   C25 8317   1.930   0.238   8.343  0.4913  0.3968 -0.1640
   79CHL1   H25 8318   1.875   0.227   8.247  2.1752 -0.3232 -1.0696
   79CHL1   C26 8319   1.912   0.096   8.406 -0.5165 -0.6195 -0.2214
   79CHL1  H26A 8320   1.943   0.091   8.512 -1.5110 -3.5882  0.0254
   79CHL1  H26B 8321   1.805   0.067   8.401 -0.6103 -0.0954 -2.4685
   79CHL1  H26C 8322   1.963   0.024   8.338 -1.0383  0.3424 -1.6969
   79CHL1   C27 8323   1.853   0.342   8.421  0.3226 -0.5046 -0.1693
   79CHL1  H27A 8324   1.754   0.315   8.463  0.3307  2.1283  1.8187
   79CHL1  H27B 8325   1.921   0.373   8.504 -0.1238 -0.8053  0.3101
   79CHL1  H27C 8326   1.830   0.425   8.351 -0.3439 -0.4016  0.1648
   80CHL1    C3 8327   2.432   4.417   6.978  0.5708  0.1158 -0.5798
   80CHL1    H3 8328   2.543   4.427   6.978  0.5359  0.6237  0.1003
   80CHL1    O3 8329   2.384   4.431   6.838 -0.8439 -0.5805  0.1734
   80CHL1   H3' 8330   2.291   4.450   6.853 -0.4911  0.3899  1.2906
   80CHL1    C4 8331   2.401   4.280   7.042  0.6660  0.1117  0.7968
   80CHL1   H4A 8332   2.300   4.250   7.007  0.8407  0.8235 -0.3758
   80CHL1   H4B 8333   2.470   4.211   6.990  1.3277  1.3897 -0.0703
   80CHL1    C5 8334   2.431   4.265   7.195  0.6871 -0.2595  0.3122
   80CHL1    C6 8335   2.502   4.167   7.242 -0.9082 -0.0702  0.6461
   80CHL1    H6 8336   2.527   4.094   7.164 -1.3747 -1.3627  1.6645
   80CHL1    C7 8337   2.552   4.147   7.380  0.1516 -0.1671 -0.1141
   80CHL1   H7A 8338   2.543   4.038   7.402  0.0403  0.2378  2.1084
   80CHL1   H7B 8339   2.658   4.176   7.392  0.1039 -0.3260  0.7500
   80CHL1    C8 8340   2.466   4.238   7.470 -0.1117  0.2136  0.1197
   80CHL1    H8 8341   2.369   4.184   7.474 -0.4052  0.8170  1.8607
   80CHL1   C14 8342   2.522   4.234   7.612 -0.3978 -1.0291  0.0352
   80CHL1   H14 8343   2.625   4.270   7.594 -1.0083  1.7542  1.5972
   80CHL1   C15 8344   2.532   4.097   7.680 -0.2417 -0.3142  0.3529
   80CHL1  H15A 8345   2.430   4.052   7.675 -0.3060 -0.0021 -2.3522
   80CHL1  H15B 8346   2.595   4.031   7.617  1.1457  0.4727  0.8781
   80CHL1   C16 8347   2.587   4.138   7.816 -0.5553 -0.0087 -0.3812
   80CHL1  H16A 8348   2.512   4.096   7.887  2.6356 -0.8064  2.7827
   80CHL1  H16B 8349   2.685   4.090   7.837 -0.4409  0.4002  0.0367
   80CHL1   C17 8350   2.572   4.296   7.824 -0.0827  0.5508 -0.7142
   80CHL1   H17 8351   2.673   4.335   7.803 -0.1176  2.1223  1.6687
   80CHL1   C13 8352   2.472   4.335   7.713  0.0250 -1.0045  0.5150
   80CHL1   C18 8353   2.321   4.299   7.754  0.3962  0.1901 -0.0020
   80CHL1  H18A 8354   2.314   4.206   7.814 -0.7418  1.1084  1.3819
   80CHL1  H18B 8355   2.283   4.383   7.816  2.4561  1.3135 -0.1667
   80CHL1  H18C 8356   2.264   4.295   7.658 -0.7501 -3.0431  0.7030
   80CHL1   C12 8357   2.487   4.485   7.657  0.6563 -0.2873  0.1707
   80CHL1  H12A 8358   2.436   4.566   7.714  0.3490 -0.0754 -0.3943
   80CHL1  H12B 8359   2.594   4.513   7.642  0.5485  1.8196  2.6386
   80CHL1   C11 8360   2.408   4.488   7.514 -0.8207  0.4503  0.6761
   80CHL1  H11A 8361   2.301   4.461   7.523 -0.9068  0.6317  0.1857
   80CHL1  H11B 8362   2.404   4.594   7.483 -2.5795  0.9093  2.2777
   80CHL1    C9 8363   2.458   4.376   7.409  0.0518 -0.4175 -0.5312
   80CHL1    H9 8364   2.560   4.409   7.383 -0.1206  0.9353  0.3663
   80CHL1   C10 8365   2.383   4.389   7.275  0.3519 -0.1740 -0.1561
   80CHL1   C19 8366   2.233   4.364   7.281 -0.7888 -0.2590 -0.2703
   80CHL1  H19A 8367   2.179   4.441   7.340  1.8296 -0.4172  2.6202
   80CHL1  H19B 8368   2.181   4.361   7.183 -1.3853  1.6289 -0.0619
   80CHL1  H19C 8369   2.212   4.268   7.334 -1.9021  0.2539  0.2616
   80CHL1    C1 8370   2.406   4.524   7.200  0.4374  0.0368  0.3055
   80CHL1   H1A 8371   2.341   4.602   7.245  0.7904  0.4608  0.0942
   80CHL1   H1B 8372   2.514   4.547   7.215  0.5885 -0.5706  0.1608
   80CHL1    C2 8373   2.373   4.529   7.053  0.0144  0.0647  0.0376
   80CHL1   H2A 8374   2.423   4.617   7.007  0.7813 -0.7331 -0.6848
   80CHL1   H2B 8375   2.265   4.552   7.040 -0.7089 -2.5099  0.7928
   80CHL1   C20 8376   2.544   4.348   7.968  0.3378 -0.0135 -0.0855
   80CHL1   H20 8377   2.436   4.327   7.984  0.0716 -0.3675 -2.0989
   80CHL1   C21 8378   2.569   4.499   7.996  0.1454 -0.4134 -0.0843
   80CHL1  H21A 8379   2.511   4.528   8.086 -1.0833  1.3236 -1.3654
   80CHL1  H21B 8380   2.533   4.560   7.910  0.1329 -0.3172 -0.0118
   80CHL1  H21C 8381   2.675   4.531   8.006 -0.0986 -0.0742  1.7257
   80CHL1   C22 8382   2.622   4.277   8.085 -0.2891 -0.5958 -0.2601
   80CHL1  H22A 8383   2.598   4.168   8.092 -2.3028 -0.1928 -0.4178
   80CHL1  H22B 8384   2.725   4.302   8.052 -1.6592  2.9905 -2.3581
   80CHL1   C23 8385   2.614   4.337   8.222  1.1476  0.1280  0.4763
   80CHL1  H23A 8386   2.654   4.441   8.222 -0.0927  0.6479 -1.6968
   80CHL1  H23B 8387   2.512   4.355   8.262  0.5057 -0.0566 -1.0251
   80CHL1   C24 8388   2.677   4.254   8.329 -0.0672  0.1653  0.1422
   80CHL1  H24A 8389   2.630   4.157   8.354  3.3311 -1.8473 -0.6051
   80CHL1  H24B 8390   2.775   4.222   8.287  0.3255  2.8433 -1.1792
   80CHL1   C25 8391   2.718   4.329   8.460 -0.2779  0.2202  0.1767
   80CHL1   H25 8392   2.771   4.425   8.444  0.2408  0.0150  0.6448
   80CHL1   C26 8393   2.594   4.370   8.545 -0.1918  0.5207  0.5185
   80CHL1  H26A 8394   2.637   4.399   8.643 -0.1276 -0.1630  0.6934
   80CHL1  H26B 8395   2.534   4.449   8.494 -1.6340 -0.6928  0.2561
   80CHL1  H26C 8396   2.528   4.284   8.568 -2.1799  1.7061 -0.4390
   80CHL1   C27 8397   2.802   4.232   8.541  0.3098  0.7291 -0.0513
   80CHL1  H27A 8398   2.899   4.212   8.491 -0.1764  0.6972 -0.9931
   80CHL1  H27B 8399   2.809   4.284   8.639  1.5033  2.3991 -0.9772
   80CHL1  H27C 8400   2.759   4.131   8.556  2.6225 -0.2888  0.1720
   81CHL1    C3 8401   5.594   5.473   6.795 -0.3002 -0.3779 -0.3840
   81CHL1    H3 8402   5.511   5.537   6.832 -0.4233 -0.5595 -0.3444
   81CHL1    O3 8403   5.604   5.518   6.655 -0.1221  1.6042 -0.1726
   81CHL1   H3' 8404   5.560   5.448   6.607 -1.2960  1.4292  1.0929
   81CHL1    C4 8405   5.726   5.516   6.867  0.0837  1.3802  0.1842
   81CHL1   H4A 8406   5.811   5.467   6.816 -0.2643 -0.9125  1.6570
   81CHL1   H4B 8407   5.739   5.626   6.856 -0.5967  1.4963  0.4593
   81CHL1    C5 8408   5.736   5.468   7.012 -0.0839  0.3712  0.1837
   81CHL1    C6 8409   5.761   5.557   7.106 -0.3321 -1.1645 -0.3943
   81CHL1    H6 8410   5.782   5.662   7.083 -1.4437 -0.1745  2.6012
   81CHL1    C7 8411   5.781   5.513   7.254  0.3287 -0.1158  0.4912
   81CHL1   H7A 8412   5.872   5.562   7.294  0.5173 -0.7959  0.9089
   81CHL1   H7B 8413   5.701   5.552   7.320  1.3423  0.4859  1.3892
   81CHL1    C8 8414   5.786   5.357   7.277 -0.6061 -0.5285  0.1832
   81CHL1    H8 8415   5.888   5.314   7.266 -1.3567 -2.1141 -1.0533
   81CHL1   C14 8416   5.745   5.333   7.423  0.7293 -0.2376  0.7233
   81CHL1   H14 8417   5.644   5.380   7.426 -0.2607 -2.0467 -1.3008
   81CHL1   C15 8418   5.840   5.392   7.535  0.2729  0.4098 -0.1234
   81CHL1  H15A 8419   5.942   5.357   7.508 -0.2421 -0.7654 -0.6327
   81CHL1  H15B 8420   5.836   5.503   7.546  1.6748  0.5189 -0.4870
   81CHL1   C16 8421   5.800   5.317   7.657  0.2708 -0.0426 -0.5482
   81CHL1  H16A 8422   5.887   5.263   7.700 -1.2300 -0.3390  2.3473
   81CHL1  H16B 8423   5.763   5.387   7.734 -0.0993  1.8736 -2.3780
   81CHL1   C17 8424   5.686   5.219   7.618  0.0611  0.1358  0.8701
   81CHL1   H17 8425   5.590   5.273   7.606 -0.0481 -0.0842  0.7515
   81CHL1   C13 8426   5.716   5.190   7.466  0.6732  0.4548 -0.1027
   81CHL1   C18 8427   5.839   5.097   7.447  0.2408 -0.0745  0.3246
   81CHL1  H18A 8428   5.868   5.081   7.341  1.3380 -1.0325  0.7379
   81CHL1  H18B 8429   5.927   5.128   7.509  0.7503 -1.8050  0.5128
   81CHL1  H18C 8430   5.796   4.999   7.476  0.2832  0.2936  1.7040
   81CHL1   C12 8431   5.599   5.140   7.379  0.3204 -1.1500 -0.8707
   81CHL1  H12A 8432   5.590   5.033   7.406 -0.7551 -0.3520  2.4926
   81CHL1  H12B 8433   5.501   5.185   7.408  1.1457 -1.0743  2.1356
   81CHL1   C11 8434   5.630   5.153   7.234 -0.2576  0.4827 -0.4254
   81CHL1  H11A 8435   5.707   5.077   7.209 -0.8675  0.4599 -2.3667
   81CHL1  H11B 8436   5.543   5.115   7.176  0.4824 -4.0262  1.0006
   81CHL1    C9 8437   5.681   5.292   7.187  0.0670 -0.6964  0.4484
   81CHL1    H9 8438   5.597   5.358   7.216 -1.4973 -2.4898  0.1831
   81CHL1   C10 8439   5.700   5.320   7.035  0.0580  0.0742 -0.2875
   81CHL1   C19 8440   5.810   5.213   6.998  0.2337 -0.9213  0.1817
   81CHL1  H19A 8441   5.771   5.110   6.988 -2.0539 -0.1988  0.8952
   81CHL1  H19B 8442   5.865   5.238   6.904  0.7739 -0.7746  0.5324
   81CHL1  H19C 8443   5.874   5.213   7.089 -0.5316 -0.0364  0.7423
   81CHL1    C1 8444   5.567   5.286   6.961  0.1468 -0.4815 -0.1848
   81CHL1   H1A 8445   5.559   5.175   6.956  0.1356 -0.4809 -0.1768
   81CHL1   H1B 8446   5.485   5.331   7.021  1.4179  1.2265  0.3705
   81CHL1    C2 8447   5.562   5.325   6.812  0.1446 -0.3376  0.2917
   81CHL1   H2A 8448   5.460   5.307   6.771  0.4296 -1.5152  0.0461
   81CHL1   H2B 8449   5.639   5.265   6.758 -0.2765 -0.2996 -0.3605
   81CHL1   C20 8450   5.679   5.104   7.717  0.3057 -0.2008  0.2942
   81CHL1   H20 8451   5.765   5.037   7.697 -2.1783 -2.9728 -1.9678
   81CHL1   C21 8452   5.547   5.016   7.695  0.4968  0.7894 -0.9654
   81CHL1  H21A 8453   5.565   4.962   7.600  3.1817 -1.0288  0.4395
   81CHL1  H21B 8454   5.459   5.084   7.693  0.4734  0.9006  1.0428
   81CHL1  H21C 8455   5.540   4.956   7.788  1.7725 -0.6309 -1.7431
   81CHL1   C22 8456   5.685   5.147   7.866  0.2721  0.3095  0.0319
   81CHL1  H22A 8457   5.677   5.064   7.939 -2.1013  0.1401 -0.3403
   81CHL1  H22B 8458   5.776   5.207   7.888 -1.4224  2.5771  1.2590
   81CHL1   C23 8459   5.568   5.234   7.903  0.1324 -0.3773 -0.0116
   81CHL1  H23A 8460   5.553   5.319   7.833 -1.9213 -0.4743  0.2331
   81CHL1  H23B 8461   5.471   5.181   7.890 -0.5494  1.1006 -1.3851
   81CHL1   C24 8462   5.581   5.298   8.040 -0.4984  0.4451 -0.6086
   81CHL1  H24A 8463   5.681   5.346   8.037 -0.4664  0.3360 -1.4845
   81CHL1  H24B 8464   5.502   5.372   8.065 -0.5563 -0.4733  2.1955
   81CHL1   C25 8465   5.579   5.200   8.158 -0.1330  0.1451 -0.6079
   81CHL1   H25 8466   5.649   5.117   8.137  3.2678  2.3410  1.2127
   81CHL1   C26 8467   5.648   5.260   8.280  0.1145  0.4747 -0.7026
   81CHL1  H26A 8468   5.678   5.181   8.352  0.8437  0.2146 -1.2830
   81CHL1  H26B 8469   5.750   5.300   8.258  1.2370 -1.0076  1.4034
   81CHL1  H26C 8470   5.586   5.346   8.316  0.6790  0.4637  0.3542
   81CHL1   C27 8471   5.441   5.129   8.196 -0.0615  0.4818  0.2174
   81CHL1  H27A 8472   5.360   5.193   8.236  0.9452  1.7207  0.3403
   81CHL1  H27B 8473   5.399   5.074   8.109  0.1491 -1.2095  1.1363
   81CHL1  H27C 8474   5.463   5.057   8.278  0.6025  0.9259  0.4411
   82CHL1    C3 8475   6.556   0.673   7.043  0.0351  0.5079 -0.3492
   82CHL1    H3 8476   6.509   0.773   7.039  2.1185  1.5833  0.4474
   82CHL1    O3 8477   6.531   0.617   6.908 -0.1183 -0.4449 -0.6305
   82CHL1   H3' 8478   6.582   0.536   6.902  0.6058  0.0921 -3.3826
   82CHL1    C4 8479   6.706   0.690   7.079  0.2526 -0.2625  0.1217
   82CHL1   H4A 8480   6.759   0.595   7.056  2.0513  0.4612  1.1259
   82CHL1   H4B 8481   6.750   0.752   6.998 -0.6938 -0.1625 -0.3316
   82CHL1    C5 8482   6.733   0.736   7.223  0.4603 -0.0977  0.7706
   82CHL1    C6 8483   6.798   0.849   7.254  0.5369  0.0716 -0.3709
   82CHL1    H6 8484   6.831   0.916   7.174 -1.8034  1.0820 -0.5753
   82CHL1    C7 8485   6.810   0.896   7.399 -0.1269  0.0534 -0.4537
   82CHL1   H7A 8486   6.915   0.932   7.409 -0.1946  0.0279  0.4461
   82CHL1   H7B 8487   6.734   0.967   7.437 -0.3359 -1.5059  2.3137
   82CHL1    C8 8488   6.804   0.778   7.495  0.7579 -0.0791 -0.2176
   82CHL1    H8 8489   6.895   0.716   7.477  0.9706  0.2473 -0.2763
   82CHL1   C14 8490   6.806   0.822   7.637  0.0280 -0.7031  0.2683
   82CHL1   H14 8491   6.718   0.890   7.642  1.2856  1.1756 -1.4191
   82CHL1   C15 8492   6.922   0.913   7.685  0.2469 -0.4288  0.5288
   82CHL1  H15A 8493   7.023   0.869   7.671  0.2707 -0.1315 -0.2957
   82CHL1  H15B 8494   6.930   1.014   7.640 -1.1168  1.0093  3.2715
   82CHL1   C16 8495   6.912   0.918   7.837 -0.0773 -0.2201  0.1679
   82CHL1  H16A 8496   7.014   0.897   7.876 -0.1010  0.8302  0.8393
   82CHL1  H16B 8497   6.875   1.016   7.876 -0.1727  0.4472 -1.5226
   82CHL1   C17 8498   6.812   0.805   7.868 -0.3148 -0.1845  0.6004
   82CHL1   H17 8499   6.711   0.850   7.873  0.1722  0.7685  2.5446
   82CHL1   C13 8500   6.802   0.712   7.743  0.4138 -0.1707 -0.4119
   82CHL1   C18 8501   6.914   0.607   7.732 -0.2157  0.0797 -0.4425
   82CHL1  H18A 8502   6.916   0.568   7.629 -3.4806  1.0996 -1.0110
   82CHL1  H18B 8503   7.012   0.652   7.760 -1.2394  1.0753  1.7900
   82CHL1  H18C 8504   6.893   0.522   7.801  0.0991 -0.9359 -1.5766
   82CHL1   C12 8505   6.665   0.646   7.728 -0.2768 -0.1744 -0.2290
   82CHL1  H12A 8506   6.671   0.569   7.808  0.8195  1.1830  1.0680
   82CHL1  H12B 8507   6.587   0.725   7.738  1.3641  1.4205  0.6702
   82CHL1   C11 8508   6.645   0.590   7.586 -0.5471 -0.2230  0.3778
   82CHL1  H11A 8509   6.716   0.505   7.585 -0.5832 -0.3399  2.4982
   82CHL1  H11B 8510   6.540   0.553   7.583 -1.7786  2.8553  1.2733
   82CHL1    C9 8511   6.674   0.698   7.477  0.0111 -0.7371  0.4405
   82CHL1    H9 8512   6.588   0.767   7.493  1.8714  1.9824 -0.5212
   82CHL1   C10 8513   6.666   0.642   7.329 -0.1461 -0.8335 -0.2167
   82CHL1   C19 8514   6.748   0.512   7.315  0.6076  0.3179 -0.0608
   82CHL1  H19A 8515   6.828   0.511   7.392  0.2500 -0.0097  0.3125
   82CHL1  H19B 8516   6.682   0.430   7.348 -1.0230  1.0740 -1.3079
   82CHL1  H19C 8517   6.787   0.487   7.214 -0.2936 -1.1151 -0.0774
   82CHL1    C1 8518   6.520   0.604   7.292  0.6263  0.6825 -0.0138
   82CHL1   H1A 8519   6.483   0.516   7.348 -2.2057  2.0316  0.4379
   82CHL1   H1B 8520   6.458   0.692   7.318 -0.9677 -0.7660  1.3010
   82CHL1    C2 8521   6.491   0.577   7.143 -0.6184 -0.3497  0.3373
   82CHL1   H2A 8522   6.382   0.593   7.133 -0.7217 -1.4948 -0.5217
   82CHL1   H2B 8523   6.518   0.477   7.102 -1.1026 -0.3346 -0.0174
   82CHL1   C20 8524   6.830   0.736   8.001 -0.7126 -0.3830 -0.1544
   82CHL1   H20 8525   6.776   0.640   7.990 -0.8954 -0.1869 -0.9943
   82CHL1   C21 8526   6.749   0.818   8.104 -0.1399 -0.1400 -0.5596
   82CHL1  H21A 8527   6.641   0.813   8.078 -0.5709  0.3422  1.0004
   82CHL1  H21B 8528   6.774   0.926   8.117 -3.4908  0.6730 -0.0075
   82CHL1  H21C 8529   6.743   0.764   8.201  1.4329  1.0164  0.2309
   82CHL1   C22 8530   6.971   0.701   8.056 -0.2527 -0.5598  0.0065
   82CHL1  H22A 8531   7.043   0.681   7.975  1.4709  0.8317  1.1129
   82CHL1  H22B 8532   7.000   0.792   8.113 -0.9672 -1.2807  1.5858
   82CHL1   C23 8533   6.972   0.602   8.172 -0.7133 -0.0054  0.1839
   82CHL1  H23A 8534   6.885   0.621   8.238 -0.0516 -1.0255  1.3975
   82CHL1  H23B 8535   6.960   0.500   8.131 -0.1986 -0.3350  0.8383
   82CHL1   C24 8536   7.109   0.603   8.248 -1.1858 -0.5130  0.4868
   82CHL1  H24A 8537   7.186   0.588   8.169 -0.4443  1.0826  0.8798
   82CHL1  H24B 8538   7.122   0.707   8.284  1.5590 -0.9737  1.0126
   82CHL1   C25 8539   7.132   0.515   8.362  0.8976 -0.0453 -0.7168
   82CHL1   H25 8540   7.121   0.406   8.342 -1.0812  0.4207 -2.4032
   82CHL1   C26 8541   7.277   0.522   8.419  0.0989  0.2916  0.3941
   82CHL1  H26A 8542   7.301   0.624   8.456  0.6739 -0.3235  1.7765
   82CHL1  H26B 8543   7.289   0.447   8.500 -1.9468 -0.2335  0.2719
   82CHL1  H26C 8544   7.346   0.489   8.338 -0.5679 -1.3201  0.4353
   82CHL1   C27 8545   7.046   0.545   8.481 -0.2912  0.0960  0.6134
   82CHL1  H27A 8546   6.937   0.550   8.459  0.0826  1.7291 -1.0828
   82CHL1  H27B 8547   7.057   0.476   8.568  1.0885 -0.1486  0.2730
   82CHL1  H27C 8548   7.074   0.648   8.511 -1.3731 -0.7795  5.4080
   83CHL1    C3 8549   3.797   0.348   6.883 -0.5845 -0.6338  0.4721
   83CHL1    H3 8550   3.845   0.448   6.874 -2.4011  0.1533 -1.2021
   83CHL1    O3 8551   3.724   0.316   6.770 -0.1194  0.2052  0.0154
   83CHL1   H3' 8552   3.633   0.300   6.797  0.0893 -1.8607 -0.3591
   83CHL1    C4 8553   3.892   0.234   6.916 -0.4872  0.0495  0.3580
   83CHL1   H4A 8554   3.842   0.135   6.925 -0.2826 -0.0755  0.1206
   83CHL1   H4B 8555   3.956   0.222   6.827  1.7095  0.1384  1.8474
   83CHL1    C5 8556   3.975   0.267   7.040 -0.0423  0.1662  1.1330
   83CHL1    C6 8557   4.111   0.276   7.034  0.1603  0.3169  0.2850
   83CHL1    H6 8558   4.162   0.247   6.941 -1.2629  0.4895 -0.5880
   83CHL1    C7 8559   4.201   0.286   7.158 -0.2199  0.2416  0.0394
   83CHL1   H7A 8560   4.280   0.209   7.146 -1.3006 -0.9612  0.4987
   83CHL1   H7B 8561   4.253   0.384   7.156 -1.2085  0.9510  3.2666
   83CHL1    C8 8562   4.115   0.280   7.286 -0.3517 -0.6104  0.0618
   83CHL1    H8 8563   4.084   0.174   7.301 -0.7338 -0.6889 -1.1697
   83CHL1   C14 8564   4.196   0.329   7.409  0.1401  0.6495  0.3626
   83CHL1   H14 8565   4.212   0.436   7.384 -0.4222  0.2336 -1.9393
   83CHL1   C15 8566   4.338   0.274   7.427  0.2787  0.4072 -0.2295
   83CHL1  H15A 8567   4.327   0.165   7.411  1.8686 -0.1723  2.1307
   83CHL1  H15B 8568   4.411   0.318   7.356 -0.4962  1.3261 -0.4783
   83CHL1   C16 8569   4.366   0.318   7.574 -0.2868 -0.5310  0.1807
   83CHL1  H16A 8570   4.398   0.226   7.628  2.9936  0.6201  0.4396
   83CHL1  H16B 8571   4.453   0.387   7.583 -1.2396  0.8272 -0.6948
   83CHL1   C17 8572   4.238   0.394   7.633 -0.3962  0.0897  0.4506
   83CHL1   H17 8573   4.257   0.500   7.610  0.4174 -0.1781 -0.1718
   83CHL1   C13 8574   4.128   0.334   7.546  0.3042 -0.1842  0.1532
   83CHL1   C18 8575   4.096   0.183   7.600  0.4332  0.3644  1.0619
   83CHL1  H18A 8576   4.187   0.119   7.606 -0.8982 -1.7867 -0.0300
   83CHL1  H18B 8577   4.062   0.191   7.706  2.2415  0.7360  1.6592
   83CHL1  H18C 8578   4.036   0.120   7.531  1.7746 -1.8717  1.8128
   83CHL1   C12 8579   3.998   0.414   7.536 -0.5185 -0.0581 -0.3310
   83CHL1  H12A 8580   3.936   0.397   7.627 -0.5914  0.1198 -0.3463
   83CHL1  H12B 8581   4.020   0.523   7.530  1.3844 -0.4574 -1.4286
   83CHL1   C11 8582   3.916   0.377   7.413  0.3956  0.7133  0.6572
   83CHL1  H11A 8583   3.885   0.273   7.437 -0.0892  0.4251 -1.0929
   83CHL1  H11B 8584   3.825   0.441   7.411 -0.1030  0.1038  2.3187
   83CHL1    C9 8585   3.984   0.363   7.272  0.2995 -0.3234 -0.0460
   83CHL1    H9 8586   4.019   0.464   7.241 -1.1479  0.7711  1.6071
   83CHL1   C10 8587   3.894   0.308   7.164  0.2651  0.7340  0.3672
   83CHL1   C19 8588   3.813   0.187   7.213 -0.5392 -0.3301  0.1018
   83CHL1  H19A 8589   3.746   0.207   7.299  0.1416 -0.7541  0.7418
   83CHL1  H19B 8590   3.754   0.137   7.133 -0.9743  1.9122 -1.0598
   83CHL1  H19C 8591   3.879   0.104   7.244  0.3486  0.2670 -0.1515
   83CHL1    C1 8592   3.792   0.417   7.128  0.4306 -0.1160  0.2929
   83CHL1   H1A 8593   3.716   0.426   7.209  0.1504 -0.6367  0.0952
   83CHL1   H1B 8594   3.846   0.508   7.095  0.0696 -0.4888 -1.4091
   83CHL1    C2 8595   3.707   0.380   7.006  0.6903  0.1397 -0.1321
   83CHL1   H2A 8596   3.643   0.465   6.976 -0.3682 -0.9650 -1.1198
   83CHL1   H2B 8597   3.638   0.293   7.017 -0.5386  1.2090  0.9026
   83CHL1   C20 8598   4.223   0.391   7.787  0.5623  0.4285 -0.3274
   83CHL1   H20 8599   4.210   0.287   7.821 -0.6758  0.2098 -1.3850
   83CHL1   C21 8600   4.092   0.462   7.832  0.7263 -0.4025 -0.3014
   83CHL1  H21A 8601   4.003   0.396   7.827 -1.0031  1.4106  2.9491
   83CHL1  H21B 8602   4.067   0.555   7.776 -0.7546 -1.0899 -0.8277
   83CHL1  H21C 8603   4.099   0.483   7.941  0.5475 -1.2711 -0.1177
   83CHL1   C22 8604   4.336   0.460   7.868  0.9194  0.2990 -0.2497
   83CHL1  H22A 8605   4.436   0.436   7.825  0.4275 -0.0825 -1.2005
   83CHL1  H22B 8606   4.325   0.570   7.875 -0.4945  0.1418  0.2877
   83CHL1   C23 8607   4.335   0.411   8.022  0.4871  0.0128  0.0891
   83CHL1  H23A 8608   4.273   0.490   8.069  0.5384  0.5289 -0.7123
   83CHL1  H23B 8609   4.277   0.316   8.030  0.0551  0.4313  2.9497
   83CHL1   C24 8610   4.471   0.404   8.099  0.2835 -0.0349 -0.3086
   83CHL1  H24A 8611   4.535   0.321   8.062  1.2181  1.8402 -3.2512
   83CHL1  H24B 8612   4.535   0.494   8.096  1.2303 -0.6681  0.4425
   83CHL1   C25 8613   4.444   0.397   8.249  0.2088 -0.4560  0.3493
   83CHL1   H25 8614   4.371   0.472   8.287  0.5029  0.5209 -0.9692
   83CHL1   C26 8615   4.390   0.258   8.287 -0.5429 -0.9975 -0.5086
   83CHL1  H26A 8616   4.293   0.253   8.232  0.4462  0.9010 -2.5638
   83CHL1  H26B 8617   4.457   0.176   8.253 -1.0065 -1.6996  0.2272
   83CHL1  H26C 8618   4.373   0.249   8.397 -1.1944 -1.3439 -0.6338
   83CHL1   C27 8619   4.564   0.438   8.334 -0.3162 -0.0400  0.5229
   83CHL1  H27A 8620   4.587   0.544   8.313 -0.5160 -0.2238 -0.6725
   83CHL1  H27B 8621   4.548   0.423   8.443  1.0371 -2.2410  0.4831
   83CHL1  H27C 8622   4.651   0.379   8.298 -1.7694 -0.7124 -2.1691
   84CHL1    C3 8623   4.028   2.743   7.070  0.1134 -0.2137 -0.2695
   84CHL1    H3 8624   3.987   2.642   7.048  0.5005 -0.9702  2.1986
   84CHL1    O3 8625   4.029   2.815   6.949 -0.3563  0.3548  0.0118
   84CHL1   H3' 8626   3.980   2.897   6.956 -0.2631  0.8229 -3.3658
   84CHL1    C4 8627   3.921   2.805   7.165 -1.0841 -0.4845 -0.5366
   84CHL1   H4A 8628   3.941   2.913   7.182  2.9686 -0.9319 -1.3839
   84CHL1   H4B 8629   3.821   2.800   7.117 -0.5221 -1.2870 -1.6541
   84CHL1    C5 8630   3.914   2.746   7.304 -0.5551  0.3780  0.6883
   84CHL1    C6 8631   3.801   2.700   7.357  0.0254 -0.1097 -0.2160
   84CHL1    H6 8632   3.703   2.716   7.308 -0.0147  0.2936 -0.0147
   84CHL1    C7 8633   3.788   2.643   7.502  0.3112  0.0431  0.2800
   84CHL1   H7A 8634   3.702   2.693   7.551 -1.0263 -1.4161 -0.4625
   84CHL1   H7B 8635   3.755   2.537   7.493 -1.8651  0.5948  1.1388
   84CHL1    C8 8636   3.926   2.660   7.582 -0.2711 -0.0699  0.0039
   84CHL1    H8 8637   3.937   2.758   7.633  0.7743 -1.0998  1.8470
   84CHL1   C14 8638   3.931   2.556   7.691  0.3442  0.1258  0.5828
   84CHL1   H14 8639   3.939   2.460   7.635 -0.0030 -1.0261  2.4147
   84CHL1   C15 8640   3.804   2.530   7.777  0.0494  0.0603  0.8525
   84CHL1  H15A 8641   3.777   2.622   7.833  1.0263 -1.1302  3.4384
   84CHL1  H15B 8642   3.725   2.499   7.705  0.0983  1.7383  0.0220
   84CHL1   C16 8643   3.867   2.422   7.872  0.1580  0.2068  0.1280
   84CHL1  H16A 8644   3.858   2.453   7.978  0.1149 -0.3974  0.3091
   84CHL1  H16B 8645   3.818   2.322   7.862  1.1166 -0.1805 -0.8670
   84CHL1   C17 8646   4.020   2.405   7.847 -0.0502  0.7883  0.2024
   84CHL1   H17 8647   4.029   2.318   7.778 -0.1072 -0.9608  2.2978
   84CHL1   C13 8648   4.059   2.541   7.773  0.5807  0.0382 -0.3269
   84CHL1   C18 8649   4.071   2.658   7.873 -0.0849  0.4145 -0.6330
   84CHL1  H18A 8650   4.061   2.757   7.822 -0.8928 -1.0961 -3.6601
   84CHL1  H18B 8651   4.000   2.651   7.957 -0.0293  0.1393 -0.6092
   84CHL1  H18C 8652   4.171   2.652   7.920 -0.9008 -0.4583  1.0557
   84CHL1   C12 8653   4.181   2.534   7.684 -0.0995  0.3225  0.4690
   84CHL1  H12A 8654   4.275   2.538   7.743 -0.4274 -0.2942  1.0464
   84CHL1  H12B 8655   4.176   2.441   7.624 -0.6221  1.8314 -1.9774
   84CHL1   C11 8656   4.180   2.649   7.583 -0.5474 -0.4618  0.1709
   84CHL1  H11A 8657   4.195   2.740   7.645  2.3005 -1.0208  0.4562
   84CHL1  H11B 8658   4.270   2.645   7.517  0.7676  1.3362  1.7376
   84CHL1    C9 8659   4.053   2.640   7.497  0.5290  1.0896 -0.5934
   84CHL1    H9 8660   4.052   2.541   7.448  1.4345  1.0546 -0.5641
   84CHL1   C10 8661   4.057   2.734   7.367  0.1845 -0.7858 -0.2637
   84CHL1   C19 8662   4.096   2.875   7.411 -0.4119 -0.8566 -0.3245
   84CHL1  H19A 8663   4.083   2.948   7.329  0.9996 -0.7647 -0.4830
   84CHL1  H19B 8664   4.059   2.914   7.509  1.7169  0.6617 -0.0452
   84CHL1  H19C 8665   4.205   2.880   7.432 -0.5818  0.0045  0.4426
   84CHL1    C1 8666   4.162   2.674   7.268 -0.8512  0.2990 -0.2604
   84CHL1   H1A 8667   4.262   2.671   7.316 -0.1124 -2.2581 -1.7843
   84CHL1   H1B 8668   4.142   2.566   7.257  1.9972 -0.3529  0.1572
   84CHL1    C2 8669   4.167   2.750   7.129  0.0408 -0.0399 -0.1545
   84CHL1   H2A 8670   4.238   2.693   7.065  0.9823  0.3659  0.5064
   84CHL1   H2B 8671   4.197   2.856   7.143 -0.7554  0.4423 -1.9133
   84CHL1   C20 8672   4.090   2.359   7.972 -0.3159 -0.5432  0.2512
   84CHL1   H20 8673   4.079   2.434   8.054  1.7808  1.1383 -0.8766
   84CHL1   C21 8674   4.245   2.358   7.950 -0.4798 -0.5485  0.7156
   84CHL1  H21A 8675   4.301   2.328   8.041  3.6316  2.1113 -0.6683
   84CHL1  H21B 8676   4.285   2.460   7.931 -1.8342 -0.0087  0.6735
   84CHL1  H21C 8677   4.285   2.289   7.872  2.1205  0.0613  1.4288
   84CHL1   C22 8678   4.040   2.228   8.029  0.1151  0.2411  0.3702
   84CHL1  H22A 8679   3.938   2.200   7.996 -0.0481  3.7053 -2.7759
   84CHL1  H22B 8680   4.105   2.144   7.996  0.3815 -0.4242  2.4527
   84CHL1   C23 8681   4.049   2.224   8.186 -0.3769  0.4883 -0.4007
   84CHL1  H23A 8682   4.153   2.225   8.224 -0.6860  1.1827  0.4457
   84CHL1  H23B 8683   3.983   2.305   8.225 -0.8358  0.4480 -1.0732
   84CHL1   C24 8684   3.989   2.089   8.247 -0.3243 -0.6285  0.3808
   84CHL1  H24A 8685   3.885   2.065   8.217 -0.6503  2.0052 -0.9106
   84CHL1  H24B 8686   4.060   2.007   8.223 -0.4358 -0.8654  0.8637
   84CHL1   C25 8687   3.989   2.095   8.401  0.3337  0.3553 -0.3174
   84CHL1   H25 8688   4.089   2.134   8.431  0.6450 -1.1676  0.7075
   84CHL1   C26 8689   3.875   2.169   8.469  0.3874 -0.2592 -0.0164
   84CHL1  H26A 8690   3.778   2.118   8.453  0.5860 -0.4748 -0.5769
   84CHL1  H26B 8691   3.897   2.173   8.578 -1.5325  0.9250  0.3707
   84CHL1  H26C 8692   3.871   2.275   8.436  0.7091 -0.4077 -0.5496
   84CHL1   C27 8693   3.993   1.956   8.460 -0.0414  0.6827 -0.3356
   84CHL1  H27A 8694   3.996   1.970   8.570  2.1382 -0.2732 -0.2331
   84CHL1  H27B 8695   3.899   1.907   8.427 -0.6997 -0.3622  2.7447
   84CHL1  H27C 8696   4.082   1.898   8.426  0.6561  1.2992  0.3999
   85CHL1    C3 8697   4.985   1.290   6.863 -0.4213 -0.3307  0.2974
   85CHL1    H3 8698   4.899   1.359   6.873  0.8336  2.0686 -3.4377
   85CHL1    O3 8699   4.950   1.210   6.752 -0.1122  0.4420 -0.5134
   85CHL1   H3' 8700   5.005   1.244   6.681  0.4930  1.6538  0.5007
   85CHL1    C4 8701   5.113   1.375   6.848 -0.4341 -0.2379 -0.7207
   85CHL1   H4A 8702   5.202   1.314   6.822  0.0769  0.3978 -0.5048
   85CHL1   H4B 8703   5.100   1.449   6.766 -1.0941 -0.8672 -1.1906
   85CHL1    C5 8704   5.153   1.457   6.974 -0.2234 -0.1063  0.5935
   85CHL1    C6 8705   5.175   1.588   6.965  0.3269 -0.2805  0.1687
   85CHL1    H6 8706   5.172   1.641   6.868  1.4540 -0.5551 -0.0290
   85CHL1    C7 8707   5.211   1.677   7.078  0.0546 -0.3477 -0.3599
   85CHL1   H7A 8708   5.288   1.754   7.057  1.0322 -0.6943  1.6552
   85CHL1   H7B 8709   5.117   1.732   7.102 -0.1668 -1.3075  1.1439
   85CHL1    C8 8710   5.251   1.601   7.205 -0.1049  0.8997 -0.4121
   85CHL1    H8 8711   5.359   1.577   7.193  0.0500  1.2889  0.1308
   85CHL1   C14 8712   5.246   1.689   7.338  0.4412 -0.1082  0.0738
   85CHL1   H14 8713   5.137   1.709   7.349  0.2980 -1.3259  1.2058
   85CHL1   C15 8714   5.317   1.827   7.348 -0.2093  0.4554 -0.0470
   85CHL1  H15A 8715   5.421   1.819   7.311 -0.5206  0.8450 -1.0607
   85CHL1  H15B 8716   5.256   1.907   7.300 -1.7556  0.2382  1.4552
   85CHL1   C16 8717   5.337   1.848   7.501 -0.2547 -0.2175 -0.0999
   85CHL1  H16A 8718   5.441   1.866   7.535 -0.1449 -0.9864 -0.0003
   85CHL1  H16B 8719   5.269   1.926   7.540  2.5836  1.5853  1.5406
   85CHL1   C17 8720   5.290   1.710   7.572  0.4742 -0.6802 -0.4442
   85CHL1   H17 8721   5.182   1.736   7.582  0.9492  0.9203  0.9332
   85CHL1   C13 8722   5.291   1.609   7.461  0.2769  0.2854  0.0291
   85CHL1   C18 8723   5.437   1.560   7.453 -0.1083  0.2650  0.7038
   85CHL1  H18A 8724   5.433   1.493   7.365 -3.5424  0.6538  0.4290
   85CHL1  H18B 8725   5.511   1.639   7.430  1.3917 -1.3621 -0.2596
   85CHL1  H18C 8726   5.469   1.496   7.538 -0.5461 -1.4620 -0.3761
   85CHL1   C12 8727   5.182   1.507   7.485  0.3540  0.1339 -1.1685
   85CHL1  H12A 8728   5.213   1.438   7.567 -1.4424 -1.3875 -1.6992
   85CHL1  H12B 8729   5.088   1.541   7.532  0.5376 -1.4505  0.4585
   85CHL1   C11 8730   5.150   1.414   7.366  0.0441 -0.2506  0.7085
   85CHL1  H11A 8731   5.242   1.351   7.365  0.3244  0.1624 -0.2046
   85CHL1  H11B 8732   5.053   1.362   7.382 -1.1746  1.0862 -1.7787
   85CHL1    C9 8733   5.154   1.481   7.223 -0.0000  0.0328  0.8065
   85CHL1    H9 8734   5.055   1.533   7.226  0.1313  0.3847 -0.5117
   85CHL1   C10 8735   5.163   1.385   7.106 -0.8501 -0.6140 -0.4288
   85CHL1   C19 8736   5.297   1.311   7.114 -0.6562  0.1513 -0.2020
   85CHL1  H19A 8737   5.293   1.220   7.178 -0.5651 -0.0832 -0.5294
   85CHL1  H19B 8738   5.319   1.267   7.014  0.0296 -0.0772  0.0435
   85CHL1  H19C 8739   5.379   1.384   7.132 -0.3536  0.1785 -1.5784
   85CHL1    C1 8740   5.030   1.290   7.115 -0.3392 -0.3012  0.1287
   85CHL1   H1A 8741   5.038   1.225   7.205 -0.0006 -0.0377  0.2962
   85CHL1   H1B 8742   4.939   1.353   7.124 -1.2075 -1.3389 -1.1287
   85CHL1    C2 8743   5.010   1.200   6.991  0.0877  0.0037  0.2027
   85CHL1   H2A 8744   4.920   1.137   7.006  1.2884 -1.5230  1.3006
   85CHL1   H2B 8745   5.096   1.131   6.978  0.9849  0.7921  1.6907
   85CHL1   C20 8746   5.333   1.667   7.715 -0.1393 -0.1012 -0.6063
   85CHL1   H20 8747   5.345   1.557   7.712 -2.2763 -0.3995  0.4135
   85CHL1   C21 8748   5.226   1.704   7.818 -0.2373  0.5424 -0.2283
   85CHL1  H21A 8749   5.207   1.813   7.815  0.8075  0.7153 -0.8653
   85CHL1  H21B 8750   5.244   1.670   7.923 -3.0264 -1.7305 -0.3606
   85CHL1  H21C 8751   5.133   1.647   7.796  0.0089  0.3563 -0.7993
   85CHL1   C22 8752   5.462   1.730   7.761 -0.0556 -0.1061 -0.1536
   85CHL1  H22A 8753   5.544   1.722   7.686  1.3455  0.5008  1.2596
   85CHL1  H22B 8754   5.444   1.834   7.794 -1.3850 -0.0296 -1.0229
   85CHL1   C23 8755   5.512   1.657   7.882  0.8220  0.9091  0.3597
   85CHL1  H23A 8756   5.447   1.677   7.970 -0.7366  2.8188 -1.1099
   85CHL1  H23B 8757   5.515   1.547   7.867  0.6173  0.7948  1.1197
   85CHL1   C24 8758   5.654   1.704   7.927  0.8920  0.2973 -0.6175
   85CHL1  H24A 8759   5.723   1.671   7.846  0.4734 -0.5107 -0.6603
   85CHL1  H24B 8760   5.654   1.814   7.942  0.8078  0.0491  1.4495
   85CHL1   C25 8761   5.694   1.646   8.067  0.7666  0.3614  0.3113
   85CHL1   H25 8762   5.610   1.672   8.134  1.3588  1.1167  0.7711
   85CHL1   C26 8763   5.716   1.491   8.064 -0.7534  0.6794 -0.1780
   85CHL1  H26A 8764   5.765   1.460   8.159 -0.5373  0.1251 -0.4638
   85CHL1  H26B 8765   5.622   1.434   8.048 -0.3426  0.0226 -0.2812
   85CHL1  H26C 8766   5.779   1.466   7.976 -1.2063 -1.1327 -0.0214
   85CHL1   C27 8767   5.808   1.726   8.137  0.7683  0.1783 -0.4416
   85CHL1  H27A 8768   5.904   1.712   8.082 -1.0550  0.6042 -3.9849
   85CHL1  H27B 8769   5.775   1.832   8.134  0.5829  0.1069 -1.6363
   85CHL1  H27C 8770   5.816   1.689   8.241  3.0567  0.7962 -0.3371
   86CHL1    C3 8771   6.348   6.534   6.671 -0.4550 -0.2987 -0.0460
   86CHL1    H3 8772   6.452   6.545   6.708  0.0094  0.2424 -1.4589
   86CHL1    O3 8773   6.366   6.573   6.538 -0.7533 -0.6962  0.0652
   86CHL1   H3' 8774   6.432   6.516   6.497  0.4971  0.9137 -0.2657
   86CHL1    C4 8775   6.300   6.387   6.683  0.4304  0.2718  0.6564
   86CHL1   H4A 8776   6.213   6.376   6.615  0.2624 -2.5469  1.2211
   86CHL1   H4B 8777   6.383   6.319   6.656 -0.5593 -0.5407 -0.4286
   86CHL1    C5 8778   6.265   6.345   6.832 -0.0323  0.6563 -0.1211
   86CHL1    C6 8779   6.317   6.237   6.897 -0.7586  0.0791  0.0599
   86CHL1    H6 8780   6.379   6.162   6.846  0.0336 -0.7493  2.1439
   86CHL1    C7 8781   6.278   6.193   7.037 -0.6233  0.1096 -0.1714
   86CHL1   H7A 8782   6.251   6.086   7.043 -0.1737 -0.0182 -0.3513
   86CHL1   H7B 8783   6.367   6.198   7.103 -1.2246 -1.1773  0.7696
   86CHL1    C8 8784   6.170   6.276   7.103 -0.7772  0.5568  0.2258
   86CHL1    H8 8785   6.069   6.246   7.067 -1.5829  1.1222  1.9246
   86CHL1   C14 8786   6.179   6.273   7.255  0.0914  0.0883  0.1080
   86CHL1   H14 8787   6.278   6.314   7.284  0.3736 -0.5518  0.0559
   86CHL1   C15 8788   6.183   6.136   7.324 -0.4526  0.1806 -0.5749
   86CHL1  H15A 8789   6.107   6.075   7.270 -0.0747  0.7713 -1.8163
   86CHL1  H15B 8790   6.283   6.089   7.309 -1.2840 -1.5181 -1.0636
   86CHL1   C16 8791   6.141   6.157   7.477  0.3366 -0.2121  0.6599
   86CHL1  H16A 8792   6.054   6.090   7.493 -0.1293 -0.2603 -1.6540
   86CHL1  H16B 8793   6.227   6.145   7.546 -0.7048  1.3810  2.3021
   86CHL1   C17 8794   6.090   6.310   7.484  0.6343 -0.2419  0.3335
   86CHL1   H17 8795   6.183   6.363   7.513  0.4959 -0.1075  0.5353
   86CHL1   C13 8796   6.070   6.350   7.335  0.6891 -0.0619 -0.6587
   86CHL1   C18 8797   5.932   6.308   7.294 -0.5316 -0.6991  0.8048
   86CHL1  H18A 8798   5.923   6.297   7.184 -0.2480  0.2789  0.6762
   86CHL1  H18B 8799   5.909   6.213   7.346 -2.2002 -0.5980  0.3183
   86CHL1  H18C 8800   5.860   6.384   7.331 -1.2735 -0.5147 -0.9327
   86CHL1   C12 8801   6.098   6.495   7.309  0.6072 -0.0716 -0.3433
   86CHL1  H12A 8802   6.019   6.564   7.347  0.5637 -0.3558  0.0914
   86CHL1  H12B 8803   6.196   6.523   7.351  1.6989 -3.4128 -0.4085
   86CHL1   C11 8804   6.100   6.518   7.154  0.0662  0.1356 -0.2523
   86CHL1  H11A 8805   5.997   6.494   7.120 -0.2528  0.9570  0.1184
   86CHL1  H11B 8806   6.120   6.624   7.131  2.0876  0.1001  1.0769
   86CHL1    C9 8807   6.192   6.425   7.068 -0.5922  0.3850  0.0181
   86CHL1    H9 8808   6.295   6.450   7.099 -0.3930 -0.6116  0.1733
   86CHL1   C10 8809   6.182   6.448   6.917 -0.5383 -0.1618  0.7349
   86CHL1   C19 8810   6.035   6.447   6.875 -0.3329  0.7625  0.6403
   86CHL1  H19A 8811   5.970   6.517   6.931 -0.1573  1.2756  0.2037
   86CHL1  H19B 8812   6.021   6.465   6.767 -1.2033 -0.4910  0.5126
   86CHL1  H19C 8813   5.998   6.343   6.891 -0.4314  0.7897  0.5870
   86CHL1    C1 8814   6.236   6.589   6.891  0.2602  0.3621 -0.7319
   86CHL1   H1A 8815   6.167   6.662   6.940  1.7363  2.8074 -2.0992
   86CHL1   H1B 8816   6.334   6.604   6.941  1.0033  2.2200 -2.6093
   86CHL1    C2 8817   6.259   6.637   6.743  0.4519  0.1480  0.5356
   86CHL1   H2A 8818   6.313   6.734   6.734 -0.5484  0.5166 -3.4459
   86CHL1   H2B 8819   6.162   6.636   6.690  0.0054 -0.8885  1.3490
   86CHL1   C20 8820   5.990   6.336   7.599  0.4132  0.1084  0.3343
   86CHL1   H20 8821   5.904   6.268   7.581  0.8828 -0.6352  0.8633
   86CHL1   C21 8822   5.936   6.480   7.600 -0.3082  0.1811 -0.7152
   86CHL1  H21A 8823   6.020   6.551   7.613  0.1535 -0.2703 -1.2063
   86CHL1  H21B 8824   5.868   6.491   7.688  0.0148 -2.0294 -0.1216
   86CHL1  H21C 8825   5.869   6.496   7.513  0.3984 -1.0070 -1.5109
   86CHL1   C22 8826   6.052   6.298   7.725 -0.7421  0.0606  0.0662
   86CHL1  H22A 8827   6.113   6.206   7.712  2.1418  1.8351  0.2976
   86CHL1  H22B 8828   6.111   6.386   7.757  1.6025 -0.2013 -3.0948
   86CHL1   C23 8829   5.956   6.276   7.844 -0.0754  0.2059  0.3750
   86CHL1  H23A 8830   6.017   6.272   7.937 -1.0489 -0.2890  1.0091
   86CHL1  H23B 8831   5.885   6.361   7.851  0.1944  0.6146 -1.3496
   86CHL1   C24 8832   5.878   6.141   7.813 -0.4587  0.0274 -0.2677
   86CHL1  H24A 8833   5.793   6.158   7.743 -1.3331  0.6072  0.8994
   86CHL1  H24B 8834   5.945   6.058   7.782 -0.3454  0.0565 -0.0951
   86CHL1   C25 8835   5.823   6.089   7.946  0.2829  0.4952  0.1124
   86CHL1   H25 8836   5.909   6.063   8.011  0.6441  2.0911  0.3339
   86CHL1   C26 8837   5.725   6.190   8.018  0.0914  0.4392  0.0268
   86CHL1  H26A 8838   5.638   6.231   7.962 -1.1285  1.2076  2.3596
   86CHL1  H26B 8839   5.687   6.142   8.111  2.6486 -0.8847  0.4777
   86CHL1  H26C 8840   5.784   6.274   8.061 -0.2223  1.3619 -1.2620
   86CHL1   C27 8841   5.737   5.956   7.935 -0.4626 -0.2460 -0.5906
   86CHL1  H27A 8842   5.652   5.966   7.865 -1.2068  1.8462  0.5141
   86CHL1  H27B 8843   5.794   5.864   7.912 -1.6929 -1.0575 -0.4549
   86CHL1  H27C 8844   5.702   5.928   8.037 -1.0107 -0.8708 -0.9525
   87CHL1    C3 8845   0.500   3.209   6.564 -0.3678  0.2692  0.8206
   87CHL1    H3 8846   0.418   3.283   6.548  1.7696  2.0833 -3.4051
   87CHL1    O3 8847   0.548   3.171   6.435 -0.0621 -0.4884  0.7098
   87CHL1   H3' 8848   0.471   3.136   6.389  1.0446 -0.0852 -1.5827
   87CHL1    C4 8849   0.612   3.276   6.637 -0.5771  0.0294 -1.1507
   87CHL1   H4A 8850   0.701   3.209   6.642  1.0473  2.0057 -1.8827
   87CHL1   H4B 8851   0.632   3.373   6.585 -0.4404  1.1399  0.8857
   87CHL1    C5 8852   0.590   3.297   6.784  0.3801 -0.0355 -0.3012
   87CHL1    C6 8853   0.616   3.419   6.838 -0.5817 -0.7570 -0.1141
   87CHL1    H6 8854   0.644   3.508   6.778 -2.0728  1.9180  2.8744
   87CHL1    C7 8855   0.605   3.446   6.989  0.5541 -0.0006  0.0791
   87CHL1   H7A 8856   0.705   3.474   7.027  0.4205 -0.0601  0.4810
   87CHL1   H7B 8857   0.539   3.534   7.002 -1.5095 -1.6442  1.3900
   87CHL1    C8 8858   0.562   3.321   7.074  0.1034 -0.2846 -0.7659
   87CHL1    H8 8859   0.648   3.254   7.097 -0.0183 -0.0313  0.5045
   87CHL1   C14 8860   0.509   3.369   7.208  0.0044  0.2928  0.0136
   87CHL1   H14 8861   0.424   3.435   7.183 -0.0670  0.3187  0.3174
   87CHL1   C15 8862   0.602   3.453   7.294  0.7280 -0.3249  0.0650
   87CHL1  H15A 8863   0.703   3.409   7.304  2.1059  2.5234 -0.2227
   87CHL1  H15B 8864   0.609   3.555   7.250  1.7380 -0.4743 -0.1306
   87CHL1   C16 8865   0.517   3.451   7.424  0.1645 -0.5682 -0.0375
   87CHL1  H16A 8866   0.583   3.434   7.512  0.0642  1.3836  0.4605
   87CHL1  H16B 8867   0.474   3.553   7.431 -0.5910 -0.8296 -0.7432
   87CHL1   C17 8868   0.401   3.343   7.413  0.1783 -0.0579 -0.0923
   87CHL1   H17 8869   0.311   3.400   7.383 -0.6992 -0.7954  1.0383
   87CHL1   C13 8870   0.448   3.260   7.293  0.0062  0.5188 -0.6398
   87CHL1   C18 8871   0.556   3.158   7.334 -0.3965  0.2553  0.1062
   87CHL1  H18A 8872   0.617   3.125   7.248  0.2973 -0.1334  0.7282
   87CHL1  H18B 8873   0.620   3.189   7.420  0.5106 -3.0061  0.7629
   87CHL1  H18C 8874   0.512   3.067   7.381  0.7768 -1.1842 -1.4368
   87CHL1   C12 8875   0.335   3.196   7.216 -0.8913  0.3002  0.2188
   87CHL1  H12A 8876   0.285   3.106   7.257 -0.8285  0.3422  0.3881
   87CHL1  H12B 8877   0.257   3.271   7.190 -2.7594 -0.7247  2.5021
   87CHL1   C11 8878   0.390   3.139   7.086 -0.6358  0.0502  0.9401
   87CHL1  H11A 8879   0.466   3.066   7.120 -0.2194 -0.1755 -0.4439
   87CHL1  H11B 8880   0.309   3.088   7.030  1.1438 -0.4523 -1.3148
   87CHL1    C9 8881   0.458   3.245   6.999 -0.8531  0.2964  0.2865
   87CHL1    H9 8882   0.378   3.318   6.972 -2.2959 -0.3527  2.5271
   87CHL1   C10 8883   0.519   3.185   6.868  0.2147 -0.2232  0.0206
   87CHL1   C19 8884   0.619   3.069   6.911  0.1726 -0.2466  1.0566
   87CHL1  H19A 8885   0.573   2.992   6.977 -0.5907 -1.1450 -0.4686
   87CHL1  H19B 8886   0.659   3.017   6.821 -0.9673  0.3759  0.1658
   87CHL1  H19C 8887   0.709   3.098   6.970  1.0326  0.0321 -0.3343
   87CHL1    C1 8888   0.398   3.134   6.784 -0.6246 -0.2077  0.7641
   87CHL1   H1A 8889   0.369   3.037   6.831 -2.9895 -1.6487 -3.1861
   87CHL1   H1B 8890   0.317   3.209   6.791  0.2457  0.7833  0.5917
   87CHL1    C2 8891   0.435   3.092   6.641 -0.1259  0.1119  0.0813
   87CHL1   H2A 8892   0.344   3.054   6.589  0.3065 -1.9584  0.7287
   87CHL1   H2B 8893   0.499   3.001   6.643  0.0262  0.1917  2.6772
   87CHL1   C20 8894   0.360   3.266   7.539  0.1961 -0.2711  0.0901
   87CHL1   H20 8895   0.442   3.196   7.565  2.3163  1.6953 -0.9131
   87CHL1   C21 8896   0.227   3.183   7.513 -0.5998 -0.0364 -0.2440
   87CHL1  H21A 8897   0.168   3.168   7.607 -1.0325  0.6785 -0.3933
   87CHL1  H21B 8898   0.251   3.084   7.469 -2.9654  0.0563 -1.9344
   87CHL1  H21C 8899   0.160   3.232   7.440  0.5362  1.8108 -0.1063
   87CHL1   C22 8900   0.343   3.356   7.658  0.0453  0.2539 -0.6019
   87CHL1  H22A 8901   0.289   3.286   7.726 -1.2007  0.6215 -1.1773
   87CHL1  H22B 8902   0.439   3.375   7.709 -0.1867 -1.9120  0.8088
   87CHL1   C23 8903   0.254   3.483   7.636 -0.3826  0.5085 -0.3047
   87CHL1  H23A 8904   0.297   3.557   7.565 -0.7339  1.8061  0.8077
   87CHL1  H23B 8905   0.171   3.435   7.580  1.3491 -1.1463 -1.6093
   87CHL1   C24 8906   0.215   3.543   7.766  0.3024 -0.5324 -0.0154
   87CHL1  H24A 8907   0.161   3.465   7.823  0.2338  0.0264  0.7115
   87CHL1  H24B 8908   0.316   3.549   7.812 -0.0042  0.2924  0.5696
   87CHL1   C25 8909   0.161   3.685   7.760 -0.9148 -0.2679 -0.3630
   87CHL1   H25 8910   0.227   3.743   7.691  0.3714  0.4094  1.3714
   87CHL1   C26 8911   0.024   3.696   7.702  0.0134 -0.3658  0.2347
   87CHL1  H26A 8912   0.007   3.611   7.633  1.1351 -2.3118  2.2266
   87CHL1  H26B 8913  -0.055   3.694   7.781 -2.0436  1.8131 -1.6178
   87CHL1  H26C 8914   0.024   3.797   7.656  3.1611  0.7331  2.3158
   87CHL1   C27 8915   0.174   3.748   7.898  0.3060  0.3165 -0.4923
   87CHL1  H27A 8916   0.122   3.846   7.894 -1.0597 -0.3106  0.9755
   87CHL1  H27B 8917   0.107   3.695   7.970 -1.8274  0.4352 -2.2515
   87CHL1  H27C 8918   0.283   3.758   7.914  0.3788 -1.0276 -0.0277
   88CHL1    C3 8919   3.576   1.699   6.758  0.2121 -0.0438 -0.7035
   88CHL1    H3 8920   3.466   1.707   6.751  0.2357 -0.7447 -2.1573
   88CHL1    O3 8921   3.645   1.728   6.637  0.1108 -0.0285  0.7051
   88CHL1   H3' 8922   3.669   1.820   6.650 -1.9620  0.3561  2.6176
   88CHL1    C4 8923   3.625   1.807   6.851 -0.1251  0.3016 -0.4007
   88CHL1   H4A 8924   3.736   1.799   6.854 -0.0537  0.1055 -2.1119
   88CHL1   H4B 8925   3.596   1.901   6.799  2.7633  0.4163 -2.0597
   88CHL1    C5 8926   3.568   1.803   6.986  0.7590 -0.2585 -0.7655
   88CHL1    C6 8927   3.495   1.899   7.050 -0.0879  0.1683 -0.6048
   88CHL1    H6 8928   3.464   1.988   6.993  0.5576 -0.6964 -2.3557
   88CHL1    C7 8929   3.442   1.887   7.189 -0.5082 -0.6617  0.5317
   88CHL1   H7A 8930   3.450   1.979   7.251 -2.6093 -0.0796  0.0247
   88CHL1   H7B 8931   3.334   1.862   7.180 -1.4424  2.4686  1.5669
   88CHL1    C8 8932   3.514   1.779   7.273  0.3337  0.1217 -0.1318
   88CHL1    H8 8933   3.618   1.809   7.301  1.3352 -3.6045  0.7569
   88CHL1   C14 8934   3.443   1.753   7.397  0.3358 -0.0246  0.5136
   88CHL1   H14 8935   3.338   1.744   7.363  1.0168  2.2587 -2.6581
   88CHL1   C15 8936   3.430   1.860   7.507  0.1382 -0.1120 -0.4886
   88CHL1  H15A 8937   3.526   1.909   7.532  0.0901 -0.0676 -0.3921
   88CHL1  H15B 8938   3.363   1.941   7.470  0.1331  0.4066  0.6301
   88CHL1   C16 8939   3.372   1.784   7.627 -0.3143  0.2045  0.1820
   88CHL1  H16A 8940   3.426   1.820   7.717 -0.7973  1.0554  0.1373
   88CHL1  H16B 8941   3.264   1.810   7.638 -0.4844 -0.4738  0.1801
   88CHL1   C17 8942   3.387   1.631   7.598 -0.1293 -0.1264 -0.1196
   88CHL1   H17 8943   3.291   1.590   7.561 -0.6444  0.4302  0.5732
   88CHL1   C13 8944   3.480   1.627   7.478  0.4865 -1.0045  0.1077
   88CHL1   C18 8945   3.632   1.641   7.527 -0.2319 -0.4874 -0.3728
   88CHL1  H18A 8946   3.710   1.665   7.452  1.0916 -0.0329  1.1273
   88CHL1  H18B 8947   3.639   1.717   7.607  0.7348 -1.1921  0.2243
   88CHL1  H18C 8948   3.661   1.540   7.565 -0.8111 -1.0507 -1.3742
   88CHL1   C12 8949   3.461   1.508   7.386  0.3703  0.2716 -0.5063
   88CHL1  H12A 8950   3.490   1.415   7.440  1.0680  1.2776  0.8859
   88CHL1  H12B 8951   3.353   1.500   7.360  0.5147 -0.6346 -0.8792
   88CHL1   C11 8952   3.542   1.523   7.254 -0.1098  0.3101 -0.0249
   88CHL1  H11A 8953   3.648   1.528   7.286  0.2163  1.2745 -1.1668
   88CHL1  H11B 8954   3.516   1.433   7.195  1.0110 -0.1796  0.2224
   88CHL1    C9 8955   3.509   1.654   7.184 -0.2962 -0.0066 -0.1057
   88CHL1    H9 8956   3.403   1.643   7.153 -0.2292 -0.1315 -0.2904
   88CHL1   C10 8957   3.596   1.664   7.048  1.2224 -0.2162 -0.1584
   88CHL1   C19 8958   3.751   1.658   7.079  1.2821  0.3170 -0.1718
   88CHL1  H19A 8959   3.812   1.639   6.988  0.2098  0.4840 -0.9427
   88CHL1  H19B 8960   3.785   1.754   7.124  2.0322  0.1969 -0.4695
   88CHL1  H19C 8961   3.787   1.570   7.136 -1.3083  0.2846  1.5817
   88CHL1    C1 8962   3.554   1.553   6.957 -0.0050 -0.0719  0.2264
   88CHL1   H1A 8963   3.582   1.451   6.993 -0.4407 -0.7605 -1.3367
   88CHL1   H1B 8964   3.444   1.562   6.948  0.0356 -0.7874 -1.1665
   88CHL1    C2 8965   3.611   1.560   6.813 -0.5924  0.8216 -0.5256
   88CHL1   H2A 8966   3.575   1.483   6.742 -3.9052  1.6355  0.0716
   88CHL1   H2B 8967   3.721   1.549   6.808 -0.5897  0.7969 -0.4192
   88CHL1   C20 8968   3.425   1.550   7.723 -0.3517  0.2733 -0.1731
   88CHL1   H20 8969   3.529   1.575   7.752 -0.0640 -1.9607  0.9293
   88CHL1   C21 8970   3.410   1.401   7.688 -0.0528  0.0110 -0.0987
   88CHL1  H21A 8971   3.419   1.335   7.777  0.0464 -0.4449 -0.4383
   88CHL1  H21B 8972   3.491   1.374   7.617  0.0836  2.9051 -1.1755
   88CHL1  H21C 8973   3.317   1.371   7.635 -1.6620  1.6537  1.6599
   88CHL1   C22 8974   3.321   1.578   7.838  0.0693  0.1102 -0.4866
   88CHL1  H22A 8975   3.325   1.688   7.850 -1.7650  0.3419 -1.6206
   88CHL1  H22B 8976   3.220   1.541   7.809 -1.0883  1.0192  2.0941
   88CHL1   C23 8977   3.361   1.509   7.970  0.0100  0.2110 -0.4603
   88CHL1  H23A 8978   3.360   1.398   7.977 -0.3388  0.2243 -0.2436
   88CHL1  H23B 8979   3.459   1.546   8.007  0.0145 -2.2492  2.4402
   88CHL1   C24 8980   3.265   1.557   8.078  0.6021 -0.4047 -0.9745
   88CHL1  H24A 8981   3.236   1.663   8.091 -2.0139 -1.2735  1.5104
   88CHL1  H24B 8982   3.166   1.514   8.050 -0.1432  0.6943 -0.0770
   88CHL1   C25 8983   3.284   1.493   8.219 -0.0288 -0.4264 -0.0523
   88CHL1   H25 8984   3.392   1.468   8.227  0.2605  1.2528  2.2587
   88CHL1   C26 8985   3.262   1.598   8.333 -0.0096 -0.3379  0.2977
   88CHL1  H26A 8986   3.155   1.626   8.332  0.2093  0.6542 -2.1010
   88CHL1  H26B 8987   3.291   1.554   8.431  1.9596 -0.3967 -0.2615
   88CHL1  H26C 8988   3.323   1.687   8.309 -2.9779  1.1751 -2.4054
   88CHL1   C27 8989   3.186   1.373   8.251 -1.1783 -0.5680  0.3799
   88CHL1  H27A 8990   3.080   1.405   8.240 -0.2911  2.3313 -0.6212
   88CHL1  H27B 8991   3.211   1.296   8.175 -2.0533 -2.5339  1.9816
   88CHL1  H27C 8992   3.214   1.337   8.352 -1.8474  0.2139  0.8517
   89CHL1    C3 8993   0.525   5.834   7.082 -0.4319  0.9507  0.8417
   89CHL1    H3 8994   0.431   5.877   7.124 -1.6257 -0.4816 -0.2265
   89CHL1    O3 8995   0.506   5.844   6.938 -0.8050 -0.2196  0.1796
   89CHL1   H3' 8996   0.593   5.832   6.898 -1.6218 -0.0925 -1.7594
   89CHL1    C4 8997   0.646   5.911   7.117  0.2000 -0.4455 -0.5875
   89CHL1   H4A 8998   0.742   5.887   7.067  0.4696  0.7975 -0.6971
   89CHL1   H4B 8999   0.628   6.019   7.104  2.7166  0.1145  0.0643
   89CHL1    C5 9000   0.668   5.891   7.267  0.0995  0.1045  0.6047
   89CHL1    C6 9001   0.676   6.000   7.346  0.2466  0.5931  0.2805
   89CHL1    H6 9002   0.666   6.101   7.301  0.1275  0.0076 -1.0503
   89CHL1    C7 9003   0.711   5.992   7.491  0.0556 -0.1754  0.5522
   89CHL1   H7A 9004   0.785   6.071   7.519  0.7609 -0.9613  0.9445
   89CHL1   H7B 9005   0.621   6.025   7.548  0.4355  0.1388  0.9791
   89CHL1    C8 9006   0.761   5.851   7.532  0.1111  0.2378  0.6736
   89CHL1    H8 9007   0.864   5.839   7.491 -0.2985  0.5457 -0.4922
   89CHL1   C14 9008   0.771   5.837   7.681 -0.4309  0.3630 -0.3157
   89CHL1   H14 9009   0.668   5.853   7.718  0.3621 -0.8033  2.6777
   89CHL1   C15 9010   0.854   5.938   7.755  1.2473  0.8565 -0.8209
   89CHL1  H15A 9011   0.953   5.952   7.707  1.5092 -0.8974 -0.8300
   89CHL1  H15B 9012   0.802   6.036   7.764  0.6267  0.4846 -0.2798
   89CHL1   C16 9013   0.885   5.876   7.889  0.0746  0.0475  0.8380
   89CHL1  H16A 9014   0.994   5.873   7.908 -0.0974  1.1466  2.1507
   89CHL1  H16B 9015   0.845   5.936   7.974 -0.6708  2.5384 -1.1340
   89CHL1   C17 9016   0.830   5.729   7.891 -0.0557 -0.1276 -0.9196
   89CHL1   H17 9017   0.727   5.725   7.932  0.4482 -2.0200  0.2665
   89CHL1   C13 9018   0.811   5.699   7.734  0.0596  0.3106  0.6390
   89CHL1   C18 9019   0.950   5.667   7.676  0.6334  0.5553 -0.5904
   89CHL1  H18A 9020   0.953   5.559   7.702 -3.1073  0.6087  0.5890
   89CHL1  H18B 9021   0.957   5.674   7.565 -0.2102  0.4505 -0.6585
   89CHL1  H18C 9022   1.030   5.724   7.728  0.8185  1.0061 -1.3599
   89CHL1   C12 9023   0.696   5.605   7.695 -0.6283  0.3631 -0.0152
   89CHL1  H12A 9024   0.709   5.506   7.742  0.7611  1.1336  1.3058
   89CHL1  H12B 9025   0.601   5.643   7.739  0.2438  0.3482  1.9795
   89CHL1   C11 9026   0.683   5.604   7.542 -0.3965  0.1654  0.2570
   89CHL1  H11A 9027   0.771   5.546   7.509  1.0254  1.0945  2.1647
   89CHL1  H11B 9028   0.589   5.548   7.521 -1.5775  2.1408  0.0122
   89CHL1    C9 9029   0.666   5.746   7.476 -1.0049  0.8623 -0.6097
   89CHL1    H9 9030   0.568   5.777   7.519 -0.5646  0.7702  0.4900
   89CHL1   C10 9031   0.672   5.746   7.324 -0.4562  1.4394 -0.2771
   89CHL1   C19 9032   0.798   5.665   7.281  0.1958  0.1428  0.3283
   89CHL1  H19A 9033   0.770   5.558   7.290 -1.3507  0.3860 -1.0161
   89CHL1  H19B 9034   0.834   5.695   7.180  0.5863 -2.1954 -0.2907
   89CHL1  H19C 9035   0.880   5.691   7.351  0.6250  0.1873 -0.1807
   89CHL1    C1 9036   0.544   5.677   7.276 -0.1483  0.8573  0.1148
   89CHL1   H1A 9037   0.525   5.575   7.315 -0.3168  0.8440 -0.0041
   89CHL1   H1B 9038   0.457   5.727   7.323 -1.3280 -2.5822  1.9514
   89CHL1    C2 9039   0.530   5.682   7.126  0.1073  0.0596 -0.0676
   89CHL1   H2A 9040   0.432   5.638   7.097  0.3468 -1.3554  1.1774
   89CHL1   H2B 9041   0.617   5.642   7.069  0.8764  0.7131  0.6161
   89CHL1   C20 9042   0.911   5.622   7.965 -0.2444 -0.8256  0.5478
   89CHL1   H20 9043   1.009   5.626   7.913  0.1836 -0.9360  1.3202
   89CHL1   C21 9044   0.846   5.476   7.953  0.2185 -0.1709 -0.3821
   89CHL1  H21A 9045   0.875   5.437   7.853 -1.5165  0.1702 -1.0395
   89CHL1  H21B 9046   0.736   5.471   7.960 -0.0516  3.2736 -0.3741
   89CHL1  H21C 9047   0.896   5.411   8.028  0.7427  2.0037  1.2489
   89CHL1   C22 9048   0.933   5.652   8.118  0.3639  0.0404  0.4308
   89CHL1  H22A 9049   0.990   5.570   8.167 -2.2607 -1.5050  1.0518
   89CHL1  H22B 9050   0.991   5.747   8.120 -1.0604  0.9359  2.4344
   89CHL1   C23 9051   0.809   5.683   8.198 -0.2029 -0.2718  0.4444
   89CHL1  H23A 9052   0.754   5.768   8.153  0.4239 -0.3317 -0.4664
   89CHL1  H23B 9053   0.743   5.595   8.190 -0.4619  0.0865 -2.8368
   89CHL1   C24 9054   0.844   5.716   8.345  0.7147 -0.3679  0.8465
   89CHL1  H24A 9055   0.912   5.633   8.375  1.7671  0.0960 -0.1855
   89CHL1  H24B 9056   0.912   5.804   8.349  1.1199 -0.6140 -0.1739
   89CHL1   C25 9057   0.720   5.719   8.430  0.1815  0.6155 -0.5242
   89CHL1   H25 9058   0.639   5.778   8.381 -0.1414  0.8528  0.2808
   89CHL1   C26 9059   0.657   5.580   8.470 -0.3761  0.5643 -0.0904
   89CHL1  H26A 9060   0.592   5.601   8.557 -0.9612  2.5251 -0.9260
   89CHL1  H26B 9061   0.591   5.539   8.391 -2.5566  2.0529  0.8621
   89CHL1  H26C 9062   0.731   5.505   8.504 -0.9177  0.4173  0.7824
   89CHL1   C27 9063   0.765   5.789   8.560  0.2978  0.1091 -0.4983
   89CHL1  H27A 9064   0.833   5.875   8.542  0.3552  0.3464  0.7590
   89CHL1  H27B 9065   0.684   5.820   8.629  0.9117  3.0055 -0.9300
   89CHL1  H27C 9066   0.823   5.720   8.625  0.0252  1.4713  1.2526
   90CHL1    C3 9067   5.471   6.561   6.956  0.0812  0.5004  0.0474
   90CHL1    H3 9068   5.417   6.656   6.972 -0.8550  0.3585 -2.0123
   90CHL1    O3 9069   5.514   6.556   6.824  0.2396  0.3243  0.0900
   90CHL1   H3' 9070   5.574   6.482   6.832 -0.1086  0.2065  1.9123
   90CHL1    C4 9071   5.599   6.545   7.042  0.2405  0.2883  0.1912
   90CHL1   H4A 9072   5.668   6.462   7.015 -0.1751 -0.8350  2.3250
   90CHL1   H4B 9073   5.659   6.637   7.026  0.8844 -0.2195 -0.3451
   90CHL1    C5 9074   5.563   6.534   7.192 -0.1943  0.0035  0.8988
   90CHL1    C6 9075   5.597   6.620   7.284 -0.3932 -0.2608  0.0115
   90CHL1    H6 9076   5.653   6.710   7.254 -0.3476 -0.6856 -1.2658
   90CHL1    C7 9077   5.564   6.615   7.431 -0.5072  0.2273 -0.7743
   90CHL1   H7A 9078   5.661   6.637   7.480  0.0835 -1.0953 -1.3002
   90CHL1   H7B 9079   5.484   6.686   7.459  0.5915  0.0854  3.3738
   90CHL1    C8 9080   5.520   6.471   7.472  0.0964  0.1308  0.2559
   90CHL1    H8 9081   5.609   6.404   7.466 -0.2267 -0.4304  1.3663
   90CHL1   C14 9082   5.450   6.471   7.609  0.0058 -0.3483  0.0993
   90CHL1   H14 9083   5.353   6.526   7.615 -1.5507 -3.0248  0.9945
   90CHL1   C15 9084   5.532   6.543   7.721 -0.3134 -0.5891  0.6081
   90CHL1  H15A 9085   5.637   6.506   7.711 -0.9764 -2.8952  1.5279
   90CHL1  H15B 9086   5.537   6.654   7.718 -0.9602 -0.4258  3.0522
   90CHL1   C16 9087   5.483   6.482   7.851 -0.6635  0.4159  0.2341
   90CHL1  H16A 9088   5.574   6.440   7.899 -1.5205 -2.5416 -0.5302
   90CHL1  H16B 9089   5.437   6.561   7.913 -2.5627  0.0749 -0.6811
   90CHL1   C17 9090   5.373   6.383   7.809 -0.3569  0.1334  0.6034
   90CHL1   H17 9091   5.275   6.435   7.814 -0.2720  0.4210 -0.5822
   90CHL1   C13 9092   5.407   6.337   7.668 -0.0159  0.0058  1.0348
   90CHL1   C18 9093   5.530   6.243   7.668 -0.5737  0.1177  0.6809
   90CHL1  H18A 9094   5.605   6.264   7.746  0.1870 -1.6992  0.4882
   90CHL1  H18B 9095   5.495   6.140   7.693 -0.0547 -0.8762 -2.2866
   90CHL1  H18C 9096   5.582   6.231   7.570 -1.0263  1.3951  0.2651
   90CHL1   C12 9097   5.304   6.278   7.564  0.5714 -0.5583 -0.3045
   90CHL1  H12A 9098   5.270   6.177   7.594 -1.5141  0.1989  0.0129
   90CHL1  H12B 9099   5.205   6.329   7.567  0.2500 -1.2000  2.4151
   90CHL1   C11 9100   5.356   6.276   7.418 -0.6730 -0.5925 -0.3183
   90CHL1  H11A 9101   5.429   6.193   7.407 -0.3730 -0.5421  1.1111
   90CHL1  H11B 9102   5.278   6.250   7.344 -0.5426 -0.4190 -0.5180
   90CHL1    C9 9103   5.424   6.415   7.373  0.2573  0.2603  0.2604
   90CHL1    H9 9104   5.337   6.485   7.372 -2.0604 -2.4523 -0.7878
   90CHL1   C10 9105   5.474   6.418   7.223  0.2781  0.0483  0.0748
   90CHL1   C19 9106   5.550   6.287   7.188  0.2153  0.0731  0.4712
   90CHL1  H19A 9107   5.625   6.251   7.262 -0.3834 -1.6582  0.2655
   90CHL1  H19B 9108   5.482   6.201   7.172  0.3126  0.1900 -0.6907
   90CHL1  H19C 9109   5.599   6.297   7.089  0.0512 -0.8116  0.3005
   90CHL1    C1 9110   5.344   6.428   7.132 -0.3912  0.4845  0.6915
   90CHL1   H1A 9111   5.267   6.352   7.158  0.2164  0.0585  1.2767
   90CHL1   H1B 9112   5.293   6.523   7.159 -0.5379  0.1697  1.5471
   90CHL1    C2 9113   5.378   6.443   6.982  0.7880 -0.1944  0.3957
   90CHL1   H2A 9114   5.293   6.442   6.910  1.3166  1.1715 -0.2738
   90CHL1   H2B 9115   5.435   6.353   6.950 -1.7041 -1.3670 -1.0962
   90CHL1   C20 9116   5.341   6.271   7.911  0.2018  0.0045 -0.1552
   90CHL1   H20 9117   5.415   6.188   7.907  1.0939  0.8059 -0.7643
   90CHL1   C21 9118   5.197   6.215   7.887  0.0382 -0.1375 -0.1835
   90CHL1  H21A 9119   5.192   6.139   7.806  1.0853 -1.3469  0.8429
   90CHL1  H21B 9120   5.135   6.304   7.863 -0.4959  0.3059  2.5488
   90CHL1  H21C 9121   5.157   6.165   7.977 -0.1343 -0.0772 -0.2259
   90CHL1   C22 9122   5.362   6.323   8.055 -0.6399 -0.3326 -0.0325
   90CHL1  H22A 9123   5.468   6.354   8.060  0.2862 -2.7780 -2.0842
   90CHL1  H22B 9124   5.299   6.409   8.087  1.2637  1.3311 -0.5879
   90CHL1   C23 9125   5.342   6.205   8.164 -0.0524  0.1171  0.2583
   90CHL1  H23A 9126   5.238   6.195   8.201 -1.3319  1.8258 -2.5799
   90CHL1  H23B 9127   5.375   6.117   8.105 -1.0988 -1.4437  1.9147
   90CHL1   C24 9128   5.443   6.224   8.277  0.6801 -0.8355 -0.0209
   90CHL1  H24A 9129   5.467   6.132   8.333  2.3592 -1.0835 -1.0580
   90CHL1  H24B 9130   5.543   6.248   8.234  1.3262 -1.2319  1.2426
   90CHL1   C25 9131   5.413   6.346   8.367  0.3556 -0.2732 -0.2061
   90CHL1   H25 9132   5.408   6.434   8.299  0.5510  0.7314  1.0384
   90CHL1   C26 9133   5.269   6.337   8.431 -0.1842 -0.0321 -0.2140
   90CHL1  H26A 9134   5.270   6.258   8.508  1.0358  0.1295 -0.0412
   90CHL1  H26B 9135   5.250   6.430   8.489  0.3754 -0.7927  1.2176
   90CHL1  H26C 9136   5.181   6.343   8.363  0.7267 -0.1729 -1.4344
   90CHL1   C27 9137   5.499   6.374   8.488  0.6580 -0.3355  0.3424
   90CHL1  H27A 9138   5.470   6.472   8.532  1.7403 -0.1452  0.6830
   90CHL1  H27B 9139   5.494   6.296   8.567  1.8742  1.2678  2.1041
   90CHL1  H27C 9140   5.604   6.386   8.454  1.3545  1.5155  2.8014
   91CHL1    C3 9141   3.076   2.644   7.172 -0.2331  0.5398 -0.0202
   91CHL1    H3 9142   3.144   2.732   7.177  0.8326 -0.2520 -0.2399
   91CHL1    O3 9143   3.079   2.580   7.047 -0.3299 -0.2852  0.1108
   91CHL1   H3' 9144   3.055   2.487   7.059 -0.1210 -0.1495  1.7869
   91CHL1    C4 9145   3.107   2.534   7.276  0.0315  0.0409 -0.0805
   91CHL1   H4A 9146   3.038   2.450   7.255  0.3363 -0.2219 -0.0371
   91CHL1   H4B 9147   3.206   2.489   7.255  0.6832 -0.2152  2.9767
   91CHL1    C5 9148   3.090   2.584   7.418 -0.6877 -0.4797 -0.3138
   91CHL1    C6 9149   3.189   2.562   7.506 -0.2936  0.2106  0.5735
   91CHL1    H6 9150   3.279   2.505   7.479 -1.2811 -0.7478 -0.7901
   91CHL1    C7 9151   3.191   2.601   7.647  0.3369  0.0237 -0.2970
   91CHL1   H7A 9152   3.226   2.516   7.708  0.6770  0.2297 -0.1982
   91CHL1   H7B 9153   3.256   2.689   7.668 -1.1867  0.3965  3.8136
   91CHL1    C8 9154   3.057   2.647   7.702  0.6140 -0.9803 -0.2461
   91CHL1    H8 9155   2.993   2.559   7.725 -0.5506  0.0326  0.5229
   91CHL1   C14 9156   3.076   2.727   7.824 -1.0280  0.6405 -1.4169
   91CHL1   H14 9157   3.135   2.813   7.786  0.9232 -0.1265 -0.3141
   91CHL1   C15 9158   3.144   2.665   7.943  0.0161 -0.0127 -0.8251
   91CHL1  H15A 9159   3.102   2.567   7.974  1.5193 -0.2905  0.4432
   91CHL1  H15B 9160   3.253   2.651   7.927 -0.1891 -0.9025 -1.4822
   91CHL1   C16 9161   3.124   2.774   8.045  0.5707 -0.2133  0.5045
   91CHL1  H16A 9162   3.092   2.731   8.143  1.5707 -1.6583  0.2383
   91CHL1  H16B 9163   3.216   2.834   8.063  1.0625 -0.8337  0.1046
   91CHL1   C17 9164   3.007   2.865   8.002 -0.5358 -0.3571  0.1516
   91CHL1   H17 9165   3.054   2.954   7.957  0.0868  0.3993  2.1661
   91CHL1   C13 9166   2.944   2.787   7.883  0.0691 -0.2049 -0.5163
   91CHL1   C18 9167   2.848   2.684   7.944 -0.7059 -0.0594 -0.0149
   91CHL1  H18A 9168   2.884   2.643   8.041 -2.1514 -1.4235 -0.0015
   91CHL1  H18B 9169   2.748   2.732   7.949 -0.5484  0.1758  1.0198
   91CHL1  H18C 9170   2.819   2.597   7.880 -2.2413  0.3186  0.1338
   91CHL1   C12 9171   2.867   2.873   7.782 -0.1148  0.5236  0.0766
   91CHL1  H12A 9172   2.772   2.917   7.819 -0.1150  1.5882 -1.1062
   91CHL1  H12B 9173   2.932   2.962   7.765 -0.2857  1.3209  3.0481
   91CHL1   C11 9174   2.846   2.791   7.657  0.2809  0.4656  0.5229
   91CHL1  H11A 9175   2.777   2.706   7.672  0.3193  0.6492  1.8535
   91CHL1  H11B 9176   2.797   2.847   7.574 -1.1662 -1.1203  0.2517
   91CHL1    C9 9177   2.980   2.733   7.599 -0.4647 -0.6096  0.3951
   91CHL1    H9 9178   3.037   2.827   7.583  0.3606 -1.2959 -0.8791
   91CHL1   C10 9179   2.965   2.661   7.463 -0.0771 -0.4032  0.8069
   91CHL1   C19 9180   2.847   2.566   7.470 -0.0808  0.0057 -0.1718
   91CHL1  H19A 9181   2.827   2.506   7.379 -0.9929 -0.6243  0.4268
   91CHL1  H19B 9182   2.863   2.486   7.545  1.1539  0.4348  0.0428
   91CHL1  H19C 9183   2.752   2.617   7.496  0.3947  0.4967  0.6558
   91CHL1    C1 9184   2.939   2.763   7.352  0.0067 -0.5751 -0.6844
   91CHL1   H1A 9185   2.841   2.814   7.360  0.1089 -0.4532 -0.2017
   91CHL1   H1B 9186   3.010   2.849   7.357  0.1131 -0.6879 -0.2871
   91CHL1    C2 9187   2.944   2.705   7.205  0.5508 -0.3329 -0.4179
   91CHL1   H2A 9188   2.929   2.796   7.143  3.4860 -0.4933 -1.5376
   91CHL1   H2B 9189   2.859   2.633   7.202 -3.3350  3.7492  0.6819
   91CHL1   C20 9190   2.919   2.916   8.125  0.0348  0.5903  0.0019
   91CHL1   H20 9191   2.873   2.831   8.180  0.0437  0.4662 -0.1821
   91CHL1   C21 9192   2.810   3.012   8.080 -0.0488  0.7279  0.4365
   91CHL1  H21A 9193   2.770   3.055   8.174  2.3226  0.1051  1.8079
   91CHL1  H21B 9194   2.725   2.963   8.028  1.9116  1.8323 -4.3794
   91CHL1  H21C 9195   2.856   3.096   8.023  2.4961  0.4517  1.9480
   91CHL1   C22 9196   3.006   2.984   8.235 -0.2846 -0.3899 -0.8506
   91CHL1  H22A 9197   3.110   2.943   8.236 -0.5788 -1.2120  0.8516
   91CHL1  H22B 9198   3.009   3.089   8.201  0.0812  0.5452  1.8283
   91CHL1   C23 9199   2.946   2.977   8.373  0.4443  0.0617  0.1380
   91CHL1  H23A 9200   2.838   3.004   8.365  0.5716 -0.0142 -2.8865
   91CHL1  H23B 9201   2.943   2.869   8.400  1.8835 -0.2113 -0.6703
   91CHL1   C24 9202   3.027   3.050   8.480  0.3568  0.4652 -0.0293
   91CHL1  H24A 9203   3.133   3.017   8.474  0.3494  0.6730 -2.0054
   91CHL1  H24B 9204   3.033   3.159   8.460  2.3676  0.8181  1.9909
   91CHL1   C25 9205   2.971   3.035   8.620 -0.5694  0.6427 -0.1767
   91CHL1   H25 9206   2.907   2.944   8.610 -0.2470  0.4950 -0.9678
   91CHL1   C26 9207   3.070   3.041   8.727  0.1608 -0.5103 -0.3452
   91CHL1  H26A 9208   3.105   3.146   8.716  0.7450 -0.5900  0.6539
   91CHL1  H26B 9209   3.029   3.028   8.829 -0.1220  1.3182 -0.1905
   91CHL1  H26C 9210   3.156   2.970   8.726  1.1433  0.4738  2.9742
   91CHL1   C27 9211   2.864   3.145   8.633  0.3250  0.1969  0.0162
   91CHL1  H27A 9212   2.910   3.244   8.612 -0.6380  0.1030 -3.1261
   91CHL1  H27B 9213   2.785   3.135   8.556 -1.4542  4.4074  1.0325
   91CHL1  H27C 9214   2.817   3.124   8.731 -0.6310 -2.4930 -0.9153
   92CHL1    C3 9215   1.094   2.903   6.672  0.6835  0.0481  0.0315
   92CHL1    H3 9216   1.174   2.980   6.673 -0.3122  1.1176 -0.2500
   92CHL1    O3 9217   1.060   2.885   6.537  0.1491  0.2620  0.0909
   92CHL1   H3' 9218   1.141   2.858   6.493  0.1766  2.2537 -1.2257
   92CHL1    C4 9219   1.141   2.763   6.729 -0.1078  0.1692 -0.2733
   92CHL1   H4A 9220   1.075   2.681   6.694 -0.8765  0.0808  1.3130
   92CHL1   H4B 9221   1.238   2.737   6.680 -0.7299 -0.0802 -1.4170
   92CHL1    C5 9222   1.146   2.741   6.881 -0.2642 -0.4166  0.4941
   92CHL1    C6 9223   1.249   2.683   6.947  0.9228  0.7718 -0.3668
   92CHL1    H6 9224   1.328   2.634   6.888 -0.5815 -1.7754 -0.4341
   92CHL1    C7 9225   1.251   2.658   7.095 -0.0915  0.1074 -0.5432
   92CHL1   H7A 9226   1.297   2.561   7.124 -1.4685  0.3288  2.7610
   92CHL1   H7B 9227   1.323   2.726   7.146  1.8716 -2.5630  0.5154
   92CHL1    C8 9228   1.112   2.667   7.158 -0.3180 -0.2997 -0.0352
   92CHL1    H8 9229   1.066   2.567   7.140 -1.7709  0.4033 -0.4193
   92CHL1   C14 9230   1.133   2.685   7.305 -0.0254 -0.2621 -0.3973
   92CHL1   H14 9231   1.177   2.787   7.310 -0.6202 -0.0465  0.9699
   92CHL1   C15 9232   1.238   2.594   7.380 -1.1177 -0.4732  0.0165
   92CHL1  H15A 9233   1.240   2.486   7.357 -0.2232 -0.0570 -2.1892
   92CHL1  H15B 9234   1.345   2.623   7.370 -0.5778 -2.2226  0.4696
   92CHL1   C16 9235   1.191   2.616   7.520 -0.2492 -0.1969  0.1855
   92CHL1  H16A 9236   1.166   2.527   7.581 -0.7372  0.6379  1.2543
   92CHL1  H16B 9237   1.275   2.667   7.573  0.0597 -0.8381  0.3235
   92CHL1   C17 9238   1.068   2.710   7.526 -0.6670 -0.0968  0.6973
   92CHL1   H17 9239   1.109   2.813   7.534  0.1431 -0.2893 -0.7769
   92CHL1   C13 9240   1.002   2.688   7.390  0.5465 -0.4428 -0.0933
   92CHL1   C18 9241   0.928   2.551   7.385 -0.1205 -0.7097 -0.7719
   92CHL1  H18A 9242   0.833   2.573   7.439 -1.1115 -3.3649 -1.2508
   92CHL1  H18B 9243   0.901   2.519   7.282  0.8795 -1.2749 -0.8724
   92CHL1  H18C 9244   0.976   2.468   7.442 -0.8984 -0.7260 -0.1065
   92CHL1   C12 9245   0.910   2.806   7.329  0.3818  0.1103 -0.0862
   92CHL1  H12A 9246   0.811   2.799   7.379 -0.2730  1.1170 -1.1979
   92CHL1  H12B 9247   0.958   2.906   7.343  1.4550 -0.2158 -1.2252
   92CHL1   C11 9248   0.894   2.787   7.177 -0.1898 -0.1191 -0.2242
   92CHL1  H11A 9249   0.835   2.694   7.167 -0.0495 -0.3660  1.0875
   92CHL1  H11B 9250   0.821   2.858   7.133  1.8565  0.2214 -3.4514
   92CHL1    C9 9251   1.029   2.793   7.102 -0.2899  0.0086  0.0496
   92CHL1    H9 9252   1.082   2.882   7.142  0.7085 -1.1235  1.3456
   92CHL1   C10 9253   1.016   2.802   6.948 -0.9084 -0.4173 -0.5929
   92CHL1   C19 9254   0.899   2.701   6.915 -0.3715 -0.6868  0.3876
   92CHL1  H19A 9255   0.801   2.752   6.928  0.0308 -0.2504  1.8685
   92CHL1  H19B 9256   0.897   2.680   6.806  0.6596 -1.4647  0.4991
   92CHL1  H19C 9257   0.903   2.607   6.974 -0.1254 -0.9310 -0.0105
   92CHL1    C1 9258   0.996   2.943   6.900 -0.8309 -0.5755  0.1044
   92CHL1   H1A 9259   0.906   2.984   6.950  0.9794  0.6447  2.6365
   92CHL1   H1B 9260   1.084   3.001   6.934  1.5790 -3.9910  0.2643
   92CHL1    C2 9261   0.979   2.954   6.746  0.7786  0.1203 -0.1782
   92CHL1   H2A 9262   0.958   3.063   6.734 -0.6295  0.0869  1.6321
   92CHL1   H2B 9263   0.892   2.893   6.714  0.0647  0.2974  1.3411
   92CHL1   C20 9264   0.994   2.698   7.657  0.0283  0.4772  0.8596
   92CHL1   H20 9265   0.957   2.593   7.662 -1.0772  0.8802  1.7228
   92CHL1   C21 9266   0.873   2.793   7.647  0.4968 -0.2242  0.5759
   92CHL1  H21A 9267   0.905   2.892   7.607  0.3917 -0.9284 -1.3440
   92CHL1  H21B 9268   0.833   2.803   7.750  1.9316  0.2572  1.1222
   92CHL1  H21C 9269   0.793   2.745   7.588 -0.7219 -0.2879  2.1952
   92CHL1   C22 9270   1.068   2.732   7.788 -0.2153 -0.0206  0.2343
   92CHL1  H22A 9271   1.178   2.725   7.773 -0.4546 -3.3953 -0.5258
   92CHL1  H22B 9272   1.049   2.840   7.807 -0.0448 -0.0259  0.4435
   92CHL1   C23 9273   1.037   2.636   7.903  0.3725  0.4965  0.4879
   92CHL1  H23A 9274   0.929   2.614   7.896  1.0996 -3.2226 -1.6303
   92CHL1  H23B 9275   1.096   2.543   7.889  1.5447  0.4214  4.6999
   92CHL1   C24 9276   1.077   2.678   8.038  0.5417  0.5696 -0.1240
   92CHL1  H24A 9277   1.183   2.710   8.040  1.1671 -1.0021 -2.9789
   92CHL1  H24B 9278   1.014   2.765   8.064 -1.4977 -0.6802 -0.6393
   92CHL1   C25 9279   1.058   2.581   8.163  0.4718 -0.8370 -0.1390
   92CHL1   H25 9280   0.955   2.538   8.159  0.3921 -0.6248 -0.4671
   92CHL1   C26 9281   1.147   2.461   8.142  0.1903 -0.0730  0.4370
   92CHL1  H26A 9282   1.256   2.482   8.133  0.5462 -2.1594 -0.9174
   92CHL1  H26B 9283   1.149   2.387   8.224 -0.4420 -1.1910 -0.5223
   92CHL1  H26C 9284   1.124   2.417   8.042 -2.1585 -0.0681  0.9177
   92CHL1   C27 9285   1.082   2.659   8.296  0.4755 -0.7871  0.4301
   92CHL1  H27A 9286   1.022   2.752   8.299  1.8213  0.2792 -2.2132
   92CHL1  H27B 9287   1.065   2.597   8.386  2.7823  2.0177  3.0146
   92CHL1  H27C 9288   1.184   2.701   8.313  0.5785 -0.5827 -0.6228
   93CHL1    C3 9289   6.496   2.313   6.857 -0.0636  0.1243  1.3443
   93CHL1    H3 9290   6.420   2.380   6.904 -0.8991  0.4176 -0.3463
   93CHL1    O3 9291   6.472   2.285   6.719 -0.0158  0.3686  0.0335
   93CHL1   H3' 9292   6.529   2.334   6.659 -0.2579  1.3700  0.5922
   93CHL1    C4 9293   6.629   2.392   6.864 -0.3682  0.9018 -0.0986
   93CHL1   H4A 9294   6.714   2.351   6.806  1.4869 -0.6393  3.4270
   93CHL1   H4B 9295   6.614   2.484   6.803 -0.9014 -0.7507 -2.6166
   93CHL1    C5 9296   6.681   2.406   7.006 -0.1381  1.4063  0.1892
   93CHL1    C6 9297   6.711   2.522   7.059  0.2347  0.1416  0.2131
   93CHL1    H6 9298   6.700   2.618   7.005  0.0178 -0.2481 -0.4448
   93CHL1    C7 9299   6.783   2.538   7.189 -0.0208  0.7055 -0.8258
   93CHL1   H7A 9300   6.885   2.582   7.183 -0.5408  1.8615 -1.5892
   93CHL1   H7B 9301   6.713   2.598   7.250  0.3089  1.5470 -1.2562
   93CHL1    C8 9302   6.814   2.409   7.270 -0.3801 -0.0607  0.2649
   93CHL1    H8 9303   6.907   2.372   7.221  0.3581  1.3652  0.4985
   93CHL1   C14 9304   6.839   2.429   7.420  0.0199 -0.2343  0.0028
   93CHL1   H14 9305   6.738   2.451   7.458  1.1957  0.0539  3.2423
   93CHL1   C15 9306   6.924   2.546   7.467 -1.0701  0.2123 -0.1089
   93CHL1  H15A 9307   7.025   2.549   7.421 -1.2627 -0.8607 -0.6437
   93CHL1  H15B 9308   6.879   2.645   7.444 -0.7339  0.7399  1.3987
   93CHL1   C16 9309   6.953   2.518   7.617 -0.0329  0.0075 -0.4310
   93CHL1  H16A 9310   7.062   2.523   7.638  0.1120 -2.1893 -0.4151
   93CHL1  H16B 9311   6.898   2.588   7.683 -1.7431 -2.2004  0.6264
   93CHL1   C17 9312   6.890   2.370   7.641 -0.6635 -0.6274  0.1248
   93CHL1   H17 9313   6.785   2.397   7.666 -0.6079 -1.3960  1.2535
   93CHL1   C13 9314   6.876   2.308   7.498 -0.3627  1.6017 -0.0018
   93CHL1   C18 9315   7.011   2.269   7.445  0.0037 -0.0801  0.0334
   93CHL1  H18A 9316   7.032   2.172   7.494  1.4616 -0.0946 -0.5584
   93CHL1  H18B 9317   7.029   2.250   7.337 -0.7438  1.2024 -0.3438
   93CHL1  H18C 9318   7.090   2.334   7.488  0.3841 -2.0829  2.5967
   93CHL1   C12 9319   6.760   2.215   7.479  0.4571 -0.2995  0.2552
   93CHL1  H12A 9320   6.784   2.122   7.536 -0.4539 -0.8463 -0.2319
   93CHL1  H12B 9321   6.666   2.258   7.519  0.2747  0.1873 -0.6732
   93CHL1   C11 9322   6.743   2.180   7.327  0.3615 -0.1349 -0.0098
   93CHL1  H11A 9323   6.828   2.125   7.282 -1.6676 -1.7302 -2.1453
   93CHL1  H11B 9324   6.661   2.104   7.326 -0.5391  0.8052 -1.3789
   93CHL1    C9 9325   6.706   2.303   7.243  0.1047  0.4467 -0.7278
   93CHL1    H9 9326   6.608   2.334   7.284  1.2717  1.8953  1.1172
   93CHL1   C10 9327   6.690   2.275   7.090  0.0865 -0.2148 -0.0460
   93CHL1   C19 9328   6.799   2.176   7.031 -0.6549  0.1157 -0.3229
   93CHL1  H19A 9329   6.780   2.074   7.069 -0.4622  0.7392  1.5679
   93CHL1  H19B 9330   6.788   2.181   6.920 -2.3004  1.5322 -0.1484
   93CHL1  H19C 9331   6.900   2.219   7.050 -1.8241  2.0789  1.9204
   93CHL1    C1 9332   6.550   2.200   7.077 -0.4264  0.2069 -0.1338
   93CHL1   H1A 9333   6.555   2.102   7.130  1.6948  0.7304  0.7325
   93CHL1   H1B 9334   6.489   2.259   7.149 -0.0786 -1.1913  1.3719
   93CHL1    C2 9335   6.509   2.184   6.933 -0.4326  0.6791 -0.2226
   93CHL1   H2A 9336   6.425   2.111   6.931  1.3596 -1.5331 -0.0752
   93CHL1   H2B 9337   6.585   2.117   6.887 -1.6606 -0.4693 -0.6294
   93CHL1   C20 9338   6.957   2.289   7.756 -0.0247  0.3112  0.8251
   93CHL1   H20 9339   7.056   2.251   7.722  0.1536  1.0173  0.5387
   93CHL1   C21 9340   6.869   2.167   7.791  0.1323 -0.1736  0.5891
   93CHL1  H21A 9341   6.911   2.118   7.882  0.3116 -2.2923 -0.5517
   93CHL1  H21B 9342   6.868   2.086   7.715  1.9065 -0.2495  0.5886
   93CHL1  H21C 9343   6.768   2.210   7.807  0.7281  1.4758  0.1497
   93CHL1   C22 9344   6.999   2.358   7.890 -0.0534 -1.2450  0.5783
   93CHL1  H22A 9345   7.042   2.286   7.963  2.4232 -0.9695 -0.5298
   93CHL1  H22B 9346   7.071   2.440   7.869 -0.4951 -0.7153  1.0716
   93CHL1   C23 9347   6.887   2.431   7.971  0.2321  0.3018  0.4557
   93CHL1  H23A 9348   6.838   2.504   7.903  0.1628 -0.1503  0.0120
   93CHL1  H23B 9349   6.815   2.355   8.008  0.0123  0.0665 -0.4328
   93CHL1   C24 9350   6.942   2.512   8.092  0.4426  0.3800  0.2282
   93CHL1  H24A 9351   7.011   2.437   8.135  0.8865 -0.6113 -2.0364
   93CHL1  H24B 9352   7.002   2.592   8.044 -0.6690  0.0112 -1.8895
   93CHL1   C25 9353   6.834   2.557   8.194 -0.8244 -0.1262  0.1094
   93CHL1   H25 9354   6.880   2.629   8.265 -1.1689  0.8191 -0.6041
   93CHL1   C26 9355   6.709   2.626   8.130  0.1967 -0.3776 -0.5866
   93CHL1  H26A 9356   6.633   2.661   8.203 -0.9250 -1.5033 -1.1726
   93CHL1  H26B 9357   6.746   2.717   8.079  1.9005  0.1297  1.4330
   93CHL1  H26C 9358   6.660   2.552   8.062  0.9951 -1.1750 -0.3131
   93CHL1   C27 9359   6.786   2.444   8.280 -0.2898  0.8792 -0.6455
   93CHL1  H27A 9360   6.722   2.471   8.366  1.1866  1.7572  0.2201
   93CHL1  H27B 9361   6.739   2.360   8.225  0.5468 -0.7615  1.0703
   93CHL1  H27C 9362   6.884   2.410   8.320  0.1092 -0.3151 -2.5054
   94CHL1    C3 9363   1.615   3.739   6.812  0.2088 -0.0611 -0.5215
   94CHL1    H3 9364   1.541   3.656   6.820  0.3444 -0.3027 -1.5873
   94CHL1    O3 9365   1.662   3.730   6.680  0.6247 -0.4546 -0.5460
   94CHL1   H3' 9366   1.734   3.792   6.689  0.1832 -0.0970  0.8007
   94CHL1    C4 9367   1.545   3.873   6.831 -0.1421  0.4475 -0.2725
   94CHL1   H4A 9368   1.623   3.952   6.824  2.0840 -1.5840  0.2648
   94CHL1   H4B 9369   1.476   3.889   6.746  0.0547  0.6818 -0.3876
   94CHL1    C5 9370   1.473   3.873   6.968 -0.7734 -0.3634 -0.5401
   94CHL1    C6 9371   1.340   3.884   6.983 -0.9860  0.2565 -0.3068
   94CHL1    H6 9372   1.284   3.889   6.888  0.4513 -1.0228 -1.2700
   94CHL1    C7 9373   1.277   3.871   7.119  0.3224 -0.2722  0.7372
   94CHL1   H7A 9374   1.192   3.942   7.128  0.0258 -0.5183 -0.0214
   94CHL1   H7B 9375   1.229   3.771   7.128 -0.4294  0.0280  0.1467
   94CHL1    C8 9376   1.371   3.880   7.241 -0.2168  0.3701 -0.4483
   94CHL1    H8 9377   1.394   3.986   7.264 -3.9035  1.2579 -0.1365
   94CHL1   C14 9378   1.310   3.826   7.375  0.0429  0.2145  0.1229
   94CHL1   H14 9379   1.289   3.719   7.354  2.6601 -0.3636  0.1740
   94CHL1   C15 9380   1.171   3.886   7.420 -0.2145  0.1100 -0.7075
   94CHL1  H15A 9381   1.181   3.996   7.431  0.7481  0.1989 -2.1858
   94CHL1  H15B 9382   1.084   3.870   7.353 -0.2538 -0.1020 -0.6049
   94CHL1   C16 9383   1.158   3.818   7.561 -1.3864 -0.0726 -0.2672
   94CHL1  H16A 9384   1.128   3.898   7.632 -2.0866  0.3067 -0.9753
   94CHL1  H16B 9385   1.074   3.747   7.565 -2.5571  1.3281  1.3405
   94CHL1   C17 9386   1.296   3.752   7.598  0.7600  0.6511  0.5142
   94CHL1   H17 9387   1.294   3.645   7.571  0.9875  0.1449  2.3641
   94CHL1   C13 9388   1.392   3.812   7.501  0.7825  0.1633 -0.6966
   94CHL1   C18 9389   1.440   3.945   7.549  0.1552 -0.2326  0.5336
   94CHL1  H18A 9390   1.496   3.944   7.645  0.6609 -0.5932  0.2455
   94CHL1  H18B 9391   1.487   4.002   7.466 -1.6535  2.2765  1.1207
   94CHL1  H18C 9392   1.359   4.021   7.557  1.3071  1.0051  0.9776
   94CHL1   C12 9393   1.512   3.724   7.458  0.1502  0.5326 -0.4461
   94CHL1  H12A 9394   1.586   3.726   7.540 -1.0138 -0.5421  0.6780
   94CHL1  H12B 9395   1.487   3.617   7.443 -0.1336  0.6115 -0.5601
   94CHL1   C11 9396   1.587   3.773   7.334 -0.1972  0.0333 -0.9811
   94CHL1  H11A 9397   1.629   3.872   7.363  0.5235 -1.0042  1.8156
   94CHL1  H11B 9398   1.666   3.696   7.317  0.0363  0.2947 -1.0919
   94CHL1    C9 9399   1.492   3.795   7.215 -0.1426 -0.3787  0.5226
   94CHL1    H9 9400   1.456   3.693   7.190 -0.9093 -0.0297  0.1753
   94CHL1   C10 9401   1.570   3.844   7.090 -0.0500 -0.6293  0.5252
   94CHL1   C19 9402   1.637   3.982   7.114  0.4529  0.2030 -0.5279
   94CHL1  H19A 9403   1.718   3.990   7.189  0.8172  0.9797 -0.9865
   94CHL1  H19B 9404   1.695   4.017   7.026  0.1136  1.2967 -0.3290
   94CHL1  H19C 9405   1.567   4.067   7.127  0.0688  0.0719 -1.6081
   94CHL1    C1 9406   1.678   3.732   7.056 -0.0557 -0.1032 -0.4913
   94CHL1   H1A 9407   1.768   3.730   7.121  0.9308  0.2057 -1.8030
   94CHL1   H1B 9408   1.625   3.637   7.079 -0.6770  0.2737 -0.3445
   94CHL1    C2 9409   1.735   3.731   6.914  0.2537  0.1253 -0.1345
   94CHL1   H2A 9410   1.796   3.642   6.890  1.1803  0.3528  1.2585
   94CHL1   H2B 9411   1.798   3.822   6.916  0.1851  0.1698  1.2167
   94CHL1   C20 9412   1.312   3.737   7.745  0.1166  0.4273  0.0030
   94CHL1   H20 9413   1.311   3.839   7.791  3.2540 -0.3465  2.1504
   94CHL1   C21 9414   1.445   3.665   7.784  0.3880 -0.1258 -0.2888
   94CHL1  H21A 9415   1.477   3.674   7.890  1.2804  2.9044 -0.7257
   94CHL1  H21B 9416   1.520   3.730   7.735  0.2878  1.3370  1.3854
   94CHL1  H21C 9417   1.446   3.559   7.752  0.9694 -0.0881 -0.4073
   94CHL1   C22 9418   1.203   3.648   7.814  0.4423  0.1386  0.5191
   94CHL1  H22A 9419   1.097   3.671   7.792  0.4751 -1.1816 -1.2007
   94CHL1  H22B 9420   1.212   3.546   7.770  1.2549  0.0919  0.7707
   94CHL1   C23 9421   1.204   3.661   7.969  0.3318  0.9864  0.2774
   94CHL1  H23A 9422   1.304   3.619   7.994 -0.2199 -1.2454 -0.9471
   94CHL1  H23B 9423   1.191   3.763   8.011 -0.7792 -0.1579  3.0087
   94CHL1   C24 9424   1.101   3.567   8.041  0.2045 -0.1157  0.2526
   94CHL1  H24A 9425   1.003   3.617   8.052 -0.0984 -0.5466 -0.4493
   94CHL1  H24B 9426   1.080   3.479   7.977 -1.3829 -0.8416  1.6848
   94CHL1   C25 9427   1.138   3.518   8.178  0.1689  0.2339  0.1327
   94CHL1   H25 9428   1.237   3.468   8.179  0.4241  0.7204  1.3778
   94CHL1   C26 9429   1.153   3.631   8.274  0.5667  0.0584  0.2104
   94CHL1  H26A 9430   1.239   3.696   8.246  0.9505 -0.5281  0.0009
   94CHL1  H26B 9431   1.058   3.687   8.284  0.9604  0.5697  1.1509
   94CHL1  H26C 9432   1.189   3.594   8.372 -1.0110 -0.8212  0.5052
   94CHL1   C27 9433   1.041   3.419   8.232 -1.0538 -0.2316 -0.4621
   94CHL1  H27A 9434   0.947   3.468   8.265 -2.2152 -1.9956 -1.0145
   94CHL1  H27B 9435   1.025   3.341   8.154 -0.5253  0.1796 -0.9917
   94CHL1  H27C 9436   1.095   3.378   8.320  1.7721  2.1497 -0.9114
   95CHL1    C3 9437   1.717   3.152   6.457  0.4953  0.1887  0.0131
   95CHL1    H3 9438   1.704   3.042   6.465 -1.6645  0.3049 -1.2082
   95CHL1    O3 9439   1.751   3.176   6.322  0.5384  0.4236 -0.0293
   95CHL1   H3' 9440   1.841   3.210   6.321  0.2260  1.2953  0.1272
   95CHL1    C4 9441   1.583   3.223   6.483 -0.2071 -0.0027  0.6262
   95CHL1   H4A 9442   1.598   3.327   6.447 -2.0671 -0.0395 -0.3998
   95CHL1   H4B 9443   1.508   3.193   6.407  0.3712  1.2987 -0.5249
   95CHL1    C5 9444   1.540   3.210   6.630 -0.1932 -0.1674  0.2204
   95CHL1    C6 9445   1.424   3.149   6.669  0.2759  0.6651 -0.0858
   95CHL1    H6 9446   1.351   3.110   6.596  0.8643  0.6400 -0.6725
   95CHL1    C7 9447   1.380   3.127   6.810 -0.7396 -0.3068 -0.1940
   95CHL1   H7A 9448   1.274   3.145   6.839 -0.2501  0.3227  1.3232
   95CHL1   H7B 9449   1.409   3.024   6.840 -0.0410  0.3974  1.7117
   95CHL1    C8 9450   1.462   3.219   6.911 -0.8728 -0.4551 -0.1744
   95CHL1    H8 9451   1.414   3.317   6.888 -2.9469 -1.3290  0.2292
   95CHL1   C14 9452   1.444   3.172   7.052  0.7858  0.3762  0.3033
   95CHL1   H14 9453   1.484   3.068   7.055  0.4196  0.2641  1.8787
   95CHL1   C15 9454   1.299   3.152   7.108  0.0474 -0.3164 -0.1287
   95CHL1  H15A 9455   1.247   3.248   7.085  1.7402  0.9122  0.9066
   95CHL1  H15B 9456   1.243   3.072   7.055 -2.9111  0.7832  1.1500
   95CHL1   C16 9457   1.327   3.118   7.250  0.1669 -0.1999 -0.3223
   95CHL1  H16A 9458   1.249   3.154   7.319 -1.6325 -0.3952 -2.1450
   95CHL1  H16B 9459   1.320   3.007   7.259 -1.4354 -0.2851 -1.9228
   95CHL1   C17 9460   1.473   3.169   7.282 -0.0509  0.0147  0.3108
   95CHL1   H17 9461   1.531   3.074   7.285 -1.2483 -0.7249  0.3174
   95CHL1   C13 9462   1.513   3.248   7.159 -0.0984 -1.0092 -0.3415
   95CHL1   C18 9463   1.457   3.394   7.171  0.4099 -0.5358 -0.1687
   95CHL1  H18A 9464   1.437   3.439   7.071  1.5743 -0.6663 -0.4723
   95CHL1  H18B 9465   1.360   3.392   7.225 -0.4125  2.2643 -1.3328
   95CHL1  H18C 9466   1.525   3.456   7.233 -0.1152 -1.3015  1.2381
   95CHL1   C12 9467   1.667   3.256   7.128 -0.0643  0.1468 -0.4681
   95CHL1  H12A 9468   1.720   3.322   7.200 -0.9048 -0.9747  1.2249
   95CHL1  H12B 9469   1.717   3.157   7.134  0.9975  0.7547  2.0090
   95CHL1   C11 9470   1.696   3.307   6.985  1.1458 -0.0610  0.1563
   95CHL1  H11A 9471   1.653   3.409   6.986  0.6698 -0.2399 -0.8299
   95CHL1  H11B 9472   1.805   3.315   6.967  1.2034  3.8685  1.2809
   95CHL1    C9 9473   1.614   3.230   6.877 -0.1591  0.2889  0.6836
   95CHL1    H9 9474   1.644   3.124   6.893 -1.5525 -0.6037 -2.0287
   95CHL1   C10 9475   1.648   3.267   6.726  0.0702  0.2676 -0.6407
   95CHL1   C19 9476   1.653   3.419   6.710 -0.4375 -0.3541 -0.0323
   95CHL1  H19A 9477   1.695   3.461   6.616  0.1473 -0.2979  0.2498
   95CHL1  H19B 9478   1.553   3.468   6.723 -0.6170 -0.2707 -1.5594
   95CHL1  H19C 9479   1.715   3.464   6.790  0.7176  0.3360 -1.2875
   95CHL1    C1 9480   1.783   3.196   6.699 -0.7359 -0.3725 -0.5781
   95CHL1   H1A 9481   1.862   3.237   6.765  0.1102 -2.5079 -0.1815
   95CHL1   H1B 9482   1.771   3.087   6.719  1.5814 -0.8903 -1.6346
   95CHL1    C2 9483   1.825   3.201   6.549  0.3365 -0.2675  0.3542
   95CHL1   H2A 9484   1.916   3.141   6.527 -0.1196 -1.2031  0.9522
   95CHL1   H2B 9485   1.861   3.303   6.524  3.2580 -1.6466 -1.5707
   95CHL1   C20 9486   1.493   3.230   7.423 -0.2611 -0.2273 -0.0749
   95CHL1   H20 9487   1.431   3.322   7.427 -0.6461 -0.2804 -2.7795
   95CHL1   C21 9488   1.638   3.267   7.460 -0.3095 -0.2061  0.2614
   95CHL1  H21A 9489   1.700   3.177   7.443  1.6446  0.9607  0.9406
   95CHL1  H21B 9490   1.655   3.302   7.564 -0.4501 -0.3571  0.3349
   95CHL1  H21C 9491   1.669   3.348   7.390  0.8304 -0.9359 -0.0977
   95CHL1   C22 9492   1.439   3.138   7.535  0.6134 -0.0258  0.3488
   95CHL1  H22A 9493   1.369   3.062   7.494  0.3942 -0.1214  0.8921
   95CHL1  H22B 9494   1.527   3.079   7.570  0.7541 -0.1123 -0.1280
   95CHL1   C23 9495   1.385   3.212   7.655 -0.0364 -0.5514  0.0406
   95CHL1  H23A 9496   1.465   3.272   7.702 -1.8317  2.8073 -0.9043
   95CHL1  H23B 9497   1.302   3.280   7.628  1.2410  0.6780 -0.8966
   95CHL1   C24 9498   1.339   3.110   7.770  0.4549 -0.2328  0.6807
   95CHL1  H24A 9499   1.301   3.013   7.731  2.5923 -0.9295  0.1955
   95CHL1  H24B 9500   1.431   3.077   7.823  2.6542  1.7425 -1.6613
   95CHL1   C25 9501   1.255   3.170   7.880 -0.1292 -0.5668  0.9622
   95CHL1   H25 9502   1.163   3.221   7.845 -1.8975 -2.6231  2.3585
   95CHL1   C26 9503   1.202   3.061   7.971  0.5018 -0.2587  0.2403
   95CHL1  H26A 9504   1.169   3.109   8.066 -1.1108 -1.4654  0.3366
   95CHL1  H26B 9505   1.129   2.997   7.918 -0.8520  0.0205  1.6807
   95CHL1  H26C 9506   1.285   2.997   8.008  0.4753 -2.2321 -2.7835
   95CHL1   C27 9507   1.338   3.269   7.957  0.4214 -0.3754 -0.3198
   95CHL1  H27A 9508   1.270   3.305   8.038 -0.4264 -0.9556 -0.7559
   95CHL1  H27B 9509   1.428   3.219   7.998 -1.0073 -1.5168  1.6421
   95CHL1  H27C 9510   1.369   3.353   7.892  2.6742 -0.4596  0.5524
   96CHL1    C3 9511   0.171   3.516   6.536  0.2680 -0.0935 -1.2326
   96CHL1    H3 9512   0.198   3.623   6.544 -1.0455  0.1904 -0.2830
   96CHL1    O3 9513   0.233   3.470   6.421 -0.0408 -0.2945  0.3155
   96CHL1   H3' 9514   0.320   3.508   6.427 -0.1060  0.1150 -1.0864
   96CHL1    C4 9515   0.236   3.443   6.661  0.5237  0.0321 -0.2160
   96CHL1   H4A 9516   0.210   3.335   6.650  0.9607 -0.1328  0.3548
   96CHL1   H4B 9517   0.347   3.448   6.657  0.5284  0.7196  0.5865
   96CHL1    C5 9518   0.162   3.486   6.786  0.3670 -0.0249 -0.3230
   96CHL1    C6 9519   0.223   3.527   6.896  0.1371  0.0540  0.1803
   96CHL1    H6 9520   0.333   3.525   6.890  0.2126  0.1477  1.4630
   96CHL1    C7 9521   0.159   3.566   7.023  0.4605 -0.3753 -0.3213
   96CHL1   H7A 9522   0.218   3.518   7.104 -0.1327 -0.2545  0.1944
   96CHL1   H7B 9523   0.157   3.676   7.033 -0.1741 -0.5382  2.1491
   96CHL1    C8 9524   0.010   3.528   7.029 -0.2133 -0.7581 -0.0534
   96CHL1    H8 9525  -0.016   3.422   7.050 -0.8233 -0.9313 -1.5581
   96CHL1   C14 9526  -0.065   3.607   7.141 -0.1181 -0.1172 -0.2825
   96CHL1   H14 9527  -0.061   3.713   7.107 -1.0288 -0.0820 -0.3148
   96CHL1   C15 9528  -0.011   3.606   7.284 -0.1399 -0.7068 -0.4622
   96CHL1  H15A 9529  -0.014   3.502   7.323  0.8228 -0.9148 -0.8964
   96CHL1  H15B 9530   0.084   3.662   7.292 -0.1321 -0.2314 -2.9881
   96CHL1   C16 9531  -0.126   3.662   7.367  0.1824 -0.3606 -0.4090
   96CHL1  H16A 9532  -0.150   3.596   7.453  0.1074  0.7357  0.4252
   96CHL1  H16B 9533  -0.103   3.763   7.407  0.7144 -1.0040  0.9693
   96CHL1   C17 9534  -0.249   3.666   7.270 -0.5344 -0.6292 -0.0530
   96CHL1   H17 9535  -0.252   3.771   7.233 -1.5026 -0.5949  0.0852
   96CHL1   C13 9536  -0.216   3.580   7.146 -0.4131 -0.0793 -0.6059
   96CHL1   C18 9537  -0.257   3.431   7.173 -0.3908 -0.3447 -0.3004
   96CHL1  H18A 9538  -0.367   3.422   7.167 -0.4520  0.9081 -1.7505
   96CHL1  H18B 9539  -0.220   3.370   7.087 -0.6895 -2.0850  0.7554
   96CHL1  H18C 9540  -0.217   3.391   7.268 -2.7561  2.1657  1.9134
   96CHL1   C12 9541  -0.276   3.627   7.016  0.2889  0.1528  0.1717
   96CHL1  H12A 9542  -0.385   3.605   7.008  0.5492 -0.6371 -1.7595
   96CHL1  H12B 9543  -0.252   3.731   6.984  1.6327 -0.0944  0.3166
   96CHL1   C11 9544  -0.218   3.540   6.896  0.2319 -0.4251  0.0285
   96CHL1  H11A 9545  -0.264   3.439   6.904 -0.8853  0.0725  0.1858
   96CHL1  H11B 9546  -0.257   3.588   6.804  2.8349  1.2405 -0.3162
   96CHL1    C9 9547  -0.063   3.551   6.894 -0.1748 -0.5803  0.5856
   96CHL1    H9 9548  -0.046   3.660   6.879  0.8813 -0.6926  0.8364
   96CHL1   C10 9549   0.006   3.478   6.774  0.6659 -0.0516 -0.0662
   96CHL1   C19 9550  -0.036   3.331   6.782  0.9851  0.1426 -0.7315
   96CHL1  H19A 9551  -0.147   3.326   6.783  0.9439 -2.3628  2.6899
   96CHL1  H19B 9552   0.011   3.263   6.708 -0.0449 -0.5452 -0.7677
   96CHL1  H19C 9553  -0.013   3.304   6.888 -1.0738 -1.9279 -0.7281
   96CHL1    C1 9554  -0.063   3.538   6.645 -0.7035  0.0569 -0.0870
   96CHL1   H1A 9555  -0.162   3.490   6.631 -0.1394 -1.0963 -0.1995
   96CHL1   H1B 9556  -0.070   3.649   6.658 -1.4938 -0.2564  3.1443
   96CHL1    C2 9557   0.022   3.493   6.517 -0.2359 -0.0726  0.4322
   96CHL1   H2A 9558  -0.020   3.563   6.442 -2.5457  0.0405  1.7369
   96CHL1   H2B 9559   0.004   3.388   6.488  0.2765  0.3191 -1.4027
   96CHL1   C20 9560  -0.384   3.653   7.348 -0.5050  0.4857  0.2607
   96CHL1   H20 9561  -0.377   3.550   7.388  2.9365  0.8855  0.9549
   96CHL1   C21 9562  -0.516   3.660   7.272 -0.3758 -0.0638  0.6625
   96CHL1  H21A 9563  -0.541   3.754   7.218 -3.0519 -1.4949 -0.8287
   96CHL1  H21B 9564  -0.609   3.646   7.333 -0.6987 -0.9228 -0.0067
   96CHL1  H21C 9565  -0.511   3.581   7.195  0.5670 -1.2206  1.8658
   96CHL1   C22 9566  -0.386   3.743   7.476  0.3067  0.3631 -0.7071
   96CHL1  H22A 9567  -0.303   3.717   7.545 -0.3088 -2.2515 -0.8639
   96CHL1  H22B 9568  -0.374   3.850   7.448  0.1595  0.2282 -1.2978
   96CHL1   C23 9569  -0.512   3.740   7.563 -0.4291  0.0269 -0.2957
   96CHL1  H23A 9570  -0.606   3.783   7.521 -2.5035 -2.7405  1.1464
   96CHL1  H23B 9571  -0.542   3.634   7.578 -0.7585 -0.1090 -1.7804
   96CHL1   C24 9572  -0.484   3.807   7.695  0.5545  0.0907 -0.2096
   96CHL1  H24A 9573  -0.414   3.741   7.750 -1.0308 -1.0621  0.4652
   96CHL1  H24B 9574  -0.426   3.902   7.688  1.2052 -0.1923  1.1092
   96CHL1   C25 9575  -0.616   3.823   7.773 -0.7468 -0.7571 -0.0106
   96CHL1   H25 9576  -0.693   3.869   7.707 -0.2618 -2.4103 -1.8076
   96CHL1   C26 9577  -0.696   3.694   7.821 -0.2406 -0.0219 -0.0873
   96CHL1  H26A 9578  -0.792   3.725   7.867  0.7587  0.4970  1.7608
   96CHL1  H26B 9579  -0.710   3.629   7.732 -1.1127 -0.2402  0.1972
   96CHL1  H26C 9580  -0.637   3.645   7.902  0.5457  1.0626  0.0124
   96CHL1   C27 9581  -0.584   3.924   7.889  0.1436 -0.0083  0.1310
   96CHL1  H27A 9582  -0.557   4.022   7.845  2.7645 -0.7361 -0.0798
   96CHL1  H27B 9583  -0.665   3.936   7.964  0.5161  0.0598  0.5247
   96CHL1  H27C 9584  -0.496   3.888   7.948  1.3468  1.7965 -0.4774
   97OSM      N 9585   2.062   0.974  11.013 -0.3733  0.0202 -0.1839
   97OSM    C15 9586   1.935   0.990  11.088 -0.6635 -0.8132  0.3536
   97OSM   H15A 9587   1.891   0.899  11.125 -0.2278 -2.3788 -2.6502
   97OSM   H15B 9588   1.870   1.040  11.019  0.4182 -2.2157 -1.7997
   97OSM   H15C 9589   1.953   1.049  11.176  0.4774 -1.4511  0.5802
   97OSM    C14 9590   2.158   0.934  11.120 -0.0499 -0.5932  0.1291
   97OSM   H14A 9591   2.156   1.006  11.201  1.7074 -0.4836  0.1046
   97OSM   H14B 9592   2.258   0.918  11.084 -0.0887 -1.6467  0.4504
   97OSM   H14C 9593   2.115   0.844  11.162  0.1223 -0.6123  0.2675
   97OSM    C13 9594   2.046   0.865  10.916  0.0111  0.3719 -0.1276
   97OSM   H13A 9595   2.136   0.842  10.862 -0.1445  0.5548 -0.4657
   97OSM   H13B 9596   1.965   0.885  10.847 -0.3535 -2.7010 -0.7610
   97OSM   H13C 9597   2.020   0.773  10.968  0.4178  0.0159 -0.5427
   97OSM    C12 9598   2.094   1.106  10.949 -0.0596 -0.4719  0.3620
   97OSM   H12A 9599   2.198   1.102  10.920  0.0718  1.7015  0.3586
   97OSM   H12B 9600   2.080   1.178  11.028  0.6759 -0.2762  0.3271
   97OSM    C11 9601   2.012   1.130  10.824  0.1959  0.1517  0.8324
   97OSM   H11A 9602   2.044   1.060  10.745 -4.1153  1.0595 -2.1056
   97OSM   H11B 9603   2.047   1.227  10.782  1.6804 -0.6598  0.1658
   97OSM      P 9604   1.765   1.077  10.747  0.1606  0.3249  0.2889
   97OSM    O13 9605   1.811   0.938  10.726  0.0074 -0.4132  0.3286
   97OSM    O14 9606   1.629   1.096  10.805 -0.2775 -0.5228 -0.0798
   97OSM    O11 9607   1.791   1.171  10.616  0.2959  0.4026 -0.2647
   97OSM    O12 9608   1.869   1.132  10.846 -0.3111 -0.6069 -0.0616
   97OSM    C1S 9609   1.849   1.126  10.490  0.4075  0.6998 -0.1187
   97OSM    H1S 9610   1.781   1.060  10.431 -0.6031  2.6306 -1.2179
   97OSM    H1T 9611   1.949   1.081  10.508  0.3684  0.2740 -0.9181
   97OSM     NF 9612   1.914   1.182  10.262 -0.3416  0.2331  0.0741
   97OSM    HNF 9613   2.013   1.171  10.253 -0.3187 -1.8264  2.0546
   97OSM    C2S 9614   1.871   1.242  10.386  0.2338 -0.0542  0.1000
   97OSM    H2S 9615   1.776   1.291  10.356  1.3707  1.3184 -1.4146
   97OSM    C3S 9616   1.956   1.356  10.452 -0.0901  0.2915 -0.0014
   97OSM    H3S 9617   2.060   1.318  10.444 -0.7501 -1.7521  0.4623
   97OSM     O3 9618   1.928   1.390  10.594  0.0693 -0.2337  0.7310
   97OSM    HO3 9619   1.861   1.327  10.620 -2.0656  0.4060 -2.5809
   97OSM    C4S 9620   1.942   1.477  10.362 -0.5174  1.0422  0.3625
   97OSM    H4S 9621   1.994   1.453  10.268  0.9012  0.8700  1.1601
   97OSM    C5S 9622   1.864   1.584  10.376 -0.0939 -0.2036 -0.0200
   97OSM    H5S 9623   1.796   1.595  10.462  0.3130  3.5827  0.0134
   97OSM    C6S 9624   1.853   1.701  10.283 -0.3428 -0.2342  0.1369
   97OSM    H6S 9625   1.913   1.789  10.315  0.3850  0.5268 -2.9950
   97OSM    H6T 9626   1.750   1.741  10.297 -0.7319 -1.3923  0.7362
   97OSM    C7S 9627   1.888   1.660  10.141 -0.1053  0.4978 -1.0537
   97OSM    H7S 9628   1.808   1.589  10.111 -0.6400  0.3988  0.5170
   97OSM    H7T 9629   1.985   1.606  10.134  0.3738  1.0815  0.5128
   97OSM    C8S 9630   1.864   1.782  10.044  0.1395  0.8146 -0.2300
   97OSM    H8S 9631   1.924   1.869  10.079 -1.2312  1.8046 -0.2846
   97OSM    H8T 9632   1.756   1.807  10.053  0.3623  2.4602 -1.6221
   97OSM    C9S 9633   1.888   1.747   9.897 -0.4736  0.8064 -0.0124
   97OSM    H9S 9634   1.874   1.834   9.830 -1.5279  0.1472 -0.6770
   97OSM    H9T 9635   1.817   1.669   9.864  0.5138 -0.9284  1.7630
   97OSM   C10S 9636   2.035   1.706   9.871 -0.1650  0.0876 -0.0957
   97OSM   H10S 9637   2.055   1.603   9.907 -0.6283  0.4556  1.2834
   97OSM   H10T 9638   2.111   1.774   9.916 -0.3339 -1.2084  2.3156
   97OSM   C11S 9639   2.058   1.693   9.728 -0.0163 -0.6478 -0.3653
   97OSM   H11S 9640   2.028   1.788   9.678 -1.6285 -0.8970  0.0500
   97OSM   H11T 9641   2.003   1.607   9.684 -0.0223 -0.7296 -0.2009
   97OSM   C12S 9642   2.210   1.684   9.689 -0.2786  0.3362 -0.3271
   97OSM   H12S 9643   2.253   1.582   9.703 -1.4071 -0.1693 -0.3624
   97OSM   H12T 9644   2.265   1.752   9.757  1.1141  1.1517 -2.2095
   97OSM   C13S 9645   2.242   1.717   9.538  0.5200  0.0271 -0.1125
   97OSM   H13S 9646   2.232   1.827   9.520 -1.8978 -0.0656  0.2814
   97OSM   H13T 9647   2.153   1.675   9.486 -1.5784  1.0783  2.4011
   97OSM   C14S 9648   2.370   1.660   9.496 -0.4280  0.0234  0.6345
   97OSM   H14S 9649   2.375   1.553   9.527  2.2056 -0.6575 -1.7884
   97OSM   H14T 9650   2.447   1.718   9.550  0.5961  1.5239 -2.2401
   97OSM   C15S 9651   2.383   1.677   9.341 -0.8144 -0.2148 -0.6985
   97OSM   H15S 9652   2.337   1.774   9.313 -0.7028  0.5925  1.6898
   97OSM   H15T 9653   2.323   1.592   9.302 -1.2314 -0.2435  0.0107
   97OSM   C16S 9654   2.532   1.656   9.293  0.7699  0.5058  0.5400
   97OSM   H16S 9655   2.571   1.564   9.341 -0.9572  0.2104  1.4480
   97OSM   H16T 9656   2.590   1.744   9.330  1.3622  0.4444 -0.2170
   97OSM   C17S 9657   2.539   1.641   9.139 -0.5837  0.3008 -0.2074
   97OSM   H17S 9658   2.505   1.726   9.076 -1.1325 -0.4149 -0.8977
   97OSM   H17T 9659   2.465   1.561   9.117  0.3892 -0.6145 -0.2421
   97OSM   C18S 9660   2.681   1.596   9.096  0.1142  0.4623 -0.8899
   97OSM   H18S 9661   2.684   1.570   8.988  0.2218 -5.0610  0.1383
   97OSM   H18T 9662   2.695   1.496   9.142 -1.8871 -0.0481 -1.2986
   97OSM   H18U 9663   2.764   1.667   9.117  0.8534 -0.8023  0.6754
   97OSM    C1F 9664   1.824   1.112  10.188  0.1706  0.6845  0.2648
   97OSM     OF 9665   1.701   1.118  10.211 -0.5724 -0.4402  0.0432
   97OSM    C2F 9666   1.880   1.016  10.092  0.1993 -0.2522  0.0315
   97OSM    H2F 9667   1.871   0.911  10.127 -0.3257 -1.0231 -2.2450
   97OSM    H2G 9668   1.984   1.048  10.073 -0.3276  1.3648 -0.2439
   97OSM    C3F 9669   1.805   1.020   9.957 -0.6466 -0.0508  0.9979
   97OSM    H3F 9670   1.769   1.123   9.937 -1.3910 -0.7933 -2.1008
   97OSM    H3G 9671   1.710   0.963   9.970 -0.7192  0.1316  1.2835
   97OSM    C4F 9672   1.886   0.970   9.836  0.1653 -0.1611 -0.1063
   97OSM    H4F 9673   1.989   1.009   9.824  1.9876 -4.8011 -1.7661
   97OSM    H4G 9674   1.833   0.992   9.741 -1.5440 -2.3644  0.2471
   97OSM    C5F 9675   1.889   0.817   9.839  0.1497 -0.2281  0.3000
   97OSM    H5F 9676   1.786   0.779   9.824  0.2387 -0.0788 -0.7632
   97OSM    H5G 9677   1.929   0.788   9.938  0.2663 -1.0395  0.0230
   97OSM    C6F 9678   1.981   0.756   9.730 -0.0789  1.1153  0.7831
   97OSM    H6F 9679   2.073   0.817   9.718  1.3462 -0.6384  2.1545
   97OSM    H6G 9680   1.922   0.756   9.636  0.4199 -0.3656  0.4424
   97OSM    C7F 9681   2.020   0.615   9.768  0.1229 -0.3522 -0.3811
   97OSM    H7F 9682   1.926   0.559   9.785 -0.4596  0.3852 -1.0804
   97OSM    H7G 9683   2.084   0.608   9.859 -0.4629 -1.3302 -0.0366
   97OSM    C8F 9684   2.091   0.527   9.668 -0.0556  0.6501 -0.2696
   97OSM    H8F 9685   2.119   0.431   9.715  1.8667  1.6561  0.7915
   97OSM    H8G 9686   2.187   0.584   9.661 -0.6223  1.9143  1.5742
   97OSM    C9F 9687   2.030   0.513   9.533  0.3469  0.0325 -0.0115
   97OSM    H9F 9688   1.967   0.598   9.503  1.0758  1.0857  1.2939
   97OSM   C10F 9689   2.038   0.407   9.445  0.1608  0.1239  0.8416
   97OSM   H10F 9690   2.004   0.416   9.340  1.5148 -0.5450  0.3273
   97OSM   C11F 9691   2.117   0.284   9.472  0.7679  0.6829  0.0030
   97OSM   H11F 9692   2.106   0.254   9.578 -2.6589 -4.4123 -1.3889
   97OSM   H11G 9693   2.224   0.300   9.448  0.8813  2.7486  1.5778
   97OSM   C12F 9694   2.056   0.170   9.390  0.2897 -0.8931  0.1692
   97OSM   H12F 9695   1.948   0.187   9.370  0.2568 -1.6191 -0.3259
   97OSM   H12G 9696   2.066   0.075   9.447 -1.3239 -1.3254 -0.2214
   97OSM   C13F 9697   2.125   0.150   9.251 -0.0144 -0.5179  0.0365
   97OSM   H13F 9698   2.234   0.149   9.268  0.4306 -3.4471 -2.2051
   97OSM   H13G 9699   2.098   0.241   9.192  0.4713 -0.5034 -0.1678
   97OSM   C14F 9700   2.071   0.032   9.167 -0.1581 -0.3774 -0.8335
   97OSM   H14F 9701   1.964   0.041   9.140 -1.2668  1.6203  3.3190
   97OSM   H14G 9702   2.082  -0.064   9.222  1.3274  0.9630  1.3669
   97OSM   C15F 9703   2.148   0.006   9.047  0.0592  0.3423  1.4776
   97OSM   H15F 9704   2.092  -0.059   8.976 -1.0849 -2.3828  4.6612
   97OSM   H15G 9705   2.249  -0.033   9.070 -0.1481 -0.9165  0.3868
   97OSM   C16F 9706   2.174   0.136   8.960  0.0475  0.3450 -0.1580
   97OSM   H16F 9707   2.245   0.207   9.007  1.9170 -0.2890 -1.8681
   97OSM   H16G 9708   2.077   0.187   8.942  0.0935 -0.0196 -1.6014
   97OSM   C17F 9709   2.230   0.097   8.825 -0.0097 -0.9595  0.1113
   97OSM   H17F 9710   2.157   0.033   8.771 -0.5159  0.8566 -1.4710
   97OSM   H17G 9711   2.319   0.031   8.837 -0.0372 -1.1254 -0.5323
   97OSM   C18F 9712   2.268   0.220   8.742  0.2309 -0.5347 -0.2914
   97OSM   H18F 9713   2.335   0.284   8.803  1.0896 -0.4129 -1.3404
   97OSM   H18G 9714   2.173   0.271   8.715  0.1254 -0.2355  0.6071
   97OSM   H18H 9715   2.307   0.194   8.641 -1.1082  0.5449 -1.1191
   98OSM      N 9716   5.118   6.554  11.148  0.2764 -1.0072 -0.1841
   98OSM    C15 9717   5.199   6.632  11.247  0.2085 -0.3242  0.4215
   98OSM   H15A 9718   5.135   6.697  11.305  0.9989  1.1705 -0.3052
   98OSM   H15B 9719   5.279   6.683  11.195  0.9546 -3.2800 -1.5658
   98OSM   H15C 9720   5.256   6.571  11.316 -0.2383 -1.5934 -0.3082
   98OSM    C14 9721   5.027   6.468  11.227  0.4205 -0.0997  0.3374
   98OSM   H14A 9722   4.974   6.511  11.310 -1.1688 -1.3867  0.0378
   98OSM   H14B 9723   5.084   6.391  11.278  2.0868  1.1501  0.4530
   98OSM   H14C 9724   4.953   6.422  11.163  0.9372  0.0193 -0.3620
   98OSM    C13 9725   5.037   6.656  11.068 -0.6171 -0.6778 -0.9396
   98OSM   H13A 9726   4.971   6.603  11.001  0.0381 -3.5317  0.5144
   98OSM   H13B 9727   5.103   6.724  11.015 -0.9254  0.7911  0.4495
   98OSM   H13C 9728   4.982   6.720  11.135 -1.9463 -1.0173 -1.6781
   98OSM    C12 9729   5.203   6.472  11.058 -0.0876  0.5487 -0.3224
   98OSM   H12A 9730   5.268   6.412  11.120  1.5929  1.9819 -0.6061
   98OSM   H12B 9731   5.267   6.534  10.997 -0.2290 -0.6124 -1.7149
   98OSM    C11 9732   5.131   6.388  10.959  0.5004  0.3299  0.0180
   98OSM   H11A 9733   5.197   6.350  10.877  1.6807 -1.0697  1.5475
   98OSM   H11B 9734   5.047   6.446  10.915  1.4751  0.6842 -1.4821
   98OSM      P 9735   5.048   6.135  10.974 -0.4608 -0.0872 -0.1877
   98OSM    O13 9736   5.135   6.035  11.044 -0.3544 -0.1627  0.2763
   98OSM    O14 9737   4.904   6.109  10.989 -0.2464  0.6244  0.3035
   98OSM    O11 9738   5.096   6.142  10.820  0.0644 -0.0113 -0.3738
   98OSM    O12 9739   5.074   6.280  11.025  0.3078  0.2454  0.9101
   98OSM    C1S 9740   4.993   6.159  10.721  0.4645  0.2810 -0.1908
   98OSM    H1S 9741   4.938   6.255  10.730 -0.9495 -0.4349 -0.9084
   98OSM    H1T 9742   4.910   6.087  10.734 -2.6079  3.3006 -1.5110
   98OSM     NF 9743   4.920   6.142  10.483  0.1782  0.3861  0.5105
   98OSM    HNF 9744   4.864   6.059  10.476 -0.2477  0.7496 -0.5117
   98OSM    C2S 9745   5.039   6.124  10.574  0.3133 -0.7883  0.9477
   98OSM    H2S 9746   5.119   6.195  10.544  0.1469 -1.3915 -1.0929
   98OSM    C3S 9747   5.110   5.987  10.577 -1.5725 -0.2238  0.2463
   98OSM    H3S 9748   5.041   5.913  10.622 -0.9887 -0.3932  0.8707
   98OSM     O3 9749   5.226   5.974  10.660 -0.0111 -0.5659  0.0561
   98OSM    HO3 9750   5.217   6.047  10.721  0.2497  1.0453 -1.7522
   98OSM    C4S 9751   5.145   5.950  10.438 -0.1091 -0.0612 -0.0167
   98OSM    H4S 9752   5.057   5.914  10.383 -0.8886  1.2146  0.3689
   98OSM    C5S 9753   5.258   5.959  10.366 -1.0375 -0.7524 -0.5167
   98OSM    H5S 9754   5.343   5.988  10.430 -2.3590 -0.4625  1.1654
   98OSM    C6S 9755   5.285   5.935  10.223  0.2541  0.2492  0.6392
   98OSM    H6S 9756   5.372   5.868  10.204  0.5326  0.6388  0.5230
   98OSM    H6T 9757   5.322   6.030  10.178  2.0834 -0.5014  0.4770
   98OSM    C7S 9758   5.172   5.875  10.135  0.4050  0.0185  0.6211
   98OSM    H7S 9759   5.079   5.932  10.157  0.8394 -0.1285  3.1064
   98OSM    H7T 9760   5.159   5.766  10.152  2.2515 -0.2211  0.6451
   98OSM    C8S 9761   5.207   5.892   9.988 -0.2095  1.3010  1.1407
   98OSM    H8S 9762   5.304   5.841   9.969 -0.7519  1.4668 -2.9342
   98OSM    H8T 9763   5.229   6.000   9.981  1.4794  0.9140 -0.1334
   98OSM    C9S 9764   5.104   5.839   9.884 -0.0441 -0.2495 -0.1840
   98OSM    H9S 9765   5.011   5.889   9.918  1.1205  1.2882  0.8751
   98OSM    H9T 9766   5.110   5.729   9.898  0.9954 -0.0762  0.9340
   98OSM   C10S 9767   5.119   5.886   9.740 -0.4695 -0.2113  0.7594
   98OSM   H10S 9768   5.133   5.996   9.735  1.6507 -0.4482  0.3990
   98OSM   H10T 9769   5.023   5.874   9.686 -0.5509  0.3674  0.7621
   98OSM   C11S 9770   5.241   5.831   9.661  0.4847 -0.4229  0.5001
   98OSM   H11S 9771   5.240   5.720   9.665 -0.2990 -0.4051  0.9180
   98OSM   H11T 9772   5.334   5.858   9.717  0.2398 -0.9295  1.1734
   98OSM   C12S 9773   5.248   5.898   9.522  0.2675 -0.4409 -0.3561
   98OSM   H12S 9774   5.278   6.005   9.531 -0.5048 -0.3322  1.3897
   98OSM   H12T 9775   5.150   5.897   9.470 -0.2327  2.2848  0.3832
   98OSM   C13S 9776   5.353   5.832   9.427 -0.7572 -0.1872 -0.0257
   98OSM   H13S 9777   5.338   5.722   9.430 -2.3604  0.0277  2.3332
   98OSM   H13T 9778   5.454   5.846   9.469 -0.1747 -0.1332 -1.3811
   98OSM   C14S 9779   5.359   5.883   9.282  0.0468 -0.1618  0.4648
   98OSM   H14S 9780   5.439   5.824   9.232 -0.1294  1.4117 -1.8291
   98OSM   H14T 9781   5.379   5.992   9.283 -0.6799 -0.0283  1.4636
   98OSM   C15S 9782   5.236   5.864   9.187 -0.2161  0.3929 -0.5539
   98OSM   H15S 9783   5.143   5.892   9.241  0.4259  2.8240 -0.5629
   98OSM   H15T 9784   5.227   5.756   9.163  1.5520  0.4497 -1.6915
   98OSM   C16S 9785   5.248   5.931   9.057 -0.2138  0.2087  0.8068
   98OSM   H16S 9786   5.255   6.041   9.069 -0.0691  0.4122 -0.9728
   98OSM   H16T 9787   5.158   5.912   8.994  1.2700  1.1694 -1.7474
   98OSM   C17S 9788   5.368   5.874   8.973  0.3911 -0.1634  0.8776
   98OSM   H17S 9789   5.378   5.766   8.997  2.3810  0.3505  2.7339
   98OSM   H17T 9790   5.466   5.919   9.002  1.2215 -1.3851  0.1011
   98OSM   C18S 9791   5.342   5.901   8.829  0.2992 -0.2598  0.2293
   98OSM   H18S 9792   5.419   5.847   8.769  0.6769  1.4548 -0.9072
   98OSM   H18T 9793   5.348   6.006   8.794  1.3065  0.1967  1.6730
   98OSM   H18U 9794   5.250   5.847   8.800  1.5361 -1.6476 -1.3696
   98OSM    C1F 9795   4.881   6.265  10.456 -0.1094  0.1662  0.1020
   98OSM     OF 9796   4.935   6.363  10.511  0.8770  0.5345 -0.5017
   98OSM    C2F 9797   4.770   6.278  10.372 -1.0310  0.3346  0.1680
   98OSM    H2F 9798   4.784   6.378  10.326  1.6306  0.1314  0.4280
   98OSM    H2G 9799   4.685   6.290  10.443 -1.8271  0.2227 -0.7432
   98OSM    C3F 9800   4.743   6.170  10.262 -1.0140  0.4508 -0.4951
   98OSM    H3F 9801   4.642   6.195  10.224 -0.2658  3.5878 -0.6583
   98OSM    H3G 9802   4.750   6.062  10.287  2.1799  0.6751  0.0764
   98OSM    C4F 9803   4.834   6.182  10.139  0.5883  0.8913  0.3566
   98OSM    H4F 9804   4.936   6.149  10.171  0.6392 -0.7018 -1.3083
   98OSM    H4G 9805   4.831   6.288  10.106 -0.6621  0.2130 -1.9056
   98OSM    C5F 9806   4.778   6.104  10.021  0.4159  0.3311  0.6708
   98OSM    H5F 9807   4.670   6.126  10.007  0.6196  1.3318  0.6186
   98OSM    H5G 9808   4.788   5.995  10.038 -0.3615 -0.2749 -2.2263
   98OSM    C6F 9809   4.856   6.139   9.891 -0.7268  0.2933  0.3606
   98OSM    H6F 9810   4.961   6.109   9.907 -1.6855 -3.9756 -0.0850
   98OSM    H6G 9811   4.835   6.247   9.879  1.3321  0.9300  2.0764
   98OSM    C7F 9812   4.804   6.064   9.769 -0.3564 -0.1046 -0.8089
   98OSM    H7F 9813   4.694   6.077   9.773 -0.3054  0.4559 -1.1216
   98OSM    H7G 9814   4.825   5.955   9.776  1.7482  0.1750 -2.0359
   98OSM    C8F 9815   4.872   6.121   9.643 -0.2215  0.3149  0.1148
   98OSM    H8F 9816   4.903   6.042   9.571  1.4749  0.8866  0.1656
   98OSM    H8G 9817   4.959   6.175   9.687  0.0290 -0.0459  0.0609
   98OSM    C9F 9818   4.785   6.223   9.580  0.1002 -0.1030  0.1621
   98OSM    H9F 9819   4.778   6.322   9.626  0.3518 -0.6120  1.3371
   98OSM   C10F 9820   4.717   6.206   9.465  0.0519 -0.5098 -0.3795
   98OSM   H10F 9821   4.668   6.296   9.425  0.8104  0.1420  0.1197
   98OSM   C11F 9822   4.718   6.084   9.380  0.1818  0.2266  0.0523
   98OSM   H11F 9823   4.616   6.052   9.351  0.2714 -0.3467  0.3448
   98OSM   H11G 9824   4.751   5.997   9.441 -2.8278 -1.2210 -0.2305
   98OSM   C12F 9825   4.802   6.102   9.249  1.0134 -0.7354  0.4149
   98OSM   H12F 9826   4.909   6.119   9.273  1.3391  0.9697 -1.8912
   98OSM   H12G 9827   4.756   6.191   9.201 -1.7524 -1.9341  0.6609
   98OSM   C13F 9828   4.792   5.976   9.162 -0.2788 -0.1260  0.0957
   98OSM   H13F 9829   4.684   5.965   9.139 -0.6364 -0.1685  1.6838
   98OSM   H13G 9830   4.818   5.886   9.221 -0.7012 -2.0511 -2.4712
   98OSM   C14F 9831   4.873   5.981   9.029  0.1324  0.5079 -0.5467
   98OSM   H14F 9832   4.887   5.882   8.981  0.4480  1.1497 -1.8181
   98OSM   H14G 9833   4.974   6.021   9.050  0.8535 -1.9650  1.2748
   98OSM   C15F 9834   4.795   6.065   8.928  0.6418 -0.0209 -0.2559
   98OSM   H15F 9835   4.798   6.171   8.961 -1.2937  0.2576 -0.8323
   98OSM   H15G 9836   4.690   6.030   8.923  0.5663  0.0948  0.5095
   98OSM   C16F 9837   4.857   6.059   8.786  0.6447 -0.4522  0.0561
   98OSM   H16F 9838   4.796   6.124   8.719 -0.3727 -1.6590 -0.2089
   98OSM   H16G 9839   4.874   5.953   8.760  1.1729 -1.2975  3.3002
   98OSM   C17F 9840   4.989   6.135   8.775  0.2628 -0.0980  0.1428
   98OSM   H17F 9841   5.078   6.106   8.835  1.0387  1.4333 -0.2230
   98OSM   H17G 9842   4.958   6.238   8.801  0.7630  0.2973 -0.8226
   98OSM   C18F 9843   5.032   6.126   8.626 -0.2076 -0.9419  0.2922
   98OSM   H18F 9844   4.963   6.177   8.555  1.7760  0.0322 -1.0120
   98OSM   H18G 9845   5.024   6.019   8.598  0.6800 -0.4678 -1.9788
   98OSM   H18H 9846   5.138   6.160   8.624 -0.1879 -1.0568 -1.3684
   99OSM      N 9847   0.386   6.440  10.761 -0.4273  0.0022  0.2920
   99OSM    C15 9848   0.439   6.486  10.895 -0.1542  0.0717  0.1027
   99OSM   H15A 9849   0.439   6.396  10.954  1.6317 -0.6083 -0.8358
   99OSM   H15B 9850   0.379   6.565  10.937  0.6293  1.7693 -1.7637
   99OSM   H15C 9851   0.539   6.526  10.883 -0.0886  0.7136  2.3666
   99OSM    C14 9852   0.391   6.558  10.665 -0.0882  0.6083 -0.2306
   99OSM   H14A 9853   0.327   6.639  10.695 -0.7357  0.4707 -1.1945
   99OSM   H14B 9854   0.358   6.530  10.566  0.0772 -1.8695  0.3726
   99OSM   H14C 9855   0.495   6.588  10.658  0.8978 -2.5010 -0.5576
   99OSM    C13 9856   0.479   6.332  10.696 -0.5193  1.1514  0.0074
   99OSM   H13A 9857   0.452   6.305  10.595 -0.6008  3.0876 -0.5412
   99OSM   H13B 9858   0.473   6.240  10.752  2.2466  0.5814 -0.5024
   99OSM   H13C 9859   0.578   6.374  10.693  0.7179 -1.2210  2.8351
   99OSM    C12 9860   0.242   6.401  10.778 -0.0057  0.4373 -0.1790
   99OSM   H12A 9861   0.201   6.385  10.679  1.1836 -3.5072 -0.2291
   99OSM   H12B 9862   0.200   6.493  10.814  1.0779  1.1284 -0.6306
   99OSM    C11 9863   0.207   6.287  10.871  0.5435 -0.1155 -0.0932
   99OSM   H11A 9864   0.245   6.307  10.974  1.0844 -0.2396 -0.2606
   99OSM   H11B 9865   0.271   6.203  10.836 -0.9051 -0.6495 -1.5468
   99OSM      P 9866  -0.011   6.131  10.854  0.7889 -0.8012 -0.2843
   99OSM    O13 9867   0.014   6.031  10.965 -0.7053 -0.2975 -0.2836
   99OSM    O14 9868  -0.150   6.173  10.832 -0.0649  0.8812 -0.2923
   99OSM    O11 9869   0.042   6.065  10.726  0.1618  0.2787  0.0701
   99OSM    O12 9870   0.067   6.265  10.874  0.1520 -0.0701 -0.1526
   99OSM    C1S 9871   0.054   6.143  10.603 -0.2929 -0.3940 -0.2505
   99OSM    H1S 9872   0.158   6.182  10.597  0.2983 -1.7285  0.8427
   99OSM    H1T 9873  -0.009   6.235  10.608  0.3332  0.0671 -0.6427
   99OSM     NF 9874   0.024   6.152  10.363  0.5294  0.3231 -0.7297
   99OSM    HNF 9875  -0.058   6.174  10.310 -0.6779  1.7047  1.5394
   99OSM    C2S 9876   0.008   6.065  10.480 -0.3530  0.3689  0.1838
   99OSM    H2S 9877   0.088   5.988  10.480 -1.0656 -0.4690  2.6407
   99OSM    C3S 9878  -0.126   5.999  10.505 -0.2625  0.1175  1.0050
   99OSM    H3S 9879  -0.200   6.077  10.533  0.4476  0.6789  1.3321
   99OSM     O3 9880  -0.143   5.896  10.601 -1.1040 -0.5423  0.0337
   99OSM    HO3 9881  -0.054   5.889  10.635 -0.3316 -3.1249 -2.1449
   99OSM    C4S 9882  -0.172   5.931  10.378 -0.2331  0.2087  0.3326
   99OSM    H4S 9883  -0.105   5.853  10.339 -0.0016 -0.3633  1.7908
   99OSM    C5S 9884  -0.288   5.963  10.319 -0.3658 -0.3930 -0.0675
   99OSM    H5S 9885  -0.351   6.035  10.374  0.6625 -0.2900  1.0432
   99OSM    C6S 9886  -0.339   5.900  10.195  0.2929  0.0867  0.2657
   99OSM    H6S 9887  -0.445   5.868  10.206  0.7824 -1.6765  0.1724
   99OSM    H6T 9888  -0.282   5.808  10.169  1.3329  1.4159 -2.6013
   99OSM    C7S 9889  -0.326   5.993  10.081  0.1160  0.4925 -0.5056
   99OSM    H7S 9890  -0.223   6.026  10.053 -0.0999 -1.1469 -3.6546
   99OSM    H7T 9891  -0.398   6.077  10.090 -0.8930 -0.0130 -2.9031
   99OSM    C8S 9892  -0.376   5.931   9.951  0.1169 -0.4882  0.2651
   99OSM    H8S 9893  -0.480   5.893   9.944 -0.1657 -0.1547  2.1823
   99OSM    H8T 9894  -0.314   5.842   9.925 -4.0641 -3.7508  0.4417
   99OSM    C9S 9895  -0.377   6.038   9.850  0.0663 -0.1985  0.3938
   99OSM    H9S 9896  -0.279   6.089   9.841  0.0532  0.1651  2.0563
   99OSM    H9T 9897  -0.445   6.120   9.884  0.9178  0.3706  0.7604
   99OSM   C10S 9898  -0.418   5.994   9.711 -0.9402  0.5238  0.1424
   99OSM   H10S 9899  -0.518   5.948   9.724 -0.2903 -1.3606 -1.1158
   99OSM   H10T 9900  -0.350   5.911   9.683 -2.8114 -0.9179 -0.3424
   99OSM   C11S 9901  -0.410   6.108   9.603  0.2738  0.2846 -0.4630
   99OSM   H11S 9902  -0.386   6.080   9.499 -0.4013 -0.0001 -0.5504
   99OSM   H11T 9903  -0.338   6.184   9.640  0.3026 -0.7053  1.7030
   99OSM   C12S 9904  -0.547   6.176   9.590  0.3631 -0.0928 -0.0351
   99OSM   H12S 9905  -0.613   6.099   9.545 -1.0728  2.4762 -2.7141
   99OSM   H12T 9906  -0.587   6.203   9.690 -2.2522 -1.1196 -0.7235
   99OSM   C13S 9907  -0.543   6.311   9.517  0.2585 -0.3836  0.0416
   99OSM   H13S 9908  -0.457   6.373   9.549 -1.0800  1.6914 -0.1302
   99OSM   H13T 9909  -0.636   6.357   9.557 -0.0560 -0.0623 -1.0364
   99OSM   C14S 9910  -0.539   6.297   9.358 -0.1266  0.5486  0.1189
   99OSM   H14S 9911  -0.550   6.191   9.324 -0.3135  0.7732 -0.5262
   99OSM   H14T 9912  -0.441   6.336   9.324  1.1502 -1.1235  1.6769
   99OSM   C15S 9913  -0.651   6.382   9.295  0.1901 -0.2944 -0.2155
   99OSM   H15S 9914  -0.670   6.483   9.337  0.1051 -0.0940 -0.7197
   99OSM   H15T 9915  -0.746   6.324   9.296  0.3584 -0.5811 -0.4864
   99OSM   C16S 9916  -0.628   6.398   9.143  0.4239  0.1607  0.1979
   99OSM   H16S 9917  -0.524   6.429   9.119 -0.4901  1.7076 -2.1987
   99OSM   H16T 9918  -0.698   6.478   9.110  0.2893  0.8101  1.9634
   99OSM   C17S 9919  -0.674   6.272   9.069  0.1805 -0.4568 -1.0011
   99OSM   H17S 9920  -0.783   6.252   9.072  0.2330 -0.7227  0.8500
   99OSM   H17T 9921  -0.625   6.190   9.126  2.1866  1.1164 -0.3293
   99OSM   C18S 9922  -0.628   6.272   8.919 -1.0045  0.3685 -0.0586
   99OSM   H18S 9923  -0.518   6.263   8.919 -0.7996  2.0125  1.7510
   99OSM   H18T 9924  -0.659   6.362   8.861  0.1676 -0.2783 -1.7500
   99OSM   H18U 9925  -0.671   6.182   8.871  1.4555 -0.3888 -0.9832
   99OSM    C1F 9926   0.131   6.202  10.318 -0.4080  0.0550 -0.1031
   99OSM     OF 9927   0.235   6.220  10.384 -0.0602 -0.2908  0.5830
   99OSM    C2F 9928   0.134   6.227  10.176 -0.0361 -0.3246 -0.3347
   99OSM    H2F 9929   0.038   6.231  10.121  0.6292  0.4033 -1.4916
   99OSM    H2G 9930   0.188   6.144  10.126 -1.7544 -0.8382 -1.4281
   99OSM    C3F 9931   0.211   6.361  10.156  0.6175 -0.7329  0.7227
   99OSM    H3F 9932   0.142   6.438  10.199  0.9854 -0.6160  1.1160
   99OSM    H3G 9933   0.314   6.354  10.198  0.9024 -2.6767 -0.2128
   99OSM    C4F 9934   0.247   6.382  10.010  0.3360 -0.4617  0.1557
   99OSM    H4F 9935   0.294   6.481   9.991 -1.3049 -0.1136 -2.5303
   99OSM    H4G 9936   0.160   6.395   9.943  0.3088 -0.9407  0.0962
   99OSM    C5F 9937   0.344   6.275   9.960 -0.3417  0.2436 -0.0446
   99OSM    H5F 9938   0.303   6.172   9.963  1.0511 -0.5252 -3.2923
   99OSM    H5G 9939   0.442   6.280  10.013 -1.3008 -1.0282  1.9588
   99OSM    C6F 9940   0.380   6.300   9.815  0.6352  0.4963 -0.1314
   99OSM    H6F 9941   0.455   6.381   9.804  1.9009 -0.3917  1.3790
   99OSM    H6G 9942   0.285   6.330   9.766  0.6840 -0.2645 -0.7145
   99OSM    C7F 9943   0.428   6.174   9.744 -0.5014  0.0767  0.4457
   99OSM    H7F 9944   0.340   6.107   9.742 -1.1060  0.8477  0.3013
   99OSM    H7G 9945   0.516   6.133   9.799 -2.0024 -0.0682  2.8974
   99OSM    C8F 9946   0.492   6.208   9.604 -0.0767 -0.7876  0.0035
   99OSM    H8F 9947   0.553   6.124   9.566 -1.8145 -1.6730 -0.9437
   99OSM    H8G 9948   0.566   6.291   9.607  1.4347 -2.0032 -1.6078
   99OSM    C9F 9949   0.380   6.244   9.508 -0.8075  0.1213  0.4059
   99OSM    H9F 9950   0.315   6.329   9.532  0.1769  0.8787  0.4266
   99OSM   C10F 9951   0.348   6.175   9.395  1.1339 -0.0729 -1.5195
   99OSM   H10F 9952   0.267   6.211   9.330 -1.2883 -0.0312  1.3337
   99OSM   C11F 9953   0.394   6.043   9.339 -0.3999  0.2065  0.4921
   99OSM   H11F 9954   0.315   5.966   9.343  0.8359 -1.3126 -2.0175
   99OSM   H11G 9955   0.474   5.996   9.399 -1.3174 -0.4838  1.1986
   99OSM   C12F 9956   0.444   6.049   9.189 -0.0189  0.3762  0.4964
   99OSM   H12F 9957   0.493   5.951   9.170 -2.4921 -0.9162  0.4242
   99OSM   H12G 9958   0.514   6.134   9.173  1.2641 -0.7215  0.0169
   99OSM   C13F 9959   0.334   6.045   9.079  0.1394 -0.0999  0.5545
   99OSM   H13F 9960   0.261   6.126   9.100  0.2303 -0.4521  2.4107
   99OSM   H13G 9961   0.274   5.953   9.097  0.5707 -0.3525  0.7163
   99OSM   C14F 9962   0.406   6.046   8.938  0.6160 -0.1714 -0.1004
   99OSM   H14F 9963   0.488   5.972   8.944  0.9902  0.1960 -0.6608
   99OSM   H14G 9964   0.454   6.144   8.918  1.9487 -1.5115 -4.5174
   99OSM   C15F 9965   0.326   6.005   8.814 -0.2974 -0.2246  1.1734
   99OSM   H15F 9966   0.253   6.082   8.781  0.6009  0.0481 -0.2782
   99OSM   H15G 9967   0.252   5.927   8.843  0.1842 -0.1772  2.5859
   99OSM   C16F 9968   0.404   5.958   8.689  0.3913 -0.2878 -0.0813
   99OSM   H16F 9969   0.456   5.862   8.711  1.6489  0.1395 -1.0806
   99OSM   H16G 9970   0.478   6.035   8.659  0.1385  0.4868  1.1904
   99OSM   C17F 9971   0.310   5.942   8.567  0.0663 -0.0816  0.4606
   99OSM   H17F 9972   0.236   6.025   8.567 -0.0943 -0.1996 -0.7958
   99OSM   H17G 9973   0.242   5.855   8.569 -4.5030  3.1400 -0.0110
   99OSM   C18F 9974   0.384   5.927   8.431  0.0475  0.6348  0.0277
   99OSM   H18F 9975   0.419   5.825   8.404 -1.4562  0.3611 -0.9940
   99OSM   H18G 9976   0.475   5.991   8.429  2.0917 -2.1293 -1.8500
   99OSM   H18H 9977   0.310   5.957   8.353  0.9716 -1.7950 -1.9288
  100OSM      N 9978   0.302   2.954  10.853  0.3121  0.9695 -0.0969
  100OSM    C15 9979   0.230   3.071  10.816 -0.1125 -0.4614 -0.0926
  100OSM   H15A 9980   0.134   3.057  10.768  0.0310  1.0596 -0.8732
  100OSM   H15B 9981   0.285   3.123  10.739 -0.0781  0.6245  0.6505
  100OSM   H15C 9982   0.209   3.134  10.901  0.7437  0.1871 -0.3545
  100OSM    C14 9983   0.412   3.013  10.941 -0.1977  0.3127  0.5404
  100OSM   H14A 9984   0.364   3.094  10.994 -2.0470  0.2491 -0.9116
  100OSM   H14B 9985   0.490   3.047  10.874 -1.4909 -0.3898 -1.4208
  100OSM   H14C 9986   0.441   2.940  11.015 -0.9173  0.6571  1.1666
  100OSM    C13 9987   0.207   2.875  10.943  0.0897  0.0561  0.0731
  100OSM   H13A 9988   0.153   2.944  11.005 -0.5257 -0.7160  0.4053
  100OSM   H13B 9989   0.256   2.801  11.005  0.3683  2.0726  2.4380
  100OSM   H13C 9990   0.139   2.826  10.875  1.2682 -0.4688 -0.7781
  100OSM    C12 9991   0.354   2.875  10.743  0.3791 -0.1432 -0.1603
  100OSM   H12A 9992   0.423   2.929  10.680 -0.5142  0.6075 -0.5163
  100OSM   H12B 9993   0.270   2.845  10.682  0.9392  0.4834 -1.2646
  100OSM    C11 9994   0.435   2.748  10.780 -0.1059 -0.2735  0.0855
  100OSM   H11A 9995   0.380   2.685  10.852 -0.9565  1.1672  0.7543
  100OSM   H11B 9996   0.522   2.787  10.838 -1.1976  0.4420  1.2850
  100OSM      P 9997   0.611   2.719  10.586 -0.0543 -0.2534 -0.0292
  100OSM    O13 9998   0.635   2.866  10.595 -0.0456  0.5820 -0.3018
  100OSM    O14 9999   0.717   2.628  10.630  0.2137  0.2844 -0.4210
  100OSM    O1110000   0.571   2.693  10.427 -0.2088  0.2799 -0.0301
  100OSM    O1210001   0.474   2.685  10.655  0.3086  0.2020 -0.2552
  100OSM    C1S10002   0.471   2.594  10.395 -0.3201  0.1890  0.4108
  100OSM    H1S10003   0.366   2.621  10.420 -0.5333  0.5237 -0.7688
  100OSM    H1T10004   0.505   2.502  10.447  0.7479  0.0042 -0.5555
  100OSM     NF10005   0.399   2.416  10.233 -0.3048 -0.0806  0.6604
  100OSM    HNF10006   0.433   2.323  10.228 -0.5780 -0.1306 -1.6929
  100OSM    C2S10007   0.479   2.542  10.248  0.7009  0.0193  0.4964
  100OSM    H2S10008   0.433   2.615  10.178  0.6933 -1.6538 -1.3406
  100OSM    C3S10009   0.627   2.534  10.188  0.1395 -0.2684 -0.1577
  100OSM    H3S10010   0.691   2.476  10.258  0.1103  1.3400  1.2724
  100OSM     O310011   0.683   2.665  10.177  0.7139 -0.3191 -0.1255
  100OSM    HO310012   0.636   2.698  10.253 -0.1982 -1.1299 -0.3223
  100OSM    C4S10013   0.637   2.473  10.051  0.8693  0.4436 -0.0927
  100OSM    H4S10014   0.623   2.547   9.971  0.7091  1.7602  1.1046
  100OSM    C5S10015   0.682   2.348  10.025  0.2147 -0.2958  0.2030
  100OSM    H5S10016   0.735   2.282  10.096  1.2343  0.8749  0.5737
  100OSM    C6S10017   0.684   2.297   9.884  0.5843 -0.1093  0.2682
  100OSM    H6S10018   0.597   2.228   9.884  0.8678 -0.4668  0.4130
  100OSM    H6T10019   0.770   2.237   9.848 -0.3257 -0.4418 -1.4627
  100OSM    C7S10020   0.638   2.390   9.761 -0.5425  0.3328  0.0451
  100OSM    H7S10021   0.716   2.469   9.760 -1.4036  1.2455  1.4223
  100OSM    H7T10022   0.546   2.437   9.802 -1.1701 -0.7420 -0.0874
  100OSM    C8S10023   0.638   2.306   9.636 -0.4426 -0.7649  1.1636
  100OSM    H8S10024   0.585   2.210   9.652 -1.5131  0.0326  2.6805
  100OSM    H8T10025   0.744   2.282   9.614 -0.6252 -1.4285  0.9718
  100OSM    C9S10026   0.595   2.382   9.505 -0.0342 -0.0996  0.0385
  100OSM    H9S10027   0.644   2.482   9.507  0.9818 -0.5801 -0.1670
  100OSM    H9T10028   0.486   2.401   9.490  0.1052  0.3724 -0.3939
  100OSM   C10S10029   0.652   2.305   9.379 -0.0566  0.6929 -0.5001
  100OSM   H10S10030   0.613   2.201   9.384 -0.5195  0.9033  0.4144
  100OSM   H10T10031   0.763   2.302   9.387 -0.0208  0.5807 -1.0118
  100OSM   C11S10032   0.614   2.376   9.246  0.2655  0.2320  0.2269
  100OSM   H11S10033   0.650   2.482   9.249  0.1310  0.3815 -1.9566
  100OSM   H11T10034   0.504   2.390   9.248  0.2455  0.7099  4.1158
  100OSM   C12S10035   0.650   2.292   9.114 -0.8055 -0.1735  0.0758
  100OSM   H12S10036   0.616   2.188   9.133  0.0316 -0.5512 -0.4472
  100OSM   H12T10037   0.759   2.278   9.101 -1.0016 -1.0247 -0.7709
  100OSM   C13S10038   0.587   2.339   8.978 -0.5481 -0.2379 -0.0250
  100OSM   H13S10039   0.603   2.448   8.963 -1.3593 -0.2794 -1.3766
  100OSM   H13T10040   0.478   2.324   8.976 -0.3063 -2.4525 -2.7095
  100OSM   C14S10041   0.658   2.269   8.860  0.5825  0.2288  0.3940
  100OSM   H14S10042   0.764   2.299   8.851  1.3730 -2.2718  0.5745
  100OSM   H14T10043   0.615   2.314   8.767  2.4380 -1.1309 -1.2224
  100OSM   C15S10044   0.653   2.112   8.845  0.2744  0.1398  0.3863
  100OSM   H15S10045   0.548   2.077   8.859  0.1358 -0.5152 -1.8200
  100OSM   H15T10046   0.730   2.060   8.906  1.4079 -0.9999 -1.9013
  100OSM   C16S10047   0.663   2.059   8.698 -0.2953 -0.3531 -0.0459
  100OSM   H16S10048   0.749   2.116   8.657  1.3126 -2.3673  0.3859
  100OSM   H16T10049   0.585   2.105   8.634  1.8444  3.3395 -0.2661
  100OSM   C17S10050   0.701   1.917   8.675 -0.1809  0.3751  0.1344
  100OSM   H17S10051   0.628   1.856   8.732  0.0837  1.6252  1.9137
  100OSM   H17T10052   0.798   1.902   8.727 -1.0740  1.6434  2.3331
  100OSM   C18S10053   0.718   1.868   8.531 -0.3869 -0.1680 -0.2005
  100OSM   H18S10054   0.622   1.854   8.477 -1.4108  0.6930  1.3115
  100OSM   H18T10055   0.776   1.773   8.526  1.1282  0.7084  0.0787
  100OSM   H18U10056   0.783   1.938   8.475 -0.8703  0.4687  0.0258
  100OSM    C1F10057   0.263   2.423  10.238 -0.0828  0.7842 -0.1423
  100OSM     OF10058   0.202   2.526  10.259  0.3126 -0.8706  0.3110
  100OSM    C2F10059   0.197   2.293  10.237  1.0014 -0.7529  0.2198
  100OSM    H2F10060   0.117   2.289  10.314 -1.3179 -0.8905 -2.0350
  100OSM    H2G10061   0.268   2.212  10.263  1.8167 -0.8582 -2.0667
  100OSM    C3F10062   0.143   2.259  10.100 -0.1044 -0.2685  0.2001
  100OSM    H3F10063   0.075   2.339  10.064  1.1600  0.6211 -0.2882
  100OSM    H3G10064   0.082   2.171  10.129  0.5392 -0.2335  1.7772
  100OSM    C4F10065   0.237   2.247   9.978  0.7983 -0.3142 -0.2401
  100OSM    H4F10066   0.315   2.175  10.011  0.4469 -0.1339  1.0377
  100OSM    H4G10067   0.290   2.343   9.963  3.4348 -1.5724  0.4526
  100OSM    C5F10068   0.153   2.205   9.851  0.1639 -0.8776 -0.0997
  100OSM    H5F10069   0.085   2.289   9.826 -1.1782 -2.4307 -1.9882
  100OSM    H5G10070   0.082   2.122   9.870 -0.1315 -0.4144  0.8797
  100OSM    C6F10071   0.245   2.165   9.736 -0.0284  0.8660 -0.4432
  100OSM    H6F10072   0.337   2.112   9.769 -1.3217 -0.8303  0.6305
  100OSM    H6G10073   0.287   2.253   9.682  0.8052  1.6217  1.3506
  100OSM    C7F10074   0.169   2.082   9.633  0.3183  0.6623  0.4048
  100OSM    H7F10075   0.099   2.151   9.582  0.8365  0.5545 -0.4775
  100OSM    H7G10076   0.120   1.995   9.681 -0.6653  0.8711 -0.2127
  100OSM    C8F10077   0.257   2.019   9.516  0.6694 -0.4491 -0.1721
  100OSM    H8F10078   0.186   1.957   9.458  1.4278  1.1256 -2.9817
  100OSM    H8G10079   0.332   1.956   9.568 -2.1634 -1.3390  3.1876
  100OSM    C9F10080   0.333   2.114   9.427 -0.7064  0.1470  0.3628
  100OSM    H9F10081   0.404   2.181   9.477 -2.4905  1.0222  1.8770
  100OSM   C10F10082   0.335   2.119   9.294  0.3493  0.0764  0.5152
  100OSM   H10F10083   0.397   2.195   9.243 -0.3652  0.4674  0.2089
  100OSM   C11F10084   0.254   2.034   9.197  0.3466  0.0214  0.0392
  100OSM   H11F10085   0.157   2.085   9.177  0.4628  0.8098  1.3463
  100OSM   H11G10086   0.227   1.935   9.239 -0.7105  0.1243 -0.3709
  100OSM   C12F10087   0.321   2.003   9.066 -0.2399 -0.6843 -0.0303
  100OSM   H12F10088   0.409   1.939   9.087  0.7551  1.1761  1.7923
  100OSM   H12G10089   0.366   2.096   9.025 -1.1789  0.2239  0.9372
  100OSM   C13F10090   0.230   1.941   8.967  0.3321 -0.4514 -0.1324
  100OSM   H13F10091   0.132   1.991   8.971 -0.5355 -2.1018  2.5256
  100OSM   H13G10092   0.206   1.836   8.997  0.7390 -1.3615 -2.7427
  100OSM   C14F10093   0.279   1.950   8.818 -0.1810  0.5500 -0.6405
  100OSM   H14F10094   0.374   1.895   8.802  0.1844  1.4323 -1.6536
  100OSM   H14G10095   0.297   2.051   8.776 -2.9546  0.5403 -2.1164
  100OSM   C15F10096   0.170   1.878   8.736  0.1455 -0.3178  0.0784
  100OSM   H15F10097   0.083   1.945   8.720 -0.9644 -1.6999  0.1757
  100OSM   H15G10098   0.134   1.792   8.796 -0.6449  0.2896  0.4924
  100OSM   C16F10099   0.218   1.836   8.598  0.0667 -0.1051 -0.5173
  100OSM   H16F10100   0.293   1.901   8.547 -0.5534  0.4256 -0.7838
  100OSM   H16G10101   0.130   1.835   8.530  0.3575 -3.0128 -0.9511
  100OSM   C17F10102   0.273   1.692   8.605  0.0227 -0.6517 -0.1626
  100OSM   H17F10103   0.195   1.636   8.662 -1.3627 -1.6397 -2.8633
  100OSM   H17G10104   0.361   1.669   8.669 -0.2129 -3.1115 -0.6058
  100OSM   C18F10105   0.291   1.627   8.459  0.2789 -0.2355 -0.0693
  100OSM   H18F10106   0.335   1.527   8.473  1.9677  0.7699  2.3961
  100OSM   H18G10107   0.344   1.694   8.387 -0.8170  1.6981  0.8425
  100OSM   H18H10108   0.190   1.615   8.413 -0.2833  1.0275  0.7923
  101OSM      N10109   2.235   2.065  10.981  0.1185 -0.0582  0.7639
  101OSM    C1510110   2.344   2.130  11.058  0.3602  0.0269  0.1739
  101OSM   H15A10111   2.371   2.215  10.997 -1.6353  1.3320  1.0034
  101OSM   H15B10112   2.427   2.066  11.086 -1.2355 -2.1366  0.2187
  101OSM   H15C10113   2.314   2.174  11.152 -1.2309  0.3456 -0.4464
  101OSM    C1410114   2.172   1.951  11.063  0.1049 -0.0351 -0.4343
  101OSM   H14A10115   2.219   1.855  11.052 -0.5463 -0.6489  1.7377
  101OSM   H14B10116   2.068   1.930  11.044 -0.3456  0.6160  1.1496
  101OSM   H14C10117   2.188   1.984  11.164  1.3193 -2.2134  0.1369
  101OSM    C1310118   2.124   2.162  10.964 -0.2649 -0.4478  0.4164
  101OSM   H13A10119   2.085   2.197  11.059  0.4582 -0.6026  0.7798
  101OSM   H13B10120   2.040   2.124  10.908  0.0489 -1.2599  0.4895
  101OSM   H13C10121   2.166   2.248  10.914  0.0138  0.3061  1.8806
  101OSM    C1210122   2.288   2.010  10.848  0.9016 -0.5219  0.6815
  101OSM   H12A10123   2.326   2.093  10.790  2.1909 -1.2327  0.4757
  101OSM   H12B10124   2.216   1.963  10.783  0.7315  1.3519 -0.5678
  101OSM    C1110125   2.409   1.915  10.860  0.5940 -0.4317 -0.0921
  101OSM   H11A10126   2.426   1.881  10.964 -3.9712 -1.8296  0.3921
  101OSM   H11B10127   2.500   1.977  10.843  0.0049  0.6734  0.7184
  101OSM      P10128   2.353   1.663  10.816 -0.1564 -0.2830 -0.1824
  101OSM    O1310129   2.425   1.622  10.941  0.2537  0.2356 -1.0640
  101OSM    O1410130   2.207   1.659  10.832 -0.3737  0.4076 -0.9496
  101OSM    O1110131   2.392   1.563  10.693  0.5567  0.4384 -0.1607
  101OSM    O1210132   2.387   1.812  10.768 -0.6840  0.5479  0.1736
  101OSM    C1S10133   2.331   1.563  10.564 -0.3706  0.1953  0.2234
  101OSM    H1S10134   2.288   1.663  10.539 -0.9573 -0.5225 -1.8275
  101OSM    H1T10135   2.254   1.483  10.565 -3.4270  2.9131  1.4107
  101OSM     NF10136   2.373   1.575  10.317 -0.3407  0.0769  0.2122
  101OSM    HNF10137   2.342   1.495  10.266  1.3957 -1.0029  0.7402
  101OSM    C2S10138   2.435   1.541  10.446 -0.0699  0.8360 -0.2788
  101OSM    H2S10139   2.514   1.614  10.472  0.1765  0.9783 -1.3810
  101OSM    C3S10140   2.491   1.394  10.445  0.2207  0.5736 -0.6782
  101OSM    H3S10141   2.410   1.327  10.409  0.7957 -1.0986  0.9836
  101OSM     O310142   2.546   1.351  10.569 -0.4910  0.1750  0.0595
  101OSM    HO310143   2.507   1.412  10.632  0.7864  1.6680 -0.5268
  101OSM    C4S10144   2.595   1.381  10.328 -0.6053 -0.4752 -0.0687
  101OSM    H4S10145   2.565   1.311  10.248  0.7272 -1.2016  0.0385
  101OSM    C5S10146   2.721   1.434  10.308 -0.3641  0.0454 -0.8844
  101OSM    H5S10147   2.752   1.496  10.394 -1.7441  1.3281 -1.2694
  101OSM    C6S10148   2.820   1.405  10.200  0.0538  0.2343  0.4543
  101OSM    H6S10149   2.872   1.308  10.213 -2.4358 -0.9902  2.1702
  101OSM    H6T10150   2.903   1.477  10.215  3.3707 -2.7112 -1.9429
  101OSM    C7S10151   2.773   1.404  10.046 -0.1755  0.2149  0.9834
  101OSM    H7S10152   2.731   1.504  10.021 -0.0154 -0.2756 -1.4988
  101OSM    H7T10153   2.697   1.324  10.037  0.7530 -1.0135  3.2340
  101OSM    C8S10154   2.898   1.381   9.957  0.0511 -0.4428 -0.1794
  101OSM    H8S10155   2.938   1.279   9.976  1.7356  0.4744  1.5975
  101OSM    H8T10156   2.959   1.463  10.002  1.0192 -1.4870  0.4691
  101OSM    C9S10157   2.882   1.421   9.811 -0.9257  0.1647  0.4061
  101OSM    H9S10158   2.983   1.422   9.764 -1.2348  1.0358 -0.2572
  101OSM    H9T10159   2.856   1.528   9.797 -1.5164 -0.0078  0.1313
  101OSM   C10S10160   2.771   1.349   9.739  0.2332  0.0998 -0.1310
  101OSM   H10S10161   2.676   1.367   9.795  0.0851  2.4117 -1.0106
  101OSM   H10T10162   2.781   1.238   9.738 -0.9067 -0.0737  2.0453
  101OSM   C11S10163   2.742   1.395   9.595 -0.1430  0.5102  0.3345
  101OSM   H11S10164   2.730   1.506   9.596 -1.4901  0.3699  1.5527
  101OSM   H11T10165   2.642   1.359   9.562 -0.6775 -0.0647  2.4213
  101OSM   C12S10166   2.847   1.337   9.493  0.1565 -0.0333  0.0879
  101OSM   H12S10167   2.942   1.325   9.550  0.4146 -2.8511 -0.7594
  101OSM   H12T10168   2.839   1.401   9.402 -2.3638 -2.1934 -1.3475
  101OSM   C13S10169   2.830   1.186   9.460 -0.3648  0.4334  0.6110
  101OSM   H13S10170   2.722   1.167   9.440  0.0882 -1.4073 -0.2990
  101OSM   H13T10171   2.868   1.121   9.542 -0.2635 -0.4665 -0.1305
  101OSM   C14S10172   2.927   1.153   9.345  0.3442 -0.2514 -1.0066
  101OSM   H14S10173   3.023   1.156   9.401 -0.2206 -0.2994 -0.0121
  101OSM   H14T10174   2.926   1.232   9.267 -0.2265 -1.3082 -2.1056
  101OSM   C15S10175   2.919   1.018   9.275 -0.5868 -0.2285 -0.4188
  101OSM   H15S10176   2.822   1.020   9.222  0.2723  0.6202 -2.0367
  101OSM   H15T10177   2.926   0.947   9.361  1.1454  2.0561  1.4735
  101OSM   C16S10178   3.026   0.988   9.167 -0.8195 -0.5365  0.4245
  101OSM   H16S10179   2.998   0.887   9.131 -0.6453 -0.3496 -0.2413
  101OSM   H16T10180   3.121   0.969   9.221  0.0375  3.7884  0.7860
  101OSM   C17S10181   3.049   1.079   9.049  0.2801  0.0843  0.4640
  101OSM   H17S10182   3.128   1.025   8.994 -1.0719  0.1605 -1.6883
  101OSM   H17T10183   3.073   1.179   9.090 -0.4435  0.9699 -1.1656
  101OSM   C18S10184   2.928   1.097   8.954  0.3213 -0.1396  0.4870
  101OSM   H18S10185   2.941   1.184   8.886  0.4987  0.7630  1.6458
  101OSM   H18T10186   2.831   1.118   9.004 -0.8996 -1.9276 -0.9878
  101OSM   H18U10187   2.913   1.009   8.888 -0.5858  1.1556 -1.1141
  101OSM    C1F10188   2.367   1.699  10.274  0.2880 -0.7630 -0.1920
  101OSM     OF10189   2.404   1.793  10.346  0.3010 -0.4060  0.3146
  101OSM    C2F10190   2.297   1.734  10.145  0.0522 -0.2831 -0.8191
  101OSM    H2F10191   2.219   1.807  10.175  0.0062  0.7904 -3.3153
  101OSM    H2G10192   2.240   1.643  10.118 -0.0968 -0.6425  0.6699
  101OSM    C3F10193   2.393   1.785  10.046 -0.1568 -0.0570  0.0840
  101OSM    H3F10194   2.459   1.866  10.084  1.3647  0.1441 -2.7066
  101OSM    H3G10195   2.339   1.823   9.957  0.9893  2.2890  0.3383
  101OSM    C4F10196   2.493   1.678   9.987  0.2498 -0.5517  0.7791
  101OSM    H4F10197   2.427   1.593   9.959 -0.1353  1.1399 -4.5387
  101OSM    H4G10198   2.562   1.645  10.067 -0.4562 -1.7256  0.9246
  101OSM    C5F10199   2.573   1.736   9.869  0.3768 -0.5459 -0.4018
  101OSM    H5F10200   2.498   1.788   9.806 -0.0353  0.3698  0.8146
  101OSM    H5G10201   2.613   1.662   9.796  1.1794 -0.2780 -0.2443
  101OSM    C6F10202   2.698   1.810   9.921  1.0156  0.2896  0.1567
  101OSM    H6F10203   2.675   1.883  10.002 -0.1810 -0.1442  0.2212
  101OSM    H6G10204   2.773   1.739   9.960  1.3321  1.6396  2.2135
  101OSM    C7F10205   2.754   1.895   9.810  0.1001 -0.1933  0.2008
  101OSM    H7F10206   2.673   1.966   9.780 -0.1183 -0.1449  0.9011
  101OSM    H7G10207   2.763   1.834   9.717 -2.3402  2.9739 -2.3637
  101OSM    C8F10208   2.888   1.956   9.843 -0.3053  0.0629 -0.2414
  101OSM    H8F10209   2.956   1.869   9.837 -0.4764 -0.1504  0.7515
  101OSM    H8G10210   2.900   2.005   9.942 -2.5445 -0.5717  0.4043
  101OSM    C9F10211   2.929   2.065   9.742  0.3861  0.3750  0.0780
  101OSM    H9F10212   2.896   2.167   9.765  0.2674  0.7242 -1.5126
  101OSM   C10F10213   3.005   2.046   9.628 -0.0341 -0.1415  0.5535
  101OSM   H10F10214   3.015   2.124   9.551  0.1212 -1.3447 -0.6809
  101OSM   C11F10215   3.054   1.903   9.577  0.7161 -0.7608 -0.1810
  101OSM   H11F10216   3.031   1.817   9.643  2.6994  0.3722  2.1441
  101OSM   H11G10217   3.163   1.899   9.560  1.3263 -0.6345  3.2000
  101OSM   C12F10218   2.991   1.869   9.439 -0.1889  0.3660  0.3971
  101OSM   H12F10219   2.882   1.858   9.461 -0.0495  0.3206  1.0721
  101OSM   H12G10220   3.033   1.769   9.414  0.6076  0.6388  0.6302
  101OSM   C13F10221   3.007   1.969   9.326  0.3370  0.4428  0.1649
  101OSM   H13F10222   3.113   1.954   9.297  0.1786  2.0853 -1.4468
  101OSM   H13G10223   3.003   2.074   9.360  1.1773 -0.0896  2.0212
  101OSM   C14F10224   2.917   1.940   9.202 -0.4580  0.8343  0.1874
  101OSM   H14F10225   2.809   1.920   9.221 -0.4003  0.6768  0.3540
  101OSM   H14G10226   2.960   1.845   9.165  0.6815  0.8875  1.2893
  101OSM   C15F10227   2.935   2.045   9.095 -0.0501 -0.1646 -0.0430
  101OSM   H15F10228   3.035   2.094   9.093 -1.4206  2.8317 -2.4717
  101OSM   H15G10229   2.874   2.136   9.112  0.9682  0.7572 -1.0948
  101OSM   C16F10230   2.919   1.985   8.959 -0.3676  0.4301 -0.4672
  101OSM   H16F10231   2.837   1.912   8.973 -0.6308  0.4086 -1.9554
  101OSM   H16G10232   3.021   1.946   8.938 -0.3107  0.9916 -1.3234
  101OSM   C17F10233   2.878   2.090   8.852 -0.3392  0.0438 -0.4804
  101OSM   H17F10234   2.790   2.138   8.899 -0.1371 -0.2849  0.2490
  101OSM   H17G10235   2.852   2.041   8.756 -1.0229  3.6947 -2.3544
  101OSM   C18F10236   3.000   2.185   8.824  0.2273  1.0774 -0.2273
  101OSM   H18F10237   3.042   2.225   8.919  0.0899 -3.1238  1.8292
  101OSM   H18G10238   2.974   2.271   8.759  3.7545  1.8602 -0.8414
  101OSM   H18H10239   3.082   2.135   8.768  1.2526  1.6950  0.6748
  102OSM      N10240   5.242   2.774  10.603  0.0142  0.6174 -0.0334
  102OSM    C1510241   5.163   2.694  10.707 -0.7130  0.4744 -0.5103
  102OSM   H15A10242   5.150   2.740  10.804 -1.3023 -1.0834  0.1695
  102OSM   H15B10243   5.215   2.600  10.716  1.2192  1.4632 -0.5702
  102OSM   H15C10244   5.069   2.662  10.665  0.3589 -1.3066 -1.6682
  102OSM    C1410245   5.379   2.794  10.656 -0.2475  0.1471 -0.4730
  102OSM   H14A10246   5.385   2.828  10.758 -1.3034 -3.1290  0.7892
  102OSM   H14B10247   5.436   2.865  10.598  2.4656 -1.8008 -0.3436
  102OSM   H14C10248   5.447   2.711  10.661  0.9805  1.1101 -0.5883
  102OSM    C1310249   5.243   2.689  10.477 -0.0677 -0.5551 -1.0313
  102OSM   H13A10250   5.289   2.742  10.396 -0.1378  2.0837  0.5425
  102OSM   H13B10251   5.142   2.665  10.448 -0.4083  0.9654 -1.1734
  102OSM   H13C10252   5.301   2.598  10.494 -0.3475 -0.8012 -1.4003
  102OSM    C1210253   5.168   2.898  10.586  0.3854 -0.7811  0.0483
  102OSM   H12A10254   5.180   2.973  10.662  0.7936 -0.0515 -0.7259
  102OSM   H12B10255   5.063   2.872  10.583 -0.0870  1.0359  0.1648
  102OSM    C1110256   5.196   2.974  10.451  0.1648  0.4712  0.1987
  102OSM   H11A10257   5.126   3.060  10.441  0.4230  0.6425 -0.1629
  102OSM   H11B10258   5.187   2.905  10.364 -0.0463 -1.2155  1.5146
  102OSM      P10259   5.372   3.148  10.533 -0.2443 -0.2536 -0.0088
  102OSM    O1310260   5.295   3.139  10.658 -0.0930 -0.2251 -0.3636
  102OSM    O1410261   5.522   3.149  10.543 -0.4363 -0.3135  0.1711
  102OSM    O1110262   5.331   3.269  10.444 -0.2977  0.4031  0.5652
  102OSM    O1210263   5.328   3.024  10.449  0.3264  0.0607 -0.4632
  102OSM    C1S10264   5.368   3.279  10.307  0.1442 -0.9009  0.5272
  102OSM    H1S10265   5.434   3.197  10.272  0.3721 -0.0627 -1.1368
  102OSM    H1T10266   5.420   3.376  10.287 -1.0801 -0.4080 -0.4278
  102OSM     NF10267   5.274   3.274  10.068  0.4160 -0.2969 -0.3070
  102OSM    HNF10268   5.249   3.348  10.006 -2.5585 -0.4112  0.5994
  102OSM    C2S10269   5.240   3.281  10.215  0.5037  0.2411  0.4335
  102OSM    H2S10270   5.182   3.188  10.234 -0.8688  1.1892  1.0602
  102OSM    C3S10271   5.143   3.395  10.253  0.0649  0.4328  0.7359
  102OSM    H3S10272   5.197   3.482  10.209  1.2154 -0.3420  0.5852
  102OSM     O310273   5.120   3.430  10.393  0.1968 -0.7846 -0.3515
  102OSM    HO310274   5.190   3.381  10.436 -1.8122 -2.1386  1.5531
  102OSM    C4S10275   5.014   3.360  10.179 -0.8941 -0.2184 -0.4957
  102OSM    H4S10276   4.991   3.417  10.088 -0.2969  1.2573  0.2530
  102OSM    C5S10277   4.921   3.269  10.224 -0.0887  0.6479  0.7452
  102OSM    H5S10278   4.943   3.220  10.320 -0.4382 -0.2612  0.3693
  102OSM    C6S10279   4.796   3.237  10.153 -0.0800 -0.3970  0.1484
  102OSM    H6S10280   4.780   3.319  10.080 -0.2681 -0.5160  0.0536
  102OSM    H6T10281   4.708   3.230  10.221 -0.1236 -1.1532  0.0121
  102OSM    C7S10282   4.816   3.119  10.066  0.4740 -0.4112 -0.2957
  102OSM    H7S10283   4.715   3.080  10.043  0.4309 -1.5573  1.5966
  102OSM    H7T10284   4.859   3.035  10.126  1.0936  0.4604  0.5082
  102OSM    C8S10285   4.913   3.133   9.945  0.0164 -0.1313  0.5507
  102OSM    H8S10286   4.915   3.031   9.902 -0.3952  0.3512 -0.6427
  102OSM    H8T10287   5.014   3.166   9.980  0.4400 -0.7079 -0.1012
  102OSM    C9S10288   4.869   3.221   9.830  0.7300  0.7997 -0.1863
  102OSM    H9S10289   4.884   3.323   9.872  1.6684  0.3080  0.7061
  102OSM    H9T10290   4.762   3.200   9.809  0.9202 -0.6982  0.2617
  102OSM   C10S10291   4.960   3.188   9.713  0.0394  0.1349 -0.1031
  102OSM   H10S10292   4.960   3.079   9.693 -0.2340  0.1925 -0.4340
  102OSM   H10T10293   5.061   3.225   9.739  0.1187 -0.8052  0.9921
  102OSM   C11S10294   4.920   3.260   9.585 -0.5312  0.3756 -0.1963
  102OSM   H11S10295   4.922   3.369   9.608  0.2940  0.4969 -0.7886
  102OSM   H11T10296   4.818   3.229   9.553 -1.0017  0.4949  1.1144
  102OSM   C12S10297   5.023   3.232   9.468  0.6958 -0.1451 -0.3841
  102OSM   H12S10298   5.046   3.124   9.460  1.5630  0.0768 -1.0592
  102OSM   H12T10299   5.116   3.282   9.503  0.1345  0.7357 -0.1146
  102OSM   C13S10300   4.984   3.305   9.337  0.6579 -0.3361 -0.3286
  102OSM   H13S10301   4.992   3.416   9.344  0.1244 -0.1836 -1.7109
  102OSM   H13T10302   4.877   3.282   9.315  0.3004  0.7329  0.2109
  102OSM   C14S10303   5.049   3.245   9.212  0.4260 -0.5976 -0.2493
  102OSM   H14S10304   5.052   3.135   9.223 -1.2537 -0.7286 -0.8390
  102OSM   H14T10305   5.155   3.279   9.215  0.2900 -0.2311  1.3324
  102OSM   C15S10306   4.986   3.287   9.072 -0.1249  0.5980  0.5501
  102OSM   H15S10307   5.006   3.395   9.051  0.7951  0.2176 -0.6154
  102OSM   H15T10308   4.876   3.274   9.062 -0.4111  2.3125  0.9873
  102OSM   C16S10309   5.055   3.227   8.947 -0.4991  0.4032 -0.1690
  102OSM   H16S10310   5.050   3.117   8.944  0.9990  0.3105  0.0127
  102OSM   H16T10311   5.163   3.239   8.972 -0.9367  0.6128  1.8174
  102OSM   C17S10312   5.014   3.280   8.809  0.2128 -0.3444  0.3000
  102OSM   H17S10313   5.017   3.391   8.807  2.4692 -0.2119  3.2910
  102OSM   H17T10314   4.916   3.236   8.783  0.4990 -0.3102 -0.9061
  102OSM   C18S10315   5.113   3.243   8.695 -0.9204  0.2151 -0.5583
  102OSM   H18S10316   5.083   3.288   8.598 -1.4521  1.6067  0.2212
  102OSM   H18T10317   5.130   3.133   8.687  0.4363  0.4396 -1.0128
  102OSM   H18U10318   5.214   3.282   8.720 -1.4930  1.2552  0.2272
  102OSM    C1F10319   5.326   3.167  10.005  0.1643 -0.7044  0.4781
  102OSM     OF10320   5.366   3.062  10.050  0.2083 -0.6073 -0.0675
  102OSM    C2F10321   5.330   3.182   9.854 -0.1053  0.5995  0.1537
  102OSM    H2F10322   5.311   3.289   9.830 -2.2336 -0.3601 -3.1471
  102OSM    H2G10323   5.258   3.110   9.809  0.9331  0.2436 -0.9985
  102OSM    C3F10324   5.468   3.142   9.797  0.2153  0.5713 -0.3661
  102OSM    H3F10325   5.482   3.033   9.817  1.3921  1.0749  1.8605
  102OSM    H3G10326   5.541   3.209   9.848  0.1259  0.4587 -0.0870
  102OSM    C4F10327   5.493   3.158   9.643 -0.1773  0.3313  0.3148
  102OSM    H4F10328   5.442   3.067   9.607 -0.6211  0.0348  1.6240
  102OSM    H4G10329   5.602   3.146   9.629 -0.5206 -1.8959 -0.9353
  102OSM    C5F10330   5.453   3.290   9.582  0.6863 -0.1448 -0.2545
  102OSM    H5F10331   5.479   3.376   9.648 -0.6357 -1.0943  1.6126
  102OSM    H5G10332   5.343   3.284   9.587  0.7832 -1.3069  2.1145
  102OSM    C6F10333   5.495   3.309   9.438 -0.9108  0.4370 -0.3569
  102OSM    H6F10334   5.605   3.322   9.446 -1.2802  3.2054  1.1724
  102OSM    H6G10335   5.471   3.404   9.385  2.3493  0.9183 -1.2038
  102OSM    C7F10336   5.464   3.189   9.347 -0.0296  0.7032 -0.5484
  102OSM    H7F10337   5.362   3.160   9.380  0.5606 -3.6590 -1.9771
  102OSM    H7G10338   5.522   3.095   9.354  2.9303  2.4590  0.1544
  102OSM    C8F10339   5.446   3.223   9.194 -0.1977  0.0735  0.2435
  102OSM    H8F10340   5.368   3.301   9.181 -0.3134  0.1665  1.3615
  102OSM    H8G10341   5.400   3.136   9.141  1.6414 -1.7716  1.5162
  102OSM    C9F10342   5.576   3.245   9.128  0.0841  0.2213 -0.2124
  102OSM    H9F10343   5.656   3.280   9.195  1.6315 -1.2672 -1.1948
  102OSM   C10F10344   5.601   3.263   9.001  0.3926 -0.7685 -0.8399
  102OSM   H10F10345   5.703   3.289   8.967  1.6845  0.0663  3.1659
  102OSM   C11F10346   5.501   3.251   8.896  0.2935 -0.1883  1.2120
  102OSM   H11F10347   5.493   3.347   8.841  0.5294 -1.7755 -1.8204
  102OSM   H11G10348   5.407   3.214   8.942 -0.3961  0.3915  0.2820
  102OSM   C12F10349   5.529   3.141   8.786  0.0085 -0.8507 -0.6114
  102OSM   H12F10350   5.459   3.145   8.699 -0.8786  2.3071  0.0968
  102OSM   H12G10351   5.506   3.047   8.840  1.4586  0.0657  1.7483
  102OSM   C13F10352   5.673   3.133   8.733 -0.0407 -0.0312 -0.4111
  102OSM   H13F10353   5.687   3.045   8.666  0.9202 -0.9124  0.8656
  102OSM   H13G10354   5.749   3.119   8.813 -1.8892  0.4181  1.5015
  102OSM   C14F10355   5.719   3.264   8.659 -0.0328 -0.3375  0.1847
  102OSM   H14F10356   5.709   3.358   8.718 -0.7974  1.4455 -2.6077
  102OSM   H14G10357   5.649   3.287   8.576  0.6625  1.6594  0.0926
  102OSM   C15F10358   5.852   3.238   8.591  0.1497  0.4684  1.0555
  102OSM   H15F10359   5.863   3.140   8.540 -4.4804  0.3804 -0.1726
  102OSM   H15G10360   5.935   3.241   8.665 -0.5069  2.8492  1.7778
  102OSM   C16F10361   5.884   3.333   8.468 -0.0582 -0.1385 -0.1550
  102OSM   H16F10362   5.838   3.424   8.510  0.3781 -0.4727  1.1104
  102OSM   H16G10363   5.832   3.307   8.373 -1.7652  1.1903  0.3687
  102OSM   C17F10364   6.033   3.350   8.456 -0.4634  0.3821 -0.6319
  102OSM   H17F10365   6.082   3.260   8.412  0.0370 -1.0286  2.5713
  102OSM   H17G10366   6.076   3.369   8.556 -0.3532  2.7631 -1.0739
  102OSM   C18F10367   6.076   3.457   8.359  0.3480  0.2246 -0.2139
  102OSM   H18F10368   6.012   3.545   8.382  0.2466  1.5840 -4.7532
  102OSM   H18G10369   6.046   3.437   8.254 -3.0362  0.3576  0.6174
  102OSM   H18H10370   6.181   3.488   8.379  0.3819  1.2035 -1.7385
  103OSM      N10371   4.997   0.573  10.844 -0.0082 -0.0894 -0.4950
  103OSM    C1510372   5.031   0.452  10.930 -0.4073 -0.0767  0.0931
  103OSM   H15A10373   4.990   0.451  11.030 -1.2641 -0.4439 -0.2508
  103OSM   H15B10374   5.134   0.420  10.923 -0.3685 -0.1219  0.7670
  103OSM   H15C10375   4.994   0.363  10.881 -0.6246 -0.5696  1.1063
  103OSM    C1410376   4.844   0.585  10.857  0.4935 -0.6643  0.5359
  103OSM   H14A10377   4.788   0.497  10.828 -2.4156  1.2840 -0.2455
  103OSM   H14B10378   4.818   0.660  10.783  2.3292 -1.2787 -0.8210
  103OSM   H14C10379   4.809   0.625  10.951 -2.2347  2.9272 -1.7206
  103OSM    C1310380   5.059   0.696  10.908 -0.1527 -0.8348 -0.0250
  103OSM   H13A10381   5.165   0.679  10.912 -0.3335 -2.3218 -0.7080
  103OSM   H13B10382   5.020   0.717  11.007 -2.2460  0.3513 -1.0280
  103OSM   H13C10383   5.027   0.777  10.844  1.7669 -0.3297 -0.3799
  103OSM    C1210384   5.052   0.550  10.701 -0.5101 -0.1636  0.2476
  103OSM   H12A10385   5.160   0.543  10.702 -0.5304 -0.4542  0.7896
  103OSM   H12B10386   5.010   0.632  10.645 -1.5089 -0.7858  0.0495
  103OSM    C1110387   5.018   0.411  10.635 -0.7551  0.2473 -0.0361
  103OSM   H11A10388   5.076   0.330  10.682  1.9559  0.6940 -2.3404
  103OSM   H11B10389   5.076   0.426  10.542  3.0175  1.5208  2.3227
  103OSM      P10390   4.820   0.243  10.635  0.3997 -0.0502 -0.0344
  103OSM    O1310391   4.919   0.138  10.625  0.0532 -0.2838 -0.4046
  103OSM    O1410392   4.728   0.252  10.753 -0.9369  0.2520 -0.4115
  103OSM    O1110393   4.728   0.237  10.510 -0.0475  0.1479  0.0336
  103OSM    O1210394   4.883   0.385  10.610  0.7900  0.1833  0.3648
  103OSM    C1S10395   4.756   0.293  10.385 -0.0384  0.8923  0.4828
  103OSM    H1S10396   4.857   0.263  10.349 -1.0245 -1.4000 -0.5536
  103OSM    H1T10397   4.747   0.404  10.386 -0.0464  0.8971  0.0693
  103OSM     NF10398   4.695   0.324  10.150 -0.1556  0.5030 -0.9039
  103OSM    HNF10399   4.635   0.403  10.141  0.6681  1.3710  0.8098
  103OSM    C2S10400   4.666   0.247  10.266  0.4254 -0.6947 -0.1705
  103OSM    H2S10401   4.697   0.141  10.250  1.6563 -0.5053  0.8299
  103OSM    C3S10402   4.517   0.250  10.299  0.0580 -0.4265 -0.4308
  103OSM    H3S10403   4.483   0.356  10.293 -1.6247 -0.9513 -1.0920
  103OSM     O310404   4.494   0.200  10.429 -0.5344  0.1046  0.2039
  103OSM    HO310405   4.581   0.188  10.467  0.1931 -1.5849 -1.7527
  103OSM    C4S10406   4.440   0.176  10.189 -0.2254 -0.7111  0.5229
  103OSM    H4S10407   4.421   0.232  10.097 -1.6216 -0.0176  1.1879
  103OSM    C5S10408   4.418   0.044  10.190 -0.3029  0.2857 -0.0668
  103OSM    H5S10409   4.474  -0.014  10.265  2.5887 -1.2827 -3.1606
  103OSM    C6S10410   4.359  -0.034  10.077 -0.0277  0.1347 -0.8789
  103OSM    H6S10411   4.253  -0.049  10.107 -0.2159  1.7355 -0.6880
  103OSM    H6T10412   4.408  -0.131  10.056  1.2968  0.3206  1.0593
  103OSM    C7S10413   4.349   0.050   9.944 -0.2550 -0.8096 -0.4109
  103OSM    H7S10414   4.450   0.085   9.917  0.6198 -2.3465  0.7226
  103OSM    H7T10415   4.291   0.140   9.973 -1.6962 -2.5290  2.4230
  103OSM    C8S10416   4.287  -0.017   9.831 -0.8038  0.2406 -0.0142
  103OSM    H8S10417   4.179  -0.033   9.853 -0.7049  0.3021  0.5365
  103OSM    H8T10418   4.338  -0.115   9.820 -0.3804  0.5397 -0.8197
  103OSM    C9S10419   4.302   0.070   9.705 -0.4579 -0.0242  0.2115
  103OSM    H9S10420   4.410   0.081   9.682 -0.7848  0.9411 -0.9812
  103OSM    H9T10421   4.251   0.168   9.723 -1.8214 -0.5330 -0.6967
  103OSM   C10S10422   4.239  -0.004   9.583 -0.4276  0.4575 -0.1383
  103OSM   H10S10423   4.133  -0.027   9.605  0.4490 -3.5939  0.7973
  103OSM   H10T10424   4.298  -0.098   9.568 -1.5806 -0.4054  0.6119
  103OSM   C11S10425   4.244   0.081   9.450  0.4368 -0.6841  0.3886
  103OSM   H11S10426   4.350   0.106   9.434  0.3122 -0.3672  0.0475
  103OSM   H11T10427   4.193   0.179   9.466  1.0275 -0.2574 -0.3170
  103OSM   C12S10428   4.178   0.016   9.328  0.6324 -0.3243 -0.3408
  103OSM   H12S10429   4.232  -0.069   9.283 -0.5299 -0.7163 -1.0445
  103OSM   H12T10430   4.196   0.099   9.256 -0.7936  0.9082  0.6456
  103OSM   C13S10431   4.028  -0.018   9.342 -0.9991  0.2710 -0.7052
  103OSM   H13S10432   3.962   0.070   9.358 -0.2217  0.8705 -0.7676
  103OSM   H13T10433   4.017  -0.097   9.420 -0.8713 -0.2914 -1.2438
  103OSM   C14S10434   3.971  -0.076   9.210  0.3740  0.6963 -0.1158
  103OSM   H14S10435   3.881  -0.136   9.232 -0.3744  1.7721 -0.1741
  103OSM   H14T10436   4.034  -0.161   9.177  0.9152  0.9147  0.3266
  103OSM   C15S10437   3.952   0.022   9.097 -0.6141  0.7341  0.1512
  103OSM   H15S10438   4.052   0.059   9.066 -1.4841  3.4631  0.3935
  103OSM   H15T10439   3.905   0.113   9.140  0.5978  0.6854  1.6930
  103OSM   C16S10440   3.860  -0.021   8.982  0.0401 -0.4945  0.0169
  103OSM   H16S10441   3.771  -0.055   9.040  0.6785 -0.7351  0.8694
  103OSM   H16T10442   3.905  -0.107   8.928 -1.3369 -0.5565 -1.1060
  103OSM   C17S10443   3.829   0.097   8.888  0.1574 -0.1117 -0.0970
  103OSM   H17S10444   3.919   0.152   8.853 -2.0532  2.9602 -1.4546
  103OSM   H17T10445   3.759   0.168   8.938  0.6494  0.9845 -0.9347
  103OSM   C18S10446   3.744   0.060   8.764  0.6599  0.1861  0.4993
  103OSM   H18S10447   3.808   0.000   8.696  0.4057  0.5573 -0.0681
  103OSM   H18T10448   3.707   0.154   8.718 -1.9521 -0.4352  1.1453
  103OSM   H18U10449   3.661  -0.010   8.790  1.4909 -0.9501  0.2012
  103OSM    C1F10450   4.810   0.314  10.084  0.3073 -0.8701 -0.0643
  103OSM     OF10451   4.878   0.211  10.086  0.0324  0.5145 -0.7662
  103OSM    C2F10452   4.867   0.451  10.031 -0.6546  0.0702  0.2555
  103OSM    H2F10453   4.820   0.539  10.079  0.8797  2.0258 -1.6763
  103OSM    H2G10454   4.840   0.463   9.924 -1.8256  1.4013  0.6697
  103OSM    C3F10455   5.019   0.447  10.046 -0.3893 -0.6083  0.1016
  103OSM    H3F10456   5.058   0.395   9.956 -1.8922 -0.5623 -0.5911
  103OSM    H3G10457   5.072   0.410  10.137  0.6799 -0.3891 -0.4086
  103OSM    C4F10458   5.090   0.581  10.027 -0.6725 -0.2949 -0.7433
  103OSM    H4F10459   5.199   0.561  10.026 -0.3768  1.0461  0.8158
  103OSM    H4G10460   5.064   0.651  10.109  2.2293  0.8171 -0.6641
  103OSM    C5F10461   5.041   0.670   9.913  0.0658 -0.6980  0.4678
  103OSM    H5F10462   5.077   0.774   9.930 -0.7222 -0.5042  1.0087
  103OSM    H5G10463   4.930   0.674   9.907  0.1095 -1.4207 -1.2195
  103OSM    C6F10464   5.093   0.637   9.777 -0.6546  0.1731  0.5123
  103OSM    H6F10465   5.107   0.527   9.769 -0.3409  0.2431  0.1042
  103OSM    H6G10466   5.187   0.690   9.752 -0.2818  0.4046  2.2378
  103OSM    C7F10467   4.992   0.680   9.664  0.2706  0.3672 -0.2531
  103OSM    H7F10468   5.002   0.790   9.656  0.8822  0.3947  0.7588
  103OSM    H7G10469   4.890   0.660   9.705  0.7332  0.6784  1.0780
  103OSM    C8F10470   5.004   0.634   9.524  0.2546 -0.1130 -0.4477
  103OSM    H8F10471   4.927   0.677   9.456  1.9176  1.3491 -1.4583
  103OSM    H8G10472   4.981   0.525   9.515 -0.9450 -0.0326  1.1708
  103OSM    C9F10473   5.141   0.654   9.467 -0.9197  0.3646  0.3025
  103OSM    H9F10474   5.231   0.649   9.529 -0.1220  1.4344 -0.7390
  103OSM   C10F10475   5.171   0.683   9.336  0.3683  0.2413  0.5040
  103OSM   H10F10476   5.274   0.676   9.297 -0.7244 -2.3237 -2.3000
  103OSM   C11F10477   5.075   0.699   9.216  0.1210  0.2766  0.2979
  103OSM   H11F10478   4.973   0.713   9.258  0.0383 -1.0157  0.5485
  103OSM   H11G10479   5.074   0.606   9.155 -1.7067  1.0422 -0.9413
  103OSM   C12F10480   5.105   0.817   9.121 -0.4743  0.0044 -0.5246
  103OSM   H12F10481   5.215   0.822   9.105 -0.6841 -0.0527 -2.2088
  103OSM   H12G10482   5.069   0.913   9.164 -0.5374 -1.0894  2.0424
  103OSM   C13F10483   5.030   0.804   8.982  0.2726 -0.0390 -0.1666
  103OSM   H13F10484   4.929   0.818   9.024  0.0108 -0.5491 -0.6172
  103OSM   H13G10485   5.034   0.699   8.944 -0.7582  0.1681 -0.8676
  103OSM   C14F10486   5.065   0.907   8.874  0.5680 -0.1450  0.4465
  103OSM   H14F10487   5.034   1.005   8.915  0.8899 -0.0209  0.3961
  103OSM   H14G10488   5.008   0.874   8.785  1.0255 -0.4927  0.2743
  103OSM   C15F10489   5.219   0.916   8.849 -0.5745 -0.3748 -0.0824
  103OSM   H15F10490   5.261   0.814   8.844 -1.7327 -0.8206 -1.7802
  103OSM   H15G10491   5.271   0.958   8.938 -1.5028  0.9355 -0.1264
  103OSM   C16F10492   5.258   0.998   8.725 -0.3383  0.6369  0.1090
  103OSM   H16F10493   5.367   0.983   8.708 -0.4383 -0.4400  0.3437
  103OSM   H16G10494   5.226   1.102   8.749 -0.5706  0.8411 -1.0443
  103OSM   C17F10495   5.195   0.957   8.593 -0.2212  0.5695 -0.1391
  103OSM   H17F10496   5.194   1.049   8.530  1.0341  0.0879 -0.9072
  103OSM   H17G10497   5.090   0.926   8.610  0.6469 -2.6739 -0.0616
  103OSM   C18F10498   5.277   0.854   8.507  0.0165 -0.0435  0.0943
  103OSM   H18F10499   5.240   0.841   8.403 -0.4129 -1.2063  0.3732
  103OSM   H18G10500   5.268   0.750   8.545 -1.5785  0.0573  0.0444
  103OSM   H18H10501   5.384   0.884   8.500  0.4169 -0.9080  1.8376
  104OSM      N10502   0.164   4.674  11.139  0.4706 -0.8247  0.8540
  104OSM    C1510503   0.044   4.761  11.174  0.0597  0.2883  0.5407
  104OSM   H15A10504  -0.034   4.737  11.104  0.6964 -0.7538  0.1626
  104OSM   H15B10505   0.065   4.864  11.149 -0.7992  1.0388  2.7154
  104OSM   H15C10506   0.013   4.744  11.275 -0.6778 -1.9393 -0.0006
  104OSM    C1410507   0.284   4.739  11.205 -0.7039 -0.4962 -0.8549
  104OSM   H14A10508   0.371   4.676  11.192  0.9096  1.2027  1.0173
  104OSM   H14B10509   0.267   4.746  11.311 -0.0760  0.3352 -0.7996
  104OSM   H14C10510   0.297   4.839  11.166  0.1982  0.5857  1.9892
  104OSM    C1310511   0.136   4.546  11.209 -0.3540  0.2115  0.0561
  104OSM   H13A10512   0.041   4.503  11.179 -1.5198  1.4352  1.8175
  104OSM   H13B10513   0.145   4.547  11.316 -2.2194 -2.3017  0.3210
  104OSM   H13C10514   0.215   4.478  11.179  0.4110  1.0350  0.1609
  104OSM    C1210515   0.181   4.662  10.991  0.3576  0.3353 -0.4218
  104OSM   H12A10516   0.279   4.621  10.969 -0.4348 -1.3290 -0.9435
  104OSM   H12B10517   0.183   4.767  10.964  0.9351  1.9193  4.6357
  104OSM    C1110518   0.071   4.602  10.901  0.3960 -0.4930  0.7279
  104OSM   H11A10519   0.111   4.626  10.800  3.5944  2.2166  2.4411
  104OSM   H11B10520  -0.013   4.673  10.893  1.4297  0.5625 -3.3636
  104OSM      P10521  -0.109   4.423  10.893  0.2014  0.0809 -0.0068
  104OSM    O1310522  -0.115   4.272  10.893 -0.5774  0.4274 -0.2139
  104OSM    O1410523  -0.200   4.492  10.991  0.0725  0.0422 -0.1559
  104OSM    O1110524  -0.145   4.460  10.739 -0.1173  0.5000  0.4589
  104OSM    O1210525   0.035   4.470  10.924  0.3992  0.6648 -0.6418
  104OSM    C1S10526  -0.052   4.460  10.627  0.7629 -0.2507 -0.0060
  104OSM    H1S10527   0.054   4.467  10.657  1.0847  1.0145 -1.2986
  104OSM    H1T10528  -0.077   4.555  10.574 -0.0951 -0.3333  0.2276
  104OSM     NF10529   0.009   4.349  10.414  0.4912 -0.2302 -0.2493
  104OSM    HNF10530  -0.036   4.381  10.330  1.0815  0.8475 -0.1702
  104OSM    C2S10531  -0.070   4.337  10.534 -0.4420  0.2549 -0.3995
  104OSM    H2S10532  -0.026   4.249  10.586  2.0923  0.7864 -1.4812
  104OSM    C3S10533  -0.223   4.315  10.501  0.9078  0.2415 -0.4692
  104OSM    H3S10534  -0.259   4.394  10.432 -0.4707 -0.1019 -0.1567
  104OSM     O310535  -0.316   4.313  10.611  0.0223  0.1196  0.8604
  104OSM    HO310536  -0.269   4.375  10.667 -2.4988  0.4536  2.7840
  104OSM    C4S10537  -0.251   4.183  10.424  0.1370 -0.4076  0.7407
  104OSM    H4S10538  -0.210   4.088  10.462  0.5726 -0.5778 -0.1268
  104OSM    C5S10539  -0.326   4.180  10.313  0.0545 -0.4948  0.2083
  104OSM    H5S10540  -0.357   4.274  10.265 -2.1904 -1.4455 -0.3452
  104OSM    C6S10541  -0.336   4.060  10.227 -1.0109 -0.3830 -0.3954
  104OSM    H6S10542  -0.335   4.089  10.120  3.7140  0.2650 -0.3827
  104OSM    H6T10543  -0.432   4.010  10.253 -1.0879  0.1435  0.3795
  104OSM    C7S10544  -0.229   3.952  10.224  0.0420  0.4085 -0.6268
  104OSM    H7S10545  -0.212   3.915  10.328 -1.6309  0.8078 -0.1820
  104OSM    H7T10546  -0.143   3.990  10.164 -1.0893  3.0025 -0.7202
  104OSM    C8S10547  -0.284   3.815  10.158 -0.4447 -0.5258  0.1219
  104OSM    H8S10548  -0.393   3.814  10.178 -0.7735  0.7265 -1.3802
  104OSM    H8T10549  -0.247   3.727  10.213 -3.7183  0.2351  3.9816
  104OSM    C9S10550  -0.257   3.821  10.011  0.4853  0.0500  0.4038
  104OSM    H9S10551  -0.149   3.806   9.993  0.3538  0.7732 -1.1409
  104OSM    H9T10552  -0.298   3.918   9.974  0.3395  0.2778  1.1523
  104OSM   C10S10553  -0.323   3.699   9.935 -0.4408 -1.0434 -0.1455
  104OSM   H10S10554  -0.430   3.704   9.964 -0.1529  2.1506  0.8280
  104OSM   H10T10555  -0.272   3.604   9.962 -0.1680 -0.2534  2.4610
  104OSM   C11S10556  -0.311   3.715   9.781  0.1925  0.0323  0.5145
  104OSM   H11S10557  -0.204   3.730   9.753  0.0485  2.2768  0.9733
  104OSM   H11T10558  -0.357   3.808   9.742 -1.7945 -1.0335  0.1883
  104OSM   C12S10559  -0.360   3.597   9.690  0.0004 -0.7737  1.0265
  104OSM   H12S10560  -0.471   3.597   9.697 -0.0766 -3.3076  0.6838
  104OSM   H12T10561  -0.318   3.502   9.730  1.0686 -0.2730  1.1338
  104OSM   C13S10562  -0.333   3.618   9.539  0.8827  0.3435  0.4100
  104OSM   H13S10563  -0.225   3.603   9.516  0.2677  0.0628 -2.6908
  104OSM   H13T10564  -0.361   3.721   9.507 -0.6159  0.2776  1.4143
  104OSM   C14S10565  -0.413   3.510   9.452 -0.1895 -0.6141  0.1942
  104OSM   H14S10566  -0.515   3.549   9.432  0.1118 -0.7455 -1.8188
  104OSM   H14T10567  -0.410   3.427   9.526  0.3788  2.2782  3.6979
  104OSM   C15S10568  -0.362   3.476   9.320 -0.0044 -0.5971  0.6118
  104OSM   H15S10569  -0.427   3.396   9.278 -2.2675  1.4484 -0.0200
  104OSM   H15T10570  -0.257   3.441   9.323  1.2346  2.6023 -0.9342
  104OSM   C16S10571  -0.376   3.596   9.231  0.3045 -0.2150  0.6692
  104OSM   H16S10572  -0.308   3.676   9.266  0.7608 -0.5732  0.6214
  104OSM   H16T10573  -0.478   3.639   9.232  0.7552  0.8739  0.3066
  104OSM   C17S10574  -0.338   3.560   9.095  0.5512  0.4685  0.2495
  104OSM   H17S10575  -0.402   3.475   9.064  0.8950  0.3207 -0.0639
  104OSM   H17T10576  -0.236   3.515   9.101 -0.3489 -1.8482 -0.7544
  104OSM   C18S10577  -0.335   3.684   9.005  0.1084 -0.1610  0.5476
  104OSM   H18S10578  -0.429   3.738   9.028  0.9739  0.6621  2.3875
  104OSM   H18T10579  -0.331   3.663   8.896  1.4561 -3.0633  1.0476
  104OSM   H18U10580  -0.257   3.752   9.046  0.2822 -1.2676  2.1436
  104OSM    C1F10581   0.141   4.346  10.418  0.0787  0.2128  0.3428
  104OSM     OF10582   0.201   4.346  10.529 -0.0125  0.4231  0.4734
  104OSM    C2F10583   0.219   4.343  10.291  0.0198 -0.0382  0.5875
  104OSM    H2F10584   0.207   4.441  10.241 -4.7320 -0.2632  0.8225
  104OSM    H2G10585   0.172   4.277  10.215  0.9914  1.7856 -1.7081
  104OSM    C3F10586   0.369   4.307  10.308  0.3952 -0.2826  1.0883
  104OSM    H3F10587   0.371   4.226  10.385 -0.3407 -0.8438  0.5294
  104OSM    H3G10588   0.434   4.393  10.336  2.8171 -2.0076  1.0610
  104OSM    C4F10589   0.429   4.258  10.174 -0.2557  0.0982  0.1870
  104OSM    H4F10590   0.369   4.171  10.142 -2.2039  1.4842 -0.1190
  104OSM    H4G10591   0.537   4.232  10.181 -0.2199  0.1505 -0.1669
  104OSM    C5F10592   0.430   4.360  10.069 -0.8176 -0.1004 -0.2261
  104OSM    H5F10593   0.484   4.445  10.116  0.1365 -1.2564  0.8447
  104OSM    H5G10594   0.327   4.395  10.049 -0.2772  0.3349 -2.5710
  104OSM    C6F10595   0.523   4.319   9.951  0.5217  0.5637 -0.5356
  104OSM    H6F10596   0.460   4.241   9.903 -1.5107  0.5836  1.8924
  104OSM    H6G10597   0.617   4.275   9.989  0.0235  0.0455  0.1275
  104OSM    C7F10598   0.562   4.432   9.861  0.1384  0.1985 -0.4417
  104OSM    H7F10599   0.616   4.508   9.923  2.9842 -0.0792 -2.4030
  104OSM    H7G10600   0.468   4.474   9.820 -2.7238 -3.4673  1.7079
  104OSM    C8F10601   0.649   4.400   9.738 -0.4649  0.4498  0.1227
  104OSM    H8F10602   0.742   4.347   9.767 -1.0071 -0.3502  0.4548
  104OSM    H8G10603   0.667   4.498   9.689 -1.5047  0.9806  0.7482
  104OSM    C9F10604   0.579   4.308   9.643 -0.1390  0.4205 -0.6836
  104OSM    H9F10605   0.550   4.209   9.680 -0.4241  0.0773 -1.7787
  104OSM   C10F10606   0.540   4.328   9.517 -0.5579 -0.9778  0.0415
  104OSM   H10F10607   0.476   4.252   9.469  1.5035 -3.8345  1.4831
  104OSM   C11F10608   0.554   4.461   9.441  0.1539 -0.2493  0.6379
  104OSM   H11F10609   0.635   4.521   9.488 -0.5239  0.3793  1.0297
  104OSM   H11G10610   0.455   4.510   9.456  0.8523  0.8289  1.9106
  104OSM   C12F10611   0.600   4.459   9.295 -0.5602 -0.4048  0.0387
  104OSM   H12F10612   0.570   4.553   9.243  0.0196 -0.1648  0.1307
  104OSM   H12G10613   0.534   4.388   9.241 -0.5407  0.0206 -0.5468
  104OSM   C13F10614   0.756   4.451   9.288  0.2751  0.0839  1.0237
  104OSM   H13F10615   0.802   4.362   9.336 -1.8103 -0.3457  2.3657
  104OSM   H13G10616   0.801   4.534   9.345  0.8659 -0.1893  0.9609
  104OSM   C14F10617   0.797   4.457   9.138 -0.6490  0.4226  0.0303
  104OSM   H14F10618   0.757   4.542   9.079 -3.0770 -0.8776 -0.3445
  104OSM   H14G10619   0.776   4.361   9.087  1.8176 -0.5028  0.6247
  104OSM   C15F10620   0.954   4.488   9.117  0.0970  0.7310 -0.1447
  104OSM   H15F10621   1.008   4.397   9.152 -0.1085  0.0186 -1.6249
  104OSM   H15G10622   0.978   4.579   9.176 -1.9462  0.2683  1.5209
  104OSM   C16F10623   0.985   4.507   8.969 -0.5604 -0.4907 -0.3722
  104OSM   H16F10624   0.930   4.585   8.913 -0.5059  0.1414  0.4470
  104OSM   H16G10625   0.968   4.419   8.903 -1.7361 -0.7159  0.2158
  104OSM   C17F10626   1.128   4.551   8.960 -0.1802  0.5030  0.2984
  104OSM   H17F10627   1.200   4.466   8.962 -0.2163  0.4516 -0.5256
  104OSM   H17G10628   1.158   4.615   9.046 -0.3598  2.9554 -1.3750
  104OSM   C18F10629   1.155   4.631   8.833 -0.2024  0.3216 -0.0430
  104OSM   H18F10630   1.136   4.564   8.746  0.1840 -2.7113  2.0517
  104OSM   H18G10631   1.257   4.673   8.833 -0.1222  0.1488  0.7787
  104OSM   H18H10632   1.089   4.720   8.839  1.9998  2.0458 -0.3037
  105OSM      N10633   2.050   3.277  10.739  0.1551 -0.0315 -0.1856
  105OSM    C1510634   2.138   3.398  10.730 -0.1650  0.2720  0.2507
  105OSM   H15A10635   2.190   3.400  10.635  1.5571 -0.9435  1.1139
  105OSM   H15B10636   2.214   3.395  10.806 -0.2824 -2.8731  0.3856
  105OSM   H15C10637   2.085   3.492  10.731  0.3312  0.5488  0.6376
  105OSM    C1410638   2.140   3.156  10.717 -0.7316 -0.3286  0.2974
  105OSM   H14A10639   2.217   3.153  10.793  0.7132 -2.6403 -1.1159
  105OSM   H14B10640   2.182   3.142  10.619 -0.9593 -2.1871  0.4240
  105OSM   H14C10641   2.088   3.063  10.735 -0.9137 -0.7177 -1.9804
  105OSM    C1310642   2.003   3.276  10.883 -0.2694 -0.3236 -0.4852
  105OSM   H13A10643   1.941   3.360  10.913  0.3283 -0.5052  1.4255
  105OSM   H13B10644   2.090   3.281  10.947 -1.1593  0.6486  0.6999
  105OSM   H13C10645   1.959   3.181  10.911  1.9213 -0.9294  1.1276
  105OSM    C1210646   1.942   3.275  10.630 -0.6361 -0.3723 -0.3698
  105OSM   H12A10647   1.877   3.193  10.655 -0.6750 -0.7702 -1.7128
  105OSM   H12B10648   1.984   3.252  10.533  0.5962  1.0921 -0.2249
  105OSM    C1110649   1.857   3.405  10.622 -0.1490 -0.7596 -0.6415
  105OSM   H11A10650   1.790   3.387  10.536  0.6088 -0.6864 -1.2588
  105OSM   H11B10651   1.921   3.488  10.584  0.8116 -1.5892 -0.8951
  105OSM      P10652   1.647   3.400  10.777  0.4024  0.0375  0.6616
  105OSM    O1310653   1.629   3.272  10.848 -0.2557 -0.1443  0.2592
  105OSM    O1410654   1.570   3.511  10.839  0.0831  0.1915  0.1805
  105OSM    O1110655   1.592   3.385  10.628  0.3772 -0.1100 -0.0287
  105OSM    O1210656   1.793   3.437  10.745 -0.2383  0.4464 -0.6710
  105OSM    C1S10657   1.456   3.421  10.591  0.0642  0.3661  0.4212
  105OSM    H1S10658   1.471   3.521  10.545  3.4555 -0.5349 -0.6871
  105OSM    H1T10659   1.382   3.423  10.675  1.0720 -1.5045  1.4083
  105OSM     NF10660   1.294   3.371  10.406 -0.2123 -0.5752  0.1848
  105OSM    HNF10661   1.215   3.318  10.438 -0.6200 -0.2449 -0.2642
  105OSM    C2S10662   1.417   3.331  10.472 -0.1615  0.5421 -0.4318
  105OSM    H2S10663   1.498   3.346  10.397 -0.7758  1.8383 -0.8653
  105OSM    C3S10664   1.429   3.180  10.506  0.2121  0.5762 -0.0654
  105OSM    H3S10665   1.363   3.158  10.592 -1.6258  1.5778 -1.1712
  105OSM     O310666   1.558   3.137  10.539  0.7159 -0.4719  0.9190
  105OSM    HO310667   1.609   3.215  10.564 -1.0160  0.8068  0.6757
  105OSM    C4S10668   1.398   3.098  10.382  0.1162 -0.4588  0.4458
  105OSM    H4S10669   1.443   3.138  10.290 -3.0693 -3.1763 -2.5806
  105OSM    C5S10670   1.323   2.987  10.369 -0.4659  0.3687  0.5750
  105OSM    H5S10671   1.274   2.949  10.460 -1.6476  0.2736 -0.0779
  105OSM    C6S10672   1.300   2.913  10.240 -0.2604 -0.0426 -0.3909
  105OSM    H6S10673   1.191   2.910  10.219 -0.9164 -1.5529  2.6716
  105OSM    H6T10674   1.333   2.807  10.243 -3.0081 -0.9505  1.3645
  105OSM    C7S10675   1.360   2.981  10.112  0.5962  0.1567  0.3766
  105OSM    H7S10676   1.470   2.973  10.099  0.3855  1.3537 -3.0961
  105OSM    H7T10677   1.321   3.085  10.103  2.2805  0.7175 -1.0651
  105OSM    C8S10678   1.311   2.910   9.976  0.5973  0.0030 -0.4247
  105OSM    H8S10679   1.200   2.910   9.981  0.6451  0.2439  2.0241
  105OSM    H8T10680   1.349   2.807   9.996  0.7631  0.1122 -0.1735
  105OSM    C9S10681   1.372   2.969   9.848  0.5372 -0.1756 -0.2291
  105OSM    H9S10682   1.482   2.957   9.845  0.4350 -1.1629 -0.3633
  105OSM    H9T10683   1.341   3.075   9.840  0.2845 -0.3902 -3.4483
  105OSM   C10S10684   1.326   2.896   9.715 -0.2561 -0.4895 -0.1081
  105OSM   H10S10685   1.228   2.937   9.682  0.1441  1.2288  0.7439
  105OSM   H10T10686   1.311   2.788   9.740  1.4441 -0.8852 -0.6888
  105OSM   C11S10687   1.427   2.922   9.597 -0.3012 -0.2666  0.6706
  105OSM   H11S10688   1.527   2.879   9.619  0.3182 -0.8990 -2.7234
  105OSM   H11T10689   1.467   3.025   9.586  0.3648 -0.4271  1.5181
  105OSM   C12S10690   1.372   2.883   9.461  0.1704  0.1203 -0.4741
  105OSM   H12S10691   1.296   2.956   9.425  0.4792 -0.1254 -1.6798
  105OSM   H12T10692   1.317   2.787   9.470  0.7723 -0.0128  3.9033
  105OSM   C13S10693   1.470   2.893   9.344 -0.4478 -0.4470  1.2814
  105OSM   H13S10694   1.553   2.821   9.361 -0.5862 -0.7308  0.7646
  105OSM   H13T10695   1.506   2.997   9.329 -0.0081 -0.9406 -1.9238
  105OSM   C14S10696   1.397   2.858   9.214  0.0561 -0.4082 -0.5037
  105OSM   H14S10697   1.315   2.931   9.196  0.0960 -0.2919 -0.2288
  105OSM   H14T10698   1.354   2.760   9.245  1.3885 -0.0562  2.9662
  105OSM   C15S10699   1.492   2.853   9.101  0.3754  0.1932  0.0729
  105OSM   H15S10700   1.557   2.764   9.113 -0.2261 -0.4254 -1.1433
  105OSM   H15T10701   1.548   2.949   9.091 -0.7858  0.8791 -0.1662
  105OSM   C16S10702   1.423   2.833   8.967  0.4348  0.6013 -0.3198
  105OSM   H16S10703   1.347   2.912   8.948  0.9207  0.8684 -1.1823
  105OSM   H16T10704   1.377   2.732   8.970  3.1200 -0.7765 -2.0844
  105OSM   C17S10705   1.515   2.827   8.842  0.6464 -0.0189  0.1603
  105OSM   H17S10706   1.570   2.731   8.829 -1.1502 -0.7694 -2.6768
  105OSM   H17T10707   1.587   2.910   8.858 -1.3298  1.7718  0.1404
  105OSM   C18S10708   1.442   2.855   8.712 -0.4043 -0.0110  0.4537
  105OSM   H18S10709   1.368   2.784   8.669  0.2846  0.7351 -2.1469
  105OSM   H18T10710   1.520   2.858   8.634 -1.1202 -0.0263 -0.2737
  105OSM   H18U10711   1.400   2.955   8.737 -1.5241 -0.9819  2.7841
  105OSM    C1F10712   1.267   3.480  10.339 -0.5393  0.5964 -0.2836
  105OSM     OF10713   1.358   3.565  10.339  0.4956  0.0614 -0.2460
  105OSM    C2F10714   1.131   3.504  10.276  0.2210  0.2590  0.2393
  105OSM    H2F10715   1.128   3.614  10.257 -1.1980  0.0139 -1.1879
  105OSM    H2G10716   1.066   3.473  10.360  0.2300  2.3322  1.0726
  105OSM    C3F10717   1.109   3.419  10.150 -0.0176  0.0827  1.0885
  105OSM    H3F10718   1.016   3.453  10.101 -0.3626 -1.8197  0.3126
  105OSM    H3G10719   1.103   3.310  10.171 -1.5337  0.1084  0.8949
  105OSM    C4F10720   1.216   3.446  10.044 -1.0138 -0.2758  0.8616
  105OSM    H4F10721   1.313   3.405  10.079  0.2350 -0.8420 -2.8841
  105OSM    H4G10722   1.237   3.554  10.033 -0.4277 -0.5011 -0.3701
  105OSM    C5F10723   1.173   3.378   9.912 -0.1879 -0.1296  0.5001
  105OSM    H5F10724   1.062   3.381   9.911 -0.1704  2.1384 -0.0717
  105OSM    H5G10725   1.211   3.275   9.928 -1.5410 -0.4849  1.5810
  105OSM    C6F10726   1.228   3.442   9.779 -0.2928 -0.1475 -0.2255
  105OSM    H6F10727   1.201   3.377   9.693  0.2866 -0.1983 -0.3704
  105OSM    H6G10728   1.339   3.442   9.781 -0.2548 -1.9619 -0.6192
  105OSM    C7F10729   1.175   3.583   9.747 -0.5161  0.1620  0.0007
  105OSM    H7F10730   1.226   3.670   9.794  0.2009 -0.3364  0.1600
  105OSM    H7G10731   1.071   3.594   9.786 -1.5217 -0.4567 -2.3276
  105OSM    C8F10732   1.180   3.605   9.592  0.1119  1.2837 -0.7837
  105OSM    H8F10733   1.119   3.528   9.540 -0.0192  0.5036  0.4984
  105OSM    H8G10734   1.286   3.596   9.559  0.0548 -1.2869 -0.4618
  105OSM    C9F10735   1.122   3.746   9.568 -0.9357  0.1953 -0.1053
  105OSM    H9F10736   1.015   3.758   9.589 -1.3287  0.4207 -2.0477
  105OSM   C10F10737   1.191   3.849   9.514 -0.1853  0.3210  0.4087
  105OSM   H10F10738   1.133   3.942   9.504  0.1971  0.6222  0.9421
  105OSM   C11F10739   1.331   3.843   9.455 -0.0828 -0.1842  0.0114
  105OSM   H11F10740   1.407   3.785   9.512 -0.0360 -0.3871 -0.2555
  105OSM   H11G10741   1.369   3.947   9.448  0.6063 -0.4989 -1.2556
  105OSM   C12F10742   1.334   3.787   9.311 -0.0787 -0.5865 -0.0557
  105OSM   H12F10743   1.243   3.815   9.254 -0.6071  0.4759  1.2412
  105OSM   H12G10744   1.333   3.677   9.328  1.5903 -0.6072  0.0657
  105OSM   C13F10745   1.456   3.817   9.234 -0.0527  0.2477  0.3482
  105OSM   H13F10746   1.544   3.777   9.287 -0.4820 -0.9054  0.2332
  105OSM   H13G10747   1.459   3.927   9.221 -0.5314  0.2775  0.4526
  105OSM   C14F10748   1.442   3.764   9.082  0.8084 -0.2439 -0.1883
  105OSM   H14F10749   1.344   3.792   9.037 -0.2826 -0.7461  1.7508
  105OSM   H14G10750   1.431   3.653   9.085  1.0978 -0.2975  3.4828
  105OSM   C15F10751   1.548   3.822   8.995 -0.1718  0.4708 -0.2121
  105OSM   H15F10752   1.643   3.783   9.038 -0.7940 -0.3401  0.4494
  105OSM   H15G10753   1.548   3.933   8.997  1.1744  0.4821  0.0178
  105OSM   C16F10754   1.527   3.776   8.852  0.0949 -0.2857  0.7052
  105OSM   H16F10755   1.447   3.835   8.803  1.6424  1.0929 -0.2738
  105OSM   H16G10756   1.497   3.671   8.873  0.9367 -0.5800  0.5021
  105OSM   C17F10757   1.650   3.773   8.765  0.1652  0.3251  0.5121
  105OSM   H17F10758   1.626   3.718   8.672  1.0025  0.3089  0.2991
  105OSM   H17G10759   1.718   3.698   8.812 -0.5493 -0.3122  0.5465
  105OSM   C18F10760   1.719   3.896   8.723 -0.5793  0.2370 -0.2540
  105OSM   H18F10761   1.764   3.951   8.809  1.8558 -1.3826 -0.3966
  105OSM   H18G10762   1.661   3.971   8.667  0.4462  0.7556 -0.6469
  105OSM   H18H10763   1.799   3.887   8.647 -2.4106  1.3032 -2.4199
  106OSM      N10764   0.213   1.442  10.929 -0.5790 -0.0469 -0.0923
  106OSM    C1510765   0.242   1.578  10.981 -0.5814 -0.0267 -0.1139
  106OSM   H15A10766   0.344   1.579  11.016 -1.8307  0.7054  4.2090
  106OSM   H15B10767   0.179   1.586  11.069  0.5266 -2.0916  0.9532
  106OSM   H15C10768   0.216   1.653  10.908 -0.8982 -0.8372 -0.8525
  106OSM    C1410769   0.292   1.415  10.810  0.2691  0.1512  0.9574
  106OSM   H14A10770   0.246   1.346  10.742 -0.2657  1.5095 -0.1241
  106OSM   H14B10771   0.396   1.391  10.827  0.5344 -0.2505 -0.9873
  106OSM   H14C10772   0.304   1.508  10.755  2.3322  0.6165  2.0784
  106OSM    C1310773   0.248   1.334  11.027 -0.3202  0.2215 -0.5550
  106OSM   H13A10774   0.215   1.238  10.991  2.9186 -2.4732  2.7674
  106OSM   H13B10775   0.190   1.345  11.118 -0.4448  1.3548 -0.7521
  106OSM   H13C10776   0.351   1.335  11.059 -0.5140  1.7558  0.1113
  106OSM    C1210777   0.062   1.444  10.899 -0.4174  0.2221 -0.1307
  106OSM   H12A10778   0.011   1.441  10.994 -2.6824 -1.3405 -1.3033
  106OSM   H12B10779   0.043   1.349  10.852  0.8459 -1.3307  2.3043
  106OSM    C1110780   0.003   1.556  10.815 -0.4838  0.3203  0.2040
  106OSM   H11A10781   0.062   1.650  10.815  0.0839 -0.0092  1.2905
  106OSM   H11B10782  -0.099   1.574  10.854 -0.6904 -0.5011  0.0625
  106OSM      P10783  -0.123   1.445  10.611 -0.1941 -0.4714 -0.3473
  106OSM    O1310784  -0.067   1.362  10.505  0.8627  0.1120  0.6070
  106OSM    O1410785  -0.208   1.372  10.715 -0.0065  0.3265 -0.0184
  106OSM    O1110786  -0.216   1.564  10.544  0.0126 -0.0418  0.2340
  106OSM    O1210787  -0.005   1.528  10.677  0.0105  0.4225  0.0166
  106OSM    C1S10788  -0.163   1.662  10.459  0.2232  0.3798 -0.0093
  106OSM    H1S10789  -0.061   1.689  10.495  0.2049  0.6678 -0.1692
  106OSM    H1T10790  -0.234   1.747  10.470 -0.5444 -0.2314 -0.1341
  106OSM     NF10791  -0.081   1.721  10.227 -0.3388 -0.0438 -0.0120
  106OSM    HNF10792  -0.133   1.786  10.171 -0.1998  0.9162  0.9540
  106OSM    C2S10793  -0.153   1.622  10.305  0.4125  0.3284  0.3401
  106OSM    H2S10794  -0.095   1.528  10.292 -1.2803 -0.7599  0.2833
  106OSM    C3S10795  -0.293   1.591  10.245 -0.3151  0.3898 -0.5627
  106OSM    H3S10796  -0.356   1.683  10.249 -0.5790  0.2834 -1.8427
  106OSM     O310797  -0.369   1.496  10.318 -0.5125 -0.4651  0.0962
  106OSM    HO310798  -0.327   1.478  10.403  0.0840 -1.4311 -0.3850
  106OSM    C4S10799  -0.282   1.548  10.107 -0.9577  0.1965 -0.0509
  106OSM    H4S10800  -0.267   1.625  10.030  0.1263 -1.4584 -1.5768
  106OSM    C5S10801  -0.289   1.425  10.055  0.3466  0.2143  0.6018
  106OSM    H5S10802  -0.320   1.340  10.118  3.3400 -0.8048  0.8424
  106OSM    C6S10803  -0.279   1.388   9.903  0.2674 -0.6086  0.3989
  106OSM    H6S10804  -0.377   1.397   9.851 -0.0243 -0.0609  1.0280
  106OSM    H6T10805  -0.252   1.282   9.883  0.8649 -0.4460  0.3080
  106OSM    C7S10806  -0.183   1.481   9.831 -0.4175 -0.1123 -0.1686
  106OSM    H7S10807  -0.080   1.447   9.856  0.2671  0.6555 -1.7953
  106OSM    H7T10808  -0.197   1.588   9.857  1.8247  0.4714 -1.0827
  106OSM    C8S10809  -0.177   1.473   9.673  0.1902 -0.1855 -0.3612
  106OSM    H8S10810  -0.276   1.502   9.631  1.8988  1.6676 -3.5313
  106OSM    H8T10811  -0.158   1.366   9.649  1.9774  0.1146 -0.4447
  106OSM    C9S10812  -0.066   1.560   9.619 -0.7567  0.1757  0.0683
  106OSM    H9S10813   0.029   1.505   9.633 -0.5494  0.5439  0.1317
  106OSM    H9T10814  -0.048   1.657   9.670 -1.9985 -0.2369  1.3552
  106OSM   C10S10815  -0.101   1.582   9.471 -0.3599  0.5984  0.1267
  106OSM   H10S10816  -0.198   1.634   9.454  0.4040  2.4254  1.0361
  106OSM   H10T10817  -0.110   1.478   9.435  0.8513  0.1109  1.1428
  106OSM   C11S10818   0.002   1.664   9.402 -0.3366 -0.5197 -0.0058
  106OSM   H11S10819   0.095   1.605   9.386  0.0778 -0.1426  0.9083
  106OSM   H11T10820   0.037   1.746   9.469 -0.9632 -0.8513  0.7483
  106OSM   C12S10821  -0.028   1.718   9.262 -0.4827  0.2547 -0.2885
  106OSM   H12S10822   0.034   1.805   9.234 -1.0392  0.2747 -1.5410
  106OSM   H12T10823  -0.126   1.770   9.264  0.7418  2.6891 -0.6039
  106OSM   C13S10824  -0.028   1.615   9.148  0.1151  0.1964  0.5291
  106OSM   H13S10825  -0.094   1.528   9.168 -0.6317  0.2208 -1.6015
  106OSM   H13T10826   0.076   1.576   9.145 -0.3171 -1.2542  2.3931
  106OSM   C14S10827  -0.066   1.672   9.007  0.2027  0.7569 -0.5143
  106OSM   H14S10828  -0.002   1.759   8.982 -0.6057  1.6793  0.5109
  106OSM   H14T10829  -0.174   1.698   9.006 -0.2799 -0.9404  1.4148
  106OSM   C15S10830  -0.027   1.561   8.904  0.5689  0.6177 -0.3329
  106OSM   H15S10831   0.078   1.527   8.918  0.1898 -1.0105 -1.0897
  106OSM   H15T10832  -0.037   1.597   8.800  0.3719  1.3708 -0.0535
  106OSM   C16S10833  -0.120   1.441   8.903 -0.1018 -0.0317 -0.7134
  106OSM   H16S10834  -0.203   1.454   8.831 -0.8766 -0.6114  0.0389
  106OSM   H16T10835  -0.165   1.436   9.005  0.6877  1.6113 -0.2552
  106OSM   C17S10836  -0.046   1.310   8.865 -0.4302  0.4853 -0.0691
  106OSM   H17S10837  -0.113   1.226   8.894 -1.1624  0.1607 -2.4863
  106OSM   H17T10838   0.046   1.309   8.929  1.1338 -3.1898 -2.0549
  106OSM   C18S10839  -0.007   1.292   8.717  0.1419 -0.2558  0.1659
  106OSM   H18S10840  -0.092   1.250   8.659 -2.1061  1.3035  2.1403
  106OSM   H18T10841   0.082   1.226   8.707  1.5807  1.2910  1.8614
  106OSM   H18U10842   0.013   1.392   8.674 -0.5226 -0.0789  0.2539
  106OSM    C1F10843   0.051   1.739  10.238 -0.1687  0.7694  0.1714
  106OSM     OF10844   0.122   1.653  10.291  0.3498  0.8886  0.2417
  106OSM    C2F10845   0.120   1.866  10.192 -0.2909 -0.0854  0.6394
  106OSM    H2F10846   0.147   1.931  10.278 -1.2108  0.7028  0.3435
  106OSM    H2G10847   0.047   1.933  10.142  0.6692  0.9962  0.6471
  106OSM    C3F10848   0.249   1.834  10.114 -0.4123  0.2099 -0.2201
  106OSM    H3F10849   0.314   1.757  10.159  2.2196  1.1823 -2.0739
  106OSM    H3G10850   0.314   1.925  10.112  1.9798 -1.3361  1.5692
  106OSM    C4F10851   0.212   1.787   9.971 -0.9349  0.2841 -0.5850
  106OSM    H4F10852   0.209   1.879   9.909 -0.2940  0.2331 -0.6973
  106OSM    H4G10853   0.111   1.740   9.976 -0.5615 -0.4395  1.1667
  106OSM    C5F10854   0.309   1.697   9.909 -0.5762  0.0775 -0.9020
  106OSM    H5F10855   0.259   1.669   9.814 -0.3771 -0.3795 -0.8729
  106OSM    H5G10856   0.313   1.604   9.969 -2.6288  0.4529 -0.0870
  106OSM    C6F10857   0.439   1.772   9.875 -0.9837  0.0067 -0.4797
  106OSM    H6F10858   0.503   1.783   9.965  1.0371  1.3532 -1.9879
  106OSM    H6G10859   0.427   1.874   9.834  1.2098  0.8893  0.8879
  106OSM    C7F10860   0.526   1.696   9.772  0.5010  0.1157 -0.5399
  106OSM    H7F10861   0.468   1.689   9.677 -1.5638 -0.2399  0.6887
  106OSM    H7G10862   0.544   1.594   9.810 -0.7281 -0.5828 -1.7269
  106OSM    C8F10863   0.661   1.765   9.761 -0.0536  0.2123  0.1204
  106OSM    H8F10864   0.722   1.690   9.707 -0.6362 -1.0039  1.0869
  106OSM    H8G10865   0.724   1.777   9.852  1.8785 -1.3889 -0.9398
  106OSM    C9F10866   0.653   1.905   9.705  1.0073  1.1858  0.6543
  106OSM    H9F10867   0.635   1.986   9.777 -0.8742 -0.0058  1.6065
  106OSM   C10F10868   0.703   1.931   9.581 -0.2416 -0.0394  0.2461
  106OSM   H10F10869   0.704   2.035   9.543  1.7405  0.2227  0.9246
  106OSM   C11F10870   0.758   1.831   9.481  0.0646 -0.5982  0.0492
  106OSM   H11F10871   0.804   1.738   9.520 -0.6450 -1.4270 -1.0195
  106OSM   H11G10872   0.825   1.890   9.415 -2.5091 -0.2622 -2.5077
  106OSM   C12F10873   0.642   1.778   9.401  0.0666  0.5019 -0.5122
  106OSM   H12F10874   0.576   1.862   9.371 -0.1923  0.4761 -0.0217
  106OSM   H12G10875   0.576   1.705   9.453  2.5244 -1.9924 -0.6795
  106OSM   C13F10876   0.685   1.703   9.272 -0.1304  0.3688  0.6356
  106OSM   H13F10877   0.746   1.615   9.300 -1.4361 -0.8244 -0.1629
  106OSM   H13G10878   0.739   1.774   9.206 -1.0408  0.6458  0.1603
  106OSM   C14F10879   0.568   1.643   9.194  0.2646  0.0019 -0.7324
  106OSM   H14F10880   0.515   1.733   9.157  0.1011 -0.4078 -1.5316
  106OSM   H14G10881   0.500   1.579   9.255  0.2189 -1.3738 -2.1529
  106OSM   C15F10882   0.604   1.557   9.070 -0.2955  0.7547 -0.0809
  106OSM   H15F10883   0.694   1.499   9.099  0.1205  1.1166 -0.6339
  106OSM   H15G10884   0.627   1.629   8.989 -0.1426  0.7877 -0.0088
  106OSM   C16F10885   0.489   1.467   9.036  0.2022 -0.3049  0.5896
  106OSM   H16F10886   0.410   1.454   9.113 -0.1084  0.1366  0.3504
  106OSM   H16G10887   0.528   1.369   9.003 -0.0725 -0.2207 -0.0033
  106OSM   C17F10888   0.408   1.510   8.917  0.3021  0.7089  0.2998
  106OSM   H17F10889   0.469   1.553   8.835 -0.3314  1.8923  0.4364
  106OSM   H17G10890   0.345   1.599   8.940 -0.0398  0.3012  0.9987
  106OSM   C18F10891   0.315   1.398   8.863 -0.1151 -0.2148  0.1925
  106OSM   H18F10892   0.380   1.313   8.833  1.5063  0.5541  1.4089
  106OSM   H18G10893   0.248   1.424   8.778 -0.6784  2.5448  1.3962
  106OSM   H18H10894   0.255   1.363   8.950  1.3183 -0.6707  1.0274
  107OSM      N10895   3.081   5.865  11.041 -0.3150 -0.6935  0.5559
  107OSM    C1510896   3.020   5.729  11.027  0.2793 -0.0005 -0.4681
  107OSM   H15A10897   2.981   5.686  11.118  0.7819 -1.2293 -0.8266
  107OSM   H15B10898   3.090   5.662  10.982 -0.7382 -2.2743  1.1370
  107OSM   H15C10899   2.932   5.730  10.964  0.0675 -2.5366 -0.3136
  107OSM    C1410900   2.989   5.958  11.107  0.3601  0.1091  0.3740
  107OSM   H14A10901   2.910   5.986  11.039 -1.9257 -3.4476  1.2859
  107OSM   H14B10902   3.050   6.036  11.148  1.5596 -1.0457  0.8554
  107OSM   H14C10903   2.936   5.904  11.185 -1.3560  2.5044  0.9778
  107OSM    C1310904   3.200   5.844  11.125 -0.1630 -0.4168  0.3024
  107OSM   H13A10905   3.265   5.775  11.073  1.9381  0.7469  1.2380
  107OSM   H13B10906   3.182   5.806  11.225  0.5373 -1.2053  0.1410
  107OSM   H13C10907   3.260   5.933  11.139  1.5337 -0.9989 -2.5097
  107OSM    C1210908   3.132   5.922  10.909 -0.1662  0.2458 -0.2932
  107OSM   H12A10909   3.200   5.851  10.865  0.1422 -2.1167  3.4987
  107OSM   H12B10910   3.193   6.009  10.929  0.0198 -0.1124  0.7571
  107OSM    C1110911   3.031   5.953  10.798  0.8305 -0.2623  0.1817
  107OSM   H11A10912   2.972   5.865  10.763  2.6706 -1.4065 -0.2171
  107OSM   H11B10913   3.076   5.967  10.697 -0.8668 -1.3929 -0.7781
  107OSM      P10914   3.002   6.210  10.828  0.1193 -0.2685 -0.1612
  107OSM    O1310915   2.884   6.298  10.851 -0.2992  0.3220 -0.0890
  107OSM    O1410916   3.117   6.226  10.917 -0.5548  0.2521 -0.6792
  107OSM    O1110917   3.055   6.214  10.683  0.4924 -0.1843  0.0968
  107OSM    O1210918   2.945   6.065  10.830  0.0192 -0.1940 -0.1509
  107OSM    C1S10919   2.964   6.205  10.567  0.2137  0.0041  0.2052
  107OSM    H1S10920   2.890   6.288  10.564  0.9083  0.7207  1.7401
  107OSM    H1T10921   2.912   6.107  10.561 -0.1887  0.1076  1.5979
  107OSM     NF10922   2.933   6.179  10.329 -0.3624 -0.6593 -0.9158
  107OSM    HNF10923   2.962   6.104  10.271  1.9800  0.6002 -1.5003
  107OSM    C2S10924   3.027   6.233  10.428  0.3111  0.8747  0.5578
  107OSM    H2S10925   3.037   6.342  10.410 -0.8225  1.3828  2.6865
  107OSM    C3S10926   3.173   6.173  10.423  0.3025  0.0559 -0.5813
  107OSM    H3S10927   3.168   6.067  10.454  2.2369 -0.2056 -1.0430
  107OSM     O310928   3.261   6.234  10.518 -0.1099  0.1171 -0.4241
  107OSM    HO310929   3.206   6.269  10.588 -0.7772 -1.3935 -0.1549
  107OSM    C4S10930   3.235   6.182  10.291  0.4781  0.2165  0.0059
  107OSM    H4S10931   3.187   6.121  10.213 -0.2761  3.4414 -2.2571
  107OSM    C5S10932   3.332   6.273  10.243  0.1410  0.1832  0.0210
  107OSM    H5S10933   3.381   6.341  10.314  3.1375 -1.2626 -0.5181
  107OSM    C6S10934   3.376   6.290  10.098 -0.2295  0.3437 -0.2020
  107OSM    H6S10935   3.485   6.272  10.112 -0.5829 -1.0758  1.0272
  107OSM    H6T10936   3.367   6.395  10.062 -0.7531  0.0097 -1.0836
  107OSM    C7S10937   3.313   6.199   9.992  0.2925  0.3657  0.1657
  107OSM    H7S10938   3.207   6.223   9.970 -0.4592 -1.5517  1.4473
  107OSM    H7T10939   3.333   6.091  10.012  5.0393  0.8529 -0.5945
  107OSM    C8S10940   3.380   6.226   9.854 -0.3040  0.6262 -0.7467
  107OSM    H8S10941   3.486   6.192   9.859 -0.6156 -0.2463  0.5470
  107OSM    H8T10942   3.388   6.333   9.827  2.2753  0.6895  0.0057
  107OSM    C9S10943   3.314   6.154   9.737  0.7378  0.0338  0.1488
  107OSM    H9S10944   3.212   6.194   9.720  1.4689  2.1507  0.3867
  107OSM    H9T10945   3.296   6.046   9.754 -0.5115 -0.1586 -2.0855
  107OSM   C10S10946   3.387   6.177   9.610 -0.4410 -0.1429  0.0471
  107OSM   H10S10947   3.492   6.145   9.628 -1.0191 -1.1291  1.9315
  107OSM   H10T10948   3.387   6.287   9.600 -2.3025  0.0317  1.3458
  107OSM   C11S10949   3.321   6.105   9.492 -0.2000 -0.7087  1.2485
  107OSM   H11S10950   3.217   6.136   9.468  0.7077  1.1591 -0.6198
  107OSM   H11T10951   3.298   5.998   9.510 -1.2291 -0.3268  2.3570
  107OSM   C12S10952   3.405   6.127   9.362  1.1004 -0.5997  0.3681
  107OSM   H12S10953   3.513   6.105   9.373  1.1975 -1.1330 -1.3284
  107OSM   H12T10954   3.393   6.236   9.347  1.1777 -0.4036  1.6230
  107OSM   C13S10955   3.345   6.043   9.243 -0.2789  0.3904 -0.2511
  107OSM   H13S10956   3.250   6.090   9.212  1.0915  2.3181 -1.7991
  107OSM   H13T10957   3.328   5.935   9.262 -0.1198  0.6896  1.8872
  107OSM   C14S10958   3.452   6.049   9.128 -0.0415  0.2935  0.2440
  107OSM   H14S10959   3.546   5.997   9.155  0.5128 -0.2390 -2.4541
  107OSM   H14T10960   3.485   6.154   9.109  1.9072 -0.5993 -1.7294
  107OSM   C15S10961   3.408   5.984   8.996  0.5129 -0.4852  0.4144
  107OSM   H15S10962   3.326   6.052   8.964  1.7549 -0.0595 -2.0187
  107OSM   H15T10963   3.366   5.884   9.021 -0.7675  0.0311  0.4427
  107OSM   C16S10964   3.524   5.962   8.903  0.2972  0.4371  0.2624
  107OSM   H16S10965   3.599   5.902   8.959  0.6159  1.9523  1.5142
  107OSM   H16T10966   3.571   6.060   8.883  0.4244 -0.0986 -2.3618
  107OSM   C17S10967   3.493   5.897   8.768  0.0109 -0.2774 -0.2188
  107OSM   H17S10968   3.418   5.955   8.710 -2.4841 -1.7411  1.3748
  107OSM   H17T10969   3.433   5.806   8.787 -1.2428  0.3921 -0.8118
  107OSM   C18S10970   3.603   5.864   8.666  1.0660 -0.2590 -1.0095
  107OSM   H18S10971   3.564   5.791   8.592 -0.2383 -0.8153  0.1783
  107OSM   H18T10972   3.679   5.806   8.724 -0.0498 -2.8405 -1.9765
  107OSM   H18U10973   3.650   5.956   8.625 -1.3359  1.8802  0.7159
  107OSM    C1F10974   2.810   6.218  10.308  0.0027 -0.2435 -0.0821
  107OSM     OF10975   2.772   6.328  10.353 -0.3886  0.5370  0.7809
  107OSM    C2F10976   2.720   6.122  10.228 -1.0308 -0.5324  0.4598
  107OSM    H2F10977   2.711   6.038  10.300 -2.1505 -0.2572  0.6682
  107OSM    H2G10978   2.783   6.091  10.142 -0.7053 -2.4657  1.3552
  107OSM    C3F10979   2.591   6.194  10.178 -0.6139 -0.5758 -0.4933
  107OSM    H3F10980   2.613   6.269  10.099  1.3951  0.1745  0.7040
  107OSM    H3G10981   2.546   6.254  10.261  1.9602  0.1800  0.4651
  107OSM    C4F10982   2.488   6.084  10.142 -0.8782 -0.3834 -0.4573
  107OSM    H4F10983   2.392   6.134  10.117 -0.6214  1.0595  1.2326
  107OSM    H4G10984   2.454   6.030  10.233 -1.5972  1.6588  0.5506
  107OSM    C5F10985   2.528   5.992  10.033 -0.0614  0.6045 -0.0188
  107OSM    H5F10986   2.458   5.908  10.015  1.3299 -0.2682 -1.7803
  107OSM    H5G10987   2.625   5.940  10.049 -0.6648 -0.9498 -1.1897
  107OSM    C6F10988   2.531   6.057   9.891 -0.3907  0.1675 -0.1251
  107OSM    H6F10989   2.620   6.122   9.880 -0.0548 -0.4819 -1.3884
  107OSM    H6G10990   2.443   6.124   9.885 -1.9985 -1.8522  0.0623
  107OSM    C7F10991   2.533   5.945   9.780  0.3488 -0.1400 -0.8435
  107OSM    H7F10992   2.444   5.881   9.768  0.7409 -0.3847 -2.6794
  107OSM    H7G10993   2.625   5.888   9.805  1.0984  0.7948 -1.3958
  107OSM    C8F10994   2.539   6.011   9.642 -0.2525 -0.1710  0.7948
  107OSM    H8F10995   2.601   6.102   9.658 -0.2263 -0.4810  2.6015
  107OSM    H8G10996   2.435   6.044   9.617 -0.4556  2.2154  4.1310
  107OSM    C9F10997   2.599   5.915   9.543 -0.8745  0.1180  0.0754
  107OSM    H9F10998   2.675   5.841   9.571 -0.0360 -0.3089 -2.9376
  107OSM   C10F10999   2.568   5.903   9.408 -1.0816 -0.4159 -0.6177
  107OSM   H10F11000   2.621   5.829   9.347  0.3801 -0.1706  0.2847
  107OSM   C11F11001   2.466   5.978   9.322 -0.4420 -0.0565 -0.4923
  107OSM   H11F11002   2.371   5.993   9.378  0.5011  0.0487  1.1469
  107OSM   H11G11003   2.453   5.917   9.230 -0.8253 -0.8702  0.0837
  107OSM   C12F11004   2.530   6.114   9.283  1.0322  0.1229  0.5234
  107OSM   H12F11005   2.559   6.172   9.374  0.9871  2.4430 -0.8527
  107OSM   H12G11006   2.451   6.169   9.226  0.9707 -1.2908 -0.8135
  107OSM   C13F11007   2.662   6.104   9.206  0.7313  0.1853 -0.1886
  107OSM   H13F11008   2.741   6.045   9.257  0.7122 -1.8757 -2.3766
  107OSM   H13G11009   2.681   6.212   9.225 -2.6646  0.6852  0.9578
  107OSM   C14F11010   2.644   6.063   9.060 -0.6775  0.4085  0.0378
  107OSM   H14F11011   2.566   6.125   9.012  0.5949  1.3564 -0.9024
  107OSM   H14G11012   2.609   5.957   9.061 -0.0451  0.1801 -0.6237
  107OSM   C15F11013   2.777   6.086   8.984  0.7232  0.5995 -0.2837
  107OSM   H15F11014   2.866   6.045   9.036  1.1077  1.4812 -0.2145
  107OSM   H15G11015   2.804   6.193   8.968 -0.9244  0.8727 -1.3855
  107OSM   C16F11016   2.792   6.026   8.841 -0.3854  0.5911 -0.4056
  107OSM   H16F11017   2.705   6.051   8.778 -2.0366 -0.0957  1.4916
  107OSM   H16G11018   2.792   5.915   8.846  0.3900  0.5168 -1.6861
  107OSM   C17F11019   2.932   6.050   8.772  0.0466 -0.6698 -0.3778
  107OSM   H17F11020   3.021   6.056   8.838  1.3522 -0.4297 -2.1043
  107OSM   H17G11021   2.927   6.156   8.737  2.7239 -0.7272 -1.1455
  107OSM   C18F11022   2.952   5.954   8.656  0.0578  0.9704  0.5836
  107OSM   H18F11023   2.970   5.848   8.686  0.8545  0.7112 -0.7592
  107OSM   H18G11024   3.036   5.994   8.597 -1.3549  1.8476 -0.9136
  107OSM   H18H11025   2.866   5.951   8.586  0.6439 -0.8031 -0.1060
  108OSM      N11026   0.663   0.842  11.002  0.5176  0.2317  0.6607
  108OSM    C1511027   0.744   0.734  11.055 -0.5556  0.4382  0.1846
  108OSM   H15A11028   0.727   0.723  11.161  1.2380 -1.0541  0.3802
  108OSM   H15B11029   0.851   0.742  11.041 -0.7604  1.0506 -1.1619
  108OSM   H15C11030   0.711   0.646  11.003  1.1677 -0.0543 -0.1340
  108OSM    C1411031   0.520   0.826  11.031 -0.3956  0.4830  0.2769
  108OSM   H14A11032   0.515   0.785  11.131 -0.0149 -1.8138 -0.5935
  108OSM   H14B11033   0.471   0.759  10.962 -0.3610 -1.6060  2.1730
  108OSM   H14C11034   0.454   0.911  11.019 -0.7718 -0.0170 -1.5668
  108OSM    C1311035   0.719   0.967  11.064 -0.3314  0.4101 -0.4253
  108OSM   H13A11036   0.695   0.963  11.170 -2.1882 -1.3133 -0.8486
  108OSM   H13B11037   0.676   1.058  11.026  2.1107  1.5999 -0.5467
  108OSM   H13C11038   0.826   0.970  11.050 -0.1403 -0.8144  0.5628
  108OSM    C1211039   0.688   0.864  10.852  0.4290  0.2364  0.3637
  108OSM   H12A11040   0.795   0.868  10.838  0.3165 -0.8868 -1.2100
  108OSM   H12B11041   0.656   0.963  10.821  0.7237  0.3366  0.3765
  108OSM    C1111042   0.644   0.777  10.731  0.1477  0.1803 -0.3463
  108OSM   H11A11043   0.687   0.675  10.741 -2.4940 -0.8448  1.7979
  108OSM   H11B11044   0.689   0.822  10.640 -0.9372 -1.9718 -2.0180
  108OSM      P11045   0.421   0.660  10.664  0.1480 -0.1319 -0.6756
  108OSM    O1311046   0.470   0.537  10.730 -0.7962 -0.5557  0.4953
  108OSM    O1411047   0.275   0.678  10.700 -0.2147  0.0598  0.0922
  108OSM    O1111048   0.455   0.667  10.504  0.2649  0.1593  0.0498
  108OSM    O1211049   0.501   0.789  10.730  0.4047  0.4150  0.6980
  108OSM    C1S11050   0.443   0.802  10.454 -0.4847  0.8368  0.6508
  108OSM    H1S11051   0.533   0.863  10.478  0.9812 -0.5266 -1.0554
  108OSM    H1T11052   0.355   0.859  10.491  0.5640  2.3090  0.9769
  108OSM     NF11053   0.404   0.947  10.262  0.3466  0.2541 -0.4086
  108OSM    HNF11054   0.306   0.960  10.247 -0.3627 -2.8365  0.8105
  108OSM    C2S11055   0.428   0.807  10.291  1.0000 -0.4344 -0.5238
  108OSM    H2S11056   0.521   0.769  10.245 -0.3381 -2.1471 -1.9826
  108OSM    C3S11057   0.308   0.719  10.249  0.4754  0.7820  0.0872
  108OSM    H3S11058   0.215   0.766  10.288 -0.1975  0.0639 -0.6204
  108OSM     O311059   0.298   0.580  10.296 -0.2828  0.2894 -0.3718
  108OSM    HO311060   0.358   0.564  10.369  0.5092  2.0146 -0.5922
  108OSM    C4S11061   0.303   0.716  10.095  0.2844  0.2151 -0.5628
  108OSM    H4S11062   0.404   0.707  10.053  1.0516  1.6819  0.8749
  108OSM    C5S11063   0.191   0.737  10.017  0.4995 -0.5033  0.1691
  108OSM    H5S11064   0.094   0.752  10.068 -0.8160 -1.0265 -2.0408
  108OSM    C6S11065   0.196   0.756   9.867 -0.0016 -0.0801  0.8318
  108OSM    H6S11066   0.129   0.841   9.842 -0.3617  0.1929  2.5562
  108OSM    H6T11067   0.145   0.674   9.813 -0.2082  0.4592  0.1845
  108OSM    C7S11068   0.340   0.771   9.801 -0.7373  0.0865 -0.2514
  108OSM    H7S11069   0.402   0.682   9.822  0.7559  1.4340  1.3562
  108OSM    H7T11070   0.389   0.849   9.863 -0.2701 -0.9855  0.7822
  108OSM    C8S11071   0.352   0.810   9.653  0.5494 -0.1226 -0.0860
  108OSM    H8S11072   0.318   0.916   9.649  1.0319  0.1202  1.5857
  108OSM    H8T11073   0.284   0.749   9.590 -1.4164  1.6338  0.2127
  108OSM    C9S11074   0.493   0.834   9.602 -0.5294 -0.0584  0.3516
  108OSM    H9S11075   0.526   0.730   9.586 -3.4538 -0.7211 -2.4781
  108OSM    H9T11076   0.546   0.886   9.685 -2.4962  1.3156  0.8532
  108OSM   C10S11077   0.496   0.917   9.466  0.3245  0.2493 -0.4319
  108OSM   H10S11078   0.605   0.929   9.446  1.0707  1.4314  3.4612
  108OSM   H10T11079   0.458   1.020   9.481  2.0314  0.7288  0.9779
  108OSM   C11S11080   0.419   0.867   9.340  0.0816  0.5064  0.4667
  108OSM   H11S11081   0.310   0.870   9.361 -0.2536 -0.3177 -1.0361
  108OSM   H11T11082   0.446   0.761   9.320  1.0039  1.2314 -2.6018
  108OSM   C12S11083   0.464   0.951   9.217 -0.3409  0.0794  0.0573
  108OSM   H12S11084   0.573   0.936   9.202  0.2542  2.5909  1.2849
  108OSM   H12T11085   0.449   1.060   9.237  0.4593  0.5098 -1.4644
  108OSM   C13S11086   0.398   0.918   9.081  0.0810 -0.4165  0.0212
  108OSM   H13S11087   0.288   0.924   9.095  0.2892  2.0370  1.1837
  108OSM   H13T11088   0.422   0.812   9.057  0.4511 -0.3711  0.1821
  108OSM   C14S11089   0.444   1.003   8.969  0.4027 -0.0236  0.5661
  108OSM   H14S11090   0.555   1.009   8.965  0.4233 -0.8859 -1.2198
  108OSM   H14T11091   0.405   1.107   8.973  1.7478  0.5526 -0.7535
  108OSM   C15S11092   0.411   0.938   8.829 -0.0259  0.5298  0.2872
  108OSM   H15S11093   0.454   0.836   8.815  0.4687  1.0333 -2.2532
  108OSM   H15T11094   0.451   1.007   8.752 -0.5053  2.0870  1.3761
  108OSM   C16S11095   0.262   0.950   8.793  0.1974  0.4767  0.2632
  108OSM   H16S11096   0.225   1.055   8.791  0.5204  0.6196 -2.5757
  108OSM   H16T11097   0.201   0.898   8.870  1.5745 -2.1805 -0.3048
  108OSM   C17S11098   0.234   0.898   8.648  0.3694  0.2586  0.3728
  108OSM   H17S11099   0.124   0.886   8.635  0.3331  0.4767  0.4769
  108OSM   H17T11100   0.279   0.799   8.628 -0.4577  0.2539 -1.7372
  108OSM   C18S11101   0.268   0.995   8.532  0.1532  0.8168  0.4379
  108OSM   H18S11102   0.190   1.074   8.525 -1.2881 -0.6702 -0.9068
  108OSM   H18T11103   0.271   0.946   8.433  1.1628  3.4346 -0.9239
  108OSM   H18U11104   0.366   1.044   8.549 -0.0115  0.6570  2.0156
  108OSM    C1F11105   0.491   1.040  10.240 -0.6701  0.5286  0.0234
  108OSM     OF11106   0.607   1.039  10.290  0.7141  0.0090 -0.4221
  108OSM    C2F11107   0.435   1.150  10.161 -0.5655 -0.3922  0.2676
  108OSM    H2F11108   0.402   1.228  10.233 -2.4764  0.5112 -1.5058
  108OSM    H2G11109   0.348   1.119  10.100  0.7720 -0.8151 -1.5142
  108OSM    C3F11110   0.534   1.226  10.061  0.0636 -0.6625  0.1971
  108OSM    H3F11111   0.611   1.281  10.119 -1.3170  2.1192 -0.4453
  108OSM    H3G11112   0.471   1.301  10.009 -1.0447 -0.4059  1.8139
  108OSM    C4F11113   0.594   1.135   9.957 -0.0016 -0.7359 -0.6072
  108OSM    H4F11114   0.513   1.085   9.898  1.2438 -2.0708 -1.2562
  108OSM    H4G11115   0.654   1.058  10.010  0.6204 -0.3937 -0.8097
  108OSM    C5F11116   0.671   1.226   9.854  0.0039 -1.0919 -0.3954
  108OSM    H5F11117   0.761   1.274   9.899  0.0127 -1.2950 -0.1961
  108OSM    H5G11118   0.600   1.306   9.823  0.0728 -0.8342  0.0941
  108OSM    C6F11119   0.717   1.161   9.727 -0.1782 -0.1269  0.6938
  108OSM    H6F11120   0.623   1.124   9.682 -0.9144  2.4651 -0.0756
  108OSM    H6G11121   0.783   1.076   9.755 -0.7944 -0.5372  0.9205
  108OSM    C7F11122   0.777   1.260   9.627 -0.0413  0.6508  0.2066
  108OSM    H7F11123   0.880   1.290   9.657  0.0133  0.8830 -0.2020
  108OSM    H7G11124   0.718   1.352   9.607 -0.6502  0.1063 -0.5601
  108OSM    C8F11125   0.799   1.200   9.481  0.4883  0.1690  1.1314
  108OSM    H8F11126   0.817   1.093   9.502 -0.2041 -0.0039  0.8756
  108OSM    H8G11127   0.887   1.259   9.447  0.1666 -0.8194 -1.7038
  108OSM    C9F11128   0.685   1.207   9.383 -0.2767  0.4645  0.4585
  108OSM    H9F11129   0.586   1.171   9.414 -0.1147 -2.3180 -1.8675
  108OSM   C10F11130   0.689   1.236   9.250  0.3017  0.2358 -0.2448
  108OSM   H10F11131   0.592   1.234   9.197 -0.6259 -2.9950  1.2944
  108OSM   C11F11132   0.811   1.265   9.167  0.8958  0.2168  0.4223
  108OSM   H11F11133   0.902   1.221   9.212  0.2526  0.0099  1.5636
  108OSM   H11G11134   0.835   1.373   9.154  0.3243  0.3195  0.1912
  108OSM   C12F11135   0.779   1.195   9.027  0.1524 -0.8731  0.0028
  108OSM   H12F11136   0.680   1.233   8.994  0.1252 -0.1016  0.9041
  108OSM   H12G11137   0.781   1.085   9.042 -2.4292 -1.2624 -1.8349
  108OSM   C13F11138   0.884   1.238   8.919 -0.2090 -0.1688 -0.4677
  108OSM   H13F11139   0.984   1.222   8.965  0.2675  0.3540 -1.3069
  108OSM   H13G11140   0.865   1.347   8.903 -1.3266 -0.4660 -1.3097
  108OSM   C14F11141   0.885   1.159   8.792 -0.0992  0.2410  0.2248
  108OSM   H14F11142   0.905   1.055   8.823  0.6866  0.7457  1.4995
  108OSM   H14G11143   0.977   1.190   8.737  0.0177 -1.1506 -0.4043
  108OSM   C15F11144   0.749   1.175   8.708  0.1082  0.0686  0.1275
  108OSM   H15F11145   0.740   1.284   8.689  0.2146  0.4065  1.8330
  108OSM   H15G11146   0.660   1.149   8.770  0.3992  0.7861  0.8748
  108OSM   C16F11147   0.745   1.098   8.571  0.1764  0.8042 -0.6237
  108OSM   H16F11148   0.829   1.126   8.503 -0.0439  1.7443 -0.5220
  108OSM   H16G11149   0.655   1.130   8.513  1.6330  0.2906 -3.3562
  108OSM   C17F11150   0.740   0.947   8.585  0.1654 -0.1206 -0.4204
  108OSM   H17F11151   0.656   0.916   8.650  0.1887 -1.2118 -0.8889
  108OSM   H17G11152   0.833   0.929   8.644 -0.9387  2.2160  2.2864
  108OSM   C18F11153   0.731   0.874   8.458 -0.0036 -0.1418 -0.5875
  108OSM   H18F11154   0.628   0.894   8.422  1.0851  1.0847 -3.2625
  108OSM   H18G11155   0.734   0.764   8.472  0.4982  0.0625  1.1238
  108OSM   H18H11156   0.800   0.905   8.377  0.5520 -0.8596 -0.4044
  109OSM      N11157   1.428   6.773  10.730  0.2651 -0.5471  0.0285
  109OSM    C1511158   1.353   6.813  10.611 -0.3523 -0.5047  0.2139
  109OSM   H15A11159   1.414   6.810  10.522  0.1680 -1.1430  0.5814
  109OSM   H15B11160   1.323   6.916  10.619  0.6939  0.0056 -1.6975
  109OSM   H15C11161   1.262   6.756  10.597 -0.9472 -0.3552  2.9649
  109OSM    C1411162   1.555   6.855  10.757 -0.3543 -0.3142 -0.1575
  109OSM   H14A11163   1.625   6.849  10.675 -0.0604  0.4911  0.0232
  109OSM   H14B11164   1.601   6.830  10.852 -0.3316 -3.5051 -0.8990
  109OSM   H14C11165   1.537   6.961  10.743  2.3395  0.2265 -0.0986
  109OSM    C1311166   1.345   6.793  10.854  0.6775 -0.5356  0.3838
  109OSM   H13A11167   1.276   6.710  10.855  1.4965 -1.4026  4.6920
  109OSM   H13B11168   1.289   6.885  10.844  2.1556  0.3404 -0.2944
  109OSM   H13C11169   1.393   6.795  10.951 -0.1001  1.0020  0.7715
  109OSM    C1211170   1.459   6.626  10.720 -0.1120  0.7531  0.3349
  109OSM   H12A11171   1.493   6.587  10.815  0.1144  0.0320 -0.0415
  109OSM   H12B11172   1.539   6.612  10.650  0.8475  1.5512  1.2384
  109OSM    C1111173   1.351   6.522  10.680  0.2610  0.0404 -0.0004
  109OSM   H11A11174   1.398   6.421  10.681 -0.4511 -0.2895  0.2182
  109OSM   H11B11175   1.338   6.544  10.572  1.8183  2.0492  0.1475
  109OSM      P11176   1.091   6.520  10.713  0.2866 -0.1755 -0.0228
  109OSM    O1311177   0.999   6.464  10.817  0.4845 -0.0352 -0.0241
  109OSM    O1411178   1.058   6.648  10.647 -0.1976 -0.3251  0.2612
  109OSM    O1111179   1.108   6.427  10.589 -0.5663 -0.1550  0.4522
  109OSM    O1211180   1.236   6.521  10.768  0.3427 -0.3061 -0.3230
  109OSM    C1S11181   1.002   6.383  10.500 -0.4374  0.0403 -0.4589
  109OSM    H1S11182   0.919   6.456  10.494  0.7446  1.5437  0.4473
  109OSM    H1T11183   0.957   6.298  10.554  0.2153  0.7840  1.3492
  109OSM     NF11184   0.945   6.357  10.261  0.4444  0.2680 -0.3817
  109OSM    HNF11185   0.912   6.266  10.236 -0.4586  0.4788  0.0046
  109OSM    C2S11186   1.057   6.350  10.356 -0.0746  0.2822 -0.0104
  109OSM    H2S11187   1.123   6.435  10.326 -1.4092  1.3794  0.0650
  109OSM    C3S11188   1.150   6.224  10.358  0.2229 -0.5165 -0.2348
  109OSM    H3S11189   1.079   6.145  10.391 -1.3594  0.5688 -0.9257
  109OSM     O311190   1.254   6.232  10.450  0.7551  0.3348  0.0579
  109OSM    HO311191   1.225   6.298  10.514  1.5940 -0.6731  1.5437
  109OSM    C4S11192   1.189   6.181  10.224 -0.4968 -0.4446 -0.4258
  109OSM    H4S11193   1.121   6.116  10.167  0.7159 -0.9692 -1.3167
  109OSM    C5S11194   1.306   6.210  10.162 -0.3123 -0.2128 -0.1033
  109OSM    H5S11195   1.388   6.255  10.219  0.7558 -0.9811 -0.9889
  109OSM    C6S11196   1.342   6.163  10.021  0.4137  0.0981 -0.3100
  109OSM    H6S11197   1.445   6.121  10.024  0.0771 -1.0380 -2.7940
  109OSM    H6T11198   1.356   6.240   9.942  3.0681 -2.4598 -2.5911
  109OSM    C7S11199   1.245   6.058   9.962  0.7177  0.4606  0.3270
  109OSM    H7S11200   1.139   6.091   9.960  1.3218  2.5832 -1.0977
  109OSM    H7T11201   1.264   5.970  10.027 -0.2222 -0.1543 -0.2086
  109OSM    C8S11202   1.286   6.019   9.814  0.7163  0.1016 -0.2310
  109OSM    H8S11203   1.391   6.046   9.789  0.1670  1.6617 -1.0231
  109OSM    H8T11204   1.230   6.074   9.735  1.3333 -0.8558 -1.3753
  109OSM    C9S11205   1.270   5.869   9.784 -0.2268  0.1551 -0.5351
  109OSM    H9S11206   1.164   5.834   9.790  0.6024 -2.6631 -1.1206
  109OSM    H9T11207   1.329   5.811   9.857 -2.3284 -0.2582  0.9505
  109OSM   C10S11208   1.313   5.828   9.639 -0.3481 -0.2278 -0.2051
  109OSM   H10S11209   1.333   5.718   9.638  0.9677 -0.0195  0.5746
  109OSM   H10T11210   1.408   5.878   9.611  0.5827 -1.9773 -0.2955
  109OSM   C11S11211   1.206   5.857   9.533  0.6067  0.0657 -0.6223
  109OSM   H11S11212   1.174   5.962   9.550 -0.1080 -0.2710  0.1743
  109OSM   H11T11213   1.116   5.792   9.522  0.4948  0.5401 -3.5931
  109OSM   C12S11214   1.264   5.858   9.387 -0.2701  0.0818 -0.0185
  109OSM   H12S11215   1.300   5.757   9.358 -0.5517  0.1793 -0.7407
  109OSM   H12T11216   1.357   5.918   9.389  0.1298 -0.5398  0.9994
  109OSM   C13S11217   1.173   5.907   9.286 -0.4902  0.0431  0.1409
  109OSM   H13S11218   1.227   5.939   9.195  0.9465 -1.3641  0.4640
  109OSM   H13T11219   1.118   6.000   9.313  2.3464  1.5844  0.9083
  109OSM   C14S11220   1.081   5.791   9.237  0.3987 -0.2336 -0.3078
  109OSM   H14S11221   1.040   5.738   9.325  0.0279  0.7158  0.1052
  109OSM   H14T11222   1.140   5.711   9.186 -0.0715 -0.3519 -0.6705
  109OSM   C15S11223   0.962   5.831   9.142 -0.6605 -0.3916  0.1803
  109OSM   H15S11224   0.902   5.894   9.211 -1.6623  0.3715 -1.3565
  109OSM   H15T11225   0.898   5.740   9.141  0.1964 -1.1687  3.5626
  109OSM   C16S11226   1.007   5.898   9.015  0.0164  0.1426 -0.1750
  109OSM   H16S11227   1.061   5.824   8.952 -0.9747  0.8798 -1.9790
  109OSM   H16T11228   1.084   5.975   9.038  0.3545 -0.7663  1.9801
  109OSM   C17S11229   0.883   5.957   8.940 -1.0378  0.8447 -0.0252
  109OSM   H17S11230   0.805   5.881   8.922 -0.9067  0.6066  0.4014
  109OSM   H17T11231   0.908   6.000   8.840  1.2018 -0.9849 -0.3269
  109OSM   C18S11232   0.824   6.069   9.021 -0.8169  0.4486 -0.5034
  109OSM   H18S11233   0.800   6.149   8.948 -0.7809  1.4250  0.5367
  109OSM   H18T11234   0.887   6.109   9.103  1.5867 -1.0674 -1.5122
  109OSM   H18U11235   0.733   6.023   9.067  0.2819  0.3163  1.6739
  109OSM    C1F11236   0.870   6.460  10.229 -0.5728  0.0592 -0.2063
  109OSM     OF11237   0.903   6.573  10.270 -0.2133  0.2756  0.2014
  109OSM    C2F11238   0.746   6.423  10.151 -0.2772 -0.0368 -0.2031
  109OSM    H2F11239   0.668   6.456  10.224  1.2054  1.1244  0.9442
  109OSM    H2G11240   0.747   6.314  10.131  1.6166 -0.1600  0.2863
  109OSM    C3F11241   0.728   6.505  10.024  0.6463  0.1370 -0.3924
  109OSM    H3F11242   0.764   6.610  10.023  0.1303  0.3266 -1.5318
  109OSM    H3G11243   0.617   6.516  10.021  0.6709  0.3069 -0.7016
  109OSM    C4F11244   0.761   6.440   9.889  0.3160 -1.1060  1.1733
  109OSM    H4F11245   0.723   6.501   9.804  1.2213  1.8151  2.7281
  109OSM    H4G11246   0.714   6.340   9.892 -2.7390  0.0929 -1.0885
  109OSM    C5F11247   0.909   6.436   9.857 -0.0681  0.4507  0.6222
  109OSM    H5F11248   0.951   6.369   9.935  0.4576  2.6956  2.3823
  109OSM    H5G11249   0.967   6.531   9.862  0.8962  0.0424 -1.4179
  109OSM    C6F11250   0.923   6.362   9.721  0.5126 -0.6795 -0.5969
  109OSM    H6F11251   0.893   6.423   9.633 -1.3606 -0.5355  0.0981
  109OSM    H6G11252   0.851   6.279   9.738 -0.7227  1.1524  4.9673
  109OSM    C7F11253   1.069   6.320   9.697  0.8677 -0.1370  0.1329
  109OSM    H7F11254   1.110   6.256   9.778 -0.3677 -2.2111 -0.7844
  109OSM    H7G11255   1.137   6.408   9.689 -0.8007  1.2994  1.1353
  109OSM    C8F11256   1.088   6.242   9.564  0.1188  0.4113  0.2000
  109OSM    H8F11257   1.038   6.143   9.560 -0.0235  0.5050 -0.4288
  109OSM    H8G11258   1.195   6.211   9.565 -0.1609 -0.7709 -1.7580
  109OSM    C9F11259   1.069   6.333   9.443 -0.0054 -0.2393  0.6536
  109OSM    H9F11260   1.157   6.395   9.424  1.7413 -2.6127  0.6128
  109OSM   C10F11261   0.966   6.340   9.354 -0.1434  0.2326  0.2492
  109OSM   H10F11262   0.982   6.405   9.266 -0.3536  0.4465  0.3680
  109OSM   C11F11263   0.834   6.269   9.363 -0.1468  0.4546 -0.4508
  109OSM   H11F11264   0.818   6.235   9.467  0.3508 -1.0092 -0.8370
  109OSM   H11G11265   0.818   6.178   9.302 -0.3300  1.6596 -2.3110
  109OSM   C12F11266   0.721   6.374   9.330  0.3057  0.0915 -0.0766
  109OSM   H12F11267   0.735   6.476   9.370  1.3978 -0.4153  0.9095
  109OSM   H12G11268   0.630   6.333   9.381 -0.0791  0.2563 -0.6300
  109OSM   C13F11269   0.686   6.373   9.182  0.1234  0.1298 -0.6829
  109OSM   H13F11270   0.656   6.271   9.151  2.5162 -1.0180  0.5332
  109OSM   H13G11271   0.779   6.394   9.125  0.1581  0.5512 -0.4754
  109OSM   C14F11272   0.583   6.477   9.139 -0.2879 -0.4525  0.4172
  109OSM   H14F11273   0.623   6.579   9.154 -0.1151 -0.4857  0.1813
  109OSM   H14G11274   0.495   6.479   9.207  0.4718 -0.1932  1.4204
  109OSM   C15F11275   0.553   6.469   8.984 -0.1596 -0.2613 -0.5862
  109OSM   H15F11276   0.503   6.371   8.968  1.4910 -0.7074 -3.8548
  109OSM   H15G11277   0.655   6.460   8.942  0.3982 -2.7452  1.1321
  109OSM   C16F11278   0.479   6.589   8.931 -0.0217  1.0327  0.1742
  109OSM   H16F11279   0.521   6.685   8.967  0.0058  0.7183  0.9826
  109OSM   H16G11280   0.371   6.574   8.952  0.4181 -1.6279  0.9341
  109OSM   C17F11281   0.500   6.595   8.779  0.0528 -0.4693  0.9463
  109OSM   H17F11282   0.608   6.602   8.755  0.6832  2.1077  3.8660
  109OSM   H17G11283   0.455   6.695   8.762  0.2064 -0.3987  0.9509
  109OSM   C18F11284   0.428   6.492   8.691  0.6678 -0.3937 -0.3081
  109OSM   H18F11285   0.442   6.523   8.585  0.9600  1.5627  0.2724
  109OSM   H18G11286   0.321   6.487   8.719  1.0174  1.1923  1.5039
  109OSM   H18H11287   0.473   6.392   8.709  0.9324 -0.1455  0.4379
  110OSM      N11288   1.640   4.635  11.062 -0.3363 -0.0835  0.2561
  110OSM    C1511289   1.706   4.692  11.181 -0.0574 -0.6631  0.0757
  110OSM   H15A11290   1.812   4.670  11.182 -0.2490 -1.6338  0.9838
  110OSM   H15B11291   1.655   4.659  11.270 -2.3768  2.1299 -0.0808
  110OSM   H15C11292   1.688   4.797  11.194  0.2882 -0.6355  0.3400
  110OSM    C1411293   1.649   4.487  11.093  0.3507  0.7679  0.4425
  110OSM   H14A11294   1.594   4.437  11.014  0.7334 -1.7154  1.6408
  110OSM   H14B11295   1.594   4.465  11.183  1.6462  0.4965  1.1747
  110OSM   H14C11296   1.752   4.455  11.094 -0.2697 -1.3412  1.6162
  110OSM    C1311297   1.492   4.666  11.055 -0.3672 -0.0319  0.1937
  110OSM   H13A11298   1.486   4.773  11.068  3.3291  0.0679  2.4612
  110OSM   H13B11299   1.449   4.618  11.141  1.1504  1.1787  1.6856
  110OSM   H13C11300   1.449   4.644  10.958 -1.0084  0.9799  0.2367
  110OSM    C1211301   1.711   4.655  10.933  0.8667  0.6209  0.6355
  110OSM   H12A11302   1.699   4.575  10.862 -0.2972  3.0451 -2.1440
  110OSM   H12B11303   1.816   4.649  10.958  1.0697  0.4528 -0.2496
  110OSM    C1111304   1.686   4.788  10.858  0.7514  0.2061 -0.4486
  110OSM   H11A11305   1.578   4.805  10.842  0.6654  0.7615  0.6002
  110OSM   H11B11306   1.744   4.788  10.763 -0.5283 -1.1859 -1.2625
  110OSM      P11307   1.876   4.927  10.948  0.3990 -0.2385 -0.2125
  110OSM    O1311308   1.886   5.041  11.043 -0.5209  0.7839  0.1872
  110OSM    O1411309   1.948   4.814  11.000 -0.4290  0.2650  0.3265
  110OSM    O1111310   1.934   4.958  10.804  0.2076 -0.0328  0.9649
  110OSM    O1211311   1.729   4.890  10.940 -0.0415 -0.0716  0.4779
  110OSM    C1S11312   1.884   5.070  10.722 -0.7357 -0.0060 -0.2196
  110OSM    H1S11313   1.894   5.164  10.781 -0.5386 -0.7626  0.9760
  110OSM    H1T11314   1.774   5.075  10.706 -0.4314 -1.0103 -3.0788
  110OSM     NF11315   1.877   4.945  10.514 -0.9986 -0.2729  0.7923
  110OSM    HNF11316   1.940   4.867  10.516  2.0601  2.0115  1.2389
  110OSM    C2S11317   1.936   5.067  10.572  0.0921  0.2160 -0.3660
  110OSM    H2S11318   1.893   5.156  10.522 -0.6188  1.4022  2.2168
  110OSM    C3S11319   2.092   5.059  10.556  0.2453 -0.5832 -0.2868
  110OSM    H3S11320   2.121   4.956  10.585  0.3203 -1.4902 -3.2898
  110OSM     O311321   2.165   5.157  10.633 -0.4824 -0.0835 -0.3176
  110OSM    HO311322   2.102   5.199  10.692  1.3307  1.3392  0.6900
  110OSM    C4S11323   2.126   5.076  10.409 -0.3978 -0.3157  0.0906
  110OSM    H4S11324   2.126   4.977  10.360 -1.8680  0.3368 -1.2742
  110OSM    C5S11325   2.159   5.183  10.339  0.3674 -0.8375  0.6175
  110OSM    H5S11326   2.153   5.287  10.375  2.3744  1.3946 -4.4455
  110OSM    C6S11327   2.214   5.191  10.197  0.0448  0.1859  0.2605
  110OSM    H6S11328   2.222   5.088  10.157  1.3977 -0.1438  1.3048
  110OSM    H6T11329   2.309   5.248  10.199 -0.3407  0.8293  0.7054
  110OSM    C7S11330   2.109   5.268  10.104 -0.0368 -0.5859 -0.0445
  110OSM    H7S11331   2.102   5.370  10.147  1.0973 -0.5856  0.1811
  110OSM    H7T11332   2.010   5.217  10.109 -0.7434  0.7878  0.4600
  110OSM    C8S11333   2.159   5.269   9.954 -0.9929  1.0258 -0.3770
  110OSM    H8S11334   2.197   5.165   9.946  0.5533  1.1327  3.5021
  110OSM    H8T11335   2.248   5.331   9.933  1.5178 -1.8882  0.9958
  110OSM    C9S11336   2.053   5.300   9.845  0.4655  0.1322 -0.6277
  110OSM    H9S11337   2.028   5.408   9.845 -0.6253 -0.1082 -0.9892
  110OSM    H9T11338   1.959   5.248   9.871  0.6905 -1.9534 -3.5043
  110OSM   C10S11339   2.102   5.252   9.707  0.8190 -0.3135  0.9573
  110OSM   H10S11340   2.120   5.142   9.711 -0.9893 -0.6274  1.4174
  110OSM   H10T11341   2.193   5.309   9.679  1.1711 -0.5567  1.5871
  110OSM   C11S11342   2.001   5.258   9.589 -0.2158 -0.1236  0.3239
  110OSM   H11S11343   2.010   5.358   9.541  0.7839 -0.5081 -0.3139
  110OSM   H11T11344   1.897   5.256   9.629 -1.0636 -2.0978 -1.8196
  110OSM   C12S11345   2.026   5.155   9.474  0.5722 -0.3053 -1.5703
  110OSM   H12S11346   2.003   5.057   9.521  0.9881  0.0745 -0.5270
  110OSM   H12T11347   2.135   5.157   9.455  0.3292 -1.6026 -3.3188
  110OSM   C13S11348   1.941   5.188   9.355 -0.3241  0.2975 -0.6801
  110OSM   H13S11349   1.977   5.285   9.313  1.0270 -0.6580 -1.8281
  110OSM   H13T11350   1.835   5.209   9.379 -0.8006 -1.4805 -1.0930
  110OSM   C14S11351   1.940   5.080   9.251  0.2819  0.1633  0.6121
  110OSM   H14S11352   1.882   4.997   9.296  0.6631  0.0736  0.9383
  110OSM   H14T11353   2.038   5.036   9.223 -1.4618 -1.9101 -2.9321
  110OSM   C15S11354   1.872   5.129   9.116 -0.4604  0.3749 -0.0707
  110OSM   H15S11355   1.925   5.221   9.083 -0.3165 -0.1618 -1.4239
  110OSM   H15T11356   1.766   5.154   9.137 -1.5154 -1.7416 -2.2981
  110OSM   C16S11357   1.886   5.033   8.997  0.4570  0.1749  0.1011
  110OSM   H16S11358   1.826   4.942   9.019  0.3127  0.3495  0.4349
  110OSM   H16T11359   1.990   4.999   8.977  0.3218 -0.3644  0.2906
  110OSM   C17S11360   1.826   5.083   8.863  0.3046 -0.2041 -0.4058
  110OSM   H17S11361   1.870   5.181   8.836  1.3239 -0.9744 -1.6916
  110OSM   H17T11362   1.717   5.104   8.877  0.4862  1.2074 -0.9721
  110OSM   C18S11363   1.844   4.968   8.759 -0.4152  0.1887 -0.2117
  110OSM   H18S11364   1.840   4.866   8.801  0.9545  0.7404  1.3407
  110OSM   H18T11365   1.939   4.975   8.701 -0.6318 -2.2243 -0.9522
  110OSM   H18U11366   1.760   4.978   8.686 -1.3055  1.2011  0.8889
  110OSM    C1F11367   1.753   4.933  10.488  0.2051  0.9785 -0.1505
  110OSM     OF11368   1.683   5.033  10.478 -0.0612  0.0451 -0.0630
  110OSM    C2F11369   1.702   4.792  10.480  0.0690 -0.4637  0.2438
  110OSM    H2F11370   1.618   4.793  10.554  0.0598 -1.0088  0.2482
  110OSM    H2G11371   1.778   4.734  10.537  1.2611  1.2398  0.4324
  110OSM    C3F11372   1.651   4.734  10.346 -0.2335 -0.2791  0.6342
  110OSM    H3F11373   1.572   4.803  10.309  0.4597  1.3063  1.9487
  110OSM    H3G11374   1.616   4.633  10.375  0.1765 -0.3480  0.9037
  110OSM    C4F11375   1.747   4.717  10.225  0.3189 -0.2776 -0.3816
  110OSM    H4F11376   1.702   4.651  10.148 -1.7053  0.4809  0.0939
  110OSM    H4G11377   1.842   4.673  10.262 -0.0514  0.8973  2.1556
  110OSM    C5F11378   1.792   4.846  10.158 -0.0800 -0.4884  0.0332
  110OSM    H5F11379   1.858   4.909  10.222  0.5429 -0.0208 -1.0332
  110OSM    H5G11380   1.703   4.904  10.126  0.6621  1.0874  0.6669
  110OSM    C6F11381   1.873   4.823  10.034 -0.2136  0.3650  1.1268
  110OSM    H6F11382   1.814   4.742   9.986 -1.2207  2.5612 -1.6181
  110OSM    H6G11383   1.978   4.789  10.047 -0.3035 -0.5147 -0.3156
  110OSM    C7F11384   1.867   4.946   9.941 -0.3954 -0.1255 -0.1386
  110OSM    H7F11385   1.927   5.026   9.989  0.3326 -1.7683  1.8194
  110OSM    H7G11386   1.763   4.982   9.926 -0.2423  0.2092 -0.4179
  110OSM    C8F11387   1.935   4.910   9.808 -0.2616  0.0358 -0.2752
  110OSM    H8F11388   1.939   5.007   9.755  0.9641  0.3462  0.3463
  110OSM    H8G11389   1.875   4.835   9.752 -0.0497  1.0058 -1.8587
  110OSM    C9F11390   2.078   4.861   9.814 -0.1926  0.5632 -0.2691
  110OSM    H9F11391   2.144   4.910   9.887  0.1843 -2.4328  1.6109
  110OSM   C10F11392   2.130   4.751   9.748  0.4622 -0.2144 -0.1329
  110OSM   H10F11393   2.237   4.726   9.742  0.3217 -0.5418 -2.1512
  110OSM   C11F11394   2.054   4.655   9.661  0.6064 -0.3471  0.1357
  110OSM   H11F11395   1.952   4.654   9.706  0.8570 -2.9896  0.8569
  110OSM   H11G11396   2.081   4.548   9.672 -2.2881 -1.1998 -0.0639
  110OSM   C12F11397   2.042   4.693   9.509  0.3255  0.3588 -0.4799
  110OSM   H12F11398   2.021   4.799   9.486 -0.2919  0.3771  0.1116
  110OSM   H12G11399   1.953   4.636   9.472  1.3279 -0.4795 -1.6699
  110OSM   C13F11400   2.163   4.650   9.430 -0.4436 -0.4595  0.2286
  110OSM   H13F11401   2.186   4.542   9.435  1.9604  0.0017  0.9375
  110OSM   H13G11402   2.244   4.709   9.479 -0.3827 -0.5264  0.2078
  110OSM   C14F11403   2.158   4.692   9.279 -0.1156  0.0563  0.0994
  110OSM   H14F11404   2.218   4.611   9.233 -1.3549 -1.0756  0.4054
  110OSM   H14G11405   2.187   4.798   9.267  0.0234  0.2482  1.9029
  110OSM   C15F11406   2.018   4.680   9.207 -0.2754  0.8948 -0.3329
  110OSM   H15F11407   1.960   4.774   9.195 -1.0974  0.1577 -2.6458
  110OSM   H15G11408   1.958   4.611   9.271 -1.5533  1.3427 -1.0185
  110OSM   C16F11409   2.031   4.612   9.068 -0.6073  0.5117  0.7426
  110OSM   H16F11410   1.928   4.587   9.035 -0.1712 -2.0353  1.1575
  110OSM   H16G11411   2.090   4.519   9.083  0.7933  1.1878 -0.3100
  110OSM   C17F11412   2.100   4.699   8.962 -0.3360 -1.0497 -0.6628
  110OSM   H17F11413   2.206   4.700   8.993 -0.6713 -1.9482  0.6005
  110OSM   H17G11414   2.064   4.803   8.977  1.0814 -0.0188 -3.6188
  110OSM   C18F11415   2.079   4.656   8.815  0.1796  0.0324 -0.5916
  110OSM   H18F11416   2.126   4.556   8.804  1.6088  0.8795 -2.9740
  110OSM   H18G11417   2.139   4.727   8.754 -0.7325  0.0957 -1.4429
  110OSM   H18H11418   1.975   4.653   8.775  0.4974  1.0033 -1.5673
  111OSM      N11419   1.184   2.864  11.163  0.6010  0.1148 -0.0056
  111OSM    C1511420   1.204   3.008  11.135  0.0792 -0.4295 -0.2215
  111OSM   H15A11421   1.302   3.044  11.106  0.4717 -1.3789 -0.1132
  111OSM   H15B11422   1.181   3.075  11.217  4.2483 -0.1377  0.9089
  111OSM   H15C11423   1.136   3.037  11.056  0.1106  1.5224  0.4191
  111OSM    C1411424   1.281   2.827  11.264  1.1424 -0.4523  0.5099
  111OSM   H14A11425   1.377   2.830  11.215  1.8903  1.3390  1.9682
  111OSM   H14B11426   1.276   2.730  11.313  1.8927 -0.1568  1.2005
  111OSM   H14C11427   1.277   2.904  11.339  2.8121  0.4732 -0.2914
  111OSM    C1311428   1.046   2.843  11.218 -0.3395 -0.2255 -0.6998
  111OSM   H13A11429   0.971   2.871  11.147  0.2340  0.7930 -0.9233
  111OSM   H13B11430   1.037   2.897  11.311  3.0319 -0.7749  0.1052
  111OSM   H13C11431   1.031   2.741  11.251  1.1108 -0.1658  0.2435
  111OSM    C1211432   1.212   2.782  11.041 -0.0136  0.4731 -0.3610
  111OSM   H12A11433   1.245   2.686  11.078  2.9415  1.3702 -0.3663
  111OSM   H12B11434   1.294   2.829  10.988 -0.1060 -1.7610 -2.6963
  111OSM    C1111435   1.101   2.764  10.930 -0.1101 -0.1451  0.1780
  111OSM   H11A11436   1.016   2.706  10.972  1.5223 -1.4050  1.9168
  111OSM   H11B11437   1.143   2.703  10.847 -1.2182  1.6219 -1.8082
  111OSM      P11438   1.147   2.961  10.758 -0.2439  0.2904 -0.4255
  111OSM    O1311439   1.099   3.098  10.733  0.0034  0.5903 -0.3006
  111OSM    O1411440   1.289   2.944  10.799 -0.2673 -0.1192 -0.1474
  111OSM    O1111441   1.119   2.871  10.628 -0.3019 -0.8378  0.1766
  111OSM    O1211442   1.066   2.887  10.869  0.0679 -0.7295 -0.4535
  111OSM    C1S11443   0.993   2.881  10.561 -0.7811 -0.6438 -0.4478
  111OSM    H1S11444   0.972   2.988  10.538  1.9597  0.3753  1.3010
  111OSM    H1T11445   0.908   2.838  10.617  0.0149  0.4511  1.7354
  111OSM     NF11446   0.916   2.829  10.332  0.0515  0.2019  0.5818
  111OSM    HNF11447   0.855   2.755  10.303  0.9635 -0.2343 -0.2893
  111OSM    C2S11448   1.018   2.793  10.432  0.3082 -0.7949  0.1654
  111OSM    H2S11449   1.119   2.829  10.401 -0.2985  0.1654 -0.7656
  111OSM    C3S11450   1.039   2.638  10.455 -0.1260 -0.4133 -0.2886
  111OSM    H3S11451   0.943   2.585  10.473 -1.4023  1.5312 -0.9390
  111OSM     O311452   1.109   2.606  10.578  0.0929  0.1836 -0.3388
  111OSM    HO311453   1.107   2.690  10.623  1.1265  0.6810 -1.1828
  111OSM    C4S11454   1.104   2.572  10.332 -0.2073 -0.4053 -1.1248
  111OSM    H4S11455   1.205   2.611  10.320  0.4351 -1.5595  0.1857
  111OSM    C5S11456   1.049   2.489  10.247  0.4250  0.6432 -0.1536
  111OSM    H5S11457   0.942   2.464  10.252  0.1249  0.8456 -3.3894
  111OSM    C6S11458   1.115   2.416  10.131 -0.0232 -0.1562 -0.3841
  111OSM    H6S11459   1.108   2.306  10.144  0.1367 -0.1296 -0.0575
  111OSM    H6T11460   1.222   2.445  10.132 -0.7765  2.9930  1.4415
  111OSM    C7S11461   1.051   2.446   9.993  0.2713 -0.4532 -0.3345
  111OSM    H7S11462   0.943   2.422   9.985  0.2721 -0.3278 -0.7507
  111OSM    H7T11463   1.105   2.381   9.921  0.2081  0.4795 -1.2456
  111OSM    C8S11464   1.061   2.595   9.959 -0.3022 -0.7225  0.4332
  111OSM    H8S11465   1.166   2.631   9.954 -0.8357  1.0754  1.2376
  111OSM    H8T11466   1.023   2.656  10.044 -1.1124  2.8346 -2.2176
  111OSM    C9S11467   0.986   2.635   9.835  0.4054 -0.0885 -0.0019
  111OSM    H9S11468   0.994   2.746   9.829  1.0126  0.1132  2.9804
  111OSM    H9T11469   0.879   2.613   9.854  0.3699  0.3624  0.3333
  111OSM   C10S11470   1.038   2.574   9.705 -0.7416 -0.1297  0.0233
  111OSM   H10S11471   1.001   2.470   9.699 -1.2169  0.0416 -0.0752
  111OSM   H10T11472   1.148   2.562   9.695 -0.6449  0.8533 -0.2726
  111OSM   C11S11473   1.011   2.662   9.586 -0.8272  0.5363 -0.0165
  111OSM   H11S11474   1.029   2.770   9.607  2.9483  0.0510 -0.0431
  111OSM   H11T11475   0.901   2.654   9.574 -0.5644 -0.7875 -2.0923
  111OSM   C12S11476   1.072   2.606   9.454  0.1587  0.0075 -1.4736
  111OSM   H12S11477   1.051   2.497   9.454 -1.0693  0.1532  1.5803
  111OSM   H12T11478   1.181   2.618   9.477 -0.5389  2.0619  1.2584
  111OSM   C13S11479   1.029   2.675   9.323 -0.2881 -0.1337 -0.1243
  111OSM   H13S11480   1.061   2.780   9.310  0.8548 -0.4769 -0.1887
  111OSM   H13T11481   0.919   2.663   9.327 -0.0988 -2.4247 -0.5130
  111OSM   C14S11482   1.066   2.587   9.203 -0.3364 -0.5707  0.6934
  111OSM   H14S11483   1.022   2.486   9.212 -0.7747 -0.5251 -0.7085
  111OSM   H14T11484   1.176   2.577   9.191 -0.6569 -1.0011 -4.6403
  111OSM   C15S11485   1.000   2.651   9.070 -0.2293  0.1406 -0.0325
  111OSM   H15S11486   1.017   2.761   9.079  1.1857  0.0806 -1.4369
  111OSM   H15T11487   0.891   2.639   9.090 -0.5811  3.7840  1.0165
  111OSM   C16S11488   1.038   2.576   8.941  0.1778 -0.6471  0.0833
  111OSM   H16S11489   1.000   2.472   8.934  0.4064 -0.9835  2.9432
  111OSM   H16T11490   1.149   2.569   8.941  0.2369 -0.7497 -2.7292
  111OSM   C17S11491   1.001   2.655   8.815  0.8769 -0.7566 -0.4331
  111OSM   H17S11492   1.047   2.756   8.819 -2.6359  0.9268  2.0730
  111OSM   H17T11493   0.890   2.662   8.809  0.7083 -2.2218  0.3135
  111OSM   C18S11494   1.049   2.603   8.673 -0.4018 -0.6285 -0.1213
  111OSM   H18S11495   1.021   2.496   8.665 -2.7669  0.0256 -1.6810
  111OSM   H18T11496   1.160   2.611   8.666 -0.6517  3.3810 -2.7044
  111OSM   H18U11497   1.017   2.668   8.589  2.4042 -0.1449 -0.9180
  111OSM    C1F11498   0.907   2.957  10.277  0.1468  0.4288  0.3026
  111OSM     OF11499   0.992   3.044  10.299  0.1313 -0.1676  0.0978
  111OSM    C2F11500   0.785   2.985  10.193 -0.0232  0.4239  0.5519
  111OSM    H2F11501   0.704   3.015  10.264  1.8083  0.1142  2.9191
  111OSM    H2G11502   0.764   2.887  10.147  0.6890  0.5080  0.0343
  111OSM    C3F11503   0.805   3.094  10.085  0.1831 -0.9642  0.5973
  111OSM    H3F11504   0.866   3.180  10.121  2.9748 -1.7998 -1.7562
  111OSM    H3G11505   0.708   3.141  10.060  0.1412 -1.0199  0.6553
  111OSM    C4F11506   0.868   3.029   9.962 -0.2065 -0.0337  0.2952
  111OSM    H4F11507   0.802   2.956   9.911 -1.2590 -0.3266  2.0040
  111OSM    H4G11508   0.959   2.974   9.993  0.5813  2.0655  1.9708
  111OSM    C5F11509   0.898   3.130   9.846 -0.5231  0.5339 -0.4158
  111OSM    H5F11510   0.973   3.198   9.890  0.0296  0.5890 -1.4244
  111OSM    H5G11511   0.806   3.189   9.825 -0.0797  1.6428  0.6571
  111OSM    C6F11512   0.948   3.066   9.712  0.0276  0.4023  0.5088
  111OSM    H6F11513   0.925   2.958   9.702 -2.5155  0.9370 -0.1338
  111OSM    H6G11514   1.059   3.069   9.713  0.0056  1.4443  0.6756
  111OSM    C7F11515   0.885   3.134   9.586 -0.3807  0.2929  0.2209
  111OSM    H7F11516   0.881   3.244   9.600 -0.5926 -0.0018  3.0594
  111OSM    H7G11517   0.784   3.092   9.563  0.4396 -1.3972 -0.4564
  111OSM    C8F11518   0.969   3.110   9.462 -0.3295 -0.5935 -0.6515
  111OSM    H8F11519   0.914   3.158   9.378  3.5952 -0.0083 -3.1648
  111OSM    H8G11520   0.988   3.001   9.457  0.9417 -0.5185  1.4046
  111OSM    C9F11521   1.102   3.176   9.465  0.3756 -0.5784 -0.0503
  111OSM    H9F11522   1.158   3.162   9.559  1.7328 -0.1926 -0.7917
  111OSM   C10F11523   1.168   3.235   9.368  0.1460  0.9226 -0.0359
  111OSM   H10F11524   1.272   3.265   9.387  0.0293  0.7566  0.9711
  111OSM   C11F11525   1.123   3.256   9.226  0.4196 -0.4101 -0.0977
  111OSM   H11F11526   1.013   3.246   9.215  0.8068 -1.7796 -4.7012
  111OSM   H11G11527   1.166   3.182   9.155 -1.2454 -0.1541 -1.4289
  111OSM   C12F11528   1.173   3.384   9.162  0.0773 -0.5972  0.2794
  111OSM   H12F11529   1.283   3.370   9.154  0.0284 -1.2662  0.6977
  111OSM   H12G11530   1.147   3.470   9.227 -1.4869 -2.3065  2.0370
  111OSM   C13F11531   1.108   3.391   9.027  0.3100  0.0081  0.1683
  111OSM   H13F11532   0.999   3.402   9.042 -0.5806 -1.9759 -3.6212
  111OSM   H13G11533   1.130   3.295   8.974 -0.6570  0.3236 -0.8516
  111OSM   C14F11534   1.161   3.521   8.963  0.3797 -0.0177 -0.2578
  111OSM   H14F11535   1.270   3.540   8.973  0.2097  1.1309 -0.4271
  111OSM   H14G11536   1.114   3.610   9.010  0.1534 -0.6467  0.7297
  111OSM   C15F11537   1.132   3.518   8.812  0.7447  0.0210 -0.1027
  111OSM   H15F11538   1.132   3.627   8.789 -0.5955  0.0382 -0.0983
  111OSM   H15G11539   1.025   3.488   8.805  0.4838  0.9830 -0.4978
  111OSM   C16F11540   1.234   3.437   8.738  0.3596  0.5531 -0.4001
  111OSM   H16F11541   1.220   3.327   8.743 -0.9277  0.7602  2.0080
  111OSM   H16G11542   1.329   3.462   8.791  1.2684 -2.5510 -0.3453
  111OSM   C17F11543   1.249   3.469   8.585 -0.2820  0.7498  0.7142
  111OSM   H17F11544   1.263   3.579   8.583 -2.4546  1.0588  0.5863
  111OSM   H17G11545   1.153   3.449   8.534 -0.6924  0.8331  1.4402
  111OSM   C18F11546   1.362   3.391   8.516 -0.6846  0.3823 -0.0287
  111OSM   H18F11547   1.459   3.421   8.560  0.0944  0.4698 -1.7136
  111OSM   H18G11548   1.357   3.406   8.406 -1.4881 -0.0891 -0.0583
  111OSM   H18H11549   1.349   3.280   8.516  1.6873  0.0424 -0.9254
  112OSM      N11550   1.224   6.074  10.863 -0.1840  0.1319 -0.3693
  112OSM    C1511551   1.312   6.004  10.966  0.0499  0.2783 -0.3782
  112OSM   H15A11552   1.247   5.934  11.016  0.4867  0.0647 -0.1129
  112OSM   H15B11553   1.336   6.071  11.047  0.5715 -1.5011  0.9923
  112OSM   H15C11554   1.399   5.957  10.923  0.0367 -0.7329  0.6768
  112OSM    C1411555   1.106   6.125  10.939  0.0066  0.2829 -0.7711
  112OSM   H14A11556   1.135   6.205  11.005  1.0854  0.2183 -1.1504
  112OSM   H14B11557   1.053   6.046  10.990 -2.4062  2.4441  0.2993
  112OSM   H14C11558   1.036   6.171  10.869  0.8501 -0.9336 -2.4780
  112OSM    C1311559   1.301   6.189  10.808  0.4010 -0.1865  0.9474
  112OSM   H13A11560   1.315   6.261  10.886  3.0197  0.2853  0.1517
  112OSM   H13B11561   1.252   6.237  10.724  0.0994 -1.2785  0.4750
  112OSM   H13C11562   1.398   6.159  10.772  0.5068  1.1915  0.0349
  112OSM    C1211563   1.177   5.980  10.758  0.6523  0.0652  0.4421
  112OSM   H12A11564   1.125   5.898  10.805  1.1511 -0.3129  0.3499
  112OSM   H12B11565   1.262   5.934  10.710  0.3606 -1.2926  1.1731
  112OSM    C1111566   1.078   6.030  10.648 -0.6008 -0.5697 -0.1498
  112OSM   H11A11567   1.098   5.968  10.558  0.1821  1.2621 -1.3253
  112OSM   H11B11568   1.120   6.131  10.624  0.2851  0.1022  3.5946
  112OSM      P11569   0.855   5.916  10.696  0.4126 -0.3600  0.1528
  112OSM    O1311570   0.912   5.812  10.782  0.0485  0.4060 -0.2442
  112OSM    O1411571   0.709   5.943  10.712 -0.7393 -0.1178  0.1951
  112OSM    O1111572   0.878   5.868  10.555  0.2658 -0.3069  0.3303
  112OSM    O1211573   0.938   6.051  10.698  0.0187  0.5115 -0.0989
  112OSM    C1S11574   0.809   5.911  10.436 -0.4017 -0.0215  0.0658
  112OSM    H1S11575   0.836   6.017  10.415 -0.6033  0.0164 -0.0094
  112OSM    H1T11576   0.699   5.916  10.449 -0.3215  1.5132  0.3268
  112OSM     NF11577   0.774   5.898  10.194 -0.6644  0.7549  0.3854
  112OSM    HNF11578   0.707   5.844  10.142  2.2239 -1.6298 -1.1952
  112OSM    C2S11579   0.844   5.839  10.306  0.1519 -0.0709 -0.2408
  112OSM    H2S11580   0.953   5.859  10.292  0.4448  0.2544  1.9669
  112OSM    C3S11581   0.825   5.684  10.330  1.0886  0.6191  0.1069
  112OSM    H3S11582   0.726   5.666  10.375  0.2666  1.5835 -1.2414
  112OSM     O311583   0.908   5.627  10.430 -0.2504  0.3463  0.4280
  112OSM    HO311584   0.955   5.700  10.471  0.3845  1.1882 -1.6474
  112OSM    C4S11585   0.846   5.605  10.198 -0.3072  0.1836  0.8697
  112OSM    H4S11586   0.757   5.601  10.135 -1.1030 -1.8093  2.0195
  112OSM    C5S11587   0.959   5.542  10.158  0.0481  0.0645 -0.2297
  112OSM    H5S11588   1.039   5.539  10.234  3.8113 -1.4796 -3.8095
  112OSM    C6S11589   0.991   5.477  10.027 -0.7055 -0.2559  0.7674
  112OSM    H6S11590   0.908   5.498   9.956  2.2869  0.9510 -2.6790
  112OSM    H6T11591   0.997   5.366  10.040 -0.7259 -0.1025  2.2220
  112OSM    C7S11592   1.108   5.548   9.968  0.6093  0.1558  0.7013
  112OSM    H7S11593   1.195   5.548  10.038  1.1483 -1.2491  0.0784
  112OSM    H7T11594   1.079   5.653   9.944  1.2347  0.2584  0.3526
  112OSM    C8S11595   1.164   5.473   9.849 -0.1490  0.0312  0.4759
  112OSM    H8S11596   1.200   5.371   9.874 -1.0922 -0.7368 -1.1681
  112OSM    H8T11597   1.255   5.527   9.817 -0.7726  1.3124  0.7739
  112OSM    C9S11598   1.068   5.459   9.725  0.1303  0.2933 -0.6675
  112OSM    H9S11599   1.011   5.550   9.700  1.1376  0.8150 -1.1082
  112OSM    H9T11600   0.987   5.385   9.742  0.1069  0.3680 -0.4493
  112OSM   C10S11601   1.113   5.398   9.594  0.0239 -0.0404 -0.3607
  112OSM   H10S11602   1.130   5.288   9.604  0.7928  0.1220  0.2527
  112OSM   H10T11603   1.212   5.440   9.567  0.5301 -1.1265 -0.2622
  112OSM   C11S11604   1.029   5.444   9.470 -0.7104  0.2069  0.6500
  112OSM   H11S11605   1.056   5.552   9.469 -0.6761  0.2029 -0.7380
  112OSM   H11T11606   0.920   5.443   9.488 -0.3488  0.8872  3.2670
  112OSM   C12S11607   1.079   5.371   9.342 -0.5242 -0.1790 -0.5125
  112OSM   H12S11608   1.093   5.261   9.352 -1.9005 -0.4791 -1.5897
  112OSM   H12T11609   1.184   5.399   9.316  0.0802 -1.9954 -0.2148
  112OSM   C13S11610   0.992   5.408   9.220  0.2043  0.2264  0.6999
  112OSM   H13S11611   0.953   5.512   9.226  1.6590  0.9135 -0.8863
  112OSM   H13T11612   0.913   5.330   9.219  2.3515 -2.1057  2.1785
  112OSM   C14S11613   1.074   5.400   9.094 -0.0327  0.9962  0.0384
  112OSM   H14S11614   1.122   5.301   9.083  1.3972  1.2923  2.6201
  112OSM   H14T11615   1.152   5.477   9.109 -0.2880  0.9653  1.8097
  112OSM   C15S11616   0.988   5.427   8.965 -0.6469 -0.3732  0.2434
  112OSM   H15S11617   0.933   5.522   8.983 -1.4743 -0.6146 -0.8671
  112OSM   H15T11618   0.915   5.343   8.956 -2.2285  0.9107  0.6046
  112OSM   C16S11619   1.073   5.447   8.843  0.9340  0.2488 -0.2129
  112OSM   H16S11620   1.142   5.361   8.830 -0.8460 -1.7715  2.5911
  112OSM   H16T11621   1.126   5.543   8.857 -0.2963  0.8644  0.3549
  112OSM   C17S11622   0.973   5.437   8.722 -0.2723 -0.3941 -0.3873
  112OSM   H17S11623   0.893   5.515   8.724 -1.6707 -1.7840 -0.4779
  112OSM   H17T11624   0.902   5.353   8.735  0.2149 -0.7451  0.0521
  112OSM   C18S11625   1.040   5.448   8.587  0.7881 -0.4603 -0.3890
  112OSM   H18S11626   1.113   5.365   8.575  1.0693 -0.0131 -2.1002
  112OSM   H18T11627   1.089   5.547   8.571 -1.0345  0.4723 -0.4036
  112OSM   H18U11628   0.952   5.440   8.519 -0.9419  0.9205  1.5515
  112OSM    C1F11629   0.802   6.007  10.131  0.1398 -0.6060  0.4918
  112OSM     OF11630   0.884   6.084  10.180  0.4553 -0.1676  0.2836
  112OSM    C2F11631   0.741   6.024  10.001  0.5810 -0.9991 -0.2838
  112OSM    H2F11632   0.715   6.131  10.008  1.7783 -0.5717 -1.7564
  112OSM    H2G11633   0.635   5.991  10.001 -0.4076  1.9590 -0.4791
  112OSM    C3F11634   0.827   5.972   9.879  0.6213 -0.8668 -0.3562
  112OSM    H3F11635   0.854   5.866   9.897  0.3834 -0.6036  1.8629
  112OSM    H3G11636   0.926   6.021   9.889 -0.3358  1.4442 -1.3801
  112OSM    C4F11637   0.764   5.994   9.748 -0.1378 -0.1140 -0.6818
  112OSM    H4F11638   0.779   6.098   9.711 -0.7189  0.3108  0.2536
  112OSM    H4G11639   0.655   5.973   9.753 -0.2795  0.6986 -0.1467
  112OSM    C5F11640   0.814   5.881   9.652  0.3454 -0.0173 -0.2204
  112OSM    H5F11641   0.799   5.782   9.699  0.7121  0.6368  1.3574
  112OSM    H5G11642   0.922   5.880   9.628  0.9466 -1.6952  2.2307
  112OSM    C6F11643   0.724   5.877   9.518  0.0515  0.7469  0.0133
  112OSM    H6F11644   0.748   5.970   9.462 -0.9088  2.3147  2.0375
  112OSM    H6G11645   0.617   5.878   9.547 -0.1449  0.8356 -0.7118
  112OSM    C7F11646   0.753   5.746   9.443  0.9789  0.7152 -0.2337
  112OSM    H7F11647   0.753   5.667   9.522  1.7004  0.6532 -0.2927
  112OSM    H7G11648   0.848   5.736   9.387  1.8731 -0.2546  1.3909
  112OSM    C8F11649   0.639   5.700   9.355  0.6674 -0.0446 -0.0743
  112OSM    H8F11650   0.626   5.787   9.287  1.9605  0.3899  0.2090
  112OSM    H8G11651   0.565   5.694   9.437  2.8964  1.3637  2.1782
  112OSM    C9F11652   0.660   5.566   9.291 -0.1401 -0.0822 -0.3220
  112OSM    H9F11653   0.667   5.484   9.363  2.4631  0.3605  0.0309
  112OSM   C10F11654   0.648   5.537   9.158 -0.7954 -0.6534 -0.6665
  112OSM   H10F11655   0.648   5.431   9.130  0.7157 -0.7640 -0.3422
  112OSM   C11F11656   0.615   5.642   9.049  0.5680  0.1867 -0.1820
  112OSM   H11F11657   0.682   5.727   9.075  0.4402  0.9953 -2.3003
  112OSM   H11G11658   0.510   5.676   9.061  0.7057  0.1349  1.2878
  112OSM   C12F11659   0.642   5.596   8.901  0.3482 -0.1113  0.8909
  112OSM   H12F11660   0.749   5.569   8.892 -0.0455 -1.4205 -0.1988
  112OSM   H12G11661   0.618   5.680   8.833 -1.8433 -0.0866  1.6074
  112OSM   C13F11662   0.540   5.484   8.849 -0.4618 -0.4853 -0.6905
  112OSM   H13F11663   0.525   5.411   8.932  1.4430 -1.3284 -1.0493
  112OSM   H13G11664   0.596   5.428   8.771 -0.1158  2.0481 -2.3567
  112OSM   C14F11665   0.414   5.545   8.785 -0.3731 -0.2567 -0.0067
  112OSM   H14F11666   0.451   5.619   8.710 -2.4638 -0.4296 -1.2812
  112OSM   H14G11667   0.359   5.597   8.866  0.9848  1.0500  0.1149
  112OSM   C15F11668   0.327   5.456   8.703 -0.2993  0.6007  0.5860
  112OSM   H15F11669   0.244   5.512   8.654 -1.4483 -1.8073 -0.4004
  112OSM   H15G11670   0.269   5.389   8.769 -1.0553 -0.0987 -0.7388
  112OSM   C16F11671   0.399   5.360   8.603 -0.7083 -0.9851 -0.1956
  112OSM   H16F11672   0.456   5.284   8.660 -0.1250 -0.4361 -0.0323
  112OSM   H16G11673   0.473   5.407   8.535  1.2061  0.0176  2.4368
  112OSM   C17F11674   0.300   5.280   8.529 -0.1303  0.9818  0.1362
  112OSM   H17F11675   0.235   5.342   8.464  2.1022  3.2388 -0.0860
  112OSM   H17G11676   0.237   5.244   8.613  0.9473 -3.5073 -0.7303
  112OSM   C18F11677   0.367   5.172   8.446  0.0222  0.3100 -0.2514
  112OSM   H18F11678   0.432   5.219   8.369 -0.3253  1.7382  0.2978
  112OSM   H18G11679   0.288   5.115   8.392 -2.8373  1.6677  2.2120
  112OSM   H18H11680   0.424   5.103   8.512 -2.8121 -1.6571  0.3439
  113OSM      N11681   1.344   0.803  10.699 -0.4680 -0.8070 -0.2687
  113OSM    C1511682   1.462   0.775  10.615 -0.2718 -0.8129 -0.2541
  113OSM   H15A11683   1.557   0.805  10.658  0.4000 -0.9078 -1.6204
  113OSM   H15B11684   1.453   0.826  10.520  1.4406  1.6283  0.7892
  113OSM   H15C11685   1.459   0.669  10.598  2.3135 -0.8313 -0.9294
  113OSM    C1411686   1.347   0.954  10.719 -0.3502  0.5978  0.1401
  113OSM   H14A11687   1.336   1.013  10.629 -1.3487  1.5168  0.8416
  113OSM   H14B11688   1.446   0.981  10.752  0.0966 -1.3227  0.4826
  113OSM   H14C11689   1.262   0.985  10.779 -1.6220  0.3860 -1.4900
  113OSM    C1311690   1.217   0.759  10.627 -0.3212  0.0091 -0.2491
  113OSM   H13A11691   1.221   0.652  10.619 -3.0033 -0.0533 -2.5284
  113OSM   H13B11692   1.221   0.804  10.529  2.4639  0.0700 -0.1890
  113OSM   H13C11693   1.134   0.796  10.686  0.0759 -2.9087  2.3774
  113OSM    C1211694   1.357   0.737  10.830  0.7115 -0.2254 -0.4022
  113OSM   H12A11695   1.261   0.726  10.878  1.9569 -0.7225  2.2152
  113OSM   H12B11696   1.418   0.794  10.899  0.9792 -1.2510  0.2479
  113OSM    C1111697   1.406   0.590  10.831 -0.8495  0.1667  0.0646
  113OSM   H11A11698   1.385   0.557  10.935 -3.4516  0.6000 -0.2415
  113OSM   H11B11699   1.517   0.587  10.824 -0.9143 -1.1325 -0.9241
  113OSM      P11700   1.282   0.373  10.752  0.2063 -0.0644  0.1036
  113OSM    O1311701   1.395   0.280  10.736 -0.6850  0.0942  0.5831
  113OSM    O1411702   1.216   0.368  10.877  0.3538 -0.2736 -0.8382
  113OSM    O1111703   1.186   0.355  10.635 -0.6328  0.1688 -0.6212
  113OSM    O1211704   1.343   0.509  10.736 -0.4089 -0.5248  0.2407
  113OSM    C1S11705   1.224   0.405  10.507 -0.0841  1.5553  0.1355
  113OSM    H1S11706   1.332   0.429  10.494 -0.1979  2.1312  0.2120
  113OSM    H1T11707   1.182   0.507  10.492  0.5035  1.7371 -0.3369
  113OSM     NF11708   1.207   0.348  10.261 -0.5574  0.1188 -0.8314
  113OSM    HNF11709   1.135   0.377  10.199 -2.5154 -2.1884  0.2178
  113OSM    C2S11710   1.175   0.298  10.397 -0.3293  0.3938  0.3973
  113OSM    H2S11711   1.223   0.204  10.430 -4.3270 -2.6887 -1.6856
  113OSM    C3S11712   1.027   0.263  10.400  0.0448 -0.3947 -0.3728
  113OSM    H3S11713   0.974   0.353  10.360  2.2933  0.9910 -0.4080
  113OSM     O311714   0.971   0.238  10.528 -0.1110 -0.0009  0.4554
  113OSM    HO311715   1.041   0.269  10.585 -1.8046 -1.2262  3.4363
  113OSM    C4S11716   0.986   0.148  10.310 -0.0756 -0.8340  0.7542
  113OSM    H4S11717   1.053   0.061  10.313 -0.3758 -1.0651  0.8130
  113OSM    C5S11718   0.903   0.152  10.212 -0.0223 -0.4522  0.5931
  113OSM    H5S11719   0.871   0.250  10.176  0.5533 -0.5288 -0.1625
  113OSM    C6S11720   0.882   0.035  10.116 -0.0663 -0.3741  0.2773
  113OSM    H6S11721   0.796  -0.026  10.152 -0.5407 -0.8121 -1.4790
  113OSM    H6T11722   0.971  -0.031  10.114  0.0123 -0.2546 -1.0440
  113OSM    C7S11723   0.855   0.100   9.975  0.5143  0.5077 -0.4360
  113OSM    H7S11724   0.939   0.163   9.938 -1.9097  2.8869 -2.3047
  113OSM    H7T11725   0.767   0.166   9.987  1.7068  1.7411  2.6127
  113OSM    C8S11726   0.842  -0.011   9.866 -0.3795 -0.0143 -1.1257
  113OSM    H8S11727   0.753  -0.075   9.883 -0.7132  0.7271 -0.0104
  113OSM    H8T11728   0.934  -0.075   9.870 -0.2938  0.1605  0.1138
  113OSM    C9S11729   0.859   0.040   9.720  0.1866 -0.4447 -0.1808
  113OSM    H9S11730   0.955   0.096   9.724  0.5424 -1.0259 -0.6065
  113OSM    H9T11731   0.781   0.118   9.702  1.4012  0.1457 -3.5083
  113OSM   C10S11732   0.865  -0.062   9.615  0.7984 -0.3864 -0.1653
  113OSM   H10S11733   0.772  -0.120   9.594  0.5662  1.1400 -4.3030
  113OSM   H10T11734   0.951  -0.125   9.647  0.6142  0.2929  1.8219
  113OSM   C11S11735   0.911  -0.008   9.483 -0.3486 -0.5135  0.1836
  113OSM   H11S11736   1.016   0.029   9.476 -0.9637  1.0860 -1.5293
  113OSM   H11T11737   0.861   0.087   9.456 -0.2541 -0.3813  0.4788
  113OSM   C12S11738   0.887  -0.098   9.365  0.5154 -0.1329 -0.2313
  113OSM   H12S11739   0.778  -0.117   9.351  0.7284 -1.6408 -0.0476
  113OSM   H12T11740   0.939  -0.196   9.376 -1.6364 -1.2190  1.0613
  113OSM   C13S11741   0.930  -0.030   9.232 -0.0477  0.2680 -0.6917
  113OSM   H13S11742   1.033   0.014   9.231 -0.7378  1.9980 -0.0077
  113OSM   H13T11743   0.857   0.049   9.204 -0.8262 -0.9488 -2.1575
  113OSM   C14S11744   0.932  -0.125   9.111 -0.1067 -0.0920  0.3905
  113OSM   H14S11745   0.826  -0.136   9.080  0.6751 -0.8549 -2.2654
  113OSM   H14T11746   0.965  -0.227   9.140 -0.0125 -0.0398  0.4662
  113OSM   C15S11747   0.998  -0.064   8.987  0.2677  0.2306 -0.6779
  113OSM   H15S11748   1.005  -0.145   8.910 -0.1023  1.1596 -1.7144
  113OSM   H15T11749   1.098  -0.028   9.020 -0.6222  0.6331  1.7641
  113OSM   C16S11750   0.929   0.061   8.924  0.0734 -0.2297  0.1462
  113OSM   H16S11751   0.894   0.130   9.004  0.2026 -1.8421  1.6530
  113OSM   H16T11752   0.842   0.013   8.875  1.0047 -0.0053 -1.8003
  113OSM   C17S11753   1.010   0.151   8.835  0.2761 -0.1969 -0.7904
  113OSM   H17S11754   0.942   0.216   8.775  0.2852  0.0628 -0.5190
  113OSM   H17T11755   1.081   0.092   8.773  1.1088 -2.0942  1.7827
  113OSM   C18S11756   1.099   0.245   8.915 -0.0405  0.0420 -1.0331
  113OSM   H18S11757   1.158   0.322   8.860 -0.5112  0.8720 -0.4098
  113OSM   H18T11758   1.173   0.182   8.969  0.4655  0.6543 -0.9877
  113OSM   H18U11759   1.039   0.304   8.988 -0.0857 -0.3270 -0.7732
  113OSM    C1F11760   1.333   0.362  10.241 -0.3339 -0.5790  0.3245
  113OSM     OF11761   1.417   0.310  10.316  0.2176  0.2525  0.0374
  113OSM    C2F11762   1.371   0.467  10.136 -0.0474 -0.0473 -0.9256
  113OSM    H2F11763   1.426   0.544  10.194  1.4558 -1.1028 -0.8834
  113OSM    H2G11764   1.278   0.506  10.091 -0.5154 -1.7557 -1.5238
  113OSM    C3F11765   1.462   0.409  10.025  0.1914  0.4475  0.2688
  113OSM    H3F11766   1.410   0.334   9.961  4.0322 -0.4801 -2.0727
  113OSM    H3G11767   1.546   0.355  10.075  1.9266  1.9300 -0.9361
  113OSM    C4F11768   1.493   0.525   9.923  0.9615  0.3058  0.0644
  113OSM    H4F11769   1.566   0.604   9.948  0.6208  0.7211 -0.2260
  113OSM    H4G11770   1.396   0.580   9.918  1.9904  2.3363  1.2603
  113OSM    C5F11771   1.531   0.469   9.785 -0.3787  0.4005 -0.4156
  113OSM    H5F11772   1.452   0.397   9.755 -0.6991  0.5936 -0.0484
  113OSM    H5G11773   1.631   0.420   9.776  0.1329  1.4564 -0.6907
  113OSM    C6F11774   1.537   0.584   9.677 -0.0998  0.3294 -0.0434
  113OSM    H6F11775   1.614   0.652   9.718 -1.3587  0.4750  2.2414
  113OSM    H6G11776   1.449   0.651   9.692 -1.0145 -1.3299  2.6405
  113OSM    C7F11777   1.555   0.531   9.536 -0.5697 -0.4862  0.2997
  113OSM    H7F11778   1.466   0.464   9.524 -0.1977 -0.7544 -1.1878
  113OSM    H7G11779   1.650   0.474   9.529 -0.8555 -0.9046 -0.3322
  113OSM    C8F11780   1.543   0.635   9.427 -0.8921 -0.2489  1.0283
  113OSM    H8F11781   1.634   0.699   9.433  0.2379 -1.1624 -3.1494
  113OSM    H8G11782   1.455   0.701   9.439 -0.0866  0.8906  0.8906
  113OSM    C9F11783   1.544   0.575   9.287 -0.5982 -0.0008 -0.0989
  113OSM    H9F11784   1.448   0.533   9.253  0.1100 -2.2176  0.4642
  113OSM   C10F11785   1.644   0.580   9.193 -0.2102  0.6760 -0.4284
  113OSM   H10F11786   1.621   0.536   9.095  0.6668 -0.2046 -0.2497
  113OSM   C11F11787   1.776   0.640   9.207 -0.2064  0.3978  0.2997
  113OSM   H11F11788   1.804   0.650   9.314 -0.9543  1.7641  0.3961
  113OSM   H11G11789   1.756   0.744   9.173  0.9344  1.0477  1.5292
  113OSM   C12F11790   1.875   0.569   9.115 -0.1226  0.0151  0.3415
  113OSM   H12F11791   1.830   0.586   9.014  0.3987  0.7845  0.2330
  113OSM   H12G11792   1.880   0.459   9.133  1.5863  0.1898  1.0898
  113OSM   C13F11793   2.014   0.626   9.138 -0.5545 -0.4114 -0.7799
  113OSM   H13F11794   2.048   0.601   9.241  2.0174  2.4312 -0.7847
  113OSM   H13G11795   2.017   0.737   9.140  0.9848 -0.4289  0.4081
  113OSM   C14F11796   2.120   0.571   9.052  0.4122 -0.6920 -0.5635
  113OSM   H14F11797   2.131   0.461   9.054 -1.0646 -0.8460  0.3064
  113OSM   H14G11798   2.217   0.610   9.090  0.6080 -2.1262  0.4603
  113OSM   C15F11799   2.102   0.610   8.903  0.4086 -0.3472 -0.1433
  113OSM   H15F11800   2.084   0.720   8.906 -1.2137 -0.5890 -0.3297
  113OSM   H15G11801   2.011   0.561   8.861  1.3478 -1.8318 -0.5217
  113OSM   C16F11802   2.227   0.595   8.816  0.1718 -0.0383 -0.2490
  113OSM   H16F11803   2.240   0.484   8.811 -2.6925 -0.6780  3.0218
  113OSM   H16G11804   2.317   0.642   8.859 -2.4775  2.9342  2.5815
  113OSM   C17F11805   2.206   0.641   8.673  0.0080 -0.1886 -0.7414
  113OSM   H17F11806   2.186   0.750   8.688 -1.7544 -0.3846 -1.3791
  113OSM   H17G11807   2.111   0.591   8.644 -0.7367  0.6975  0.0651
  113OSM   C18F11808   2.317   0.604   8.579 -0.3483 -0.3205 -0.4393
  113OSM   H18F11809   2.412   0.647   8.615 -1.1910  1.0619  0.2268
  113OSM   H18G11810   2.296   0.650   8.480  0.6181  0.2262 -0.3984
  113OSM   H18H11811   2.338   0.495   8.575  0.1690 -0.3168  1.3951
  114OSM      N11812   1.945   2.849  11.497  0.2104  0.1907 -0.1853
  114OSM    C1511813   1.909   2.943  11.386  0.6509 -0.0485 -0.4884
  114OSM   H15A11814   1.976   3.027  11.384  2.3899 -1.3747 -0.1177
  114OSM   H15B11815   1.805   2.971  11.401  0.6423 -0.5399  0.4789
  114OSM   H15C11816   1.911   2.902  11.286  0.8131 -0.1191 -0.4553
  114OSM    C1411817   2.093   2.839  11.496 -0.4258  0.3080  0.1172
  114OSM   H14A11818   2.122   2.792  11.404  1.3363  1.0392  0.2637
  114OSM   H14B11819   2.140   2.786  11.578  0.5733  0.8487 -0.0975
  114OSM   H14C11820   2.136   2.937  11.501  0.4351 -0.0831  0.6733
  114OSM    C1311821   1.911   2.915  11.632 -0.6153 -0.2114  0.1525
  114OSM   H13A11822   1.957   2.857  11.711 -0.3793  1.6062  1.4155
  114OSM   H13B11823   1.803   2.924  11.640 -0.6614 -0.0425 -0.6003
  114OSM   H13C11824   1.956   3.012  11.646 -0.3695 -0.4019  0.7197
  114OSM    C1211825   1.886   2.710  11.489  0.1277 -0.3747 -0.1559
  114OSM   H12A11826   1.782   2.721  11.512  0.4290 -0.3443  1.2941
  114OSM   H12B11827   1.936   2.658  11.569  1.0284  2.8130  1.5048
  114OSM    C1111828   1.904   2.621  11.359 -0.2329 -0.0896  0.3324
  114OSM   H11A11829   1.880   2.514  11.376 -0.7293 -0.4078 -2.0566
  114OSM   H11B11830   2.013   2.611  11.344 -0.4303 -0.9849 -0.6083
  114OSM      P11831   1.686   2.684  11.250 -0.1548 -0.1685  0.0214
  114OSM    O1311832   1.633   2.600  11.360  0.9095  0.1415  0.0506
  114OSM    O1411833   1.638   2.821  11.256  0.0575 -0.4723 -0.0750
  114OSM    O1111834   1.635   2.622  11.116  0.2497 -0.4652 -0.1923
  114OSM    O1211835   1.841   2.671  11.240 -0.0575  0.0264 -0.0937
  114OSM    C1S11836   1.691   2.669  10.997  0.3354 -0.2617 -0.3738
  114OSM    H1S11837   1.800   2.650  10.986  0.2025 -0.2492 -1.9159
  114OSM    H1T11838   1.672   2.778  10.982 -2.5316 -0.5763  0.4085
  114OSM     NF11839   1.690   2.669  10.756  0.5201  0.1464 -0.0164
  114OSM    HNF11840   1.628   2.716  10.694  0.2035  0.1161  0.2787
  114OSM    C2S11841   1.635   2.593  10.874  0.3148  0.5352  0.1062
  114OSM    H2S11842   1.673   2.488  10.872 -0.5683  0.1878 -2.8559
  114OSM    C3S11843   1.478   2.596  10.877 -0.8997  0.0030  0.1876
  114OSM    H3S11844   1.432   2.698  10.872 -0.9499  0.0608  1.5199
  114OSM     O311845   1.416   2.546  10.994  0.4478  0.0860 -0.4567
  114OSM    HO311846   1.484   2.558  11.061 -0.0896 -1.3454  0.3748
  114OSM    C4S11847   1.423   2.533  10.754 -0.1527  0.1575  0.3739
  114OSM    H4S11848   1.396   2.603  10.674  0.7585 -2.1398 -2.1135
  114OSM    C5S11849   1.406   2.400  10.736 -0.1398 -0.6190  0.3652
  114OSM    H5S11850   1.430   2.334  10.820  1.1240 -0.8022 -0.1148
  114OSM    C6S11851   1.355   2.333  10.610 -0.1336 -0.5951 -0.0169
  114OSM    H6S11852   1.244   2.332  10.616 -0.1279 -1.2867  0.0045
  114OSM    H6T11853   1.382   2.225  10.616 -0.5249 -0.6865  0.1744
  114OSM    C7S11854   1.391   2.396  10.477 -0.2916  0.3669  0.5186
  114OSM    H7S11855   1.363   2.504  10.478  1.3336  0.8200 -0.0273
  114OSM    H7T11856   1.339   2.344  10.394  0.1791  1.6575 -0.6260
  114OSM    C8S11857   1.539   2.392  10.445  0.1152 -0.2272  0.3895
  114OSM    H8S11858   1.577   2.292  10.413  0.2101  0.1373 -0.6796
  114OSM    H8T11859   1.594   2.422  10.537 -0.2822  0.5826  0.3638
  114OSM    C9S11860   1.583   2.483  10.327  0.2238 -0.1071  0.6641
  114OSM    H9S11861   1.693   2.473  10.315  0.4212  0.5706  1.6951
  114OSM    H9T11862   1.550   2.587  10.351 -2.1256 -0.6802  0.1494
  114OSM   C10S11863   1.511   2.444  10.196  0.8888  1.1505  0.5438
  114OSM   H10S11864   1.401   2.451  10.216  0.8920  0.0132  1.0577
  114OSM   H10T11865   1.534   2.338  10.171 -1.6039  1.2404 -2.8333
  114OSM   C11S11866   1.544   2.531  10.068 -0.4740  0.3396  0.2626
  114OSM   H11S11867   1.655   2.526  10.059 -0.6062 -1.5953 -1.0092
  114OSM   H11T11868   1.514   2.637  10.065  1.3285  0.9732 -4.6933
  114OSM   C12S11869   1.476   2.456   9.947  0.7025 -0.1250 -0.5040
  114OSM   H12S11870   1.365   2.452   9.941  0.6612  0.7446 -0.3742
  114OSM   H12T11871   1.512   2.351   9.956 -1.2421 -0.8536 -0.7592
  114OSM   C13S11872   1.524   2.511   9.818  0.2072  0.0230  0.4493
  114OSM   H13S11873   1.635   2.503   9.812  0.1008 -0.8644 -0.7152
  114OSM   H13T11874   1.512   2.620   9.803  0.2744 -0.2603 -2.2173
  114OSM   C14S11875   1.476   2.426   9.699  0.0994 -0.2262 -0.1153
  114OSM   H14S11876   1.366   2.415   9.696  0.1878 -1.2546 -0.1787
  114OSM   H14T11877   1.513   2.321   9.705  0.3269 -0.0658  1.5802
  114OSM   C15S11878   1.495   2.489   9.560  0.0805 -0.2578  0.0159
  114OSM   H15S11879   1.601   2.520   9.553  0.8782 -2.4974  1.1029
  114OSM   H15T11880   1.433   2.581   9.556  4.1875  2.7778  0.0909
  114OSM   C16S11881   1.459   2.397   9.448  0.1573  0.6956  0.2155
  114OSM   H16S11882   1.351   2.376   9.464 -0.6069  3.3873 -0.7355
  114OSM   H16T11883   1.525   2.308   9.446  1.0871  1.3731 -1.2432
  114OSM   C17S11884   1.477   2.476   9.317  0.1747 -1.0169  0.4804
  114OSM   H17S11885   1.571   2.534   9.334 -0.5465 -0.5473  3.5139
  114OSM   H17T11886   1.402   2.557   9.306 -0.5304 -1.9680 -2.4342
  114OSM   C18S11887   1.486   2.394   9.191  0.5180  0.9862  0.1847
  114OSM   H18S11888   1.508   2.467   9.111 -0.8208  4.9320  3.1192
  114OSM   H18T11889   1.386   2.348   9.171  0.9061  0.0465  0.3272
  114OSM   H18U11890   1.567   2.318   9.202 -0.1257  0.3468  0.6436
  114OSM    C1F11891   1.811   2.664  10.706  0.0711  0.6963 -0.0826
  114OSM     OF11892   1.898   2.590  10.746 -0.5043 -0.2583 -0.4860
  114OSM    C2F11893   1.843   2.753  10.592  0.5205 -0.3414  0.3568
  114OSM    H2F11894   1.905   2.839  10.625 -1.2184  1.3140 -0.4524
  114OSM    H2G11895   1.752   2.791  10.539  2.5924  2.7341 -1.3314
  114OSM    C3F11896   1.918   2.675  10.484  0.3214 -0.2139  0.0567
  114OSM    H3F11897   1.852   2.594  10.447  1.4531 -0.9234 -0.4439
  114OSM    H3G11898   2.012   2.632  10.525  2.1097  1.9728 -1.4980
  114OSM    C4F11899   1.951   2.761  10.360 -0.4194  0.9959 -0.0927
  114OSM    H4F11900   2.048   2.720  10.325 -0.3651 -2.0891  3.1013
  114OSM    H4G11901   1.958   2.864  10.401  1.3259  0.6260  0.6135
  114OSM    C5F11902   1.839   2.762  10.265  0.5161 -0.5052  0.2937
  114OSM    H5F11903   1.751   2.815  10.307 -0.8275 -0.6869 -2.0977
  114OSM    H5G11904   1.821   2.655  10.240  1.4142 -0.2233 -1.7881
  114OSM    C6F11905   1.876   2.816  10.127  0.0473 -0.0282 -0.4237
  114OSM    H6F11906   1.904   2.923  10.133  2.0896 -0.5065 -0.6032
  114OSM    H6G11907   1.786   2.828  10.063 -0.7075 -1.0886  0.3867
  114OSM    C7F11908   1.991   2.741  10.062 -0.5327 -1.1179 -0.2007
  114OSM    H7F11909   1.983   2.634  10.089 -0.3899 -0.8743  0.8693
  114OSM    H7G11910   2.087   2.765  10.113 -0.6908 -0.5734 -0.1557
  114OSM    C8F11911   1.998   2.742   9.912 -0.2775 -0.0860 -0.3724
  114OSM    H8F11912   1.900   2.715   9.868 -0.5959 -0.9196  0.8104
  114OSM    H8G11913   2.068   2.667   9.868 -1.0968 -0.4943 -0.9955
  114OSM    C9F11914   2.028   2.887   9.876  0.3796 -0.4183 -0.0996
  114OSM    H9F11915   2.109   2.924   9.941  0.6547  0.2278 -0.8058
  114OSM   C10F11916   1.984   2.955   9.770 -0.0107 -0.1291 -0.3168
  114OSM   H10F11917   2.023   3.056   9.750  0.9440 -0.6474 -1.1546
  114OSM   C11F11918   1.905   2.901   9.658 -0.1946  0.9723  0.6798
  114OSM   H11F11919   1.842   2.980   9.614  1.0509  1.5136 -0.2015
  114OSM   H11G11920   1.843   2.818   9.697 -0.1914 -0.6319 -2.4194
  114OSM   C12F11921   1.977   2.824   9.542 -0.4876 -0.0943  0.6494
  114OSM   H12F11922   2.037   2.737   9.579 -0.0079 -0.1108 -0.1400
  114OSM   H12G11923   2.050   2.890   9.490  0.9518  1.1137  3.9530
  114OSM   C13F11924   1.877   2.776   9.437  1.3904 -0.5224 -0.4313
  114OSM   H13F11925   1.815   2.857   9.394 -2.4264 -2.1448  1.5804
  114OSM   H13G11926   1.798   2.714   9.484  0.7667  1.1470  0.8166
  114OSM   C14F11927   1.945   2.699   9.324 -0.2117  0.2480  0.3812
  114OSM   H14F11928   1.992   2.606   9.360 -0.0329  0.9239  1.9540
  114OSM   H14G11929   2.021   2.773   9.288  0.5441  0.2538  1.9283
  114OSM   C15F11930   1.843   2.671   9.215 -0.2219 -0.2502  0.4811
  114OSM   H15F11931   1.791   2.762   9.179  1.2911  0.6457  0.4788
  114OSM   H15G11932   1.767   2.598   9.251 -0.1680 -0.0666  0.9720
  114OSM   C16F11933   1.900   2.606   9.084  0.1028 -0.5474  0.1201
  114OSM   H16F11934   1.948   2.511   9.116 -0.7277 -1.1818 -0.4741
  114OSM   H16G11935   1.971   2.681   9.042  1.6060 -1.6056  0.6824
  114OSM   C17F11936   1.801   2.597   8.972  0.5370 -0.0039  0.3145
  114OSM   H17F11937   1.762   2.693   8.933 -1.1696 -0.6396  0.3681
  114OSM   H17G11938   1.725   2.529   9.015 -0.6913  1.3271  0.3197
  114OSM   C18F11939   1.852   2.511   8.842 -0.0702 -0.6291  0.1151
  114OSM   H18F11940   1.951   2.538   8.798 -0.1696 -0.5140 -0.0400
  114OSM   H18G11941   1.782   2.509   8.756  1.4299 -1.5320 -1.1529
  114OSM   H18H11942   1.873   2.409   8.879  1.7914  0.1727  1.4496
  115OSM      N11943   4.254   3.678   6.133  0.1378  0.1979 -0.0229
  115OSM    C1511944   4.167   3.605   6.228  0.2512 -0.2727  0.4415
  115OSM   H15A11945   4.191   3.500   6.226 -1.1442 -0.5944 -0.0681
  115OSM   H15B11946   4.064   3.628   6.205 -0.4267 -1.5847  1.9480
  115OSM   H15C11947   4.183   3.643   6.328 -1.3928 -0.2952  0.7296
  115OSM    C1411948   4.215   3.645   5.990  0.3779  0.0110  0.1082
  115OSM   H14A11949   4.113   3.660   5.958  0.9235  1.7665 -0.9912
  115OSM   H14B11950   4.242   3.545   5.962  1.1710  0.3638 -0.4336
  115OSM   H14C11951   4.273   3.715   5.932  1.4096 -1.1333 -0.2673
  115OSM    C1311952   4.228   3.823   6.151 -0.7859 -0.1656  0.0674
  115OSM   H13A11953   4.123   3.845   6.150 -0.2586  2.8920  0.7192
  115OSM   H13B11954   4.290   3.887   6.089 -0.3008  0.0454  0.7570
  115OSM   H13C11955   4.237   3.858   6.252 -0.8492 -0.0225  0.0239
  115OSM    C1211956   4.405   3.642   6.154  0.1863 -0.3142  1.1692
  115OSM   H12A11957   4.415   3.534   6.153  0.3620 -0.2924  0.5868
  115OSM   H12B11958   4.431   3.666   6.256 -0.1903 -1.9477  1.6800
  115OSM    C1111959   4.504   3.698   6.044  0.6424 -0.3509 -0.4460
  115OSM   H11A11960   4.489   3.657   5.942 -0.4470  2.6249 -1.5978
  115OSM   H11B11961   4.608   3.670   6.072 -0.3310 -3.0482  0.8380
  115OSM      P11962   4.615   3.940   6.079  0.1070 -0.0005  0.5747
  115OSM    O1311963   4.731   3.900   5.990 -0.1613 -0.2387 -0.7391
  115OSM    O1411964   4.563   4.079   6.072 -0.1458  0.3689  0.1619
  115OSM    O1111965   4.660   3.906   6.226 -0.7241 -0.2012 -0.0853
  115OSM    O1211966   4.494   3.843   6.039  0.3994 -0.5594  0.1491
  115OSM    C1S11967   4.570   3.893   6.340 -0.7321  0.0108 -0.2653
  115OSM    H1S11968   4.470   3.858   6.306 -0.4599  0.6911 -1.8458
  115OSM    H1T11969   4.564   3.991   6.393 -1.3248  0.7689 -1.6546
  115OSM     NF11970   4.531   3.780   6.550  1.0738 -0.1934  0.3046
  115OSM    HNF11971   4.566   3.831   6.629  0.4445  2.1518 -0.8211
  115OSM    C2S11972   4.625   3.790   6.443 -0.0770  0.1091  0.2625
  115OSM    H2S11973   4.633   3.696   6.384  0.9681  1.4899 -1.9462
  115OSM    C3S11974   4.775   3.821   6.492 -0.1195 -0.0643 -0.4617
  115OSM    H3S11975   4.768   3.917   6.547 -0.1092 -1.3056  1.8276
  115OSM     O311976   4.871   3.834   6.389 -0.1281 -0.0265  0.3869
  115OSM    HO311977   4.815   3.855   6.314 -0.1994 -0.1613  0.4020
  115OSM    C4S11978   4.813   3.711   6.588 -0.1799 -0.1070  0.4362
  115OSM    H4S11979   4.793   3.611   6.548 -1.3009 -1.6440  4.4251
  115OSM    C5S11980   4.872   3.721   6.710  0.8000  0.7232 -0.7870
  115OSM    H5S11981   4.887   3.820   6.756 -0.5315  0.3829  0.4683
  115OSM    C6S11982   4.895   3.597   6.796 -0.2242 -0.1608 -0.0159
  115OSM    H6S11983   5.002   3.573   6.810  0.2048  1.7064  0.1912
  115OSM    H6T11984   4.834   3.508   6.770  0.9666 -0.8627 -0.5197
  115OSM    C7S11985   4.860   3.640   6.939  0.4216  0.4781  0.0182
  115OSM    H7S11986   4.753   3.669   6.942 -0.1764 -1.6094  1.2643
  115OSM    H7T11987   4.914   3.726   6.983  1.1936 -0.4701  0.9658
  115OSM    C8S11988   4.886   3.511   7.028  0.4024 -0.5201 -0.8509
  115OSM    H8S11989   4.982   3.464   7.000  0.4679 -0.3605 -0.8956
  115OSM    H8T11990   4.817   3.434   6.988  0.4162 -0.5147 -0.8846
  115OSM    C9S11991   4.878   3.537   7.176 -0.5399  0.0614 -0.1217
  115OSM    H9S11992   4.937   3.625   7.209 -1.2619  1.3341 -2.0967
  115OSM    H9T11993   4.923   3.452   7.232 -0.3184 -0.6243 -1.3024
  115OSM   C10S11994   4.733   3.548   7.236  0.4840  0.1315  0.3301
  115OSM   H10S11995   4.685   3.464   7.181  2.3327  0.9643 -2.8182
  115OSM   H10T11996   4.683   3.640   7.199 -0.3077 -0.6699 -0.6669
  115OSM   C11S11997   4.724   3.528   7.385 -0.6551 -0.0548 -0.7226
  115OSM   H11S11998   4.768   3.428   7.405 -0.1054  0.4673  0.7952
  115OSM   H11T11999   4.617   3.519   7.414  0.1852 -1.0859  2.5119
  115OSM   C12S12000   4.767   3.640   7.473 -0.7236 -0.4956 -0.0055
  115OSM   H12S12001   4.703   3.723   7.436 -0.3065 -1.6679 -3.7472
  115OSM   H12T12002   4.872   3.674   7.461  0.1706 -1.6837  3.2115
  115OSM   C13S12003   4.746   3.608   7.627 -0.3930 -0.0198 -0.0604
  115OSM   H13S12004   4.817   3.528   7.657 -0.8860 -0.4061  0.0894
  115OSM   H13T12005   4.639   3.584   7.643  0.0064 -1.2884  0.9223
  115OSM   C14S12006   4.782   3.736   7.708 -0.1035 -1.1377  0.8362
  115OSM   H14S12007   4.735   3.726   7.809 -0.4269 -1.1465  0.6863
  115OSM   H14T12008   4.738   3.829   7.668  1.0489 -1.1082 -0.4049
  115OSM   C15S12009   4.939   3.760   7.733 -0.4867 -0.2323  0.1431
  115OSM   H15S12010   4.977   3.826   7.652  0.3151  0.2204  0.8708
  115OSM   H15T12011   5.002   3.669   7.716  1.3826  1.3070 -1.7212
  115OSM   C16S12012   4.971   3.836   7.875  0.7325  0.2354  0.3856
  115OSM   H16S12013   4.916   3.932   7.878  0.3248  0.0150  0.0286
  115OSM   H16T12014   5.078   3.866   7.868  0.6625  0.7299  1.2311
  115OSM   C17S12015   4.955   3.751   8.000 -0.0287  0.2035 -0.2016
  115OSM   H17S12016   5.017   3.659   8.003  3.2386  2.2748  0.6871
  115OSM   H17T12017   4.846   3.731   8.007 -0.4713  2.6590  1.0947
  115OSM   C18S12018   5.003   3.817   8.125 -0.2592 -0.2506  0.2406
  115OSM   H18S12019   4.978   3.762   8.219  1.0813 -2.2370 -0.5023
  115OSM   H18T12020   4.964   3.921   8.130  1.2261  0.4286 -1.4752
  115OSM   H18U12021   5.114   3.814   8.125 -0.2631 -0.5516 -0.2804
  115OSM    C1F12022   4.404   3.730   6.536 -0.3033 -0.4294  0.4455
  115OSM     OF12023   4.380   3.651   6.448  0.0710  0.1981 -0.0038
  115OSM    C2F12024   4.308   3.770   6.641 -0.3400  0.3424  0.1400
  115OSM    H2F12025   4.273   3.874   6.628  0.1883  0.6219  0.9270
  115OSM    H2G12026   4.349   3.769   6.744 -1.8492 -0.4158  0.7727
  115OSM    C3F12027   4.185   3.679   6.652  0.5655 -0.2336  0.1219
  115OSM    H3F12028   4.215   3.572   6.663  2.2799  0.1065 -0.8974
  115OSM    H3G12029   4.121   3.691   6.562 -2.8892  1.3030  2.5865
  115OSM    C4F12030   4.093   3.721   6.773  0.0664  0.8965  0.2562
  115OSM    H4F12031   4.039   3.815   6.749 -0.5400  0.4123 -0.3374
  115OSM    H4G12032   4.169   3.734   6.853 -0.4082 -4.0323  1.8508
  115OSM    C5F12033   3.987   3.617   6.810  0.2281 -0.0084  0.5875
  115OSM    H5F12034   4.051   3.529   6.834 -2.6765 -2.2413  0.6972
  115OSM    H5G12035   3.916   3.612   6.725 -0.2370  0.9201  0.9045
  115OSM    C6F12036   3.903   3.659   6.933 -0.3429 -0.0984  0.7316
  115OSM    H6F12037   3.826   3.579   6.934 -1.5116  0.9665 -0.0928
  115OSM    H6G12038   3.852   3.755   6.908 -0.0003  0.0914  0.7556
  115OSM    C7F12039   3.978   3.665   7.063  0.3261  0.0624 -0.0596
  115OSM    H7F12040   4.067   3.731   7.052 -1.0077  2.2736  1.5044
  115OSM    H7G12041   4.023   3.564   7.072  0.5356  0.1146 -0.5095
  115OSM    C8F12042   3.889   3.685   7.189 -0.0576  0.7823  0.1400
  115OSM    H8F12043   3.954   3.642   7.267 -0.4229 -0.1249 -0.0316
  115OSM    H8G12044   3.809   3.608   7.174  1.3132 -0.5968 -0.3436
  115OSM    C9F12045   3.844   3.823   7.203 -0.5012  0.5360 -0.5014
  115OSM    H9F12046   3.809   3.863   7.107  1.1299 -0.1716 -1.4208
  115OSM   C10F12047   3.838   3.897   7.320  0.4831 -0.6895 -0.0298
  115OSM   H10F12048   3.788   3.995   7.314 -0.9479 -1.3342  0.9446
  115OSM   C11F12049   3.886   3.853   7.456  0.7189  0.1576  0.3434
  115OSM   H11F12050   3.955   3.932   7.492  1.4412  0.1590 -0.9682
  115OSM   H11G12051   3.947   3.760   7.451  1.6040  0.6072  2.1949
  115OSM   C12F12052   3.768   3.842   7.549 -0.3114 -0.1639  0.2666
  115OSM   H12F12053   3.702   3.760   7.513 -0.6454  0.1364  0.1862
  115OSM   H12G12054   3.706   3.934   7.558 -0.2905  0.0765 -1.6430
  115OSM   C13F12055   3.822   3.798   7.692  0.1315  0.3329  0.3524
  115OSM   H13F12056   3.858   3.693   7.687  2.9534  1.1471  1.5140
  115OSM   H13G12057   3.742   3.802   7.769  1.1262 -1.1189  1.5254
  115OSM   C14F12058   3.937   3.883   7.754  0.6762  0.1850 -0.1527
  115OSM   H14F12059   3.905   3.989   7.767  0.8761  0.2899 -0.5109
  115OSM   H14G12060   4.031   3.874   7.695  1.5787  0.1006  1.2332
  115OSM   C15F12061   3.976   3.843   7.903  0.4572 -0.1498  0.5268
  115OSM   H15F12062   4.013   3.738   7.905 -0.2061 -0.3819  1.2025
  115OSM   H15G12063   3.887   3.855   7.969 -0.5163 -2.3606 -0.2629
  115OSM   C16F12064   4.081   3.939   7.961 -0.1499  0.4069  0.1758
  115OSM   H16F12065   4.057   4.045   7.936  1.7325  1.1779  1.4399
  115OSM   H16G12066   4.174   3.926   7.901  0.7672  0.4688  1.5438
  115OSM   C17F12067   4.110   3.911   8.110 -0.1486  0.7967  0.1606
  115OSM   H17F12068   4.174   3.997   8.138 -0.3174  1.8499 -2.4353
  115OSM   H17G12069   4.174   3.821   8.098  0.2274  0.9316  1.1030
  115OSM   C18F12070   3.990   3.896   8.203 -0.3463  0.2656 -0.3055
  115OSM   H18F12071   4.023   3.911   8.308  1.7351  0.6689 -0.9805
  115OSM   H18G12072   3.935   3.800   8.189 -1.4720  1.2069 -3.3879
  115OSM   H18H12073   3.914   3.972   8.171 -0.7019  0.1866  0.3288
  116OSM      N12074   1.531   1.428   6.276  0.1592 -0.1720 -0.8569
  116OSM    C1512075   1.493   1.575   6.263 -0.3380 -0.4489 -0.1950
  116OSM   H15A12076   1.532   1.621   6.173 -1.8028  2.9681  0.7651
  116OSM   H15B12077   1.545   1.647   6.324 -2.1808  1.4315 -0.7282
  116OSM   H15C12078   1.386   1.587   6.268 -0.1066  3.3795 -1.3135
  116OSM    C1412079   1.484   1.345   6.167  0.3003  0.1961  0.3665
  116OSM   H14A12080   1.535   1.374   6.076 -0.4771 -0.9045 -0.4410
  116OSM   H14B12081   1.379   1.366   6.156  0.3840  0.3957 -0.0617
  116OSM   H14C12082   1.497   1.240   6.187 -0.3675  0.2513  1.1671
  116OSM    C1312083   1.682   1.428   6.285  0.0704  0.0788  0.8141
  116OSM   H13A12084   1.732   1.468   6.199 -3.4355  2.3279 -0.3988
  116OSM   H13B12085   1.717   1.327   6.301 -0.3898  0.1334  2.3978
  116OSM   H13C12086   1.720   1.487   6.367 -0.4053  1.0515  0.3502
  116OSM    C1212087   1.476   1.389   6.408 -0.2420  0.4981  0.1565
  116OSM   H12A12088   1.517   1.459   6.480 -1.3681  1.5406 -0.1937
  116OSM   H12B12089   1.520   1.293   6.433 -1.7359 -0.8291 -2.0392
  116OSM    C1112090   1.329   1.383   6.421 -0.3131  0.2591  0.1384
  116OSM   H11A12091   1.279   1.469   6.371  1.6605  0.8299 -0.9623
  116OSM   H11B12092   1.297   1.381   6.527 -0.1994 -2.0204  0.1736
  116OSM      P12093   1.292   1.132   6.400  0.2037  0.4786  0.1484
  116OSM    O1312094   1.204   1.048   6.317  0.0430  0.2127  0.4526
  116OSM    O1412095   1.438   1.096   6.389  0.2750  0.3540  0.0581
  116OSM    O1112096   1.242   1.121   6.552  0.0609 -0.4417 -0.1027
  116OSM    O1212097   1.261   1.276   6.360 -0.2774  0.1759  0.0096
  116OSM    C1S12098   1.120   1.187   6.589  0.4750  0.5541  0.2872
  116OSM    H1S12099   1.030   1.126   6.563  1.5162 -2.8070  3.6262
  116OSM    H1T12100   1.110   1.289   6.546  3.1254  0.8654  0.2719
  116OSM     NF12101   0.978   1.276   6.773  0.7669  0.2859  0.6587
  116OSM    HNF12102   0.964   1.374   6.771 -1.0367  0.0763  1.2798
  116OSM    C2S12103   1.110   1.216   6.742  0.0424  0.6726  0.2995
  116OSM    H2S12104   1.130   1.117   6.790  1.3341 -0.8161 -3.0335
  116OSM    C3S12105   1.226   1.312   6.790 -0.2937  0.4345  0.6673
  116OSM    H3S12106   1.205   1.407   6.737  0.5807 -0.4248 -1.3290
  116OSM     O312107   1.365   1.277   6.760  0.5156 -0.3848 -0.3783
  116OSM    HO312108   1.345   1.207   6.698 -2.6280  1.1524 -1.3332
  116OSM    C4S12109   1.230   1.317   6.938  0.2927  0.5556  0.4184
  116OSM    H4S12110   1.248   1.229   7.001 -0.2798  1.1392  1.4330
  116OSM    C5S12111   1.219   1.431   7.008  0.3897 -0.0932  0.8478
  116OSM    H5S12112   1.186   1.523   6.957 -0.0741 -0.3940  0.5928
  116OSM    C6S12113   1.217   1.447   7.155  0.3457  0.2614  0.4269
  116OSM    H6S12114   1.301   1.513   7.187 -0.0478  1.2854 -0.5896
  116OSM    H6T12115   1.222   1.346   7.201  0.2528 -0.2119 -0.5798
  116OSM    C7S12116   1.088   1.520   7.196 -0.4634  0.7558  0.2328
  116OSM    H7S12117   1.071   1.621   7.154 -1.4389 -1.3958 -5.4261
  116OSM    H7T12118   1.092   1.543   7.305 -2.4358 -2.5600  1.1915
  116OSM    C8S12119   0.972   1.432   7.158 -0.0926  0.3155  0.2531
  116OSM    H8S12120   1.003   1.327   7.176 -2.9343 -0.8752 -1.2811
  116OSM    H8T12121   0.949   1.435   7.050  1.7251 -0.1905 -0.1885
  116OSM    C9S12122   0.852   1.442   7.244 -0.1885  0.3953  0.5558
  116OSM    H9S12123   0.764   1.413   7.183 -0.1202  0.2957  0.5052
  116OSM    H9T12124   0.830   1.550   7.260  1.6916  0.7442  1.0339
  116OSM   C10S12125   0.855   1.368   7.380 -0.5136 -0.4074  0.1432
  116OSM   H10S12126   0.922   1.439   7.434 -1.0046  0.3892 -0.2759
  116OSM   H10T12127   0.892   1.264   7.370  2.1186  0.5088 -0.5183
  116OSM   C11S12128   0.707   1.371   7.440 -0.2972 -0.3176  0.7460
  116OSM   H11S12129   0.647   1.309   7.370 -0.3732  0.5417  0.0283
  116OSM   H11T12130   0.671   1.476   7.435 -1.8752 -0.8451  0.4607
  116OSM   C12S12131   0.680   1.321   7.583 -0.0869  0.2077 -0.2087
  116OSM   H12S12132   0.715   1.392   7.660 -2.0633  0.3475  0.6205
  116OSM   H12T12133   0.726   1.220   7.596  1.5077  0.7819 -1.1227
  116OSM   C13S12134   0.525   1.303   7.606  0.5080  0.0614 -0.0630
  116OSM   H13S12135   0.486   1.247   7.519 -1.9391  1.2243  0.2116
  116OSM   H13T12136   0.479   1.404   7.600  0.9920  0.3344  0.6625
  116OSM   C14S12137   0.493   1.232   7.740  0.3785 -0.3026 -0.3982
  116OSM   H14S12138   0.392   1.188   7.726  0.2847 -0.7445  1.3881
  116OSM   H14T12139   0.487   1.310   7.819 -0.8970  1.5566 -2.2158
  116OSM   C15S12140   0.582   1.113   7.783 -0.2814  0.4025 -0.4206
  116OSM   H15S12141   0.683   1.150   7.811 -0.3761 -1.3319  2.5800
  116OSM   H15T12142   0.603   1.043   7.699  3.1423  3.2911 -2.2604
  116OSM   C16S12143   0.515   1.045   7.904  0.4795  0.8061 -0.1572
  116OSM   H16S12144   0.414   1.016   7.871 -0.1327  0.3695  1.9527
  116OSM   H16T12145   0.499   1.119   7.986  0.8826 -0.2231  0.8840
  116OSM   C17S12146   0.585   0.922   7.958 -0.4883 -0.0469  0.0835
  116OSM   H17S12147   0.679   0.952   8.010 -1.8415  0.6374  2.2855
  116OSM   H17T12148   0.627   0.859   7.876  0.2843  0.2983  0.2077
  116OSM   C18S12149   0.489   0.858   8.065 -0.3841 -0.0927 -0.1718
  116OSM   H18S12150   0.542   0.774   8.114  1.8902  0.9190 -0.7838
  116OSM   H18T12151   0.395   0.821   8.019 -0.3293 -0.5289  0.0588
  116OSM   H18U12152   0.452   0.925   8.146  0.6572 -1.3535  1.4028
  116OSM    C1F12153   0.865   1.204   6.769 -0.4307 -0.1239 -0.3299
  116OSM     OF12154   0.869   1.083   6.774  0.0573  0.5581 -0.4848
  116OSM    C2F12155   0.730   1.284   6.767  0.7218 -0.6232 -0.1564
  116OSM    H2F12156   0.655   1.216   6.722  1.0932  0.9524 -3.3974
  116OSM    H2G12157   0.743   1.375   6.705  0.4531 -1.3826 -1.3710
  116OSM    C3F12158   0.690   1.316   6.915 -0.0272  0.5816 -0.1072
  116OSM    H3F12159   0.770   1.380   6.957 -0.4887  0.6563  0.6663
  116OSM    H3G12160   0.691   1.222   6.975 -1.0848 -0.2654 -1.3518
  116OSM    C4F12161   0.560   1.388   6.921 -0.0045  0.7969 -0.5215
  116OSM    H4F12162   0.478   1.336   6.868  0.2444 -1.0594  0.8246
  116OSM    H4G12163   0.566   1.484   6.866 -1.1988  2.4997  2.0919
  116OSM    C5F12164   0.525   1.409   7.070  0.7017 -0.0068  0.6556
  116OSM    H5F12165   0.590   1.492   7.103  0.0362  1.0387 -0.5466
  116OSM    H5G12166   0.536   1.314   7.127  0.2282 -0.4228  0.0717
  116OSM    C6F12167   0.389   1.472   7.086  0.6425 -0.1465  0.9534
  116OSM    H6F12168   0.315   1.399   7.049  0.2650  0.2058  1.0046
  116OSM    H6G12169   0.384   1.563   7.023 -0.6626  0.2278  1.5657
  116OSM    C7F12170   0.354   1.504   7.232 -0.2894  0.1576  0.0371
  116OSM    H7F12171   0.383   1.413   7.290 -2.5117 -0.1615  0.7439
  116OSM    H7G12172   0.244   1.508   7.244 -0.0355  1.8619  2.6344
  116OSM    C8F12173   0.415   1.633   7.293  0.2824 -0.5949  0.3493
  116OSM    H8F12174   0.516   1.653   7.250 -0.3779  1.5913 -0.2955
  116OSM    H8G12175   0.423   1.618   7.402  0.4961  1.7734  0.7056
  116OSM    C9F12176   0.327   1.751   7.248  0.9355  0.1316  0.0702
  116OSM    H9F12177   0.302   1.749   7.141 -1.1005  0.1464  0.5198
  116OSM   C10F12178   0.280   1.853   7.328  0.3141 -0.5640  0.0543
  116OSM   H10F12179   0.221   1.937   7.289  0.1445 -0.4424  0.5732
  116OSM   C11F12180   0.307   1.860   7.476 -0.4169 -0.0702  0.1457
  116OSM   H11F12181   0.319   1.967   7.503  2.3005 -0.4385  0.6602
  116OSM   H11G12182   0.397   1.801   7.503 -0.3048  0.5726  1.2488
  116OSM   C12F12183   0.185   1.821   7.558  0.2644 -0.2402  0.4752
  116OSM   H12F12184   0.130   1.733   7.518  0.2714 -0.0735  0.0926
  116OSM   H12G12185   0.125   1.914   7.562 -0.8264 -0.9563  1.3642
  116OSM   C13F12186   0.223   1.787   7.709 -0.3397 -0.5025 -0.0353
  116OSM   H13F12187   0.276   1.868   7.763 -0.5848 -1.4146  1.6438
  116OSM   H13G12188   0.287   1.697   7.715 -0.8078 -0.8536 -0.2386
  116OSM   C14F12189   0.101   1.742   7.789  0.8451 -0.8066 -0.1464
  116OSM   H14F12190   0.050   1.651   7.751 -0.9106  0.0188  0.1177
  116OSM   H14G12191   0.030   1.826   7.771  1.6022 -0.6825 -3.0828
  116OSM   C15F12192   0.143   1.730   7.936  0.5995 -0.3439 -0.5040
  116OSM   H15F12193   0.224   1.801   7.963 -1.0479  1.3440  0.2052
  116OSM   H15G12194   0.178   1.626   7.954  0.7377 -0.1690  0.2423
  116OSM   C16F12195   0.030   1.747   8.040  0.1427 -0.1120  0.4470
  116OSM   H16F12196  -0.005   1.852   8.037 -1.7229 -0.3714  5.1925
  116OSM   H16G12197   0.054   1.726   8.147  0.5248 -1.0304  0.1953
  116OSM   C17F12198  -0.107   1.676   8.004 -0.4447  0.2285  0.4066
  116OSM   H17F12199  -0.077   1.574   7.972  0.5238  0.5589  0.2394
  116OSM   H17G12200  -0.153   1.717   7.911 -1.1220 -1.7151 -0.1624
  116OSM   C18F12201  -0.213   1.668   8.122  0.7048  0.1240 -0.2353
  116OSM   H18F12202  -0.273   1.575   8.107  0.5357  0.5146 -2.3314
  116OSM   H18G12203  -0.273   1.762   8.126  1.9923  1.0991 -2.0287
  116OSM   H18H12204  -0.165   1.675   8.221  1.9463 -0.4745 -0.7763
  117OSM      N12205   2.300   4.384   6.393 -0.1176 -0.3921  0.1763
  117OSM    C1512206   2.227   4.509   6.429  0.5698  0.1618  0.4059
  117OSM   H15A12207   2.123   4.489   6.450  0.0504  1.3740 -0.8650
  117OSM   H15B12208   2.208   4.579   6.349 -2.0066  0.4659  1.1739
  117OSM   H15C12209   2.260   4.562   6.518  3.2295 -2.0873  0.8868
  117OSM    C1412210   2.316   4.300   6.516  0.7438  0.2574 -0.6190
  117OSM   H14A12211   2.379   4.214   6.498  0.3171  0.3345 -2.7758
  117OSM   H14B12212   2.221   4.264   6.553  0.1648  2.9848  0.8173
  117OSM   H14C12213   2.359   4.359   6.595  2.6940 -1.4713 -0.3051
  117OSM    C1312214   2.221   4.306   6.295 -0.3786  0.1826  0.8148
  117OSM   H13A12215   2.184   4.368   6.216 -0.9284  0.6773  1.4485
  117OSM   H13B12216   2.132   4.258   6.333 -2.9968  2.1697 -2.2849
  117OSM   H13C12217   2.285   4.235   6.244 -0.8477  1.1928 -1.2973
  117OSM    C1212218   2.436   4.422   6.331 -0.4205 -0.0858 -0.3398
  117OSM   H12A12219   2.472   4.337   6.276  1.6087  0.0797  0.6568
  117OSM   H12B12220   2.510   4.437   6.408  0.1896 -0.4656 -0.8381
  117OSM    C1112221   2.444   4.541   6.229  0.2172 -0.4489 -0.4375
  117OSM   H11A12222   2.411   4.638   6.270 -0.8758 -0.7552 -0.5597
  117OSM   H11B12223   2.370   4.510   6.152  0.4435 -0.6323 -0.5830
  117OSM      P12224   2.702   4.591   6.263  0.1635 -0.0275  0.4902
  117OSM    O1312225   2.794   4.478   6.251  0.2859 -0.1125  0.2103
  117OSM    O1412226   2.752   4.728   6.230 -0.3503 -0.2302 -0.1863
  117OSM    O1112227   2.643   4.589   6.416 -0.6995  0.2052  0.2479
  117OSM    O1212228   2.569   4.563   6.170  0.4332 -0.4223 -0.1069
  117OSM    C1S12229   2.600   4.712   6.481 -0.1435  0.0639  0.1345
  117OSM    H1S12230   2.501   4.743   6.441 -1.3354 -0.6855  2.3392
  117OSM    H1T12231   2.666   4.798   6.457 -0.2847  1.0777  3.0173
  117OSM     NF12232   2.520   4.807   6.692 -0.5748  0.1814  0.2653
  117OSM    HNF12233   2.565   4.878   6.747 -1.5980  1.0078  0.0684
  117OSM    C2S12234   2.592   4.697   6.635  0.5484  0.5023  0.4409
  117OSM    H2S12235   2.532   4.608   6.665  0.8525 -0.8670 -2.5826
  117OSM    C3S12236   2.732   4.669   6.691 -0.0282  0.1778 -0.0567
  117OSM    H3S12237   2.788   4.764   6.679 -0.8870  0.3586 -3.7457
  117OSM     O312238   2.790   4.560   6.622 -1.0551  0.0431 -0.0952
  117OSM    HO312239   2.755   4.567   6.533  0.9839 -0.2437 -0.9729
  117OSM    C4S12240   2.729   4.633   6.834  0.2513 -1.1127  0.3729
  117OSM    H4S12241   2.695   4.532   6.863  0.2836 -0.8160  1.4947
  117OSM    C5S12242   2.781   4.711   6.928 -0.4993  0.1541 -0.1755
  117OSM    H5S12243   2.827   4.807   6.901  1.8681 -0.8306  0.0855
  117OSM    C6S12244   2.795   4.667   7.073 -0.2066 -0.5377  0.2904
  117OSM    H6S12245   2.903   4.658   7.095  0.1469  1.7402 -0.3077
  117OSM    H6T12246   2.752   4.565   7.089  0.2236 -0.8712 -0.6394
  117OSM    C7S12247   2.718   4.758   7.176  0.3096 -0.0201  0.2177
  117OSM    H7S12248   2.611   4.754   7.147  0.4632 -0.3783 -0.3082
  117OSM    H7T12249   2.742   4.865   7.155 -3.6503  0.7117 -1.4972
  117OSM    C8S12250   2.738   4.724   7.326 -0.0931  0.0176  0.1718
  117OSM    H8S12251   2.849   4.730   7.333  0.0636 -1.8499 -0.1477
  117OSM    H8T12252   2.690   4.625   7.344 -0.5353  0.3231  0.6934
  117OSM    C9S12253   2.661   4.823   7.418  0.2630  0.3149 -0.1939
  117OSM    H9S12254   2.553   4.796   7.415  1.0333 -4.6220  3.8004
  117OSM    H9T12255   2.672   4.928   7.382  0.3812  0.4002  0.0915
  117OSM   C10S12256   2.715   4.813   7.560  0.1077  0.2179 -0.3297
  117OSM   H10S12257   2.820   4.850   7.569 -0.7274  2.6966  0.0291
  117OSM   H10T12258   2.714   4.708   7.595 -1.0947 -0.4121 -2.1225
  117OSM   C11S12259   2.631   4.893   7.663 -0.4158  0.2812 -0.1583
  117OSM   H11S12260   2.522   4.881   7.646 -0.0870 -3.2869 -0.4052
  117OSM   H11T12261   2.661   4.998   7.643 -0.2594  0.0184 -1.3944
  117OSM   C12S12262   2.661   4.866   7.815  0.5271  0.5290 -0.8699
  117OSM   H12S12263   2.649   4.758   7.840 -1.4289  1.0471  0.7089
  117OSM   H12T12264   2.577   4.915   7.869  0.0597 -2.4973  1.4170
  117OSM   C13S12265   2.792   4.941   7.866 -0.0192  0.0104  0.1766
  117OSM   H13S12266   2.806   5.046   7.834  1.3149 -0.3204 -0.4053
  117OSM   H13T12267   2.884   4.897   7.823  0.8351  2.1284 -0.2752
  117OSM   C14S12268   2.797   4.922   8.020 -0.2667 -0.6234 -0.5873
  117OSM   H14S12269   2.767   4.816   8.036 -1.5086 -0.4405 -1.5722
  117OSM   H14T12270   2.733   5.002   8.064  1.0760 -0.4130  1.0860
  117OSM   C15S12271   2.941   4.939   8.072  0.1612  0.2412 -0.1868
  117OSM   H15S12272   2.974   5.045   8.061 -1.2695  0.7571  0.3668
  117OSM   H15T12273   3.010   4.871   8.017  0.2408 -0.7636  1.1180
  117OSM   C16S12274   2.945   4.896   8.213 -0.1552 -0.3250  0.0315
  117OSM   H16S12275   2.883   4.803   8.214 -1.0828  0.2850  0.0340
  117OSM   H16T12276   2.883   4.962   8.278 -0.1604 -0.9077  0.6375
  117OSM   C17S12277   3.075   4.859   8.273  0.1202 -0.7013 -0.3950
  117OSM   H17S12278   3.128   4.956   8.271 -2.6673  0.9004 -1.0227
  117OSM   H17T12279   3.134   4.790   8.208  1.2825 -0.7762  0.6874
  117OSM   C18S12280   3.062   4.795   8.410 -0.2340 -0.6370  0.6470
  117OSM   H18S12281   3.033   4.869   8.488 -1.9697 -0.2015 -0.3670
  117OSM   H18T12282   3.153   4.740   8.442 -1.6886 -4.2649 -0.9549
  117OSM   H18U12283   2.980   4.720   8.415 -1.9630  1.1544  0.7961
  117OSM    C1F12284   2.387   4.815   6.678 -0.2232  0.1587  0.0588
  117OSM     OF12285   2.314   4.729   6.617  0.3400  0.3640 -0.2106
  117OSM    C2F12286   2.323   4.940   6.739 -0.4345 -1.2974 -0.5417
  117OSM    H2F12287   2.233   4.964   6.677  0.9166  0.0916 -2.0589
  117OSM    H2G12288   2.393   5.026   6.741 -0.8010 -0.9977  0.6979
  117OSM    C3F12289   2.268   4.910   6.882  0.7967 -0.3452 -0.0406
  117OSM    H3F12290   2.350   4.871   6.946  0.3117 -0.9067  0.2433
  117OSM    H3G12291   2.187   4.837   6.867  0.6036 -0.1812  0.1971
  117OSM    C4F12292   2.206   5.027   6.959 -0.3386 -0.0115 -0.3179
  117OSM    H4F12293   2.146   5.081   6.883  0.9261 -0.0771 -1.3962
  117OSM    H4G12294   2.289   5.096   6.986 -0.3938  0.4611 -1.3128
  117OSM    C5F12295   2.118   4.985   7.080 -0.9081 -0.3281  0.6359
  117OSM    H5F12296   2.043   4.911   7.043  0.9024 -3.0457  2.0406
  117OSM    H5G12297   2.067   5.079   7.111 -1.3850 -0.3639 -0.0261
  117OSM    C6F12298   2.204   4.929   7.199  0.3852  0.2522  0.1793
  117OSM    H6F12299   2.286   5.001   7.219  2.3066 -1.2627 -1.8499
  117OSM    H6G12300   2.256   4.835   7.174  0.2671 -0.1117  1.2580
  117OSM    C7F12301   2.119   4.905   7.325 -0.5959 -0.1436  0.1393
  117OSM    H7F12302   2.049   4.826   7.292 -1.7199  1.1041 -0.5694
  117OSM    H7G12303   2.058   4.998   7.332  0.0391  0.5380 -2.2787
  117OSM    C8F12304   2.204   4.871   7.453  0.6069 -0.1759  0.6302
  117OSM    H8F12305   2.278   4.793   7.427 -0.0428 -0.5993  0.0092
  117OSM    H8G12306   2.134   4.814   7.517  1.0743 -2.1597 -0.5351
  117OSM    C9F12307   2.282   4.983   7.528 -0.0954 -0.5473 -0.0554
  117OSM    H9F12308   2.383   5.007   7.492 -0.6490  1.3592 -0.4792
  117OSM   C10F12309   2.238   5.055   7.630  0.5701 -0.7550 -0.1716
  117OSM   H10F12310   2.307   5.127   7.677 -1.3953  2.0614 -1.3147
  117OSM   C11F12311   2.098   5.045   7.685 -0.2109 -0.6095  0.0933
  117OSM   H11F12312   2.041   4.961   7.639 -1.5948  2.3944 -4.3415
  117OSM   H11G12313   2.046   5.140   7.658  1.0323 -0.1051 -0.6140
  117OSM   C12F12314   2.098   5.030   7.838  0.3096  0.0535 -0.1043
  117OSM   H12F12315   1.995   5.032   7.879  0.8723  2.8969  1.4394
  117OSM   H12G12316   2.151   5.117   7.883 -1.1209  1.3817 -0.9018
  117OSM   C13F12317   2.175   4.897   7.887  0.8118 -0.6315  0.0529
  117OSM   H13F12318   2.284   4.910   7.876  0.6129  1.0753 -0.2658
  117OSM   H13G12319   2.139   4.819   7.817 -0.2145 -0.0369 -0.1184
  117OSM   C14F12320   2.154   4.869   8.038 -0.4237 -0.2028  0.3702
  117OSM   H14F12321   2.161   4.971   8.083 -1.3032 -0.1871  0.4906
  117OSM   H14G12322   2.227   4.798   8.081 -1.9933 -0.8298  2.1032
  117OSM   C15F12323   2.011   4.821   8.068  0.7032 -0.3275  0.3703
  117OSM   H15F12324   1.977   4.754   7.986  0.0387  1.1903 -0.6423
  117OSM   H15G12325   1.939   4.905   8.083  0.7902  0.1576 -1.6494
  117OSM   C16F12326   2.014   4.726   8.187  0.5365  0.2768 -0.0872
  117OSM   H16F12327   2.103   4.659   8.184 -1.0702 -1.9470 -0.4114
  117OSM   H16G12328   1.920   4.667   8.183  1.1923 -0.7145 -1.3157
  117OSM   C17F12329   2.017   4.799   8.323  0.3647 -0.8715 -0.1623
  117OSM   H17F12330   2.080   4.891   8.327 -0.9734  0.1013 -0.5729
  117OSM   H17G12331   1.920   4.853   8.321  0.4635 -0.6872  0.0194
  117OSM   C18F12332   2.035   4.720   8.453 -0.2764 -0.4122  0.1777
  117OSM   H18F12333   2.032   4.793   8.536 -0.8070  1.8847 -1.7487
  117OSM   H18G12334   2.136   4.675   8.446  0.0221  0.4943 -2.2339
  117OSM   H18H12335   1.958   4.640   8.461  0.4074 -1.5692 -3.0951
  118OSM      N12336   4.967   4.856   6.031  0.1805  0.0437 -0.6935
  118OSM    C1512337   4.908   4.736   5.961 -0.1861 -0.0116 -0.5311
  118OSM   H15A12338   4.989   4.689   5.907 -0.1661  0.1807 -0.6720
  118OSM   H15B12339   4.824   4.764   5.899  0.2578  0.4954 -0.9191
  118OSM   H15C12340   4.867   4.668   6.034  1.1300  0.9436  1.1917
  118OSM    C1412341   4.991   4.958   5.924  0.2056 -0.6656 -0.6924
  118OSM   H14A12342   5.016   5.054   5.967 -1.1973 -0.7182  0.2873
  118OSM   H14B12343   4.898   4.977   5.872  1.0792  2.1074 -1.4167
  118OSM   H14C12344   5.079   4.944   5.862 -0.7860  0.0827 -2.3453
  118OSM    C1312345   4.859   4.916   6.122 -1.3479  0.2843  0.1681
  118OSM   H13A12346   4.834   4.838   6.191  0.1311  0.8462  1.3903
  118OSM   H13B12347   4.769   4.950   6.070 -2.2623 -0.0839  1.4669
  118OSM   H13C12348   4.896   4.998   6.181 -0.3326 -0.5545  0.7124
  118OSM    C1212349   5.091   4.817   6.105  0.8232  0.0992 -0.6892
  118OSM   H12A12350   5.156   4.787   6.024  1.9215  1.6109 -0.3982
  118OSM   H12B12351   5.073   4.734   6.171 -0.7774  0.5908 -0.4609
  118OSM    C1112352   5.171   4.928   6.176 -0.4915 -0.2944 -0.3598
  118OSM   H11A12353   5.233   4.888   6.259 -1.4127  0.5788  0.8004
  118OSM   H11B12354   5.089   4.985   6.225 -1.0320 -0.9210 -0.5198
  118OSM      P12355   5.346   4.987   5.984 -0.1216 -0.0008  0.0505
  118OSM    O1312356   5.275   4.917   5.875 -0.2492 -0.5057  0.0274
  118OSM    O1412357   5.430   5.104   5.947  0.1630  0.3438  0.0825
  118OSM    O1112358   5.431   4.877   6.059  0.4264 -0.1069  0.0334
  118OSM    O1212359   5.237   5.028   6.095  0.2075  0.5404  0.0450
  118OSM    C1S12360   5.512   4.919   6.171  0.4147  0.1553 -0.2909
  118OSM    H1S12361   5.482   5.018   6.213  0.3762 -0.2946  0.7820
  118OSM    H1T12362   5.618   4.927   6.138  0.4549  2.5396  0.1778
  118OSM     NF12363   5.609   4.861   6.388  0.2001  0.9666  0.4651
  118OSM    HNF12364   5.683   4.797   6.406 -0.9420 -0.7587 -0.6593
  118OSM    C2S12365   5.520   4.816   6.285 -0.1385  0.0289 -0.3160
  118OSM    H2S12366   5.421   4.816   6.335  0.6335  2.3367  1.3522
  118OSM    C3S12367   5.544   4.666   6.235 -0.7726 -0.6189 -0.3067
  118OSM    H3S12368   5.635   4.647   6.174  0.0315 -1.9732  1.2264
  118OSM     O312369   5.431   4.628   6.168  0.1872  0.5076 -0.3788
  118OSM    HO312370   5.408   4.713   6.129  1.3181  0.4148 -1.3247
  118OSM    C4S12371   5.557   4.578   6.361 -0.1460 -0.2928  0.6767
  118OSM    H4S12372   5.659   4.545   6.385  0.7407 -0.1462 -2.5312
  118OSM    C5S12373   5.448   4.539   6.443 -0.4370 -0.0391  0.2475
  118OSM    H5S12374   5.347   4.572   6.416 -1.2990 -1.6718  1.3334
  118OSM    C6S12375   5.457   4.450   6.564 -0.5420  0.0619  0.1555
  118OSM    H6S12376   5.397   4.358   6.545 -0.6643  0.3015 -0.6375
  118OSM    H6T12377   5.422   4.512   6.649  1.1306 -1.1908  1.8446
  118OSM    C7S12378   5.601   4.405   6.595  0.1505  0.6714  0.0406
  118OSM    H7S12379   5.665   4.490   6.628  1.9767 -0.3883 -0.6032
  118OSM    H7T12380   5.638   4.368   6.497  2.6108  3.2188 -0.1243
  118OSM    C8S12381   5.614   4.282   6.689  0.0246 -0.2810 -0.0832
  118OSM    H8S12382   5.722   4.257   6.679  0.0338 -0.5025  0.5612
  118OSM    H8T12383   5.540   4.209   6.651 -0.4913 -0.6865  1.6125
  118OSM    C9S12384   5.578   4.286   6.833 -0.1629 -0.7508  0.0604
  118OSM    H9S12385   5.467   4.295   6.838 -0.0026  0.9312  1.7672
  118OSM    H9T12386   5.618   4.372   6.891 -0.9703  0.0041 -0.4779
  118OSM   C10S12387   5.621   4.161   6.923  0.2957 -0.0225  0.2731
  118OSM   H10S12388   5.731   4.163   6.908  0.1130  1.7108 -1.3226
  118OSM   H10T12389   5.579   4.067   6.881  0.5020 -0.4191  0.9497
  118OSM   C11S12390   5.583   4.176   7.063  0.1647  0.7435  0.4251
  118OSM   H11S12391   5.474   4.168   7.084 -0.5241 -0.1364 -3.0166
  118OSM   H11T12392   5.623   4.274   7.097  0.3997  1.4973 -1.8510
  118OSM   C12S12393   5.657   4.071   7.149  0.1952 -0.3720 -0.1597
  118OSM   H12S12394   5.766   4.069   7.128  0.1725 -0.6069 -0.2661
  118OSM   H12T12395   5.613   3.971   7.129  0.1529 -0.3231 -0.3065
  118OSM   C13S12396   5.635   4.100   7.302 -0.8162 -0.1094 -0.2360
  118OSM   H13S12397   5.526   4.093   7.320 -0.7107 -2.3298 -0.2588
  118OSM   H13T12398   5.665   4.207   7.314 -0.4037 -0.3593  1.2396
  118OSM   C14S12399   5.706   3.998   7.391 -0.5953 -0.2903  0.8626
  118OSM   H14S12400   5.808   3.976   7.353 -0.6942  1.4497 -0.5445
  118OSM   H14T12401   5.643   3.906   7.389 -0.5418 -0.3544 -1.4144
  118OSM   C15S12402   5.739   4.043   7.536  0.7107 -0.3070  0.5160
  118OSM   H15S12403   5.649   4.067   7.596  0.7839 -2.0019  1.3546
  118OSM   H15T12404   5.792   4.141   7.531 -0.6983  0.4257 -1.1678
  118OSM   C16S12405   5.838   3.950   7.608 -0.2426  0.0236  0.1561
  118OSM   H16S12406   5.926   3.952   7.540  1.1463 -2.2277  1.7339
  118OSM   H16T12407   5.795   3.848   7.604  0.6684 -0.3999  0.7755
  118OSM   C17S12408   5.882   4.006   7.745 -0.1684 -0.3918  0.0469
  118OSM   H17S12409   5.897   4.116   7.741  0.8865 -0.5464 -0.5952
  118OSM   H17T12410   5.979   3.954   7.760 -0.4335 -1.0987 -0.5730
  118OSM   C18S12411   5.781   3.954   7.856  0.0743 -0.0166  0.6280
  118OSM   H18S12412   5.774   3.843   7.853 -0.3708  0.0270 -0.1048
  118OSM   H18T12413   5.685   4.009   7.845  0.1987  1.3130  4.4810
  118OSM   H18U12414   5.829   3.976   7.954  2.2013 -3.9537  0.6753
  118OSM    C1F12415   5.570   4.959   6.473 -0.3688  0.4566  0.2510
  118OSM     OF12416   5.473   5.030   6.445 -0.1378  0.4155 -0.6977
  118OSM    C2F12417   5.662   4.989   6.584  0.5001  0.9745  0.1230
  118OSM    H2F12418   5.681   5.099   6.588  0.8515  1.1257 -3.3350
  118OSM    H2G12419   5.760   4.938   6.568 -1.5189 -2.1923 -3.6096
  118OSM    C3F12420   5.607   4.941   6.719  0.3747  0.4422 -0.2916
  118OSM    H3F12421   5.510   4.992   6.739 -1.1719 -3.1148  2.5852
  118OSM    H3G12422   5.680   4.965   6.800  1.9747 -1.6710 -1.0262
  118OSM    C4F12423   5.583   4.785   6.729  0.0937  0.2992 -0.5256
  118OSM    H4F12424   5.683   4.736   6.723  0.2064  0.5576 -0.8074
  118OSM    H4G12425   5.515   4.751   6.648  0.3901  2.0394 -1.5685
  118OSM    C5F12426   5.521   4.734   6.863 -0.4026 -0.6232  0.9609
  118OSM    H5F12427   5.489   4.629   6.846 -1.1750 -0.0002 -2.1264
  118OSM    H5G12428   5.431   4.798   6.880  0.5105  1.3894 -1.1025
  118OSM    C6F12429   5.610   4.746   6.988  0.2238 -0.1058 -0.1019
  118OSM    H6F12430   5.656   4.847   6.988 -0.5927  0.2833 -1.1850
  118OSM    H6G12431   5.685   4.664   6.984  1.3769  0.8174  1.3116
  118OSM    C7F12432   5.525   4.726   7.112  0.1235  0.0925  0.0241
  118OSM    H7F12433   5.489   4.622   7.124  1.5838 -0.4367 -0.0038
  118OSM    H7G12434   5.441   4.796   7.090  0.4996 -0.3576 -3.4317
  118OSM    C8F12435   5.593   4.770   7.237 -0.2542  0.1792  0.4885
  118OSM    H8F12436   5.522   4.791   7.320 -0.8750 -1.7596  0.4923
  118OSM    H8G12437   5.653   4.859   7.208 -0.2978 -0.7733 -3.0457
  118OSM    C9F12438   5.698   4.671   7.281  0.0134 -0.6005 -1.0289
  118OSM    H9F12439   5.796   4.686   7.234 -0.4064 -2.0879 -2.5045
  118OSM   C10F12440   5.686   4.572   7.370 -0.9800  0.0555 -0.1679
  118OSM   H10F12441   5.767   4.500   7.388 -2.7649 -1.7475  1.2529
  118OSM   C11F12442   5.558   4.544   7.447 -0.4233  0.0188  0.4095
  118OSM   H11F12443   5.539   4.435   7.457 -0.2535  0.0535  1.2057
  118OSM   H11G12444   5.471   4.579   7.388  0.9856  1.3966 -0.9066
  118OSM   C12F12445   5.541   4.611   7.585  0.8885 -0.2517 -0.7891
  118OSM   H12F12446   5.435   4.606   7.616  1.3017 -2.1454  0.4268
  118OSM   H12G12447   5.554   4.722   7.586 -2.6849  0.2753  0.3639
  118OSM   C13F12448   5.632   4.552   7.696  0.5494  0.3007  0.2855
  118OSM   H13F12449   5.741   4.566   7.677  0.4744  0.1349 -0.2838
  118OSM   H13G12450   5.610   4.444   7.707 -1.6577  0.5830 -0.7853
  118OSM   C14F12451   5.615   4.602   7.837 -0.6375 -0.2701 -0.1482
  118OSM   H14F12452   5.605   4.712   7.841  0.9433 -0.1378  0.7311
  118OSM   H14G12453   5.711   4.596   7.893 -1.2316  0.5353  0.9735
  118OSM   C15F12454   5.504   4.535   7.916 -0.1816 -0.8756 -0.6212
  118OSM   H15F12455   5.419   4.549   7.847  1.1382  2.2856 -1.7893
  118OSM   H15G12456   5.477   4.585   8.012  0.1109 -0.3389 -0.8140
  118OSM   C16F12457   5.531   4.394   7.952  0.1990 -0.1867 -0.7338
  118OSM   H16F12458   5.638   4.393   7.979  0.0286  1.6307  0.1587
  118OSM   H16G12459   5.525   4.331   7.860  0.7594 -0.8740 -0.3124
  118OSM   C17F12460   5.432   4.336   8.050 -0.2447 -0.0881  0.0116
  118OSM   H17F12461   5.330   4.365   8.016  0.0884  0.7685 -0.2874
  118OSM   H17G12462   5.447   4.372   8.154  0.8831 -4.4252  1.5214
  118OSM   C18F12463   5.441   4.189   8.068  0.1050  0.5635 -0.6295
  118OSM   H18F12464   5.436   4.135   7.971 -0.5437  0.3398 -0.4780
  118OSM   H18G12465   5.356   4.142   8.122  0.4884  0.7322  0.1335
  118OSM   H18H12466   5.531   4.154   8.123 -0.2035  1.6226  0.6021
  119OSM      N12467   4.476   5.765   5.654 -0.1335 -0.1335 -0.4553
  119OSM    C1512468   4.389   5.886   5.664 -0.0802 -0.3700 -0.1352
  119OSM   H15A12469   4.454   5.969   5.687  0.4134  0.1103 -2.8284
  119OSM   H15B12470   4.325   5.880   5.750  1.0336 -1.6684  0.6381
  119OSM   H15C12471   4.326   5.904   5.578 -1.5039 -0.2698  0.8974
  119OSM    C1412472   4.384   5.643   5.637 -0.3222 -0.0496 -0.0610
  119OSM   H14A12473   4.323   5.632   5.725  0.7748 -4.2961  0.3705
  119OSM   H14B12474   4.437   5.549   5.631  0.1320  0.2426 -0.7503
  119OSM   H14C12475   4.327   5.663   5.547  0.2817  2.0108 -0.0324
  119OSM    C1312476   4.552   5.763   5.528 -0.5429 -0.4290  0.4183
  119OSM   H13A12477   4.642   5.823   5.536 -0.6942  0.2566 -2.1686
  119OSM   H13B12478   4.504   5.807   5.441  1.7100 -2.3028 -1.9473
  119OSM   H13C12479   4.586   5.662   5.514  1.3261 -0.1178  2.1993
  119OSM    C1212480   4.572   5.744   5.774  1.0458  0.0050  0.6641
  119OSM   H12A12481   4.508   5.732   5.861  0.7453  0.9272  0.5754
  119OSM   H12B12482   4.619   5.838   5.798  0.5912  0.3652  0.1594
  119OSM    C1112483   4.690   5.643   5.752  0.6054 -0.3691  0.4394
  119OSM   H11A12484   4.741   5.635   5.851 -1.2746  0.4026  1.5261
  119OSM   H11B12485   4.761   5.673   5.672  0.3280 -1.5762 -0.2832
  119OSM      P12486   4.598   5.403   5.823  0.3206 -0.3819 -0.5489
  119OSM    O1312487   4.473   5.332   5.785  0.0829 -0.4262 -0.3026
  119OSM    O1412488   4.716   5.320   5.855  0.0625 -0.2684 -0.3387
  119OSM    O1112489   4.566   5.483   5.948  0.5355 -0.1329 -0.5750
  119OSM    O1212490   4.631   5.513   5.708  0.5314 -0.8686  0.2505
  119OSM    C1S12491   4.546   5.418   6.079 -0.2695 -0.1123  0.3113
  119OSM    H1S12492   4.643   5.387   6.123  0.1019  1.4748  0.6572
  119OSM    H1T12493   4.478   5.331   6.088  0.2597 -0.3207  2.9089
  119OSM     NF12494   4.502   5.466   6.315 -0.0771 -0.3204 -0.4724
  119OSM    HNF12495   4.429   5.405   6.347 -0.1045 -0.3751 -0.6386
  119OSM    C2S12496   4.487   5.520   6.183  0.2989  0.7253  0.1882
  119OSM    H2S12497   4.541   5.616   6.168 -0.2302  0.8933 -0.7166
  119OSM    C3S12498   4.339   5.544   6.137  0.4534 -0.4859  0.0477
  119OSM    H3S12499   4.289   5.445   6.137 -0.4664 -0.0504  1.8695
  119OSM     O312500   4.332   5.610   6.013  0.4338 -0.1350  0.0535
  119OSM    HO312501   4.419   5.588   5.976  0.4275 -3.5141  1.6688
  119OSM    C4S12502   4.262   5.629   6.240 -0.0654 -0.1316  0.0729
  119OSM    H4S12503   4.198   5.573   6.310 -0.1371 -0.2679 -0.0988
  119OSM    C5S12504   4.271   5.760   6.251  0.3129 -0.1700  0.7608
  119OSM    H5S12505   4.329   5.820   6.179 -1.6256  1.3174  0.3411
  119OSM    C6S12506   4.203   5.840   6.359  0.1005 -0.2111 -0.8751
  119OSM    H6S12507   4.140   5.772   6.421  0.6113 -0.9627 -1.1699
  119OSM    H6T12508   4.126   5.905   6.312  0.6666 -1.3385 -3.5677
  119OSM    C7S12509   4.299   5.920   6.446  0.2745  0.0365 -0.3942
  119OSM    H7S12510   4.251   5.976   6.529  0.2092  0.3195 -0.6221
  119OSM    H7T12511   4.355   5.985   6.376  1.3331 -0.2297  0.1772
  119OSM    C8S12512   4.410   5.833   6.510 -0.4626  0.1356  0.2297
  119OSM    H8S12513   4.488   5.888   6.567  1.9765 -3.2996  0.5503
  119OSM    H8T12514   4.474   5.775   6.440  1.1485  1.4071  0.5819
  119OSM    C9S12515   4.355   5.717   6.598  0.2669 -0.5047  0.0858
  119OSM    H9S12516   4.438   5.671   6.657  0.0025  1.7288  2.4295
  119OSM    H9T12517   4.297   5.640   6.544 -0.0813 -0.6382  0.6372
  119OSM   C10S12518   4.271   5.780   6.725  0.5265  0.8904  0.2710
  119OSM   H10S12519   4.162   5.759   6.720  0.6101  0.0106  1.6635
  119OSM   H10T12520   4.287   5.890   6.725 -1.6053  1.2392  0.4489
  119OSM   C11S12521   4.325   5.731   6.860 -0.6243  0.8594  0.0017
  119OSM   H11S12522   4.277   5.780   6.948  0.0476  0.6556  0.4922
  119OSM   H11T12523   4.432   5.761   6.862  0.0961 -1.4954  0.1686
  119OSM   C12S12524   4.318   5.583   6.882  0.7476 -0.1228 -0.3803
  119OSM   H12S12525   4.370   5.521   6.806  0.3236 -0.3125 -0.5245
  119OSM   H12T12526   4.214   5.543   6.888  0.3864  0.9552  1.1600
  119OSM   C13S12527   4.379   5.545   7.020 -0.5263 -0.7528  0.3047
  119OSM   H13S12528   4.468   5.609   7.037  0.1780 -1.3089 -1.1218
  119OSM   H13T12529   4.402   5.437   7.009  0.7752 -0.5127  0.5844
  119OSM   C14S12530   4.285   5.564   7.141  0.0777 -1.1708  0.5331
  119OSM   H14S12531   4.187   5.516   7.120 -0.9191  0.9917 -0.0562
  119OSM   H14T12532   4.280   5.671   7.171 -0.7585 -1.1184  0.2469
  119OSM   C15S12533   4.332   5.481   7.257  0.2364 -0.4077 -0.3968
  119OSM   H15S12534   4.381   5.386   7.227 -0.1451 -0.6148 -0.3691
  119OSM   H15T12535   4.242   5.456   7.317  0.1556 -1.0153 -0.7635
  119OSM   C16S12536   4.399   5.574   7.365  0.2407 -0.2274 -0.5268
  119OSM   H16S12537   4.346   5.671   7.375  2.6110  0.9999  0.7870
  119OSM   H16T12538   4.494   5.616   7.326  0.5931 -0.8023 -0.3012
  119OSM   C17S12539   4.419   5.515   7.510  1.0764  0.4514  0.5673
  119OSM   H17S12540   4.458   5.411   7.500  1.7504  0.8071 -0.8836
  119OSM   H17T12541   4.317   5.503   7.552  1.3524  2.8926  2.0944
  119OSM   C18S12542   4.499   5.596   7.612 -0.5848  0.2911  0.6031
  119OSM   H18S12543   4.458   5.698   7.622 -1.3219  0.0277  0.3251
  119OSM   H18T12544   4.605   5.596   7.576 -0.6428  1.1878  0.4151
  119OSM   H18U12545   4.479   5.554   7.712 -1.4520 -2.3804 -0.5898
  119OSM    C1F12546   4.610   5.490   6.391  0.3414 -0.5562  0.3563
  119OSM     OF12547   4.701   5.556   6.348  0.4791  0.1903  0.6706
  119OSM    C2F12548   4.601   5.443   6.529 -1.0187  0.1865 -0.3728
  119OSM    H2F12549   4.601   5.332   6.525 -1.5166  0.2115 -1.3944
  119OSM    H2G12550   4.502   5.470   6.572 -1.3498 -1.7336  0.1257
  119OSM    C3F12551   4.719   5.493   6.621  0.1705  0.1887 -0.3806
  119OSM    H3F12552   4.721   5.604   6.613  2.1813  0.2575  0.6089
  119OSM    H3G12553   4.813   5.443   6.590 -0.6132  0.2676 -3.2349
  119OSM    C4F12554   4.701   5.473   6.777 -0.1739  0.3992  0.2397
  119OSM    H4F12555   4.610   5.525   6.812 -1.1857  0.7347 -2.6619
  119OSM    H4G12556   4.784   5.530   6.825 -0.5920  0.2293  1.1780
  119OSM    C5F12557   4.707   5.327   6.829 -0.5259 -0.2214  0.4638
  119OSM    H5F12558   4.815   5.307   6.814 -0.5852  1.1501 -2.4927
  119OSM    H5G12559   4.648   5.271   6.754 -1.6719  2.4478 -0.7890
  119OSM    C6F12560   4.656   5.306   6.965 -0.5593  0.3082 -0.0536
  119OSM    H6F12561   4.546   5.292   6.969 -0.4506 -0.6409 -0.1526
  119OSM    H6G12562   4.681   5.392   7.030  1.7969 -0.2776 -0.0880
  119OSM    C7F12563   4.739   5.198   7.025 -0.4619  0.5442  0.3260
  119OSM    H7F12564   4.837   5.234   7.062  0.6263 -0.5289 -1.4111
  119OSM    H7G12565   4.754   5.126   6.942 -0.0183  1.3610 -0.3199
  119OSM    C8F12566   4.664   5.121   7.132 -0.1006  0.3015 -0.0380
  119OSM    H8F12567   4.734   5.040   7.162 -0.2054 -0.0955 -0.8452
  119OSM    H8G12568   4.571   5.080   7.086  1.0017  0.3626 -2.4398
  119OSM    C9F12569   4.637   5.216   7.251 -0.6256  0.5100  0.0673
  119OSM    H9F12570   4.563   5.296   7.234 -1.4670  0.1785  1.9231
  119OSM   C10F12571   4.688   5.212   7.372 -0.1310  0.1193 -0.8390
  119OSM   H10F12572   4.680   5.304   7.431 -0.9257 -0.0960 -0.5963
  119OSM   C11F12573   4.785   5.110   7.430  0.0931 -0.0614  0.0527
  119OSM   H11F12574   4.891   5.144   7.422  0.3298 -0.9755 -0.9878
  119OSM   H11G12575   4.775   5.019   7.368 -0.6017 -0.0600  0.1591
  119OSM   C12F12576   4.759   5.058   7.577  0.4057  0.6885  0.0046
  119OSM   H12F12577   4.825   4.970   7.597 -1.5368 -1.0451 -0.7804
  119OSM   H12G12578   4.656   5.017   7.578  0.8805 -0.6210  1.7801
  119OSM   C13F12579   4.770   5.175   7.675  0.0941  0.5867 -0.2411
  119OSM   H13F12580   4.686   5.246   7.667 -0.4999 -0.1257 -0.4542
  119OSM   H13G12581   4.859   5.236   7.647  1.8163 -1.1445  1.1498
  119OSM   C14F12582   4.783   5.117   7.820  0.5270  0.1477  0.2155
  119OSM   H14F12583   4.858   5.036   7.815  3.1787  2.5213 -2.0402
  119OSM   H14G12584   4.683   5.085   7.856 -0.3539  1.3256 -1.0638
  119OSM   C15F12585   4.830   5.225   7.919 -0.1410  0.1550  0.1865
  119OSM   H15F12586   4.924   5.275   7.888 -0.7460 -0.0078 -2.1003
  119OSM   H15G12587   4.850   5.172   8.015  1.4468  0.5375  0.0985
  119OSM   C16F12588   4.739   5.344   7.939  0.9109  0.4341  0.7657
  119OSM   H16F12589   4.643   5.305   7.979  1.3425 -1.2778  0.1824
  119OSM   H16G12590   4.717   5.374   7.835  2.2062  0.5122  0.4931
  119OSM   C17F12591   4.802   5.453   8.031  0.0197  0.0786  0.5428
  119OSM   H17F12592   4.901   5.483   7.992 -1.2015  0.3077 -2.7585
  119OSM   H17G12593   4.820   5.421   8.135 -1.5410 -1.7102  0.3224
  119OSM   C18F12594   4.715   5.581   8.024  0.4204  0.0235 -0.5629
  119OSM   H18F12595   4.682   5.619   7.925 -0.4415  0.5747 -0.0768
  119OSM   H18G12596   4.768   5.669   8.066  1.5069 -0.8930  0.0462
  119OSM   H18H12597   4.625   5.562   8.087  1.3994 -1.5692  0.4056
  120OSM      N12598   2.310   1.140   6.323  0.0184  0.4304 -0.6555
  120OSM    C1512599   2.437   1.140   6.415  0.3375 -0.6820 -0.5556
  120OSM   H15A12600   2.524   1.093   6.371  0.3989 -1.0821 -0.0177
  120OSM   H15B12601   2.427   1.092   6.512  0.2608  2.9640  1.4145
  120OSM   H15C12602   2.460   1.242   6.439 -2.4098 -0.2399  0.4773
  120OSM    C1412603   2.354   1.225   6.204 -0.0535  0.2335 -0.0540
  120OSM   H14A12604   2.392   1.322   6.235  0.3385 -0.5962  2.2395
  120OSM   H14B12605   2.276   1.254   6.134 -0.6910  1.2988  1.0579
  120OSM   H14C12606   2.438   1.175   6.159  0.6341  1.3005  0.0188
  120OSM    C1312607   2.278   1.000   6.299 -0.8090  0.1765  0.2698
  120OSM   H13A12608   2.281   0.949   6.395 -0.1521 -0.1183  0.0957
  120OSM   H13B12609   2.345   0.966   6.222 -0.3845  2.0115 -0.2275
  120OSM   H13C12610   2.181   0.983   6.256  0.0692 -4.2348 -0.4103
  120OSM    C1212611   2.194   1.202   6.405  0.3946  0.5047  0.4473
  120OSM   H12A12612   2.228   1.296   6.447  0.4109  0.9713 -0.5831
  120OSM   H12B12613   2.177   1.132   6.486 -0.6357 -1.0118 -1.0174
  120OSM    C1112614   2.061   1.227   6.325  0.1628 -0.2151  0.6201
  120OSM   H11A12615   1.977   1.240   6.397 -0.8405  2.4049 -0.8895
  120OSM   H11B12616   2.031   1.134   6.273 -0.5054 -0.4793  1.4571
  120OSM      P12617   2.084   1.486   6.274 -0.3820  0.0274 -0.3496
  120OSM    O1312618   2.222   1.538   6.266 -0.1831 -0.1663 -0.3018
  120OSM    O1412619   1.991   1.567   6.191 -0.4942  0.3908  0.1526
  120OSM    O1112620   2.044   1.502   6.426  0.3987  0.1227  0.0494
  120OSM    O1212621   2.071   1.339   6.232 -0.0351 -0.2816  0.2870
  120OSM    C1S12622   2.008   1.624   6.486 -0.2319  0.0702  0.0066
  120OSM    H1S12623   1.908   1.659   6.453 -0.1975 -0.5761 -0.8118
  120OSM    H1T12624   2.084   1.700   6.458  0.3020 -0.3620  0.2633
  120OSM     NF12625   2.011   1.754   6.696  0.0035  0.2634  0.1378
  120OSM    HNF12626   2.103   1.787   6.717 -0.3568  1.3549  0.0381
  120OSM    C2S12627   2.001   1.622   6.641  0.4095 -0.6031 -0.6344
  120OSM    H2S12628   1.901   1.583   6.671 -0.4907  0.1045 -2.5062
  120OSM    C3S12629   2.119   1.538   6.695 -0.2001 -0.2439 -1.0072
  120OSM    H3S12630   2.213   1.579   6.652  0.7572 -1.0820  0.2117
  120OSM     O312631   2.117   1.401   6.656 -0.0216 -0.2242  0.7222
  120OSM    HO312632   2.061   1.403   6.578  0.0698  0.2168  0.6633
  120OSM    C4S12633   2.141   1.542   6.846 -0.0808  0.2977  0.0745
  120OSM    H4S12634   2.214   1.620   6.869  1.6527 -1.5414  1.0460
  120OSM    C5S12635   2.085   1.471   6.945  0.0825  0.0165 -0.4619
  120OSM    H5S12636   2.015   1.391   6.915  0.4023 -0.0110 -1.1434
  120OSM    C6S12637   2.101   1.489   7.095  0.1270  0.2712  0.2270
  120OSM    H6S12638   2.166   1.570   7.133 -0.5597 -0.1795  2.5126
  120OSM    H6T12639   2.138   1.397   7.145 -0.2307  0.6440  1.1975
  120OSM    C7S12640   1.968   1.521   7.162 -0.4749  0.7249 -0.0218
  120OSM    H7S12641   1.899   1.440   7.131 -0.7317  1.6667 -2.0705
  120OSM    H7T12642   1.930   1.616   7.121  0.0371  1.0852  0.3183
  120OSM    C8S12643   1.996   1.523   7.314 -0.7847  0.3216  0.1176
  120OSM    H8S12644   2.070   1.604   7.332  1.0237 -0.6060 -2.5993
  120OSM    H8T12645   2.043   1.426   7.340 -0.4153  0.9983  2.1702
  120OSM    C9S12646   1.870   1.556   7.404  0.1444  0.0321 -0.3359
  120OSM    H9S12647   1.833   1.658   7.379  0.4747 -0.1634 -1.7491
  120OSM    H9T12648   1.906   1.559   7.509 -0.6081  2.2454 -0.0968
  120OSM   C10S12649   1.760   1.440   7.401 -0.2446 -0.1582 -0.5535
  120OSM   H10S12650   1.821   1.348   7.392  1.1290  0.5512  1.1163
  120OSM   H10T12651   1.699   1.450   7.308  1.9388  0.6077 -1.9833
  120OSM   C11S12652   1.671   1.442   7.523 -0.6419  0.6942 -0.0173
  120OSM   H11S12653   1.643   1.545   7.553 -1.6757  0.8377 -1.3795
  120OSM   H11T12654   1.745   1.410   7.599  1.6414 -0.8522 -2.6862
  120OSM   C12S12655   1.560   1.328   7.539 -0.2152 -0.7310  0.7498
  120OSM   H12S12656   1.531   1.330   7.646  2.0849  0.3599  1.3979
  120OSM   H12T12657   1.615   1.234   7.514  0.9430  0.3950 -1.1889
  120OSM   C13S12658   1.441   1.350   7.443  0.4214  0.0655 -0.1076
  120OSM   H13S12659   1.469   1.322   7.339  0.4249  0.8883 -0.3339
  120OSM   H13T12660   1.416   1.456   7.425  0.3705 -0.2294 -2.0722
  120OSM   C14S12661   1.323   1.270   7.487 -0.8612 -0.5283  0.0738
  120OSM   H14S12662   1.356   1.173   7.531 -2.4676 -1.2295 -0.1813
  120OSM   H14T12663   1.252   1.261   7.402 -2.3277  2.7793  0.8002
  120OSM   C15S12664   1.227   1.350   7.581  0.6063 -0.0728 -0.0021
  120OSM   H15S12665   1.182   1.424   7.512 -1.3913 -0.9653  0.2491
  120OSM   H15T12666   1.284   1.403   7.660 -1.5985  1.8169  0.4579
  120OSM   C16S12667   1.129   1.258   7.651  0.1792  0.6337 -0.0497
  120OSM   H16S12668   1.186   1.179   7.705 -0.3585  0.0135 -0.3741
  120OSM   H16T12669   1.076   1.197   7.575 -1.4870  1.8775  0.0577
  120OSM   C17S12670   1.019   1.314   7.739  0.1654  0.2079  0.3202
  120OSM   H17S12671   0.950   1.378   7.680  0.9893  0.2649 -0.6204
  120OSM   H17T12672   1.069   1.385   7.808 -0.3732  0.8298  0.0758
  120OSM   C18S12673   0.957   1.205   7.823 -0.6597 -0.8576 -0.2258
  120OSM   H18S12674   0.928   1.110   7.773  1.8159 -2.7125  1.5612
  120OSM   H18T12675   0.863   1.247   7.864 -0.0240  0.7667 -0.3905
  120OSM   H18U12676   1.016   1.191   7.917 -1.8438  0.3578  0.7364
  120OSM    C1F12677   1.912   1.837   6.675  0.2013  0.1202 -0.4006
  120OSM     OF12678   1.797   1.793   6.642 -0.1348  0.0395 -0.5366
  120OSM    C2F12679   1.934   1.986   6.687  0.7877  0.1571 -0.5323
  120OSM    H2F12680   1.885   2.050   6.610  1.1907  2.8196  1.2878
  120OSM    H2G12681   2.044   2.000   6.682  1.1045 -2.0697 -0.4277
  120OSM    C3F12682   1.858   2.032   6.819  0.0954  0.3619 -0.5319
  120OSM    H3F12683   1.749   2.013   6.809  0.3111 -0.4270 -1.5011
  120OSM    H3G12684   1.878   2.141   6.830 -0.4958  0.3239  1.1933
  120OSM    C4F12685   1.912   1.968   6.949  0.0988  0.9241 -0.1149
  120OSM    H4F12686   1.906   1.859   6.932 -1.0395  0.7775  1.0541
  120OSM    H4G12687   1.851   1.996   7.038  0.0471 -2.0485  0.9017
  120OSM    C5F12688   2.054   2.015   6.988 -0.5252 -0.0447  0.7558
  120OSM    H5F12689   2.054   2.124   7.009  1.6737  0.2574 -0.5020
  120OSM    H5G12690   2.125   1.996   6.904 -1.7435 -0.1323 -0.2780
  120OSM    C6F12691   2.093   1.938   7.117  0.2833 -0.1933  0.3269
  120OSM    H6F12692   2.190   1.884   7.116 -0.2531 -1.2143 -1.4683
  120OSM    H6G12693   2.018   1.857   7.124  0.1626 -0.4353 -2.6142
  120OSM    C7F12694   2.085   2.016   7.249  0.4885 -0.0994 -0.2479
  120OSM    H7F12695   1.987   2.066   7.264  0.6438 -0.2442  1.4214
  120OSM    H7G12696   2.166   2.089   7.227  1.0250 -1.3433 -2.7967
  120OSM    C8F12697   2.112   1.931   7.379  0.4068  0.7321  0.4866
  120OSM    H8F12698   2.206   1.874   7.365 -0.2252 -0.2231 -0.0292
  120OSM    H8G12699   2.027   1.860   7.389  0.7944 -0.0291 -1.2356
  120OSM    C9F12700   2.128   2.019   7.499  0.3228  0.7007 -0.1713
  120OSM    H9F12701   2.169   2.119   7.482 -0.2213  1.0036  0.2755
  120OSM   C10F12702   2.070   2.005   7.623  0.0459  0.1700 -0.2884
  120OSM   H10F12703   2.118   2.056   7.707  0.5323  2.5683 -1.9162
  120OSM   C11F12704   1.973   1.894   7.657 -0.1105 -0.6236 -0.0301
  120OSM   H11F12705   2.038   1.806   7.677  0.7771 -0.1375 -0.6974
  120OSM   H11G12706   1.893   1.865   7.586 -0.0991 -1.0266  0.1175
  120OSM   C12F12707   1.900   1.908   7.794  0.3072 -0.3041  0.4550
  120OSM   H12F12708   1.829   1.822   7.801 -2.0184  1.3501 -1.1661
  120OSM   H12G12709   1.843   2.003   7.785  1.2002  0.2201  0.2310
  120OSM   C13F12710   1.981   1.920   7.919 -0.0750 -0.5456  0.1081
  120OSM   H13F12711   2.025   2.022   7.931  1.1196 -0.9650 -0.6682
  120OSM   H13G12712   2.067   1.853   7.902  1.2247  1.4328 -1.6982
  120OSM   C14F12713   1.900   1.881   8.047 -0.3769 -0.2562  0.6022
  120OSM   H14F12714   1.854   1.786   8.012 -0.5498  0.1933 -0.4248
  120OSM   H14G12715   1.823   1.959   8.064 -1.4949 -1.3379  0.6712
  120OSM   C15F12716   1.972   1.869   8.183  0.8218  0.1417  0.3527
  120OSM   H15F12717   1.894   1.846   8.259 -3.0224  0.3010 -3.1384
  120OSM   H15G12718   2.016   1.968   8.209  2.6797 -0.8821  1.2165
  120OSM   C16F12719   2.085   1.771   8.185  0.1835 -0.0111 -0.0827
  120OSM   H16F12720   2.169   1.804   8.121  1.0330 -1.2967  0.3421
  120OSM   H16G12721   2.050   1.673   8.147  1.5327 -0.5624  0.0386
  120OSM   C17F12722   2.138   1.749   8.327 -0.6783  0.2125  0.1361
  120OSM   H17F12723   2.059   1.709   8.394 -2.1818  1.3548 -0.8998
  120OSM   H17G12724   2.168   1.854   8.346 -0.2775  1.1620 -4.4685
  120OSM   C18F12725   2.268   1.653   8.322 -0.4227 -0.6724  0.1816
  120OSM   H18F12726   2.325   1.647   8.416 -1.4338  0.9340  0.9263
  120OSM   H18G12727   2.328   1.697   8.239 -0.4688  0.5754  0.8037
  120OSM   H18H12728   2.240   1.547   8.299  1.2991 -1.6067  2.0698
  121OSM      N12729   5.141   5.292   5.553 -0.1832 -0.2932 -0.0376
  121OSM    C1512730   5.002   5.351   5.552  0.3514  0.4904  0.1247
  121OSM   H15A12731   4.960   5.344   5.453  0.1887 -2.7887  0.3027
  121OSM   H15B12732   5.001   5.453   5.587 -1.1140  0.5694 -0.0792
  121OSM   H15C12733   4.937   5.283   5.605  1.5968 -1.5186 -0.8046
  121OSM    C1412734   5.136   5.161   5.490 -0.2840 -0.0122  0.0057
  121OSM   H14A12735   5.101   5.165   5.388  0.4159  3.1262 -0.2281
  121OSM   H14B12736   5.083   5.089   5.550  0.7408 -0.9100 -0.1536
  121OSM   H14C12737   5.236   5.123   5.483 -0.0997  0.2004  1.3193
  121OSM    C1312738   5.228   5.381   5.471 -0.6500 -0.3242  0.5884
  121OSM   H13A12739   5.186   5.393   5.372  0.1232  3.5634  0.5491
  121OSM   H13B12740   5.323   5.333   5.451 -1.1098 -1.1848  0.4554
  121OSM   H13C12741   5.243   5.477   5.519 -0.2918 -1.7593  3.5465
  121OSM    C1212742   5.193   5.294   5.696 -0.2035 -0.2805  0.1463
  121OSM   H12A12743   5.289   5.248   5.712 -0.9000 -1.2627  1.8324
  121OSM   H12B12744   5.114   5.249   5.755 -1.2501  0.2847 -0.7802
  121OSM    C1112745   5.205   5.434   5.752 -0.7114 -0.3163 -0.7521
  121OSM   H11A12746   5.272   5.502   5.695  1.1275  0.4080  2.0572
  121OSM   H11B12747   5.262   5.421   5.847 -1.3091 -0.1524 -0.3703
  121OSM      P12748   5.076   5.660   5.760  0.1911 -0.1273 -0.3340
  121OSM    O1312749   5.212   5.706   5.779 -0.3144 -0.0985  0.7282
  121OSM    O1412750   5.013   5.695   5.626 -0.0774  1.0937  0.3065
  121OSM    O1112751   4.986   5.700   5.883 -0.0210  0.3735  0.2783
  121OSM    O1212752   5.082   5.502   5.781 -0.5117 -0.1304 -0.4417
  121OSM    C1S12753   4.995   5.635   6.010 -0.1396  0.5000 -0.3594
  121OSM    H1S12754   5.097   5.601   6.037  0.3036  1.8151 -0.3067
  121OSM    H1T12755   4.930   5.545   6.017  0.5443 -0.0124 -0.5529
  121OSM     NF12756   4.944   5.667   6.253 -0.4008  0.3211 -0.2856
  121OSM    HNF12757   4.854   5.638   6.285 -0.6715  1.7847  0.3987
  121OSM    C2S12758   4.946   5.734   6.125  0.2159  1.2082  0.0175
  121OSM    H2S12759   5.009   5.824   6.135  0.9060  0.8563 -0.9534
  121OSM    C3S12760   4.797   5.779   6.096  0.0396 -0.8462  0.4897
  121OSM    H3S12761   4.740   5.687   6.069  1.4788 -2.0988  1.5992
  121OSM     O312762   4.776   5.865   5.979 -0.0409  0.2355 -0.3353
  121OSM    HO312763   4.849   5.848   5.919  1.8301 -0.4835  1.9916
  121OSM    C4S12764   4.734   5.851   6.214 -0.9564 -0.1703 -0.1416
  121OSM    H4S12765   4.672   5.780   6.271 -1.5021  0.5404  0.1696
  121OSM    C5S12766   4.748   5.981   6.253  0.3701 -0.3391 -0.9455
  121OSM    H5S12767   4.797   6.050   6.183 -3.1284  1.8103 -1.4782
  121OSM    C6S12768   4.677   6.047   6.368 -0.0031  0.1628  0.4612
  121OSM    H6S12769   4.602   5.973   6.405 -0.0251 -1.0804 -1.8782
  121OSM    H6T12770   4.631   6.139   6.326 -0.7275 -0.1617  0.5319
  121OSM    C7S12771   4.776   6.080   6.484 -0.2895 -0.0466  0.7397
  121OSM    H7S12772   4.706   6.137   6.548 -1.4161 -0.8930  0.2977
  121OSM    H7T12773   4.863   6.136   6.442 -1.1329 -0.3946 -1.5876
  121OSM    C8S12774   4.830   5.955   6.551 -0.2279 -0.2186 -0.0166
  121OSM    H8S12775   4.898   5.895   6.486  3.8865  3.1698  0.7082
  121OSM    H8T12776   4.743   5.894   6.585 -1.9963  2.0430 -0.2573
  121OSM    C9S12777   4.907   5.990   6.684  0.4160  0.0688 -0.2671
  121OSM    H9S12778   4.841   6.054   6.746  0.3941 -0.9780  0.8204
  121OSM    H9T12779   4.996   6.047   6.652  0.8886 -0.8461 -0.6221
  121OSM   C10S12780   4.942   5.860   6.753  0.0844 -0.7244 -0.9159
  121OSM   H10S12781   5.039   5.817   6.720  0.4675 -0.4911 -0.1351
  121OSM   H10T12782   4.868   5.782   6.726 -0.0875 -0.9976  0.2672
  121OSM   C11S12783   4.931   5.863   6.907 -0.8138 -0.0370 -0.2402
  121OSM   H11S12784   4.962   5.963   6.945 -2.5090  0.6118 -0.4656
  121OSM   H11T12785   5.000   5.787   6.950  0.9387  1.9727  0.7059
  121OSM   C12S12786   4.792   5.839   6.972  0.4916  0.5154 -0.6468
  121OSM   H12S12787   4.735   5.760   6.918  1.9760 -0.0653 -1.4360
  121OSM   H12T12788   4.736   5.932   6.946  1.3983  1.7337  1.4891
  121OSM   C13S12789   4.798   5.808   7.121  0.8607  0.0647  0.4996
  121OSM   H13S12790   4.695   5.807   7.163  1.1256 -3.2842  1.3321
  121OSM   H13T12791   4.860   5.892   7.161  2.3659 -0.1708 -1.2110
  121OSM   C14S12792   4.865   5.665   7.154  0.9708 -0.1062 -0.1152
  121OSM   H14S12793   4.972   5.669   7.123  0.7404 -0.7044 -1.0260
  121OSM   H14T12794   4.813   5.582   7.101 -0.0388  0.2667  0.2781
  121OSM   C15S12795   4.867   5.632   7.301 -0.0227 -0.5600  0.3235
  121OSM   H15S12796   4.935   5.545   7.298 -0.8093 -1.2193  0.9877
  121OSM   H15T12797   4.766   5.597   7.333 -0.7210 -0.6573 -1.8391
  121OSM   C16S12798   4.944   5.743   7.393  0.0992  0.8039  0.6007
  121OSM   H16S12799   4.982   5.690   7.483 -0.0640  0.4934  0.4894
  121OSM   H16T12800   4.872   5.826   7.409 -1.0336 -0.3788  1.9362
  121OSM   C17S12801   5.071   5.810   7.342 -0.2485 -0.0498  0.2779
  121OSM   H17S12802   5.040   5.868   7.253  0.5101  2.7816  1.7182
  121OSM   H17T12803   5.146   5.735   7.307 -0.6397  0.8344 -2.7459
  121OSM   C18S12804   5.135   5.902   7.433 -0.4689  0.1056 -1.0599
  121OSM   H18S12805   5.232   5.947   7.402  0.0072  1.4813  2.0466
  121OSM   H18T12806   5.150   5.853   7.532  0.0172  1.1884 -0.5794
  121OSM   H18U12807   5.074   5.992   7.457  1.3386  0.9371  0.6377
  121OSM    C1F12808   5.062   5.629   6.317  0.6928  1.3358 -0.5584
  121OSM     OF12809   5.171   5.649   6.270 -0.0412 -0.6216 -0.4036
  121OSM    C2F12810   5.047   5.554   6.455  0.3779 -0.2118  0.0916
  121OSM    H2F12811   5.043   5.447   6.425  2.2195  0.4694 -3.1394
  121OSM    H2G12812   4.944   5.576   6.490  0.9349 -1.6233  2.8830
  121OSM    C3F12813   5.165   5.588   6.550  0.4352 -0.5290 -0.2542
  121OSM    H3F12814   5.171   5.698   6.561 -0.4121 -0.5157  0.1710
  121OSM    H3G12815   5.262   5.553   6.509  0.8803 -1.6761  1.6366
  121OSM    C4F12816   5.144   5.527   6.691  0.4057  0.0543 -0.4293
  121OSM    H4F12817   5.054   5.580   6.729 -0.8691  0.2334 -3.4053
  121OSM    H4G12818   5.226   5.552   6.761  0.1581  0.2859 -0.2181
  121OSM    C5F12819   5.126   5.377   6.695 -0.0231 -0.2917  0.5096
  121OSM    H5F12820   5.207   5.336   6.631  2.4004 -0.4904  3.4682
  121OSM    H5G12821   5.027   5.337   6.664  1.0087 -2.0522 -0.6703
  121OSM    C6F12822   5.144   5.313   6.835 -0.8632 -0.3903  0.4919
  121OSM    H6F12823   5.068   5.352   6.905 -2.2890 -0.0029 -1.1966
  121OSM    H6G12824   5.252   5.332   6.850 -0.7626  0.1021 -0.7434
  121OSM    C7F12825   5.112   5.159   6.839  0.1740  0.2368  0.5607
  121OSM    H7F12826   5.158   5.104   6.754 -0.5736  0.5680 -0.0694
  121OSM    H7G12827   5.003   5.150   6.821 -0.1633  0.9263  2.1525
  121OSM    C8F12828   5.149   5.101   6.979 -0.5467 -1.2434  0.1895
  121OSM    H8F12829   5.090   5.156   7.056  1.8017 -0.1869  1.3314
  121OSM    H8G12830   5.252   5.134   7.004 -1.5223  1.1214  1.4247
  121OSM    C9F12831   5.128   4.967   6.996  0.0700  0.5347 -0.5264
  121OSM    H9F12832   5.152   4.908   6.906 -0.7960  0.1106 -0.4820
  121OSM   C10F12833   5.094   4.906   7.115  0.8530  0.0592 -0.3610
  121OSM   H10F12834   5.097   4.796   7.120  0.2414  0.0502 -0.1204
  121OSM   C11F12835   5.066   4.977   7.252  0.3993  0.4717  0.4617
  121OSM   H11F12836   4.996   4.910   7.306  1.6987 -1.2934  0.0278
  121OSM   H11G12837   5.012   5.074   7.244 -1.0774 -0.0862  2.7669
  121OSM   C12F12838   5.190   5.000   7.340  0.7022  0.0332  0.6096
  121OSM   H12F12839   5.168   5.055   7.433 -0.4930 -0.8553  0.8745
  121OSM   H12G12840   5.259   5.062   7.279 -0.0785  3.2267  2.7234
  121OSM   C13F12841   5.266   4.873   7.382  0.6726 -0.1880  0.1053
  121OSM   H13F12842   5.356   4.903   7.440 -0.1815  0.0505  1.3751
  121OSM   H13G12843   5.300   4.841   7.282  0.6871  3.2919 -1.1352
  121OSM   C14F12844   5.193   4.757   7.452  0.7690 -0.0192  0.1101
  121OSM   H14F12845   5.270   4.677   7.456  1.6174  0.7974  0.9708
  121OSM   H14G12846   5.099   4.722   7.406  0.6331  0.9602 -0.3881
  121OSM   C15F12847   5.150   4.781   7.595 -0.2148 -0.1215 -0.1243
  121OSM   H15F12848   5.059   4.845   7.604 -1.7883 -2.3032  0.3342
  121OSM   H15G12849   5.232   4.833   7.648  1.1377 -1.0646 -1.2235
  121OSM   C16F12850   5.120   4.649   7.664  0.3118 -0.5195  0.8066
  121OSM   H16F12851   5.221   4.605   7.682  0.7900  1.1913  2.7379
  121OSM   H16G12852   5.062   4.581   7.598  0.5046 -0.7862  0.9113
  121OSM   C17F12853   5.046   4.670   7.799  0.1094 -0.3529 -0.0851
  121OSM   H17F12854   5.015   4.565   7.822  0.6531 -0.3013  0.9554
  121OSM   H17G12855   4.961   4.737   7.775  0.6074  0.3230  0.0268
  121OSM   C18F12856   5.134   4.743   7.905  0.1927 -0.0033 -0.5189
  121OSM   H18F12857   5.074   4.784   7.989 -1.8157  0.8725 -2.2962
  121OSM   H18G12858   5.191   4.829   7.864  2.0724  0.2610  2.3721
  121OSM   H18H12859   5.207   4.673   7.953 -1.6693 -0.3808  1.9756
  122OSM      N12860   4.478   0.539   5.864  0.8114  0.0886  1.2691
  122OSM    C1512861   4.409   0.497   5.996 -0.1962  0.3470 -0.5621
  122OSM   H15A12862   4.395   0.391   6.012 -1.3257  0.6364  0.5248
  122OSM   H15B12863   4.316   0.545   6.020  0.4898  0.5935  1.9151
  122OSM   H15C12864   4.479   0.527   6.072  0.6288  0.4488 -1.3478
  122OSM    C1412865   4.382   0.512   5.755  0.4538  0.7132 -0.1309
  122OSM   H14A12866   4.280   0.545   5.769 -0.4419 -0.9607 -2.1949
  122OSM   H14B12867   4.364   0.406   5.750  0.4837  0.7153 -0.3002
  122OSM   H14C12868   4.411   0.545   5.656 -0.5238  1.5105 -0.1762
  122OSM    C1312869   4.495   0.692   5.877  0.8203  1.0136 -0.4446
  122OSM   H13A12870   4.556   0.722   5.961 -0.0989  0.7121  0.3566
  122OSM   H13B12871   4.397   0.735   5.889  0.7208  0.9991 -1.1590
  122OSM   H13C12872   4.537   0.734   5.787  0.2202  1.4925 -0.5084
  122OSM    C1212873   4.612   0.473   5.845 -0.0679  0.0461  0.5116
  122OSM   H12A12874   4.671   0.485   5.935  0.7147 -1.4044  0.2231
  122OSM   H12B12875   4.667   0.516   5.763 -1.8514 -2.1442 -2.0137
  122OSM    C1112876   4.620   0.317   5.817  0.0346  0.5800 -0.5042
  122OSM   H11A12877   4.720   0.286   5.781  0.4486  0.8736  0.3679
  122OSM   H11B12878   4.548   0.301   5.734  2.0211 -3.2310 -1.7542
  122OSM      P12879   4.597   0.086   5.948 -0.3581  0.0994  0.1905
  122OSM    O1312880   4.491   0.013   6.020 -0.2608 -0.0037  0.7087
  122OSM    O1412881   4.637   0.034   5.819 -0.0058  0.3040  0.4934
  122OSM    O1112882   4.721   0.073   6.044 -0.1638 -0.3015 -0.0578
  122OSM    O1212883   4.580   0.246   5.940  0.6301  0.3942 -0.0293
  122OSM    C1S12884   4.730   0.153   6.166 -0.2074 -0.3682 -1.1478
  122OSM    H1S12885   4.692   0.255   6.145 -0.8031 -0.0552  1.1326
  122OSM    H1T12886   4.835   0.171   6.199 -0.4207  0.5078 -0.9316
  122OSM     NF12887   4.688   0.181   6.388  0.4745  0.0825 -0.6241
  122OSM    HNF12888   4.755   0.151   6.455 -1.5579  0.0407  1.5210
  122OSM    C2S12889   4.665   0.087   6.287 -0.3163  0.4541  0.1359
  122OSM    H2S12890   4.557   0.071   6.271 -0.2767  1.4297 -1.2975
  122OSM    C3S12891   4.725  -0.055   6.320 -0.4044  0.2171  0.6829
  122OSM    H3S12892   4.833  -0.034   6.336 -0.3768 -0.7451  1.9556
  122OSM     O312893   4.708  -0.139   6.207 -0.3123  0.0660  0.2130
  122OSM    HO312894   4.694  -0.077   6.135  3.6267 -0.3486 -1.1649
  122OSM    C4S12895   4.648  -0.101   6.445 -0.5013  0.4636  0.6777
  122OSM    H4S12896   4.549  -0.141   6.418 -0.3027  1.9337 -2.7046
  122OSM    C5S12897   4.686  -0.106   6.575 -0.1735  0.5503  0.1310
  122OSM    H5S12898   4.787  -0.074   6.603 -1.0229  2.8865  0.7848
  122OSM    C6S12899   4.616  -0.163   6.690 -0.2670  0.2426 -0.3310
  122OSM    H6S12900   4.676  -0.240   6.743 -1.6701  0.2953  1.4477
  122OSM    H6T12901   4.522  -0.213   6.655  0.0135  1.4110 -2.9558
  122OSM    C7S12902   4.590  -0.063   6.808 -0.1145  0.7922 -0.1138
  122OSM    H7S12903   4.542   0.027   6.765  0.3406  2.7581  3.1488
  122OSM    H7T12904   4.683  -0.030   6.859 -1.8553  2.2129  2.4020
  122OSM    C8S12905   4.504  -0.126   6.915  0.0513 -0.8323  0.5894
  122OSM    H8S12906   4.545  -0.226   6.940  1.1914 -0.4429  0.3323
  122OSM    H8T12907   4.405  -0.140   6.867 -0.1409  1.8298  0.0396
  122OSM    C9S12908   4.489  -0.041   7.042 -0.4178 -0.4437  0.4138
  122OSM    H9S12909   4.434  -0.097   7.120 -1.5920  3.0440  2.3119
  122OSM    H9T12910   4.431   0.052   7.021 -0.5069 -0.3137  1.2070
  122OSM   C10S12911   4.628  -0.011   7.103 -0.0213 -0.4313 -0.7376
  122OSM   H10S12912   4.686   0.051   7.031  3.6918 -0.2097  2.1977
  122OSM   H10T12913   4.682  -0.108   7.109  1.0586  0.1574 -0.8320
  122OSM   C11S12914   4.633   0.054   7.240 -0.0083 -0.6340 -0.4565
  122OSM   H11S12915   4.553   0.131   7.251  1.3982  0.5639  2.8293
  122OSM   H11T12916   4.728   0.111   7.241  1.1703 -2.4199  2.5562
  122OSM   C12S12917   4.624  -0.043   7.363  0.3967  0.7990 -0.0181
  122OSM   H12S12918   4.720  -0.099   7.367 -0.7259 -1.1239  2.2210
  122OSM   H12T12919   4.549  -0.122   7.340  1.9595  0.0290 -3.0535
  122OSM   C13S12920   4.596   0.025   7.494 -0.2797 -0.5255 -0.1432
  122OSM   H13S12921   4.496   0.073   7.505 -0.8286 -1.9353  1.6953
  122OSM   H13T12922   4.669   0.108   7.501  0.8600 -1.5158  0.0749
  122OSM   C14S12923   4.617  -0.059   7.622 -0.2540  0.2141 -0.2707
  122OSM   H14S12924   4.720  -0.099   7.628  0.5090  1.8259 -1.8006
  122OSM   H14T12925   4.534  -0.133   7.624 -0.4771  0.4538  1.9296
  122OSM   C15S12926   4.587   0.018   7.749  0.4804 -0.1878 -0.5463
  122OSM   H15S12927   4.479   0.024   7.772  0.4430 -0.1194 -0.7399
  122OSM   H15T12928   4.626   0.119   7.722  0.0256 -0.0325 -0.6358
  122OSM   C16S12929   4.652  -0.053   7.871  0.7406 -0.3297 -0.1945
  122OSM   H16S12930   4.761  -0.070   7.862  1.0985  1.8990 -0.4226
  122OSM   H16T12931   4.602  -0.152   7.880 -1.4846  0.6259 -1.1558
  122OSM   C17S12932   4.609   0.018   8.002  1.3846  1.0915  0.0509
  122OSM   H17S12933   4.499   0.005   8.008  1.5217 -0.4029 -0.2261
  122OSM   H17T12934   4.638   0.125   8.004  0.5709  1.3179  0.6403
  122OSM   C18S12935   4.676  -0.036   8.134  0.0486 -0.3088  0.0892
  122OSM   H18S12936   4.628  -0.006   8.230 -0.5782  2.4669 -1.0188
  122OSM   H18T12937   4.784  -0.013   8.140 -0.1453  1.0408 -1.2651
  122OSM   H18U12938   4.664  -0.147   8.132  1.2472 -0.4552 -2.7555
  122OSM    C1F12939   4.613   0.285   6.409 -0.0605 -0.2545  0.5972
  122OSM     OF12940   4.524   0.312   6.334 -0.4229 -0.1929  0.3636
  122OSM    C2F12941   4.637   0.365   6.535  0.1933  0.1699  0.0822
  122OSM    H2F12942   4.679   0.464   6.507 -1.8029  0.7465 -1.1621
  122OSM    H2G12943   4.723   0.312   6.581  0.6314 -0.8122 -1.7703
  122OSM    C3F12944   4.510   0.380   6.634 -1.0444 -0.8198  0.5013
  122OSM    H3F12945   4.471   0.279   6.660 -0.2019 -2.0021 -2.4329
  122OSM    H3G12946   4.426   0.429   6.579 -0.2979  0.1697  0.2184
  122OSM    C4F12947   4.546   0.465   6.755 -0.2372  0.0039 -0.7141
  122OSM    H4F12948   4.449   0.473   6.809  0.2162 -1.8797  0.4767
  122OSM    H4G12949   4.587   0.566   6.736 -0.2650  0.0522 -0.5106
  122OSM    C5F12950   4.634   0.392   6.862 -0.1889  0.1789 -0.3174
  122OSM    H5F12951   4.738   0.384   6.822  1.6164  1.2928  3.6302
  122OSM    H5G12952   4.596   0.288   6.875  2.0761 -0.4750  1.9354
  122OSM    C6F12953   4.649   0.464   6.998  0.5165  0.3150 -0.4538
  122OSM    H6F12954   4.553   0.468   7.054  1.1019 -2.1601  0.8526
  122OSM    H6G12955   4.677   0.569   6.974 -0.1676  0.7579  0.6035
  122OSM    C7F12956   4.751   0.399   7.092  0.2931  0.4000  0.6258
  122OSM    H7F12957   4.845   0.391   7.033 -0.6299  0.4660 -0.8840
  122OSM    H7G12958   4.714   0.297   7.117 -5.3925  1.7636 -0.8441
  122OSM    C8F12959   4.789   0.482   7.218 -0.1165 -0.4491  0.1783
  122OSM    H8F12960   4.847   0.572   7.188  0.0010 -0.7879 -0.6360
  122OSM    H8G12961   4.855   0.427   7.288 -0.7268  0.7594  1.7597
  122OSM    C9F12962   4.672   0.528   7.300 -0.2643 -0.1015 -0.1845
  122OSM    H9F12963   4.599   0.581   7.237  2.1898 -0.8029 -3.9631
  122OSM   C10F12964   4.652   0.514   7.435 -0.1788  0.3514  0.1710
  122OSM   H10F12965   4.556   0.548   7.478 -0.4105 -2.2434  1.9481
  122OSM   C11F12966   4.746   0.444   7.538  0.8950 -0.0258  0.0370
  122OSM   H11F12967   4.849   0.431   7.497  0.3891  0.2146 -1.3703
  122OSM   H11G12968   4.701   0.347   7.569  1.4991 -1.4564 -3.1372
  122OSM   C12F12969   4.763   0.523   7.674  0.0673 -0.0124 -0.3834
  122OSM   H12F12970   4.661   0.554   7.704 -0.5623  0.9138 -3.2405
  122OSM   H12G12971   4.819   0.619   7.665 -2.5864  1.5886 -0.6861
  122OSM   C13F12972   4.829   0.432   7.784  0.1832  0.0147 -0.2265
  122OSM   H13F12973   4.937   0.418   7.763 -0.2446 -1.4352 -1.6376
  122OSM   H13G12974   4.799   0.326   7.773 -1.0799  0.2386  0.8584
  122OSM   C14F12975   4.815   0.489   7.929  0.2829 -0.5529 -0.0595
  122OSM   H14F12976   4.710   0.462   7.952  0.3733 -1.9688 -1.2197
  122OSM   H14G12977   4.833   0.599   7.940  0.0300 -0.1640 -2.7840
  122OSM   C15F12978   4.922   0.436   8.029 -0.3977 -0.3108 -0.2346
  122OSM   H15F12979   5.007   0.504   8.050 -1.1219  0.6235 -0.2911
  122OSM   H15G12980   4.955   0.337   7.992  0.8846 -0.3515  0.9221
  122OSM   C16F12981   4.857   0.397   8.166  0.3651 -0.3593  0.8959
  122OSM   H16F12982   4.763   0.342   8.146  0.3668  0.2050 -0.8264
  122OSM   H16G12983   4.826   0.486   8.225  1.6574  1.4451 -0.9807
  122OSM   C17F12984   4.951   0.304   8.242  0.1791 -0.1663  0.4593
  122OSM   H17F12985   5.041   0.353   8.286  1.2701 -0.0927 -1.7130
  122OSM   H17G12986   4.986   0.238   8.160  1.1206  0.1699  0.5769
  122OSM   C18F12987   4.873   0.236   8.352  0.3798 -0.6118  0.3731
  122OSM   H18F12988   4.800   0.171   8.300 -1.1495 -0.5982  2.3768
  122OSM   H18G12989   4.847   0.314   8.427  0.5604 -0.7238  0.5533
  122OSM   H18H12990   4.941   0.166   8.404  0.2768 -0.4303  0.7565
  123OSM      N12991   3.042   3.890   6.097  0.7914 -0.4520  0.1033
  123OSM    C1512992   3.177   3.898   6.031 -0.4195  0.8346 -0.5973
  123OSM   H15A12993   3.250   3.949   6.092 -1.7646  2.2398 -0.0950
  123OSM   H15B12994   3.164   3.945   5.934 -0.6850  1.7704 -0.1210
  123OSM   H15C12995   3.203   3.797   6.003 -0.6078  1.6268 -4.1597
  123OSM    C1412996   2.995   4.033   6.090  0.4517 -0.4130  0.2585
  123OSM   H14A12997   2.892   4.052   6.116  0.1608 -1.9559  0.3319
  123OSM   H14B12998   2.999   4.063   5.986 -0.2537 -0.2382  0.2746
  123OSM   H14C12999   3.064   4.096   6.144  1.6627 -1.9558  0.5780
  123OSM    C1313000   2.950   3.805   6.014  0.2742  1.1666 -0.0325
  123OSM   H13A13001   2.969   3.815   5.908 -0.9652 -0.6329 -0.4832
  123OSM   H13B13002   2.846   3.827   6.035  0.4322  0.8972  1.1175
  123OSM   H13C13003   2.957   3.702   6.048 -0.8891  0.5335 -1.6095
  123OSM    C1213004   3.052   3.845   6.238  0.9063 -0.0341  0.1357
  123OSM   H12A13005   2.954   3.857   6.281  1.3873  0.7747  1.0423
  123OSM   H12B13006   3.125   3.913   6.280  1.0780 -0.3998  0.4353
  123OSM    C1113007   3.089   3.696   6.271  0.7472  0.1609  0.6598
  123OSM   H11A13008   3.108   3.703   6.380 -2.4796 -0.3714  1.3856
  123OSM   H11B13009   3.184   3.680   6.217  0.0424 -0.5676 -0.4203
  123OSM      P13010   2.846   3.607   6.280  0.1827 -0.2477 -0.0247
  123OSM    O1313011   2.806   3.736   6.338 -0.6753 -0.4520  0.1813
  123OSM    O1413012   2.768   3.554   6.170  0.0641  0.4058  0.2676
  123OSM    O1113013   2.851   3.501   6.400 -0.2713  0.1925 -0.3971
  123OSM    O1213014   2.997   3.600   6.235 -0.1330 -0.3921 -0.4693
  123OSM    C1S13015   2.894   3.528   6.534 -0.2204  0.1713 -0.5833
  123OSM    H1S13016   2.945   3.627   6.544 -0.5698  0.1125  2.6945
  123OSM    H1T13017   2.966   3.448   6.561  0.5212  0.9628 -0.1491
  123OSM     NF13018   2.834   3.541   6.764 -0.4547  0.2498 -0.2396
  123OSM    HNF13019   2.871   3.455   6.799  2.1141  1.7889  1.1425
  123OSM    C2S13020   2.778   3.525   6.631  0.5328 -0.7263 -0.4832
  123OSM    H2S13021   2.720   3.618   6.612 -0.1935 -1.2469 -0.8668
  123OSM    C3S13022   2.687   3.407   6.626  0.6023  0.9922  0.2482
  123OSM    H3S13023   2.744   3.314   6.644 -0.4941  0.0873 -0.7625
  123OSM     O313024   2.631   3.386   6.497  0.1626  0.6176 -0.3190
  123OSM    HO313025   2.701   3.411   6.436  1.7162 -0.4918  0.9473
  123OSM    C4S13026   2.576   3.397   6.730 -0.1518 -0.3913 -0.6730
  123OSM    H4S13027   2.485   3.457   6.721  0.3170  0.7591  1.4610
  123OSM    C5S13028   2.570   3.306   6.826 -0.2695  0.1713  0.0238
  123OSM    H5S13029   2.644   3.227   6.843 -1.1592 -0.7050 -0.0735
  123OSM    C6S13030   2.459   3.295   6.916 -0.1546 -0.5300 -0.1714
  123OSM    H6S13031   2.397   3.209   6.883 -0.5256  0.4174 -2.1399
  123OSM    H6T13032   2.396   3.387   6.920  2.3708  1.2396  1.5695
  123OSM    C7S13033   2.519   3.281   7.048  0.6740 -0.3922 -0.4822
  123OSM    H7S13034   2.559   3.380   7.076  0.9113 -0.1306 -1.6728
  123OSM    H7T13035   2.596   3.202   7.056 -0.0421 -1.0733 -0.1262
  123OSM    C8S13036   2.412   3.248   7.157 -0.0879 -0.2052  0.0486
  123OSM    H8S13037   2.370   3.150   7.128  0.8385 -0.4769 -0.4093
  123OSM    H8T13038   2.340   3.333   7.157  1.8672  1.5625 -0.6484
  123OSM    C9S13039   2.478   3.244   7.296  0.3219 -0.0651 -0.9154
  123OSM    H9S13040   2.551   3.327   7.298 -0.4993  0.6715 -0.9608
  123OSM    H9T13041   2.530   3.146   7.306  0.3392 -0.0490 -0.8483
  123OSM   C10S13042   2.378   3.251   7.412 -1.1033  0.3108 -0.4063
  123OSM   H10S13043   2.296   3.178   7.399 -0.4842 -1.1951  3.1774
  123OSM   H10T13044   2.335   3.351   7.389 -0.5421  0.8744  0.8947
  123OSM   C11S13045   2.439   3.266   7.551  0.0999 -0.0774 -0.7045
  123OSM   H11S13046   2.497   3.360   7.566  1.1867 -1.1654  2.9274
  123OSM   H11T13047   2.512   3.184   7.567 -0.9053 -0.9059 -0.3299
  123OSM   C12S13048   2.330   3.271   7.664 -0.1198  0.1010  0.0527
  123OSM   H12S13049   2.280   3.171   7.667 -1.2152  0.6523  1.1933
  123OSM   H12T13050   2.260   3.349   7.629  0.1452 -0.7968 -2.7078
  123OSM   C13S13051   2.380   3.299   7.812 -0.4265  0.0043  0.6425
  123OSM   H13S13052   2.426   3.400   7.812  0.1232 -0.2241  2.1660
  123OSM   H13T13053   2.462   3.227   7.834 -0.0118 -0.1806 -1.3006
  123OSM   C14S13054   2.261   3.286   7.909  0.5614 -0.4958  1.3930
  123OSM   H14S13055   2.228   3.180   7.901  2.4917 -1.0720  0.5545
  123OSM   H14T13056   2.181   3.342   7.856  1.6292 -0.9835 -0.8005
  123OSM   C15S13057   2.282   3.327   8.054  0.0353  0.3195 -0.3347
  123OSM   H15S13058   2.186   3.342   8.109 -0.7804  0.4445 -1.7611
  123OSM   H15T13059   2.329   3.427   8.065 -1.5000  1.0053  0.2686
  123OSM   C16S13060   2.362   3.219   8.149 -0.3470 -0.3703 -0.3307
  123OSM   H16S13061   2.383   3.267   8.247 -0.6667 -1.5479  0.3360
  123OSM   H16T13062   2.461   3.184   8.112 -0.8655 -1.4922 -0.7110
  123OSM   C17S13063   2.280   3.097   8.186  0.3684 -0.4823 -0.1261
  123OSM   H17S13064   2.225   3.056   8.098  0.7814 -2.2179  0.3737
  123OSM   H17T13065   2.197   3.139   8.246  0.0262 -2.5805  0.9869
  123OSM   C18S13066   2.352   2.991   8.268  0.3864 -0.5820  0.2132
  123OSM   H18S13067   2.393   3.030   8.363 -0.2636  1.4853 -0.3070
  123OSM   H18T13068   2.436   2.942   8.214  2.8062  1.1068  2.2059
  123OSM   H18U13069   2.283   2.909   8.298  0.9205 -1.2383 -0.3156
  123OSM    C1F13070   2.880   3.658   6.816  0.6224  0.1233 -0.3830
  123OSM     OF13071   2.850   3.767   6.768  0.1114 -0.5102 -0.7244
  123OSM    C2F13072   2.971   3.639   6.936  0.1876 -0.4921  0.6786
  123OSM    H2F13073   3.064   3.694   6.910 -0.3864 -0.0790 -0.5969
  123OSM    H2G13074   3.000   3.534   6.958  0.4026 -0.5544  0.0927
  123OSM    C3F13075   2.893   3.690   7.060  0.4487  0.1682 -1.0418
  123OSM    H3F13076   2.810   3.620   7.085  0.5698  0.6489  0.9276
  123OSM    H3G13077   2.844   3.789   7.048 -0.4740  0.1359  1.6191
  123OSM    C4F13078   2.978   3.698   7.193  0.7853 -0.3277  0.1663
  123OSM    H4F13079   3.042   3.788   7.178 -1.2775  1.1687 -0.0517
  123OSM    H4G13080   3.030   3.601   7.205 -0.3588 -1.3486 -2.3190
  123OSM    C5F13081   2.876   3.701   7.308 -0.3969  0.3917  0.0343
  123OSM    H5F13082   2.818   3.606   7.319 -1.8289  1.4036  1.7510
  123OSM    H5G13083   2.795   3.776   7.300 -2.0473 -0.9651  2.6106
  123OSM    C6F13084   2.940   3.722   7.449 -0.6251 -0.6326 -0.5138
  123OSM    H6F13085   2.991   3.821   7.447 -1.1439 -0.2085  2.3197
  123OSM    H6G13086   3.025   3.654   7.470 -0.4321  0.2371  1.8800
  123OSM    C7F13087   2.839   3.722   7.561 -0.1606 -0.2066  0.2737
  123OSM    H7F13088   2.794   3.620   7.568 -4.1984  1.2124 -2.0263
  123OSM    H7G13089   2.761   3.799   7.545  1.8862  1.4222 -2.8882
  123OSM    C8F13090   2.901   3.748   7.702 -0.2378  0.4263  0.0265
  123OSM    H8F13091   2.987   3.678   7.716  1.4574  2.6488  1.4862
  123OSM    H8G13092   2.830   3.719   7.782  0.4542 -0.5551  0.3069
  123OSM    C9F13093   2.938   3.892   7.719  0.0342 -0.7651 -0.2910
  123OSM    H9F13094   2.948   3.959   7.632 -4.7325  2.7287  1.4165
  123OSM   C10F13095   2.951   3.953   7.838  0.6483 -0.1351  0.6451
  123OSM   H10F13096   2.984   4.059   7.842  3.0598 -0.8222  0.8039
  123OSM   C11F13097   2.923   3.893   7.974  0.1920 -0.1556  0.5165
  123OSM   H11F13098   2.947   3.785   7.976  1.0887 -0.1411 -2.8426
  123OSM   H11G13099   2.815   3.903   7.999 -0.7332 -1.6576 -2.4938
  123OSM   C12F13100   3.011   3.976   8.067  0.4302  0.8092 -0.5871
  123OSM   H12F13101   2.969   4.078   8.078 -1.1872  0.1483 -0.4231
  123OSM   H12G13102   3.116   3.988   8.033  0.6007 -0.3353 -0.5195
  123OSM   C13F13103   3.030   3.910   8.200 -0.4737  0.5434  0.0874
  123OSM   H13F13104   3.104   3.827   8.193 -0.9313  0.2124 -1.0149
  123OSM   H13G13105   2.934   3.862   8.228 -0.1580 -0.3285 -0.2758
  123OSM   C14F13106   3.078   4.001   8.311 -0.0757  0.6532 -0.6522
  123OSM   H14F13107   2.995   4.068   8.340 -1.0076 -0.2887 -1.0763
  123OSM   H14G13108   3.157   4.065   8.267  2.1030 -1.9651 -0.8377
  123OSM   C15F13109   3.115   3.935   8.451  0.6620 -0.5520 -0.1096
  123OSM   H15F13110   3.188   3.855   8.427 -0.6155 -1.4813 -1.0662
  123OSM   H15G13111   3.027   3.878   8.487  1.5077 -2.6439 -1.1504
  123OSM   C16F13112   3.177   4.033   8.546  0.8369 -0.0743 -0.6116
  123OSM   H16F13113   3.105   4.096   8.601  3.5873  1.9278  0.9649
  123OSM   H16G13114   3.240   4.107   8.491  0.4360  0.9225  0.2408
  123OSM   C17F13115   3.259   3.959   8.645  0.2807  0.3874 -0.3043
  123OSM   H17F13116   3.333   4.032   8.685  0.2468  0.5122 -0.4701
  123OSM   H17G13117   3.318   3.874   8.603  0.6419  1.3079 -1.7249
  123OSM   C18F13118   3.189   3.895   8.767  0.3638  0.6517 -0.9830
  123OSM   H18F13119   3.133   3.802   8.743  0.3592  0.5752 -0.6732
  123OSM   H18G13120   3.115   3.961   8.817 -2.0818 -2.3127 -0.4038
  123OSM   H18H13121   3.264   3.867   8.844 -2.2229 -0.3010  1.3282
  124OSM      N13122   2.664   5.912   6.116  0.1334 -0.3721  0.7826
  124OSM    C1513123   2.684   6.067   6.100  0.1147  0.0087  0.3027
  124OSM   H15A13124   2.686   6.127   6.190  0.9311  2.0796 -1.0302
  124OSM   H15B13125   2.605   6.111   6.041  0.6780  1.4698  0.5819
  124OSM   H15C13126   2.766   6.090   6.033  1.3074  1.6111  2.2046
  124OSM    C1413127   2.752   5.870   6.224 -0.0355  0.3195  0.0103
  124OSM   H14A13128   2.735   5.922   6.318 -2.8438 -0.6180  0.1285
  124OSM   H14B13129   2.855   5.890   6.202 -0.1033 -1.3724 -2.1860
  124OSM   H14C13130   2.733   5.765   6.239 -1.3528  0.2981 -1.5874
  124OSM    C1313131   2.520   5.879   6.151  0.3264  0.4825  0.1743
  124OSM   H13A13132   2.452   5.901   6.070  0.0126  1.1105  0.6023
  124OSM   H13B13133   2.493   5.927   6.243 -3.6116 -0.5425 -0.2391
  124OSM   H13C13134   2.517   5.773   6.171 -0.0808  0.7536  1.6273
  124OSM    C1213135   2.701   5.842   5.990  0.3503  0.4360  0.7476
  124OSM   H12A13136   2.803   5.870   5.968  0.4151 -0.1655  0.2476
  124OSM   H12B13137   2.633   5.885   5.918 -1.3914 -0.1707  1.9710
  124OSM    C1113138   2.694   5.683   5.988 -0.3955 -0.6062  0.4374
  124OSM   H11A13139   2.756   5.656   5.900  0.0577 -0.4439  0.7027
  124OSM   H11B13140   2.587   5.663   5.966 -0.8578  1.9418  0.0806
  124OSM      P13141   2.877   5.550   6.121 -0.0299 -0.1783 -0.0585
  124OSM    O1313142   2.904   5.449   6.016 -0.0273 -0.3779 -0.0860
  124OSM    O1413143   2.983   5.641   6.141  0.1346 -0.4240  0.2421
  124OSM    O1113144   2.862   5.469   6.255  0.6589  0.0561 -0.9460
  124OSM    O1213145   2.735   5.615   6.107 -0.4123 -0.3127 -0.3236
  124OSM    C1S13146   2.862   5.537   6.381  0.1470 -0.2205 -0.5031
  124OSM    H1S13147   2.762   5.581   6.402  0.1537 -0.1885 -0.5387
  124OSM    H1T13148   2.927   5.627   6.385 -1.6391  1.0916 -0.0950
  124OSM     NF13149   2.868   5.516   6.618 -0.5381  0.1430 -0.8278
  124OSM    HNF13150   2.944   5.568   6.658  1.2919 -0.0601 -3.7787
  124OSM    C2S13151   2.906   5.448   6.492 -0.2660 -0.1107 -0.2864
  124OSM    H2S13152   2.854   5.351   6.482 -1.5991  0.6457 -0.9576
  124OSM    C3S13153   3.061   5.414   6.482 -0.0770 -0.0676  0.0264
  124OSM    H3S13154   3.103   5.516   6.465 -0.4701  0.1106  0.0989
  124OSM     O313155   3.092   5.344   6.365 -0.1002  0.4732  0.0314
  124OSM    HO313156   3.012   5.349   6.312  0.5422  0.5528 -0.9684
  124OSM    C4S13157   3.111   5.360   6.616  0.0198  0.2122 -0.0975
  124OSM    H4S13158   3.131   5.439   6.690 -0.2878  1.7633 -1.5749
  124OSM    C5S13159   3.149   5.233   6.652  0.7806 -0.1367 -0.3311
  124OSM    H5S13160   3.142   5.151   6.580  0.3770 -1.2242  0.9047
  124OSM    C6S13161   3.206   5.203   6.789 -0.9765  0.2982 -0.2734
  124OSM    H6S13162   3.313   5.177   6.774 -1.1346 -0.6366  0.1895
  124OSM    H6T13163   3.157   5.115   6.836  0.1180 -0.2322 -0.1028
  124OSM    C7S13164   3.203   5.308   6.897  0.9183 -0.2412  0.9702
  124OSM    H7S13165   3.099   5.346   6.901  0.3582 -1.6561  0.4631
  124OSM    H7T13166   3.254   5.395   6.850 -1.5330 -0.7993 -3.2441
  124OSM    C8S13167   3.284   5.263   7.013 -0.2817 -0.2739 -0.2859
  124OSM    H8S13168   3.385   5.228   6.981  1.2786  1.5561  2.2298
  124OSM    H8T13169   3.243   5.178   7.072  2.7410  0.5011  3.3785
  124OSM    C9S13170   3.305   5.377   7.116  0.0267  0.0962 -0.5056
  124OSM    H9S13171   3.208   5.430   7.125  0.2060  0.3100  0.3125
  124OSM    H9T13172   3.372   5.454   7.073  1.0651  0.6059  1.8653
  124OSM   C10S13173   3.364   5.320   7.247 -0.6279  0.5899 -0.2028
  124OSM   H10S13174   3.462   5.281   7.211 -1.0898 -2.7248  1.7078
  124OSM   H10T13175   3.300   5.242   7.293  1.5257 -1.0273  0.1997
  124OSM   C11S13176   3.391   5.428   7.350 -0.3917 -0.0948 -0.4247
  124OSM   H11S13177   3.294   5.479   7.368 -0.7690 -0.4983 -1.2672
  124OSM   H11T13178   3.459   5.502   7.304 -0.2534  0.3735  0.5065
  124OSM   C12S13179   3.450   5.387   7.490  0.4552  0.5593  0.2946
  124OSM   H12S13180   3.556   5.360   7.469  0.4991  0.9287  0.0436
  124OSM   H12T13181   3.421   5.288   7.532  0.3158  0.2248 -0.5635
  124OSM   C13S13182   3.448   5.494   7.593  0.0186  0.1249  0.0157
  124OSM   H13S13183   3.354   5.499   7.652 -0.2643  1.3553 -0.5011
  124OSM   H13T13184   3.461   5.591   7.541  2.4348 -0.2143 -0.1074
  124OSM   C14S13185   3.576   5.490   7.696 -0.1038  0.6540  0.6584
  124OSM   H14S13186   3.664   5.460   7.634  0.1613  1.6416  0.5349
  124OSM   H14T13187   3.549   5.417   7.775 -1.6197  1.5846  1.0384
  124OSM   C15S13188   3.607   5.629   7.764  0.3665  0.1909  0.1741
  124OSM   H15S13189   3.517   5.664   7.818  0.5973  0.0867  0.6261
  124OSM   H15T13190   3.637   5.706   7.689  0.4801 -0.3381 -0.3330
  124OSM   C16S13191   3.729   5.626   7.858  0.8548 -0.9666  0.9643
  124OSM   H16S13192   3.822   5.597   7.805  0.5096  1.7958 -1.3894
  124OSM   H16T13193   3.723   5.550   7.939  0.4935  1.4641  3.3555
  124OSM   C17S13194   3.770   5.760   7.914 -0.1632  0.8817 -0.7291
  124OSM   H17S13195   3.821   5.820   7.836  1.1500 -0.3669 -0.8758
  124OSM   H17T13196   3.855   5.752   7.986  0.3281  0.6679 -1.3301
  124OSM   C18S13197   3.662   5.843   7.992  0.2453 -0.3714  0.2095
  124OSM   H18S13198   3.598   5.781   8.060  0.8509 -0.4805  0.6961
  124OSM   H18T13199   3.610   5.898   7.911  0.6264 -3.1232 -2.0817
  124OSM   H18U13200   3.715   5.907   8.066  0.4004  0.5992 -0.7265
  124OSM    C1F13201   2.738   5.526   6.661 -0.2008 -0.2143  0.5323
  124OSM     OF13202   2.647   5.463   6.613 -0.3563  0.0430 -0.1569
  124OSM    C2F13203   2.716   5.637   6.757  0.1521  0.1483 -0.2617
  124OSM    H2F13204   2.769   5.726   6.718  0.4581  0.1314  0.1104
  124OSM    H2G13205   2.772   5.594   6.842 -1.2057 -1.7475 -0.2700
  124OSM    C3F13206   2.571   5.659   6.783  0.1421  0.6649 -0.0045
  124OSM    H3F13207   2.511   5.567   6.800 -0.0115  0.5477 -1.0672
  124OSM    H3G13208   2.531   5.709   6.692 -1.2619  0.7092  0.6207
  124OSM    C4F13209   2.544   5.751   6.903  0.0168  0.2112 -0.3831
  124OSM    H4F13210   2.434   5.767   6.901  0.2576  2.1371 -0.2611
  124OSM    H4G13211   2.603   5.844   6.889  1.1260 -0.3462  0.4094
  124OSM    C5F13212   2.595   5.691   7.041 -0.2963 -0.2858 -0.0249
  124OSM    H5F13213   2.705   5.705   7.041 -0.4772  1.4149  0.9296
  124OSM    H5G13214   2.565   5.584   7.046 -0.9853 -0.1424 -0.6825
  124OSM    C6F13215   2.549   5.766   7.165  0.1929  0.2295 -0.6001
  124OSM    H6F13216   2.441   5.777   7.145  0.2346 -1.7559 -2.3088
  124OSM    H6G13217   2.590   5.869   7.168 -1.8449  1.0617  0.9935
  124OSM    C7F13218   2.568   5.682   7.291 -0.0407  0.4058  0.1374
  124OSM    H7F13219   2.671   5.640   7.298  0.0593  0.3961 -1.1800
  124OSM    H7G13220   2.496   5.597   7.290 -0.6253  0.8637  1.3735
  124OSM    C8F13221   2.526   5.760   7.416 -0.1896 -0.2070 -0.3772
  124OSM    H8F13222   2.524   5.685   7.498 -0.3908 -0.7389 -0.8616
  124OSM    H8G13223   2.427   5.808   7.400 -0.9384 -0.6647  2.2821
  124OSM    C9F13224   2.621   5.867   7.451 -0.1118  0.1256  0.5339
  124OSM    H9F13225   2.671   5.921   7.370  0.2592  0.9867  1.3146
  124OSM   C10F13226   2.649   5.906   7.575 -0.0861  0.8423 -0.5852
  124OSM   H10F13227   2.728   5.981   7.589  1.5573 -0.6036 -1.6784
  124OSM   C11F13228   2.591   5.853   7.705 -0.4348 -1.2449 -0.1678
  124OSM   H11F13229   2.666   5.782   7.745  0.5155  0.4230  1.1952
  124OSM   H11G13230   2.484   5.824   7.702 -0.6356 -0.4928 -1.9389
  124OSM   C12F13231   2.593   5.977   7.797 -0.2079  0.5655 -0.2096
  124OSM   H12F13232   2.535   6.060   7.752  0.4378  2.0033  1.4769
  124OSM   H12G13233   2.701   5.998   7.804  0.2560 -2.0231  2.8666
  124OSM   C13F13234   2.545   5.942   7.936 -0.3745  0.1416  0.1715
  124OSM   H13F13235   2.601   5.855   7.977  0.1858  1.1555  1.6244
  124OSM   H13G13236   2.441   5.904   7.936  0.1024 -1.2342  0.4170
  124OSM   C14F13237   2.547   6.064   8.037 -0.4361 -0.4159  0.0606
  124OSM   H14F13238   2.485   6.035   8.124  0.4219  0.8339  1.1377
  124OSM   H14G13239   2.496   6.149   7.987 -0.1458 -1.8726 -2.9039
  124OSM   C15F13240   2.688   6.090   8.085  0.6265  0.7923  0.4498
  124OSM   H15F13241   2.759   6.108   8.002  0.6259 -2.5383 -0.4545
  124OSM   H15G13242   2.713   5.988   8.123  1.0202 -0.1763 -2.1873
  124OSM   C16F13243   2.698   6.199   8.189 -1.1665 -0.2903  0.5242
  124OSM   H16F13244   2.637   6.168   8.277  0.4493  3.2834  3.1971
  124OSM   H16G13245   2.653   6.290   8.144  1.3641  0.4267 -0.7818
  124OSM   C17F13246   2.841   6.234   8.231  0.1907 -0.2449 -0.4374
  124OSM   H17F13247   2.836   6.313   8.309  2.4683 -1.6368  1.2503
  124OSM   H17G13248   2.895   6.283   8.148 -3.5276  0.4805 -2.6966
  124OSM   C18F13249   2.919   6.105   8.272  0.9421 -0.5458  0.1053
  124OSM   H18F13250   2.869   6.070   8.365 -2.2977 -1.3423 -1.7799
  124OSM   H18G13251   3.024   6.129   8.301  1.3203 -0.4464 -1.2743
  124OSM   H18H13252   2.924   6.031   8.189 -0.4642 -0.8268  0.2545
  125OSM      N13253   6.368   2.336   5.984  0.0562  0.2439  0.3242
  125OSM    C1513254   6.364   2.220   5.890  0.0045 -0.3724 -0.1733
  125OSM   H15A13255   6.279   2.227   5.823  0.2483 -0.3364 -0.4811
  125OSM   H15B13256   6.356   2.123   5.936 -2.8261 -0.4219 -0.5574
  125OSM   H15C13257   6.461   2.226   5.842  0.8679  1.2249  1.6384
  125OSM    C1413258   6.238   2.336   6.059 -0.0943  0.0278  0.2695
  125OSM   H14A13259   6.212   2.244   6.109 -1.4892 -0.3307 -1.0248
  125OSM   H14B13260   6.164   2.357   5.983  0.7260  1.3087 -0.2043
  125OSM   H14C13261   6.243   2.410   6.137 -0.2319 -0.9245  1.1958
  125OSM    C1313262   6.485   2.327   6.083  0.1363 -0.4626 -0.3059
  125OSM   H13A13263   6.578   2.309   6.032 -0.0751 -2.0648 -0.1746
  125OSM   H13B13264   6.466   2.248   6.154 -1.2598  0.8144  0.8131
  125OSM   H13C13265   6.500   2.419   6.137 -0.1250 -1.8082  2.1688
  125OSM    C1213266   6.374   2.464   5.899 -0.3392 -0.4791  0.2985
  125OSM   H12A13267   6.297   2.476   5.824 -0.3233 -1.0059  0.1921
  125OSM   H12B13268   6.460   2.448   5.835  0.5024 -0.5762  1.4247
  125OSM    C1113269   6.400   2.596   5.973  0.6399 -0.6763  0.5469
  125OSM   H11A13270   6.309   2.619   6.033  0.3692  0.0146 -0.1098
  125OSM   H11B13271   6.402   2.683   5.903  3.7356 -1.2620 -0.2097
  125OSM      P13272   6.658   2.602   5.965 -0.1586 -0.2823 -0.0137
  125OSM    O1313273   6.706   2.462   5.948  0.4073 -0.4054  0.1393
  125OSM    O1413274   6.650   2.687   5.839  0.7960  0.3021  0.0893
  125OSM    O1113275   6.749   2.677   6.076  0.1659  0.1367  0.5846
  125OSM    O1213276   6.522   2.597   6.048 -0.6858 -1.0856  0.5120
  125OSM    C1S13277   6.714   2.804   6.120  0.1155 -0.2798 -0.3808
  125OSM    H1S13278   6.628   2.856   6.072  0.7189  1.5779  0.4649
  125OSM    H1T13279   6.796   2.862   6.074 -0.5058 -0.9968 -2.5241
  125OSM     NF13280   6.686   2.945   6.328 -0.2651 -0.2751 -0.9337
  125OSM    HNF13281   6.763   3.003   6.352  0.7986 -2.0109 -0.0344
  125OSM    C2S13282   6.706   2.809   6.279  0.5220 -0.0396 -0.0406
  125OSM    H2S13283   6.614   2.755   6.311  0.0795 -0.5409 -2.0356
  125OSM    C3S13284   6.820   2.720   6.342  0.1359  0.4413 -1.2750
  125OSM    H3S13285   6.903   2.789   6.315 -0.6353  2.0831  0.3550
  125OSM     O313286   6.845   2.588   6.290  0.4519 -0.2212 -0.2619
  125OSM    HO313287   6.805   2.593   6.203 -0.8293  1.8451  0.3646
  125OSM    C4S13288   6.803   2.713   6.495 -0.2019 -0.7779 -0.6472
  125OSM    H4S13289   6.717   2.655   6.532 -0.1975  0.0198  0.6578
  125OSM    C5S13290   6.888   2.771   6.582  0.1076 -0.2210 -0.4058
  125OSM    H5S13291   6.975   2.826   6.543  0.3997 -0.6646 -0.3857
  125OSM    C6S13292   6.876   2.779   6.730 -0.1976 -0.0463 -0.5536
  125OSM    H6S13293   6.962   2.734   6.784 -0.3543 -0.7148 -0.8495
  125OSM    H6T13294   6.790   2.736   6.785  0.9397 -2.1454 -0.2947
  125OSM    C7S13295   6.880   2.925   6.765 -0.3313 -0.4447 -0.4098
  125OSM    H7S13296   6.839   3.000   6.693 -0.4830  1.8557  1.9265
  125OSM    H7T13297   6.985   2.961   6.776 -1.0354  2.1471 -1.4507
  125OSM    C8S13298   6.813   2.963   6.895 -0.3644 -0.4683 -0.6097
  125OSM    H8S13299   6.706   2.937   6.907 -0.0638 -1.1181  0.9613
  125OSM    H8T13300   6.821   3.073   6.909  0.7313 -0.3090 -2.3048
  125OSM    C9S13301   6.879   2.901   7.022 -0.0818  0.1186 -0.4094
  125OSM    H9S13302   6.986   2.931   7.023 -0.7724  2.8185 -0.1664
  125OSM    H9T13303   6.875   2.790   7.024 -0.8170  0.1471  0.6843
  125OSM   C10S13304   6.822   2.964   7.150 -0.1153  0.5279  0.2082
  125OSM   H10S13305   6.711   2.954   7.151 -0.2792  2.0006 -0.6420
  125OSM   H10T13306   6.835   3.074   7.145  0.4066  0.4528 -0.0725
  125OSM   C11S13307   6.878   2.906   7.281  0.2434 -0.6476 -0.0588
  125OSM   H11S13308   6.977   2.952   7.301  0.0216  0.4485 -1.4008
  125OSM   H11T13309   6.904   2.801   7.256 -0.3219 -0.8761  0.2758
  125OSM   C12S13310   6.783   2.913   7.403 -0.1655 -0.4597 -0.4966
  125OSM   H12S13311   6.840   2.871   7.489  0.4206 -1.8897 -1.5458
  125OSM   H12T13312   6.691   2.853   7.391  0.6388 -1.4092 -2.2339
  125OSM   C13S13313   6.721   3.058   7.422  0.1144  0.2599 -0.5555
  125OSM   H13S13314   6.671   3.091   7.329 -0.5093 -0.0024 -0.3157
  125OSM   H13T13315   6.807   3.129   7.431  1.1288 -0.9290 -0.6860
  125OSM   C14S13316   6.616   3.082   7.535 -0.0969  0.5796  0.2004
  125OSM   H14S13317   6.657   3.052   7.634 -0.8103  2.6755  1.1935
  125OSM   H14T13318   6.521   3.029   7.512  0.8240 -0.1874 -2.1130
  125OSM   C15S13319   6.566   3.226   7.547 -0.8874 -0.1167 -0.2825
  125OSM   H15S13320   6.502   3.256   7.461 -0.3930  1.4095 -0.1473
  125OSM   H15T13321   6.656   3.289   7.529 -2.1929  1.9693  0.1754
  125OSM   C16S13322   6.510   3.258   7.690  0.0652 -0.7041 -0.1912
  125OSM   H16S13323   6.578   3.216   7.768  0.4337  3.8357  2.3123
  125OSM   H16T13324   6.406   3.228   7.715  0.6915 -2.0801  0.8897
  125OSM   C17S13325   6.516   3.416   7.715  0.5180  0.5114 -0.1441
  125OSM   H17S13326   6.456   3.464   7.635 -0.1670 -1.2598 -0.7444
  125OSM   H17T13327   6.619   3.459   7.717  0.6109  0.3345  2.0752
  125OSM   C18S13328   6.470   3.454   7.860  0.0629 -0.0082  0.8957
  125OSM   H18S13329   6.509   3.383   7.935  0.6231 -0.3328  0.3092
  125OSM   H18T13330   6.362   3.475   7.877 -0.0386 -0.1465  0.4434
  125OSM   H18U13331   6.524   3.544   7.897 -2.4162  0.7851  2.8123
  125OSM    C1F13332   6.562   3.010   6.311  0.2277  0.0892 -0.2055
  125OSM     OF13333   6.467   2.963   6.254 -0.2603 -0.3161  0.1901
  125OSM    C2F13334   6.554   3.151   6.370  0.4960  0.2409  0.5655
  125OSM    H2F13335   6.454   3.188   6.340  0.1457 -2.8314 -2.6940
  125OSM    H2G13336   6.626   3.212   6.312  1.3398 -1.3659 -0.1434
  125OSM    C3F13337   6.565   3.159   6.530 -0.3059  0.1523  0.5512
  125OSM    H3F13338   6.601   3.264   6.540  0.2463  0.0624 -0.3535
  125OSM    H3G13339   6.650   3.104   6.575 -1.1896 -0.5679  1.3794
  125OSM    C4F13340   6.424   3.136   6.598 -0.4535  0.1549  0.0230
  125OSM    H4F13341   6.377   3.041   6.564 -2.1911  1.2814 -0.8899
  125OSM    H4G13342   6.371   3.222   6.551  1.0018  0.9414 -0.2407
  125OSM    C5F13343   6.425   3.163   6.749  0.2556 -0.1788 -0.4018
  125OSM    H5F13344   6.472   3.263   6.761  0.4174 -0.5435  3.5812
  125OSM    H5G13345   6.486   3.087   6.802 -1.2828 -0.2371  1.4188
  125OSM    C6F13346   6.299   3.173   6.824  0.1887  0.4536 -0.5091
  125OSM    H6F13347   6.241   3.078   6.825  0.6219  0.1854 -0.6823
  125OSM    H6G13348   6.233   3.238   6.763  1.0227  0.9475 -0.9029
  125OSM    C7F13349   6.317   3.227   6.964  0.5530 -0.4534  0.5451
  125OSM    H7F13350   6.217   3.221   7.013 -0.1411 -1.1270 -0.8815
  125OSM    H7G13351   6.352   3.332   6.970  0.4167 -0.3936  0.3292
  125OSM    C8F13352   6.429   3.157   7.044 -0.2759 -0.4552 -0.0289
  125OSM    H8F13353   6.422   3.210   7.141 -3.4465 -0.7069 -0.0113
  125OSM    H8G13354   6.532   3.166   7.003 -0.1968  0.0165  0.2596
  125OSM    C9F13355   6.402   3.010   7.059 -0.2855 -0.4439  0.3065
  125OSM    H9F13356   6.437   2.947   6.976  2.3044 -0.7612  1.5275
  125OSM   C10F13357   6.351   2.951   7.167  0.3005  0.0528 -0.5398
  125OSM   H10F13358   6.327   2.844   7.159  1.4880 -0.2806  0.1060
  125OSM   C11F13359   6.313   3.019   7.299 -0.0620  0.7478 -0.2888
  125OSM   H11F13360   6.396   3.092   7.314  0.2031  0.0882  1.7666
  125OSM   H11G13361   6.312   2.949   7.385 -0.3264  1.7067  0.5050
  125OSM   C12F13362   6.186   3.102   7.303  0.8479  0.2663  0.4091
  125OSM   H12F13363   6.095   3.038   7.294  2.4041 -2.0126 -0.0001
  125OSM   H12G13364   6.184   3.161   7.209  1.6739 -0.9535 -0.4127
  125OSM   C13F13365   6.159   3.183   7.425 -0.1622  1.0757  1.1693
  125OSM   H13F13366   6.251   3.239   7.452  0.3993 -0.0695  1.7055
  125OSM   H13G13367   6.138   3.114   7.510  1.0523 -1.9751 -0.8166
  125OSM   C14F13368   6.057   3.297   7.415  0.8844 -0.2062 -0.4882
  125OSM   H14F13369   5.962   3.268   7.367 -0.1085  1.8249  0.1482
  125OSM   H14G13370   6.120   3.372   7.363 -0.1634  0.3719 -0.9441
  125OSM   C15F13371   6.030   3.368   7.549  0.1547 -0.2850  0.5173
  125OSM   H15F13372   6.123   3.394   7.605 -0.2461  0.6444  0.7706
  125OSM   H15G13373   5.971   3.288   7.598 -2.9390  1.6420  0.1926
  125OSM   C16F13374   5.949   3.497   7.525 -0.1152 -0.3097 -0.2073
  125OSM   H16F13375   6.009   3.565   7.460  0.6688  1.9392  2.6431
  125OSM   H16G13376   5.940   3.555   7.620 -5.6187  0.4234 -0.8804
  125OSM   C17F13377   5.808   3.479   7.472 -0.9263 -0.0997 -0.0076
  125OSM   H17F13378   5.755   3.444   7.563 -1.7355  1.4806  0.1666
  125OSM   H17G13379   5.795   3.392   7.405  0.7256 -0.3928  0.0071
  125OSM   C18F13380   5.744   3.613   7.423 -0.1362  0.8950 -0.9526
  125OSM   H18F13381   5.645   3.583   7.383 -0.1935 -2.2684  1.2256
  125OSM   H18G13382   5.801   3.671   7.346 -0.7971  0.8536 -1.4847
  125OSM   H18H13383   5.727   3.688   7.503 -0.8631 -0.1038 -0.1423
  126OSM      N13384   1.748   0.653   6.044 -0.6438  0.0903  0.1494
  126OSM    C1513385   1.698   0.758   5.955  0.2975 -0.0219 -0.8649
  126OSM   H15A13386   1.598   0.741   5.918 -0.4332 -2.0790  1.7062
  126OSM   H15B13387   1.778   0.758   5.882  2.0813 -1.2318  0.9367
  126OSM   H15C13388   1.709   0.854   6.003 -0.1178 -0.6592  0.5659
  126OSM    C1413389   1.647   0.638   6.148 -0.3963 -0.2816 -0.0380
  126OSM   H14A13390   1.548   0.634   6.104 -0.0932  0.4905 -0.8140
  126OSM   H14B13391   1.662   0.710   6.227  1.7157 -1.0086  0.2921
  126OSM   H14C13392   1.651   0.539   6.193 -2.1086  0.1648  1.2258
  126OSM    C1313393   1.739   0.525   5.966 -0.4346  0.0884 -0.3861
  126OSM   H13A13394   1.640   0.497   5.932 -1.0618  0.9827  0.6598
  126OSM   H13B13395   1.781   0.447   6.027  1.1133  3.1044  2.7638
  126OSM   H13C13396   1.790   0.533   5.871  0.2898  0.2667  0.0146
  126OSM    C1213397   1.893   0.674   6.095 -0.1018 -0.1056 -0.7105
  126OSM   H12A13398   1.959   0.688   6.011  2.0214 -0.4377  0.8051
  126OSM   H12B13399   1.928   0.586   6.148  0.7127 -0.0971 -1.2163
  126OSM    C1113400   1.910   0.791   6.193 -0.2276  0.0712  0.3446
  126OSM   H11A13401   1.860   0.876   6.143 -1.1876  0.0909  1.3075
  126OSM   H11B13402   2.020   0.799   6.203 -0.2838 -1.1373  2.4763
  126OSM      P13403   1.875   0.672   6.437 -0.0244  0.0553  0.1715
  126OSM    O1313404   1.757   0.598   6.487  0.0921  0.4306  0.2234
  126OSM    O1413405   1.991   0.590   6.398 -0.2213 -0.2509 -0.1717
  126OSM    O1113406   1.933   0.766   6.546 -0.4280  0.2417 -0.3676
  126OSM    O1213407   1.841   0.772   6.317 -0.0235  0.2416  0.1014
  126OSM    C1S13408   1.844   0.858   6.615  0.1117  0.5646 -0.6076
  126OSM    H1S13409   1.755   0.808   6.659  0.0752 -0.6233 -1.9775
  126OSM    H1T13410   1.806   0.936   6.546  0.3986  0.5168 -0.8196
  126OSM     NF13411   1.834   1.004   6.830  0.5159 -0.0713  0.4312
  126OSM    HNF13412   1.829   1.100   6.803 -0.2507  0.0193  0.8586
  126OSM    C2S13413   1.918   0.924   6.745  0.6524  0.1932  0.0857
  126OSM    H2S13414   1.946   0.830   6.799  2.0087 -0.0727 -1.0408
  126OSM    C3S13415   2.039   1.003   6.697  1.2550 -0.7750 -0.1044
  126OSM    H3S13416   1.990   1.085   6.641 -1.8048 -2.2161  0.2769
  126OSM     O313417   2.114   0.936   6.601  0.3793  0.4784  0.5892
  126OSM    HO313418   2.061   0.867   6.561  1.4502  0.7290 -1.4117
  126OSM    C4S13419   2.118   1.050   6.820 -0.3650 -0.2346  0.5067
  126OSM    H4S13420   2.096   1.154   6.847 -0.8636 -0.6124  1.5679
  126OSM    C5S13421   2.201   0.983   6.898 -0.6308  0.0531 -0.4625
  126OSM    H5S13422   2.211   0.874   6.888  1.3469  0.3947 -3.0824
  126OSM    C6S13423   2.277   1.039   7.023  1.0354 -0.1506 -0.8769
  126OSM    H6S13424   2.285   1.150   7.026 -0.2852 -0.0571  1.6640
  126OSM    H6T13425   2.377   0.992   7.034  1.4584  0.9930  0.5296
  126OSM    C7S13426   2.192   1.000   7.147 -0.1260  0.4561  0.8666
  126OSM    H7S13427   2.221   0.893   7.160  1.5089  0.5642 -1.3123
  126OSM    H7T13428   2.083   1.012   7.129 -0.2949 -2.1770 -0.4060
  126OSM    C8S13429   2.218   1.092   7.262 -0.2108 -0.7531 -0.3795
  126OSM    H8S13430   2.207   1.200   7.238  0.7372 -0.1418  1.7038
  126OSM    H8T13431   2.325   1.084   7.289 -0.1755 -2.4357 -0.8541
  126OSM    C9S13432   2.140   1.043   7.384 -0.3999  0.5420 -0.2431
  126OSM    H9S13433   2.187   0.946   7.408  0.2878  0.5360 -1.5525
  126OSM    H9T13434   2.032   1.027   7.363  0.1448 -2.2975 -1.2801
  126OSM   C10S13435   2.150   1.143   7.493 -0.1458  0.0211 -1.0718
  126OSM   H10S13436   2.131   1.244   7.450  0.5766  1.4512  1.7633
  126OSM   H10T13437   2.257   1.153   7.523  0.4025  2.4771 -3.3899
  126OSM   C11S13438   2.051   1.116   7.607  0.1714 -0.1583  0.0451
  126OSM   H11S13439   1.953   1.106   7.556  0.2755 -0.2431 -0.1372
  126OSM   H11T13440   2.054   1.206   7.672  0.3309  1.6820 -2.3558
  126OSM   C12S13441   2.078   0.992   7.693 -0.0470  0.1008  0.3431
  126OSM   H12S13442   2.183   0.985   7.730 -0.1730  1.6333  1.0433
  126OSM   H12T13443   2.060   0.899   7.635 -0.0296 -0.3501  1.0533
  126OSM   C13S13444   1.992   0.993   7.814 -0.2318  0.1174  0.4405
  126OSM   H13S13445   2.031   1.070   7.884  0.6958 -0.0585  0.1190
  126OSM   H13T13446   1.999   0.904   7.880  1.4422  0.0245  0.1792
  126OSM   C14S13447   1.841   1.014   7.800  0.6540  0.1944  0.3947
  126OSM   H14S13448   1.828   1.109   7.743  3.9026  1.0255  0.8583
  126OSM   H14T13449   1.806   1.035   7.903  0.7289  2.0103  0.0822
  126OSM   C15S13450   1.769   0.890   7.736 -0.3117  0.6655  0.3577
  126OSM   H15S13451   1.780   0.810   7.813  3.0853  1.5372  0.9600
  126OSM   H15T13452   1.823   0.858   7.644  0.3938  0.5000  0.8205
  126OSM   C16S13453   1.627   0.917   7.688 -0.6738  0.0316 -0.0224
  126OSM   H16S13454   1.638   0.977   7.596  1.0392 -2.6323 -1.6897
  126OSM   H16T13455   1.573   0.968   7.771 -0.3656  0.7465 -0.2573
  126OSM   C17S13456   1.537   0.790   7.664  0.7191 -0.2602  0.0293
  126OSM   H17S13457   1.540   0.728   7.756 -1.0054 -1.4385 -0.6637
  126OSM   H17T13458   1.584   0.735   7.580  0.7097  0.3582 -0.3855
  126OSM   C18S13459   1.390   0.824   7.652  0.0841  0.3845  0.3743
  126OSM   H18S13460   1.373   0.894   7.568  2.1441 -0.0339 -0.4373
  126OSM   H18T13461   1.351   0.873   7.744  1.5309  1.4726  0.4395
  126OSM   H18U13462   1.325   0.734   7.638  2.3859 -2.0111  3.5511
  126OSM    C1F13463   1.737   0.948   6.907  0.8126  0.2517 -0.5805
  126OSM     OF13464   1.720   0.823   6.911 -0.0107 -0.1946  0.2119
  126OSM    C2F13465   1.647   1.046   6.983 -0.3979  0.5654  0.0878
  126OSM    H2F13466   1.590   1.111   6.913  1.7306  3.1040  0.5592
  126OSM    H2G13467   1.718   1.112   7.038  0.5006  0.3070 -0.7370
  126OSM    C3F13468   1.549   0.968   7.072 -0.6560 -0.2606 -0.0340
  126OSM    H3F13469   1.597   0.893   7.139  1.8438  1.7046  0.4864
  126OSM    H3G13470   1.487   0.906   7.003 -0.9225  2.6308 -2.6188
  126OSM    C4F13471   1.467   1.058   7.157 -0.0058 -0.0283  0.8765
  126OSM    H4F13472   1.426   1.146   7.104 -2.1903  1.4778  4.6439
  126OSM    H4G13473   1.536   1.106   7.230  0.1171  0.9951  0.1054
  126OSM    C5F13474   1.355   0.998   7.242  0.4627  0.0529  0.3956
  126OSM    H5F13475   1.309   1.078   7.304  1.9540  0.4457  1.0395
  126OSM    H5G13476   1.414   0.931   7.308  1.1812 -0.8877 -1.1350
  126OSM    C6F13477   1.253   0.904   7.173 -0.2621 -0.4767 -0.3759
  126OSM    H6F13478   1.313   0.825   7.124 -0.2594 -2.6248  2.7747
  126OSM    H6G13479   1.204   0.962   7.092 -0.1143  0.3548  0.1204
  126OSM    C7F13480   1.150   0.836   7.270 -0.2727  0.4652  0.0528
  126OSM    H7F13481   1.116   0.917   7.337 -0.3515  0.2686  0.2524
  126OSM    H7G13482   1.196   0.765   7.342  0.3451 -1.4960 -2.1522
  126OSM    C8F13483   1.038   0.775   7.184 -0.1034  0.2993 -0.3061
  126OSM    H8F13484   1.090   0.726   7.099 -1.9296  0.7410 -1.7389
  126OSM    H8G13485   0.981   0.857   7.137  0.0308  0.1960 -0.6539
  126OSM    C9F13486   0.946   0.679   7.254 -0.3519 -1.1068 -0.1969
  126OSM    H9F13487   0.957   0.579   7.210 -0.4076 -0.4488 -1.7793
  126OSM   C10F13488   0.854   0.714   7.348 -0.1744  0.2944  0.9060
  126OSM   H10F13489   0.786   0.634   7.379 -0.0346 -0.2019 -0.0434
  126OSM   C11F13490   0.828   0.852   7.394  0.7756 -0.5304 -0.2433
  126OSM   H11F13491   0.729   0.886   7.357  0.6021  0.2869  0.8992
  126OSM   H11G13492   0.913   0.920   7.373 -0.6855  1.6668  0.5648
  126OSM   C12F13493   0.815   0.839   7.545 -0.6066  0.2826 -0.2888
  126OSM   H12F13494   0.742   0.764   7.582  0.8612  0.5261  3.5327
  126OSM   H12G13495   0.782   0.932   7.594  3.6404  0.7157  2.2004
  126OSM   C13F13496   0.947   0.806   7.621  0.4924 -0.1897 -0.0991
  126OSM   H13F13497   1.022   0.884   7.596 -0.2797  0.7888  0.5320
  126OSM   H13G13498   0.992   0.710   7.588  2.1188 -0.1072  1.7117
  126OSM   C14F13499   0.926   0.800   7.771  0.7567 -0.4767  0.7296
  126OSM   H14F13500   0.860   0.711   7.778 -0.7954  0.6979  1.4924
  126OSM   H14G13501   0.873   0.896   7.789  1.8864  0.4374 -0.5750
  126OSM   C15F13502   1.045   0.777   7.859 -0.0856 -0.5706 -0.0462
  126OSM   H15F13503   1.111   0.864   7.837 -0.8861 -0.2208 -1.1963
  126OSM   H15G13504   1.090   0.679   7.831 -0.3149 -0.9835  0.9864
  126OSM   C16F13505   1.037   0.771   8.015  0.2903  0.3710  0.5044
  126OSM   H16F13506   1.024   0.876   8.049  2.0611  0.9260 -0.3851
  126OSM   H16G13507   1.137   0.732   8.045 -0.2564  0.8866  3.3038
  126OSM   C17F13508   0.934   0.675   8.078  0.1637 -0.7671  0.0801
  126OSM   H17F13509   0.830   0.712   8.066  0.2038 -0.4134  0.8082
  126OSM   H17G13510   0.956   0.697   8.184 -1.1594  0.5033  0.1219
  126OSM   C18F13511   0.948   0.531   8.027  0.2052 -0.0034  0.5610
  126OSM   H18F13512   0.915   0.528   7.921  0.3203 -1.2865  0.5472
  126OSM   H18G13513   0.882   0.466   8.089  0.8149 -0.2858  0.9242
  126OSM   H18H13514   1.057   0.509   8.029  0.5016  1.2548 -0.4502
  127OSM      N13515   2.346   3.556   6.191 -0.1522 -0.2569  0.0089
  127OSM    C1513516   2.390   3.497   6.064  0.0641  0.8103  0.3535
  127OSM   H15A13517   2.431   3.577   6.003  0.0035 -0.9703 -2.1532
  127OSM   H15B13518   2.308   3.456   6.006  2.3632 -1.0828 -1.7970
  127OSM   H15C13519   2.454   3.411   6.076 -0.3734  0.4376  0.0507
  127OSM    C1413520   2.273   3.682   6.159  0.1961  0.2102  0.3092
  127OSM   H14A13521   2.226   3.734   6.241 -3.3979 -0.9659 -0.8572
  127OSM   H14B13522   2.204   3.663   6.078  0.6674 -0.4152  0.0449
  127OSM   H14C13523   2.344   3.757   6.125 -0.7936  0.2172 -1.9313
  127OSM    C1313524   2.258   3.466   6.267 -0.4970  0.1737 -0.0647
  127OSM   H13A13525   2.179   3.427   6.203  0.4988  1.2590 -2.0442
  127OSM   H13B13526   2.220   3.513   6.356  0.0195  1.0455 -0.2936
  127OSM   H13C13527   2.304   3.376   6.305  2.3803  1.3738 -0.5121
  127OSM    C1213528   2.462   3.585   6.281  0.3484 -0.2617 -0.1411
  127OSM   H12A13529   2.550   3.602   6.221  0.6833 -2.2246 -0.2778
  127OSM   H12B13530   2.498   3.494   6.327  0.7407 -1.0628 -1.9542
  127OSM    C1113531   2.454   3.689   6.392 -0.3995  0.0576 -0.2016
  127OSM   H11A13532   2.548   3.678   6.451  0.0041 -0.3507 -0.9017
  127OSM   H11B13533   2.365   3.675   6.457  0.3091  2.5259  1.4161
  127OSM      P13534   2.370   3.942   6.406 -0.3082 -0.1114 -0.1211
  127OSM    O1313535   2.444   4.060   6.350  0.1002  0.7733  0.0029
  127OSM    O1413536   2.224   3.939   6.384 -0.0272  0.1716  0.4139
  127OSM    O1113537   2.398   3.936   6.561 -0.0621 -0.6508 -0.3588
  127OSM    O1213538   2.448   3.824   6.343 -0.0199 -0.0829 -0.0920
  127OSM    C1S13539   2.531   3.959   6.615  0.4758  0.3045 -0.1646
  127OSM    H1S13540   2.569   4.059   6.586 -0.0396  0.0977 -1.6017
  127OSM    H1T13541   2.601   3.889   6.564 -1.0150 -2.8225  1.7474
  127OSM     NF13542   2.662   3.958   6.824 -0.3349 -0.3077  0.5061
  127OSM    HNF13543   2.726   3.883   6.813  0.6265  0.2341  2.0978
  127OSM    C2S13544   2.526   3.939   6.767  1.1074 -0.4464 -0.0200
  127OSM    H2S13545   2.461   4.020   6.807  1.8399 -0.4545  1.2047
  127OSM    C3S13546   2.463   3.800   6.807  0.8610 -0.1537 -0.7287
  127OSM    H3S13547   2.522   3.718   6.763  0.2316 -0.6793 -0.6064
  127OSM     O313548   2.330   3.771   6.758  0.0420  0.3794  0.0857
  127OSM    HO313549   2.326   3.847   6.699  1.5633 -0.5992 -1.3753
  127OSM    C4S13550   2.451   3.778   6.961 -0.2057 -0.0392  0.2096
  127OSM    H4S13551   2.389   3.846   7.021 -0.9438  0.7815 -1.4242
  127OSM    C5S13552   2.509   3.678   7.029 -0.5659  0.2486 -0.2191
  127OSM    H5S13553   2.562   3.611   6.960  1.3100  1.2243  0.2147
  127OSM    C6S13554   2.506   3.649   7.184 -0.5912  0.0235 -0.0480
  127OSM    H6S13555   2.602   3.680   7.231 -0.3308  0.2077 -0.6865
  127OSM    H6T13556   2.497   3.541   7.210  0.1824 -0.2231 -0.7465
  127OSM    C7S13557   2.395   3.723   7.250  0.3272  0.4958 -0.0974
  127OSM    H7S13558   2.297   3.719   7.198 -0.1799  0.8748  0.8252
  127OSM    H7T13559   2.413   3.832   7.252  0.6813  0.4520 -0.5139
  127OSM    C8S13560   2.375   3.689   7.398 -0.1414  0.3855 -0.3172
  127OSM    H8S13561   2.313   3.598   7.410  1.0256 -0.3369  0.4226
  127OSM    H8T13562   2.303   3.766   7.433 -1.8525 -0.7486 -1.2425
  127OSM    C9S13563   2.497   3.677   7.494  0.2295 -0.0672 -0.0890
  127OSM    H9S13564   2.558   3.769   7.487 -0.1722  0.3662  1.4670
  127OSM    H9T13565   2.565   3.594   7.468 -0.7571 -0.3754 -1.8292
  127OSM   C10S13566   2.450   3.668   7.639 -0.0165  0.1075 -0.3323
  127OSM   H10S13567   2.409   3.565   7.646  3.6808 -1.4484  0.8355
  127OSM   H10T13568   2.377   3.749   7.657  1.7347  1.4976  0.9256
  127OSM   C11S13569   2.544   3.684   7.753 -0.0011  0.2529 -0.5982
  127OSM   H11S13570   2.597   3.781   7.745 -1.8151  1.2221 -1.5058
  127OSM   H11T13571   2.616   3.600   7.749 -0.8704 -0.5568  0.0403
  127OSM   C12S13572   2.471   3.682   7.895  0.1403 -0.1127 -0.4006
  127OSM   H12S13573   2.421   3.584   7.901  0.9444 -0.5096 -0.0770
  127OSM   H12T13574   2.393   3.762   7.899  3.0064  2.8985 -0.0781
  127OSM   C13S13575   2.569   3.717   8.007 -0.5313  0.1180 -0.9610
  127OSM   H13S13576   2.629   3.808   7.983  0.5923 -0.0541  1.0120
  127OSM   H13T13577   2.637   3.629   8.005 -0.7281 -0.0973  0.6441
  127OSM   C14S13578   2.500   3.737   8.141  0.9345  0.1920 -0.5061
  127OSM   H14S13579   2.429   3.658   8.173 -0.2526  1.9444  1.4994
  127OSM   H14T13580   2.437   3.827   8.123  1.1069 -0.1201 -2.9666
  127OSM   C15S13581   2.594   3.756   8.256  0.3676 -0.3884 -0.4948
  127OSM   H15S13582   2.672   3.832   8.237 -0.2246  0.5541  0.7167
  127OSM   H15T13583   2.651   3.661   8.269  0.1028 -0.4760  0.0531
  127OSM   C16S13584   2.528   3.793   8.394 -0.9571 -0.0443 -0.4532
  127OSM   H16S13585   2.434   3.737   8.412 -1.6541  1.5494  1.1076
  127OSM   H16T13586   2.502   3.900   8.403 -0.7554  0.0229 -0.6576
  127OSM   C17S13587   2.619   3.754   8.512 -0.3666  0.9575  0.3755
  127OSM   H17S13588   2.648   3.648   8.496 -1.0346  0.9462 -0.8753
  127OSM   H17T13589   2.572   3.763   8.612 -0.5822 -0.6754  0.4529
  127OSM   C18S13590   2.753   3.828   8.526  0.6932 -0.0025 -0.3985
  127OSM   H18S13591   2.733   3.922   8.583 -0.4777 -0.1248 -0.5797
  127OSM   H18T13592   2.774   3.862   8.423  0.8916 -0.4079 -0.4905
  127OSM   H18U13593   2.836   3.768   8.568 -1.1561 -1.8606  0.8576
  127OSM    C1F13594   2.718   4.079   6.824  0.5136 -0.3321  0.7332
  127OSM     OF13595   2.652   4.181   6.782 -0.2193 -0.3183 -0.6239
  127OSM    C2F13596   2.866   4.091   6.847 -0.0634 -0.3507  0.2341
  127OSM    H2F13597   2.917   4.070   6.751 -0.0241  0.0790  0.1580
  127OSM    H2G13598   2.893   4.014   6.922  0.8678  0.5341  0.8231
  127OSM    C3F13599   2.918   4.232   6.892 -0.1426 -0.5787  0.0274
  127OSM    H3F13600   2.883   4.297   6.809 -0.9336  0.2898  1.0049
  127OSM    H3G13601   3.028   4.242   6.907  0.0739 -2.2119 -0.3112
  127OSM    C4F13602   2.860   4.287   7.023 -0.2474 -0.4238 -0.7928
  127OSM    H4F13603   2.750   4.286   7.011 -0.2464  0.3955 -0.9546
  127OSM    H4G13604   2.891   4.393   7.041  2.5799 -1.2814 -0.0998
  127OSM    C5F13605   2.892   4.212   7.157  0.2948 -0.0068  0.2702
  127OSM    H5F13606   2.990   4.161   7.141  0.3391  0.7669 -2.5340
  127OSM    H5G13607   2.807   4.145   7.180 -0.6000  0.5906 -1.1803
  127OSM    C6F13608   2.909   4.314   7.271  0.2111 -0.1433  0.8598
  127OSM    H6F13609   2.813   4.368   7.286  0.1206 -0.5436  1.7506
  127OSM    H6G13610   2.985   4.392   7.251 -1.4636  1.5115  0.6437
  127OSM    C7F13611   2.953   4.256   7.406  0.2381  0.5075 -1.5351
  127OSM    H7F13612   3.044   4.194   7.391  1.1410  1.6316 -0.8367
  127OSM    H7G13613   2.872   4.190   7.445  1.7359  0.6137  2.1656
  127OSM    C8F13614   2.974   4.364   7.515  0.2124  0.6640  0.7228
  127OSM    H8F13615   2.872   4.372   7.559  0.8277 -1.1374  2.6077
  127OSM    H8G13616   2.996   4.465   7.474  2.5753 -0.6801 -1.6338
  127OSM    C9F13617   3.066   4.335   7.627  0.2549  0.0806  0.1318
  127OSM    H9F13618   3.160   4.281   7.609  0.0711  0.1405 -1.1092
  127OSM   C10F13619   3.047   4.370   7.756 -0.0059  0.1445  0.0076
  127OSM   H10F13620   3.122   4.336   7.830  2.1078 -2.1080 -2.8905
  127OSM   C11F13621   2.928   4.445   7.813 -0.2192  0.6372 -0.1041
  127OSM   H11F13622   2.871   4.363   7.861 -0.8205  0.8745 -0.3980
  127OSM   H11G13623   2.869   4.492   7.732  1.5952  0.5596 -1.5320
  127OSM   C12F13624   2.972   4.558   7.910  0.1369  0.5161 -0.1443
  127OSM   H12F13625   2.874   4.594   7.949 -0.3215 -0.4951 -0.3241
  127OSM   H12G13626   3.023   4.643   7.861 -1.4458  0.9309 -1.1803
  127OSM   C13F13627   3.053   4.502   8.034 -0.2445 -0.3322  0.1226
  127OSM   H13F13628   3.077   4.589   8.099  1.0197  1.1456 -2.1820
  127OSM   H13G13629   3.156   4.471   8.005  0.3161  1.6253 -0.1260
  127OSM   C14F13630   3.001   4.392   8.112 -0.1176  0.2341 -0.2223
  127OSM   H14F13631   2.990   4.300   8.051 -1.3991  0.4835 -0.3911
  127OSM   H14G13632   2.899   4.419   8.148  0.4929  0.2356  1.6061
  127OSM   C15F13633   3.097   4.347   8.233 -0.2745 -0.5980 -0.2427
  127OSM   H15F13634   3.192   4.309   8.190  0.6897  1.1836  0.2286
  127OSM   H15G13635   3.040   4.269   8.288  0.4271 -0.0290  1.3347
  127OSM   C16F13636   3.141   4.454   8.339  0.5210  0.1571  0.3382
  127OSM   H16F13637   3.046   4.503   8.370 -0.7692 -2.3229  0.5013
  127OSM   H16G13638   3.201   4.530   8.284  0.9809 -0.8692 -0.6091
  127OSM   C17F13639   3.216   4.385   8.452 -0.3578  0.0092 -0.0438
  127OSM   H17F13640   3.302   4.334   8.403 -0.7167  0.0202 -0.7008
  127OSM   H17G13641   3.153   4.306   8.497  0.7748 -0.1229  1.3917
  127OSM   C18F13642   3.294   4.475   8.541 -0.0887  0.2309 -0.1817
  127OSM   H18F13643   3.228   4.479   8.630 -3.0776  1.0128 -2.2845
  127OSM   H18G13644   3.309   4.579   8.502 -2.4521  0.4455 -0.6457
  127OSM   H18H13645   3.387   4.422   8.571 -0.0838  0.0683 -0.4792
  128OSM      N13646   1.119   5.996   5.909  0.5257 -0.2001 -0.6006
  128OSM    C1513647   1.189   6.119   5.950 -0.4230 -0.0184  0.4298
  128OSM   H15A13648   1.193   6.201   5.880 -0.1314  0.2868  0.7983
  128OSM   H15B13649   1.292   6.091   5.966 -0.3069 -0.7035 -1.3058
  128OSM   H15C13650   1.146   6.157   6.042  1.8234  0.6642  1.2681
  128OSM    C1413651   0.981   6.027   5.865 -0.7264  0.3227 -0.4193
  128OSM   H14A13652   0.922   6.069   5.945 -0.7003  0.5884 -0.5390
  128OSM   H14B13653   0.928   5.936   5.842  1.5381 -1.6024  1.3841
  128OSM   H14C13654   1.000   6.098   5.786 -1.8115  0.8273 -0.2396
  128OSM    C1313655   1.191   5.931   5.803 -0.4593 -0.1215  0.2890
  128OSM   H13A13656   1.153   5.839   5.763  2.6687 -1.5875  0.3910
  128OSM   H13B13657   1.292   5.913   5.836  0.4851  0.5071 -2.0234
  128OSM   H13C13658   1.203   6.000   5.721 -0.2016 -0.5141 -0.0041
  128OSM    C1213659   1.105   5.905   6.030  0.9310  0.3990 -0.9196
  128OSM   H12A13660   1.206   5.876   6.058  0.7345  0.1765 -0.4238
  128OSM   H12B13661   1.060   5.816   5.991  1.6513  0.5821 -2.2074
  128OSM    C1113662   1.031   5.960   6.156  0.3372 -0.2760 -0.4386
  128OSM   H11A13663   1.030   5.885   6.237  0.3690  1.0964  0.8797
  128OSM   H11B13664   0.923   5.972   6.131  0.2910  1.3089  0.3695
  128OSM      P13665   0.999   6.170   6.294 -0.2545 -0.4615  0.0021
  128OSM    O1313666   1.075   6.295   6.295 -0.6559  0.4784  0.2658
  128OSM    O1413667   0.859   6.181   6.239  0.1430 -0.2475  0.0172
  128OSM    O1113668   0.989   6.106   6.437  0.3244 -0.3063 -0.0581
  128OSM    O1213669   1.097   6.074   6.211 -0.3078 -0.2085  0.1148
  128OSM    C1S13670   1.117   6.104   6.508  0.4631 -0.7218 -0.2429
  128OSM    H1S13671   1.186   6.188   6.484 -0.5004 -0.0019 -0.5229
  128OSM    H1T13672   1.175   6.010   6.495  2.6349  0.0840  2.5084
  128OSM     NF13673   1.234   6.090   6.720  0.2584  0.4269  1.2876
  128OSM    HNF13674   1.257   5.993   6.722 -2.0033 -0.1870  0.5826
  128OSM    C2S13675   1.101   6.106   6.664  0.6630  0.6910 -0.6117
  128OSM    H2S13676   1.055   6.201   6.697  0.2152  1.2476 -2.7310
  128OSM    C3S13677   0.999   5.989   6.702 -0.3290  0.4724  0.1572
  128OSM    H3S13678   1.030   5.889   6.666  0.5179 -0.1248  2.3998
  128OSM     O313679   0.866   6.013   6.663 -0.2026  0.6654 -0.0523
  128OSM    HO313680   0.876   6.097   6.617 -0.0106  0.7322  0.1120
  128OSM    C4S13681   1.000   5.961   6.849 -0.2267 -0.3475 -0.4918
  128OSM    H4S13682   1.046   5.864   6.873 -0.9857 -0.5764  0.0646
  128OSM    C5S13683   0.969   6.049   6.940  0.2056 -0.0038  0.1552
  128OSM    H5S13684   0.935   6.151   6.917  0.8375 -0.0039 -0.8374
  128OSM    C6S13685   0.987   6.012   7.087 -0.3360 -1.3308  0.7352
  128OSM    H6S13686   0.977   5.904   7.112 -1.4008 -1.5277 -0.4551
  128OSM    H6T13687   0.908   6.062   7.147  1.7494 -0.0588  2.5903
  128OSM    C7S13688   1.122   6.058   7.142 -0.2816  0.0892  0.3754
  128OSM    H7S13689   1.138   6.165   7.118  0.7801 -0.1150  0.1068
  128OSM    H7T13690   1.198   5.989   7.099  0.7167  0.6666  1.1458
  128OSM    C8S13691   1.135   6.033   7.297  0.0450  0.1093  0.1994
  128OSM    H8S13692   1.140   5.925   7.322 -2.2477  0.1858  1.2487
  128OSM    H8T13693   1.051   6.073   7.358  1.4568  1.3521  1.4015
  128OSM    C9S13694   1.259   6.093   7.358  0.1224  0.2705 -0.4952
  128OSM    H9S13695   1.272   6.201   7.339  0.5989  0.2550 -0.2960
  128OSM    H9T13696   1.350   6.050   7.310 -0.1435 -1.6173  0.5917
  128OSM   C10S13697   1.281   6.050   7.504 -1.0655  0.5169 -0.6894
  128OSM   H10S13698   1.192   6.054   7.570 -0.4195  0.5002  0.2128
  128OSM   H10T13699   1.357   6.125   7.536 -0.5933  1.4781 -3.7490
  128OSM   C11S13700   1.331   5.903   7.537 -1.0609 -0.0385  0.6638
  128OSM   H11S13701   1.425   5.884   7.480 -0.3354  3.2490  0.5747
  128OSM   H11T13702   1.254   5.837   7.492 -2.1588  1.3708  0.3796
  128OSM   C12S13703   1.362   5.865   7.686 -0.2012  0.5891 -0.5356
  128OSM   H12S13704   1.283   5.885   7.761  0.2945 -1.9422  0.7612
  128OSM   H12T13705   1.459   5.914   7.710 -0.6902  0.8324  1.0161
  128OSM   C13S13706   1.388   5.710   7.691  0.7197 -0.1970  0.0536
  128OSM   H13S13707   1.477   5.685   7.629  0.6787  1.6871 -0.8389
  128OSM   H13T13708   1.301   5.662   7.642 -0.9811  2.5416  0.1674
  128OSM   C14S13709   1.416   5.643   7.829 -0.3697 -0.4835 -0.2094
  128OSM   H14S13710   1.501   5.702   7.870 -0.1329 -1.0882  0.1873
  128OSM   H14T13711   1.450   5.539   7.806 -0.0988  0.0613 -2.5890
  128OSM   C15S13712   1.310   5.636   7.934  0.5610 -0.0807 -0.2521
  128OSM   H15S13713   1.252   5.544   7.914  1.7249 -0.7512 -0.6550
  128OSM   H15T13714   1.247   5.728   7.926  0.6143 -0.0885 -0.8414
  128OSM   C16S13715   1.364   5.622   8.076  0.0873  0.3826 -0.5127
  128OSM   H16S13716   1.435   5.704   8.101  1.3140 -0.6818 -0.3912
  128OSM   H16T13717   1.421   5.527   8.088 -1.6643 -0.5898  0.6049
  128OSM   C17S13718   1.249   5.621   8.192 -0.0170 -0.1085 -1.2179
  128OSM   H17S13719   1.182   5.539   8.159 -1.6538 -0.5089  2.6525
  128OSM   H17T13720   1.190   5.714   8.202 -0.4820 -0.5516  0.6501
  128OSM   C18S13721   1.296   5.593   8.339  0.3109 -0.2994  0.1648
  128OSM   H18S13722   1.210   5.573   8.407  1.5934 -0.9988  1.6363
  128OSM   H18T13723   1.349   5.679   8.386 -0.2141 -0.1411  0.4769
  128OSM   H18U13724   1.366   5.508   8.347 -1.0124 -1.3659  0.7216
  128OSM    C1F13725   1.319   6.189   6.735  0.2467  0.3041  0.0991
  128OSM     OF13726   1.294   6.300   6.698  0.2229 -0.3687  0.2093
  128OSM    C2F13727   1.445   6.148   6.805  0.6617  0.6898  0.2240
  128OSM    H2F13728   1.517   6.130   6.722  0.8090  0.0373  0.4886
  128OSM    H2G13729   1.425   6.058   6.866  2.5727 -0.3007 -0.5313
  128OSM    C3F13730   1.509   6.249   6.906 -0.4018 -0.3416  0.6341
  128OSM    H3F13731   1.427   6.303   6.957 -0.0622 -0.6620  1.5443
  128OSM    H3G13732   1.567   6.322   6.845  0.4408 -1.3205  0.2354
  128OSM    C4F13733   1.594   6.192   7.014 -0.2715  0.3760  0.9093
  128OSM    H4F13734   1.681   6.144   6.964 -2.9208 -0.3155 -3.6325
  128OSM    H4G13735   1.541   6.113   7.072 -0.4093 -0.2872 -0.0883
  128OSM    C5F13736   1.650   6.296   7.118 -0.2366  0.4879 -0.3370
  128OSM    H5F13737   1.562   6.345   7.166 -1.2768 -2.4134  0.9638
  128OSM    H5G13738   1.705   6.374   7.062 -1.2533 -0.2090 -2.3860
  128OSM    C6F13739   1.748   6.228   7.208  0.2351 -0.0104 -0.6208
  128OSM    H6F13740   1.845   6.209   7.158  1.1834  1.1757  0.6865
  128OSM    H6G13741   1.707   6.129   7.237 -1.0607  0.6373 -0.1767
  128OSM    C7F13742   1.799   6.308   7.330  0.1591  0.0952  0.4630
  128OSM    H7F13743   1.822   6.413   7.304 -2.1198  0.5577  0.0498
  128OSM    H7G13744   1.881   6.258   7.387  0.9529  0.5054 -0.3014
  128OSM    C8F13745   1.685   6.327   7.435  0.1296  0.1815 -0.4475
  128OSM    H8F13746   1.599   6.386   7.396  0.5980  0.8679 -0.4628
  128OSM    H8G13747   1.726   6.391   7.516 -0.0636  0.7042 -0.7605
  128OSM    C9F13748   1.632   6.198   7.489 -0.3910 -0.6633 -0.3405
  128OSM    H9F13749   1.583   6.129   7.418 -2.5174 -1.4339  1.7282
  128OSM   C10F13750   1.638   6.167   7.623  0.0940 -0.7706  0.6910
  128OSM   H10F13751   1.600   6.068   7.654 -1.2537 -1.0992 -1.7687
  128OSM   C11F13752   1.702   6.244   7.739 -0.2739  0.4327  0.3210
  128OSM   H11F13753   1.648   6.339   7.760 -1.8177 -0.3534  0.0612
  128OSM   H11G13754   1.807   6.268   7.713 -0.3399  0.3517 -0.0221
  128OSM   C12F13755   1.691   6.159   7.874 -0.5301  0.9466  0.2998
  128OSM   H12F13756   1.759   6.071   7.867  1.3015  2.3739 -0.7100
  128OSM   H12G13757   1.587   6.122   7.883  0.0621 -1.7164 -2.2589
  128OSM   C13F13758   1.718   6.248   7.999 -1.0204 -0.1385 -0.0560
  128OSM   H13F13759   1.626   6.305   8.020  0.0996  1.3318  1.0558
  128OSM   H13G13760   1.801   6.320   7.981 -0.0765 -0.5283  2.4076
  128OSM   C14F13761   1.741   6.175   8.129  0.2314 -0.4527 -0.5237
  128OSM   H14F13762   1.740   6.247   8.214 -2.7176 -0.6943 -0.2575
  128OSM   H14G13763   1.844   6.133   8.130  0.1533 -0.6528  0.9384
  128OSM   C15F13764   1.658   6.046   8.154  0.4686  0.2142 -0.8723
  128OSM   H15F13765   1.686   5.972   8.076  1.3285  1.3615 -1.6711
  128OSM   H15G13766   1.552   6.077   8.146  0.8944  1.8859 -0.3911
  128OSM   C16F13767   1.683   5.980   8.294  0.1312  0.7192 -0.0277
  128OSM   H16F13768   1.679   6.061   8.370 -3.2799 -1.1679  2.0116
  128OSM   H16G13769   1.783   5.931   8.288 -1.0869 -2.0287  0.7448
  128OSM   C17F13770   1.594   5.859   8.330  1.0217  0.8043  0.1703
  128OSM   H17F13771   1.489   5.864   8.295  0.6687 -0.8880  0.8758
  128OSM   H17G13772   1.577   5.856   8.440  0.4598 -1.1077  0.0642
  128OSM   C18F13773   1.651   5.715   8.279 -0.1521 -0.0178  0.0268
  128OSM   H18F13774   1.754   5.703   8.318  1.2507  1.4599 -2.8505
  128OSM   H18G13775   1.655   5.710   8.168 -1.5801 -2.6399  0.0219
  128OSM   H18H13776   1.583   5.629   8.300  2.2249 -2.0804 -0.3328
  129OSM      N13777   6.321   1.021   5.708 -0.4275  0.8470 -0.4306
  129OSM    C1513778   6.394   0.889   5.708  0.6903  0.1022 -0.2838
  129OSM   H15A13779   6.383   0.836   5.801  0.2620  1.3625  0.4004
  129OSM   H15B13780   6.500   0.907   5.696  0.3344  1.7463 -1.2081
  129OSM   H15C13781   6.354   0.819   5.637 -0.6819  1.2793 -0.7129
  129OSM    C1413782   6.339   1.080   5.570 -0.6079 -0.5162 -0.1864
  129OSM   H14A13783   6.318   1.001   5.500  0.5779 -0.7119 -0.3494
  129OSM   H14B13784   6.440   1.113   5.551 -0.5680 -0.2552  0.4461
  129OSM   H14C13785   6.273   1.162   5.547  0.4583  0.5255  0.3500
  129OSM    C1313786   6.179   0.991   5.733  0.3513 -0.6691  0.2435
  129OSM   H13A13787   6.168   0.932   5.823 -1.2187  0.7642  1.0478
  129OSM   H13B13788   6.139   0.928   5.655  1.3392 -2.2478  0.9558
  129OSM   H13C13789   6.118   1.078   5.751  2.1853  0.5303  0.9079
  129OSM    C1213790   6.378   1.105   5.818 -0.0706 -0.4276 -0.0688
  129OSM   H12A13791   6.340   1.205   5.807  0.6935 -0.3307 -2.5708
  129OSM   H12B13792   6.479   1.127   5.787 -0.1287  2.5342  1.5311
  129OSM    C1113793   6.381   1.066   5.963 -0.3498 -0.9126  0.3657
  129OSM   H11A13794   6.285   1.016   5.988 -0.1092 -1.1006  0.9263
  129OSM   H11B13795   6.384   1.162   6.019 -1.8115 -0.5976 -0.0591
  129OSM      P13796   6.635   1.016   6.011  0.2952 -0.0468 -0.1489
  129OSM    O1313797   6.717   0.900   6.055  0.0874  0.3867 -0.3059
  129OSM    O1413798   6.682   1.091   5.886 -0.4112 -0.0911  0.1696
  129OSM    O1113799   6.622   1.121   6.127 -0.0239  0.2166  0.0558
  129OSM    O1213800   6.481   0.975   5.981 -0.1572  0.2707 -0.2938
  129OSM    C1S13801   6.547   1.085   6.242 -0.6203  0.2830 -0.7602
  129OSM    H1S13802   6.582   0.994   6.296  1.2745  1.7200  0.6026
  129OSM    H1T13803   6.440   1.076   6.215 -0.7906 -0.3558  0.0870
  129OSM     NF13804   6.460   1.180   6.460 -0.5957 -0.5186  0.2728
  129OSM    HNF13805   6.367   1.212   6.443  0.0625  1.7942  0.7257
  129OSM    C2S13806   6.556   1.204   6.346  0.5728  0.4563 -0.3794
  129OSM    H2S13807   6.659   1.219   6.384  0.5661  0.1602 -0.2446
  129OSM    C3S13808   6.530   1.343   6.276 -0.2883  0.1407  0.3480
  129OSM    H3S13809   6.443   1.333   6.208  1.1174 -0.9637 -1.3757
  129OSM     O313810   6.638   1.383   6.191  0.0493 -0.1945  0.2374
  129OSM    HO313811   6.661   1.298   6.152  0.3795  0.7432 -1.7674
  129OSM    C4S13812   6.499   1.444   6.382  0.2278  0.4935 -0.5599
  129OSM    H4S13813   6.586   1.475   6.442  0.8049  0.7992 -1.5339
  129OSM    C5S13814   6.373   1.486   6.402 -0.0516 -0.8031  0.2905
  129OSM    H5S13815   6.290   1.436   6.351 -0.6908 -1.8282  2.2227
  129OSM    C6S13816   6.339   1.577   6.519 -0.6137  0.3270  0.3085
  129OSM    H6S13817   6.262   1.545   6.593  0.1402 -2.4608 -0.0258
  129OSM    H6T13818   6.287   1.663   6.471 -0.6160  0.5130  0.6407
  129OSM    C7S13819   6.455   1.641   6.606 -0.1467 -0.1234  0.2145
  129OSM    H7S13820   6.528   1.695   6.542  1.3032 -1.5041  0.6222
  129OSM    H7T13821   6.513   1.565   6.663  0.9250  0.0480 -0.6307
  129OSM    C8S13822   6.412   1.759   6.701 -0.0091  0.0028 -0.4064
  129OSM    H8S13823   6.349   1.716   6.782 -0.8177 -0.2141 -1.1343
  129OSM    H8T13824   6.346   1.831   6.647  0.7728 -0.9127 -2.6867
  129OSM    C9S13825   6.538   1.825   6.752 -0.6779 -0.4279  0.0692
  129OSM    H9S13826   6.517   1.927   6.790 -1.7525  0.2805 -2.2075
  129OSM    H9T13827   6.609   1.844   6.668 -1.8171 -0.2299 -0.8745
  129OSM   C10S13828   6.598   1.740   6.866  0.3421 -0.1552  0.5356
  129OSM   H10S13829   6.632   1.646   6.816 -2.4062 -1.5616  1.1350
  129OSM   H10T13830   6.518   1.702   6.933  2.1225 -2.1778  1.6699
  129OSM   C11S13831   6.709   1.808   6.945 -0.0743 -0.4679 -0.5020
  129OSM   H11S13832   6.665   1.885   7.012  1.7689 -0.6022  0.9653
  129OSM   H11T13833   6.777   1.859   6.873  0.8750 -0.2889  0.5037
  129OSM   C12S13834   6.789   1.722   7.037 -0.3691  1.1145 -0.2617
  129OSM   H12S13835   6.875   1.778   7.080  1.0109 -0.2024 -1.2015
  129OSM   H12T13836   6.825   1.641   6.969 -3.9254 -1.2713  0.4340
  129OSM   C13S13837   6.705   1.646   7.139  0.0874  0.0019 -0.0938
  129OSM   H13S13838   6.782   1.591   7.197  1.0422  0.5626 -0.8022
  129OSM   H13T13839   6.625   1.584   7.094 -1.4528  0.0289  2.4534
  129OSM   C14S13840   6.626   1.716   7.250  0.6860 -0.5438 -0.0063
  129OSM   H14S13841   6.578   1.629   7.299  0.7834 -1.4507 -1.4680
  129OSM   H14T13842   6.539   1.779   7.222  1.2076 -0.0866 -0.6206
  129OSM   C15S13843   6.716   1.791   7.349  0.6776 -0.1021  0.0831
  129OSM   H15S13844   6.755   1.883   7.300 -0.5133  0.0614 -0.6041
  129OSM   H15T13845   6.801   1.732   7.390  0.6964  0.9748  1.7022
  129OSM   C16S13846   6.633   1.833   7.469  0.0287  0.3483 -0.3846
  129OSM   H16S13847   6.548   1.893   7.430 -1.1132  1.3129  3.1767
  129OSM   H16T13848   6.686   1.897   7.542  3.6297 -0.9823 -1.6339
  129OSM   C17S13849   6.597   1.724   7.572  0.2090  0.0164  1.5432
  129OSM   H17S13850   6.685   1.680   7.624 -1.1571 -3.2855  1.3337
  129OSM   H17T13851   6.545   1.644   7.514  0.3445  0.7542  0.3819
  129OSM   C18S13852   6.511   1.785   7.689 -0.0463  0.0799 -0.6115
  129OSM   H18S13853   6.480   1.705   7.759 -0.0687  0.0329 -0.6752
  129OSM   H18T13854   6.418   1.835   7.653  1.0486  1.8655 -1.0503
  129OSM   H18U13855   6.562   1.866   7.745  0.0536 -0.6698  0.4100
  129OSM    C1F13856   6.482   1.086   6.549 -1.2292 -0.3464 -0.1165
  129OSM     OF13857   6.593   1.029   6.550 -0.4346  0.3568 -0.3127
  129OSM    C2F13858   6.371   1.049   6.644  0.3482 -0.3328  0.2684
  129OSM    H2F13859   6.412   0.985   6.725 -0.4816  0.5889  1.4616
  129OSM    H2G13860   6.291   0.999   6.585  0.5813  2.5857 -2.8277
  129OSM    C3F13861   6.328   1.176   6.724  0.6937  0.0016 -0.4452
  129OSM    H3F13862   6.264   1.157   6.813  1.3589 -0.5863 -0.0825
  129OSM    H3G13863   6.275   1.246   6.657 -1.4607 -0.7649  0.3551
  129OSM    C4F13864   6.450   1.252   6.789 -0.0409 -0.7965 -0.0950
  129OSM    H4F13865   6.521   1.285   6.710 -1.5596  0.8424 -0.8457
  129OSM    H4G13866   6.504   1.170   6.841  0.6920 -0.8180 -0.8831
  129OSM    C5F13867   6.425   1.355   6.902 -0.6118 -0.2850  0.3078
  129OSM    H5F13868   6.375   1.444   6.857  0.7853  0.0468 -0.6408
  129OSM    H5G13869   6.523   1.396   6.935 -0.2671 -0.4573 -0.4739
  129OSM    C6F13870   6.330   1.316   7.011  0.2871  0.3014  0.1024
  129OSM    H6F13871   6.369   1.223   7.057 -1.1114 -0.2786  0.1661
  129OSM    H6G13872   6.234   1.299   6.958  1.8805 -0.2372 -2.8545
  129OSM    C7F13873   6.326   1.418   7.122  0.8468 -0.6294 -0.4776
  129OSM    H7F13874   6.276   1.514   7.099 -3.6180 -1.8200  2.8203
  129OSM    H7G13875   6.429   1.457   7.133  0.4535  0.8353 -1.7007
  129OSM    C8F13876   6.255   1.385   7.257 -0.0983  0.5453  0.8932
  129OSM    H8F13877   6.257   1.276   7.279 -1.5668  0.5683  1.2087
  129OSM    H8G13878   6.147   1.406   7.242  0.0545  0.0184 -1.3644
  129OSM    C9F13879   6.299   1.463   7.379  0.0311  0.7697 -0.1652
  129OSM    H9F13880   6.402   1.500   7.378  0.2077  0.3119  0.3885
  129OSM   C10F13881   6.223   1.495   7.484  0.2645 -0.2391  1.0704
  129OSM   H10F13882   6.262   1.553   7.569  3.0660  0.5659 -0.6625
  129OSM   C11F13883   6.073   1.477   7.504 -0.1933 -0.1524  0.2719
  129OSM   H11F13884   6.059   1.438   7.607 -2.0690  1.2521  0.6160
  129OSM   H11G13885   6.031   1.412   7.425  0.7688  0.1760 -0.5289
  129OSM   C12F13886   5.993   1.608   7.495 -0.0784 -0.3039 -0.3065
  129OSM   H12F13887   5.883   1.597   7.484 -0.1993  0.8459 -0.3458
  129OSM   H12G13888   6.018   1.668   7.405 -3.6027 -0.2053 -1.3909
  129OSM   C13F13889   6.015   1.688   7.629  0.6162  0.7956  0.5763
  129OSM   H13F13890   6.123   1.717   7.631  0.6714  0.6477 -0.0343
  129OSM   H13G13891   6.000   1.614   7.710  0.6262 -2.7809 -2.4229
  129OSM   C14F13892   5.931   1.808   7.654 -0.3825  0.2420 -0.1759
  129OSM   H14F13893   5.831   1.767   7.679 -0.6143  1.4978  1.1073
  129OSM   H14G13894   5.928   1.883   7.572 -1.9887  0.4291  0.0232
  129OSM   C15F13895   5.973   1.871   7.792  1.0013 -0.4318 -0.4279
  129OSM   H15F13896   6.072   1.922   7.785 -0.6475  3.0175 -1.0904
  129OSM   H15G13897   5.986   1.789   7.865 -2.1447 -1.0848 -0.4777
  129OSM   C16F13898   5.862   1.984   7.820 -0.6646  0.6055 -0.1111
  129OSM   H16F13899   5.759   1.942   7.829 -0.8480  1.2096  0.7714
  129OSM   H16G13900   5.861   2.064   7.743  1.6259  2.6166  1.8310
  129OSM   C17F13901   5.887   2.068   7.950 -0.4810 -0.7301  0.0446
  129OSM   H17F13902   5.991   2.104   7.938 -1.1541  2.4707  2.4928
  129OSM   H17G13903   5.890   2.005   8.042  0.4653 -0.5777  0.1258
  129OSM   C18F13904   5.795   2.185   7.973  0.2486 -0.4463  0.0674
  129OSM   H18F13905   5.815   2.257   7.891  1.1327  1.3657  1.7826
  129OSM   H18G13906   5.832   2.245   8.059  1.6118 -1.4412  0.2155
  129OSM   H18H13907   5.686   2.169   7.984 -0.2482  0.1077 -3.0537
  130OSM      N13908   0.371   5.633   5.891  0.2935  0.4225 -0.4794
  130OSM    C1513909   0.397   5.538   5.780 -0.1815 -0.5700 -0.0816
  130OSM   H15A13910   0.405   5.588   5.685 -0.7845 -1.9371 -0.8923
  130OSM   H15B13911   0.316   5.468   5.760  0.7400 -1.6456 -0.1559
  130OSM   H15C13912   0.485   5.479   5.799  0.3398 -0.2414 -1.3520
  130OSM    C1413913   0.487   5.720   5.917 -0.6299 -0.3968 -0.1032
  130OSM   H14A13914   0.450   5.804   5.976  1.1771 -1.3781  2.6442
  130OSM   H14B13915   0.531   5.753   5.824 -0.5440 -3.1230 -1.1065
  130OSM   H14C13916   0.567   5.673   5.972  1.5241  1.4786 -1.4237
  130OSM    C1313917   0.259   5.730   5.862 -0.0710 -0.4546 -0.6083
  130OSM   H13A13918   0.180   5.688   5.802 -1.2181  0.4841  0.1906
  130OSM   H13B13919   0.292   5.815   5.806 -0.4770 -0.7318 -1.2744
  130OSM   H13C13920   0.203   5.749   5.953 -0.1786 -0.9386 -0.5718
  130OSM    C1213921   0.333   5.552   6.012  0.7280  0.2526 -1.1160
  130OSM   H12A13922   0.412   5.482   6.037  2.2373  2.5254  0.8075
  130OSM   H12B13923   0.253   5.485   5.984 -0.6104  0.5839  1.6349
  130OSM    C1113924   0.286   5.631   6.140 -0.2354  0.4497 -0.1797
  130OSM   H11A13925   0.332   5.731   6.149  0.2317  0.4593 -2.1646
  130OSM   H11B13926   0.321   5.569   6.225  0.9031  1.1569 -0.1205
  130OSM      P13927   0.043   5.523   6.167 -0.0804 -0.2587  0.1870
  130OSM    O1313928  -0.093   5.571   6.179  0.1732  0.3495 -0.0805
  130OSM    O1413929   0.063   5.415   6.074 -0.5155 -0.3172 -0.2891
  130OSM    O1113930   0.103   5.482   6.306 -0.0024  0.6478 -0.3990
  130OSM    O1213931   0.144   5.638   6.125  0.1654 -0.1105 -0.3215
  130OSM    C1S13932   0.094   5.349   6.361  0.8101  0.2933 -0.1952
  130OSM    H1S13933   0.166   5.288   6.301  0.9765 -1.2244  1.4598
  130OSM    H1T13934  -0.007   5.310   6.336  1.0537 -0.1310 -0.5432
  130OSM     NF13935   0.106   5.195   6.552  0.8759 -0.3248  0.1156
  130OSM    HNF13936   0.020   5.169   6.594  0.1549 -2.5911 -2.4775
  130OSM    C2S13937   0.119   5.336   6.515  0.2569  0.6424 -0.1503
  130OSM    H2S13938   0.223   5.364   6.541  0.1127 -0.1058  1.3575
  130OSM    C3S13939   0.033   5.439   6.604  0.5480 -0.1680  0.2569
  130OSM    H3S13940  -0.069   5.398   6.614  0.9664 -0.7112  3.4007
  130OSM     O313941   0.016   5.565   6.547  0.1416  0.0954  1.0008
  130OSM    HO313942   0.045   5.546   6.458  2.5348  2.4486  1.1611
  130OSM    C4S13943   0.093   5.440   6.741  1.2760 -0.5214 -0.1864
  130OSM    H4S13944   0.052   5.364   6.809  0.8442 -0.5734 -0.5028
  130OSM    C5S13945   0.178   5.526   6.799 -0.6360 -0.0174  0.2420
  130OSM    H5S13946   0.205   5.617   6.743 -0.9118  0.3733  0.7373
  130OSM    C6S13947   0.220   5.518   6.944 -0.3250 -0.4377  0.0779
  130OSM    H6S13948   0.251   5.619   6.980  0.7604 -1.5390  2.4419
  130OSM    H6T13949   0.306   5.451   6.961 -0.6626 -1.0473 -0.5697
  130OSM    C7S13950   0.118   5.464   7.051  0.3203 -0.2684 -0.8113
  130OSM    H7S13951   0.108   5.355   7.034 -0.2442 -0.2238 -0.7806
  130OSM    H7T13952   0.014   5.500   7.033 -0.1036 -0.4246  1.1202
  130OSM    C8S13953   0.161   5.472   7.203 -0.1960 -0.0480 -0.0142
  130OSM    H8S13954   0.269   5.446   7.215  0.5317  1.9977 -1.5138
  130OSM    H8T13955   0.097   5.404   7.263 -1.1351 -0.3983 -1.3673
  130OSM    C9S13956   0.149   5.610   7.274 -0.1387  0.2665  0.1337
  130OSM    H9S13957   0.040   5.633   7.278 -0.5320 -1.6151  1.3693
  130OSM    H9T13958   0.197   5.692   7.216 -1.4112 -0.4560 -2.0843
  130OSM   C10S13959   0.212   5.602   7.416 -0.0432 -0.0240 -0.2660
  130OSM   H10S13960   0.320   5.578   7.414  0.1829  0.9858 -1.0681
  130OSM   H10T13961   0.154   5.525   7.471 -1.7987  1.9337  0.8104
  130OSM   C11S13962   0.190   5.730   7.493 -0.0436 -0.0824  0.2182
  130OSM   H11S13963   0.084   5.765   7.496 -0.3200 -0.9523  1.4696
  130OSM   H11T13964   0.249   5.814   7.451 -0.1852  0.5627  1.2668
  130OSM   C12S13965   0.242   5.722   7.636  0.2469  0.1241 -0.0973
  130OSM   H12S13966   0.334   5.660   7.631 -1.1585 -2.0925 -0.3692
  130OSM   H12T13967   0.177   5.647   7.687  2.0116 -2.8229 -1.8715
  130OSM   C13S13968   0.260   5.870   7.687 -0.4435 -0.3910 -0.2360
  130OSM   H13S13969   0.156   5.903   7.710 -0.2141 -0.5741  1.1896
  130OSM   H13T13970   0.323   5.933   7.621  1.5045  0.1315  1.9584
  130OSM   C14S13971   0.335   5.869   7.822 -0.2467 -0.1475  0.0551
  130OSM   H14S13972   0.444   5.849   7.810 -0.5519 -1.9106 -0.0546
  130OSM   H14T13973   0.308   5.784   7.889 -1.0536 -0.1219 -0.2360
  130OSM   C15S13974   0.304   5.996   7.896 -0.0922  0.6019  0.0554
  130OSM   H15S13975   0.206   5.975   7.944 -0.6820  0.5297 -1.1498
  130OSM   H15T13976   0.298   6.086   7.832 -1.0515  1.1540  0.9016
  130OSM   C16S13977   0.391   6.017   8.016  0.3751 -0.6157  0.1803
  130OSM   H16S13978   0.429   5.927   8.070  0.2606  0.0231  1.3620
  130OSM   H16T13979   0.330   6.081   8.083  1.5894 -0.1029  0.8270
  130OSM   C17S13980   0.519   6.092   7.972 -0.5314  0.4045 -0.1372
  130OSM   H17S13981   0.498   6.181   7.910  0.0009  0.9280  0.4304
  130OSM   H17T13982   0.581   6.025   7.908 -1.4053 -0.9322  0.3521
  130OSM   C18S13983   0.599   6.129   8.099  0.0716  0.8484 -0.0909
  130OSM   H18S13984   0.630   6.032   8.142  1.0955  0.1023 -2.3366
  130OSM   H18T13985   0.545   6.194   8.171  1.8562  0.6935  1.4674
  130OSM   H18U13986   0.695   6.175   8.067  0.6507  0.1060  0.5474
  130OSM    C1F13987   0.185   5.099   6.506  0.0738 -0.5563  0.1885
  130OSM     OF13988   0.278   5.125   6.430 -0.1647  0.6352  0.3762
  130OSM    C2F13989   0.141   4.966   6.544 -0.2847 -0.1688  0.6573
  130OSM    H2F13990   0.104   4.905   6.458 -2.6785  1.1607  0.6623
  130OSM    H2G13991   0.053   4.983   6.610 -0.8084  0.6562 -0.2224
  130OSM    C3F13992   0.251   4.881   6.620  0.5477  0.1812 -0.0836
  130OSM    H3F13993   0.341   4.877   6.554  1.8081 -0.6151  1.5917
  130OSM    H3G13994   0.212   4.777   6.623  2.5064 -0.6119 -0.4825
  130OSM    C4F13995   0.275   4.935   6.763 -0.0459 -0.3643  0.3205
  130OSM    H4F13996   0.284   5.045   6.751  0.5586 -0.3760  0.6687
  130OSM    H4G13997   0.372   4.890   6.790 -0.4785 -1.5314  0.0143
  130OSM    C5F13998   0.161   4.883   6.852  0.2594 -0.5040 -0.4396
  130OSM    H5F13999   0.183   4.779   6.885 -1.2389 -0.5439  0.5457
  130OSM    H5G14000   0.068   4.883   6.792  0.6237  2.0288 -1.1549
  130OSM    C6F14001   0.144   4.970   6.978 -0.4966 -0.0376  0.0192
  130OSM    H6F14002   0.035   4.969   6.998 -1.2036  0.5880 -3.2960
  130OSM    H6G14003   0.177   5.072   6.951  2.1952 -0.9678 -0.5926
  130OSM    C7F14004   0.224   4.923   7.103  0.3327  0.1047  0.1466
  130OSM    H7F14005   0.326   4.893   7.072 -0.1155 -1.9266  0.5237
  130OSM    H7G14006   0.173   4.832   7.142 -1.4817  2.1521  2.9530
  130OSM    C8F14007   0.241   5.017   7.219 -0.2607 -0.0621 -0.3318
  130OSM    H8F14008   0.145   5.043   7.269 -0.1717  0.0326 -0.2098
  130OSM    H8G14009   0.267   5.117   7.177 -2.3915  0.5445 -0.3173
  130OSM    C9F14010   0.344   4.977   7.316  0.0185 -0.2691  0.5032
  130OSM    H9F14011   0.434   4.939   7.267 -0.1643  0.7382 -0.6560
  130OSM   C10F14012   0.330   4.987   7.453 -0.9553  0.5290  0.2962
  130OSM   H10F14013   0.411   4.944   7.513 -0.3883  0.4256 -0.5270
  130OSM   C11F14014   0.213   5.034   7.538 -0.0403  0.9201  0.3963
  130OSM   H11F14015   0.225   4.972   7.630  0.9138  0.0837 -0.2698
  130OSM   H11G14016   0.122   5.003   7.482  0.6718 -2.0281  0.7014
  130OSM   C12F14017   0.222   5.181   7.571  0.2349  0.2860 -0.1596
  130OSM   H12F14018   0.128   5.200   7.626  0.3246  1.7225 -0.4776
  130OSM   H12G14019   0.224   5.253   7.486 -1.5872  0.6499  0.0720
  130OSM   C13F14020   0.328   5.210   7.674  0.1572 -0.1870 -0.6139
  130OSM   H13F14021   0.427   5.227   7.625  1.3580 -1.3587  1.2668
  130OSM   H13G14022   0.339   5.126   7.746 -3.8160 -0.3360  0.0305
  130OSM   C14F14023   0.298   5.334   7.761  0.0440  0.3052 -0.2545
  130OSM   H14F14024   0.208   5.309   7.821  0.2606  0.2005  0.0251
  130OSM   H14G14025   0.277   5.424   7.700  2.0817 -0.4690 -2.2524
  130OSM   C15F14026   0.413   5.359   7.863  0.3814  0.3621 -0.2493
  130OSM   H15F14027   0.496   5.406   7.805  0.2870 -1.6120 -2.0963
  130OSM   H15G14028   0.462   5.269   7.905  3.5107  2.4403  0.9497
  130OSM   C16F14029   0.363   5.455   7.972  0.5205 -0.7090 -0.0392
  130OSM   H16F14030   0.280   5.427   8.041 -0.5207  0.6323 -0.7137
  130OSM   H16G14031   0.313   5.542   7.925 -1.3013 -0.9722  1.2834
  130OSM   C17F14032   0.479   5.510   8.061 -0.1153  0.3862  0.1077
  130OSM   H17F14033   0.559   5.559   8.001 -0.6956  1.4258  0.1744
  130OSM   H17G14034   0.517   5.424   8.122 -1.2071 -0.7499 -0.7608
  130OSM   C18F14035   0.431   5.611   8.164 -0.4125  0.1941 -0.2161
  130OSM   H18F14036   0.342   5.581   8.224 -0.3385  0.8538  0.2323
  130OSM   H18G14037   0.399   5.706   8.115  1.4850  0.4153 -1.1211
  130OSM   H18H14038   0.515   5.636   8.232 -2.3087  0.3301  2.2259
  131OSM      N14039   1.531   3.476   6.058  0.6594 -0.1478  0.7078
  131OSM    C1514040   1.598   3.571   5.965  0.3919  0.1151  0.4865
  131OSM   H15A14041   1.702   3.580   5.993  0.9010 -1.0299 -0.9352
  131OSM   H15B14042   1.542   3.664   5.964  1.3988  0.7745 -1.7585
  131OSM   H15C14043   1.594   3.530   5.865 -1.6374 -2.6296  1.5674
  131OSM    C1414044   1.397   3.459   6.003 -0.3110 -0.0957  0.4058
  131OSM   H14A14045   1.357   3.552   5.964 -1.3520 -1.0501 -0.9084
  131OSM   H14B14046   1.333   3.424   6.082 -0.9222  0.0784  0.0009
  131OSM   H14C14047   1.389   3.396   5.915  1.1691 -0.7280  0.7036
  131OSM    C1314048   1.603   3.346   6.051  0.2541  0.5969 -0.1526
  131OSM   H13A14049   1.549   3.262   6.092  1.0733 -0.0800 -0.4164
  131OSM   H13B14050   1.695   3.362   6.106  0.2451 -1.2575  0.4685
  131OSM   H13C14051   1.631   3.326   5.949 -0.7775 -1.3643 -0.0950
  131OSM    C1214052   1.520   3.536   6.195 -0.2926  0.1374  0.1012
  131OSM   H12A14053   1.457   3.472   6.255  0.2316 -0.8134 -0.3466
  131OSM   H12B14054   1.469   3.631   6.183  0.6950  0.6193 -0.3517
  131OSM    C1114055   1.650   3.556   6.280  0.0611 -0.4450  0.4345
  131OSM   H11A14056   1.715   3.466   6.281  1.1009  0.2741  1.6250
  131OSM   H11B14057   1.626   3.578   6.387  0.7953  1.7278  0.2087
  131OSM      P14058   1.884   3.647   6.212 -0.2196 -0.1472  0.1117
  131OSM    O1314059   1.905   3.525   6.132  0.0925 -0.5865  0.5018
  131OSM    O1414060   1.951   3.769   6.160 -0.1076 -0.2854  0.5987
  131OSM    O1114061   1.914   3.623   6.362 -0.0939  0.1272  0.0302
  131OSM    O1214062   1.722   3.669   6.226  0.3642 -0.3281  0.2911
  131OSM    C1S14063   1.935   3.736   6.448  0.5753  0.1049  0.4296
  131OSM    H1S14064   1.838   3.787   6.462 -0.4422 -1.1119 -1.6074
  131OSM    H1T14065   2.015   3.803   6.409  0.0187  1.4859  1.5817
  131OSM     NF14066   2.037   3.807   6.653  0.7379 -0.2899  0.2667
  131OSM    HNF14067   2.135   3.806   6.674  1.6965  1.2515 -3.3998
  131OSM    C2S14068   1.985   3.691   6.584  0.2235  0.4761  1.0700
  131OSM    H2S14069   1.890   3.662   6.635 -2.3928  0.1854 -3.4949
  131OSM    C3S14070   2.084   3.574   6.583 -0.3663 -0.4842 -0.2845
  131OSM    H3S14071   2.170   3.608   6.522  0.7278 -1.7513  0.4672
  131OSM     O314072   2.039   3.461   6.518  0.6087  0.0452  0.0118
  131OSM    HO314073   1.978   3.502   6.457 -0.6315 -1.4517  0.1761
  131OSM    C4S14074   2.122   3.534   6.727  0.0515 -0.2454  0.3045
  131OSM    H4S14075   2.223   3.568   6.751  0.2034  1.2996 -2.0986
  131OSM    C5S14076   2.051   3.471   6.819  0.1958 -0.3104 -0.4833
  131OSM    H5S14077   1.946   3.445   6.797 -0.8373 -0.2282  3.5912
  131OSM    C6S14078   2.107   3.439   6.953  0.8313  0.2507 -0.6276
  131OSM    H6S14079   2.207   3.485   6.966  0.8412  0.4370 -1.3031
  131OSM    H6T14080   2.114   3.329   6.971  1.0134  0.4393  0.5339
  131OSM    C7S14081   2.032   3.498   7.078  0.3444  0.5880  0.6336
  131OSM    H7S14082   1.934   3.447   7.072  1.2356 -1.0996 -0.5832
  131OSM    H7T14083   2.007   3.605   7.087  1.2371  0.7187  1.7414
  131OSM    C8S14084   2.099   3.450   7.212 -0.7745  0.0419  0.4761
  131OSM    H8S14085   2.189   3.513   7.234 -1.2862  1.5324 -1.4375
  131OSM    H8T14086   2.129   3.343   7.216 -1.9347 -0.4893 -2.7676
  131OSM    C9S14087   1.998   3.483   7.325 -0.1174  0.5653 -0.4271
  131OSM    H9S14088   1.903   3.425   7.321 -0.7049  1.4494  0.4536
  131OSM    H9T14089   1.989   3.594   7.318  0.3849  0.5101 -2.9489
  131OSM   C10S14090   2.045   3.466   7.472  0.4550 -0.2336 -0.0334
  131OSM   H10S14091   2.111   3.550   7.503 -0.6784  0.3459  0.9110
  131OSM   H10T14092   2.098   3.369   7.481  0.0733 -0.2782  2.4329
  131OSM   C11S14093   1.934   3.452   7.570  0.2723  0.1029  0.9821
  131OSM   H11S14094   1.925   3.343   7.591  0.8196 -0.8811 -3.1443
  131OSM   H11T14095   1.838   3.492   7.531  0.9731  0.0662 -0.8548
  131OSM   C12S14096   1.962   3.528   7.702 -0.2097 -0.4732 -0.2843
  131OSM   H12S14097   1.995   3.634   7.691 -1.5860  0.3044  2.4154
  131OSM   H12T14098   2.049   3.476   7.748 -0.5649 -1.5313 -0.7671
  131OSM   C13S14099   1.840   3.524   7.798 -0.2584  0.2538 -0.7041
  131OSM   H13S14100   1.755   3.589   7.769  0.4844  1.9733  0.8027
  131OSM   H13T14101   1.883   3.562   7.893 -0.2910  1.0581 -1.0045
  131OSM   C14S14102   1.795   3.384   7.823 -0.0772 -0.3613  0.1851
  131OSM   H14S14103   1.882   3.323   7.853  1.7091  2.0312  0.1351
  131OSM   H14T14104   1.756   3.337   7.730  0.6215 -1.8288  0.5976
  131OSM   C15S14105   1.690   3.376   7.932  0.0484 -0.5369  0.4468
  131OSM   H15S14106   1.654   3.271   7.943 -1.9478 -0.1955 -2.0255
  131OSM   H15T14107   1.606   3.443   7.907  0.3817  0.0621  0.8953
  131OSM   C16S14108   1.742   3.400   8.072 -0.1994  0.0749  0.2996
  131OSM   H16S14109   1.817   3.481   8.080 -1.5063  1.2646  1.0126
  131OSM   H16T14110   1.786   3.308   8.118  1.2664 -0.0238 -1.2232
  131OSM   C17S14111   1.630   3.446   8.166 -0.3227  0.7538  0.6929
  131OSM   H17S14112   1.659   3.415   8.269  0.0590 -0.6795  0.1840
  131OSM   H17T14113   1.546   3.380   8.134  0.9989 -0.6269 -0.0239
  131OSM   C18S14114   1.594   3.591   8.168 -0.0538  0.2493 -0.0509
  131OSM   H18S14115   1.589   3.631   8.064  1.7732 -0.3141 -0.4017
  131OSM   H18T14116   1.656   3.668   8.219 -0.6708  0.0122  1.0829
  131OSM   H18U14117   1.495   3.610   8.213 -0.5479 -2.2283  0.0198
  131OSM    C1F14118   1.961   3.922   6.679 -0.3085 -0.2287  0.3659
  131OSM     OF14119   1.841   3.920   6.672  0.5155  0.4082  0.4337
  131OSM    C2F14120   2.030   4.047   6.722 -0.1472 -0.5172 -0.3552
  131OSM    H2F14121   1.954   4.127   6.732 -0.7392 -0.3753 -4.4309
  131OSM    H2G14122   2.097   4.080   6.640  0.4852 -0.1351  0.3003
  131OSM    C3F14123   2.117   4.035   6.854  0.3510 -0.4395  0.6765
  131OSM    H3F14124   2.146   4.137   6.888  1.6642 -1.1940  1.9318
  131OSM    H3G14125   2.216   3.987   6.839  1.0767  1.5558 -1.5643
  131OSM    C4F14126   2.051   3.961   6.971 -0.0456 -0.7597 -0.5822
  131OSM    H4F14127   2.044   3.852   6.948  0.8708 -0.9399 -0.0697
  131OSM    H4G14128   1.949   4.002   6.986  0.0603  0.0146 -1.8903
  131OSM    C5F14129   2.127   3.966   7.106 -0.2753  1.1403  0.0203
  131OSM    H5F14130   2.155   4.073   7.122  1.5374  0.5119  1.3946
  131OSM    H5G14131   2.220   3.908   7.095  0.6776  2.3571  1.2560
  131OSM    C6F14132   2.042   3.919   7.222  1.2141 -0.3084  0.6494
  131OSM    H6F14133   2.032   3.809   7.241  1.1989 -0.4249 -0.0201
  131OSM    H6G14134   1.945   3.971   7.209  2.0238  2.1534  3.4474
  131OSM    C7F14135   2.102   3.976   7.345 -0.7456  0.1813 -0.0506
  131OSM    H7F14136   2.106   4.086   7.330 -0.1473  0.1016 -0.4985
  131OSM    H7G14137   2.210   3.947   7.348 -1.0127 -0.8386  0.4496
  131OSM    C8F14138   2.031   3.939   7.477 -0.0493 -0.3913 -0.8275
  131OSM    H8F14139   2.076   3.986   7.567 -2.9104 -0.2187  0.6306
  131OSM    H8G14140   2.050   3.830   7.480  2.4334 -0.0138 -1.1064
  131OSM    C9F14141   1.882   3.963   7.475 -0.3013 -0.7820  0.5658
  131OSM    H9F14142   1.821   3.929   7.390 -2.5214  0.8214  1.3986
  131OSM   C10F14143   1.810   4.031   7.570  0.5132  0.0831  0.6539
  131OSM   H10F14144   1.704   4.050   7.545  0.5892 -0.2486  0.0703
  131OSM   C11F14145   1.866   4.098   7.696 -0.2975 -0.2081  0.1661
  131OSM   H11F14146   1.813   4.194   7.710  2.2361  1.0668  1.5752
  131OSM   H11G14147   1.970   4.129   7.677 -0.0065 -1.1762  0.1099
  131OSM   C12F14148   1.872   4.018   7.829  0.4266 -0.1714 -0.1860
  131OSM   H12F14149   1.766   4.010   7.860  0.3254  1.8351  0.1217
  131OSM   H12G14150   1.926   4.087   7.898  0.0330  0.2092 -0.2565
  131OSM   C13F14151   1.931   3.879   7.816 -0.4741 -0.2335  0.0657
  131OSM   H13F14152   2.012   3.878   7.740  1.9296  1.0778  2.4152
  131OSM   H13G14153   1.856   3.804   7.784 -1.9959  1.0250  0.5587
  131OSM   C14F14154   1.989   3.821   7.946 -0.2850  0.1926  0.2563
  131OSM   H14F14155   2.081   3.883   7.963 -0.0470  0.1934 -0.9592
  131OSM   H14G14156   2.024   3.720   7.916  2.4042  1.2268 -0.4625
  131OSM   C15F14157   1.903   3.819   8.075  0.6302  0.5441  0.0325
  131OSM   H15F14158   1.800   3.791   8.045 -0.5191  3.3191  1.0384
  131OSM   H15G14159   1.899   3.927   8.101  1.2836  0.2029  1.6735
  131OSM   C16F14160   1.951   3.742   8.193 -0.4405 -0.0903 -0.6491
  131OSM   H16F14161   2.062   3.741   8.203 -0.4999  0.7674  0.2685
  131OSM   H16G14162   1.936   3.634   8.170 -1.3873  0.1170 -1.0443
  131OSM   C17F14163   1.889   3.775   8.326  0.0017 -0.2222  0.6124
  131OSM   H17F14164   1.802   3.842   8.308  0.9299  0.9725  0.4482
  131OSM   H17G14165   1.956   3.845   8.380  2.4568 -0.9389 -1.3431
  131OSM   C18F14166   1.852   3.655   8.422 -0.7950 -0.0169  0.6171
  131OSM   H18F14167   1.948   3.606   8.453  0.6051  1.2651 -1.4405
  131OSM   H18G14168   1.784   3.586   8.368  1.0795 -0.4567 -1.3407
  131OSM   H18H14169   1.804   3.683   8.518 -2.8977  0.2627 -0.4781
  132OSM      N14170   1.749   4.839   6.070 -0.6886  0.1604  0.2056
  132OSM    C1514171   1.724   4.977   6.116 -0.8576  0.0635  0.6528
  132OSM   H15A14172   1.817   5.029   6.134 -0.9329  0.5352 -0.2395
  132OSM   H15B14173   1.650   4.969   6.193 -1.3726 -0.5104  0.1055
  132OSM   H15C14174   1.688   5.029   6.028  1.7550 -0.8398 -1.0897
  132OSM    C1414175   1.839   4.856   5.952  0.6599 -0.4956  0.3412
  132OSM   H14A14176   1.939   4.886   5.982  1.6513  0.9683 -3.7505
  132OSM   H14B14177   1.802   4.938   5.893 -0.5751 -0.8400  0.6161
  132OSM   H14C14178   1.838   4.765   5.894 -0.6905 -0.7246  0.7016
  132OSM    C1314179   1.824   4.768   6.175  0.2539 -0.0588 -0.0550
  132OSM   H13A14180   1.924   4.810   6.180 -0.0272  0.8477 -1.5230
  132OSM   H13B14181   1.833   4.664   6.150  0.1666 -0.7258  2.4576
  132OSM   H13C14182   1.776   4.775   6.271  0.7512  1.9948  0.1044
  132OSM    C1214183   1.630   4.753   6.035  0.5409  0.6052  0.5265
  132OSM   H12A14184   1.670   4.661   5.994 -1.8561 -0.3191  0.0902
  132OSM   H12B14185   1.584   4.782   5.941  3.4606 -2.4051 -2.0849
  132OSM    C1114186   1.526   4.719   6.142  0.2160 -0.1865  0.2566
  132OSM   H11A14187   1.577   4.655   6.217 -0.7301 -2.6319 -1.1010
  132OSM   H11B14188   1.446   4.650   6.109  1.0685 -1.7626  1.3632
  132OSM      P14189   1.356   4.915   6.125 -0.2377  0.2590 -0.1427
  132OSM    O1314190   1.385   5.059   6.127 -0.2582 -0.0621  0.0284
  132OSM    O1414191   1.329   4.853   5.996  0.1940 -0.2119 -0.4537
  132OSM    O1114192   1.233   4.887   6.218  0.0723 -0.8964 -0.3528
  132OSM    O1214193   1.470   4.837   6.204 -0.3143 -0.4764 -0.0687
  132OSM    C1S14194   1.243   4.814   6.334 -0.0357 -0.5362  0.0366
  132OSM    H1S14195   1.312   4.869   6.401  2.6722 -2.1718 -1.2140
  132OSM    H1T14196   1.270   4.709   6.310 -0.8136 -0.5750 -0.7286
  132OSM     NF14197   1.108   4.770   6.542 -0.1890  0.2938  0.0442
  132OSM    HNF14198   1.083   4.677   6.564  0.2488  0.1591 -0.0156
  132OSM    C2S14199   1.099   4.821   6.402 -0.3571 -0.6521 -0.6473
  132OSM    H2S14200   1.079   4.931   6.397  3.2179  0.1375 -0.1781
  132OSM    C3S14201   0.992   4.741   6.317 -0.1182  1.0054 -0.0326
  132OSM    H3S14202   1.017   4.634   6.302 -0.7077  0.9446 -0.6358
  132OSM     O314203   0.974   4.786   6.185  0.1549 -0.7395 -0.2494
  132OSM    HO314204   1.040   4.856   6.182 -1.2384  0.7415  1.4546
  132OSM    C4S14205   0.856   4.739   6.398 -0.2776 -0.8632  0.2649
  132OSM    H4S14206   0.827   4.640   6.435  0.3258 -0.5957  1.4961
  132OSM    C5S14207   0.773   4.849   6.409 -0.2730  0.2893 -0.9175
  132OSM    H5S14208   0.803   4.938   6.352  1.0615  0.4602 -0.0037
  132OSM    C6S14209   0.636   4.841   6.481 -0.2787 -0.0551  0.8168
  132OSM    H6S14210   0.622   4.740   6.525  1.8519 -0.2830  1.1117
  132OSM    H6T14211   0.566   4.871   6.400 -2.2476 -1.8359  1.7737
  132OSM    C7S14212   0.652   4.943   6.604  0.0035  0.3547  0.4705
  132OSM    H7S14213   0.560   4.945   6.665  0.2007 -0.7226  0.8131
  132OSM    H7T14214   0.673   5.048   6.576  0.0308 -0.0478 -1.0924
  132OSM    C8S14215   0.771   4.913   6.702 -0.4190  0.4571 -0.3533
  132OSM    H8S14216   0.798   5.012   6.746 -3.7067  1.4296 -0.2296
  132OSM    H8T14217   0.865   4.875   6.658 -0.2012 -0.4925  0.8745
  132OSM    C9S14218   0.727   4.808   6.801 -0.5429  1.0043 -0.0425
  132OSM    H9S14219   0.700   4.707   6.763 -0.6220  0.6306  0.9923
  132OSM    H9T14220   0.644   4.852   6.860  0.5003  3.5372 -0.3064
  132OSM   C10S14221   0.850   4.775   6.890  1.2224  0.0929  0.5588
  132OSM   H10S14222   0.891   4.868   6.934  1.8014 -0.7686  1.9212
  132OSM   H10T14223   0.928   4.744   6.817  2.4429  4.1873 -0.1404
  132OSM   C11S14224   0.814   4.680   7.005 -0.1239  0.4712 -0.8216
  132OSM   H11S14225   0.909   4.659   7.057 -1.8093 -0.1537  2.2092
  132OSM   H11T14226   0.775   4.583   6.967  0.6852  0.6265 -2.1189
  132OSM   C12S14227   0.704   4.731   7.097  0.0836 -0.5263  0.4153
  132OSM   H12S14228   0.602   4.723   7.054 -0.4328 -0.7446  1.6475
  132OSM   H12T14229   0.716   4.841   7.111 -0.4042 -0.2830 -0.8422
  132OSM   C13S14230   0.704   4.658   7.237  0.6177 -0.3147  0.7119
  132OSM   H13S14231   0.803   4.663   7.287 -0.3254  1.2771  2.5300
  132OSM   H13T14232   0.668   4.558   7.205 -1.0825  0.0896  1.2465
  132OSM   C14S14233   0.598   4.724   7.330  0.7463 -0.1306 -0.3451
  132OSM   H14S14234   0.502   4.734   7.274  0.0977  2.2234  1.0144
  132OSM   H14T14235   0.635   4.827   7.349  1.6854 -0.3156 -1.1397
  132OSM   C15S14236   0.567   4.648   7.457 -0.0821 -0.1539  0.7274
  132OSM   H15S14237   0.520   4.548   7.442 -3.5174  1.7338 -3.0036
  132OSM   H15T14238   0.480   4.700   7.502  0.0499  0.3321  0.4253
  132OSM   C16S14239   0.674   4.629   7.552  0.0590 -0.3512  0.5870
  132OSM   H16S14240   0.726   4.725   7.572  0.4309 -0.5135  0.3981
  132OSM   H16T14241   0.745   4.556   7.509 -1.8940 -0.9935 -1.7315
  132OSM   C17S14242   0.629   4.591   7.691  0.6643  0.2431 -0.5409
  132OSM   H17S14243   0.600   4.484   7.694  3.3289 -0.5472  0.0111
  132OSM   H17T14244   0.543   4.652   7.725  0.1590 -0.5702 -0.3261
  132OSM   C18S14245   0.741   4.610   7.801  0.3001 -0.6460  0.3829
  132OSM   H18S14246   0.740   4.521   7.868  1.1631 -0.4315  0.6955
  132OSM   H18T14247   0.707   4.700   7.856 -0.5955 -1.8251  1.8503
  132OSM   H18U14248   0.835   4.635   7.748 -0.1052  1.2655  0.5081
  132OSM    C1F14249   1.188   4.831   6.633  0.0657  0.5149 -0.3244
  132OSM     OF14250   1.225   4.947   6.620 -0.4624  0.3045  0.0461
  132OSM    C2F14251   1.219   4.754   6.752 -0.2168  0.1204 -0.0727
  132OSM    H2F14252   1.239   4.647   6.729  0.6905  0.4278 -0.7652
  132OSM    H2G14253   1.124   4.751   6.811 -1.0539 -2.3546 -1.4282
  132OSM    C3F14254   1.329   4.821   6.845  0.0600 -0.4063 -0.3311
  132OSM    H3F14255   1.298   4.925   6.870 -0.5688 -0.7898  0.4992
  132OSM    H3G14256   1.423   4.824   6.785  0.2779 -0.2130  0.0165
  132OSM    C4F14257   1.359   4.763   6.986  0.1859 -0.2102  0.2569
  132OSM    H4F14258   1.386   4.655   6.978  1.0978 -0.1233  1.7206
  132OSM    H4G14259   1.264   4.757   7.044  0.1574 -3.3392  0.0637
  132OSM    C5F14260   1.456   4.839   7.075 -0.0969 -0.5490  0.2055
  132OSM    H5F14261   1.419   4.940   7.102 -1.6429 -0.9962 -0.0771
  132OSM    H5G14262   1.545   4.834   7.010 -1.2878  2.3040 -1.8532
  132OSM    C6F14263   1.487   4.770   7.204 -0.2804 -1.3041 -0.2603
  132OSM    H6F14264   1.536   4.677   7.169  3.2909  1.0345 -2.1759
  132OSM    H6G14265   1.401   4.754   7.272 -0.4116  2.5531  0.7177
  132OSM    C7F14266   1.602   4.842   7.288  0.3112  0.4993  0.3893
  132OSM    H7F14267   1.571   4.946   7.313  1.7716  1.2647 -0.8382
  132OSM    H7G14268   1.689   4.849   7.220  0.1651 -0.0599  0.1411
  132OSM    C8F14269   1.638   4.766   7.419 -0.4031 -0.6244  0.0969
  132OSM    H8F14270   1.670   4.666   7.382 -0.0186 -0.6231  0.4066
  132OSM    H8G14271   1.548   4.750   7.482 -1.9453 -1.2445 -2.1842
  132OSM    C9F14272   1.761   4.825   7.495 -0.1017 -0.5055 -0.4081
  132OSM    H9F14273   1.854   4.812   7.439  0.5536  2.9050 -0.3560
  132OSM   C10F14274   1.756   4.883   7.619  0.3295 -0.7482 -0.4966
  132OSM   H10F14275   1.844   4.932   7.664  1.0300 -2.3331 -0.0461
  132OSM   C11F14276   1.632   4.897   7.704  0.1534  0.3644  0.0125
  132OSM   H11F14277   1.541   4.857   7.654 -0.6676 -0.6079  2.1555
  132OSM   H11G14278   1.611   5.005   7.717  0.7567  0.7804 -2.1147
  132OSM   C12F14279   1.621   4.828   7.839 -0.5190  0.8720  0.5516
  132OSM   H12F14280   1.712   4.855   7.895  0.4106 -1.0967  0.0950
  132OSM   H12G14281   1.623   4.718   7.822  0.1601  0.6652  1.8423
  132OSM   C13F14282   1.505   4.870   7.933  0.5116  0.0407  0.8428
  132OSM   H13F14283   1.405   4.841   7.894  1.2009 -2.4957  0.7574
  132OSM   H13G14284   1.499   4.980   7.920 -0.7770  0.0546  1.4435
  132OSM   C14F14285   1.526   4.830   8.081  0.6684  0.0740 -0.4598
  132OSM   H14F14286   1.448   4.884   8.139  1.5234  1.5922 -0.6916
  132OSM   H14G14287   1.620   4.875   8.118  0.8645 -0.5206 -0.2254
  132OSM   C15F14288   1.520   4.683   8.107 -0.0436  0.5613  1.1899
  132OSM   H15F14289   1.618   4.638   8.079  0.6662  2.5891  0.2100
  132OSM   H15G14290   1.444   4.632   8.044  1.6515 -0.6890  0.0489
  132OSM   C16F14291   1.508   4.639   8.246 -0.1881 -1.0649 -0.3963
  132OSM   H16F14292   1.422   4.684   8.300  0.4444  0.4835 -0.6409
  132OSM   H16G14293   1.594   4.675   8.307  0.3638 -0.6196 -1.4138
  132OSM   C17F14294   1.499   4.488   8.274 -0.9171  0.1549  0.0500
  132OSM   H17F14295   1.438   4.433   8.198 -0.1000 -0.8886  0.1133
  132OSM   H17G14296   1.430   4.473   8.360  1.6080 -2.0129  1.8641
  132OSM   C18F14297   1.630   4.422   8.311  0.5204  0.7373 -0.1311
  132OSM   H18F14298   1.601   4.314   8.320 -0.5254  1.0065 -0.0684
  132OSM   H18G14299   1.661   4.457   8.412  1.2043 -2.1821  0.7825
  132OSM   H18H14300   1.704   4.438   8.231  2.1223  0.9438  1.3450
  133SAPE     N14301   3.206   6.701  10.949  0.0318  0.4098 -0.0928
  133SAPE   HN114302   3.215   6.664  11.046  0.2771 -1.5722 -0.8387
  133SAPE   HN214303   3.121   6.760  10.944 -0.6856 -0.4902  0.9918
  133SAPE   HN314304   3.176   6.619  10.893 -3.7106  1.7622 -0.3740
  133SAPE   C1214305   3.331   6.760  10.894 -0.8484 -0.6126 -0.0337
  133SAPE  H12A14306   3.415   6.690  10.909  0.2823  0.2063 -2.1472
  133SAPE  H12B14307   3.352   6.858  10.941  0.3869  0.0376 -1.8610
  133SAPE   C1114308   3.328   6.777  10.744  0.1759  0.7186  0.0360
  133SAPE  H11A14309   3.331   6.672  10.708  1.2120  0.6611  0.2891
  133SAPE  H11B14310   3.422   6.825  10.711  0.9624 -0.5513  0.3965
  133SAPE     P14311   3.216   6.993  10.661 -0.3756  0.0567  0.4457
  133SAPE   O1314312   3.080   7.048  10.651  0.7510  0.1408  0.5039
  133SAPE   O1414313   3.304   7.071  10.752  0.2368  0.9093 -0.3967
  133SAPE   O1214314   3.207   6.841  10.698 -0.3181  0.2940 -0.5054
  133SAPE   O1114315   3.278   6.996  10.515  0.9120  0.0954  0.3791
  133SAPE    C114316   3.211   6.924  10.407 -1.4309  0.2446  0.6020
  133SAPE    HA14317   3.109   6.885  10.427 -0.6548 -2.5700 -0.3949
  133SAPE    HB14318   3.205   6.989  10.318  0.5655  1.3893  1.2311
  133SAPE    C214319   3.290   6.795  10.374 -0.0868 -0.1371 -0.2548
  133SAPE    HS14320   3.276   6.724  10.458  0.1732  0.5145  0.3530
  133SAPE   O2114321   3.430   6.821  10.342 -0.4932 -0.3308 -0.4551
  133SAPE   C2114322   3.507   6.718  10.358  0.7061 -0.1714 -0.3022
  133SAPE   O2214323   3.465   6.610  10.396 -0.4271 -0.1621  0.5742
  133SAPE   C2214324   3.649   6.735  10.315 -0.1098  0.4711  0.0416
  133SAPE   H2R14325   3.637   6.755  10.206  0.7304  0.4282 -0.0686
  133SAPE   H2S14326   3.685   6.825  10.370 -1.2125  0.7529  0.3082
  133SAPE    C314327   3.211   6.719  10.257 -0.7242 -0.0930 -0.1423
  133SAPE    HX14328   3.102   6.705  10.280 -0.4869 -1.2497  0.4044
  133SAPE    HY14329   3.245   6.613  10.257 -1.2568 -0.2692 -0.0771
  133SAPE   O3114330   3.196   6.782  10.127  0.2366  0.4901 -0.6207
  133SAPE   C3114331   3.277   6.735  10.033  0.0446 -0.5489 -0.5017
  133SAPE   O3214332   3.357   6.644  10.041  0.2022 -0.3081 -0.6723
  133SAPE   C3214333   3.269   6.834   9.919  0.5369  0.1128  0.3659
  133SAPE   H2X14334   3.335   6.919   9.946  0.8813  0.5444 -1.7167
  133SAPE   H2Y14335   3.163   6.859   9.896  1.8935  2.2695 -4.8524
  133SAPE   C2314336   3.740   6.613  10.327 -0.6360  0.2699 -0.3982
  133SAPE   H3R14337   3.698   6.527  10.271 -0.1199  0.3209 -0.8699
  133SAPE   H3S14338   3.732   6.578  10.433 -3.8815  0.4142 -0.4881
  133SAPE   C2414339   3.882   6.636  10.304  0.5996 -0.1729 -0.2873
  133SAPE   H4R14340   3.926   6.540  10.269  0.3523 -0.0703 -0.8970
  133SAPE   H4S14341   3.924   6.661  10.404 -1.0174  1.6399  0.0023
  133SAPE   C2514342   3.919   6.736  10.191  1.3791 -0.0539 -0.2330
  133SAPE   H5R14343   3.953   6.836  10.221 -0.6465  0.4951  0.3555
  133SAPE   C2614344   3.919   6.711  10.062 -0.2201  0.2526  0.0884
  133SAPE   H6R14345   3.966   6.789  10.000 -0.9086 -1.0443 -2.1774
  133SAPE   C2714346   3.869   6.585   9.990 -0.4210 -0.4771  0.0044
  133SAPE   H7R14347   3.892   6.495  10.050  0.0204 -1.2937 -1.3527
  133SAPE   H7S14348   3.933   6.563   9.902 -1.2277 -1.1045 -0.4398
  133SAPE   C2814349   3.722   6.591   9.955  0.0270 -0.3954  0.3951
  133SAPE   H8R14350   3.660   6.641  10.030  0.9611 -0.5132  1.2682
  133SAPE   C2914351   3.662   6.543   9.842 -0.1566 -0.4948 -0.0303
  133SAPE   H9R14352   3.560   6.573   9.816  1.3435  3.1383 -2.4184
  133SAPE  C21014353   3.741   6.480   9.728 -0.2573 -0.5428 -0.1937
  133SAPE  H10R14354   3.687   6.391   9.690 -1.0433  0.5299 -1.6672
  133SAPE  H10S14355   3.844   6.459   9.765 -0.2396  0.0082  0.0883
  133SAPE  C21114356   3.737   6.593   9.624 -0.0229  1.2364 -0.9896
  133SAPE  H11R14357   3.765   6.690   9.667  1.3586  0.6882 -0.5999
  133SAPE  C21214358   3.707   6.579   9.495  0.1661  0.3921  0.2803
  133SAPE  H12R14359   3.714   6.674   9.440 -0.4995  0.1899 -0.1653
  133SAPE  C21314360   3.662   6.450   9.423 -0.2515 -1.1459  0.0683
  133SAPE  H13R14361   3.596   6.392   9.491 -0.6916 -0.2975  0.3720
  133SAPE  H13S14362   3.749   6.386   9.397  1.2182  0.4355  0.9514
  133SAPE  C21414363   3.570   6.463   9.305  0.2774 -0.0504  0.3882
  133SAPE  H14R14364   3.468   6.501   9.322 -1.0054 -3.5742  1.2919
  133SAPE  C21514365   3.608   6.437   9.175 -0.1122 -0.4163  0.1411
  133SAPE  H15R14366   3.528   6.428   9.101 -0.7184 -0.3940  0.7818
  133SAPE  C21614367   3.742   6.386   9.134  1.0505 -0.5522  0.4132
  133SAPE  H16R14368   3.754   6.276   9.146  1.3436 -0.7728 -1.5655
  133SAPE  H16S14369   3.822   6.435   9.192 -0.2205 -1.8935  3.5158
  133SAPE  C21714370   3.767   6.411   8.976 -0.0465  0.0883  0.3270
  133SAPE  H17R14371   3.875   6.394   8.954 -0.1005  0.0827  0.0605
  133SAPE  H17S14372   3.755   6.521   8.962  0.3174  0.0913  0.0372
  133SAPE  C21814373   3.671   6.340   8.879  0.0008  0.5594  0.3849
  133SAPE  H18R14374   3.562   6.365   8.884  0.1191  1.5493 -1.3150
  133SAPE  H18S14375   3.686   6.230   8.890 -2.4303  0.1268  0.0805
  133SAPE  C21914376   3.712   6.381   8.736 -0.5001 -0.5193 -0.6577
  133SAPE  H19R14377   3.811   6.333   8.717 -0.8225 -0.7635 -1.7532
  133SAPE  H19S14378   3.733   6.490   8.730  2.0024 -0.8566  0.5566
  133SAPE  C22014379   3.598   6.367   8.638  0.5246  0.1546 -0.3458
  133SAPE  H20R14380   3.568   6.261   8.624 -0.3534  0.6198 -2.4308
  133SAPE  H20S14381   3.621   6.406   8.537  1.8302 -0.2077 -0.2067
  133SAPE  H20T14382   3.510   6.425   8.673 -2.7982 -2.3954 -3.6618
  133SAPE   C3314383   3.329   6.764   9.792 -0.2119  0.2215  0.2105
  133SAPE   H3X14384   3.272   6.672   9.766  1.7751 -0.4622 -2.0375
  133SAPE   H3Y14385   3.438   6.748   9.808  0.3269  0.0975 -2.9746
  133SAPE   C3414386   3.324   6.860   9.668  0.7548 -0.2813 -0.5003
  133SAPE   H4X14387   3.383   6.950   9.697 -1.5850  0.8223  1.1141
  133SAPE   H4Y14388   3.222   6.900   9.649  0.3160 -1.0526  0.1872
  133SAPE   C3514389   3.378   6.795   9.541  0.0515  0.9224 -0.2866
  133SAPE   H5X14390   3.318   6.701   9.532  0.7807 -0.1896  3.9165
  133SAPE   H5Y14391   3.480   6.753   9.554 -1.0082 -1.3137  1.7401
  133SAPE   C3614392   3.356   6.879   9.414  0.0660  0.1097  0.0647
  133SAPE   H6X14393   3.404   6.976   9.437  0.2239 -0.2150  1.1516
  133SAPE   H6Y14394   3.246   6.894   9.404 -0.4570 -2.7777  0.4909
  133SAPE   C3714395   3.406   6.813   9.290 -0.4513  0.3277 -0.2444
  133SAPE   H7X14396   3.340   6.726   9.269 -0.7766  0.8077 -1.2548
  133SAPE   H7Y14397   3.509   6.783   9.319 -1.4114 -0.8847  2.2294
  133SAPE   C3814398   3.410   6.903   9.157  0.7928  0.5479 -0.2197
  133SAPE   H8X14399   3.489   6.858   9.092  3.2035 -0.7611  3.3026
  133SAPE   H8Y14400   3.435   7.009   9.181  0.9621  0.1395  1.5406
  133SAPE   C3914401   3.272   6.922   9.093 -0.1025  0.3461  0.1242
  133SAPE   H9X14402   3.205   6.988   9.153  0.5457  0.3514  0.8576
  133SAPE   H9Y14403   3.230   6.819   9.095  1.1167 -0.1991 -1.1072
  133SAPE  C31014404   3.268   6.978   8.954  0.0430 -0.3032  0.1119
  133SAPE  H10X14405   3.337   6.928   8.882  0.6332  0.6272  0.0189
  133SAPE  H10Y14406   3.308   7.080   8.969 -1.8320  0.7390 -1.5269
  133SAPE  C31114407   3.128   6.980   8.882 -0.6032 -0.0724  0.7832
  133SAPE  H11X14408   3.066   7.047   8.946  0.5363  1.0776  0.7221
  133SAPE  H11Y14409   3.081   6.880   8.889  0.7006 -0.6087  2.2870
  133SAPE  C31214410   3.134   7.051   8.743  0.1407  0.0817 -0.7560
  133SAPE  H12X14411   3.205   7.136   8.747  0.9855 -0.5434 -2.0471
  133SAPE  H12Y14412   3.030   7.081   8.718  0.1947 -0.0858 -1.1871
  133SAPE  C31314413   3.178   6.953   8.634 -0.3719 -0.2313 -0.0149
  133SAPE  H13X14414   3.100   6.877   8.617 -0.1326 -0.7107  0.9321
  133SAPE  H13Y14415   3.271   6.898   8.662 -1.0826 -0.0861  3.0235
  133SAPE  C31414416   3.204   7.028   8.493  0.5137 -0.7225 -1.0534
  133SAPE  H14X14417   3.281   7.107   8.507  3.0163 -2.5725 -3.3597
  133SAPE  H14Y14418   3.106   7.061   8.452 -1.0551 -1.1913  2.0016
  133SAPE  C31514419   3.267   6.941   8.388 -0.2154 -0.6311 -0.5534
  133SAPE  H15X14420   3.235   6.976   8.288  0.1841 -0.0085 -0.4683
  133SAPE  H15Y14421   3.229   6.839   8.409  0.0761 -0.4065  1.2315
  133SAPE  C31614422   3.413   6.949   8.390 -0.2842  0.5123 -0.5852
  133SAPE  H16X14423   3.443   6.928   8.495  0.4807  1.5251 -0.5924
  133SAPE  H16Y14424   3.452   7.052   8.376 -1.0671  0.6480 -1.9388
  133SAPE  C31714425   3.484   6.848   8.280  0.2019 -0.0071 -0.1725
  133SAPE  H17X14426   3.439   6.750   8.305 -0.8526 -0.8293 -4.5544
  133SAPE  H17Y14427   3.590   6.859   8.309 -0.1731  2.1133  0.5836
  133SAPE  C31814428   3.448   6.894   8.141 -0.4143  0.1087 -0.1058
  133SAPE  H18X14429   3.499   6.835   8.062  0.5571  3.5000 -2.2033
  133SAPE  H18Y14430   3.482   6.999   8.128 -1.1595  0.2600 -0.8944
  133SAPE  H18Z14431   3.339   6.880   8.132 -0.4106  0.2815 -0.4408
  134SAPE     N14432   6.041   0.701  10.481 -0.0639 -0.1351 -0.7587
  134SAPE   HN114433   5.976   0.772  10.522  2.1850  0.4603  2.1018
  134SAPE   HN214434   5.984   0.631  10.430 -0.5483 -2.4893  2.6572
  134SAPE   HN314435   6.084   0.644  10.557 -0.9389  0.4588  0.2152
  134SAPE   C1214436   6.152   0.771  10.402  0.6840 -0.6950  0.0063
  134SAPE  H12A14437   6.104   0.855  10.347  1.3381 -0.7754 -0.7046
  134SAPE  H12B14438   6.187   0.696  10.328 -0.5920  1.2400 -2.7814
  134SAPE   C1114439   6.270   0.821  10.494 -0.8849  0.2011 -0.1021
  134SAPE  H11A14440   6.348   0.871  10.433 -0.3588  1.4959  1.5526
  134SAPE  H11B14441   6.313   0.732  10.545  0.7465  1.4729  0.8631
  134SAPE     P14442   6.199   1.068  10.571 -0.0853 -0.0601 -0.0014
  134SAPE   O1314443   6.062   1.108  10.526 -0.2053  0.3552  0.1716
  134SAPE   O1414444   6.253   1.133  10.690  0.2883 -0.2413 -0.4630
  134SAPE   O1214445   6.210   0.910  10.589 -0.1815  0.1117 -0.1905
  134SAPE   O1114446   6.303   1.093  10.455  0.1351  0.4333 -0.3852
  134SAPE    C114447   6.303   1.209  10.374 -0.3874  0.2853  0.8531
  134SAPE    HA14448   6.253   1.297  10.421  2.7356  2.7853 -0.1628
  134SAPE    HB14449   6.409   1.243  10.378  0.1925 -1.4838  1.8167
  134SAPE    C214450   6.258   1.168  10.231 -0.2812 -0.9292  0.2039
  134SAPE    HS14451   6.272   1.249  10.157  0.0778  0.8408  2.0932
  134SAPE   O2114452   6.120   1.121  10.224 -0.1562  0.2884 -0.6495
  134SAPE   C2114453   6.037   1.203  10.264  0.6211 -0.1588 -0.0237
  134SAPE   O2214454   6.059   1.320  10.299 -0.1710 -0.2858 -0.7111
  134SAPE   C2214455   5.896   1.147  10.243 -0.3640  0.0258 -0.3992
  134SAPE   H2R14456   5.913   1.045  10.200  1.0399  0.7406 -1.6515
  134SAPE   H2S14457   5.838   1.159  10.336 -1.3209 -0.7512 -0.8765
  134SAPE    C314458   6.358   1.068  10.177  0.3641  0.1168  0.2605
  134SAPE    HX14459   6.323   0.964  10.195  0.0602 -0.1415 -1.5472
  134SAPE    HY14460   6.457   1.079  10.225 -1.5507  0.4797  4.5188
  134SAPE   O3114461   6.369   1.078  10.031  0.1609  0.2643 -0.1490
  134SAPE   C3114462   6.278   1.026   9.946 -1.0130  0.7574 -0.1920
  134SAPE   O3214463   6.181   0.957   9.974  0.0471 -0.2398 -0.3408
  134SAPE   C3214464   6.341   1.045   9.805  0.8036 -0.2028  0.4482
  134SAPE   H2X14465   6.352   0.943   9.762 -0.8369 -1.3775  2.6125
  134SAPE   H2Y14466   6.444   1.086   9.803  0.2973  1.1907  1.2504
  134SAPE   C2314467   5.826   1.232  10.135  0.4113  0.7705  0.0785
  134SAPE   H3R14468   5.885   1.226  10.041  1.3530  0.1769  0.6833
  134SAPE   H3S14469   5.813   1.338  10.166  0.1829  1.1104 -1.1167
  134SAPE   C2414470   5.687   1.176  10.101 -0.1287 -0.0584  0.2308
  134SAPE   H4R14471   5.613   1.225  10.167  0.0162  1.6253 -0.8124
  134SAPE   H4S14472   5.686   1.066  10.117 -0.4298 -0.2676 -1.0626
  134SAPE   C2514473   5.648   1.221   9.956 -0.5428 -0.1222  0.0593
  134SAPE   H5R14474   5.609   1.323   9.943  1.6658  0.7194 -0.3623
  134SAPE   C2614475   5.667   1.149   9.841  0.1214  0.3409 -0.5082
  134SAPE   H6R14476   5.623   1.190   9.750 -1.4357  4.0887  1.7332
  134SAPE   C2714477   5.724   1.007   9.837 -0.2071 -1.1676 -0.1279
  134SAPE   H7R14478   5.664   0.940   9.773  1.4700  0.5715 -3.8205
  134SAPE   H7S14479   5.721   0.960   9.938 -3.8043 -0.0189  0.4499
  134SAPE   C2814480   5.863   1.005   9.775  0.4055 -0.2103 -0.3791
  134SAPE   H8R14481   5.931   1.072   9.830  0.0616  0.5467 -0.8748
  134SAPE   C2914482   5.890   0.932   9.663  0.2343 -0.0686 -0.0163
  134SAPE   H9R14483   5.995   0.928   9.630  0.5779 -1.7697  1.1533
  134SAPE  C21014484   5.807   0.838   9.579 -0.2870  0.0564  0.2726
  134SAPE  H10R14485   5.763   0.763   9.649 -1.2957 -0.3054 -0.7141
  134SAPE  H10S14486   5.880   0.787   9.513  0.3008  1.2627 -0.0261
  134SAPE  C21114487   5.706   0.909   9.497 -0.4099  0.4531  0.5166
  134SAPE  H11R14488   5.611   0.931   9.547 -0.7949  3.9364 -1.4600
  134SAPE  C21214489   5.717   0.950   9.367 -0.1038 -0.0338 -0.0574
  134SAPE  H12R14490   5.634   1.003   9.318  1.2434  1.0309 -1.2953
  134SAPE  C21314491   5.839   0.936   9.285 -0.0521 -0.2576 -0.0895
  134SAPE  H13R14492   5.803   0.945   9.181 -0.3515  0.8865  0.1012
  134SAPE  H13S14493   5.884   0.838   9.314  0.7795  0.9708  3.3440
  134SAPE  C21414494   5.918   1.064   9.312 -0.2929 -0.2602  0.3806
  134SAPE  H14R14495   5.936   1.097   9.415 -1.6946  1.8162  0.0138
  134SAPE  C21514496   5.970   1.142   9.216  0.9914  0.5086  0.7132
  134SAPE  H15R14497   6.017   1.235   9.252  1.9972  0.2574  0.0765
  134SAPE  C21614498   5.959   1.130   9.063  0.3469  0.4497 -0.4305
  134SAPE  H16R14499   5.947   1.230   9.016  2.5343  1.8933  1.8736
  134SAPE  H16S14500   5.875   1.064   9.030 -0.8082  1.0229  1.1992
  134SAPE  C21714501   6.087   1.064   9.006 -0.1552 -0.4635 -1.1520
  134SAPE  H17R14502   6.071   1.050   8.897  1.0235  1.6916 -1.6598
  134SAPE  H17S14503   6.091   0.960   9.046  0.9655 -0.9944 -2.5800
  134SAPE  C21814504   6.219   1.143   9.029  0.3416  0.5547  0.8331
  134SAPE  H18R14505   6.226   1.150   9.139  0.0281 -1.7456  1.0676
  134SAPE  H18S14506   6.205   1.246   8.990 -0.3527 -0.7730 -2.8569
  134SAPE  C21914507   6.338   1.079   8.959  0.3549  0.0024 -0.6159
  134SAPE  H19R14508   6.309   1.085   8.852 -0.0984 -1.5774 -0.6158
  134SAPE  H19S14509   6.355   0.976   8.999  0.0010 -0.8843 -2.6388
  134SAPE  C22014510   6.463   1.159   8.973  0.2493 -0.4458 -0.2780
  134SAPE  H20R14511   6.469   1.233   8.890 -0.1133 -0.5756 -0.4190
  134SAPE  H20S14512   6.552   1.092   8.969 -0.0218 -0.8277  0.0094
  134SAPE  H20T14513   6.463   1.218   9.067 -0.6461 -2.1747  0.8599
  134SAPE   C3314514   6.260   1.144   9.725  0.1130 -0.2800 -0.5280
  134SAPE   H3X14515   6.247   1.244   9.771  2.3602  0.8975 -2.2373
  134SAPE   H3Y14516   6.157   1.106   9.708 -0.6281  1.2068  0.3679
  134SAPE   C3414517   6.335   1.164   9.598 -0.1111  0.1004 -0.1345
  134SAPE   H4X14518   6.349   1.062   9.556  0.8190 -0.1774  0.8136
  134SAPE   H4Y14519   6.434   1.210   9.618  1.0083 -0.9223 -2.8997
  134SAPE   C3514520   6.261   1.246   9.489 -0.5003  0.1018  0.2749
  134SAPE   H5X14521   6.162   1.196   9.480  0.0593 -1.0908  0.5096
  134SAPE   H5Y14522   6.312   1.229   9.392 -0.9534 -1.7722  0.3256
  134SAPE   C3614523   6.257   1.399   9.521  0.0477 -0.3641  0.0747
  134SAPE   H6X14524   6.362   1.433   9.517  0.1452 -0.3596  1.6863
  134SAPE   H6Y14525   6.210   1.420   9.620  2.1013  1.4428  0.7222
  134SAPE   C3714526   6.181   1.482   9.429 -0.2603  0.5555 -1.0224
  134SAPE   H7X14527   6.074   1.457   9.446  0.1552  0.0099  1.1692
  134SAPE   H7Y14528   6.199   1.462   9.321  1.2625  1.0407 -0.8866
  134SAPE   C3814529   6.202   1.632   9.433 -0.3846 -0.0585 -0.2270
  134SAPE   H8X14530   6.175   1.662   9.536  1.1969 -1.1159  0.5413
  134SAPE   H8Y14531   6.138   1.683   9.358  0.3986 -1.0653 -1.6441
  134SAPE   C3914532   6.340   1.686   9.405  0.0305 -0.4589  0.3830
  134SAPE   H9X14533   6.410   1.646   9.481  0.7743  0.8538  0.4318
  134SAPE   H9Y14534   6.327   1.796   9.396  0.0446 -0.5405 -0.7766
  134SAPE  C31014535   6.402   1.653   9.261  0.0715  0.3320 -0.1259
  134SAPE  H10X14536   6.433   1.546   9.261  0.7759  0.5309 -0.1994
  134SAPE  H10Y14537   6.498   1.705   9.240  0.3127  0.1253  0.4325
  134SAPE  C31114538   6.309   1.652   9.138 -0.4947  0.1882  0.1991
  134SAPE  H11X14539   6.270   1.754   9.119  0.0744  0.1249 -1.4631
  134SAPE  H11Y14540   6.230   1.581   9.168  0.5397 -2.1016 -2.2063
  134SAPE  C31214541   6.379   1.600   9.014  0.3949 -0.3010  0.0255
  134SAPE  H12X14542   6.415   1.496   9.029 -0.7184 -0.8152 -0.6673
  134SAPE  H12Y14543   6.464   1.666   8.985  1.5083 -2.0919 -0.9718
  134SAPE  C31314544   6.283   1.596   8.884  0.3429  0.1153  0.2790
  134SAPE  H13X14545   6.277   1.702   8.849 -1.8899 -0.0992 -0.1467
  134SAPE  H13Y14546   6.186   1.545   8.899  0.2653 -0.3216 -1.4467
  134SAPE  C31414547   6.349   1.525   8.766  0.0729 -0.1010  0.4127
  134SAPE  H14X14548   6.353   1.416   8.787  0.1901  0.2062  2.1481
  134SAPE  H14Y14549   6.454   1.559   8.755 -0.0140  0.3568  0.9381
  134SAPE  C31514550   6.294   1.545   8.629 -0.1195  0.4529 -0.1822
  134SAPE  H15X14551   6.368   1.529   8.547  0.9297 -0.2216  0.8544
  134SAPE  H15Y14552   6.257   1.650   8.632 -1.4336  0.0057 -0.2929
  134SAPE  C31614553   6.183   1.447   8.597  0.5155 -0.6029  0.0169
  134SAPE  H16X14554   6.101   1.495   8.539  0.8874 -0.3905 -0.3403
  134SAPE  H16Y14555   6.138   1.415   8.693  0.7765  0.6617  0.5737
  134SAPE  C31714556   6.241   1.323   8.532 -0.7712  0.6759 -0.0268
  134SAPE  H17X14557   6.334   1.301   8.588 -1.5266 -2.2791  0.2494
  134SAPE  H17Y14558   6.262   1.345   8.425 -3.7737  0.2597 -0.8076
  134SAPE  C31814559   6.148   1.198   8.549 -0.4997 -0.0123  0.1331
  134SAPE  H18X14560   6.116   1.184   8.654 -1.9515 -1.8630 -0.4854
  134SAPE  H18Y14561   6.203   1.106   8.520  3.1809  2.3137 -0.9249
  134SAPE  H18Z14562   6.062   1.212   8.479 -0.1680 -0.1173 -0.3038
  135SAPE     N14563   5.939   4.598  10.981 -0.3866 -0.1841 -0.0236
  135SAPE   HN114564   5.888   4.509  10.964 -2.1354  1.1724 -2.6334
  135SAPE   HN214565   6.025   4.596  10.923 -0.6218 -0.1266 -0.3788
  135SAPE   HN314566   5.972   4.589  11.079  1.0410 -1.8782 -0.6027
  135SAPE   C1214567   5.847   4.712  10.965  0.4364  0.2551 -0.0434
  135SAPE  H12A14568   5.887   4.806  11.008 -0.2089 -0.0467  1.2762
  135SAPE  H12B14569   5.761   4.691  11.032  0.5516 -2.3881 -0.5914
  135SAPE   C1114570   5.798   4.731  10.823  0.3010 -0.3942  0.0114
  135SAPE  H11A14571   5.885   4.776  10.769  1.2509 -1.5324  0.5582
  135SAPE  H11B14572   5.709   4.797  10.830  0.4057 -0.0532 -1.4658
  135SAPE     P14573   5.606   4.568  10.698 -0.1517  0.1941 -0.3442
  135SAPE   O1314574   5.623   4.437  10.637 -0.0100 -0.0820  0.2051
  135SAPE   O1414575   5.495   4.583  10.795  0.3868  0.2310  0.5153
  135SAPE   O1214576   5.755   4.611  10.760  0.3279  0.6580 -0.1101
  135SAPE   O1114577   5.587   4.683  10.589 -0.1417  1.0563  0.5777
  135SAPE    C114578   5.662   4.660  10.472 -0.4098 -0.3508  0.3895
  135SAPE    HA14579   5.759   4.605  10.479 -0.7273 -1.8326 -3.8734
  135SAPE    HB14580   5.615   4.579  10.413  1.5546 -1.8142  0.7149
  135SAPE    C214581   5.683   4.791  10.392 -0.3545 -0.1745  0.4429
  135SAPE    HS14582   5.740   4.857  10.462 -0.7982 -0.9836  1.6044
  135SAPE   O2114583   5.556   4.848  10.351  0.6511 -0.2884 -0.7702
  135SAPE   C2114584   5.551   4.974  10.319  0.3388  0.3470 -0.0693
  135SAPE   O2214585   5.631   5.059  10.352 -0.4104 -0.1252 -0.1761
  135SAPE   C2214586   5.410   4.999  10.265  0.2232 -1.2517  0.8588
  135SAPE   H2R14587   5.339   4.914  10.258 -2.7110  1.1562 -1.1378
  135SAPE   H2S14588   5.361   5.074  10.331  0.7062 -0.8630  0.7819
  135SAPE    C314589   5.781   4.766  10.270  0.5924 -0.2463 -0.0821
  135SAPE    HX14590   5.735   4.690  10.204  0.8429 -1.2396  0.8486
  135SAPE    HY14591   5.876   4.733  10.317  1.0947  2.4883  0.9819
  135SAPE   O3114592   5.808   4.887  10.197 -0.7397  0.7413  0.9508
  135SAPE   C3114593   5.893   4.972  10.247  0.1801 -0.1030  0.0676
  135SAPE   O3214594   5.955   4.954  10.349 -0.2021 -0.0101 -0.2032
  135SAPE   C3214595   5.912   5.083  10.144 -0.1839  0.2490  0.0158
  135SAPE   H2X14596   5.825   5.150  10.161 -0.2868  0.0048  0.4689
  135SAPE   H2Y14597   5.905   5.039  10.043  1.3232 -1.1390  0.4671
  135SAPE   C2314598   5.410   5.060  10.120 -0.4792  0.2075 -0.1397
  135SAPE   H3R14599   5.509   5.108  10.105  0.7267 -1.9080  0.6849
  135SAPE   H3S14600   5.332   5.138  10.128  1.1953  1.8316  1.2533
  135SAPE   C2414601   5.382   4.961  10.013  0.2659  0.5048 -0.0976
  135SAPE   H4R14602   5.362   5.011   9.915 -2.4139  1.5706  0.9096
  135SAPE   H4S14603   5.290   4.908  10.045 -0.5609  2.3066  0.6263
  135SAPE   C2514604   5.488   4.861   9.992 -0.2666 -0.0875  0.3204
  135SAPE   H5R14605   5.523   4.794  10.072 -1.1178 -0.9331 -0.0074
  135SAPE   C2614606   5.556   4.833   9.879  0.1394 -0.0651  0.5611
  135SAPE   H6R14607   5.638   4.761   9.877 -0.5741 -0.9959  2.2812
  135SAPE   C2714608   5.536   4.895   9.743  0.4372 -0.5651  0.2215
  135SAPE   H7R14609   5.432   4.921   9.711  0.1015 -0.4554  1.3408
  135SAPE   H7S14610   5.569   4.806   9.687  0.3383 -1.2500  1.2243
  135SAPE   C2814611   5.627   5.011   9.724 -0.3579 -0.4801 -0.6079
  135SAPE   H8R14612   5.591   5.092   9.789  3.5839  1.8662 -1.0165
  135SAPE   C2914613   5.733   5.019   9.640 -0.3782 -0.7928 -0.8873
  135SAPE   H9R14614   5.793   5.111   9.635 -1.6923  0.0815 -1.1416
  135SAPE  C21014615   5.773   4.906   9.557  0.0181 -0.2861  0.4593
  135SAPE  H10R14616   5.688   4.839   9.530  0.4245 -1.7391  2.5651
  135SAPE  H10S14617   5.835   4.840   9.621  1.1328 -0.1176 -0.4221
  135SAPE  C21114618   5.857   4.950   9.439  0.1149  0.2610  0.5090
  135SAPE  H11R14619   5.965   4.927   9.442 -0.0019 -0.5497 -0.7289
  135SAPE  C21214620   5.810   5.009   9.318 -0.4445 -0.3685 -0.4769
  135SAPE  H12R14621   5.884   5.024   9.237 -0.1935 -0.8585 -0.3388
  135SAPE  C21314622   5.660   5.038   9.283 -0.3144  0.2000 -0.1187
  135SAPE  H13R14623   5.595   5.029   9.373 -2.7485 -0.5566 -1.8505
  135SAPE  H13S14624   5.613   4.972   9.207  0.4047  1.0600 -1.3476
  135SAPE  C21414625   5.655   5.178   9.232  0.4656  0.2381  0.3134
  135SAPE  H14R14626   5.700   5.252   9.300 -1.2184 -0.5143  2.3417
  135SAPE  C21514627   5.606   5.211   9.110  0.0455 -0.7740 -0.2546
  135SAPE  H15R14628   5.608   5.317   9.083  0.0621 -0.0842  2.2307
  135SAPE  C21614629   5.536   5.124   9.011  0.1411 -0.5729 -0.2411
  135SAPE  H16R14630   5.425   5.126   9.023  0.2822  0.2543  1.0714
  135SAPE  H16S14631   5.545   5.015   9.027 -3.0153 -1.0767 -1.1197
  135SAPE  C21714632   5.571   5.154   8.861 -0.4952  0.6259 -0.5792
  135SAPE  H17R14633   5.549   5.259   8.829  0.2111  0.7476 -0.6723
  135SAPE  H17S14634   5.499   5.095   8.801 -0.8202 -0.3181  0.7025
  135SAPE  C21814635   5.715   5.108   8.827  0.1417  0.2276 -0.1372
  135SAPE  H18R14636   5.720   5.010   8.880 -0.1264  1.2352  1.8260
  135SAPE  H18S14637   5.795   5.170   8.873 -1.2157 -0.2968  3.1701
  135SAPE  C21914638   5.746   5.105   8.683 -0.2069 -0.3436  0.6914
  135SAPE  H19R14639   5.751   5.208   8.642 -0.0471 -0.7829 -0.4305
  135SAPE  H19S14640   5.658   5.054   8.639  1.5982 -0.6847 -2.9063
  135SAPE  C22014641   5.871   5.028   8.652  0.0421  0.0778 -0.2729
  135SAPE  H20R14642   5.954   5.060   8.718  0.8035 -1.5815 -0.3730
  135SAPE  H20S14643   5.910   5.034   8.548 -1.4152  0.5621 -0.8268
  135SAPE  H20T14644   5.847   4.920   8.667 -1.7477  0.6777  1.6672
  135SAPE   C3314645   6.045   5.165  10.169  0.5409 -0.2352 -0.0436
  135SAPE   H3X14646   6.052   5.195  10.276  1.1447  0.4336 -0.2568
  135SAPE   H3Y14647   6.038   5.261  10.113  0.7369  1.2270  2.2650
  135SAPE   C3414648   6.181   5.098  10.127  0.4158 -0.1934 -0.1123
  135SAPE   H4X14649   6.177   4.998  10.176 -0.1679 -0.1746 -0.1146
  135SAPE   H4Y14650   6.272   5.156  10.153 -1.5394  3.1870 -0.1470
  135SAPE   C3514651   6.196   5.075   9.971 -0.4480  0.1889 -0.0659
  135SAPE   H5X14652   6.115   5.006   9.939  0.4486 -1.9063  1.9939
  135SAPE   H5Y14653   6.292   5.024   9.952  1.3013  2.4266  2.1872
  135SAPE   C3614654   6.193   5.210   9.896  0.2608  1.0368 -0.4819
  135SAPE   H6X14655   6.264   5.284   9.939  0.4980  0.5249  0.0177
  135SAPE   H6Y14656   6.085   5.238   9.899  0.3301  1.3021 -0.4575
  135SAPE   C3714657   6.228   5.192   9.752 -0.4046 -0.4106 -0.6504
  135SAPE   H7X14658   6.154   5.135   9.693 -1.2561  0.6483 -0.6563
  135SAPE   H7Y14659   6.336   5.168   9.741  0.3788  2.0126  0.9258
  135SAPE   C3814660   6.195   5.325   9.677 -1.1549  0.1897 -0.7612
  135SAPE   H8X14661   6.216   5.409   9.747  1.5979 -1.2934  0.3305
  135SAPE   H8Y14662   6.084   5.326   9.674 -1.2990 -2.2588  0.8988
  135SAPE   C3914663   6.261   5.324   9.546 -0.7576  0.0051 -0.5792
  135SAPE   H9X14664   6.371   5.311   9.551 -0.7668 -0.5383 -1.5083
  135SAPE   H9Y14665   6.254   5.424   9.499  1.3719  0.0920 -0.8025
  135SAPE  C31014666   6.215   5.210   9.446  0.6698  0.6523 -0.7852
  135SAPE  H10X14667   6.107   5.192   9.428 -0.0232  1.0499  2.4471
  135SAPE  H10Y14668   6.242   5.111   9.487 -0.1170 -0.3604 -2.6025
  135SAPE  C31114669   6.280   5.215   9.306  0.0166  0.5767  0.5827
  135SAPE  H11X14670   6.389   5.190   9.308 -0.2681 -1.2299 -1.6516
  135SAPE  H11Y14671   6.263   5.309   9.250 -2.2350 -0.1274 -0.0120
  135SAPE  C31214672   6.217   5.119   9.210 -0.2099 -0.1342  0.5518
  135SAPE  H12X14673   6.169   5.033   9.262  1.0496  0.0088  2.0235
  135SAPE  H12Y14674   6.295   5.064   9.153 -0.0045 -1.8872  2.3732
  135SAPE  C31314675   6.115   5.193   9.122  0.4043 -0.2476 -0.7924
  135SAPE  H13X14676   6.043   5.252   9.182  0.7957 -0.1180 -0.4417
  135SAPE  H13Y14677   6.059   5.116   9.065 -0.3159  0.6389 -1.3135
  135SAPE  C31414678   6.187   5.282   9.020 -0.4508  0.0025  0.1940
  135SAPE  H14X14679   6.261   5.209   8.980 -2.3809 -1.6500 -0.5083
  135SAPE  H14Y14680   6.244   5.370   9.056 -0.2570 -0.6737  1.5873
  135SAPE  C31514681   6.101   5.321   8.896 -0.1128 -0.0936 -0.3808
  135SAPE  H15X14682   6.024   5.396   8.926 -0.1077 -0.6597  1.1891
  135SAPE  H15Y14683   6.042   5.229   8.872  1.0117 -0.9909  0.1871
  135SAPE  C31614684   6.176   5.366   8.774  0.2300  0.5722 -0.0042
  135SAPE  H16X14685   6.262   5.297   8.762 -0.0949  0.3360 -1.0970
  135SAPE  H16Y14686   6.226   5.465   8.779  0.2819  0.6298 -1.2600
  135SAPE  C31714687   6.111   5.341   8.643  0.9281 -0.0447  0.9309
  135SAPE  H17X14688   6.066   5.240   8.637  0.6327  0.1304  0.1215
  135SAPE  H17Y14689   6.187   5.357   8.564  0.8004  2.0164  1.1694
  135SAPE  C31814690   5.994   5.445   8.609 -0.3875  0.0254  0.5127
  135SAPE  H18X14691   6.029   5.550   8.617  0.5016 -0.2661  0.5705
  135SAPE  H18Y14692   5.917   5.426   8.687 -0.1418 -1.7541  0.3761
  135SAPE  H18Z14693   5.943   5.433   8.511  0.6086 -0.1858  0.0027
  136SAPE     N14694   0.659   2.243  11.130  0.0170  1.1853 -0.2608
  136SAPE   HN114695   0.687   2.273  11.225  1.8711 -2.4640  0.5471
  136SAPE   HN214696   0.557   2.234  11.114 -0.1028  1.1657  0.4915
  136SAPE   HN314697   0.699   2.147  11.119 -1.6158  0.3175  0.8853
  136SAPE   C1214698   0.700   2.343  11.028 -0.2132  0.2013  1.1857
  136SAPE  H12A14699   0.807   2.372  11.041  0.0583 -1.0246  1.8069
  136SAPE  H12B14700   0.640   2.437  11.029 -0.3875  0.1076  0.0120
  136SAPE   C1114701   0.676   2.285  10.886 -0.1554 -0.4362  0.5746
  136SAPE  H11A14702   0.743   2.197  10.884  0.2526 -0.1176 -0.4754
  136SAPE  H11B14703   0.714   2.354  10.807  0.9211 -0.5563  0.9760
  136SAPE     P14704   0.499   2.122  10.778  0.3894 -0.4098 -0.0893
  136SAPE   O1314705   0.561   2.012  10.846  0.0280  0.3439 -0.1519
  136SAPE   O1414706   0.356   2.110  10.733  0.7398  0.1659 -0.0030
  136SAPE   O1214707   0.536   2.250  10.868  0.1007 -0.0551  0.3253
  136SAPE   O1114708   0.588   2.136  10.650 -0.3067  0.2479 -0.3792
  136SAPE    C114709   0.572   2.242  10.561 -0.0080 -0.6913  0.7045
  136SAPE    HA14710   0.482   2.236  10.497  0.3713 -2.8587  0.3130
  136SAPE    HB14711   0.572   2.344  10.605  1.3937 -0.8088  1.0104
  136SAPE    C214712   0.692   2.234  10.463  0.3492  0.2027  0.5223
  136SAPE    HS14713   0.682   2.306  10.379  0.4040 -0.4975 -0.0918
  136SAPE   O2114714   0.709   2.103  10.407  0.5320  0.0045  0.4277
  136SAPE   C2114715   0.627   2.059  10.311 -0.1994 -0.8034  0.7015
  136SAPE   O2214716   0.562   2.140  10.243  0.1069 -1.0128  0.2800
  136SAPE   C2214717   0.646   1.911  10.283  0.1871 -0.3052 -0.6300
  136SAPE   H2R14718   0.667   1.867  10.382 -2.7682  1.5847  0.9785
  136SAPE   H2S14719   0.548   1.869  10.253  0.0634 -1.8368  1.7216
  136SAPE    C314720   0.824   2.268  10.534 -0.1242  0.0193 -0.6401
  136SAPE    HX14721   0.835   2.219  10.633  0.1950 -0.3314 -0.8451
  136SAPE    HY14722   0.808   2.374  10.566 -0.4182 -0.7895  2.1532
  136SAPE   O3114723   0.937   2.242  10.445 -0.1672  0.3090 -0.0089
  136SAPE   C3114724   1.001   2.126  10.462  0.6272 -0.0716  0.5750
  136SAPE   O3214725   0.963   2.037  10.532  0.2383  0.9318  0.5702
  136SAPE   C3214726   1.123   2.120  10.362  0.2937  0.5761  0.4153
  136SAPE   H2X14727   1.169   2.218  10.334  0.9140  0.1995  0.1039
  136SAPE   H2Y14728   1.080   2.084  10.266  1.8244  3.1879 -1.3937
  136SAPE   C2314729   0.739   1.876  10.154 -0.5443  0.0826 -0.0535
  136SAPE   H3R14730   0.707   1.924  10.058 -1.0254 -0.6284 -0.2519
  136SAPE   H3S14731   0.720   1.768  10.142 -0.4321 -0.2296  2.1700
  136SAPE   C2414732   0.884   1.920  10.177 -0.0746 -0.3026 -0.2578
  136SAPE   H4R14733   0.916   1.910  10.283 -0.4066 -0.2511 -0.1517
  136SAPE   H4S14734   0.876   2.031  10.170 -0.2741 -0.3631 -1.0350
  136SAPE   C2514735   0.982   1.861  10.091 -0.5925 -0.4895 -0.1801
  136SAPE   H5R14736   1.022   1.759  10.103  1.7682  0.3817 -0.0389
  136SAPE   C2614737   1.038   1.925   9.987 -0.3570 -0.0535 -0.1461
  136SAPE   H6R14738   1.118   1.871   9.936 -0.0113  0.6652 -0.3818
  136SAPE   C2714739   1.022   2.061   9.927 -0.4840 -0.4297  0.1180
  136SAPE   H7R14740   0.964   2.131   9.991  1.3462 -0.1544  1.5722
  136SAPE   H7S14741   0.969   2.039   9.832  0.3916  0.6007 -0.6371
  136SAPE   C2814742   1.153   2.135   9.885  0.0767 -0.8171 -0.6674
  136SAPE   H8R14743   1.215   2.163   9.971  0.7676  1.7130 -1.8910
  136SAPE   C2914744   1.194   2.179   9.767  0.1795  0.6616 -0.1127
  136SAPE   H9R14745   1.281   2.247   9.773  0.9171 -0.0683 -1.8082
  136SAPE  C21014746   1.121   2.168   9.637  0.3528  0.5183 -0.8546
  136SAPE  H10R14747   1.089   2.266   9.595  0.3260 -0.9770 -4.7307
  136SAPE  H10S14748   1.022   2.119   9.655  1.2429 -1.2426 -0.5862
  136SAPE  C21114749   1.190   2.071   9.545 -0.5335 -0.5983  0.1402
  136SAPE  H11R14750   1.239   1.983   9.591 -0.5813 -1.3398 -1.1917
  136SAPE  C21214751   1.200   2.090   9.412  0.5923 -0.4741 -0.9364
  136SAPE  H12R14752   1.257   2.019   9.350 -0.4937 -0.7664 -1.6310
  136SAPE  C21314753   1.130   2.204   9.336 -0.2097  0.4984 -0.2175
  136SAPE  H13R14754   1.214   2.259   9.289 -0.7597 -0.0773 -1.9335
  136SAPE  H13S14755   1.069   2.270   9.401  1.0940 -0.5646  2.2270
  136SAPE  C21414756   1.029   2.156   9.226 -0.1763  0.2395  0.0102
  136SAPE  H14R14757   0.940   2.112   9.275  0.7847 -0.0269  1.5766
  136SAPE  C21514758   1.051   2.162   9.093 -0.7292  0.2192 -0.6514
  136SAPE  H15R14759   0.976   2.118   9.026 -1.7083  1.7832 -0.6209
  136SAPE  C21614760   1.178   2.204   9.021  0.8781  0.8520  0.6352
  136SAPE  H16R14761   1.264   2.162   9.077  2.3130  1.9827 -0.6574
  136SAPE  H16S14762   1.184   2.314   9.011  0.2568  0.9001  0.7594
  136SAPE  C21714763   1.197   2.149   8.873 -0.0710  0.2339 -0.8965
  136SAPE  H17R14764   1.226   2.041   8.869 -2.0432 -0.4817  1.3981
  136SAPE  H17S14765   1.288   2.197   8.831  0.9489 -1.3291 -0.5818
  136SAPE  C21814766   1.067   2.160   8.787 -0.4868  0.1332 -0.5835
  136SAPE  H18R14767   1.014   2.255   8.809  1.0803  0.9759 -0.2760
  136SAPE  H18S14768   1.005   2.074   8.819 -0.8775  1.4928  2.6961
  136SAPE  C21914769   1.086   2.150   8.639 -0.5300  0.6338 -0.7807
  136SAPE  H19R14770   1.110   2.250   8.596 -4.0739  1.8304 -0.2585
  136SAPE  H19S14771   0.987   2.126   8.594 -1.4337 -0.1378  1.5174
  136SAPE  C22014772   1.184   2.046   8.593  0.9305  0.0795  0.1072
  136SAPE  H20R14773   1.178   2.036   8.483 -0.9558  0.4916  0.1457
  136SAPE  H20S14774   1.162   1.942   8.625 -2.2808  0.2611 -1.1813
  136SAPE  H20T14775   1.288   2.077   8.619  1.0869  1.2496 -1.7583
  136SAPE   C3314776   1.228   2.024  10.408 -0.3151 -0.1327  0.0217
  136SAPE   H3X14777   1.180   1.943  10.468 -0.0670 -0.7880 -0.6565
  136SAPE   H3Y14778   1.302   2.074  10.475  0.6002 -2.3433  0.7829
  136SAPE   C3414779   1.303   1.959  10.294  0.2377  0.0119  0.0108
  136SAPE   H4X14780   1.231   1.905  10.229 -1.5803  1.7928  0.4298
  136SAPE   H4Y14781   1.387   1.895  10.330 -0.2149 -0.0686  0.9384
  136SAPE   C3514782   1.376   2.064  10.205  0.4155 -0.3039  0.8594
  136SAPE   H5X14783   1.431   2.141  10.263  0.4098  0.9403 -0.7087
  136SAPE   H5Y14784   1.302   2.126  10.149 -0.4128 -2.4005 -0.4711
  136SAPE   C3614785   1.480   2.006  10.100  0.4364  0.2375  0.6585
  136SAPE   H6X14786   1.563   1.950  10.148  0.6029  0.8732  1.1199
  136SAPE   H6Y14787   1.525   2.093  10.048 -0.0728 -0.0362 -0.2594
  136SAPE   C3714788   1.415   1.905  10.011 -0.3534 -0.5176 -0.2336
  136SAPE   H7X14789   1.315   1.936   9.975 -1.3861 -2.2956  0.9385
  136SAPE   H7Y14790   1.398   1.818  10.078 -0.1348  1.0854  2.0368
  136SAPE   C3814791   1.504   1.879   9.890  0.1081  0.5077  0.0064
  136SAPE   H8X14792   1.500   1.770   9.867  0.9743  0.7355 -1.2576
  136SAPE   H8Y14793   1.608   1.907   9.916  0.8016 -2.2764  0.5745
  136SAPE   C3914794   1.476   1.946   9.756  0.1539 -0.8358  0.0908
  136SAPE   H9X14795   1.464   2.056   9.762 -0.5329 -0.7999 -1.4644
  136SAPE   H9Y14796   1.382   1.906   9.711 -0.8398  0.0361  1.2955
  136SAPE  C31014797   1.583   1.920   9.652  0.1491 -0.0714 -0.1917
  136SAPE  H10X14798   1.603   1.812   9.639  1.9838  0.5473 -3.9138
  136SAPE  H10Y14799   1.678   1.971   9.678 -0.1795  1.0270 -1.0711
  136SAPE  C31114800   1.540   1.972   9.514 -0.0384 -0.6303  0.2131
  136SAPE  H11X14801   1.548   2.083   9.511  2.5603 -0.7736 -0.2587
  136SAPE  H11Y14802   1.435   1.943   9.492  0.6000 -2.7323 -0.3369
  136SAPE  C31214803   1.631   1.918   9.402 -0.1214  0.4469  0.0026
  136SAPE  H12X14804   1.626   1.807   9.412  0.2928  0.2807 -1.3743
  136SAPE  H12Y14805   1.734   1.960   9.407 -0.1606  0.4338  1.1749
  136SAPE  C31314806   1.577   1.944   9.258 -1.2443  0.7412 -0.3088
  136SAPE  H13X14807   1.607   2.044   9.220  0.6903  0.5121  0.5144
  136SAPE  H13Y14808   1.467   1.948   9.275 -1.3428 -0.1668 -0.6261
  136SAPE  C31414809   1.628   1.837   9.160  0.2344 -0.8935 -0.0587
  136SAPE  H14X14810   1.619   1.741   9.216 -0.7092 -0.4421  0.6062
  136SAPE  H14Y14811   1.734   1.860   9.137  0.0000  0.4762  0.1469
  136SAPE  C31514812   1.540   1.851   9.038 -0.0079 -0.5613  0.6914
  136SAPE  H15X14813   1.535   1.959   9.013 -1.8705 -1.1850 -2.1062
  136SAPE  H15Y14814   1.437   1.823   9.070 -0.6435 -0.7007 -1.3255
  136SAPE  C31614815   1.579   1.774   8.913 -0.6321 -0.0375 -0.8787
  136SAPE  H16X14816   1.600   1.671   8.949  1.4401  0.4070 -0.7177
  136SAPE  H16Y14817   1.672   1.808   8.864 -1.6716  1.2662 -2.0295
  136SAPE  C31714818   1.470   1.786   8.810  0.5556  0.1682  0.6401
  136SAPE  H17X14819   1.456   1.896   8.800  1.2134  0.2400  0.4402
  136SAPE  H17Y14820   1.377   1.744   8.853 -1.1690  0.9503 -2.0951
  136SAPE  C31814821   1.494   1.727   8.665 -0.1189 -0.1817 -0.4207
  136SAPE  H18X14822   1.403   1.722   8.601 -0.2255 -2.9615 -0.1570
  136SAPE  H18Y14823   1.527   1.623   8.684  1.8506  0.8165  2.2188
  136SAPE  H18Z14824   1.571   1.780   8.606 -0.6885 -0.0543 -1.0708
  137SAPE     N14825   5.742   3.270  10.486  0.0426  0.5773 -0.2146
  137SAPE   HN114826   5.714   3.364  10.519 -2.2479  0.0862 -0.5732
  137SAPE   HN214827   5.767   3.269  10.385  1.3127  0.0499  0.0771
  137SAPE   HN314828   5.655   3.214  10.491  0.3045  0.0564 -1.0976
  137SAPE   C1214829   5.843   3.205  10.577 -0.9291  0.9517 -0.7008
  137SAPE  H12A14830   5.848   3.097  10.551 -0.0333  0.6280  0.7088
  137SAPE  H12B14831   5.795   3.206  10.677 -0.0856  1.0550 -0.2849
  137SAPE   C1114832   5.984   3.273  10.578 -0.5995 -0.5782 -0.6517
  137SAPE  H11A14833   6.043   3.238  10.491  0.3950  0.4210 -0.4054
  137SAPE  H11B14834   6.024   3.245  10.678  0.6880 -1.6921 -1.4288
  137SAPE     P14835   6.097   3.516  10.612  0.0853  0.2938 -0.0210
  137SAPE   O1314836   6.051   3.587  10.728  0.0387 -0.9269  0.1183
  137SAPE   O1414837   6.227   3.451  10.631  0.3434  0.0516 -0.4198
  137SAPE   O1214838   5.972   3.416  10.581  0.2099 -0.4588 -0.0737
  137SAPE   O1114839   6.110   3.605  10.480 -0.4333  0.6126 -0.5559
  137SAPE    C114840   5.998   3.629  10.400  0.2314  0.9305 -0.4878
  137SAPE    HA14841   5.905   3.622  10.462  1.2633 -1.1106  0.9538
  137SAPE    HB14842   6.007   3.736  10.372  1.6421  0.9847  0.0895
  137SAPE    C214843   5.989   3.530  10.281 -0.3802 -0.1918  0.3201
  137SAPE    HS14844   5.971   3.431  10.327 -0.1004  0.6343  2.3657
  137SAPE   O2114845   6.113   3.532  10.201 -0.8505  0.0073  0.0033
  137SAPE   C2114846   6.154   3.407  10.163  0.7348 -1.2026 -0.0032
  137SAPE   O2214847   6.092   3.305  10.183  0.5590 -0.6482 -0.6828
  137SAPE   C2214848   6.281   3.424  10.075 -0.1457  0.3671 -0.2446
  137SAPE   H2R14849   6.245   3.434   9.971  0.0488  0.5938 -0.2937
  137SAPE   H2S14850   6.334   3.518  10.104 -1.4581  0.4436  2.1077
  137SAPE    C314851   5.862   3.550  10.188 -0.3596 -0.5794 -0.1326
  137SAPE    HX14852   5.868   3.654  10.149  1.6689 -0.1796  1.1126
  137SAPE    HY14853   5.771   3.543  10.252 -1.2231 -1.0491 -1.3576
  137SAPE   O3114854   5.861   3.448  10.081  0.1403 -0.4291  0.2525
  137SAPE   C3114855   5.810   3.330  10.122  0.4517 -0.3139  0.2961
  137SAPE   O3214856   5.759   3.314  10.231  0.0204 -0.4569 -0.0731
  137SAPE   C3214857   5.829   3.217  10.013  0.5635 -0.3036  0.1174
  137SAPE   H2X14858   5.730   3.168   9.995 -0.5022  2.2819 -1.7205
  137SAPE   H2Y14859   5.897   3.145  10.064 -0.1060  0.0629  1.5811
  137SAPE   C2314860   6.378   3.298  10.080  1.0262 -0.0197  0.4555
  137SAPE   H3R14861   6.312   3.217  10.044  2.0390 -0.5692 -0.2274
  137SAPE   H3S14862   6.408   3.278  10.185  0.2911 -0.3633  0.6060
  137SAPE   C2414863   6.504   3.312   9.996 -0.3426 -0.2018 -0.6879
  137SAPE   H4R14864   6.566   3.392  10.043 -0.2104  0.2639 -1.6481
  137SAPE   H4S14865   6.485   3.362   9.899  2.5374  0.4209 -1.0208
  137SAPE   C2514866   6.581   3.181   9.979  0.0142  0.3943 -0.5140
  137SAPE   H5R14867   6.658   3.161  10.055 -0.9101 -0.3551  0.2635
  137SAPE   C2614868   6.579   3.095   9.873 -0.4107 -0.1728 -0.2627
  137SAPE   H6R14869   6.663   3.024   9.874  0.0960  0.3519  2.3254
  137SAPE   C2714870   6.497   3.117   9.749  0.7730 -0.5087  0.0592
  137SAPE   H7R14871   6.402   3.169   9.774  0.7026 -0.0677 -1.0695
  137SAPE   H7S14872   6.472   3.021   9.700 -1.8678 -0.1037  0.4481
  137SAPE   C2814873   6.563   3.192   9.642  0.6978 -0.1271  1.1747
  137SAPE   H8R14874   6.594   3.291   9.678  0.9287 -0.0336  0.7168
  137SAPE   C2914875   6.582   3.162   9.513 -0.7394 -0.0732  0.7633
  137SAPE   H9R14876   6.645   3.227   9.452 -1.8385  0.6355  0.3554
  137SAPE  C21014877   6.543   3.032   9.438 -1.0714  0.2406  0.2526
  137SAPE  H10R14878   6.486   2.965   9.507 -1.7489 -0.8430 -1.3000
  137SAPE  H10S14879   6.630   2.974   9.400  1.3957  3.0828  1.1668
  137SAPE  C21114880   6.435   3.069   9.337  0.1276  0.1539 -0.6085
  137SAPE  H11R14881   6.334   3.061   9.381 -1.3714 -1.8189 -3.9974
  137SAPE  C21214882   6.462   3.121   9.217 -0.1459  0.5393 -0.2712
  137SAPE  H12R14883   6.384   3.158   9.149 -0.2912 -0.0687 -0.4388
  137SAPE  C21314884   6.601   3.151   9.163  0.6466 -0.0655 -0.7197
  137SAPE  H13R14885   6.663   3.145   9.255  2.1950  1.3176 -1.6303
  137SAPE  H13S14886   6.602   3.256   9.126 -1.4289  0.7724  1.3110
  137SAPE  C21414887   6.654   3.056   9.058  0.4593  0.0475 -0.3834
  137SAPE  H14R14888   6.576   2.997   9.008  0.0378 -0.0237  0.3507
  137SAPE  C21514889   6.789   3.047   9.032  0.5844  0.3972 -0.4118
  137SAPE  H15R14890   6.825   2.982   8.951 -1.6479 -0.9917 -0.3813
  137SAPE  C21614891   6.887   3.139   9.096 -0.1954 -0.2930  0.7944
  137SAPE  H16R14892   6.840   3.230   9.140 -0.0174  0.6822 -0.9406
  137SAPE  H16S14893   6.952   3.176   9.014  0.3342  2.7807  2.4562
  137SAPE  C21714894   6.989   3.090   9.197 -1.0931  0.1690 -0.2272
  137SAPE  H17R14895   7.060   3.175   9.210 -1.3837  0.7436 -2.0832
  137SAPE  H17S14896   7.046   3.013   9.141 -0.2613  0.5255  0.1062
  137SAPE  C21814897   6.924   3.051   9.329 -0.2720 -0.0072  0.1893
  137SAPE  H18R14898   6.870   2.954   9.317 -2.8924  1.2111  1.2933
  137SAPE  H18S14899   6.856   3.133   9.361  0.6970  1.0590 -0.4226
  137SAPE  C21914900   7.018   3.046   9.445 -0.3076  0.9420 -0.0547
  137SAPE  H19R14901   7.091   3.129   9.431  0.4296  0.0463 -1.9981
  137SAPE  H19S14902   7.071   2.948   9.453  1.5927  1.9122 -0.1206
  137SAPE  C22014903   6.947   3.055   9.576  0.2538  0.1301  0.1408
  137SAPE  H20R14904   6.902   3.156   9.583  0.6880  0.2503  1.3189
  137SAPE  H20S14905   7.025   3.040   9.654 -0.3321  1.5086  1.0202
  137SAPE  H20T14906   6.867   2.978   9.587  1.7030 -1.3003  1.1653
  137SAPE   C3314907   5.891   3.255   9.880 -0.5398 -0.3837 -0.1924
  137SAPE   H3X14908   5.996   3.279   9.908 -1.2322  1.7603  0.7321
  137SAPE   H3Y14909   5.832   3.338   9.836 -0.6745 -1.0273 -1.2818
  137SAPE   C3414910   5.895   3.133   9.789 -0.2763  0.4818 -0.0310
  137SAPE   H4X14911   5.793   3.112   9.750  0.6529  1.4048 -3.2712
  137SAPE   H4Y14912   5.924   3.042   9.845  2.6275  0.6198 -1.1055
  137SAPE   C3514913   5.981   3.154   9.662  0.2987 -0.5754 -0.6997
  137SAPE   H5X14914   5.983   3.052   9.617 -2.2173 -2.3246  2.6619
  137SAPE   H5Y14915   6.082   3.193   9.686  0.3276 -1.2818  0.4017
  137SAPE   C3614916   5.912   3.252   9.557 -0.3145 -0.9686 -0.2334
  137SAPE   H6X14917   5.886   3.344   9.613  0.4336 -1.5838  1.1668
  137SAPE   H6Y14918   5.813   3.210   9.528  0.0867 -1.7376 -0.5068
  137SAPE   C3714919   5.987   3.279   9.428  0.1233  0.4116  0.4741
  137SAPE   H7X14920   6.075   3.343   9.449 -0.8319  1.9420 -0.0133
  137SAPE   H7Y14921   5.922   3.346   9.368 -0.1467  1.0034  1.4211
  137SAPE   C3814922   6.011   3.148   9.355  0.4856  0.3802  0.1493
  137SAPE   H8X14923   5.920   3.084   9.362  1.2696 -0.8887 -0.8143
  137SAPE   H8Y14924   6.081   3.094   9.423  0.2132  1.6355  1.4621
  137SAPE   C3914925   6.069   3.145   9.219  0.1463  0.0343 -1.2082
  137SAPE   H9X14926   6.118   3.050   9.189  0.3614  0.2394 -1.5049
  137SAPE   H9Y14927   6.150   3.221   9.227  0.8081 -0.8466  2.1590
  137SAPE  C31014928   5.965   3.179   9.115 -0.1693  0.0863 -0.0557
  137SAPE  H10X14929   5.925   3.281   9.127  0.3336  0.3192 -0.3049
  137SAPE  H10Y14930   5.876   3.112   9.110  0.3802 -0.6142 -0.8334
  137SAPE  C31114931   6.025   3.169   8.970 -0.4633 -0.0433  0.4940
  137SAPE  H11X14932   5.963   3.231   8.902  1.2160  1.0659 -0.0995
  137SAPE  H11Y14933   6.025   3.066   8.929  0.1004 -0.2793  1.0660
  137SAPE  C31214934   6.163   3.229   8.954  0.0932 -0.2231  0.4534
  137SAPE  H12X14935   6.236   3.191   9.029  0.3716 -1.8390 -0.5789
  137SAPE  H12Y14936   6.170   3.340   8.961 -1.9775  0.0320 -0.7364
  137SAPE  C31314937   6.226   3.202   8.815 -0.7914 -0.0168 -0.6454
  137SAPE  H13X14938   6.197   3.290   8.754  0.6887  0.2320 -1.0436
  137SAPE  H13Y14939   6.176   3.116   8.767 -3.8754  2.5653 -2.3943
  137SAPE  C31414940   6.381   3.189   8.792 -0.2461 -0.4070 -0.6965
  137SAPE  H14X14941   6.417   3.096   8.843 -0.1299 -0.1542 -0.3152
  137SAPE  H14Y14942   6.429   3.275   8.843  0.1610 -0.3803 -1.1115
  137SAPE  C31514943   6.414   3.200   8.645 -0.5311  0.2939 -0.5413
  137SAPE  H15X14944   6.520   3.230   8.636 -0.7793  0.9707 -1.3388
  137SAPE  H15Y14945   6.352   3.281   8.601 -0.7019  1.1230  1.1637
  137SAPE  C31614946   6.398   3.072   8.563 -0.1185  0.4384  0.8752
  137SAPE  H16X14947   6.365   3.111   8.464  2.9348  0.7653 -0.0999
  137SAPE  H16Y14948   6.316   3.010   8.605  0.8989 -0.9806  0.8238
  137SAPE  C31714949   6.522   2.983   8.551  0.3370 -0.3232 -0.0071
  137SAPE  H17X14950   6.579   2.977   8.646  2.7846 -1.8334 -1.4358
  137SAPE  H17Y14951   6.582   3.044   8.480  2.0223  1.8194  3.0396
  137SAPE  C31814952   6.512   2.841   8.499  0.1188 -0.1183  0.2386
  137SAPE  H18X14953   6.461   2.781   8.578 -0.3530  2.4354  2.0047
  137SAPE  H18Y14954   6.605   2.798   8.455  0.1211  1.2913 -1.2577
  137SAPE  H18Z14955   6.443   2.849   8.412 -0.7976  0.9544  1.0266
  138SAPE     N14956   4.225   5.803  10.672 -0.2085 -0.2075 -0.4245
  138SAPE   HN114957   4.226   5.717  10.730  1.1219 -1.1010 -1.6924
  138SAPE   HN214958   4.167   5.879  10.712 -1.0203 -1.0243 -0.0008
  138SAPE   HN314959   4.184   5.778  10.579  1.0126  0.6507 -1.2172
  138SAPE   C1214960   4.364   5.845  10.632 -0.1845 -0.5141  0.4503
  138SAPE  H12A14961   4.421   5.858  10.726  0.7218 -0.1020 -0.1428
  138SAPE  H12B14962   4.353   5.935  10.568 -0.3353 -0.6265  0.3154
  138SAPE   C1114963   4.418   5.734  10.533 -0.5681 -0.2056 -0.5434
  138SAPE  H11A14964   4.474   5.656  10.591 -1.5622 -0.7395 -0.2821
  138SAPE  H11B14965   4.497   5.774  10.466 -0.6286 -0.3135 -0.6804
  138SAPE     P14966   4.301   5.528  10.411 -0.1389 -0.2720  0.0017
  138SAPE   O1314967   4.414   5.462  10.468 -0.1179  0.6017 -0.5796
  138SAPE   O1414968   4.165   5.482  10.458  0.4450 -0.2342 -0.1445
  138SAPE   O1214969   4.313   5.678  10.450 -0.0152 -0.5062 -0.0579
  138SAPE   O1114970   4.301   5.528  10.249  0.1442 -0.2370 -0.0531
  138SAPE    C114971   4.244   5.642  10.179  0.0472 -0.3306  0.7887
  138SAPE    HA14972   4.284   5.741  10.208 -2.4941  1.1198 -0.3558
  138SAPE    HB14973   4.281   5.634  10.075 -1.6645  1.1214  0.0214
  138SAPE    C214974   4.089   5.651  10.173 -0.0201 -0.4309 -0.3740
  138SAPE    HS14975   4.052   5.685  10.272  1.4122  1.1832 -0.3500
  138SAPE   O2114976   4.032   5.524  10.124 -0.7081  0.0137  0.0825
  138SAPE   C2114977   3.906   5.520  10.148  0.7952 -0.1809 -0.1204
  138SAPE   O2214978   3.844   5.606  10.207  0.2093 -0.2992 -0.0686
  138SAPE   C2214979   3.836   5.393  10.084 -0.3582 -0.2747  0.2150
  138SAPE   H2R14980   3.730   5.423  10.077 -0.5464  0.0577  3.1815
  138SAPE   H2S14981   3.889   5.380   9.987 -0.5943 -0.2073  0.0768
  138SAPE    C314982   4.056   5.771  10.071 -0.8233 -0.8760  0.0066
  138SAPE    HX14983   4.104   5.857  10.122  0.4214 -1.2878 -0.4158
  138SAPE    HY14984   3.949   5.801  10.067 -0.6316 -0.0971  0.7014
  138SAPE   O3114985   4.117   5.756   9.944  0.5971 -0.5339  0.1950
  138SAPE   C3114986   4.039   5.703   9.847  0.3896 -0.3522  0.4764
  138SAPE   O3214987   3.931   5.650   9.855  0.2379  0.2677  0.1386
  138SAPE   C3214988   4.117   5.706   9.709  0.4870 -0.3392  0.7146
  138SAPE   H2X14989   4.215   5.656   9.726  0.1835 -0.7120  1.4116
  138SAPE   H2Y14990   4.133   5.811   9.676 -2.4341  0.3425  1.2084
  138SAPE   C2314991   3.834   5.258  10.154  0.2666 -0.1232 -0.2743
  138SAPE   H3R14992   3.750   5.196  10.116 -0.4828  0.3407  0.6001
  138SAPE   H3S14993   3.818   5.269  10.263 -3.9008 -1.6033 -0.5557
  138SAPE   C2414994   3.955   5.166  10.138 -0.4315  0.4641  0.2627
  138SAPE   H4R14995   4.047   5.202  10.189  0.1939 -0.2746 -0.3041
  138SAPE   H4S14996   3.979   5.157  10.030  0.1312  1.3389  0.3103
  138SAPE   C2514997   3.928   5.030  10.193  0.0875  0.7300  0.1441
  138SAPE   H5R14998   3.937   5.020  10.302 -0.9364 -0.7018  0.1215
  138SAPE   C2614999   3.894   4.918  10.131 -0.8285  0.0729  0.3190
  138SAPE   H6R15000   3.855   4.841  10.198 -3.9219  1.4755  0.2852
  138SAPE   C2715001   3.871   4.905   9.983  1.1229 -0.0404 -0.1831
  138SAPE   H7R15002   3.927   4.815   9.949 -0.0919 -1.5836  1.6859
  138SAPE   H7S15003   3.917   4.992   9.931  0.1958  0.5668 -0.0201
  138SAPE   C2815004   3.731   4.909   9.946  0.2139  0.4586  0.9969
  138SAPE   H8R15005   3.660   4.935  10.026  0.1516 -1.6606  1.6974
  138SAPE   C2915006   3.683   4.897   9.823  0.2870 -0.2594  0.9563
  138SAPE   H9R15007   3.573   4.910   9.826  0.4170  0.8520  2.1297
  138SAPE  C21015008   3.759   4.866   9.695  0.3656  0.4053 -0.0318
  138SAPE  H10R15009   3.854   4.923   9.705  0.5844 -0.0796  0.7664
  138SAPE  H10S15010   3.697   4.884   9.605  3.0381  2.3612 -1.6263
  138SAPE  C21115011   3.806   4.720   9.680  0.0997 -0.1299  0.1632
  138SAPE  H11R15012   3.815   4.656   9.769 -1.2541  0.3605  0.6790
  138SAPE  C21215013   3.833   4.655   9.566 -0.2689 -0.0583 -0.5906
  138SAPE  H12R15014   3.868   4.552   9.582  0.2145  0.2712  0.6322
  138SAPE  C21315015   3.816   4.714   9.426  0.0392 -1.5156  0.1238
  138SAPE  H13R15016   3.738   4.793   9.423  2.7814  1.3713 -2.6199
  138SAPE  H13S15017   3.770   4.634   9.363  0.4642 -1.0005 -0.8585
  138SAPE  C21415018   3.950   4.767   9.369  0.5510 -0.3169  0.0153
  138SAPE  H14R15019   4.017   4.685   9.340  1.5597 -1.5692  4.9390
  138SAPE  C21515020   3.991   4.898   9.363 -0.0357  0.2650 -0.0303
  138SAPE  H15R15021   4.089   4.916   9.315 -0.4299 -1.4358 -1.5971
  138SAPE  C21615022   3.926   5.022   9.415  0.7103  0.5895 -0.2239
  138SAPE  H16R15023   3.836   4.986   9.470 -0.5528  2.1643 -1.1584
  138SAPE  H16S15024   3.908   5.086   9.326 -3.3136 -0.1528 -0.1487
  138SAPE  C21715025   4.007   5.105   9.509  0.1060  0.3535  0.1310
  138SAPE  H17R15026   4.110   5.122   9.471 -0.1102  1.2616 -0.0540
  138SAPE  H17S15027   4.028   5.054   9.606  0.1152 -0.0749 -0.0919
  138SAPE  C21815028   3.947   5.242   9.538 -0.0183 -0.3602 -0.0393
  138SAPE  H18R15029   3.933   5.299   9.443  2.6683  0.6422  0.0681
  138SAPE  H18S15030   4.023   5.298   9.597  1.0832 -1.2158 -0.6120
  138SAPE  C21915031   3.813   5.234   9.614 -0.0598  0.5335  0.1842
  138SAPE  H19R15032   3.818   5.172   9.706  0.6237  1.2841  0.6663
  138SAPE  H19S15033   3.744   5.187   9.541  1.3663 -1.0732 -0.1865
  138SAPE  C22015034   3.763   5.365   9.663  0.2123 -0.4503  1.1911
  138SAPE  H20R15035   3.852   5.422   9.696 -0.5819  1.1191  0.7428
  138SAPE  H20S15036   3.699   5.347   9.752  0.0258 -1.1415  0.9251
  138SAPE  H20T15037   3.710   5.424   9.585  1.0258  1.2346  1.8717
  138SAPE   C3315038   4.035   5.625   9.600 -0.2395 -0.3438  0.0552
  138SAPE   H3X15039   3.938   5.678   9.588 -1.0252 -1.6578  0.3055
  138SAPE   H3Y15040   4.003   5.521   9.626 -0.0965 -1.2893 -3.1317
  138SAPE   C3415041   4.101   5.605   9.466 -0.3918 -0.1385 -0.7958
  138SAPE   H4X15042   4.023   5.554   9.405  0.9959 -1.3915 -1.6013
  138SAPE   H4Y15043   4.184   5.531   9.473 -0.9939 -0.9345 -1.7862
  138SAPE   C3515044   4.154   5.731   9.393  0.8217 -0.1784  0.8439
  138SAPE   H5X15045   4.231   5.797   9.440  0.5660  0.5468  0.2616
  138SAPE   H5Y15046   4.058   5.780   9.366 -0.3854 -3.4573 -1.4681
  138SAPE   C3615047   4.216   5.692   9.255 -0.1056  0.6266 -0.5477
  138SAPE   H6X15048   4.147   5.626   9.197 -2.2605  0.4733  1.9743
  138SAPE   H6Y15049   4.304   5.627   9.274 -0.6798 -0.2353 -0.7500
  138SAPE   C3715050   4.272   5.808   9.169 -0.5420 -0.7027 -0.1919
  138SAPE   H7X15051   4.326   5.879   9.235  1.4751 -2.4162  0.1081
  138SAPE   H7Y15052   4.183   5.864   9.132  0.8611  1.6059 -0.2518
  138SAPE   C3815053   4.362   5.768   9.049  0.2284 -0.3418 -0.5701
  138SAPE   H8X15054   4.300   5.698   8.989  1.4727 -1.4149 -0.6358
  138SAPE   H8Y15055   4.449   5.711   9.086  1.2853  0.2446 -2.0553
  138SAPE   C3915056   4.404   5.886   8.965 -0.0935 -0.1453 -0.9016
  138SAPE   H9X15057   4.466   5.958   9.022 -1.5454  0.5332 -0.1260
  138SAPE   H9Y15058   4.309   5.926   8.923 -0.2718 -0.3585 -0.7003
  138SAPE  C31015059   4.497   5.851   8.851 -0.2038  0.0439  0.9974
  138SAPE  H10X15060   4.472   5.747   8.821  2.0779 -0.3929  0.3416
  138SAPE  H10Y15061   4.602   5.859   8.888  0.9225  2.9769 -2.2062
  138SAPE  C31115062   4.495   5.942   8.731  0.8172  0.7694  1.1034
  138SAPE  H11X15063   4.577   5.913   8.661  0.4858  3.1685 -0.4216
  138SAPE  H11Y15064   4.520   6.046   8.762 -1.0034  1.5874 -0.0470
  138SAPE  C31215065   4.359   5.922   8.659  0.5673  0.0219 -0.3548
  138SAPE  H12X15066   4.284   5.945   8.738  0.9616 -2.8743  1.0108
  138SAPE  H12Y15067   4.336   5.818   8.625 -1.4232 -0.1839  1.4521
  138SAPE  C31315068   4.344   6.020   8.539  0.5629  0.5608 -0.0480
  138SAPE  H13X15069   4.308   6.117   8.580 -0.1647  0.5862 -0.7305
  138SAPE  H13Y15070   4.258   5.995   8.473  0.3045  1.2025  0.0389
  138SAPE  C31415071   4.465   6.039   8.441 -0.3750  0.2243 -0.5236
  138SAPE  H14X15072   4.557   6.077   8.491 -1.2896  0.1053  1.3670
  138SAPE  H14Y15073   4.440   6.092   8.347 -0.9171 -0.3823 -0.7311
  138SAPE  C31515074   4.505   5.896   8.388  0.0692  0.4231  0.7134
  138SAPE  H15X15075   4.411   5.847   8.356 -1.4679  2.6871  1.5375
  138SAPE  H15Y15076   4.547   5.839   8.474  1.2854  0.1889 -0.0079
  138SAPE  C31615077   4.613   5.909   8.279 -0.0480  0.1154 -0.6181
  138SAPE  H16X15078   4.579   5.972   8.194 -0.6507  0.5325 -0.0800
  138SAPE  H16Y15079   4.633   5.806   8.242  0.8490  0.8484 -2.3008
  138SAPE  C31715080   4.750   5.966   8.331 -0.0384  0.2969 -0.4117
  138SAPE  H17X15081   4.809   5.895   8.392  1.3280  1.0812 -0.7876
  138SAPE  H17Y15082   4.732   6.048   8.403 -0.1183  0.2121 -0.3345
  138SAPE  C31815083   4.842   6.013   8.216 -0.7155 -0.0002 -0.1543
  138SAPE  H18X15084   4.936   6.053   8.260  1.3383 -1.9278 -2.4304
  138SAPE  H18Y15085   4.792   6.095   8.160 -0.0964  1.0934  0.8598
  138SAPE  H18Z15086   4.858   5.924   8.151 -0.1681 -0.5913  0.7619
  139SAPE     N15087   3.912   0.893  10.619  0.3502  0.3112 -1.3525
  139SAPE   HN115088   3.913   0.789  10.623 -2.0226  0.2650  1.0782
  139SAPE   HN215089   3.879   0.925  10.526  0.0865  0.4922 -1.1986
  139SAPE   HN315090   4.013   0.914  10.624  0.1987  0.8048  0.4713
  139SAPE   C1215091   3.850   0.947  10.745  0.7481 -0.1118 -0.2255
  139SAPE  H12A15092   3.881   1.052  10.767 -0.3923 -0.0267  1.0564
  139SAPE  H12B15093   3.867   0.874  10.826 -1.4440 -2.2200 -1.5489
  139SAPE   C1115094   3.694   0.959  10.728 -0.0466  0.2151 -0.3585
  139SAPE  H11A15095   3.677   1.039  10.652  1.8660  0.3216 -0.7319
  139SAPE  H11B15096   3.663   1.001  10.826  0.7004  0.6464 -0.3006
  139SAPE     P15097   3.474   0.807  10.705 -0.1129  0.4854  0.4013
  139SAPE   O1315098   3.453   0.666  10.750  0.7181  0.3734  0.4174
  139SAPE   O1415099   3.404   0.912  10.781 -0.8806  0.0560 -0.0066
  139SAPE   O1215100   3.629   0.833  10.698  0.1520 -0.1796 -0.0101
  139SAPE   O1115101   3.432   0.810  10.557 -0.3400 -0.2994  0.3601
  139SAPE    C115102   3.534   0.835  10.459  0.4897  0.2026  0.0016
  139SAPE    HA15103   3.579   0.933  10.485 -0.0091  0.9886 -1.9205
  139SAPE    HB15104   3.613   0.756  10.462 -1.8882 -2.3775 -1.1916
  139SAPE    C215105   3.476   0.841  10.320  0.2482  0.1540 -0.1070
  139SAPE    HS15106   3.558   0.855  10.246 -0.6566  1.2011 -0.9450
  139SAPE   O2115107   3.374   0.941  10.312  0.2370 -0.1211  0.1277
  139SAPE   C2115108   3.422   1.064  10.313 -0.3684 -0.2774  0.8806
  139SAPE   O2215109   3.544   1.089  10.304  0.4008  0.8202  0.6893
  139SAPE   C2215110   3.318   1.179  10.318  0.5894  0.3700 -0.3236
  139SAPE   H2R15111   3.216   1.146  10.345 -0.6412  3.1702 -1.1791
  139SAPE   H2S15112   3.334   1.244  10.406 -1.8755  0.3397  0.2176
  139SAPE    C315113   3.413   0.706  10.281  0.6866 -0.2114 -1.1497
  139SAPE    HX15114   3.316   0.710  10.335 -0.3623 -2.0202 -2.7642
  139SAPE    HY15115   3.474   0.623  10.323  0.0363 -0.4404 -0.6405
  139SAPE   O3115116   3.391   0.690  10.143  0.0479 -0.6946  0.2579
  139SAPE   C3115117   3.296   0.595  10.123 -1.1092  0.1622 -0.5943
  139SAPE   O3215118   3.238   0.538  10.211  0.2622 -0.1532 -0.3313
  139SAPE   C3215119   3.268   0.570   9.979 -0.0430  0.6008 -0.1946
  139SAPE   H2X15120   3.345   0.614   9.913  0.1014 -0.6591 -0.8967
  139SAPE   H2Y15121   3.168   0.615   9.962 -2.3887 -3.3695  1.5196
  139SAPE   C2315122   3.295   1.248  10.183  0.3010 -0.2419 -0.5988
  139SAPE   H3R15123   3.397   1.251  10.138 -0.0210 -0.1067 -1.3294
  139SAPE   H3S15124   3.262   1.350  10.213  1.8129 -0.1616  0.9269
  139SAPE   C2415125   3.193   1.166  10.096 -0.7615  0.2356  0.4765
  139SAPE   H4R15126   3.136   1.238  10.033 -1.6818 -0.9234 -0.0516
  139SAPE   H4S15127   3.110   1.134  10.162 -1.2248  0.2385 -0.0976
  139SAPE   C2515128   3.242   1.041  10.024 -0.3984  0.3235  0.3459
  139SAPE   H5R15129   3.278   0.959  10.088  1.1260  0.4104 -0.3561
  139SAPE   C2615130   3.244   1.033   9.891 -0.0563  0.4491  0.2073
  139SAPE   H6R15131   3.284   0.937   9.855 -1.3212 -1.0118  2.4437
  139SAPE   C2715132   3.199   1.131   9.790 -0.3661  0.0769 -0.2676
  139SAPE   H7R15133   3.294   1.174   9.754  0.3943 -2.1345 -1.0765
  139SAPE   H7S15134   3.134   1.208   9.837 -0.4062 -0.3343  0.3627
  139SAPE   C2815135   3.132   1.053   9.679 -0.0132  0.2111  0.8556
  139SAPE   H8R15136   3.023   1.037   9.684 -0.5434  2.7762 -0.9513
  139SAPE   C2915137   3.198   0.983   9.583 -0.3006  0.7904  0.2356
  139SAPE   H9R15138   3.137   0.933   9.506 -0.1935 -0.0275  0.6690
  139SAPE  C21015139   3.348   0.963   9.556 -0.6766 -1.0692  0.3262
  139SAPE  H10R15140   3.408   0.985   9.646  0.7325 -1.0718 -0.5817
  139SAPE  H10S15141   3.372   1.035   9.475  1.7247  0.8230  2.5622
  139SAPE  C21115142   3.373   0.815   9.533 -1.1480 -0.2995 -0.2060
  139SAPE  H11R15143   3.320   0.742   9.596 -0.3195  0.7429  1.7663
  139SAPE  C21215144   3.459   0.762   9.445  1.0385 -0.4263 -0.4490
  139SAPE  H12R15145   3.464   0.652   9.441  1.2674 -0.3659 -3.1844
  139SAPE  C21315146   3.540   0.847   9.348 -0.1840  0.0468 -0.2241
  139SAPE  H13R15147   3.645   0.813   9.353 -0.3740 -0.4056  1.1922
  139SAPE  H13S15148   3.546   0.952   9.384  0.1962  0.0856 -0.4005
  139SAPE  C21415149   3.486   0.856   9.209 -0.0040  0.5155 -0.7000
  139SAPE  H14R15150   3.379   0.835   9.198 -0.0299  0.8167 -1.0160
  139SAPE  C21515151   3.547   0.882   9.096 -0.3967  0.1633  0.9292
  139SAPE  H15R15152   3.494   0.891   9.000 -0.5303  0.0919  0.9957
  139SAPE  C21615153   3.693   0.907   9.086  0.4895  0.4200 -0.1488
  139SAPE  H16R15154   3.749   0.812   9.099 -1.1888 -0.2937  2.3976
  139SAPE  H16S15155   3.721   0.992   9.152 -0.0707  0.4391  0.0709
  139SAPE  C21715156   3.717   0.948   8.943  0.1384  0.7418  0.8433
  139SAPE  H17R15157   3.825   0.973   8.940  0.3225  0.0922  1.4438
  139SAPE  H17S15158   3.659   1.041   8.923 -1.4894 -0.7630 -2.1055
  139SAPE  C21815159   3.702   0.846   8.832 -0.5239 -0.2541  0.0239
  139SAPE  H18R15160   3.595   0.818   8.820 -0.4510 -0.3458 -0.4536
  139SAPE  H18S15161   3.760   0.751   8.843  0.9085  0.5915  0.0713
  139SAPE  C21915162   3.730   0.914   8.694  0.3972 -0.8331 -0.5812
  139SAPE  H19R15163   3.787   1.008   8.700  0.3729 -0.8970  1.6606
  139SAPE  H19S15164   3.637   0.934   8.637  0.9459 -1.9151 -1.9147
  139SAPE  C22015165   3.824   0.821   8.619  0.0002  0.3924  0.1880
  139SAPE  H20R15166   3.913   0.800   8.682 -1.6312 -2.9046  1.6657
  139SAPE  H20S15167   3.850   0.855   8.517  0.1104  1.3310  0.5208
  139SAPE  H20T15168   3.772   0.723   8.615  1.3549 -0.3379 -0.1558
  139SAPE   C3315169   3.268   0.414   9.953 -0.5909 -0.5841 -0.8359
  139SAPE   H3X15170   3.188   0.373  10.018  0.2699 -1.6366 -0.4088
  139SAPE   H3Y15171   3.366   0.373   9.987 -0.5357 -0.2608 -0.5921
  139SAPE   C3415172   3.247   0.383   9.805  1.4163  1.0483  0.0899
  139SAPE   H4X15173   3.162   0.443   9.767  0.6813  0.4148  0.7230
  139SAPE   H4Y15174   3.226   0.276   9.790  1.7615  1.1877 -1.5482
  139SAPE   C3515175   3.370   0.429   9.716  0.1630  0.0227  0.7286
  139SAPE   H5X15176   3.464   0.390   9.761  1.1904  1.5044 -0.0433
  139SAPE   H5Y15177   3.371   0.540   9.726 -2.2799  0.0269  1.6306
  139SAPE   C3615178   3.356   0.405   9.562  0.2523 -0.2789 -0.4641
  139SAPE   H6X15179   3.348   0.297   9.537 -1.0097 -0.4519  0.6086
  139SAPE   H6Y15180   3.449   0.445   9.515  0.3256  0.9086  0.6517
  139SAPE   C3715181   3.242   0.469   9.493  0.8255 -0.2357  0.0247
  139SAPE   H7X15182   3.255   0.579   9.500 -0.6840 -0.1217  1.5079
  139SAPE   H7Y15183   3.144   0.448   9.542  0.6189 -2.8548 -1.3192
  139SAPE   C3815184   3.228   0.423   9.346  0.8125 -0.2477 -0.0309
  139SAPE   H8X15185   3.165   0.332   9.335  1.6655 -0.6260 -2.6426
  139SAPE   H8Y15186   3.331   0.405   9.306  0.1240 -0.8163 -1.6743
  139SAPE   C3915187   3.173   0.539   9.248 -0.9654  0.4200  0.2145
  139SAPE   H9X15188   3.227   0.630   9.280  2.2665 -1.2033 -0.2014
  139SAPE   H9Y15189   3.065   0.561   9.265 -0.6499  2.1615  0.1430
  139SAPE  C31015190   3.185   0.504   9.101 -0.6183 -0.3559 -0.1736
  139SAPE  H10X15191   3.154   0.403   9.066  1.0492 -1.2468  0.8151
  139SAPE  H10Y15192   3.295   0.503   9.091  0.0654  0.6792  4.6968
  139SAPE  C31115193   3.115   0.606   9.019 -0.4393  0.2195 -0.4996
  139SAPE  H11X15194   3.111   0.702   9.074  1.4781  0.7325 -1.1617
  139SAPE  H11Y15195   3.006   0.586   9.009 -0.2846 -0.9152 -0.1282
  139SAPE  C31215196   3.178   0.623   8.879 -0.1573 -0.2826  0.8251
  139SAPE  H12X15197   3.145   0.543   8.809  1.6587 -0.4927  0.1641
  139SAPE  H12Y15198   3.286   0.597   8.889  0.7458  2.4323 -0.8750
  139SAPE  C31315199   3.160   0.753   8.800  0.3663 -0.2646 -0.4221
  139SAPE  H13X15200   3.150   0.842   8.866  0.9419  0.8029 -1.7161
  139SAPE  H13Y15201   3.062   0.748   8.746 -0.1527 -1.8754  0.6013
  139SAPE  C31415202   3.271   0.787   8.703  0.9428 -1.0332  0.5413
  139SAPE  H14X15203   3.286   0.699   8.637 -1.2956 -0.3414 -1.0025
  139SAPE  H14Y15204   3.370   0.813   8.746  1.3247 -0.9115 -0.3995
  139SAPE  C31515205   3.232   0.909   8.619 -0.1805  0.1146 -0.3861
  139SAPE  H15X15206   3.215   0.991   8.691 -0.7472 -0.8355  0.5727
  139SAPE  H15Y15207   3.139   0.898   8.560 -0.8980  1.1740  0.5218
  139SAPE  C31615208   3.345   0.953   8.518  0.3492  0.8034 -0.3416
  139SAPE  H16X15209   3.425   0.976   8.591  0.5953 -0.7695 -0.0776
  139SAPE  H16Y15210   3.392   0.876   8.453 -0.2819 -2.0250  2.3055
  139SAPE  C31715211   3.311   1.069   8.435 -0.2952 -0.8390  0.1097
  139SAPE  H17X15212   3.269   1.148   8.502  3.6252  2.2940 -0.7143
  139SAPE  H17Y15213   3.225   1.066   8.364 -1.6499 -0.2911  1.6495
  139SAPE  C31815214   3.446   1.115   8.364 -0.7805  0.0920  0.2875
  139SAPE  H18X15215   3.421   1.212   8.317 -1.3412  0.5529  1.4879
  139SAPE  H18Y15216   3.479   1.040   8.289 -2.6142  0.9101 -1.4395
  139SAPE  H18Z15217   3.528   1.136   8.436  2.1375 -0.8642 -2.5312
  140SAPE     N15218   5.668   5.199  10.664 -0.2094  0.6682  0.2451
  140SAPE   HN115219   5.600   5.126  10.637  0.6410 -0.3284  0.7531
  140SAPE   HN215220   5.767   5.168  10.650  0.0095  1.2224  0.5085
  140SAPE   HN315221   5.662   5.227  10.764 -0.3171 -1.0257  0.7398
  140SAPE   C1215222   5.645   5.321  10.579  0.1534 -0.6820 -0.0218
  140SAPE  H12A15223   5.690   5.298  10.480 -0.7974 -1.6147 -0.2609
  140SAPE  H12B15224   5.713   5.397  10.621  0.6373 -1.3760  0.4535
  140SAPE   C1115225   5.499   5.374  10.567  0.3642 -0.4780 -0.2390
  140SAPE  H11A15226   5.437   5.322  10.492 -1.8796 -0.6684  1.6218
  140SAPE  H11B15227   5.503   5.484  10.550 -1.3901 -0.3844 -0.2576
  140SAPE     P15228   5.297   5.403  10.735 -0.1991 -0.2999  0.0902
  140SAPE   O1315229   5.205   5.307  10.802  0.2787  0.9143  0.3132
  140SAPE   O1415230   5.323   5.531  10.811  0.1433 -0.5018  0.0401
  140SAPE   O1215231   5.438   5.345  10.690 -0.3982  0.7510  0.0063
  140SAPE   O1115232   5.226   5.430  10.593  0.1755  0.4072  0.0051
  140SAPE    C115233   5.096   5.496  10.587 -0.0273  0.0717 -0.1543
  140SAPE    HA15234   5.021   5.435  10.641  0.5519 -2.2902 -1.8531
  140SAPE    HB15235   5.107   5.597  10.632  1.7194 -0.4886  0.7831
  140SAPE    C215236   5.044   5.504  10.438 -0.4905 -0.4428 -0.9819
  140SAPE    HS15237   5.022   5.398  10.412  0.2231 -0.2005 -2.7559
  140SAPE   O2115238   5.144   5.555  10.352  0.5774 -0.2549 -0.0706
  140SAPE   C2115239   5.232   5.471  10.312  0.0402  0.5548 -0.1732
  140SAPE   O2215240   5.232   5.350  10.328 -0.3719 -0.2151  0.3361
  140SAPE   C2215241   5.343   5.546  10.225  0.3598  0.8229  0.6933
  140SAPE   H2R15242   5.282   5.600  10.149  1.8827 -0.8546 -1.8485
  140SAPE   H2S15243   5.393   5.619  10.292 -0.4632  1.5694  0.5246
  140SAPE    C315244   4.916   5.591  10.437  0.8238 -0.2621  0.0086
  140SAPE    HX15245   4.927   5.690  10.487  0.6713  0.9750 -2.2607
  140SAPE    HY15246   4.840   5.538  10.497 -0.8294  1.3418 -0.5818
  140SAPE   O3115247   4.865   5.594  10.304 -0.0848  0.0187  0.3123
  140SAPE   C3115248   4.773   5.685  10.279 -0.1033  0.3114 -0.9886
  140SAPE   O3215249   4.737   5.772  10.356 -1.0517  0.0307 -0.0906
  140SAPE   C3215250   4.731   5.665  10.131  0.4436  0.1081  0.6928
  140SAPE   H2X15251   4.741   5.559  10.099  0.8866  0.5079 -0.5308
  140SAPE   H2Y15252   4.807   5.715  10.068 -0.7497 -1.8254 -2.5498
  140SAPE   C2315253   5.450   5.449  10.163  0.3267  0.0110  0.3792
  140SAPE   H3R15254   5.386   5.367  10.123  0.3801 -0.6383  1.5708
  140SAPE   H3S15255   5.521   5.420  10.244 -1.6030  0.0677  2.1742
  140SAPE   C2415256   5.534   5.514  10.048 -0.3210  0.3551  0.0123
  140SAPE   H4R15257   5.585   5.602  10.093  0.2852 -0.0405  0.0983
  140SAPE   H4S15258   5.470   5.558   9.968  0.8962  1.9773 -0.1325
  140SAPE   C2515259   5.641   5.424   9.997 -1.0077 -0.4143 -0.6953
  140SAPE   H5R15260   5.696   5.366  10.073  0.5768 -0.2886 -1.6944
  140SAPE   C2615261   5.652   5.385   9.867 -0.2344  1.1962 -0.2614
  140SAPE   H6R15262   5.715   5.298   9.843 -2.3007 -1.1671  2.2412
  140SAPE   C2715263   5.579   5.431   9.741  0.4855 -0.4738 -0.1876
  140SAPE   H7R15264   5.469   5.416   9.747  0.6556 -1.7622 -0.1402
  140SAPE   H7S15265   5.601   5.359   9.660 -0.8019 -0.3883 -0.6480
  140SAPE   C2815266   5.625   5.571   9.690  0.4870  1.1104 -0.7458
  140SAPE   H8R15267   5.610   5.654   9.761 -0.4539  1.2442 -1.0851
  140SAPE   C2915268   5.662   5.601   9.561 -0.4270  0.1058 -0.2938
  140SAPE   H9R15269   5.690   5.703   9.530  2.0917 -0.1020  1.0535
  140SAPE  C21015270   5.669   5.495   9.452 -0.0901 -0.2023  0.4186
  140SAPE  H10R15271   5.643   5.390   9.476  1.2022 -0.5284  0.4802
  140SAPE  H10S15272   5.772   5.491   9.412 -1.0621 -2.7992 -2.2241
  140SAPE  C21115273   5.569   5.542   9.349 -0.9609 -0.0354 -0.7483
  140SAPE  H11R15274   5.462   5.524   9.371 -0.8603  1.2341  0.9235
  140SAPE  C21215275   5.597   5.595   9.229  0.2881  0.0024  0.0750
  140SAPE  H12R15276   5.509   5.612   9.166 -0.4669 -0.4619  0.9813
  140SAPE  C21315277   5.731   5.610   9.165  0.9646 -0.8635  0.0528
  140SAPE  H13R15278   5.803   5.589   9.247  0.8871 -1.9524 -0.1348
  140SAPE  H13S15279   5.740   5.718   9.144  2.0880 -0.9173  0.2073
  140SAPE  C21415280   5.771   5.526   9.048  0.5516  0.4011 -0.1344
  140SAPE  H14R15281   5.821   5.430   9.069  0.8747  0.4493 -0.6390
  140SAPE  C21515282   5.735   5.556   8.920 -0.3511  1.0482 -1.2264
  140SAPE  H15R15283   5.758   5.489   8.836 -2.8360  0.9753 -1.9350
  140SAPE  C21615284   5.663   5.672   8.872 -0.9796 -0.1436 -0.4231
  140SAPE  H16R15285   5.682   5.754   8.944 -0.2242  0.0777 -0.8657
  140SAPE  H16S15286   5.553   5.654   8.881 -1.1010 -0.7147 -2.6181
  140SAPE  C21715287   5.686   5.713   8.726  0.1295  0.6450  0.6811
  140SAPE  H17R15288   5.793   5.739   8.715  0.8479 -1.1918  2.6984
  140SAPE  H17S15289   5.629   5.806   8.704 -0.2865  0.8394  2.4328
  140SAPE  C21815290   5.647   5.604   8.620  0.0735 -0.1916 -0.1392
  140SAPE  H18R15291   5.538   5.589   8.635 -0.1837  1.5616  0.0233
  140SAPE  H18S15292   5.697   5.507   8.641 -0.6460 -0.7063 -0.7519
  140SAPE  C21915293   5.679   5.641   8.474  0.5020  0.3457 -0.2059
  140SAPE  H19R15294   5.600   5.597   8.409 -0.1341  0.3018  0.5807
  140SAPE  H19S15295   5.775   5.592   8.447 -1.4646 -3.0113 -1.7107
  140SAPE  C22015296   5.671   5.793   8.444  0.0759 -0.6376  0.1643
  140SAPE  H20R15297   5.702   5.814   8.340  2.7103  0.1034  0.9999
  140SAPE  H20S15298   5.746   5.835   8.515  1.0640 -1.1729 -0.5261
  140SAPE  H20T15299   5.576   5.845   8.467  1.7440  2.3204  0.8640
  140SAPE   C3315300   4.593   5.728  10.080 -0.0762 -0.1871  0.0280
  140SAPE   H3X15301   4.610   5.837  10.083 -1.3301 -0.0081  1.9498
  140SAPE   H3Y15302   4.518   5.695  10.156 -1.8236  0.0583 -1.5102
  140SAPE   C3415303   4.552   5.689   9.944  0.0287  0.4505  0.5568
  140SAPE   H4X15304   4.450   5.729   9.921  0.0818 -0.0038 -0.5454
  140SAPE   H4Y15305   4.537   5.579   9.944 -2.9090  0.4845 -4.8561
  140SAPE   C3515306   4.651   5.737   9.832 -0.3631  0.8451  0.1740
  140SAPE   H5X15307   4.747   5.686   9.856 -1.2337 -0.8629  0.1901
  140SAPE   H5Y15308   4.659   5.848   9.830 -1.3998  0.9160 -1.1524
  140SAPE   C3615309   4.607   5.681   9.704  0.2382 -0.5207 -0.5246
  140SAPE   H6X15310   4.496   5.695   9.705  0.3849  0.9078  1.1677
  140SAPE   H6Y15311   4.641   5.575   9.700  2.2326  0.1113 -1.8995
  140SAPE   C3715312   4.665   5.768   9.591 -0.5678  0.1581  0.8229
  140SAPE   H7X15313   4.776   5.768   9.591 -0.5259 -1.1756 -1.0653
  140SAPE   H7Y15314   4.624   5.871   9.605 -1.6994 -0.0815 -0.5416
  140SAPE   C3815315   4.625   5.705   9.450  0.2549 -0.1144 -0.3233
  140SAPE   H8X15316   4.645   5.782   9.372  1.4261 -1.5169 -1.4982
  140SAPE   H8Y15317   4.519   5.673   9.447  0.1044  0.4128 -0.6518
  140SAPE   C3915318   4.709   5.577   9.423  0.1828 -0.1285  0.0771
  140SAPE   H9X15319   4.702   5.513   9.514 -0.6217  0.3514  0.3587
  140SAPE   H9Y15320   4.816   5.608   9.427 -0.2576  1.3864  1.2965
  140SAPE  C31015321   4.676   5.500   9.294  1.2820 -0.4556  0.2187
  140SAPE  H10X15322   4.574   5.456   9.292 -0.1065  2.4098  1.6631
  140SAPE  H10Y15323   4.740   5.410   9.282 -2.3187 -3.4742  1.8131
  140SAPE  C31115324   4.704   5.585   9.173  0.3210  0.0184  0.4742
  140SAPE  H11X15325   4.810   5.619   9.170  0.8406 -1.5136  0.4402
  140SAPE  H11Y15326   4.642   5.677   9.167  1.8187  0.9739 -1.8016
  140SAPE  C31215327   4.681   5.523   9.031  0.1701 -0.3887 -0.4258
  140SAPE  H12X15328   4.578   5.543   8.995 -0.3711  2.5801  2.2343
  140SAPE  H12Y15329   4.698   5.413   9.034 -0.3756 -0.4777 -0.6786
  140SAPE  C31315330   4.767   5.584   8.928 -1.2579  0.0343 -0.0486
  140SAPE  H13X15331   4.872   5.554   8.948 -1.7443 -2.8373 -1.3789
  140SAPE  H13Y15332   4.776   5.695   8.937  2.2810 -0.1299 -0.2719
  140SAPE  C31415333   4.739   5.540   8.783  0.4757  0.3839  0.5552
  140SAPE  H14X15334   4.640   5.554   8.733  0.5063 -0.6849  0.1628
  140SAPE  H14Y15335   4.731   5.429   8.791  1.1054  0.3087  0.2093
  140SAPE  C31515336   4.840   5.584   8.673 -0.2142 -0.2856 -0.3214
  140SAPE  H15X15337   4.938   5.554   8.716 -0.6212  0.3212  1.0843
  140SAPE  H15Y15338   4.837   5.692   8.649 -2.7151 -0.3688 -0.6477
  140SAPE  C31615339   4.813   5.507   8.537  0.2026  0.2379 -0.1486
  140SAPE  H16X15340   4.784   5.403   8.564 -3.7593  1.3589  0.5910
  140SAPE  H16Y15341   4.907   5.510   8.478  0.1200  0.9223 -0.2607
  140SAPE  C31715342   4.691   5.564   8.464 -0.4454  0.5231  0.2781
  140SAPE  H17X15343   4.724   5.665   8.430  1.3582 -0.4018 -0.8833
  140SAPE  H17Y15344   4.620   5.587   8.547 -0.6917 -1.5907  0.7045
  140SAPE  C31815345   4.627   5.476   8.362 -0.2564  0.0507 -0.6691
  140SAPE  H18X15346   4.708   5.436   8.298 -0.6985  1.0798 -1.9170
  140SAPE  H18Y15347   4.560   5.536   8.297 -2.8116 -0.4718  1.2840
  140SAPE  H18Z15348   4.563   5.395   8.404 -2.2014  0.8041 -2.0457
  141SAPE     N15349   6.788   5.231  11.200 -0.0979 -0.0119  0.6246
  141SAPE   HN115350   6.759   5.132  11.193  0.7891 -0.1478 -1.8945
  141SAPE   HN215351   6.704   5.289  11.224 -1.1275  0.2691 -2.9919
  141SAPE   HN315352   6.815   5.268  11.107 -0.1482 -1.8299 -0.1456
  141SAPE   C1215353   6.916   5.258  11.277 -0.1428  0.8835  0.5122
  141SAPE  H12A15354   6.901   5.229  11.383  2.3455 -0.6174  0.5519
  141SAPE  H12B15355   6.952   5.362  11.258  1.9449 -0.1024 -1.3574
  141SAPE   C1115356   7.027   5.153  11.234 -0.4747 -0.0836 -0.1574
  141SAPE  H11A15357   6.987   5.050  11.243 -1.4640  0.1628 -1.3582
  141SAPE  H11B15358   7.118   5.160  11.297 -0.8827 -0.9117  0.5444
  141SAPE     P15359   7.171   5.090  11.017  0.1923 -0.0416  0.0543
  141SAPE   O1315360   7.255   5.174  10.937 -0.2647  0.2066 -0.2505
  141SAPE   O1415361   7.239   5.003  11.115  0.0677 -0.3533  0.8681
  141SAPE   O1215362   7.064   5.183  11.098 -0.7446 -0.1701 -0.4948
  141SAPE   O1115363   7.084   4.999  10.920  0.1258  0.0235 -0.4529
  141SAPE    C115364   6.957   5.043  10.865 -0.4914 -0.0211 -0.5718
  141SAPE    HA15365   6.886   4.961  10.887 -0.8515  0.3816 -0.2076
  141SAPE    HB15366   6.911   5.125  10.925 -1.3678 -1.0220  0.1762
  141SAPE    C215367   6.955   5.057  10.712 -0.0412  0.2013  0.4435
  141SAPE    HS15368   6.861   5.110  10.683  0.0052  0.9955  1.6294
  141SAPE   O2115369   6.963   4.918  10.660 -0.5630 -0.5287 -0.0961
  141SAPE   C2115370   6.945   4.904  10.530  0.3571 -0.4888  0.4139
  141SAPE   O2215371   6.862   4.968  10.464 -0.3592 -0.2444  0.2336
  141SAPE   C2215372   7.038   4.804  10.475 -0.9629 -0.6082  0.1764
  141SAPE   H2R15373   7.141   4.847  10.479 -0.8111 -0.7789 -1.2550
  141SAPE   H2S15374   7.055   4.719  10.545 -0.5683 -1.1491 -0.5679
  141SAPE    C315375   7.076   5.148  10.667 -0.6455  0.2506 -0.2550
  141SAPE    HX15376   7.168   5.095  10.699  1.0072  2.1533 -1.6367
  141SAPE    HY15377   7.078   5.245  10.721  4.6109  1.1918 -1.6068
  141SAPE   O3115378   7.088   5.160  10.527  0.4161  0.2960  0.1895
  141SAPE   C3115379   7.009   5.261  10.475 -0.7857  0.1405 -0.3062
  141SAPE   O3215380   6.965   5.352  10.540  0.6835 -0.6083  0.4214
  141SAPE   C3215381   7.000   5.240  10.332  0.1952  0.2090  0.0804
  141SAPE   H2X15382   6.957   5.139  10.322  2.2245 -0.8654  1.3734
  141SAPE   H2Y15383   7.106   5.238  10.299 -0.0548  2.3246 -1.0557
  141SAPE   C2315384   7.024   4.761  10.326  0.5268 -0.2169 -0.1338
  141SAPE   H3R15385   6.966   4.841  10.276  0.1322  0.3398  1.1748
  141SAPE   H3S15386   6.964   4.668  10.329  0.6848 -0.3711 -1.3201
  141SAPE   C2415387   7.149   4.721  10.249 -0.0366 -0.2642 -0.2512
  141SAPE   H4R15388   7.125   4.662  10.158 -1.1472  1.0902 -0.8632
  141SAPE   H4S15389   7.209   4.647  10.306  0.9975 -0.3944 -1.4838
  141SAPE   C2515390   7.228   4.844  10.205  0.0741  0.0656  0.0796
  141SAPE   H5R15391   7.291   4.906  10.270  0.2103  2.1203 -1.8849
  141SAPE   C2615392   7.229   4.885  10.078  0.3589  0.8405 -0.3143
  141SAPE   H6R15393   7.276   4.982  10.058  1.0687  0.7906  1.0376
  141SAPE   C2715394   7.161   4.825   9.958 -0.0373 -0.6270  0.2125
  141SAPE   H7R15395   7.078   4.760   9.993 -2.2491  0.9706 -1.7163
  141SAPE   H7S15396   7.233   4.763   9.900  0.4174 -2.3006  2.4182
  141SAPE   C2815397   7.085   4.924   9.869  0.2417  1.0570 -0.0685
  141SAPE   H8R15398   7.091   5.027   9.908 -0.6772  1.1665 -0.1950
  141SAPE   C2915399   7.017   4.896   9.753 -0.3603  0.3049  0.4008
  141SAPE   H9R15400   6.967   4.977   9.698  0.7543  1.1332  0.5567
  141SAPE  C21015401   7.001   4.757   9.688 -0.4729 -0.2516 -0.3820
  141SAPE  H10R15402   6.904   4.740   9.636 -0.2061 -1.3741 -0.5319
  141SAPE  H10S15403   7.023   4.672   9.755  1.1412  0.7956  0.4690
  141SAPE  C21115404   7.116   4.747   9.589  0.2220  0.5432 -1.0200
  141SAPE  H11R15405   7.211   4.791   9.623  0.3351 -1.2445  1.2756
  141SAPE  C21215406   7.118   4.711   9.464  0.1395 -0.0653  0.0816
  141SAPE  H12R15407   7.215   4.722   9.415 -0.0856  1.6980 -0.0552
  141SAPE  C21315408   7.008   4.647   9.384  0.3051  0.0881  0.5568
  141SAPE  H13R15409   6.982   4.724   9.308 -0.2338 -0.7455 -0.1296
  141SAPE  H13S15410   6.910   4.633   9.434 -0.8156  3.4527 -0.4188
  141SAPE  C21415411   7.051   4.522   9.321  0.0955  0.1208  0.5528
  141SAPE  H14R15412   7.047   4.440   9.393 -0.6520 -0.3905 -0.0490
  141SAPE  C21515413   7.080   4.502   9.193  0.1658  0.5683  0.6648
  141SAPE  H15R15414   7.115   4.406   9.152  0.2425  1.2029 -0.8326
  141SAPE  C21615415   7.078   4.612   9.086  0.3004  0.7019 -1.7714
  141SAPE  H16R15416   7.092   4.706   9.145  3.1430 -0.9343  0.4333
  141SAPE  H16S15417   6.987   4.611   9.022 -2.1959 -0.1818  1.5231
  141SAPE  C21715418   7.199   4.575   8.992 -0.2410 -0.2480  0.0363
  141SAPE  H17R15419   7.211   4.467   8.966  1.0055 -0.5180  1.5964
  141SAPE  H17S15420   7.290   4.605   9.049 -1.8165  1.0730  1.9678
  141SAPE  C21815421   7.210   4.633   8.854 -0.3635 -0.2156 -0.2341
  141SAPE  H18R15422   7.180   4.740   8.856 -1.4155 -0.5125  0.7862
  141SAPE  H18S15423   7.131   4.597   8.785 -0.6025  1.3953 -0.8508
  141SAPE  C21915424   7.352   4.633   8.795 -0.1885  0.4476 -0.7997
  141SAPE  H19R15425   7.386   4.527   8.788 -0.9796  0.1455 -0.2006
  141SAPE  H19S15426   7.411   4.688   8.872  1.4493 -1.2171 -0.7779
  141SAPE  C22015427   7.362   4.690   8.653  0.7189 -0.6533 -1.0442
  141SAPE  H20R15428   7.297   4.646   8.574  1.3154 -0.4001 -1.6801
  141SAPE  H20S15429   7.468   4.688   8.621  1.6463 -0.0802  1.7103
  141SAPE  H20T15430   7.329   4.796   8.651  2.7598  0.1193  1.3169
  141SAPE   C3315431   6.931   5.335  10.234 -0.0079  0.4450 -0.4301
  141SAPE   H3X15432   6.832   5.360  10.278 -0.0920  0.1797 -0.4651
  141SAPE   H3Y15433   6.907   5.300  10.131 -1.3653  2.5395 -0.8816
  141SAPE   C3415434   6.996   5.474  10.216 -0.7348 -0.0819 -0.3744
  141SAPE   H4X15435   7.086   5.457  10.154 -1.7584 -0.2993 -1.8395
  141SAPE   H4Y15436   7.001   5.520  10.318  1.1437 -2.6993  0.8293
  141SAPE   C3515437   6.906   5.567  10.136 -0.0259  0.3699 -0.1680
  141SAPE   H5X15438   6.802   5.559  10.175  0.2008 -0.9843  0.2116
  141SAPE   H5Y15439   6.913   5.537  10.030 -0.2242  2.5925 -0.8708
  141SAPE   C3615440   6.939   5.721  10.137 -0.4083  0.4818 -0.4679
  141SAPE   H6X15441   7.047   5.743  10.126 -0.5958  1.3938 -0.6239
  141SAPE   H6Y15442   6.912   5.766  10.235  0.8292  1.2091 -0.4455
  141SAPE   C3715443   6.870   5.793  10.026 -0.3910 -0.3300 -0.2315
  141SAPE   H7X15444   6.760   5.798  10.041 -0.4528 -2.5116  0.3124
  141SAPE   H7Y15445   6.890   5.729   9.938  0.4027  1.0730 -1.1133
  141SAPE   C3815446   6.931   5.940  10.004  0.0216  0.5777  0.3731
  141SAPE   H8X15447   7.042   5.927   9.999 -0.3904 -4.1758 -2.0977
  141SAPE   H8Y15448   6.900   5.994  10.096  2.4163 -1.5854  2.6075
  141SAPE   C3915449   6.889   6.005   9.874  0.1831  0.6114  0.5807
  141SAPE   H9X15450   6.928   6.109   9.872 -0.9325  1.0386 -1.0722
  141SAPE   H9Y15451   6.778   6.012   9.874  0.0555  0.1346 -2.7248
  141SAPE  C31015452   6.942   5.933   9.742 -0.1257  0.2639 -0.1724
  141SAPE  H10X15453   6.943   5.822   9.749  0.6284  0.3576  1.8317
  141SAPE  H10Y15454   7.046   5.971   9.734 -0.7310  1.8108 -1.2029
  141SAPE  C31115455   6.859   5.984   9.622  0.0030 -0.0388  0.4703
  141SAPE  H11X15456   6.878   6.094   9.623  1.7878 -0.2412  4.1472
  141SAPE  H11Y15457   6.752   5.969   9.647 -0.2135 -2.6036 -1.5278
  141SAPE  C31215458   6.888   5.919   9.492 -0.6422 -0.3937  0.5026
  141SAPE  H12X15459   6.865   5.811   9.499  2.5884 -1.1598  0.7408
  141SAPE  H12Y15460   6.996   5.935   9.472 -0.5810 -2.0983 -0.8151
  141SAPE  C31315461   6.806   5.968   9.378 -0.7771  0.4474  0.0102
  141SAPE  H13X15462   6.820   6.078   9.368  0.5129  0.2667 -0.3789
  141SAPE  H13Y15463   6.702   5.935   9.397 -0.6912 -0.2051 -0.5789
  141SAPE  C31415464   6.846   5.898   9.252  0.1578  0.1259  0.5629
  141SAPE  H14X15465   6.844   5.787   9.260  0.5169  0.1137  0.4841
  141SAPE  H14Y15466   6.951   5.923   9.227 -0.2410  1.0811 -0.2220
  141SAPE  C31515467   6.761   5.934   9.136  0.4370  0.3304  0.1997
  141SAPE  H15X15468   6.676   5.995   9.174 -1.3419 -1.2343 -1.1212
  141SAPE  H15Y15469   6.714   5.846   9.089  1.6378 -0.6108  0.7201
  141SAPE  C31615470   6.844   6.009   9.027 -0.1861 -0.1368  0.1076
  141SAPE  H16X15471   6.926   5.942   8.993  0.7731  0.1113  1.8347
  141SAPE  H16Y15472   6.895   6.098   9.069  1.1137 -0.4494 -0.7419
  141SAPE  C31715473   6.764   6.039   8.901  0.7205 -0.2464  0.3087
  141SAPE  H17X15474   6.819   6.119   8.848  0.4110  0.5707  1.1816
  141SAPE  H17Y15475   6.667   6.084   8.931  1.6930  1.7071  0.7032
  141SAPE  C31815476   6.754   5.920   8.813 -0.4058 -0.2143 -0.0430
  141SAPE  H18X15477   6.711   5.835   8.870  0.1712  1.8300  3.7490
  141SAPE  H18Y15478   6.855   5.898   8.770 -0.3569  0.7690 -0.4438
  141SAPE  H18Z15479   6.684   5.952   8.733  1.6352 -0.3177 -1.9925
  142SAPE     N15480   1.984   0.153  11.254 -0.3215  0.2170 -0.1717
  142SAPE   HN115481   2.033   0.243  11.269  0.2445 -0.3717  1.7724
  142SAPE   HN215482   1.891   0.162  11.209 -1.5140  0.6305  2.2272
  142SAPE   HN315483   1.976   0.111  11.349 -0.7428 -0.1056 -0.3445
  142SAPE   C1215484   2.081   0.087  11.157 -0.5465 -0.8244 -0.1872
  142SAPE  H12A15485   2.060  -0.021  11.171  0.4469 -1.0242 -0.1756
  142SAPE  H12B15486   2.185   0.109  11.189 -1.2675 -0.1980  1.8485
  142SAPE   C1115487   2.069   0.150  11.021  0.2025 -0.0511  0.1719
  142SAPE  H11A15488   2.151   0.115  10.955  1.0033  0.9756  0.6063
  142SAPE  H11B15489   2.079   0.258  11.044 -1.3356  0.1129  0.1527
  142SAPE     P15490   1.883   0.217  10.860 -0.1453 -0.1231 -0.3172
  142SAPE   O1315491   1.784   0.158  10.764  0.0548  0.2292  0.2003
  142SAPE   O1415492   1.847   0.336  10.938 -0.2545  0.6367 -0.3367
  142SAPE   O1215493   1.944   0.109  10.961 -0.1155  0.3782  0.3137
  142SAPE   O1115494   2.006   0.267  10.776  0.2864  0.2498 -0.3344
  142SAPE    C115495   2.071   0.172  10.694  0.0828  0.1559 -0.5837
  142SAPE    HA15496   2.179   0.199  10.690 -0.0346  0.8301  0.4588
  142SAPE    HB15497   2.072   0.069  10.733 -0.9183  1.1441  2.2619
  142SAPE    C215498   2.012   0.180  10.551 -0.7105  0.2775  0.1794
  142SAPE    HS15499   1.916   0.124  10.553 -0.1843 -0.6320  0.3967
  142SAPE   O2115500   2.114   0.128  10.463  0.3712  0.4755  0.4729
  142SAPE   C2115501   2.091  -0.001  10.428  0.8935  0.0383  0.2081
  142SAPE   O2215502   1.995  -0.066  10.464  0.6216  0.7451  0.6633
  142SAPE   C2215503   2.190  -0.047  10.323  0.1729  0.3690  0.6192
  142SAPE   H2R15504   2.221   0.046  10.269 -0.1099 -0.7989 -1.6936
  142SAPE   H2S15505   2.277  -0.097  10.371  0.6839  1.4860  0.8867
  142SAPE    C315506   1.977   0.323  10.500 -0.0973 -0.4716  0.4797
  142SAPE    HX15507   2.067   0.387  10.495 -0.0970 -0.5800 -1.8094
  142SAPE    HY15508   1.913   0.358  10.584 -1.5537  0.5348 -0.9857
  142SAPE   O3115509   1.898   0.320  10.376 -0.1466  0.2758  0.3130
  142SAPE   C3115510   1.947   0.410  10.287 -0.3281  0.3889  0.1755
  142SAPE   O3215511   2.026   0.503  10.311  0.2415  1.0864  0.1563
  142SAPE   C3215512   1.902   0.368  10.151 -0.1923 -0.1909  0.1086
  142SAPE   H2X15513   1.944   0.441  10.078 -0.7645  1.1614  1.0849
  142SAPE   H2Y15514   1.792   0.368  10.137 -0.1793 -0.5050  0.0040
  142SAPE   C2315515   2.128  -0.156  10.227 -0.2137 -0.7809  0.1931
  142SAPE   H3R15516   2.025  -0.126  10.200  0.1703 -0.7358 -1.2923
  142SAPE   H3S15517   2.109  -0.251  10.281 -1.7862 -0.6205 -0.0229
  142SAPE   C2415518   2.205  -0.184  10.092  0.1955  0.2962  0.1993
  142SAPE   H4R15519   2.219  -0.082  10.050  0.3157  0.4230  0.5431
  142SAPE   H4S15520   2.136  -0.233  10.020  0.2263  1.8140 -0.9094
  142SAPE   C2515521   2.336  -0.264  10.116 -0.0844 -0.1314 -0.2680
  142SAPE   H5R15522   2.396  -0.235  10.203 -0.7499  0.4295  0.0164
  142SAPE   C2615523   2.389  -0.361  10.039  0.2671 -0.2300  0.9837
  142SAPE   H6R15524   2.487  -0.406  10.056  0.3834 -1.1504 -1.6262
  142SAPE   C2715525   2.332  -0.421   9.915 -0.5434  0.2989  0.0237
  142SAPE   H7R15526   2.420  -0.441   9.850 -0.1727  0.5245  0.4573
  142SAPE   H7S15527   2.266  -0.348   9.863  1.3957  1.7077 -0.5852
  142SAPE   C2815528   2.257  -0.551   9.940  0.1635 -0.5464  0.1906
  142SAPE   H8R15529   2.247  -0.566  10.048 -0.7849 -0.0351  0.1853
  142SAPE   C2915530   2.207  -0.630   9.851  0.1254  0.0674 -0.3209
  142SAPE   H9R15531   2.153  -0.720   9.886 -1.7091  0.6856 -1.3922
  142SAPE  C21015532   2.203  -0.620   9.703 -0.6182  0.1873  0.4553
  142SAPE  H10R15533   2.272  -0.698   9.663  1.2711  1.5770  0.8944
  142SAPE  H10S15534   2.260  -0.532   9.666  0.8864 -1.2422 -0.7903
  142SAPE  C21115535   2.065  -0.632   9.634  0.1820 -0.4927 -0.0465
  142SAPE  H11R15536   1.978  -0.614   9.699 -0.0364 -0.6566 -0.2932
  142SAPE  C21215537   2.052  -0.649   9.497 -0.1739  0.0213  0.2130
  142SAPE  H12R15538   1.955  -0.671   9.450 -0.3811  0.5444  0.3913
  142SAPE  C21315539   2.161  -0.657   9.395 -0.2943 -0.1372 -0.4211
  142SAPE  H13R15540   2.183  -0.763   9.374  1.7652  0.2201 -0.3352
  142SAPE  H13S15541   2.252  -0.606   9.434 -0.6262  1.1836 -1.2874
  142SAPE  C21415542   2.121  -0.593   9.260  0.0976  0.0409  1.1689
  142SAPE  H14R15543   2.101  -0.485   9.266 -0.2520 -0.0267  1.2542
  142SAPE  C21515544   2.099  -0.663   9.141 -0.3265 -0.6668  0.1725
  142SAPE  H15R15545   2.040  -0.606   9.067 -2.5356 -0.8107  1.7636
  142SAPE  C21615546   2.113  -0.806   9.118  0.7858  0.5169 -0.7223
  142SAPE  H16R15547   2.117  -0.864   9.213 -2.0418  2.2191  0.5656
  142SAPE  H16S15548   2.213  -0.822   9.072  1.1661  3.2087 -0.9896
  142SAPE  C21715549   2.006  -0.848   9.018 -0.5871  0.3643 -0.0097
  142SAPE  H17R15550   1.905  -0.814   9.049 -0.0176  0.2063  2.2629
  142SAPE  H17S15551   1.986  -0.957   9.020 -3.0088  0.7643 -0.5158
  142SAPE  C21815552   2.031  -0.808   8.875  0.4914 -0.2202  0.9659
  142SAPE  H18R15553   2.137  -0.811   8.842  0.0998 -0.4461 -0.3065
  142SAPE  H18S15554   2.018  -0.698   8.859 -0.8052 -0.3444  1.0750
  142SAPE  C21915555   1.927  -0.881   8.782 -0.5796  0.3831  0.2624
  142SAPE  H19R15556   1.824  -0.849   8.810 -1.6435 -1.8481 -0.8883
  142SAPE  H19S15557   1.938  -0.990   8.798  0.1012  0.6720  1.9895
  142SAPE  C22015558   1.944  -0.839   8.638  0.3491  0.5072 -0.6337
  142SAPE  H20R15559   1.894  -0.741   8.624 -0.0703  1.0922  3.5148
  142SAPE  H20S15560   1.901  -0.923   8.580 -1.4631 -0.7204  2.2724
  142SAPE  H20T15561   2.049  -0.819   8.608 -0.0450  0.3101 -2.2215
  142SAPE   C3315562   1.954   0.229  10.117  0.1783 -0.4431  0.6163
  142SAPE   H3X15563   1.907   0.140  10.164  1.4134 -1.9625 -0.9258
  142SAPE   H3Y15564   2.062   0.226  10.142  0.2279 -1.3569  0.3453
  142SAPE   C3415565   1.946   0.187   9.971  0.5523 -0.0862  0.0325
  142SAPE   H4X15566   2.010   0.260   9.918 -0.1851 -0.2335 -1.0997
  142SAPE   H4Y15567   1.841   0.206   9.941  0.0074 -0.6688  1.5212
  142SAPE   C3515568   1.995   0.047   9.936  0.1303  0.7254 -0.0479
  142SAPE   H5X15569   1.954  -0.039   9.992  0.6359  1.2112  1.1099
  142SAPE   H5Y15570   2.106   0.048   9.949 -0.0009 -1.4718  1.9515
  142SAPE   C3615571   1.980   0.014   9.791  0.1664 -0.3490 -0.3837
  142SAPE   H6X15572   2.048   0.077   9.730 -0.6604  0.8842 -0.0793
  142SAPE   H6Y15573   1.880   0.049   9.757  0.5626 -0.3700 -1.6123
  142SAPE   C3715574   1.989  -0.133   9.751 -0.2062 -0.0805 -0.0226
  142SAPE   H7X15575   1.929  -0.197   9.820  0.6925  1.8623  2.7304
  142SAPE   H7Y15576   2.090  -0.177   9.765 -0.6560 -1.1793 -0.1222
  142SAPE   C3815577   1.947  -0.150   9.608  0.7357 -0.2860 -0.8195
  142SAPE   H8X15578   2.005  -0.084   9.539 -2.2500  1.4670 -1.8411
  142SAPE   H8Y15579   1.841  -0.116   9.600 -0.0692 -2.2787  0.5800
  142SAPE   C3915580   1.950  -0.292   9.576 -0.0150  0.6621  0.3563
  142SAPE   H9X15581   1.906  -0.349   9.661  0.7509 -0.0913  0.2558
  142SAPE   H9Y15582   2.054  -0.329   9.575 -0.6436 -1.2107 -0.4704
  142SAPE  C31015583   1.866  -0.316   9.455 -1.1359  0.7421  0.6491
  142SAPE  H10X15584   1.761  -0.286   9.475 -2.5461 -2.4322 -1.1911
  142SAPE  H10Y15585   1.875  -0.426   9.440 -2.8609  0.7379 -0.5507
  142SAPE  C31115586   1.914  -0.261   9.322  0.3725 -0.1769 -0.3018
  142SAPE  H11X15587   2.022  -0.280   9.312  0.3621 -1.1308  1.2199
  142SAPE  H11Y15588   1.900  -0.151   9.315  0.3313 -0.2715 -2.2076
  142SAPE  C31215589   1.836  -0.327   9.205 -0.4465  0.2273  0.1824
  142SAPE  H12X15590   1.725  -0.322   9.219 -0.8744  0.0196 -2.5210
  142SAPE  H12Y15591   1.860  -0.435   9.196  0.9728  0.5110  0.3916
  142SAPE  C31315592   1.865  -0.251   9.072 -0.3725  0.0598  0.0220
  142SAPE  H13X15593   1.972  -0.267   9.045 -0.8802  3.1658 -5.0753
  142SAPE  H13Y15594   1.839  -0.143   9.074 -0.9356 -0.0646 -0.4845
  142SAPE  C31415595   1.785  -0.322   8.955 -0.3010 -0.6874 -0.1910
  142SAPE  H14X15596   1.801  -0.268   8.859  1.5243 -1.3184 -0.2921
  142SAPE  H14Y15597   1.677  -0.332   8.977  0.0373 -0.6290  1.6289
  142SAPE  C31515598   1.827  -0.465   8.922  0.4758 -0.2189 -0.2624
  142SAPE  H15X15599   1.783  -0.531   9.000  0.1191  0.1790 -0.1232
  142SAPE  H15Y15600   1.937  -0.478   8.924  0.5471 -0.0759 -2.0668
  142SAPE  C31615601   1.777  -0.511   8.788  0.2046  0.1356 -0.0061
  142SAPE  H16X15602   1.840  -0.593   8.749 -0.8543 -0.2848 -0.8954
  142SAPE  H16Y15603   1.788  -0.427   8.715  1.1670 -1.2526 -1.5091
  142SAPE  C31715604   1.628  -0.557   8.793  0.1870  0.1619 -0.0311
  142SAPE  H17X15605   1.575  -0.470   8.749 -0.5023 -1.3991 -2.5279
  142SAPE  H17Y15606   1.588  -0.574   8.895 -0.5808 -0.0886 -0.3669
  142SAPE  C31815607   1.580  -0.665   8.700 -0.3306  0.3605 -0.0307
  142SAPE  H18X15608   1.641  -0.756   8.723 -1.1303 -0.1887 -0.0344
  142SAPE  H18Y15609   1.600  -0.634   8.595 -0.0784  0.2336 -0.0222
  142SAPE  H18Z15610   1.470  -0.679   8.707 -0.2670 -1.0031 -1.2350
  143SAPE     N15611   1.258   1.693  10.703  0.3993  0.5976  0.5042
  143SAPE   HN115612   1.341   1.692  10.641  0.4477  3.1682  0.4260
  143SAPE   HN215613   1.171   1.673  10.649  1.2595  3.6010 -2.2872
  143SAPE   HN315614   1.243   1.791  10.734 -0.6385  0.7093 -0.2721
  143SAPE   C1215615   1.265   1.607  10.831 -0.1962 -0.4286 -0.2707
  143SAPE  H12A15616   1.346   1.646  10.896  0.1357 -2.2798  0.4814
  143SAPE  H12B15617   1.295   1.506  10.795  3.4981  1.0546 -1.8702
  143SAPE   C1115618   1.138   1.601  10.909  1.0232 -0.2679 -0.4127
  143SAPE  H11A15619   1.136   1.696  10.967 -2.0531 -0.2463 -0.3450
  143SAPE  H11B15620   1.145   1.516  10.980  0.2334 -0.7894 -0.9400
  143SAPE     P15621   0.927   1.466  10.825  0.4094  0.0693  0.2882
  143SAPE   O1315622   0.907   1.408  10.961 -0.2777 -0.6994 -0.3485
  143SAPE   O1415623   0.799   1.494  10.752  0.3026 -0.4697 -0.6448
  143SAPE   O1215624   1.018   1.594  10.828 -0.0381 -0.5929 -0.1462
  143SAPE   O1115625   1.024   1.369  10.744 -0.0135  0.1478  1.1044
  143SAPE    C115626   0.984   1.345  10.605 -0.0573 -0.6059  0.6082
  143SAPE    HA15627   0.883   1.299  10.599 -0.9193  1.2811 -0.0096
  143SAPE    HB15628   0.968   1.437  10.545  1.2668 -1.8926 -1.8782
  143SAPE    C215629   1.091   1.262  10.528  0.3695  0.1254  0.2731
  143SAPE    HS15630   1.113   1.175  10.593  1.9361  0.7537  0.6434
  143SAPE   O2115631   1.203   1.342  10.512  0.1905  0.0700  0.6668
  143SAPE   C2115632   1.308   1.293  10.457  0.0994 -0.0211  0.0982
  143SAPE   O2215633   1.325   1.176  10.425  0.7171 -0.3466  0.2414
  143SAPE   C2215634   1.415   1.397  10.423 -0.0249  0.4276 -0.2077
  143SAPE   H2R15635   1.439   1.457  10.514 -0.8896 -0.9410  0.9659
  143SAPE   H2S15636   1.507   1.339  10.405 -0.1183 -0.1328  0.9883
  143SAPE    C315637   1.036   1.212  10.396 -0.2526  0.0465  0.1309
  143SAPE    HX15638   0.935   1.169  10.413 -0.8926  1.8062  0.9803
  143SAPE    HY15639   1.098   1.129  10.356 -0.2984 -0.4126  1.0087
  143SAPE   O3115640   1.029   1.325  10.309  0.4756 -0.0908 -0.1944
  143SAPE   C3115641   1.000   1.298  10.182 -0.2145 -0.0069 -0.3986
  143SAPE   O3215642   0.976   1.188  10.131  0.2256  0.0411  0.1342
  143SAPE   C3215643   1.016   1.422  10.093  0.0987 -0.0747  0.0348
  143SAPE   H2X15644   1.099   1.485  10.132 -0.0284 -0.8362  1.6040
  143SAPE   H2Y15645   0.921   1.478  10.108 -0.1366 -0.5773  0.4455
  143SAPE   C2315646   1.363   1.489  10.312  0.3198  0.2447  0.5995
  143SAPE   H3R15647   1.433   1.575  10.303  1.1673 -0.6586 -2.4997
  143SAPE   H3S15648   1.263   1.529  10.337  0.0417 -0.6792  0.9952
  143SAPE   C2415649   1.345   1.419  10.182  0.2492 -0.0295  0.0997
  143SAPE   H4R15650   1.326   1.494  10.102  0.2037 -0.3999 -0.2421
  143SAPE   H4S15651   1.265   1.342  10.191  0.5577 -0.3454  0.1637
  143SAPE   C2515652   1.465   1.342  10.144 -0.5493  0.4001 -0.4998
  143SAPE   H5R15653   1.480   1.253  10.206  1.2663  0.1946 -1.1673
  143SAPE   C2615654   1.553   1.360  10.041  0.0795 -0.2258 -0.7626
  143SAPE   H6R15655   1.643   1.297  10.038 -1.7457 -3.1413  0.6108
  143SAPE   C2715656   1.548   1.469   9.938 -0.0186  0.4382  0.1091
  143SAPE   H7R15657   1.650   1.511   9.922  1.2649 -1.5878  2.2260
  143SAPE   H7S15658   1.476   1.550   9.959 -0.8725 -0.0017 -1.0430
  143SAPE   C2815659   1.492   1.413   9.812 -0.0373  0.3683  0.0830
  143SAPE   H8R15660   1.402   1.349   9.819 -0.8209  1.3741 -0.3897
  143SAPE   C2915661   1.531   1.425   9.682  1.3416  0.0983 -0.4391
  143SAPE   H9R15662   1.464   1.381   9.607 -0.0941  1.2142  0.1295
  143SAPE  C21015663   1.642   1.503   9.617  0.1734 -0.1341  0.0115
  143SAPE  H10R15664   1.706   1.552   9.694  1.3826 -0.7388 -0.5789
  143SAPE  H10S15665   1.609   1.590   9.555  0.1501  1.4631  2.1493
  143SAPE  C21115666   1.727   1.411   9.532 -0.2453  0.2902  0.2665
  143SAPE  H11R15667   1.748   1.320   9.589  1.1599 -0.0651 -0.7566
  143SAPE  C21215668   1.781   1.430   9.410 -0.1660  0.2014  0.1651
  143SAPE  H12R15669   1.843   1.349   9.368  1.4811  1.8335 -0.6613
  143SAPE  C21315670   1.778   1.548   9.320  0.3783 -1.1871 -0.4653
  143SAPE  H13R15671   1.721   1.626   9.375 -0.0324 -2.5054  1.0400
  143SAPE  H13S15672   1.709   1.528   9.234 -0.7802  1.8221 -0.3753
  143SAPE  C21415673   1.918   1.577   9.274  0.1667  0.4792  0.1584
  143SAPE  H14R15674   1.982   1.636   9.341 -0.2657  1.0034  0.1187
  143SAPE  C21515675   1.959   1.561   9.148 -0.3046 -0.3664  0.1162
  143SAPE  H15R15676   2.062   1.593   9.125 -0.1361 -0.6269  0.5016
  143SAPE  C21615677   1.885   1.512   9.029 -0.4071  0.5917  0.5578
  143SAPE  H16R15678   1.788   1.566   9.019 -1.2899 -0.5566  2.3198
  143SAPE  H16S15679   1.870   1.402   9.036  1.1239  0.4130  1.3254
  143SAPE  C21715680   1.960   1.527   8.891  0.0668 -0.7353  0.1909
  143SAPE  H17R15681   2.048   1.459   8.898  0.4090 -0.6717 -2.5578
  143SAPE  H17S15682   1.997   1.631   8.887 -1.3207 -0.2196  0.1897
  143SAPE  C21815683   1.882   1.499   8.760 -0.3596 -0.4785 -0.3548
  143SAPE  H18R15684   1.806   1.573   8.726  0.6869  0.6421 -0.3203
  143SAPE  H18S15685   1.838   1.398   8.770 -2.6097  0.1426 -2.7760
  143SAPE  C21915686   1.976   1.509   8.645  0.1909 -0.0209 -0.6154
  143SAPE  H19R15687   2.038   1.417   8.657 -1.0477 -0.5724  2.1117
  143SAPE  H19S15688   2.045   1.596   8.653 -2.4873  2.0931  1.3907
  143SAPE  C22015689   1.897   1.523   8.512  0.0061 -0.5618  0.5296
  143SAPE  H20R15690   1.819   1.446   8.497  0.1421 -0.8789  1.3987
  143SAPE  H20S15691   1.952   1.516   8.415 -0.1103 -1.3379  0.5159
  143SAPE  H20T15692   1.857   1.627   8.512  1.5164  0.2524  5.2744
  143SAPE   C3315693   1.026   1.413   9.942  0.5933  0.2188 -0.2482
  143SAPE   H3X15694   0.932   1.374   9.897 -0.4371  1.5385  0.6824
  143SAPE   H3Y15695   1.115   1.349   9.923 -0.4431 -1.9908  1.8294
  143SAPE   C3415696   1.041   1.548   9.867 -0.9108  1.2756  0.0485
  143SAPE   H4X15697   1.122   1.603   9.919  0.6196 -1.7834  1.1798
  143SAPE   H4Y15698   0.945   1.599   9.890 -0.8631  0.3654  2.6439
  143SAPE   C3515699   1.073   1.546   9.717  0.0308 -0.0484  0.4194
  143SAPE   H5X15700   0.995   1.487   9.664  0.1132 -0.4034  0.6866
  143SAPE   H5Y15701   1.174   1.501   9.704  0.1567  0.2031  0.5204
  143SAPE   C3615702   1.075   1.681   9.657 -0.4129 -0.3087  0.1693
  143SAPE   H6X15703   1.162   1.740   9.691  0.2916 -1.9024  1.2691
  143SAPE   H6Y15704   0.990   1.740   9.699  0.3723  0.0086  1.3765
  143SAPE   C3715705   1.086   1.675   9.505 -0.3201 -0.5899  0.3658
  143SAPE   H7X15706   1.076   1.773   9.453 -1.6601 -1.4220 -1.0317
  143SAPE   H7Y15707   0.999   1.623   9.460  0.0764  0.1795 -1.3748
  143SAPE   C3815708   1.213   1.606   9.453  0.1371  0.3148 -0.0815
  143SAPE   H8X15709   1.238   1.516   9.513 -1.7330 -0.8305 -0.9309
  143SAPE   H8Y15710   1.301   1.673   9.445 -0.8343  1.6407  0.1299
  143SAPE   C3915711   1.205   1.542   9.307 -0.0630  0.5979  0.1408
  143SAPE   H9X15712   1.110   1.484   9.298 -0.6858  1.7137 -0.6972
  143SAPE   H9Y15713   1.294   1.476   9.310 -0.6577 -0.3509 -1.7942
  143SAPE  C31015714   1.201   1.647   9.198  0.2162 -0.0052 -0.8066
  143SAPE  H10X15715   1.299   1.698   9.185  1.1280 -1.1004  1.2552
  143SAPE  H10Y15716   1.128   1.728   9.218 -2.5620 -2.4665 -0.1541
  143SAPE  C31115717   1.167   1.578   9.064  0.4644 -0.1089 -0.6649
  143SAPE  H11X15718   1.170   1.651   8.980 -2.4331  1.3384  0.3594
  143SAPE  H11Y15719   1.063   1.540   9.077 -0.3380  2.0577 -0.3146
  143SAPE  C31215720   1.265   1.469   9.020 -0.2791  0.1559 -0.5568
  143SAPE  H12X15721   1.225   1.379   9.071 -0.2350  0.5266  0.1538
  143SAPE  H12Y15722   1.365   1.494   9.060 -0.6325 -0.3799  0.7246
  143SAPE  C31315723   1.259   1.436   8.874 -0.2121  0.0051  0.0795
  143SAPE  H13X15724   1.239   1.519   8.803 -0.4782  0.4411  0.6532
  143SAPE  H13Y15725   1.181   1.359   8.857 -0.2758  0.3044 -1.0511
  143SAPE  C31415726   1.388   1.371   8.832 -0.1975 -0.7022 -0.8692
  143SAPE  H14X15727   1.422   1.295   8.906 -5.0382 -1.0044  1.4273
  143SAPE  H14Y15728   1.456   1.458   8.815 -2.7038  1.1098 -2.2384
  143SAPE  C31515729   1.381   1.309   8.685 -0.1142  0.4630 -0.0548
  143SAPE  H15X15730   1.337   1.378   8.610 -0.4430 -1.3977 -1.6516
  143SAPE  H15Y15731   1.318   1.218   8.694 -0.2224  0.4413 -0.9150
  143SAPE  C31615732   1.521   1.263   8.634  0.2698  0.2637  0.5341
  143SAPE  H16X15733   1.566   1.185   8.700  1.5961 -0.6870 -1.3830
  143SAPE  H16Y15734   1.597   1.344   8.640  1.0420 -0.3790 -0.2312
  143SAPE  C31715735   1.516   1.195   8.496 -0.1681 -0.0726  0.0414
  143SAPE  H17X15736   1.456   1.261   8.430 -0.9550  0.3420  1.1541
  143SAPE  H17Y15737   1.473   1.092   8.498 -1.2898  0.3118 -1.6612
  143SAPE  C31815738   1.652   1.164   8.438  0.5135 -0.1859  0.0499
  143SAPE  H18X15739   1.727   1.245   8.447 -0.1943  0.5958 -0.8599
  143SAPE  H18Y15740   1.643   1.132   8.332  2.0678 -0.1903 -0.1074
  143SAPE  H18Z15741   1.703   1.078   8.487  1.0636 -1.6259 -2.7857
  144SAPE     N15742   4.489   2.558  10.775 -0.7520  0.3101  0.2391
  144SAPE   HN115743   4.573   2.513  10.817 -1.3228 -1.1918 -0.1917
  144SAPE   HN215744   4.407   2.500  10.799 -1.4992  0.8001 -1.0538
  144SAPE   HN315745   4.493   2.544  10.672  0.5364  2.7375 -0.1234
  144SAPE   C1215746   4.471   2.703  10.815  0.6246 -1.0792 -0.1491
  144SAPE  H12A15747   4.503   2.717  10.921  1.2007  1.1428 -0.5679
  144SAPE  H12B15748   4.367   2.740  10.816  1.0368  0.2864 -2.4714
  144SAPE   C1115749   4.544   2.795  10.724 -0.0944  0.0698  0.7284
  144SAPE  H11A15750   4.511   2.900  10.743 -0.1093 -0.0373  1.3179
  144SAPE  H11B15751   4.516   2.766  10.621 -0.8420  0.4748  0.8101
  144SAPE     P15752   4.789   2.831  10.638 -0.1835 -0.0663  0.0996
  144SAPE   O1315753   4.865   2.932  10.706 -0.4651  0.0117  0.0274
  144SAPE   O1415754   4.867   2.710  10.601 -0.2556  0.1317  0.2941
  144SAPE   O1215755   4.683   2.771  10.739  0.2331 -0.6216 -0.4100
  144SAPE   O1115756   4.710   2.891  10.512 -0.2167 -0.8593  0.1924
  144SAPE    C115757   4.651   2.816  10.409  0.1457 -0.5512 -0.7394
  144SAPE    HA15758   4.641   2.709  10.436 -2.4855 -0.4269 -0.9820
  144SAPE    HB15759   4.548   2.853  10.391 -0.1077 -0.1338  1.3629
  144SAPE    C215760   4.737   2.825  10.280  0.5024 -0.0822 -1.3247
  144SAPE    HS15761   4.740   2.930  10.246 -0.1407  0.1487 -0.6897
  144SAPE   O2115762   4.673   2.748  10.176  0.0541  0.2036  0.2303
  144SAPE   C2115763   4.568   2.809  10.114 -0.3441 -0.7447  0.4700
  144SAPE   O2215764   4.530   2.924  10.140 -0.8890 -0.4474 -0.0043
  144SAPE   C2215765   4.503   2.733   9.996 -0.2290 -0.3232 -0.1675
  144SAPE   H2R15766   4.574   2.650   9.976  0.9372  0.2256  1.5309
  144SAPE   H2S15767   4.403   2.686  10.014 -0.4684 -1.0099 -2.7714
  144SAPE    C315768   4.880   2.764  10.301 -0.8120  0.0524 -0.0164
  144SAPE    HX15769   4.857   2.663  10.341 -1.5204  0.0083 -0.5243
  144SAPE    HY15770   4.931   2.828  10.377  0.2969 -1.9542  1.0248
  144SAPE   O3115771   4.951   2.765  10.175 -0.3278  0.7198  0.2608
  144SAPE   C3115772   5.034   2.661  10.153  0.2629 -0.0742  0.1590
  144SAPE   O3215773   5.078   2.587  10.233  0.5488 -0.0133 -0.4317
  144SAPE   C3215774   5.055   2.648  10.006  0.1017 -0.1877 -0.4345
  144SAPE   H2X15775   4.950   2.651   9.968 -0.5212 -1.5581  1.0674
  144SAPE   H2Y15776   5.094   2.547   9.983 -1.6127 -0.5712 -1.9407
  144SAPE   C2315777   4.491   2.814   9.865  0.8883  0.3490  0.0166
  144SAPE   H3R15778   4.418   2.896   9.883  0.5031  0.1517 -0.6012
  144SAPE   H3S15779   4.442   2.746   9.792 -0.1600  1.0535  0.0513
  144SAPE   C2415780   4.622   2.867   9.809 -0.3130  0.5485  0.1477
  144SAPE   H4R15781   4.675   2.913   9.895  0.8389 -3.3445  1.7753
  144SAPE   H4S15782   4.594   2.939   9.729 -0.4233  1.9017  1.3656
  144SAPE   C2515783   4.715   2.758   9.753  0.4042  0.6615 -0.1050
  144SAPE   H5R15784   4.783   2.711   9.825  0.8541 -0.1427 -1.0286
  144SAPE   C2615785   4.724   2.708   9.630  0.0878 -0.7353 -0.1134
  144SAPE   H6R15786   4.798   2.630   9.611  0.9386  0.0938 -0.2436
  144SAPE   C2715787   4.644   2.758   9.504  0.1862  0.2409 -0.0651
  144SAPE   H7R15788   4.542   2.787   9.534  0.3146 -1.6249  2.5316
  144SAPE   H7S15789   4.631   2.669   9.439  0.6117 -0.8865  1.3498
  144SAPE   C2815790   4.712   2.876   9.440  0.0407  0.1735 -0.0670
  144SAPE   H8R15791   4.762   2.951   9.504  0.5771 -0.9769  0.8959
  144SAPE   C2915792   4.722   2.901   9.305  0.5169  0.1155 -0.4703
  144SAPE   H9R15793   4.773   2.994   9.273 -1.2127  1.2749 -0.0180
  144SAPE  C21015794   4.661   2.823   9.194 -0.8102  0.0314 -0.5223
  144SAPE  H10R15795   4.555   2.803   9.219 -0.3339  0.5851  2.2658
  144SAPE  H10S15796   4.712   2.725   9.181 -0.5576  0.3804 -2.3366
  144SAPE  C21115797   4.671   2.889   9.058 -0.1068  0.2636 -0.3186
  144SAPE  H11R15798   4.767   2.933   9.027 -0.2850  1.3267  0.5951
  144SAPE  C21215799   4.581   2.895   8.960  0.0134 -0.7728 -0.0806
  144SAPE  H12R15800   4.594   2.959   8.872  2.4988  0.4250  1.0639
  144SAPE  C21315801   4.441   2.842   8.963 -0.0133 -0.1144  0.0232
  144SAPE  H13R15802   4.416   2.792   9.059  0.5614 -1.5260 -0.5286
  144SAPE  H13S15803   4.424   2.763   8.887 -1.0249 -1.1943  1.3228
  144SAPE  C21415804   4.341   2.957   8.951  0.1730 -0.0141 -0.1293
  144SAPE  H14R15805   4.307   3.004   9.044 -0.3775 -2.4520  0.9806
  144SAPE  C21515806   4.310   3.001   8.823 -0.0915 -0.3592  0.1151
  144SAPE  H15R15807   4.238   3.083   8.814  0.9980  0.4439 -1.6703
  144SAPE  C21615808   4.355   2.958   8.685 -0.0309  0.5523 -0.0334
  144SAPE  H16R15809   4.264   2.936   8.625 -1.0477  2.3941  0.7714
  144SAPE  H16S15810   4.416   2.865   8.683  0.8935  1.1375 -1.4745
  144SAPE  C21715811   4.452   3.068   8.622  0.4822  0.2726  0.0845
  144SAPE  H17R15812   4.508   3.032   8.533  0.0200 -1.2248  0.3627
  144SAPE  H17S15813   4.523   3.090   8.705  3.6453 -1.3730 -1.9832
  144SAPE  C21815814   4.372   3.190   8.569 -0.9728  0.1197 -0.3475
  144SAPE  H18R15815   4.313   3.235   8.653 -1.8739  0.2917 -1.0631
  144SAPE  H18S15816   4.308   3.159   8.484 -0.6045  1.0416 -0.9784
  144SAPE  C21915817   4.460   3.309   8.522  0.5048 -0.0169  0.3115
  144SAPE  H19R15818   4.382   3.376   8.483 -0.1936 -1.0561 -0.1283
  144SAPE  H19S15819   4.531   3.283   8.441  0.1677  0.5619 -0.1786
  144SAPE  C22015820   4.534   3.380   8.633 -0.0965 -0.7747 -0.1436
  144SAPE  H20R15821   4.621   3.442   8.601  0.5153 -0.9372  1.1296
  144SAPE  H20S15822   4.573   3.299   8.699 -0.7247 -1.7348 -0.9352
  144SAPE  H20T15823   4.465   3.436   8.700 -1.0327 -1.6343 -0.3687
  144SAPE   C3315824   5.139   2.758   9.933  0.0953 -0.8389  0.0296
  144SAPE   H3X15825   5.245   2.728   9.946  0.5135 -0.2213 -1.7655
  144SAPE   H3Y15826   5.129   2.860   9.976  0.8128  0.6135 -2.9997
  144SAPE   C3415827   5.106   2.757   9.780  0.3038 -0.0833  0.3339
  144SAPE   H4X15828   5.007   2.806   9.773  1.0846  1.6379  0.7115
  144SAPE   H4Y15829   5.097   2.654   9.740 -2.6436 -0.1730  1.0292
  144SAPE   C3515830   5.192   2.844   9.689 -0.7218  0.3067  0.1522
  144SAPE   H5X15831   5.297   2.809   9.696 -0.0717  2.2752  1.0693
  144SAPE   H5Y15832   5.199   2.945   9.736 -1.2242  0.4200 -0.0142
  144SAPE   C3615833   5.165   2.847   9.543 -0.4322  0.5432  0.2712
  144SAPE   H6X15834   5.221   2.927   9.491 -0.3455  0.6106  0.4640
  144SAPE   H6Y15835   5.056   2.860   9.524 -0.2549 -0.0114 -1.2132
  144SAPE   C3715836   5.184   2.711   9.476  0.2479 -0.2702 -0.9110
  144SAPE   H7X15837   5.124   2.627   9.517 -0.2421 -0.1071 -1.2834
  144SAPE   H7Y15838   5.292   2.686   9.480  0.1622 -0.4931  0.5796
  144SAPE   C3815839   5.138   2.720   9.332 -0.0085  0.1047  0.1272
  144SAPE   H8X15840   5.027   2.729   9.332  0.0113  0.4443  1.0371
  144SAPE   H8Y15841   5.162   2.621   9.287 -3.6831 -1.9253  2.1267
  144SAPE   C3915842   5.198   2.836   9.247  0.4414  0.2707 -0.3243
  144SAPE   H9X15843   5.291   2.881   9.288  0.1755  1.2828 -0.8135
  144SAPE   H9Y15844   5.122   2.916   9.240 -2.2747 -2.2199 -1.4513
  144SAPE  C31015845   5.232   2.795   9.105 -0.0032 -0.3054 -1.0276
  144SAPE  H10X15846   5.284   2.697   9.104 -0.0148 -0.3498  0.2457
  144SAPE  H10Y15847   5.301   2.875   9.071  0.4341  0.0672  0.6295
  144SAPE  C31115848   5.112   2.775   9.007  0.7029 -0.3651  0.2353
  144SAPE  H11X15849   5.049   2.864   8.984  0.4711 -0.7219 -0.5266
  144SAPE  H11Y15850   5.041   2.697   9.042  0.3287  0.8460  2.3543
  144SAPE  C31215851   5.164   2.730   8.870 -0.4364  0.7791  0.7446
  144SAPE  H12X15852   5.075   2.696   8.813  0.1407 -0.9589  0.7988
  144SAPE  H12Y15853   5.231   2.641   8.882 -1.6238 -0.0376  1.5734
  144SAPE  C31315854   5.236   2.838   8.793 -0.2176  0.7410  0.2264
  144SAPE  H13X15855   5.315   2.892   8.849 -1.9391  1.9785  1.5565
  144SAPE  H13Y15856   5.150   2.904   8.770 -1.4908 -0.1466  2.1624
  144SAPE  C31415857   5.296   2.794   8.660 -0.6278  0.1044 -0.5088
  144SAPE  H14X15858   5.329   2.885   8.607  0.7031  1.0099  1.7279
  144SAPE  H14Y15859   5.221   2.732   8.607 -1.4190 -1.1161  1.8845
  144SAPE  C31515860   5.425   2.710   8.676 -0.1864 -0.2272 -0.0103
  144SAPE  H15X15861   5.400   2.631   8.750  1.6375 -1.7659 -0.9504
  144SAPE  H15Y15862   5.506   2.766   8.727 -1.8907  0.6939  1.8538
  144SAPE  C31615863   5.478   2.653   8.547  0.1969  0.1596 -0.4549
  144SAPE  H16X15864   5.419   2.564   8.518 -0.4519 -0.3842  2.2034
  144SAPE  H16Y15865   5.573   2.606   8.578  0.2345  1.5699  1.8242
  144SAPE  C31715866   5.515   2.754   8.444  0.8344 -0.9202 -0.3282
  144SAPE  H17X15867   5.417   2.803   8.427  0.2234 -1.0080  2.5583
  144SAPE  H17Y15868   5.552   2.708   8.350 -0.6632  0.4251 -1.6325
  144SAPE  C31815869   5.599   2.875   8.490 -0.0965 -0.7601 -0.1563
  144SAPE  H18X15870   5.632   2.932   8.400  0.0745 -1.9258 -0.8558
  144SAPE  H18Y15871   5.685   2.841   8.552  0.1922 -0.3764 -0.3339
  144SAPE  H18Z15872   5.529   2.942   8.543  0.8013  0.2699 -0.2262
  145SAPE     N15873   2.979   1.916  11.158 -0.0053 -0.6832 -0.5596
  145SAPE   HN115874   3.078   1.931  11.131  0.1710 -3.1794 -1.5458
  145SAPE   HN215875   2.970   1.911  11.261  2.2451  2.5118 -0.0778
  145SAPE   HN315876   2.940   1.828  11.119 -0.1061 -0.1077 -1.8034
  145SAPE   C1215877   2.891   2.034  11.106 -0.2477 -1.1884  0.0957
  145SAPE  H12A15878   2.789   2.024  11.149  1.1874 -0.0346  4.2049
  145SAPE  H12B15879   2.891   2.021  10.996  1.2270 -0.9892  0.0529
  145SAPE   C1115880   2.951   2.171  11.155 -0.3032  0.4410  0.0658
  145SAPE  H11A15881   2.942   2.186  11.264  3.6065 -1.7442  0.8645
  145SAPE  H11B15882   2.887   2.252  11.114 -2.4652 -0.7788  0.8220
  145SAPE     P15883   3.146   2.314  11.096 -0.2973 -0.4372 -0.0703
  145SAPE   O1315884   3.104   2.407  11.206 -0.0503  0.0947 -0.2262
  145SAPE   O1415885   3.290   2.304  11.089 -0.3680  0.5982 -0.2456
  145SAPE   O1215886   3.091   2.162  11.113  0.2568 -0.7206 -0.2696
  145SAPE   O1115887   3.081   2.358  10.957  0.1653  0.6643 -0.1486
  145SAPE    C115888   3.099   2.290  10.838 -0.6487  0.6010  0.4737
  145SAPE    HA15889   3.173   2.208  10.847  0.3165  1.4095  0.1388
  145SAPE    HB15890   3.004   2.242  10.805  0.3395 -1.4745  0.5186
  145SAPE    C215891   3.162   2.382  10.727  0.0949  0.4127 -0.1494
  145SAPE    HS15892   3.096   2.468  10.702 -1.6830 -0.4560  1.3246
  145SAPE   O2115893   3.169   2.304  10.607 -0.3655  0.8242  0.0019
  145SAPE   C2115894   3.059   2.279  10.540 -0.2358  0.6914 -0.4409
  145SAPE   O2215895   2.957   2.339  10.564  0.5217  0.3046  0.3356
  145SAPE   C2215896   3.088   2.179  10.435  0.0812 -0.1638 -0.4722
  145SAPE   H2R15897   3.195   2.149  10.434  0.0635 -0.2293 -0.3591
  145SAPE   H2S15898   3.043   2.078  10.446 -1.5609  0.5629 -0.2483
  145SAPE    C315899   3.300   2.428  10.761 -0.7575 -0.4003  0.2018
  145SAPE    HX15900   3.349   2.342  10.811  0.4766  0.8718  1.2592
  145SAPE    HY15901   3.285   2.503  10.842  2.1901  1.6377 -0.9849
  145SAPE   O3115902   3.363   2.492  10.651 -0.0913  0.2320 -0.6150
  145SAPE   C3115903   3.439   2.415  10.575 -0.8428 -0.0109  0.1877
  145SAPE   O3215904   3.466   2.297  10.594  0.5521  0.3871 -0.4258
  145SAPE   C3215905   3.490   2.500  10.459 -0.3100 -0.2457  0.0372
  145SAPE   H2X15906   3.597   2.474  10.446  0.2163  1.3666  0.9608
  145SAPE   H2Y15907   3.485   2.602  10.501  1.7784 -0.2390  0.3613
  145SAPE   C2315908   3.061   2.233  10.296  0.2885  0.6471 -0.0810
  145SAPE   H3R15909   3.122   2.324  10.276 -1.5665  2.6676  2.6234
  145SAPE   H3S15910   2.954   2.263  10.294  1.2448  4.6380 -1.4779
  145SAPE   C2415911   3.092   2.129  10.192  0.7948 -0.3083  0.1735
  145SAPE   H4R15912   3.028   2.139  10.102  1.0832 -0.5014 -0.0541
  145SAPE   H4S15913   3.057   2.032  10.233 -3.0526  1.1378  0.6974
  145SAPE   C2515914   3.237   2.133  10.160 -0.0921 -0.5408  1.5064
  145SAPE   H5R15915   3.312   2.085  10.225  1.6729 -1.2126 -0.8808
  145SAPE   C2615916   3.290   2.214  10.059  0.3991  0.6302  0.0852
  145SAPE   H6R15917   3.395   2.207  10.028  0.3753  2.8155 -0.6567
  145SAPE   C2715918   3.200   2.285   9.958 -0.2413  0.6954  0.0099
  145SAPE   H7R15919   3.093   2.294   9.986 -0.5435 -1.5753 -0.2560
  145SAPE   H7S15920   3.191   2.206   9.882 -0.4283 -0.4769  1.2132
  145SAPE   C2815921   3.262   2.409   9.901 -0.2077 -0.0234  0.0111
  145SAPE   H8R15922   3.326   2.465   9.970 -0.9825  0.4653  0.3502
  145SAPE   C2915923   3.258   2.451   9.774 -0.5178 -0.2431  0.6006
  145SAPE   H9R15924   3.319   2.541   9.759 -0.6816 -0.4575 -1.8071
  145SAPE  C21015925   3.190   2.387   9.651 -0.6797 -0.0003  0.8398
  145SAPE  H10R15926   3.084   2.369   9.676 -1.6922  0.2055 -2.8056
  145SAPE  H10S15927   3.235   2.288   9.628  0.3647  0.1772  1.9708
  145SAPE  C21115928   3.200   2.483   9.540  0.3214 -0.2203  0.0818
  145SAPE  H11R15929   3.167   2.584   9.567  0.0711  0.0358 -1.1253
  145SAPE  C21215930   3.227   2.460   9.408  0.0273 -0.5947  0.3363
  145SAPE  H12R15931   3.223   2.544   9.337  0.8014 -2.1133 -1.6068
  145SAPE  C21315932   3.263   2.335   9.334  0.0429  0.5315  0.2234
  145SAPE  H13R15933   3.168   2.278   9.334  0.1704  0.3088 -0.9298
  145SAPE  H13S15934   3.348   2.289   9.389 -0.7248  1.1001  1.9810
  145SAPE  C21415935   3.305   2.360   9.194 -0.3451  1.3532  0.1321
  145SAPE  H14R15936   3.250   2.441   9.144 -0.7142  0.1706 -1.4736
  145SAPE  C21515937   3.397   2.292   9.120 -0.5034 -0.3309 -0.0257
  145SAPE  H15R15938   3.416   2.337   9.021 -2.4693 -1.8788 -1.1875
  145SAPE  C21615939   3.484   2.179   9.168  0.1435 -0.7799 -0.5265
  145SAPE  H16R15940   3.496   2.186   9.278 -2.8548 -0.9492 -0.1097
  145SAPE  H16S15941   3.587   2.184   9.127  0.7791 -1.1386  0.9554
  145SAPE  C21715942   3.425   2.039   9.134  0.4676  1.0354 -0.5427
  145SAPE  H17R15943   3.328   2.041   9.188  0.9476  2.4181  0.3482
  145SAPE  H17S15944   3.503   1.969   9.170 -0.7605  0.6586  1.5872
  145SAPE  C21815945   3.391   2.013   8.985  0.9177  0.6284 -1.1730
  145SAPE  H18R15946   3.485   2.025   8.927  1.0555  1.0291 -0.8749
  145SAPE  H18S15947   3.316   2.082   8.942  0.1292 -0.5976 -1.8189
  145SAPE  C21915948   3.328   1.875   8.952  0.8597 -0.7958 -0.0935
  145SAPE  H19R15949   3.238   1.861   9.015 -0.9599 -2.5482 -2.8690
  145SAPE  H19S15950   3.401   1.796   8.981  2.5286  1.3149  1.7874
  145SAPE  C22015951   3.280   1.864   8.803  0.2902 -0.4738 -0.0609
  145SAPE  H20R15952   3.261   1.758   8.775 -0.1420 -0.0408 -1.4977
  145SAPE  H20S15953   3.368   1.890   8.740 -0.4043 -2.4634 -2.0005
  145SAPE  H20T15954   3.196   1.930   8.772  1.2469  2.3153  2.7094
  145SAPE   C3315955   3.416   2.487  10.323  0.4483 -0.4690  0.4435
  145SAPE   H3X15956   3.307   2.497  10.344  0.3952 -1.2255  0.5686
  145SAPE   H3Y15957   3.428   2.392  10.267 -0.3087  0.3652 -1.2201
  145SAPE   C3415958   3.437   2.602  10.219 -0.3418 -0.6860 -0.7158
  145SAPE   H4X15959   3.453   2.701  10.269 -0.1288 -0.2826 -1.5718
  145SAPE   H4Y15960   3.350   2.620  10.152  0.1274  1.7110 -0.7855
  145SAPE   C3515961   3.564   2.581  10.128  0.1027 -1.2303 -0.4241
  145SAPE   H5X15962   3.547   2.481  10.082 -0.6832 -0.3640 -2.1241
  145SAPE   H5Y15963   3.656   2.572  10.189  0.4259  0.5494 -0.6043
  145SAPE   C3615964   3.572   2.693  10.024  0.3155 -0.0673  0.0980
  145SAPE   H6X15965   3.586   2.790  10.077  0.6800 -0.6904  1.1902
  145SAPE   H6Y15966   3.478   2.697   9.967  1.0954 -3.1294 -1.6234
  145SAPE   C3715967   3.690   2.665   9.929 -0.4836 -0.6195  0.5055
  145SAPE   H7X15968   3.774   2.633   9.995 -0.1991 -0.9042  0.0147
  145SAPE   H7Y15969   3.715   2.761   9.878  2.1592 -1.6922 -0.4377
  145SAPE   C3815970   3.663   2.555   9.828 -0.2679  0.0173  0.1386
  145SAPE   H8X15971   3.599   2.476   9.873  0.8749 -1.3284 -0.5000
  145SAPE   H8Y15972   3.760   2.506   9.805  1.7680  3.4488  0.7845
  145SAPE   C3915973   3.607   2.607   9.687  0.1053 -0.0363 -0.5681
  145SAPE   H9X15974   3.560   2.707   9.691  1.5937  0.6577  0.7638
  145SAPE   H9Y15975   3.527   2.535   9.660 -2.0276  1.4877  1.3149
  145SAPE  C31015976   3.706   2.616   9.567  0.9065  0.4177 -0.2357
  145SAPE  H10X15977   3.772   2.527   9.575  0.8424  0.3468 -0.4902
  145SAPE  H10Y15978   3.765   2.710   9.578 -0.1571  0.9500  1.3643
  145SAPE  C31115979   3.616   2.620   9.445 -1.1363 -0.6307  0.5445
  145SAPE  H11X15980   3.556   2.713   9.451 -0.6830 -0.3719  1.1170
  145SAPE  H11Y15981   3.549   2.532   9.459 -1.3613 -0.1966  2.4529
  145SAPE  C31215982   3.698   2.616   9.315 -0.5020 -0.6070 -0.4745
  145SAPE  H12X15983   3.753   2.521   9.332  1.2826  0.5422  0.6031
  145SAPE  H12Y15984   3.779   2.692   9.325  0.9740 -2.1138 -0.5174
  145SAPE  C31315985   3.620   2.618   9.183 -0.4483  0.0790 -0.2422
  145SAPE  H13X15986   3.538   2.543   9.184  0.4698 -0.9575  0.0154
  145SAPE  H13Y15987   3.682   2.591   9.094 -1.3583 -1.4566 -0.4519
  145SAPE  C31415988   3.579   2.762   9.139  0.1279 -0.0442 -0.0954
  145SAPE  H14X15989   3.656   2.835   9.171  0.5793 -0.3156 -0.5411
  145SAPE  H14Y15990   3.478   2.788   9.176 -0.6925  0.7689 -2.7285
  145SAPE  C31515991   3.567   2.761   8.982 -0.8987 -0.4573 -0.2034
  145SAPE  H15X15992   3.513   2.667   8.958  1.4287 -1.3863 -2.3388
  145SAPE  H15Y15993   3.665   2.744   8.932  0.0388  0.2082  1.3269
  145SAPE  C31615994   3.498   2.885   8.936  0.4018  0.2393  0.0088
  145SAPE  H16X15995   3.527   2.971   9.001  1.4977 -0.6782  0.7515
  145SAPE  H16Y15996   3.390   2.868   8.957  0.5255  1.0016  1.3222
  145SAPE  C31715997   3.511   2.930   8.788 -0.7418  0.3408 -0.6296
  145SAPE  H17X15998   3.593   3.004   8.779 -0.4093  0.1494  0.6936
  145SAPE  H17Y15999   3.420   2.985   8.756 -0.3860  1.4464  0.2124
  145SAPE  C31816000   3.512   2.810   8.690  0.3646  0.5695 -0.0166
  145SAPE  H18X16001   3.518   2.861   8.592 -0.8071  0.5478 -0.1089
  145SAPE  H18Y16002   3.420   2.751   8.710  0.5008 -0.7074 -2.7612
  145SAPE  H18Z16003   3.610   2.759   8.706  0.8918  1.7232  0.5818
  146SAPE     N16004   1.619   3.993  10.478 -0.1757 -0.8137 -0.3970
  146SAPE   HN116005   1.546   4.065  10.469 -1.2441 -1.5512  1.7337
  146SAPE   HN216006   1.692   3.998  10.404 -0.2286 -0.2788 -0.4140
  146SAPE   HN316007   1.590   3.893  10.470  0.4453 -1.0944  0.6245
  146SAPE   C1216008   1.663   4.016  10.619  1.0279  0.5808  0.4497
  146SAPE  H12A16009   1.571   4.001  10.679  0.5882 -0.0652 -0.3738
  146SAPE  H12B16010   1.680   4.126  10.625 -0.5199  0.8547  0.0085
  146SAPE   C1116011   1.768   3.920  10.667 -0.3733 -0.8397  0.2373
  146SAPE  H11A16012   1.730   3.818  10.646 -1.2563 -0.4504 -0.0874
  146SAPE  H11B16013   1.782   3.919  10.777  0.0147  2.5628  0.3282
  146SAPE     P16014   2.028   3.921  10.656  0.2395 -0.1168 -0.4872
  146SAPE   O1316015   2.041   4.020  10.765  0.6417 -0.2360  0.0321
  146SAPE   O1416016   2.057   3.780  10.689  0.6836 -0.1760  0.2056
  146SAPE   O1216017   1.889   3.924  10.592 -0.3220  0.1977  0.4736
  146SAPE   O1116018   2.134   3.955  10.546  0.3234 -0.6181 -0.0582
  146SAPE    C116019   2.087   4.045  10.448 -0.3509  0.2837  0.0456
  146SAPE    HA16020   1.985   4.018  10.413 -2.3071  0.4559  4.7962
  146SAPE    HB16021   2.072   4.148  10.485  2.0091  0.9803 -0.7281
  146SAPE    C216022   2.192   4.054  10.334 -0.4933 -0.3664 -0.0047
  146SAPE    HS16023   2.143   4.113  10.254 -0.4291  2.9593  2.2135
  146SAPE   O2116024   2.254   3.935  10.290  0.3557 -0.5963 -0.3181
  146SAPE   C2116025   2.184   3.853  10.213  0.0292  0.0467 -0.6878
  146SAPE   O2216026   2.066   3.860  10.181 -0.7904 -0.7391 -0.0215
  146SAPE   C2216027   2.266   3.729  10.199  0.5493  0.3428  0.5920
  146SAPE   H2R16028   2.370   3.760  10.225  0.0646  0.1580  2.9593
  146SAPE   H2S16029   2.232   3.659  10.278 -1.1913 -0.6858 -0.9953
  146SAPE    C316030   2.303   4.152  10.388  0.0978  0.0261  0.2983
  146SAPE    HX16031   2.344   4.098  10.476 -0.1901 -1.4087 -0.4224
  146SAPE    HY16032   2.246   4.240  10.424 -0.9858 -0.4323 -0.2772
  146SAPE   O3116033   2.393   4.183  10.273  0.6201 -0.0975  0.2486
  146SAPE   C3116034   2.522   4.134  10.271  0.4872  0.1424  0.8094
  146SAPE   O3216035   2.573   4.060  10.347  0.0371 -0.1015 -0.6620
  146SAPE   C3216036   2.590   4.194  10.151  0.5217  0.2935  0.7712
  146SAPE   H2X16037   2.673   4.250  10.199  1.8726 -1.2143  0.2879
  146SAPE   H2Y16038   2.525   4.264  10.095  0.3185 -1.4533 -1.3295
  146SAPE   C2316039   2.245   3.670  10.063  0.3264  0.0163  0.1701
  146SAPE   H3R16040   2.264   3.754   9.994 -3.1038  1.8831  1.2596
  146SAPE   H3S16041   2.141   3.641  10.037 -0.0097  2.4072 -1.4340
  146SAPE   C2416042   2.365   3.568  10.032  0.3904 -0.2740  0.2538
  146SAPE   H4R16043   2.467   3.604  10.060 -0.5573  2.0196  0.9908
  146SAPE   H4S16044   2.369   3.541   9.924 -0.7398  1.5928 -0.3047
  146SAPE   C2516045   2.338   3.443  10.116  0.0697 -0.7766 -0.2374
  146SAPE   H5R16046   2.338   3.457  10.225  1.0771  0.2049 -0.3403
  146SAPE   C2616047   2.308   3.322  10.065  0.2613 -0.0372 -0.0151
  146SAPE   H6R16048   2.286   3.237  10.131  0.0986 -2.0691 -2.5617
  146SAPE   C2716049   2.311   3.290   9.911  0.1742  0.6804 -0.3088
  146SAPE   H7R16050   2.319   3.180   9.902 -1.3761  0.3932  1.1665
  146SAPE   H7S16051   2.410   3.319   9.869  0.2639 -1.4673 -1.7281
  146SAPE   C2816052   2.194   3.339   9.831 -0.2352  0.0536  0.7091
  146SAPE   H8R16053   2.107   3.373   9.890 -0.9072  0.3446 -0.3903
  146SAPE   C2916054   2.180   3.314   9.692 -0.5441 -0.0678  0.0092
  146SAPE   H9R16055   2.097   3.357   9.634  1.2980  0.1112 -2.7040
  146SAPE  C21016056   2.279   3.245   9.606 -0.0230  0.7412 -0.4330
  146SAPE  H10R16057   2.226   3.148   9.591  1.0867  0.2469 -1.3794
  146SAPE  H10S16058   2.379   3.220   9.649 -0.7459 -0.5799  0.5570
  146SAPE  C21116059   2.292   3.309   9.473 -0.3072 -1.2691 -0.1536
  146SAPE  H11R16060   2.354   3.400   9.480 -2.2399  0.0844  0.2250
  146SAPE  C21216061   2.253   3.263   9.357  0.4979  0.5731  0.5348
  146SAPE  H12R16062   2.252   3.331   9.270  0.3687 -0.1002  0.0026
  146SAPE  C21316063   2.177   3.137   9.328 -0.2471  0.1150 -0.2652
  146SAPE  H13R16064   2.143   3.097   9.427  0.7250  0.0129  0.0338
  146SAPE  H13S16065   2.233   3.048   9.295 -1.3052 -0.2870 -1.0400
  146SAPE  C21416066   2.061   3.159   9.238  1.0374 -0.0961 -0.0114
  146SAPE  H14R16067   1.993   3.240   9.271 -0.8002 -1.5763 -0.0036
  146SAPE  C21516068   2.044   3.098   9.118 -0.4322  0.9338 -1.2640
  146SAPE  H15R16069   1.965   3.129   9.047 -0.2505  2.2644 -0.8999
  146SAPE  C21616070   2.138   2.991   9.056  0.6745  0.2228  0.7962
  146SAPE  H16R16071   2.065   2.932   8.998  0.6535  1.6221 -0.6565
  146SAPE  H16S16072   2.171   2.915   9.131 -1.8647 -0.0314  1.7311
  146SAPE  C21716073   2.263   3.030   8.975  0.7076  0.1912 -0.5967
  146SAPE  H17R16074   2.299   2.942   8.917  0.4578 -1.0568  1.0718
  146SAPE  H17S16075   2.341   3.054   9.050  1.7810 -0.7210 -1.3820
  146SAPE  C21816076   2.244   3.147   8.874 -0.0645  0.0533 -0.3051
  146SAPE  H18R16077   2.240   3.244   8.928 -1.4082  0.1522 -0.5547
  146SAPE  H18S16078   2.140   3.139   8.835 -1.6025 -1.7586  3.6367
  146SAPE  C21916079   2.340   3.155   8.756  0.3686  0.4077  0.2350
  146SAPE  H19R16080   2.352   3.056   8.707  0.3992  0.9749 -0.9363
  146SAPE  H19S16081   2.442   3.167   8.799  0.6128  2.5091 -0.8021
  146SAPE  C22016082   2.318   3.263   8.648 -0.3825  0.7399 -0.4735
  146SAPE  H20R16083   2.309   3.369   8.680 -0.4406  0.1223  1.7373
  146SAPE  H20S16084   2.218   3.246   8.603 -1.8948 -2.6606  3.4784
  146SAPE  H20T16085   2.396   3.255   8.569 -1.3532  1.7645 -1.5810
  146SAPE   C3316086   2.645   4.087  10.046  0.4051  0.2897  0.0708
  146SAPE   H3X16087   2.700   4.015  10.111  0.8223  0.1516 -0.4323
  146SAPE   H3Y16088   2.701   4.128   9.960  0.0066  0.2472 -0.2128
  146SAPE   C3416089   2.534   4.004   9.976 -0.3476 -0.3956 -0.7902
  146SAPE   H4X16090   2.484   4.063   9.896  1.0445 -0.6137 -1.8615
  146SAPE   H4Y16091   2.466   3.982  10.061 -0.9476  0.0143 -1.1617
  146SAPE   C3516092   2.585   3.877   9.913  0.8123 -0.0258  1.2063
  146SAPE   H5X16093   2.501   3.810   9.887  0.6071  0.6172  0.2003
  146SAPE   H5Y16094   2.649   3.817   9.982 -0.4816 -1.6236  1.0683
  146SAPE   C3616095   2.677   3.904   9.795  0.4567  0.1415 -0.3463
  146SAPE   H6X16096   2.772   3.944   9.838  1.7812 -1.0822 -1.9723
  146SAPE   H6Y16097   2.634   3.967   9.714  1.0458 -0.6258 -1.2729
  146SAPE   C3716098   2.703   3.775   9.723 -0.2168 -0.2933  0.6686
  146SAPE   H7X16099   2.608   3.731   9.688  0.1793  0.2759 -1.2406
  146SAPE   H7Y16100   2.735   3.687   9.783 -1.5761 -1.0890  0.2630
  146SAPE   C3816101   2.805   3.783   9.599  0.2070 -0.4963 -0.3341
  146SAPE   H8X16102   2.912   3.807   9.615  0.1133 -1.2775  1.7956
  146SAPE   H8Y16103   2.765   3.854   9.523 -2.6818 -0.3528  1.1528
  146SAPE   C3916104   2.792   3.647   9.529 -0.3176 -0.3376  0.6772
  146SAPE   H9X16105   2.694   3.630   9.480 -0.2474  1.5094 -0.1832
  146SAPE   H9Y16106   2.810   3.565   9.602 -0.5280 -0.6240  0.4073
  146SAPE  C31016107   2.894   3.633   9.422 -0.0152  0.2295  0.1168
  146SAPE  H10X16108   2.993   3.631   9.472  1.1842  3.6095 -1.8454
  146SAPE  H10Y16109   2.902   3.723   9.357 -1.2907  0.7623  0.6726
  146SAPE  C31116110   2.876   3.531   9.313 -0.2387 -0.0372 -0.2192
  146SAPE  H11X16111   2.783   3.555   9.256 -1.0961 -1.8328  0.3504
  146SAPE  H11Y16112   2.847   3.436   9.364 -3.0771 -0.4051 -2.2325
  146SAPE  C31216113   2.982   3.517   9.197 -0.9441  0.2918  0.0332
  146SAPE  H12X16114   3.082   3.501   9.243 -1.7127  2.2155  2.5623
  146SAPE  H12Y16115   2.992   3.619   9.155  1.0711  0.0369 -0.2131
  146SAPE  C31316116   2.951   3.417   9.086 -0.6037  0.1689  0.5974
  146SAPE  H13X16117   2.847   3.434   9.048  0.0704  1.6257 -0.7085
  146SAPE  H13Y16118   2.961   3.318   9.135  2.5999 -0.4255 -1.0206
  146SAPE  C31416119   3.052   3.420   8.964 -0.4075  0.7575  0.4493
  146SAPE  H14X16120   3.064   3.517   8.912  0.7203  0.1455 -0.4893
  146SAPE  H14Y16121   3.007   3.347   8.894  3.1186  0.1749 -1.4458
  146SAPE  C31516122   3.198   3.370   8.989  0.0859  0.1273  0.1805
  146SAPE  H15X16123   3.185   3.270   9.036 -1.2614  0.2616  0.1368
  146SAPE  H15Y16124   3.245   3.441   9.061 -0.5582  1.1116 -0.3486
  146SAPE  C31616125   3.292   3.371   8.873  0.6651  0.3694  0.6731
  146SAPE  H16X16126   3.300   3.478   8.845 -1.3569  0.1211 -1.1154
  146SAPE  H16Y16127   3.235   3.317   8.794 -2.3456  1.3214  2.0746
  146SAPE  C31716128   3.432   3.322   8.898 -1.3814 -0.0680  0.1394
  146SAPE  H17X16129   3.432   3.211   8.909  2.2070 -0.2934 -0.7071
  146SAPE  H17Y16130   3.470   3.370   8.991 -3.1640 -0.2662  1.0069
  146SAPE  C31816131   3.505   3.360   8.761  0.7761  0.2985  0.3782
  146SAPE  H18X16132   3.615   3.347   8.754  0.7512  0.1492  0.2562
  146SAPE  H18Y16133   3.477   3.466   8.745  1.2979  0.4685  0.5795
  146SAPE  H18Z16134   3.453   3.296   8.687  1.1367  0.7101 -0.2378
  147SAPE     N16135   3.211   5.773   6.161  0.7556  0.3735 -0.0314
  147SAPE   HN116136   3.213   5.870   6.125 -0.4493 -0.1097 -1.5106
  147SAPE   HN216137   3.260   5.714   6.091  0.2842  1.5690 -1.4238
  147SAPE   HN316138   3.115   5.733   6.156 -0.0308  1.8038  2.1523
  147SAPE   C1216139   3.271   5.756   6.298 -0.0768  0.0539 -0.1993
  147SAPE  H12A16140   3.380   5.777   6.287  0.0563  0.4731  1.5482
  147SAPE  H12B16141   3.256   5.654   6.338  0.3613  0.4969  1.1493
  147SAPE   C1116142   3.217   5.863   6.395 -0.5701  0.0675  0.3914
  147SAPE  H11A16143   3.270   5.863   6.492  1.0772  0.2039 -0.4586
  147SAPE  H11B16144   3.109   5.842   6.408 -0.7475  1.1369  0.7976
  147SAPE     P16145   3.122   6.104   6.351  0.1415 -0.1156 -0.1499
  147SAPE   O1316146   3.123   6.191   6.234  0.2199  0.0965 -0.1250
  147SAPE   O1416147   2.993   6.036   6.385  0.3061 -0.2766  0.1253
  147SAPE   O1216148   3.229   5.992   6.330 -0.3985 -0.2814 -0.7004
  147SAPE   O1116149   3.168   6.181   6.482  0.1211 -0.0774  0.2497
  147SAPE    C116150   3.305   6.201   6.505  0.4606  0.3704 -1.0061
  147SAPE    HA16151   3.372   6.144   6.436  1.7097  0.1790  0.2987
  147SAPE    HB16152   3.335   6.306   6.486  4.6180 -0.3136  0.5749
  147SAPE    C216153   3.350   6.181   6.655  0.1183  0.1579  0.2019
  147SAPE    HS16154   3.333   6.075   6.682  1.7204 -0.2914 -0.4559
  147SAPE   O2116155   3.272   6.265   6.745 -0.4150 -0.5306  0.0471
  147SAPE   C2116156   3.157   6.214   6.787  0.2516  0.3184 -0.4334
  147SAPE   O2216157   3.117   6.102   6.768  0.6001 -0.3768 -0.3135
  147SAPE   C2216158   3.090   6.307   6.880  0.4314  0.1642  0.8060
  147SAPE   H2R16159   3.052   6.383   6.808  1.0926  0.0455  0.3278
  147SAPE   H2S16160   2.991   6.266   6.912 -0.2151  0.3614 -0.8350
  147SAPE    C316161   3.494   6.213   6.670 -1.2521 -0.6621 -0.4661
  147SAPE    HX16162   3.506   6.318   6.636 -2.7204 -1.0078 -2.2167
  147SAPE    HY16163   3.539   6.151   6.589 -3.4643 -0.4719 -1.9051
  147SAPE   O3116164   3.536   6.166   6.797 -0.6029  0.1789 -0.0370
  147SAPE   C3116165   3.563   6.262   6.878 -0.1558  0.2314 -0.2175
  147SAPE   O3216166   3.563   6.384   6.849  0.1659 -0.2936  0.0508
  147SAPE   C3216167   3.576   6.191   7.013 -0.1943 -0.2866 -0.0284
  147SAPE   H2X16168   3.657   6.114   7.011  0.3387  0.2223  1.0836
  147SAPE   H2Y16169   3.476   6.145   7.023  0.1292 -1.3810 -1.3246
  147SAPE   C2316170   3.182   6.358   6.986 -0.2292  0.5800 -0.4458
  147SAPE   H3R16171   3.150   6.460   7.018  0.4297  0.3798  0.9082
  147SAPE   H3S16172   3.282   6.382   6.945 -0.0416  0.5713  0.0027
  147SAPE   C2416173   3.204   6.272   7.107 -0.3551  0.1467  0.8699
  147SAPE   H4R16174   3.293   6.306   7.164 -0.4378  1.5368  0.2180
  147SAPE   H4S16175   3.242   6.172   7.078  1.4383  1.7711 -3.1242
  147SAPE   C2516176   3.076   6.267   7.185 -0.6795  0.3669 -0.0650
  147SAPE   H5R16177   2.987   6.223   7.138 -1.5173  1.3217  0.5838
  147SAPE   C2616178   3.061   6.342   7.294 -0.0437  0.4505 -0.9269
  147SAPE   H6R16179   2.973   6.336   7.360  1.0459  2.0799  0.7739
  147SAPE   C2716180   3.169   6.431   7.349 -0.4687  0.0893 -0.0750
  147SAPE   H7R16181   3.119   6.515   7.401  0.7536  0.8107 -0.0320
  147SAPE   H7S16182   3.217   6.488   7.266 -2.2378  0.7410 -0.6907
  147SAPE   C2816183   3.268   6.362   7.438 -0.2382  0.1372 -0.0741
  147SAPE   H8R16184   3.344   6.310   7.378 -0.4207 -0.5707  0.3010
  147SAPE   C2916185   3.284   6.374   7.570  0.3763  0.7581  0.5970
  147SAPE   H9R16186   3.370   6.321   7.616  0.3326  1.6714  1.7847
  147SAPE  C21016187   3.198   6.455   7.660  0.1559 -0.3274  0.9062
  147SAPE  H10R16188   3.158   6.390   7.742  1.6347 -2.8153 -0.2224
  147SAPE  H10S16189   3.113   6.491   7.599  1.9411  1.4218 -0.6828
  147SAPE  C21116190   3.282   6.553   7.729  0.2097 -0.7036 -0.6112
  147SAPE  H11R16191   3.351   6.509   7.802  1.3772 -3.0317 -2.9446
  147SAPE  C21216192   3.279   6.685   7.716 -0.6552  0.2332  0.6001
  147SAPE  H12R16193   3.342   6.756   7.771  1.8360 -1.7000  0.4540
  147SAPE  C21316194   3.185   6.756   7.630  0.0730 -0.3355 -0.1229
  147SAPE  H13R16195   3.106   6.692   7.585 -1.1685  0.9088  0.1936
  147SAPE  H13S16196   3.248   6.796   7.548 -1.3709  0.8192 -0.7081
  147SAPE  C21416197   3.112   6.871   7.694  0.6883  0.4171 -0.6058
  147SAPE  H14R16198   3.003   6.862   7.701  0.4064  2.2862 -1.8775
  147SAPE  C21516199   3.160   6.995   7.725 -0.6036 -0.5981 -0.0726
  147SAPE  H15R16200   3.084   7.068   7.756 -1.9070 -1.0562 -2.0236
  147SAPE  C21616201   3.304   7.049   7.698  0.3647  0.3103  0.3568
  147SAPE  H16R16202   3.295   7.142   7.638 -1.1156  0.9901  1.5415
  147SAPE  H16S16203   3.370   6.991   7.630 -0.1220  0.2422 -0.0614
  147SAPE  C21716204   3.384   7.069   7.834  0.1923 -0.4391  0.5638
  147SAPE  H17R16205   3.418   6.974   7.880  0.4564 -0.2881  0.6853
  147SAPE  H17S16206   3.315   7.119   7.905 -1.1484 -0.8570 -0.4044
  147SAPE  C21816207   3.500   7.164   7.808 -0.1371 -0.4877 -1.0836
  147SAPE  H18R16208   3.548   7.186   7.906 -0.1287 -2.6345 -0.5510
  147SAPE  H18S16209   3.465   7.258   7.760 -0.1404 -0.4621 -1.0311
  147SAPE  C21916210   3.620   7.096   7.737  0.6731 -0.1095 -0.2153
  147SAPE  H19R16211   3.602   6.987   7.750 -2.5207  0.5749  2.6278
  147SAPE  H19S16212   3.712   7.140   7.779  0.5724 -0.3883  0.3167
  147SAPE  C22016213   3.618   7.133   7.589 -0.2918 -0.4326 -0.6313
  147SAPE  H20R16214   3.651   7.238   7.574  0.0690 -0.6931 -1.7201
  147SAPE  H20S16215   3.516   7.139   7.545  0.0495  3.4283 -1.2525
  147SAPE  H20T16216   3.668   7.056   7.526 -1.8959 -1.6741 -0.4642
  147SAPE   C3316217   3.629   6.282   7.124  0.7940 -0.3109 -0.7885
  147SAPE   H3X16218   3.578   6.380   7.110  0.0001 -0.6672 -0.3929
  147SAPE   H3Y16219   3.739   6.285   7.108  0.9145  5.7653 -1.2115
  147SAPE   C3416220   3.609   6.213   7.262 -0.6318 -0.4768  0.7870
  147SAPE   H4X16221   3.674   6.124   7.273  2.8031  1.4319 -1.8514
  147SAPE   H4Y16222   3.503   6.184   7.270 -0.6948 -0.2060  0.9618
  147SAPE   C3516223   3.644   6.301   7.386 -0.2961  0.1946  0.3940
  147SAPE   H5X16224   3.579   6.391   7.385  0.3859  0.6910  0.6442
  147SAPE   H5Y16225   3.746   6.342   7.375  1.0992 -2.8463  0.8477
  147SAPE   C3616226   3.628   6.219   7.519  0.6033 -0.1162  0.6658
  147SAPE   H6X16227   3.672   6.117   7.520  1.0024  0.0600  1.4346
  147SAPE   H6Y16228   3.519   6.213   7.542  0.5309 -0.6507  0.1985
  147SAPE   C3716229   3.689   6.299   7.631  0.4507 -0.2113 -0.0464
  147SAPE   H7X16230   3.651   6.401   7.653  2.5936  0.2132  2.1589
  147SAPE   H7Y16231   3.800   6.304   7.631  0.4322  0.3152  0.6572
  147SAPE   C3816232   3.663   6.235   7.769  0.5151 -0.2293  0.2166
  147SAPE   H8X16233   3.713   6.136   7.766  0.9983  0.0379 -0.8119
  147SAPE   H8Y16234   3.557   6.212   7.793  1.6394 -2.9439  3.3995
  147SAPE   C3916235   3.733   6.312   7.884  0.8006 -0.3446  0.0171
  147SAPE   H9X16236   3.667   6.392   7.924 -2.1666 -1.8861 -1.4423
  147SAPE   H9Y16237   3.824   6.366   7.851  1.0692 -0.2629  0.8507
  147SAPE  C31016238   3.780   6.227   8.009 -0.3495 -0.6588 -0.8632
  147SAPE  H10X16239   3.835   6.139   7.969  1.7320 -0.4395  1.3365
  147SAPE  H10Y16240   3.696   6.188   8.071  1.9794 -2.1421  1.5609
  147SAPE  C31116241   3.869   6.317   8.097 -0.2095 -0.5675 -0.4760
  147SAPE  H11X16242   3.814   6.397   8.152 -0.2959 -2.3208  2.1495
  147SAPE  H11Y16243   3.943   6.356   8.024  0.0181  1.1362  0.5978
  147SAPE  C31216244   3.956   6.252   8.205 -0.2329 -1.2387  0.3423
  147SAPE  H12X16245   4.013   6.184   8.138 -3.7525 -1.6417 -2.5497
  147SAPE  H12Y16246   3.885   6.200   8.271  0.6297 -1.7673  0.8666
  147SAPE  C31316247   4.028   6.363   8.282  0.3249  0.7158  0.0044
  147SAPE  H13X16248   3.952   6.423   8.335 -0.4425 -0.5511  0.3888
  147SAPE  H13Y16249   4.080   6.429   8.209  0.6939 -0.6639 -1.0478
  147SAPE  C31416250   4.133   6.306   8.378 -0.0883  0.1049 -0.3710
  147SAPE  H14X16251   4.202   6.239   8.321 -0.7063 -0.9366  0.0915
  147SAPE  H14Y16252   4.066   6.256   8.451  0.0984  2.7168  1.7322
  147SAPE  C31516253   4.216   6.402   8.458  0.4287 -0.4913  0.1381
  147SAPE  H15X16254   4.273   6.458   8.380 -2.3733 -0.0991 -1.7523
  147SAPE  H15Y16255   4.295   6.345   8.512  0.9179 -1.8085 -1.8249
  147SAPE  C31616256   4.132   6.496   8.552  0.5155 -0.0735  0.3836
  147SAPE  H16X16257   4.112   6.441   8.647  2.1107 -0.9405  0.2422
  147SAPE  H16Y16258   4.031   6.518   8.511 -0.1528  0.5924  2.2258
  147SAPE  C31716259   4.185   6.630   8.581  0.1236 -0.5594 -1.0463
  147SAPE  H17X16260   4.217   6.674   8.485  0.4042  0.5804 -0.4498
  147SAPE  H17Y16261   4.278   6.632   8.642 -0.6913 -0.6775  0.2578
  147SAPE  C31816262   4.092   6.725   8.658 -0.0556  0.7879  1.1124
  147SAPE  H18X16263   4.038   6.668   8.735  0.9644  0.3284  1.5078
  147SAPE  H18Y16264   4.016   6.764   8.587  0.0689 -0.8397  0.0134
  147SAPE  H18Z16265   4.155   6.805   8.703  0.9845 -0.1414  1.3718
  148SAPE     N16266   3.253   2.642   6.788  0.3487  0.0246  0.4222
  148SAPE   HN116267   3.176   2.711   6.799  0.1746 -0.2543  1.0536
  148SAPE   HN216268   3.235   2.555   6.842  0.5132 -0.6745 -0.6231
  148SAPE   HN316269   3.339   2.680   6.833  0.3013  0.8269 -0.1574
  148SAPE   C1216270   3.275   2.604   6.644 -0.7234 -0.3921  0.0672
  148SAPE  H12A16271   3.366   2.541   6.631 -0.2686  0.3662 -0.5211
  148SAPE  H12B16272   3.283   2.700   6.590 -1.1076  0.8815  2.1589
  148SAPE   C1116273   3.161   2.521   6.591 -0.5497 -0.8554 -0.0740
  148SAPE  H11A16274   3.143   2.442   6.667 -0.7046  0.0954  0.8963
  148SAPE  H11B16275   3.202   2.475   6.498  0.4365 -1.0615  0.4479
  148SAPE     P16276   2.918   2.522   6.494 -0.0508 -0.0320 -0.0028
  148SAPE   O1316277   2.813   2.628   6.463 -0.0601  0.0708 -0.1523
  148SAPE   O1416278   2.971   2.449   6.378 -0.2774 -0.6499  0.0123
  148SAPE   O1216279   3.042   2.599   6.564 -0.3721  0.0367  0.1062
  148SAPE   O1116280   2.868   2.412   6.601 -0.2807  0.1124  0.2890
  148SAPE    C116281   2.804   2.450   6.726  0.2500  0.4764 -0.5305
  148SAPE    HA16282   2.884   2.515   6.769  0.1613  0.7513 -0.7769
  148SAPE    HB16283   2.710   2.507   6.711  0.8039  1.9274  1.1654
  148SAPE    C216284   2.792   2.326   6.815  0.2903 -0.4399  0.2544
  148SAPE    HS16285   2.713   2.257   6.776  0.0684  0.0177 -0.1163
  148SAPE   O2116286   2.755   2.364   6.943  0.0131 -0.3282 -0.1324
  148SAPE   C2116287   2.626   2.420   6.957 -0.2443  0.4025  0.4643
  148SAPE   O2216288   2.554   2.452   6.868  0.5110  0.4714 -0.0821
  148SAPE   C2216289   2.622   2.439   7.103  0.3102  0.2111 -0.5815
  148SAPE   H2R16290   2.649   2.349   7.163 -0.6514  1.0649  1.2288
  148SAPE   H2S16291   2.707   2.509   7.120  0.0265  0.6673 -1.0210
  148SAPE    C316292   2.932   2.246   6.818 -0.2191  0.3121 -0.1426
  148SAPE    HX16293   3.009   2.327   6.815  1.1119 -0.9505 -1.7648
  148SAPE    HY16294   2.949   2.192   6.723  0.6665 -0.4755  0.4499
  148SAPE   O3116295   2.936   2.156   6.930  0.1690 -0.0324  0.1668
  148SAPE   C3116296   2.998   2.199   7.037  0.1482  0.3091 -0.0406
  148SAPE   O3216297   3.057   2.303   7.052  0.3231 -0.2960  0.2632
  148SAPE   C3216298   2.989   2.089   7.145  0.3798 -0.3150 -0.2701
  148SAPE   H2X16299   3.078   2.024   7.134 -0.3379 -1.9844  2.7409
  148SAPE   H2Y16300   2.903   2.027   7.110 -1.1849  3.1897 -3.3684
  148SAPE   C2316301   2.486   2.488   7.147  0.6144  0.6888 -0.5652
  148SAPE   H3R16302   2.414   2.407   7.123  0.8943  0.6469 -1.2688
  148SAPE   H3S16303   2.449   2.578   7.094  0.3787  0.6960 -0.3932
  148SAPE   C2416304   2.492   2.501   7.300  0.5035  0.6264 -0.0249
  148SAPE   H4R16305   2.400   2.549   7.340 -1.5339 -0.1022 -3.3642
  148SAPE   H4S16306   2.578   2.570   7.311  0.5025  1.0633 -2.2193
  148SAPE   C2516307   2.522   2.376   7.386 -0.6342  0.4161  0.0558
  148SAPE   H5R16308   2.550   2.280   7.340 -1.5930 -0.5554  1.4432
  148SAPE   C2616309   2.512   2.370   7.522  0.1408 -0.5527  0.4920
  148SAPE   H6R16310   2.529   2.279   7.581  1.9215 -1.6955 -1.6386
  148SAPE   C2716311   2.474   2.488   7.600  0.1589 -0.1210  0.1648
  148SAPE   H7R16312   2.366   2.487   7.628  0.1746  1.2596  0.3579
  148SAPE   H7S16313   2.499   2.582   7.546  1.4306 -1.5088 -1.8087
  148SAPE   C2816314   2.544   2.487   7.733 -0.5314  0.3638  0.7939
  148SAPE   H8R16315   2.632   2.553   7.738 -0.9569  0.8673  2.4509
  148SAPE   C2916316   2.503   2.425   7.847  0.5726 -0.3560 -0.1669
  148SAPE   H9R16317   2.564   2.438   7.937 -0.3695 -2.6632  0.8943
  148SAPE  C21016318   2.380   2.343   7.867 -0.0400  0.1826 -0.5327
  148SAPE  H10R16319   2.323   2.345   7.771 -0.5789  0.6908 -0.2098
  148SAPE  H10S16320   2.313   2.370   7.952 -0.0970 -1.2232 -0.0925
  148SAPE  C21116321   2.438   2.198   7.900 -0.1200  0.2285 -0.1751
  148SAPE  H11R16322   2.526   2.163   7.845 -0.9771 -2.5437  0.0702
  148SAPE  C21216323   2.399   2.116   8.003  0.1816 -0.5484 -0.3990
  148SAPE  H12R16324   2.442   2.014   8.003 -2.5536 -1.8310 -2.4328
  148SAPE  C21316325   2.286   2.143   8.099 -0.2323 -0.3876  0.3529
  148SAPE  H13R16326   2.226   2.050   8.109 -1.0237 -0.3269 -2.8978
  148SAPE  H13S16327   2.223   2.227   8.064  1.8256  2.4535  2.8616
  148SAPE  C21416328   2.330   2.175   8.241  0.4770 -0.4410  0.2417
  148SAPE  H14R16329   2.286   2.267   8.282  1.1962  0.0385 -0.0439
  148SAPE  C21516330   2.412   2.095   8.317  1.2919  0.0043 -0.1546
  148SAPE  H15R16331   2.432   2.127   8.421 -0.9698  1.3724 -0.0775
  148SAPE  C21616332   2.461   1.955   8.281 -0.0459  0.0480  0.4426
  148SAPE  H16R16333   2.407   1.915   8.193  0.4451  1.3605 -0.4851
  148SAPE  H16S16334   2.432   1.885   8.362  2.1075 -0.8908  0.4741
  148SAPE  C21716335   2.611   1.958   8.238  0.3732  0.4061 -0.0864
  148SAPE  H17R16336   2.646   2.051   8.189  0.2651  1.6414  2.0274
  148SAPE  H17S16337   2.635   1.880   8.163  0.8459 -1.0135  1.4559
  148SAPE  C21816338   2.698   1.920   8.360 -0.6197  0.7841 -0.2950
  148SAPE  H18R16339   2.667   1.983   8.445 -0.2617 -0.1906  0.5876
  148SAPE  H18S16340   2.804   1.950   8.343 -0.3000 -0.7095 -1.1556
  148SAPE  C21916341   2.702   1.768   8.395 -0.2242 -0.5650  0.4414
  148SAPE  H19R16342   2.768   1.721   8.318  0.0413  0.1112  0.2493
  148SAPE  H19S16343   2.604   1.720   8.374  0.5026 -0.7509 -3.2659
  148SAPE  C22016344   2.743   1.736   8.544  0.3605  0.2708  0.4203
  148SAPE  H20R16345   2.668   1.769   8.618 -0.0340  1.3153 -0.4199
  148SAPE  H20S16346   2.844   1.776   8.569  0.1731  0.5251  0.7654
  148SAPE  H20T16347   2.761   1.629   8.567 -0.4804  0.6703  3.2146
  148SAPE   C3316348   2.990   2.119   7.293  0.4890  0.2457 -0.6142
  148SAPE   H3X16349   2.910   2.188   7.328 -0.2932 -1.4806  1.2169
  148SAPE   H3Y16350   3.081   2.179   7.311 -0.9641  2.4850 -0.3137
  148SAPE   C3416351   2.963   2.000   7.381  0.5184 -0.2871 -0.0699
  148SAPE   H4X16352   3.051   1.933   7.367 -0.5038 -1.5255 -0.7761
  148SAPE   H4Y16353   2.868   1.954   7.348  0.2836 -0.9973  1.4847
  148SAPE   C3516354   2.954   2.036   7.526 -0.2317  0.1823  0.4143
  148SAPE   H5X16355   3.036   2.106   7.552  0.9113  0.2198 -2.8857
  148SAPE   H5Y16356   2.967   1.939   7.579  0.3381  0.9944  1.8144
  148SAPE   C3616357   2.828   2.095   7.586 -0.0607 -0.2837 -0.0455
  148SAPE   H6X16358   2.758   2.009   7.573  1.7316 -2.2779  2.4787
  148SAPE   H6Y16359   2.782   2.182   7.534 -0.7905  0.2302  1.4110
  148SAPE   C3716360   2.844   2.117   7.739 -0.2385 -0.5279 -0.2341
  148SAPE   H7X16361   2.930   2.057   7.777  0.2592  0.6992  0.6234
  148SAPE   H7Y16362   2.752   2.075   7.785 -0.1118  0.1071  0.6102
  148SAPE   C3816363   2.865   2.261   7.778 -0.3555 -0.1163 -0.7188
  148SAPE   H8X16364   2.773   2.323   7.769  0.7909  1.5013 -2.0106
  148SAPE   H8Y16365   2.935   2.307   7.705 -0.8164  0.5386 -0.7583
  148SAPE   C3916366   2.920   2.284   7.919  0.4488 -0.0885  0.3147
  148SAPE   H9X16367   2.925   2.393   7.936 -0.1223 -0.4261  3.2762
  148SAPE   H9Y16368   3.019   2.235   7.935  0.5028  0.7314  2.9349
  148SAPE  C31016369   2.825   2.233   8.033 -0.2434 -0.0558  0.3311
  148SAPE  H10X16370   2.820   2.123   8.015  1.9601 -0.3188  1.0236
  148SAPE  H10Y16371   2.722   2.272   8.023 -0.7478 -0.8661  1.9542
  148SAPE  C31116372   2.878   2.250   8.174  0.1693 -0.1862 -0.4260
  148SAPE  H11X16373   2.793   2.225   8.241  0.1579  1.0367  0.0374
  148SAPE  H11Y16374   2.902   2.354   8.204 -0.6231 -0.3631  0.9146
  148SAPE  C31216375   2.996   2.159   8.209  0.0918 -0.0424 -0.8284
  148SAPE  H12X16376   3.072   2.169   8.128  0.8571  1.0520 -0.0045
  148SAPE  H12Y16377   2.962   2.053   8.217 -0.5493  0.3015  3.3450
  148SAPE  C31316378   3.074   2.197   8.339  0.3506  0.0618 -0.0410
  148SAPE  H13X16379   3.004   2.230   8.419  0.6199 -0.8104  0.5725
  148SAPE  H13Y16380   3.131   2.283   8.300 -1.4019  0.3397 -2.2326
  148SAPE  C31416381   3.168   2.093   8.394  0.0945 -0.5466 -0.0159
  148SAPE  H14X16382   3.246   2.063   8.321 -0.1801 -0.5055 -0.3281
  148SAPE  H14Y16383   3.103   2.011   8.432 -0.4084 -0.6538 -1.0629
  148SAPE  C31516384   3.249   2.155   8.514 -0.6078  0.3499 -0.3562
  148SAPE  H15X16385   3.300   2.066   8.556  0.0225 -0.0230 -1.8302
  148SAPE  H15Y16386   3.169   2.177   8.588  1.8476  0.6459  2.4006
  148SAPE  C31616387   3.344   2.273   8.491  0.0628 -0.6724  0.5474
  148SAPE  H16X16388   3.273   2.345   8.445 -1.5245 -2.7417 -0.4257
  148SAPE  H16Y16389   3.411   2.240   8.408  2.1107  0.7952  1.5099
  148SAPE  C31716390   3.419   2.328   8.610 -0.4965 -0.9558  0.1386
  148SAPE  H17X16391   3.497   2.253   8.636 -0.4751 -0.6759  0.9332
  148SAPE  H17Y16392   3.357   2.323   8.702 -0.1040 -4.8162  0.3512
  148SAPE  C31816393   3.481   2.471   8.586  0.1377 -0.2064  0.3678
  148SAPE  H18X16394   3.553   2.482   8.669 -0.5870 -0.5375  1.0497
  148SAPE  H18Y16395   3.414   2.559   8.580 -0.5121 -0.6965  0.3134
  148SAPE  H18Z16396   3.547   2.468   8.496  1.6946 -2.7383  1.4846
  149SAPE     N16397   4.456   4.383   6.220  0.5288  0.2665 -1.1069
  149SAPE   HN116398   4.412   4.459   6.165 -0.8014  0.3424  0.0036
  149SAPE   HN216399   4.555   4.374   6.190  0.7836 -0.9636 -0.0297
  149SAPE   HN316400   4.406   4.295   6.199  0.1333  0.3138 -0.3896
  149SAPE   C1216401   4.450   4.428   6.368 -0.9248 -0.8387  1.1287
  149SAPE  H12A16402   4.346   4.466   6.378  0.3323  3.5637 -0.3470
  149SAPE  H12B16403   4.527   4.507   6.382 -1.6360 -0.1296  1.0710
  149SAPE   C1116404   4.471   4.302   6.459 -0.0259 -1.3577  0.2050
  149SAPE  H11A16405   4.464   4.332   6.565  1.3987  0.3254 -0.1160
  149SAPE  H11B16406   4.581   4.288   6.445 -0.1847 -1.0337 -1.7406
  149SAPE     P16407   4.268   4.130   6.495  0.0885  0.0789 -0.0765
  149SAPE   O1316408   4.169   4.234   6.512 -0.0776  0.5151  0.4247
  149SAPE   O1416409   4.214   4.004   6.441  0.5344 -0.4654 -0.3636
  149SAPE   O1216410   4.391   4.192   6.417 -0.3855 -0.0546  0.4776
  149SAPE   O1116411   4.325   4.095   6.634 -0.0112 -0.3379  0.4457
  149SAPE    C116412   4.296   4.176   6.753  0.0678  0.2133  0.0405
  149SAPE    HA16413   4.297   4.286   6.736 -0.3981 -0.1731 -3.0266
  149SAPE    HB16414   4.192   4.158   6.789 -0.0124  0.2041 -0.1934
  149SAPE    C216415   4.395   4.128   6.860  0.5584  0.1683 -0.1483
  149SAPE    HS16416   4.365   4.023   6.877  0.9416 -0.4314 -2.7458
  149SAPE   O2116417   4.377   4.202   6.986  0.2174 -0.0187 -0.3167
  149SAPE   C2116418   4.276   4.160   7.062  0.1935  0.4176  0.7535
  149SAPE   O2216419   4.199   4.071   7.037  0.1585 -0.3257  0.7958
  149SAPE   C2216420   4.279   4.240   7.190 -0.2436  0.1114  0.1870
  149SAPE   H2R16421   4.386   4.257   7.214  0.2235 -1.4840 -0.6788
  149SAPE   H2S16422   4.226   4.337   7.181 -2.2736 -0.9799 -0.1908
  149SAPE    C316423   4.542   4.128   6.810 -0.1590 -0.1301 -0.5694
  149SAPE    HX16424   4.556   4.226   6.759 -2.7308  1.2382  1.0965
  149SAPE    HY16425   4.560   4.061   6.723 -0.3760 -0.8931 -0.0361
  149SAPE   O3116426   4.640   4.103   6.911  0.3756  0.3276 -0.5794
  149SAPE   C3116427   4.646   3.978   6.953  0.5393  0.3715  0.1980
  149SAPE   O3216428   4.576   3.885   6.914  0.5896 -0.5807  0.4621
  149SAPE   C3216429   4.766   3.971   7.055  0.2519  0.6591 -0.6419
  149SAPE   H2X16430   4.857   4.001   6.997  1.0838  1.6264  1.0929
  149SAPE   H2Y16431   4.762   3.867   7.093  0.6005  2.2996  4.7156
  149SAPE   C2316432   4.214   4.166   7.311  0.5058 -0.8848  0.3629
  149SAPE   H3R16433   4.256   4.064   7.311 -0.2771 -1.2344  1.9131
  149SAPE   H3S16434   4.108   4.144   7.286  0.6870 -1.9580  0.5083
  149SAPE   C2416435   4.235   4.238   7.446 -0.0366  0.2523  0.4566
  149SAPE   H4R16436   4.169   4.327   7.447 -1.2239 -0.5546 -1.4273
  149SAPE   H4S16437   4.339   4.275   7.464  0.3606 -0.1334 -0.9332
  149SAPE   C2516438   4.192   4.141   7.556 -0.1471  0.3576 -0.2608
  149SAPE   H5R16439   4.119   4.064   7.528  1.3453 -1.2221  0.0554
  149SAPE   C2616440   4.236   4.138   7.685 -0.3340 -0.3669 -0.0792
  149SAPE   H6R16441   4.191   4.067   7.756 -0.2523 -0.5011 -0.1608
  149SAPE   C2716442   4.349   4.230   7.733 -0.2476 -0.1775 -0.2773
  149SAPE   H7R16443   4.422   4.230   7.649 -0.2763 -1.3906 -0.3147
  149SAPE   H7S16444   4.397   4.184   7.821 -1.0043 -0.7592 -0.1633
  149SAPE   C2816445   4.294   4.362   7.775  0.0642  0.4229 -0.4908
  149SAPE   H8R16446   4.237   4.419   7.699 -0.3832  1.1055  0.3357
  149SAPE   C2916447   4.319   4.430   7.892  0.2059  0.0112 -0.4276
  149SAPE   H9R16448   4.291   4.536   7.907  0.6917 -0.2269  3.0002
  149SAPE  C21016449   4.402   4.365   8.004  0.1132  0.0545 -0.5938
  149SAPE  H10R16450   4.445   4.448   8.065  1.0300 -1.5314  1.0115
  149SAPE  H10S16451   4.493   4.323   7.958  0.4382  0.6696 -0.5336
  149SAPE  C21116452   4.333   4.275   8.106  0.1788  0.0854  0.4567
  149SAPE  H11R16453   4.224   4.282   8.118  0.2814 -1.3560  2.7570
  149SAPE  C21216454   4.399   4.170   8.162  0.7651 -0.9704  0.3145
  149SAPE  H12R16455   4.344   4.117   8.242 -3.3978 -0.8129 -2.1417
  149SAPE  C21316456   4.552   4.139   8.141  0.7484  0.5031  0.7214
  149SAPE  H13R16457   4.595   4.127   8.243 -1.0061  3.2391  1.9137
  149SAPE  H13S16458   4.615   4.220   8.101  1.2348 -0.5006 -0.6012
  149SAPE  C21416459   4.563   4.015   8.050 -0.5631 -0.6006 -0.0180
  149SAPE  H14R16460   4.573   4.040   7.943  0.8451 -0.5591  0.1052
  149SAPE  C21516461   4.577   3.888   8.091 -1.2351 -0.2504  0.5179
  149SAPE  H15R16462   4.597   3.808   8.018  0.9659  0.6530  0.0269
  149SAPE  C21616463   4.589   3.843   8.240 -0.2360  0.4131  0.1315
  149SAPE  H16R16464   4.670   3.901   8.289  0.2928  1.4809 -1.8604
  149SAPE  H16S16465   4.621   3.737   8.241 -0.4747  0.3439  0.3482
  149SAPE  C21716466   4.457   3.859   8.332 -0.9941 -0.6914 -0.1297
  149SAPE  H17R16467   4.366   3.831   8.274 -0.8855  2.3308 -1.9928
  149SAPE  H17S16468   4.456   3.965   8.364 -0.4502 -0.3939 -1.0567
  149SAPE  C21816469   4.461   3.773   8.457  0.8001  0.4192 -0.7321
  149SAPE  H18R16470   4.567   3.766   8.489  0.4865  1.3295  0.5542
  149SAPE  H18S16471   4.432   3.667   8.441  2.7552 -0.6232  1.9107
  149SAPE  C21916472   4.369   3.811   8.580 -0.6362  0.0302  0.0276
  149SAPE  H19R16473   4.265   3.816   8.542 -1.0855  0.0133  1.1990
  149SAPE  H19S16474   4.398   3.916   8.602  0.5728 -0.3373  0.2735
  149SAPE  C22016475   4.370   3.719   8.702  0.2975  0.3428  0.3851
  149SAPE  H20R16476   4.470   3.719   8.749 -0.3531  0.6717  1.8186
  149SAPE  H20S16477   4.335   3.618   8.672 -0.9284  1.1320 -1.0066
  149SAPE  H20T16478   4.314   3.757   8.790  1.7652  2.6434  0.4072
  149SAPE   C3316479   4.761   4.062   7.175  0.7198  0.4654 -0.5884
  149SAPE   H3X16480   4.736   4.167   7.147 -0.3019  0.8885  1.6880
  149SAPE   H3Y16481   4.863   4.063   7.219  0.5008  1.7966 -0.0544
  149SAPE   C3416482   4.651   4.014   7.273 -0.2277 -0.0873  0.4751
  149SAPE   H4X16483   4.676   3.908   7.296  0.2930  0.0758  0.6637
  149SAPE   H4Y16484   4.552   4.030   7.224 -1.7851 -0.9798  3.1079
  149SAPE   C3516485   4.641   4.098   7.399  0.5825 -0.4988  0.1351
  149SAPE   H5X16486   4.544   4.065   7.442  0.4042 -0.6693 -0.3819
  149SAPE   H5Y16487   4.619   4.204   7.376 -1.0326 -0.9235 -0.4130
  149SAPE   C3616488   4.757   4.087   7.494  0.4408 -0.1944  0.4045
  149SAPE   H6X16489   4.850   4.123   7.445  0.6382  0.4397  1.2471
  149SAPE   H6Y16490   4.771   3.983   7.531 -0.3356 -0.8385 -0.9964
  149SAPE   C3716491   4.744   4.183   7.616  0.1011  0.2570 -0.3638
  149SAPE   H7X16492   4.674   4.158   7.699  2.2680 -0.5165  1.3514
  149SAPE   H7Y16493   4.697   4.279   7.586 -1.3862 -0.0525  0.8067
  149SAPE   C3816494   4.876   4.197   7.698 -0.1283  0.1732 -0.1914
  149SAPE   H8X16495   4.949   4.232   7.622  0.1769  1.2575  0.5887
  149SAPE   H8Y16496   4.906   4.095   7.729 -2.7561  0.0441  2.3373
  149SAPE   C3916497   4.880   4.277   7.825 -0.1709  0.7342  0.2082
  149SAPE   H9X16498   4.788   4.253   7.882  0.5759 -0.4844  0.9467
  149SAPE   H9Y16499   4.873   4.387   7.815  2.1294  0.8451 -0.5763
  149SAPE  C31016500   5.009   4.246   7.907  0.5352  0.1735 -0.0693
  149SAPE  H10X16501   5.079   4.327   7.877  0.4271  0.0700 -0.6108
  149SAPE  H10Y16502   5.051   4.148   7.876 -1.6121 -0.7239 -0.3564
  149SAPE  C31116503   4.980   4.239   8.059  0.0304 -0.4276  0.2647
  149SAPE  H11X16504   5.071   4.196   8.106 -0.1413 -0.6625  0.3875
  149SAPE  H11Y16505   4.902   4.163   8.083  0.2227  0.2699  3.5081
  149SAPE  C31216506   4.941   4.367   8.129 -0.1234  0.4644  0.2973
  149SAPE  H12X16507   4.853   4.417   8.083 -0.5991  0.8337  1.5768
  149SAPE  H12Y16508   5.021   4.443   8.117 -1.1472  1.3052 -1.5914
  149SAPE  C31316509   4.915   4.333   8.274 -0.7775 -0.2469 -0.0341
  149SAPE  H13X16510   5.016   4.320   8.319 -0.2270  2.6952 -0.2472
  149SAPE  H13Y16511   4.850   4.245   8.292 -0.8892 -0.2611 -0.5019
  149SAPE  C31416512   4.854   4.456   8.343  0.3980  0.0240  0.8717
  149SAPE  H14X16513   4.753   4.455   8.297  1.7121  0.7449 -2.2989
  149SAPE  H14Y16514   4.910   4.552   8.330  0.0501 -0.0453 -1.4480
  149SAPE  C31516515   4.857   4.437   8.493  0.0505  0.2476  0.1482
  149SAPE  H15X16516   4.960   4.413   8.528  0.3701 -0.7690 -1.3812
  149SAPE  H15Y16517   4.789   4.352   8.515  0.9866 -0.6345 -0.2494
  149SAPE  C31616518   4.801   4.565   8.564 -0.4265 -0.3734 -0.1151
  149SAPE  H16X16519   4.694   4.584   8.542 -0.6325 -3.0645 -2.0348
  149SAPE  H16Y16520   4.864   4.644   8.518  1.7666 -2.1147 -0.3399
  149SAPE  C31716521   4.828   4.563   8.718  0.5644  0.3598  0.0558
  149SAPE  H17X16522   4.747   4.502   8.764  0.2852  0.8195  0.1794
  149SAPE  H17Y16523   4.805   4.663   8.761  1.4985 -0.0210  1.5129
  149SAPE  C31816524   4.961   4.530   8.776 -0.4011  0.1549 -0.3550
  149SAPE  H18X16525   5.036   4.599   8.732 -1.8983  0.9724 -1.7063
  149SAPE  H18Y16526   4.989   4.425   8.756 -0.4490 -0.0434  0.5535
  149SAPE  H18Z16527   4.964   4.551   8.886  1.4900  0.4703 -0.4280
  150SAPE     N16528   2.033   5.588   6.115 -0.1514 -0.2114 -0.1726
  150SAPE   HN116529   2.089   5.539   6.188 -0.5592 -1.1697 -0.4840
  150SAPE   HN216530   1.935   5.557   6.125 -0.0361 -0.1592  1.2812
  150SAPE   HN316531   2.070   5.559   6.022  0.5337 -2.0708  0.6156
  150SAPE   C1216532   2.039   5.738   6.117  0.1895  0.1843  0.0552
  150SAPE  H12A16533   2.000   5.767   6.017  1.1936 -3.0630 -1.4140
  150SAPE  H12B16534   2.141   5.781   6.115 -0.2736  1.3354  0.0550
  150SAPE   C1116535   1.950   5.792   6.237 -0.2674 -0.1883 -0.3330
  150SAPE  H11A16536   1.959   5.903   6.228  0.6624 -0.2549 -0.2868
  150SAPE  H11B16537   2.002   5.762   6.330  0.0771  0.0370 -0.4504
  150SAPE     P16538   1.696   5.788   6.323 -0.4332 -0.3376 -0.3712
  150SAPE   O1316539   1.657   5.928   6.312 -0.3717  0.4465  0.5020
  150SAPE   O1416540   1.581   5.695   6.308  0.2171  0.3836  0.5757
  150SAPE   O1216541   1.809   5.746   6.226 -0.8100  0.5112  0.1630
  150SAPE   O1116542   1.750   5.757   6.468  0.5629 -1.3377 -0.0194
  150SAPE    C116543   1.804   5.633   6.514  0.0295  0.4264  0.6444
  150SAPE    HA16544   1.780   5.546   6.448  0.3683  0.5161  0.4006
  150SAPE    HB16545   1.913   5.648   6.519  0.1776 -0.4001  0.0842
  150SAPE    C216546   1.764   5.608   6.660  1.5402  0.2009  0.1301
  150SAPE    HS16547   1.841   5.544   6.708  1.0031 -0.0835  0.6203
  150SAPE   O2116548   1.632   5.548   6.674  0.1515 -0.0124 -0.1558
  150SAPE   C2116549   1.623   5.422   6.629  0.1567  0.6589  0.7630
  150SAPE   O2216550   1.714   5.363   6.574 -0.1606  0.3267  0.1341
  150SAPE   C2216551   1.477   5.381   6.633  0.5490  0.9473 -0.6132
  150SAPE   H2R16552   1.416   5.469   6.602 -0.1595  0.1868 -1.4007
  150SAPE   H2S16553   1.456   5.297   6.564 -0.3039  0.5128  0.1552
  150SAPE    C316554   1.776   5.748   6.731  0.7032 -0.5811 -0.4657
  150SAPE    HX16555   1.697   5.813   6.687  0.6568  0.9637  1.7595
  150SAPE    HY16556   1.871   5.795   6.699  0.4822  1.2256  1.3435
  150SAPE   O3116557   1.785   5.731   6.881  0.2856 -0.4963 -0.0009
  150SAPE   C3116558   1.690   5.771   6.954 -0.0691 -0.7152 -0.1239
  150SAPE   O3216559   1.598   5.846   6.917 -0.2428  0.0252  0.0891
  150SAPE   C3216560   1.696   5.711   7.094  0.5685  0.0986 -0.5703
  150SAPE   H2X16561   1.783   5.643   7.097 -0.3817 -1.1187  1.8069
  150SAPE   H2Y16562   1.601   5.653   7.097 -0.1490  1.2460  1.5254
  150SAPE   C2316563   1.435   5.345   6.777 -0.1597  0.1553 -0.5748
  150SAPE   H3R16564   1.491   5.251   6.798  0.7405  1.0724  1.2663
  150SAPE   H3S16565   1.330   5.309   6.785  0.2918 -0.8504  1.4051
  150SAPE   C2416566   1.454   5.448   6.899 -0.0104  0.1913  0.0410
  150SAPE   H4R16567   1.563   5.466   6.892 -0.3642  2.0680 -1.3614
  150SAPE   H4S16568   1.438   5.400   6.998  1.5982  1.3475  0.9124
  150SAPE   C2516569   1.380   5.576   6.882  1.4565 -0.5477 -0.6645
  150SAPE   H5R16570   1.367   5.618   6.781  1.7193  1.3792  0.0541
  150SAPE   C2616571   1.333   5.655   6.983 -0.2667 -0.0709  0.3391
  150SAPE   H6R16572   1.289   5.752   6.958  0.6738  0.9120  2.2839
  150SAPE   C2716573   1.344   5.633   7.134 -0.4607  0.1013  0.9180
  150SAPE   H7R16574   1.401   5.714   7.184 -1.8413  1.2820  0.6575
  150SAPE   H7S16575   1.393   5.538   7.165 -0.3991  0.0402  0.6332
  150SAPE   C2816576   1.208   5.642   7.199  0.4268  0.2517 -0.4955
  150SAPE   H8R16577   1.143   5.713   7.145  0.4523  1.6488  1.1906
  150SAPE   C2916578   1.165   5.588   7.319 -0.3654  0.2063 -0.2619
  150SAPE   H9R16579   1.063   5.610   7.354 -0.8196 -0.7174 -0.9760
  150SAPE  C21016580   1.251   5.506   7.416  0.4410 -0.0008  0.7487
  150SAPE  H10R16581   1.212   5.536   7.516 -1.4410  2.3676 -0.6005
  150SAPE  H10S16582   1.360   5.532   7.415  0.3307  0.4769  0.7742
  150SAPE  C21116583   1.235   5.360   7.379 -0.0478  0.6596 -0.0138
  150SAPE  H11R16584   1.218   5.338   7.273  0.1726 -1.6370  0.3735
  150SAPE  C21216585   1.243   5.258   7.468  0.7980 -0.6909  0.4766
  150SAPE  H12R16586   1.250   5.154   7.433 -1.0024 -1.0346  1.0260
  150SAPE  C21316587   1.261   5.268   7.619  0.3722 -0.1013  0.0748
  150SAPE  H13R16588   1.201   5.344   7.673 -1.6411 -0.6290 -1.3159
  150SAPE  H13S16589   1.369   5.293   7.631  0.3373  0.8645 -1.3639
  150SAPE  C21416590   1.241   5.137   7.692  0.4171  0.2533 -0.5231
  150SAPE  H14R16591   1.228   5.047   7.630  1.4940  0.4008 -0.9932
  150SAPE  C21516592   1.255   5.124   7.824  0.0368  0.1579  0.5310
  150SAPE  H15R16593   1.247   5.027   7.875  1.5102 -0.5418 -0.5040
  150SAPE  C21616594   1.291   5.222   7.931 -0.2137 -0.2411 -0.2462
  150SAPE  H16R16595   1.308   5.329   7.905  1.4243 -0.4889 -0.2587
  150SAPE  H16S16596   1.391   5.194   7.969  0.4228 -0.1641 -1.8319
  150SAPE  C21716597   1.187   5.238   8.047  0.2919  0.9025  0.0867
  150SAPE  H17R16598   1.092   5.260   7.995 -0.5299 -1.4556  0.4481
  150SAPE  H17S16599   1.202   5.331   8.105 -0.6726  1.6768 -0.8627
  150SAPE  C21816600   1.209   5.128   8.154 -0.2138  0.0252 -0.0890
  150SAPE  H18R16601   1.313   5.144   8.190 -0.1315  1.9454 -1.0175
  150SAPE  H18S16602   1.200   5.025   8.113  0.3151  0.7849 -2.2722
  150SAPE  C21916603   1.102   5.131   8.273 -0.8290 -0.3266 -0.0727
  150SAPE  H19R16604   1.120   5.223   8.332 -0.0660 -1.3159  1.3000
  150SAPE  H19S16605   1.126   5.058   8.353 -3.3859  0.9302  2.0084
  150SAPE  C22016606   0.963   5.120   8.227  0.2259 -0.2397 -0.1014
  150SAPE  H20R16607   0.965   5.017   8.186  2.1002 -0.0911 -0.4695
  150SAPE  H20S16608   0.922   5.201   8.164 -0.3182 -0.9361 -0.6617
  150SAPE  H20T16609   0.903   5.106   8.320  2.1206 -0.4262  1.1568
  150SAPE   C3316610   1.696   5.807   7.212 -0.3439  0.2078 -0.1993
  150SAPE   H3X16611   1.596   5.796   7.258  0.1974 -0.7815  0.7984
  150SAPE   H3Y16612   1.705   5.914   7.183 -0.0180  0.6026  1.2415
  150SAPE   C3416613   1.797   5.767   7.327  1.1006  0.6126 -0.4318
  150SAPE   H4X16614   1.899   5.748   7.290  1.0540  0.2191 -0.3570
  150SAPE   H4Y16615   1.756   5.672   7.367  1.9802  0.3970 -0.0373
  150SAPE   C3516616   1.795   5.872   7.451  0.5387 -0.1963  0.7313
  150SAPE   H5X16617   1.689   5.891   7.476 -0.2479 -1.1067 -1.6202
  150SAPE   H5Y16618   1.848   5.960   7.410  2.4289 -0.4871  2.3864
  150SAPE   C3616619   1.866   5.802   7.563  0.4588  0.5820 -1.3410
  150SAPE   H6X16620   1.914   5.882   7.625 -0.6378 -0.5979  1.1540
  150SAPE   H6Y16621   1.951   5.736   7.534  1.0467  0.5206  0.3983
  150SAPE   C3716622   1.765   5.730   7.653  0.6584  0.3832 -0.2216
  150SAPE   H7X16623   1.711   5.653   7.593 -2.2718  1.1027  1.3007
  150SAPE   H7Y16624   1.683   5.793   7.693  1.6771  0.3079  2.1872
  150SAPE   C3816625   1.831   5.654   7.767  0.1191 -0.2813 -0.2466
  150SAPE   H8X16626   1.900   5.576   7.728 -0.2162 -0.2620 -0.8934
  150SAPE   H8Y16627   1.745   5.599   7.812  0.3426 -0.6128 -0.2226
  150SAPE   C3916628   1.904   5.746   7.864  0.0868 -0.0383 -0.7648
  150SAPE   H9X16629   1.847   5.829   7.912  1.5731  0.7338 -0.2851
  150SAPE   H9Y16630   1.985   5.794   7.807  1.0507 -0.5494  0.1394
  150SAPE  C31016631   1.967   5.666   7.981  0.1033  0.0972 -0.2011
  150SAPE  H10X16632   2.024   5.579   7.942  0.4641  1.2539 -2.4667
  150SAPE  H10Y16633   1.899   5.627   8.059  1.8496  1.5951  2.2191
  150SAPE  C31116634   2.052   5.765   8.070 -0.0794 -0.1421  0.0842
  150SAPE  H11X16635   1.981   5.834   8.121  1.7079  0.6454  1.6352
  150SAPE  H11Y16636   2.135   5.815   8.015 -1.1900  2.3618  0.5137
  150SAPE  C31216637   2.120   5.688   8.189 -0.3721 -0.2045  0.3315
  150SAPE  H12X16638   2.192   5.617   8.144  1.0278  0.8554  0.8526
  150SAPE  H12Y16639   2.031   5.635   8.230  0.3206 -1.1239  0.6795
  150SAPE  C31316640   2.189   5.770   8.293  0.2294  0.4366 -0.3541
  150SAPE  H13X16641   2.192   5.704   8.382 -0.8908 -0.5967 -1.0404
  150SAPE  H13Y16642   2.129   5.855   8.329 -0.4930 -0.3391  0.2987
  150SAPE  C31416643   2.325   5.815   8.243 -0.1909 -0.0414 -0.3415
  150SAPE  H14X16644   2.309   5.906   8.182 -1.9084 -1.3734 -1.9831
  150SAPE  H14Y16645   2.369   5.729   8.188 -0.7882 -1.5848  1.4450
  150SAPE  C31516646   2.426   5.857   8.366  0.3783  0.4523  0.1981
  150SAPE  H15X16647   2.523   5.862   8.312 -1.5227  1.9030 -3.4350
  150SAPE  H15Y16648   2.434   5.765   8.428  0.0813 -0.4802 -1.0810
  150SAPE  C31616649   2.386   5.990   8.430  0.5588 -0.1102  0.5666
  150SAPE  H16X16650   2.281   5.988   8.467  1.0419 -0.3960  2.0121
  150SAPE  H16Y16651   2.410   6.072   8.359  0.1398  1.5816  2.2693
  150SAPE  C31716652   2.473   6.036   8.543  0.2678  0.1476 -0.5785
  150SAPE  H17X16653   2.579   6.046   8.512  1.2089  1.9643  2.7163
  150SAPE  H17Y16654   2.480   5.955   8.618  0.8734 -0.3671 -1.1793
  150SAPE  C31816655   2.427   6.171   8.616 -0.3374 -0.0318 -0.1237
  150SAPE  H18X16656   2.330   6.147   8.664  1.0073 -3.0311  1.3214
  150SAPE  H18Y16657   2.414   6.256   8.545  0.6402 -0.1785 -0.4993
  150SAPE  H18Z16658   2.494   6.200   8.700 -0.7219  0.3733  0.0453
  151SAPE     N16659   5.674   3.386   5.909  0.2980  0.4024 -0.0241
  151SAPE   HN116660   5.658   3.481   5.870  0.2693  1.8256  3.1777
  151SAPE   HN216661   5.766   3.383   5.957 -0.1725  1.0421  0.9300
  151SAPE   HN316662   5.681   3.319   5.829 -0.6893 -0.1377  0.3275
  151SAPE   C1216663   5.562   3.348   6.002 -0.2291  0.0084 -0.5403
  151SAPE  H12A16664   5.570   3.245   6.044 -0.0826  0.9517  1.9182
  151SAPE  H12B16665   5.465   3.347   5.949 -0.3996  0.3095 -0.2375
  151SAPE   C1116666   5.563   3.453   6.124 -0.1159  0.4236 -0.4046
  151SAPE  H11A16667   5.660   3.456   6.177 -0.4225 -0.2461  0.2171
  151SAPE  H11B16668   5.487   3.406   6.190 -1.5345 -0.8156 -2.7356
  151SAPE     P16669   5.553   3.708   6.139 -0.0941  0.3450 -0.0210
  151SAPE   O1316670   5.701   3.729   6.124 -0.0211 -0.3318  0.0303
  151SAPE   O1416671   5.459   3.813   6.088 -0.2126 -0.0490  0.2892
  151SAPE   O1216672   5.515   3.574   6.071 -0.5296  0.1808  0.0087
  151SAPE   O1116673   5.534   3.688   6.286 -0.0720  0.1288 -0.5769
  151SAPE    C116674   5.405   3.696   6.351 -0.4621  0.4494 -0.1556
  151SAPE    HA16675   5.320   3.697   6.279 -0.3062 -0.3691 -0.3554
  151SAPE    HB16676   5.390   3.597   6.399  0.6876  0.8184  1.0337
  151SAPE    C216677   5.391   3.808   6.450  0.2589  0.5416 -0.3140
  151SAPE    HS16678   5.364   3.898   6.391  2.5797  1.0304 -0.7292
  151SAPE   O2116679   5.511   3.830   6.523 -0.2660  0.3977  0.2955
  151SAPE   C2116680   5.587   3.926   6.478 -0.1935 -0.4606 -0.0921
  151SAPE   O2216681   5.565   4.016   6.397 -0.0682  0.6786  0.0426
  151SAPE   C2216682   5.724   3.901   6.534 -0.3473  0.4578  0.3442
  151SAPE   H2R16683   5.756   3.796   6.524  2.0687  0.8222  2.9523
  151SAPE   H2S16684   5.791   3.963   6.472 -0.1864  0.2332  0.2943
  151SAPE    C316685   5.268   3.779   6.551  0.1964  0.3946 -0.5027
  151SAPE    HX16686   5.275   3.672   6.577  1.0459  0.5793  0.0691
  151SAPE    HY16687   5.173   3.808   6.501 -0.8401  1.0919  1.7281
  151SAPE   O3116688   5.284   3.855   6.667  0.2079 -0.0595 -0.3040
  151SAPE   C3116689   5.267   3.982   6.666 -0.2828 -0.0804 -0.4147
  151SAPE   O3216690   5.252   4.053   6.569 -0.1965  0.6842  0.1671
  151SAPE   C3216691   5.264   4.037   6.811 -0.5088 -0.2662 -0.4923
  151SAPE   H2X16692   5.191   4.121   6.811 -0.5361 -0.2781  0.4369
  151SAPE   H2Y16693   5.366   4.076   6.832 -0.5103 -0.0658 -0.8562
  151SAPE   C2316694   5.728   3.954   6.677 -0.2007 -0.1510 -0.4963
  151SAPE   H3R16695   5.663   3.895   6.745 -0.1656  0.0972 -0.2437
  151SAPE   H3S16696   5.690   4.058   6.669  0.0341  0.0436  0.7685
  151SAPE   C2416697   5.871   3.963   6.727 -0.5457 -0.2538  1.0848
  151SAPE   H4R16698   5.869   4.003   6.831  0.0837 -0.0493  1.0262
  151SAPE   H4S16699   5.933   4.029   6.663 -1.8849 -0.8319 -0.9020
  151SAPE   C2516700   5.936   3.828   6.732 -0.7399  0.1717  0.1343
  151SAPE   H5R16701   5.992   3.801   6.642  1.6500  1.0469  1.2736
  151SAPE   C2616702   5.921   3.738   6.829 -0.7687  0.0408  0.3354
  151SAPE   H6R16703   5.967   3.640   6.809  0.7115  0.6163  0.7842
  151SAPE   C2716704   5.835   3.749   6.956  0.2417  0.0612 -0.1409
  151SAPE   H7R16705   5.764   3.835   6.952 -0.6984 -0.6376  0.9658
  151SAPE   H7S16706   5.906   3.769   7.039  1.6748 -2.5319 -0.6232
  151SAPE   C2816707   5.751   3.631   7.000 -0.2253  0.4702  0.5807
  151SAPE   H8R16708   5.643   3.646   7.014 -0.4745  1.9747 -2.2975
  151SAPE   C2916709   5.802   3.505   7.027  0.5059 -0.9070 -0.0375
  151SAPE   H9R16710   5.724   3.431   7.050 -0.3598 -0.1872 -0.5634
  151SAPE  C21016711   5.940   3.454   7.029 -0.0538 -0.1432  0.9031
  151SAPE  H10R16712   5.961   3.406   7.127 -0.4621  0.6557  1.3929
  151SAPE  H10S16713   6.008   3.539   7.012 -0.5684 -0.4989 -4.6309
  151SAPE  C21116714   5.969   3.362   6.909  0.1563  0.7158 -0.3948
  151SAPE  H11R16715   6.040   3.408   6.839 -0.0533  1.7878  0.0818
  151SAPE  C21216716   5.933   3.236   6.895 -0.1498  0.5372  0.1709
  151SAPE  H12R16717   5.972   3.176   6.812  0.7052 -1.0630  1.6753
  151SAPE  C21316718   5.853   3.154   6.994 -0.0572 -0.0462 -0.0438
  151SAPE  H13R16719   5.776   3.219   7.040 -0.0455  0.0933 -0.2175
  151SAPE  H13S16720   5.925   3.127   7.074 -1.9006 -0.5549  1.4886
  151SAPE  C21416721   5.785   3.042   6.923  0.5451  0.6878  0.1579
  151SAPE  H14R16722   5.675   3.054   6.924  0.7738  3.5843  0.3228
  151SAPE  C21516723   5.843   2.923   6.897  0.4105  0.1702  0.4448
  151SAPE  H15R16724   5.793   2.847   6.835  1.5083 -1.8545  1.8898
  151SAPE  C21616725   5.987   2.881   6.920  0.1985 -1.0443  0.0429
  151SAPE  H16R16726   5.993   2.824   7.015 -0.0443 -0.6516  0.2935
  151SAPE  H16S16727   6.049   2.971   6.940 -0.3174 -0.5613 -0.4927
  151SAPE  C21716728   6.047   2.804   6.800 -0.6469  0.3757 -0.6122
  151SAPE  H17R16729   6.043   2.875   6.714  0.5715  2.1930  0.7631
  151SAPE  H17S16730   5.990   2.713   6.772  0.4134  0.2628 -2.5637
  151SAPE  C21816731   6.197   2.761   6.809 -1.4664 -0.7742  0.4971
  151SAPE  H18R16732   6.213   2.686   6.888 -0.9100  0.1284  1.2587
  151SAPE  H18S16733   6.254   2.853   6.832 -1.4031 -0.7064  0.0792
  151SAPE  C21916734   6.251   2.712   6.676  0.5616 -0.5096  0.2471
  151SAPE  H19R16735   6.219   2.787   6.601  2.6444  0.5755  0.3623
  151SAPE  H19S16736   6.209   2.610   6.662 -0.6387 -0.1749  1.2338
  151SAPE  C22016737   6.406   2.693   6.683 -0.4593 -0.3652 -1.1741
  151SAPE  H20R16738   6.454   2.668   6.586 -0.2554 -0.0677 -1.1507
  151SAPE  H20S16739   6.451   2.787   6.722  0.8155 -1.6242  0.5636
  151SAPE  H20T16740   6.431   2.613   6.756 -2.9358 -2.1334 -2.1487
  151SAPE   C3316741   5.210   3.941   6.920 -0.0796  0.8022  0.1847
  151SAPE   H3X16742   5.267   3.846   6.912  1.3557  1.7384 -1.4693
  151SAPE   H3Y16743   5.106   3.918   6.886  0.2713  1.5526 -1.5154
  151SAPE   C3416744   5.215   4.004   7.059  0.4047 -0.0074  0.7780
  151SAPE   H4X16745   5.156   4.098   7.059  2.7402  1.6072 -1.5216
  151SAPE   H4Y16746   5.322   4.023   7.082  1.2151  3.3060 -4.2186
  151SAPE   C3516747   5.149   3.911   7.157 -0.0467 -0.4081  0.0219
  151SAPE   H5X16748   5.196   3.810   7.151  0.0615 -0.4965  1.8377
  151SAPE   H5Y16749   5.045   3.910   7.118 -0.0465 -0.1557  0.0156
  151SAPE   C3616750   5.172   3.960   7.300 -0.0114  0.0069  0.7833
  151SAPE   H6X16751   5.094   4.039   7.310 -1.5159 -1.4111  0.6593
  151SAPE   H6Y16752   5.273   4.004   7.303  0.0695 -0.1492  0.4095
  151SAPE   C3716753   5.155   3.857   7.414  0.5732  0.7453 -0.3249
  151SAPE   H7X16754   5.095   3.767   7.392  1.6813  0.0335 -0.5041
  151SAPE   H7Y16755   5.104   3.909   7.497  1.3610  2.3360 -0.7804
  151SAPE   C3816756   5.287   3.793   7.447  0.4479 -0.0530 -0.1964
  151SAPE   H8X16757   5.374   3.856   7.421  0.5755  0.3641  1.1741
  151SAPE   H8Y16758   5.300   3.695   7.395  0.6891 -0.3672  0.4446
  151SAPE   C3916759   5.306   3.766   7.598  0.0714 -0.0341  0.5634
  151SAPE   H9X16760   5.215   3.715   7.637 -1.3613  1.4684 -0.6375
  151SAPE   H9Y16761   5.320   3.857   7.659 -0.7901  0.0013  0.7286
  151SAPE  C31016762   5.429   3.673   7.613  0.3767  0.0878  0.2250
  151SAPE  H10X16763   5.521   3.716   7.567  0.9916  1.7348  2.7927
  151SAPE  H10Y16764   5.401   3.578   7.563 -1.1928  0.8615 -0.4356
  151SAPE  C31116765   5.453   3.641   7.763  0.2918  0.3674 -0.4019
  151SAPE  H11X16766   5.484   3.730   7.822  1.8530 -1.6351  2.0146
  151SAPE  H11Y16767   5.549   3.586   7.774  1.2114  1.9131 -0.3636
  151SAPE  C31216768   5.338   3.564   7.839 -0.2105  0.6313 -0.0639
  151SAPE  H12X16769   5.301   3.478   7.780  2.2587 -0.4811 -0.1099
  151SAPE  H12Y16770   5.257   3.639   7.853  1.0366  2.3356 -1.5477
  151SAPE  C31316771   5.391   3.521   7.977 -0.1331 -0.4252  0.8456
  151SAPE  H13X16772   5.409   3.612   8.038 -0.8266 -0.5858  1.3017
  151SAPE  H13Y16773   5.483   3.462   7.958  0.0779 -0.0405  0.6540
  151SAPE  C31416774   5.275   3.433   8.035 -0.1515  0.0120  0.2731
  151SAPE  H14X16775   5.244   3.358   7.958 -3.2783  2.3557 -0.9535
  151SAPE  H14Y16776   5.184   3.486   8.070  0.3233 -0.4446  2.3431
  151SAPE  C31516777   5.309   3.368   8.170 -0.6035 -0.1624 -0.0428
  151SAPE  H15X16778   5.226   3.366   8.243 -1.2218 -0.2008 -0.7409
  151SAPE  H15Y16779   5.384   3.439   8.211  0.1497 -0.6333 -0.5696
  151SAPE  C31616780   5.389   3.231   8.161 -0.2645 -0.4666  0.4352
  151SAPE  H16X16781   5.446   3.228   8.065  1.3533 -0.8415  1.3693
  151SAPE  H16Y16782   5.313   3.153   8.141 -1.8207  1.0743  0.0673
  151SAPE  C31716783   5.475   3.206   8.290  0.5413  0.3629 -0.3562
  151SAPE  H17X16784   5.552   3.286   8.296  1.3937 -0.4207 -0.6292
  151SAPE  H17Y16785   5.533   3.112   8.276 -2.8247 -1.7319 -1.3289
  151SAPE  C31816786   5.389   3.194   8.415 -0.3842 -0.9087 -0.4129
  151SAPE  H18X16787   5.337   3.096   8.409  0.4358 -1.3932  0.1468
  151SAPE  H18Y16788   5.319   3.277   8.437  0.0623 -0.9785  1.4054
  151SAPE  H18Z16789   5.460   3.182   8.499 -0.6112 -0.2602 -0.1186
  152SAPE     N16790   2.098   6.543   6.383  0.3723 -0.3124  0.5311
  152SAPE   HN116791   2.006   6.510   6.349 -0.6846  0.6062  2.3610
  152SAPE   HN216792   2.073   6.635   6.423  3.2508  0.7587  0.1510
  152SAPE   HN316793   2.149   6.560   6.294 -0.2758  0.8743  0.3668
  152SAPE   C1216794   2.172   6.444   6.473 -0.1225 -0.4951 -0.6890
  152SAPE  H12A16795   2.103   6.415   6.555 -2.0872  0.8588 -1.7975
  152SAPE  H12B16796   2.258   6.498   6.520 -0.6148 -0.9055  0.7403
  152SAPE   C1116797   2.218   6.323   6.391  0.0092 -0.7379  0.2487
  152SAPE  H11A16798   2.132   6.260   6.359  1.1095 -2.8206  1.2178
  152SAPE  H11B16799   2.279   6.266   6.464  0.8698  1.6242  1.4929
  152SAPE     P16800   2.373   6.269   6.189 -0.0456 -0.4029 -0.2353
  152SAPE   O1316801   2.309   6.137   6.204 -0.4068  0.0129 -0.2332
  152SAPE   O1416802   2.375   6.329   6.055  0.9577  0.0705  0.0017
  152SAPE   O1216803   2.303   6.364   6.292  0.7344 -0.5106  0.0150
  152SAPE   O1116804   2.520   6.260   6.234  0.4959 -0.4521 -0.1682
  152SAPE    C116805   2.597   6.384   6.238  0.4173 -0.2026 -0.1531
  152SAPE    HA16806   2.673   6.370   6.158 -0.0294 -0.4774 -0.5339
  152SAPE    HB16807   2.533   6.473   6.216  1.8151  0.3082 -2.5629
  152SAPE    C216808   2.663   6.407   6.378  0.0418 -0.4055  0.0719
  152SAPE    HS16809   2.753   6.345   6.362 -0.3275 -0.2369 -3.7862
  152SAPE   O2116810   2.574   6.362   6.480 -0.3263 -0.2174 -0.2895
  152SAPE   C2116811   2.632   6.302   6.583 -0.5298  0.7155  0.5002
  152SAPE   O2216812   2.752   6.287   6.608  0.0571 -0.7777 -0.4159
  152SAPE   C2216813   2.518   6.241   6.668 -0.5054 -0.2844 -0.0210
  152SAPE   H2R16814   2.462   6.327   6.712 -1.4259  0.7483 -2.9579
  152SAPE   H2S16815   2.453   6.195   6.590 -0.7458 -0.5372  0.3244
  152SAPE    C316816   2.703   6.556   6.397 -0.0164 -0.0382 -0.1494
  152SAPE    HX16817   2.612   6.620   6.396  0.2940  0.3960 -0.7069
  152SAPE    HY16818   2.781   6.574   6.321  0.5536  0.3860  0.5303
  152SAPE   O3116819   2.761   6.572   6.529 -0.1702  0.5727 -0.3245
  152SAPE   C3116820   2.835   6.684   6.540  0.6240  0.2193 -0.8267
  152SAPE   O3216821   2.859   6.767   6.452 -0.0586 -0.4793 -0.0077
  152SAPE   C3216822   2.891   6.697   6.682 -0.4993 -0.0346  0.0033
  152SAPE   H2X16823   2.983   6.759   6.677 -0.3258 -0.3636 -1.1705
  152SAPE   H2Y16824   2.916   6.598   6.726 -1.2181  0.5042  1.7079
  152SAPE   C2316825   2.565   6.136   6.771  0.2331 -0.5395 -0.2492
  152SAPE   H3R16826   2.640   6.065   6.729  1.9158  0.5009  0.8713
  152SAPE   H3S16827   2.479   6.072   6.798  0.4418 -2.7443 -3.9842
  152SAPE   C2416828   2.640   6.208   6.895  0.5938  0.1970  0.5668
  152SAPE   H4R16829   2.572   6.294   6.916 -0.3972 -0.6019  0.6561
  152SAPE   H4S16830   2.733   6.253   6.856  0.3516 -0.0087 -0.2606
  152SAPE   C2516831   2.684   6.113   7.002 -0.2544  0.1383 -0.2966
  152SAPE   H5R16832   2.707   6.008   6.977  1.8421 -0.2337  2.6343
  152SAPE   C2616833   2.707   6.138   7.134  0.3690  0.1061  0.3050
  152SAPE   H6R16834   2.732   6.058   7.204  0.0954  1.3856  1.9164
  152SAPE   C2716835   2.682   6.276   7.199  0.1463 -0.0758 -0.6338
  152SAPE   H7R16836   2.687   6.368   7.138  1.1361 -1.3659 -2.6141
  152SAPE   H7S16837   2.756   6.286   7.281  0.6784 -0.8389 -1.0099
  152SAPE   C2816838   2.539   6.274   7.252  0.4522  0.0963  0.0205
  152SAPE   H8R16839   2.465   6.273   7.170 -0.9198 -1.0784  1.2161
  152SAPE   C2916840   2.502   6.285   7.381 -0.1896 -0.9832  0.1396
  152SAPE   H9R16841   2.393   6.293   7.390 -0.2491 -1.2430 -0.3243
  152SAPE  C21016842   2.597   6.307   7.498  0.7134 -0.0356  0.1693
  152SAPE  H10R16843   2.681   6.373   7.467 -2.0523  2.9528 -1.4972
  152SAPE  H10S16844   2.645   6.212   7.531 -1.3770 -0.7542  1.3386
  152SAPE  C21116845   2.532   6.364   7.623  0.6790 -0.0456  0.3376
  152SAPE  H11R16846   2.434   6.410   7.604 -0.4380 -2.9199 -1.7003
  152SAPE  C21216847   2.592   6.370   7.741  0.1904  0.4837 -0.5091
  152SAPE  H12R16848   2.539   6.427   7.819  0.2614  0.2336 -0.2746
  152SAPE  C21316849   2.719   6.305   7.778  0.1690  0.0415  0.3284
  152SAPE  H13R16850   2.729   6.212   7.718 -1.8318 -0.1245  0.1910
  152SAPE  H13S16851   2.711   6.268   7.883 -2.2830  2.5644  1.1604
  152SAPE  C21416852   2.836   6.395   7.758  0.1406  0.1731 -0.5959
  152SAPE  H14R16853   2.901   6.380   7.671  0.5813  2.2837 -0.6990
  152SAPE  C21516854   2.865   6.484   7.858 -0.0799  0.0780 -0.1800
  152SAPE  H15R16855   2.948   6.556   7.846 -1.1251  1.2148 -0.7697
  152SAPE  C21616856   2.784   6.509   7.992  0.3147  0.2152  0.0614
  152SAPE  H16R16857   2.845   6.515   8.085 -0.2475 -0.8062  0.5129
  152SAPE  H16S16858   2.702   6.436   8.008 -0.5510  0.9433 -0.9400
  152SAPE  C21716859   2.711   6.640   7.973 -0.1132  0.2129 -0.1247
  152SAPE  H17R16860   2.645   6.661   8.060  0.6094  3.7518 -0.2804
  152SAPE  H17S16861   2.661   6.651   7.875 -0.7313  0.7608  0.2409
  152SAPE  C21816862   2.813   6.762   7.979  0.1713 -0.0125  0.2700
  152SAPE  H18R16863   2.769   6.859   7.949  2.2463  1.1826  0.9073
  152SAPE  H18S16864   2.892   6.747   7.902  0.2477 -0.7812  0.4850
  152SAPE  C21916865   2.869   6.773   8.119 -0.2508 -0.6226 -0.9655
  152SAPE  H19R16866   2.930   6.687   8.155  0.4392  0.4526  0.5357
  152SAPE  H19S16867   2.785   6.778   8.192  0.1439  0.5912 -0.5766
  152SAPE  C22016868   2.962   6.890   8.133  0.2257  0.0065  0.2219
  152SAPE  H20R16869   2.900   6.981   8.118  1.0902  0.4242 -1.0717
  152SAPE  H20S16870   3.044   6.902   8.059 -0.8145  3.7384 -0.5710
  152SAPE  H20T16871   3.011   6.888   8.233  0.8677 -0.2786 -0.0903
  152SAPE   C3316872   2.794   6.775   6.769  0.4425 -0.6981 -0.1910
  152SAPE   H3X16873   2.764   6.872   6.725  0.6418 -1.7328 -2.7440
  152SAPE   H3Y16874   2.855   6.809   6.855  1.1536  1.6408 -1.5383
  152SAPE   C3416875   2.682   6.695   6.830 -0.1577  0.7436  0.6790
  152SAPE   H4X16876   2.614   6.672   6.745  2.7232 -2.5340 -0.9562
  152SAPE   H4Y16877   2.637   6.749   6.916 -0.5871 -1.3747  1.8464
  152SAPE   C3516878   2.712   6.559   6.896 -0.6309  0.0044 -0.3842
  152SAPE   H5X16879   2.751   6.482   6.826  0.2095 -1.4038  1.5298
  152SAPE   H5Y16880   2.619   6.519   6.941 -1.0763  0.7706 -0.6127
  152SAPE   C3616881   2.812   6.569   7.007 -0.6866  0.0737 -0.4350
  152SAPE   H6X16882   2.910   6.605   6.970  0.2732 -2.4970 -0.5410
  152SAPE   H6Y16883   2.843   6.469   7.044  2.1681  0.8394 -0.5301
  152SAPE   C3716884   2.768   6.646   7.139  0.2185 -0.5671  0.4184
  152SAPE   H7X16885   2.664   6.609   7.155  0.1038  0.5424  2.4836
  152SAPE   H7Y16886   2.769   6.752   7.107 -0.4219  0.6233  3.9180
  152SAPE   C3816887   2.845   6.620   7.267 -0.0762 -0.6948 -0.2495
  152SAPE   H8X16888   2.953   6.641   7.249 -0.0623 -0.5771 -0.0339
  152SAPE   H8Y16889   2.828   6.515   7.299  1.8587 -0.8865  0.2476
  152SAPE   C3916890   2.809   6.710   7.387 -0.5624 -0.7999 -0.4883
  152SAPE   H9X16891   2.805   6.818   7.359 -0.3140 -0.7486 -0.3301
  152SAPE   H9Y16892   2.882   6.697   7.470 -1.0674 -0.6960 -0.0193
  152SAPE  C31016893   2.674   6.684   7.460  0.0207  0.3850  0.0267
  152SAPE  H10X16894   2.685   6.580   7.497 -2.2383 -0.8073 -2.4039
  152SAPE  H10Y16895   2.588   6.676   7.391  0.5837 -0.2052 -0.6162
  152SAPE  C31116896   2.643   6.779   7.579  0.4063  0.3700 -0.1245
  152SAPE  H11X16897   2.739   6.802   7.629  0.6708 -0.9792  0.0233
  152SAPE  H11Y16898   2.569   6.735   7.649 -0.9645  2.2664 -0.3022
  152SAPE  C31216899   2.579   6.914   7.543  0.4708  0.0642  0.0310
  152SAPE  H12X16900   2.647   6.970   7.475  1.6136 -1.8547 -0.4772
  152SAPE  H12Y16901   2.546   6.972   7.633 -1.9884 -1.7727  0.4141
  152SAPE  C31316902   2.447   6.896   7.463 -0.4770 -0.0262 -0.0414
  152SAPE  H13X16903   2.378   6.835   7.525 -1.1523  1.0548  0.2984
  152SAPE  H13Y16904   2.479   6.836   7.375  0.2715 -2.9384  2.0524
  152SAPE  C31416905   2.373   7.020   7.421 -0.3748 -0.0618 -0.1009
  152SAPE  H14X16906   2.441   7.093   7.372  2.5832 -0.6849  2.7094
  152SAPE  H14Y16907   2.328   7.049   7.518  0.4199 -0.3200  0.3584
  152SAPE  C31516908   2.255   6.992   7.323 -0.9280 -0.4240  0.5886
  152SAPE  H15X16909   2.217   7.094   7.305 -0.7670 -0.3136  0.8825
  152SAPE  H15Y16910   2.186   6.912   7.359 -2.8211  0.2182 -1.3635
  152SAPE  C31616911   2.306   6.945   7.186 -0.2069  1.0194  0.6581
  152SAPE  H16X16912   2.267   6.841   7.176  0.3312  0.7263  1.4078
  152SAPE  H16Y16913   2.417   6.942   7.189 -0.1867  1.5054  3.3336
  152SAPE  C31716914   2.254   7.027   7.068  0.5466  0.0121  0.3059
  152SAPE  H17X16915   2.316   6.996   6.981 -0.7702 -0.6148 -0.4345
  152SAPE  H17Y16916   2.270   7.135   7.089  0.0577 -0.3524  2.9616
  152SAPE  C31816917   2.109   7.006   7.039  0.3742  0.5115 -0.7333
  152SAPE  H18X16918   2.086   6.897   7.032  2.2547 -0.0994  1.2505
  152SAPE  H18Y16919   2.080   7.062   6.948 -1.9420  0.9338  0.1910
  152SAPE  H18Z16920   2.060   7.046   7.131 -0.9322 -0.5547 -0.9264
  153SAPE     N16921   4.296   1.516   6.193  0.4783 -0.2194 -0.1479
  153SAPE   HN116922   4.200   1.554   6.211  0.5118 -0.6239  0.9674
  153SAPE   HN216923   4.343   1.492   6.283  1.9367  0.2046 -0.7742
  153SAPE   HN316924   4.356   1.589   6.151  0.3794  0.2516  0.5034
  153SAPE   C1216925   4.294   1.397   6.093  0.3759 -0.0546  0.2552
  153SAPE  H12A16926   4.395   1.350   6.087  1.5271  2.3962 -1.6519
  153SAPE  H12B16927   4.274   1.446   5.996 -2.0409  0.7327  1.0877
  153SAPE   C1116928   4.189   1.284   6.130 -0.9818  0.1936 -0.2733
  153SAPE  H11A16929   4.232   1.238   6.222  0.0776 -2.2594 -1.9011
  153SAPE  H11B16930   4.196   1.210   6.048  1.3904  0.5748 -0.5065
  153SAPE     P16931   3.927   1.293   6.090 -0.2263 -0.0623 -0.1824
  153SAPE   O1316932   3.825   1.391   6.133 -0.4349  0.4498 -0.0071
  153SAPE   O1416933   3.963   1.285   5.946  0.6864 -0.0795 -0.6706
  153SAPE   O1216934   4.059   1.341   6.167 -0.3772  0.1017 -0.1533
  153SAPE   O1116935   3.895   1.153   6.148 -0.2235 -0.2677 -0.4984
  153SAPE    C116936   3.825   1.144   6.276  0.2685  0.5656 -0.2970
  153SAPE    HA16937   3.751   1.225   6.296 -1.3852 -0.8682 -0.4081
  153SAPE    HB16938   3.762   1.054   6.262  0.8978  0.3230 -1.7095
  153SAPE    C216939   3.918   1.135   6.403 -0.0119  0.2097 -0.1630
  153SAPE    HS16940   3.851   1.124   6.490 -1.0311 -0.6703 -1.0168
  153SAPE   O2116941   3.995   1.259   6.413  0.1325 -0.0020 -0.1313
  153SAPE   C2116942   3.944   1.360   6.469 -0.5661  0.2794  0.3049
  153SAPE   O2216943   3.832   1.372   6.511 -0.1379 -0.0202  0.0179
  153SAPE   C2216944   4.057   1.466   6.472 -0.6601  0.4052 -0.1808
  153SAPE   H2R16945   4.154   1.416   6.452 -1.5106 -0.7106 -1.6803
  153SAPE   H2S16946   4.038   1.529   6.383  0.1274 -0.8138 -1.2422
  153SAPE    C316947   4.009   1.008   6.393 -0.2321 -0.0017 -0.6456
  153SAPE    HX16948   4.075   1.013   6.304 -0.9605  1.7271 -1.1266
  153SAPE    HY16949   3.937   0.924   6.384 -0.7796  0.4630 -0.6419
  153SAPE   O3116950   4.085   0.974   6.512  0.3040 -0.1441  0.3533
  153SAPE   C3116951   4.213   1.018   6.523 -0.5656 -0.5954 -0.5768
  153SAPE   O3216952   4.285   1.066   6.440 -0.0003 -0.2290  0.4646
  153SAPE   C3216953   4.256   0.980   6.668 -0.3906  0.0971 -1.5251
  153SAPE   H2X16954   4.281   1.066   6.734 -1.5027 -0.3082 -0.5402
  153SAPE   H2Y16955   4.351   0.925   6.652 -0.2551 -0.4295  0.6869
  153SAPE   C2316956   4.071   1.541   6.607 -0.2501 -0.2669 -0.4382
  153SAPE   H3R16957   3.971   1.582   6.633 -0.1319  0.8252 -1.6111
  153SAPE   H3S16958   4.137   1.630   6.599  0.9734 -0.9728  1.1321
  153SAPE   C2416959   4.126   1.452   6.729 -0.0756  0.2371  0.4265
  153SAPE   H4R16960   4.048   1.373   6.730 -1.0159  1.1167 -0.3450
  153SAPE   H4S16961   4.111   1.516   6.819 -0.8311  1.2948 -0.4313
  153SAPE   C2516962   4.267   1.397   6.704 -0.0958  0.1191 -0.1250
  153SAPE   H5R16963   4.275   1.335   6.614 -0.2968  1.6752 -1.2529
  153SAPE   C2616964   4.381   1.441   6.763  0.2143  1.1183 -0.0022
  153SAPE   H6R16965   4.471   1.383   6.741 -1.0588 -1.0750  0.2294
  153SAPE   C2716966   4.390   1.530   6.877  0.7480 -0.9302 -0.3795
  153SAPE   H7R16967   4.443   1.477   6.960 -0.4896 -2.1238 -0.3207
  153SAPE   H7S16968   4.288   1.566   6.900  1.7199  2.0468 -0.2096
  153SAPE   C2816969   4.465   1.650   6.834 -0.5437  0.1041  1.2019
  153SAPE   H8R16970   4.403   1.724   6.781  0.2901 -2.0250 -3.1499
  153SAPE   C2916971   4.599   1.650   6.838 -0.4995 -0.1937 -0.9076
  153SAPE   H9R16972   4.647   1.743   6.802  0.1908 -0.8617 -1.7504
  153SAPE  C21016973   4.697   1.550   6.887  0.1365 -0.5587 -0.3490
  153SAPE  H10R16974   4.734   1.491   6.801 -2.5507  0.2384 -2.2059
  153SAPE  H10S16975   4.645   1.468   6.941  2.1038 -1.8039 -0.2564
  153SAPE  C21116976   4.815   1.610   6.965 -0.5018  0.3482  0.3512
  153SAPE  H11R16977   4.904   1.644   6.909 -1.2017  0.5075 -0.6880
  153SAPE  C21216978   4.819   1.624   7.100  0.0821  0.6715 -0.0131
  153SAPE  H12R16979   4.910   1.666   7.145 -0.7586  1.0770  1.3617
  153SAPE  C21316980   4.714   1.598   7.206  0.2673  0.3329  0.1862
  153SAPE  H13R16981   4.632   1.541   7.157 -0.2449  2.4709 -1.5937
  153SAPE  H13S16982   4.672   1.699   7.222 -0.4331  0.6740 -3.1588
  153SAPE  C21416983   4.747   1.530   7.333 -0.3543  0.8286 -0.7125
  153SAPE  H14R16984   4.840   1.577   7.368  0.3941 -1.1780  0.1541
  153SAPE  C21516985   4.694   1.415   7.392 -0.5893 -0.7112 -0.2252
  153SAPE  H15R16986   4.728   1.407   7.496  1.7847  1.9428 -0.6769
  153SAPE  C21616987   4.593   1.325   7.333 -0.2235  0.4150  0.3511
  153SAPE  H16R16988   4.624   1.219   7.331 -1.2680  0.1045 -0.0337
  153SAPE  H16S16989   4.576   1.361   7.229 -0.8884 -0.1241  0.2665
  153SAPE  C21716990   4.458   1.329   7.408 -0.4620  0.9938 -0.1099
  153SAPE  H17R16991   4.434   1.433   7.441 -1.4191  0.3785  1.2212
  153SAPE  H17S16992   4.477   1.280   7.506  0.9537  1.2864 -0.2151
  153SAPE  C21816993   4.337   1.273   7.319 -0.7507  0.2529  0.2716
  153SAPE  H18R16994   4.244   1.292   7.377 -2.7398 -1.1684 -2.1856
  153SAPE  H18S16995   4.358   1.165   7.305  2.1799  0.6798  0.7763
  153SAPE  C21916996   4.326   1.344   7.186 -0.0014 -0.2777  0.2182
  153SAPE  H19R16997   4.400   1.298   7.118 -0.1657 -0.2640  0.0295
  153SAPE  H19S16998   4.334   1.454   7.204 -0.6887 -0.2795  0.5868
  153SAPE  C22016999   4.190   1.327   7.116  0.3281 -0.0614  0.3523
  153SAPE  H20R17000   4.113   1.391   7.164  1.6235  0.8849  1.2266
  153SAPE  H20S17001   4.162   1.220   7.114 -0.2065  0.0561  0.9223
  153SAPE  H20T17002   4.202   1.361   7.011  1.2040 -0.2414  0.3849
  153SAPE   C3317003   4.152   0.890   6.739  0.3858 -0.3168 -0.0594
  153SAPE   H3X17004   4.128   0.805   6.671 -3.0205  0.5950 -0.1909
  153SAPE   H3Y17005   4.060   0.950   6.754  2.0005  2.0919  0.7946
  153SAPE   C3417006   4.211   0.838   6.876 -0.3294  0.1518  0.2232
  153SAPE   H4X17007   4.229   0.913   6.956  1.4831 -2.1650  2.1252
  153SAPE   H4Y17008   4.315   0.809   6.851 -0.4366 -0.8384  0.8711
  153SAPE   C3517009   4.141   0.713   6.942  0.5335 -0.1330  0.0653
  153SAPE   H5X17010   4.160   0.626   6.876 -0.6809 -1.4091  1.3132
  153SAPE   H5Y17011   4.033   0.735   6.930  0.1534 -1.3221  1.0970
  153SAPE   C3617012   4.190   0.684   7.080  0.4871 -0.2891  0.2444
  153SAPE   H6X17013   4.301   0.688   7.078  0.5099 -1.0408 -0.5419
  153SAPE   H6Y17014   4.161   0.582   7.113 -2.6234  1.2486  2.8736
  153SAPE   C3717015   4.130   0.784   7.179  0.6510 -0.1846 -0.1466
  153SAPE   H7X17016   4.020   0.776   7.169  0.7108 -0.1048 -0.9819
  153SAPE   H7Y17017   4.177   0.883   7.158  1.5456 -0.1408  1.8615
  153SAPE   C3817018   4.168   0.740   7.324  0.5901  0.5071 -0.3978
  153SAPE   H8X17019   4.277   0.720   7.331  1.1075  2.7315 -1.1381
  153SAPE   H8Y17020   4.112   0.647   7.346 -1.9640  2.1819  0.7282
  153SAPE   C3917021   4.117   0.846   7.425  0.1290  0.5176  0.7306
  153SAPE   H9X17022   4.007   0.860   7.413  0.4126  0.3205 -4.4176
  153SAPE   H9Y17023   4.158   0.945   7.398  1.7411 -0.8648 -2.4389
  153SAPE  C31017024   4.142   0.819   7.567  0.6257  0.2195 -0.2532
  153SAPE  H10X17025   4.245   0.788   7.595  0.0706  0.0821  1.8354
  153SAPE  H10Y17026   4.068   0.744   7.604  1.4184 -0.4000  0.1297
  153SAPE  C31117027   4.124   0.941   7.656 -0.0294 -0.1257 -0.1098
  153SAPE  H11X17028   4.015   0.959   7.644  0.0233  0.6812  0.5232
  153SAPE  H11Y17029   4.182   1.025   7.612  0.3695 -1.1349 -1.5889
  153SAPE  C31217030   4.162   0.918   7.806 -0.3706  0.5058  0.0116
  153SAPE  H12X17031   4.272   0.907   7.807 -0.4813 -0.8931  1.2893
  153SAPE  H12Y17032   4.130   0.815   7.833 -1.9352  1.2992  1.4130
  153SAPE  C31317033   4.107   1.020   7.915  0.3971  1.2307  0.2575
  153SAPE  H13X17034   4.006   1.062   7.895  1.9667  4.5699 -1.5211
  153SAPE  H13Y17035   4.163   1.115   7.902  1.9603  0.2398 -0.5111
  153SAPE  C31417036   4.113   0.978   8.059 -0.2116  0.1423 -0.5214
  153SAPE  H14X17037   4.047   0.892   8.084 -2.4825  2.6053  2.8194
  153SAPE  H14Y17038   4.070   1.059   8.121  1.1436  1.9142 -1.7804
  153SAPE  C31517039   4.259   0.955   8.113 -0.8635 -0.1275  0.3896
  153SAPE  H15X17040   4.330   1.021   8.059  0.1470 -0.9902  0.6391
  153SAPE  H15Y17041   4.288   0.855   8.075 -0.2162 -0.9904  2.9937
  153SAPE  C31617042   4.272   0.978   8.268  0.7931 -0.3686 -0.2066
  153SAPE  H16X17043   4.214   0.894   8.312  0.3600  0.2946  0.5176
  153SAPE  H16Y17044   4.229   1.079   8.289 -0.3819 -0.8465 -0.2710
  153SAPE  C31717045   4.409   0.958   8.331 -0.3368 -0.0955 -0.4871
  153SAPE  H17X17046   4.455   0.866   8.287  0.4300  0.3258 -0.5712
  153SAPE  H17Y17047   4.392   0.941   8.439 -0.2132 -1.3480 -0.6430
  153SAPE  C31817048   4.506   1.077   8.307  0.6925 -0.3428  0.2841
  153SAPE  H18X17049   4.603   1.052   8.354  1.5767  0.1891 -1.1986
  153SAPE  H18Y17050   4.459   1.170   8.346 -0.3084 -0.5653 -0.3505
  153SAPE  H18Z17051   4.523   1.085   8.198  0.6511 -2.0227  0.1301
  154SAPE     N17052   1.514   6.634   6.438  0.3569  0.0575 -0.4299
  154SAPE   HN117053   1.485   6.541   6.400  1.1550 -0.2346 -0.3461
  154SAPE   HN217054   1.571   6.606   6.521 -0.2538 -0.5070 -0.1895
  154SAPE   HN317055   1.434   6.684   6.482 -0.4909 -0.7400 -1.0335
  154SAPE   C1217056   1.602   6.725   6.356 -0.0812  0.7458 -0.4785
  154SAPE  H12A17057   1.627   6.800   6.435  0.6688 -0.4534  0.4543
  154SAPE  H12B17058   1.560   6.772   6.265  1.6571 -1.5263 -2.5589
  154SAPE   C1117059   1.729   6.658   6.316  0.6650 -0.1495  0.4102
  154SAPE  H11A17060   1.796   6.636   6.402 -1.4477  1.5119  2.6039
  154SAPE  H11B17061   1.797   6.728   6.262  1.3289 -0.8738  0.2873
  154SAPE     P17062   1.804   6.432   6.217  0.1607 -0.0362 -0.4194
  154SAPE   O1317063   1.741   6.323   6.141  0.5512 -0.0733 -0.2353
  154SAPE   O1417064   1.921   6.493   6.156 -0.0930 -0.1311 -0.1564
  154SAPE   O1217065   1.699   6.544   6.236 -0.3027 -0.7337 -0.2474
  154SAPE   O1117066   1.842   6.380   6.356 -0.1426  0.3339 -0.1767
  154SAPE    C117067   1.740   6.289   6.414 -0.1173  0.5417  0.2278
  154SAPE    HA17068   1.641   6.339   6.421 -0.6176 -0.1852 -1.2427
  154SAPE    HB17069   1.734   6.192   6.361  1.1105 -0.7665  2.3201
  154SAPE    C217070   1.794   6.236   6.561  0.4384  0.2632 -0.0878
  154SAPE    HS17071   1.704   6.205   6.618  0.4502 -2.7644 -1.5407
  154SAPE   O2117072   1.867   6.333   6.634  0.1443  0.4465 -0.3929
  154SAPE   C2117073   1.791   6.442   6.656  0.5127 -0.4081 -0.0587
  154SAPE   O2217074   1.673   6.463   6.621 -0.4818 -0.5119  0.2035
  154SAPE   C2217075   1.883   6.545   6.728 -0.5701  0.4611 -0.0780
  154SAPE   H2R17076   1.916   6.486   6.816 -0.3923 -1.4058 -1.3286
  154SAPE   H2S17077   1.967   6.567   6.659  0.9225  0.7657  1.7633
  154SAPE    C317078   1.893   6.113   6.544  0.2395  0.2388 -0.5098
  154SAPE    HX17079   1.982   6.149   6.488  0.2418  0.6194 -0.2680
  154SAPE    HY17080   1.843   6.034   6.484 -0.7090  1.0602 -0.8462
  154SAPE   O3117081   1.938   6.061   6.663  0.2885  0.3691  0.0578
  154SAPE   C3117082   2.064   6.075   6.707  0.1992 -0.3687  0.2887
  154SAPE   O3217083   2.152   6.139   6.645  0.4199 -0.4137  0.0630
  154SAPE   C3217084   2.088   5.998   6.843 -0.2774  0.4273 -0.0647
  154SAPE   H2X17085   2.055   5.892   6.839  1.7282 -0.2774  0.5678
  154SAPE   H2Y17086   2.024   6.047   6.919 -0.6494 -0.8560  0.4643
  154SAPE   C2317087   1.810   6.671   6.785  0.2911 -0.4058 -0.1062
  154SAPE   H3R17088   1.715   6.687   6.729 -0.2847  0.0179  0.9532
  154SAPE   H3S17089   1.875   6.758   6.763 -0.5968 -0.0505 -1.4338
  154SAPE   C2417090   1.770   6.669   6.933  0.2082  0.1274 -0.1005
  154SAPE   H4R17091   1.856   6.628   6.990 -0.6220 -0.0572  1.0458
  154SAPE   H4S17092   1.686   6.597   6.946  0.8065 -0.3627  1.1324
  154SAPE   C2517093   1.741   6.803   6.987  0.2021  0.8715 -0.1371
  154SAPE   H5R17094   1.741   6.883   6.912 -0.4424  0.6362 -0.3993
  154SAPE   C2617095   1.712   6.837   7.118 -0.5754  0.3369  0.4948
  154SAPE   H6R17096   1.704   6.943   7.145 -0.0678  0.6883 -0.6769
  154SAPE   C2717097   1.687   6.748   7.234 -0.6739  0.1462 -0.5603
  154SAPE   H7R17098   1.777   6.771   7.295 -1.5481  1.5668  0.2315
  154SAPE   H7S17099   1.699   6.640   7.211  3.9181  0.2453  0.4062
  154SAPE   C2817100   1.557   6.784   7.303  0.4765 -0.3977 -0.1101
  154SAPE   H8R17101   1.476   6.814   7.235 -0.0679 -0.4069  0.5341
  154SAPE   C2917102   1.538   6.796   7.438 -0.0473 -0.8229 -0.0466
  154SAPE   H9R17103   1.442   6.834   7.477 -0.3704 -0.7405 -0.8929
  154SAPE  C21017104   1.637   6.783   7.547 -0.2596 -0.9601 -0.4243
  154SAPE  H10R17105   1.639   6.881   7.599 -1.3510 -0.6005 -1.0327
  154SAPE  H10S17106   1.741   6.761   7.513 -0.4509 -0.4229 -1.3693
  154SAPE  C21117107   1.600   6.671   7.644 -0.5534  0.2010  0.2840
  154SAPE  H11R17108   1.617   6.572   7.598 -1.8949 -0.4035  1.0283
  154SAPE  C21217109   1.559   6.678   7.766  0.0562  0.1354 -0.4960
  154SAPE  H12R17110   1.541   6.588   7.825  0.6715  1.4526  1.8295
  154SAPE  C21317111   1.530   6.801   7.841  0.1614  0.6434 -0.5809
  154SAPE  H13R17112   1.454   6.771   7.917  0.2314 -1.8092 -1.3881
  154SAPE  H13S17113   1.487   6.878   7.774  0.1977  0.6938 -0.5456
  154SAPE  C21417114   1.652   6.857   7.906 -0.5368 -0.0132 -0.2439
  154SAPE  H14R17115   1.729   6.893   7.837  0.4101  1.5900  1.5447
  154SAPE  C21517116   1.677   6.870   8.038  0.1290  0.3618  0.4175
  154SAPE  H15R17117   1.771   6.920   8.069 -0.1969  0.3346  1.5138
  154SAPE  C21617118   1.598   6.832   8.162 -1.1338  0.4012  1.3401
  154SAPE  H16R17119   1.488   6.832   8.147 -1.6344 -0.6470  4.3620
  154SAPE  H16S17120   1.615   6.912   8.238  1.2502  2.4375 -1.1014
  154SAPE  C21717121   1.658   6.695   8.201 -0.0767 -0.1674 -0.2198
  154SAPE  H17R17122   1.763   6.701   8.238 -0.4016  1.9537  0.5232
  154SAPE  H17S17123   1.657   6.624   8.116  0.3321 -1.5521  0.8987
  154SAPE  C21817124   1.574   6.631   8.310  0.0004 -0.4925 -0.2628
  154SAPE  H18R17125   1.474   6.625   8.261  1.6171 -1.9527 -3.7669
  154SAPE  H18S17126   1.560   6.700   8.395  2.1609 -1.0206  0.5785
  154SAPE  C21917127   1.605   6.486   8.365 -0.7587  0.3731 -0.2812
  154SAPE  H19R17128   1.594   6.422   8.276  0.2045 -1.4204  0.8126
  154SAPE  H19S17129   1.519   6.467   8.432 -1.3021  3.8545  0.2143
  154SAPE  C22017130   1.739   6.459   8.440 -0.2826  0.3777 -0.1978
  154SAPE  H20R17131   1.732   6.351   8.462 -0.3470  0.4581  0.1831
  154SAPE  H20S17132   1.763   6.526   8.526  0.0034  2.2364 -1.6573
  154SAPE  H20T17133   1.819   6.474   8.364 -1.2044 -0.4677 -1.3763
  154SAPE   C3317134   2.234   6.012   6.892  0.5381  0.1665  0.0459
  154SAPE   H3X17135   2.263   6.119   6.885 -1.1178  0.8396  2.3390
  154SAPE   H3Y17136   2.294   5.948   6.823 -1.3597 -0.5211 -1.0362
  154SAPE   C3417137   2.280   5.955   7.026  0.8224  0.2117  0.0876
  154SAPE   H4X17138   2.390   5.969   7.028  0.9510 -0.7793  0.5174
  154SAPE   H4Y17139   2.249   5.848   7.026 -0.0181  0.4453  0.1513
  154SAPE   C3517140   2.214   6.034   7.144 -0.3420 -0.1573  0.6555
  154SAPE   H5X17141   2.104   6.016   7.140 -0.1577 -1.3877  0.6141
  154SAPE   H5Y17142   2.234   6.142   7.128 -1.9136  0.1143  0.3883
  154SAPE   C3617143   2.260   5.980   7.284 -0.3269 -0.1219 -0.1955
  154SAPE   H6X17144   2.370   5.980   7.299 -0.4329  1.1967  0.7857
  154SAPE   H6Y17145   2.237   5.872   7.291 -4.1687  0.5913  0.7549
  154SAPE   C3717146   2.189   6.057   7.392 -0.6826  0.1067 -0.5333
  154SAPE   H7X17147   2.080   6.032   7.396 -0.3523 -1.2752  2.0040
  154SAPE   H7Y17148   2.205   6.164   7.370  0.5806  0.6127  2.3702
  154SAPE   C3817149   2.221   6.038   7.542  0.3818  0.2945  0.3911
  154SAPE   H8X17150   2.324   6.080   7.543  0.3050  0.7602 -2.3975
  154SAPE   H8Y17151   2.209   5.930   7.565 -2.7118 -0.4099 -3.3331
  154SAPE   C3917152   2.132   6.121   7.644  0.4424  0.9590  0.0393
  154SAPE   H9X17153   2.023   6.108   7.625  0.6768 -1.6642  0.1763
  154SAPE   H9Y17154   2.126   6.231   7.628 -2.3693  0.9103  0.2657
  154SAPE  C31017155   2.175   6.091   7.789 -0.6576  0.1319 -0.1169
  154SAPE  H10X17156   2.285   6.072   7.787 -0.4020  1.4877 -0.0572
  154SAPE  H10Y17157   2.125   5.995   7.815  0.3142 -0.9714 -2.0585
  154SAPE  C31117158   2.141   6.198   7.887 -0.1970  0.2362 -0.2032
  154SAPE  H11X17159   2.035   6.221   7.866 -0.1003  0.8859 -0.0086
  154SAPE  H11Y17160   2.204   6.289   7.871  0.4358  0.3862  2.6007
  154SAPE  C31217161   2.143   6.164   8.037 -1.6146  0.5689 -0.0686
  154SAPE  H12X17162   2.230   6.097   8.051 -0.4777  2.0021 -0.0629
  154SAPE  H12Y17163   2.052   6.104   8.062  0.5806 -2.9945  0.0608
  154SAPE  C31317164   2.149   6.290   8.129  0.0354  0.4237 -0.2444
  154SAPE  H13X17165   2.080   6.369   8.094  1.2990  2.0890  0.8820
  154SAPE  H13Y17166   2.251   6.335   8.122  0.8649 -1.0449  1.4683
  154SAPE  C31417167   2.118   6.254   8.273  0.1511 -0.6971 -0.4146
  154SAPE  H14X17168   2.181   6.171   8.313  1.7463  0.8245  0.3619
  154SAPE  H14Y17169   2.010   6.232   8.286 -0.0639  1.2824  2.0497
  154SAPE  C31517170   2.145   6.372   8.370  0.1538 -0.3578 -0.2497
  154SAPE  H15X17171   2.096   6.461   8.324 -0.8424 -1.0978 -0.6374
  154SAPE  H15Y17172   2.254   6.393   8.376 -0.3740  3.2584 -1.0267
  154SAPE  C31617173   2.112   6.353   8.518  0.5677  0.4620 -0.0420
  154SAPE  H16X17174   2.150   6.250   8.530  1.1405  0.7844  1.0420
  154SAPE  H16Y17175   2.007   6.342   8.552  1.1584  1.0029  2.0575
  154SAPE  C31717176   2.171   6.445   8.617 -0.0522  0.5591 -0.2590
  154SAPE  H17X17177   2.282   6.442   8.608  0.1642  2.3077  1.2451
  154SAPE  H17Y17178   2.148   6.396   8.714 -0.8821  1.6840  0.1277
  154SAPE  C31817179   2.117   6.585   8.608  0.6244 -0.1777  0.1680
  154SAPE  H18X17180   2.008   6.593   8.628  0.6272  4.5366 -0.6425
  154SAPE  H18Y17181   2.138   6.625   8.507  0.1349 -0.6542 -0.1265
  154SAPE  H18Z17182   2.175   6.645   8.681  1.8804 -0.8011 -0.2854
  155SAPE     N17183   1.738   0.355   6.605 -0.3864 -0.0251 -0.7001
  155SAPE   HN117184   1.662   0.375   6.672  0.7818 -0.1333  0.7099
  155SAPE   HN217185   1.747   0.441   6.546 -2.1847  1.8550  1.5768
  155SAPE   HN317186   1.703   0.272   6.552  0.0912 -1.0188  0.4952
  155SAPE   C1217187   1.875   0.318   6.661  0.0363  0.1967  0.4862
  155SAPE  H12A17188   1.877   0.374   6.757  0.0964  3.2662 -1.1791
  155SAPE  H12B17189   1.950   0.368   6.596 -1.1505  0.5937 -0.6080
  155SAPE   C1117190   1.881   0.168   6.694  0.4395  0.0432  0.0336
  155SAPE  H11A17191   1.799   0.150   6.767  0.1200 -0.5061 -0.4449
  155SAPE  H11B17192   1.973   0.141   6.750  0.4805 -1.5515 -0.7433
  155SAPE     P17193   1.992   0.079   6.484  0.1814 -0.0090 -0.3777
  155SAPE   O1317194   2.023  -0.070   6.475 -0.0082 -0.1709 -0.0194
  155SAPE   O1417195   1.960   0.140   6.349  0.0090  0.2160  0.8982
  155SAPE   O1217196   1.862   0.093   6.576  0.2309  0.4179  0.0297
  155SAPE   O1117197   2.109   0.152   6.558 -0.5038  0.1932 -0.0022
  155SAPE    C117198   2.241   0.088   6.536 -0.1350 -0.2941 -0.0701
  155SAPE    HA17199   2.243  -0.014   6.494 -2.2971 -0.2386 -0.4170
  155SAPE    HB17200   2.292   0.152   6.461 -0.8855  1.3689  0.7736
  155SAPE    C217201   2.331   0.105   6.652 -0.8818 -0.0578 -0.6529
  155SAPE    HS17202   2.430   0.074   6.613 -1.7031 -1.0176 -2.0496
  155SAPE   O2117203   2.283   0.017   6.765 -0.2900 -0.5015  0.6293
  155SAPE   C2117204   2.288  -0.111   6.758  0.3350 -0.3497 -0.0011
  155SAPE   O2217205   2.336  -0.175   6.668  0.1478  0.6982  0.1346
  155SAPE   C2217206   2.242  -0.169   6.895  0.9285 -0.2562 -0.3587
  155SAPE   H2R17207   2.281  -0.114   6.983  0.5776 -1.5870  0.6662
  155SAPE   H2S17208   2.133  -0.152   6.900  0.8191 -1.2229  1.1305
  155SAPE    C317209   2.346   0.249   6.712  0.1213  0.1294  0.5708
  155SAPE    HX17210   2.250   0.278   6.760  0.8104  1.6356  1.1065
  155SAPE    HY17211   2.348   0.319   6.625 -2.4814  1.6619  1.6091
  155SAPE   O3117212   2.454   0.269   6.804  0.1843 -0.3531 -0.1178
  155SAPE   C3117213   2.578   0.268   6.759  0.1560  0.6552 -0.0798
  155SAPE   O3217214   2.611   0.266   6.642  0.0245  0.5486 -0.0345
  155SAPE   C3217215   2.666   0.268   6.874 -0.8188  0.0278  0.3997
  155SAPE   H2X17216   2.709   0.369   6.883 -0.8909 -0.0389  1.7080
  155SAPE   H2Y17217   2.747   0.194   6.855 -0.8447  0.0153  0.3368
  155SAPE   C2317218   2.295  -0.315   6.902  0.3038 -0.1958 -0.2022
  155SAPE   H3R17219   2.403  -0.304   6.881  0.5731 -1.7140  0.2953
  155SAPE   H3S17220   2.245  -0.373   6.822  0.7096 -0.0503 -0.5639
  155SAPE   C2417221   2.281  -0.392   7.037  0.1853 -0.5205  0.6404
  155SAPE   H4R17222   2.331  -0.329   7.113 -2.1493  2.0079  0.2293
  155SAPE   H4S17223   2.344  -0.482   7.020  0.8942  0.3421 -1.5269
  155SAPE   C2517224   2.139  -0.428   7.069  0.0596  0.7271  0.2106
  155SAPE   H5R17225   2.104  -0.511   7.006  0.1602  0.0017  1.0831
  155SAPE   C2617226   2.079  -0.409   7.187  0.0660 -0.6306  0.4564
  155SAPE   H6R17227   1.979  -0.452   7.194 -1.1089  1.8366  0.0368
  155SAPE   C2717228   2.118  -0.338   7.315  0.1125 -0.0167  0.9416
  155SAPE   H7R17229   2.228  -0.328   7.326  0.7005 -2.0386 -2.0722
  155SAPE   H7S17230   2.102  -0.409   7.399  3.5985 -2.6678 -0.4269
  155SAPE   C2817231   2.060  -0.199   7.333 -0.5527  0.4374 -0.1244
  155SAPE   H8R17232   2.076  -0.132   7.246  1.8077 -2.0954 -1.7941
  155SAPE   C2917233   2.002  -0.152   7.441 -0.4349 -0.0880 -0.6846
  155SAPE   H9R17234   1.964  -0.049   7.438 -1.1906 -0.3311  0.1050
  155SAPE  C21017235   1.971  -0.218   7.578  0.0957  0.5771 -0.0597
  155SAPE  H10R17236   2.050  -0.293   7.603  0.5070  0.4279 -1.6451
  155SAPE  H10S17237   1.885  -0.287   7.565 -0.5117  1.3312 -0.0539
  155SAPE  C21117238   1.943  -0.131   7.697  0.6280 -0.3214  1.3155
  155SAPE  H11R17239   1.871  -0.053   7.669 -0.6980 -2.5727 -2.2351
  155SAPE  C21217240   1.988  -0.150   7.823  0.0588 -0.1597  0.4094
  155SAPE  H12R17241   1.957  -0.073   7.895 -0.9420 -0.7318  0.6138
  155SAPE  C21317242   2.073  -0.257   7.879  0.6877 -0.1545  0.1841
  155SAPE  H13R17243   2.043  -0.346   7.821 -1.3950 -1.3769  2.9068
  155SAPE  H13S17244   2.046  -0.274   7.986  0.0552  1.7435  0.3651
  155SAPE  C21417245   2.222  -0.247   7.868 -0.1057 -0.0741 -0.6827
  155SAPE  H14R17246   2.269  -0.322   7.803  1.4480 -1.0152  1.4187
  155SAPE  C21517247   2.303  -0.176   7.946  0.6859 -0.4255 -0.4118
  155SAPE  H15R17248   2.412  -0.183   7.934  1.2583  1.0649  2.8950
  155SAPE  C21617249   2.257  -0.072   8.049  0.4413  0.4162  0.8784
  155SAPE  H16R17250   2.151  -0.042   8.036 -0.2322 -1.0709  2.5762
  155SAPE  H16S17251   2.323   0.017   8.044 -0.1279  0.7994 -0.2831
  155SAPE  C21717252   2.266  -0.143   8.198  0.1283  0.1889  0.5228
  155SAPE  H17R17253   2.213  -0.239   8.180  1.5660 -0.4178 -0.6889
  155SAPE  H17S17254   2.204  -0.089   8.273 -1.6683 -1.4526  0.2963
  155SAPE  C21817255   2.416  -0.159   8.231 -0.1373 -0.3947 -0.8693
  155SAPE  H18R17256   2.465  -0.060   8.214 -1.2725  0.2434 -0.5651
  155SAPE  H18S17257   2.466  -0.233   8.165  1.1605  0.3605 -0.7704
  155SAPE  C21917258   2.450  -0.188   8.380  0.3460  0.1397  0.3497
  155SAPE  H19R17259   2.561  -0.192   8.379  0.4858  2.2594 -1.3655
  155SAPE  H19S17260   2.413  -0.289   8.406  3.6977 -1.6411 -1.2210
  155SAPE  C22017261   2.404  -0.090   8.494 -0.2095 -0.2943 -0.3257
  155SAPE  H20R17262   2.293  -0.087   8.495 -0.1859  1.1333  0.1811
  155SAPE  H20S17263   2.442   0.011   8.468  1.3259 -0.5376  0.7970
  155SAPE  H20T17264   2.454  -0.118   8.589  1.3234 -1.1294 -1.3401
  155SAPE   C3317265   2.601   0.215   7.001 -0.5775 -1.0283 -0.0738
  155SAPE   H3X17266   2.560   0.115   6.975  1.8649 -2.3942  0.9221
  155SAPE   H3Y17267   2.520   0.288   7.020  1.8004  2.1191 -1.1355
  155SAPE   C3417268   2.696   0.198   7.114 -0.1976 -0.0612  0.7659
  155SAPE   H4X17269   2.775   0.125   7.087  0.1853  0.8903 -0.8817
  155SAPE   H4Y17270   2.634   0.162   7.198  0.5203 -0.9959  0.9038
  155SAPE   C3517271   2.766   0.337   7.155 -0.0843  0.0480  0.6785
  155SAPE   H5X17272   2.697   0.421   7.131 -2.0650 -1.7347 -0.2358
  155SAPE   H5Y17273   2.864   0.349   7.105 -0.5852  1.1145 -0.1071
  155SAPE   C3617274   2.797   0.322   7.310 -0.2501 -0.3563 -0.2341
  155SAPE   H6X17275   2.862   0.237   7.340  0.2473  0.5027  1.2227
  155SAPE   H6Y17276   2.702   0.310   7.366  0.6003 -0.8275  1.1433
  155SAPE   C3717277   2.868   0.448   7.369 -0.2646 -0.2777  0.1558
  155SAPE   H7X17278   2.791   0.528   7.371  1.2881  1.3568 -1.1686
  155SAPE   H7Y17279   2.950   0.470   7.296  0.4152  0.6795  1.1615
  155SAPE   C3817280   2.931   0.438   7.512 -0.6446 -0.3129  0.1459
  155SAPE   H8X17281   3.016   0.367   7.505  1.0380  1.7184 -0.9972
  155SAPE   H8Y17282   2.855   0.418   7.591  0.2835 -1.1312  0.8580
  155SAPE   C3917283   2.992   0.570   7.548  0.3744 -0.0119  0.6174
  155SAPE   H9X17284   2.918   0.653   7.542  0.2936 -0.1573 -0.5594
  155SAPE   H9Y17285   3.066   0.594   7.469 -0.7552 -0.3087 -0.5665
  155SAPE  C31017286   3.058   0.567   7.686  0.4387  0.2678  0.6814
  155SAPE  H10X17287   3.123   0.653   7.711  1.5863 -0.5990  0.7608
  155SAPE  H10Y17288   3.119   0.475   7.690 -0.1505 -0.1560  0.2290
  155SAPE  C31117289   2.959   0.563   7.805  0.2912  0.2003  0.0165
  155SAPE  H11X17290   2.898   0.472   7.789  0.6810  0.2511 -1.9690
  155SAPE  H11Y17291   2.890   0.650   7.799 -0.3371 -0.2541  0.4936
  155SAPE  C31217292   3.033   0.572   7.934  0.1253 -1.3524  0.4237
  155SAPE  H12X17293   2.956   0.594   8.011 -0.8869 -2.1138 -0.3495
  155SAPE  H12Y17294   3.098   0.662   7.933  0.9225 -1.9020  1.1853
  155SAPE  C31317295   3.127   0.460   7.962  0.4576  0.2564  0.6629
  155SAPE  H13X17296   3.216   0.480   7.899 -0.5974  0.5635 -0.7733
  155SAPE  H13Y17297   3.076   0.365   7.934  0.1332  0.5272  0.3270
  155SAPE  C31417298   3.168   0.439   8.113 -0.2568 -0.2613 -0.0359
  155SAPE  H14X17299   3.178   0.331   8.135 -0.8707  0.0823  2.2042
  155SAPE  H14Y17300   3.087   0.470   8.182  0.4128 -0.5093  0.8827
  155SAPE  C31517301   3.296   0.519   8.147  0.2494  0.4908  0.0218
  155SAPE  H15X17302   3.264   0.623   8.127 -0.5009  0.7284  2.2235
  155SAPE  H15Y17303   3.382   0.501   8.078  0.4296  1.6546 -0.0745
  155SAPE  C31617304   3.346   0.511   8.291  0.6495  0.3613 -0.4448
  155SAPE  H16X17305   3.437   0.573   8.308  0.2640  0.5656  1.0388
  155SAPE  H16Y17306   3.376   0.406   8.311 -0.4981 -0.0309 -0.6887
  155SAPE  C31717307   3.227   0.532   8.393 -0.0267 -0.0347 -0.4273
  155SAPE  H17X17308   3.277   0.525   8.492  1.9618  0.0530 -1.3880
  155SAPE  H17Y17309   3.153   0.449   8.386  0.2838 -0.6151  2.1324
  155SAPE  C31817310   3.154   0.667   8.372  0.3271 -0.5052 -0.8318
  155SAPE  H18X17311   3.075   0.666   8.294  1.1942  0.5692 -1.7692
  155SAPE  H18Y17312   3.225   0.750   8.350  0.8586  0.3335  3.2297
  155SAPE  H18Z17313   3.116   0.695   8.473 -0.8365 -1.9667 -0.8291
  156SAPE     N17314   5.187   6.840   6.073  0.2526  0.3908 -0.5975
  156SAPE   HN117315   5.160   6.755   6.019 -0.2455 -0.4804  0.9561
  156SAPE   HN217316   5.195   6.810   6.172 -0.0518  1.5659 -0.2012
  156SAPE   HN317317   5.103   6.899   6.062 -1.7995 -2.4425 -1.1953
  156SAPE   C1217318   5.310   6.904   6.023  0.2916 -0.0610  0.1158
  156SAPE  H12A17319   5.286   6.929   5.918  2.6525 -2.2588 -1.0296
  156SAPE  H12B17320   5.394   6.832   6.030  0.8398  0.7127  2.3074
  156SAPE   C1117321   5.334   7.035   6.098  0.0371 -0.7892  0.4601
  156SAPE  H11A17322   5.240   7.094   6.105 -1.6432 -3.4259  2.7496
  156SAPE  H11B17323   5.406   7.099   6.044 -1.2476  0.1921 -0.1385
  156SAPE     P17324   5.513   7.034   6.295 -0.2262 -0.3271 -0.6113
  156SAPE   O1317325   5.568   6.908   6.359  0.3695 -0.2941  0.3645
  156SAPE   O1417326   5.606   7.108   6.208 -0.0740 -0.0949  1.0027
  156SAPE   O1217327   5.365   7.012   6.236 -0.4589  0.2580  0.2840
  156SAPE   O1117328   5.482   7.138   6.419 -0.2142  0.1681 -0.0402
  156SAPE    C117329   5.346   7.163   6.451 -0.0695  0.2993  0.0993
  156SAPE    HA17330   5.282   7.178   6.361 -1.7793 -1.7347  0.8659
  156SAPE    HB17331   5.314   7.074   6.511  0.5470  1.0859  1.6592
  156SAPE    C217332   5.329   7.291   6.541  0.5384  0.7489  0.3200
  156SAPE    HS17333   5.382   7.379   6.498  1.0118  0.5724  0.5262
  156SAPE   O2117334   5.372   7.251   6.672 -0.0702 -0.4946 -0.0795
  156SAPE   C2117335   5.474   7.314   6.727 -0.5694  0.4154  0.2672
  156SAPE   O2217336   5.550   7.393   6.677  0.5687  0.1603 -0.3846
  156SAPE   C2217337   5.480   7.268   6.876 -0.2556 -0.4656 -0.0549
  156SAPE   H2R17338   5.436   7.351   6.934 -2.0877 -1.3750 -0.0680
  156SAPE   H2S17339   5.417   7.177   6.886 -1.0566  0.1666  0.7911
  156SAPE    C317340   5.180   7.331   6.566  0.5333  0.3241  0.2793
  156SAPE    HX17341   5.136   7.233   6.595  0.4384  0.2928  0.0311
  156SAPE    HY17342   5.139   7.373   6.472  1.7866  3.0051  0.8110
  156SAPE   O3117343   5.162   7.431   6.669  0.3264  0.5493 -0.4195
  156SAPE   C3117344   5.026   7.420   6.712  0.0647  0.5285 -0.6080
  156SAPE   O3217345   4.940   7.386   6.639  0.3467 -0.5846 -0.3312
  156SAPE   C3217346   5.013   7.468   6.854 -0.3256  1.1546 -0.2134
  156SAPE   H2X17347   4.962   7.393   6.918 -0.8712 -0.4300 -2.4010
  156SAPE   H2Y17348   4.948   7.558   6.857 -0.8803  0.9852 -3.4083
  156SAPE   C2317349   5.627   7.229   6.924 -0.5312 -0.4677 -0.1693
  156SAPE   H3R17350   5.684   7.312   6.877  0.0361 -0.1103  1.1195
  156SAPE   H3S17351   5.662   7.139   6.868 -0.8260  0.0866 -1.2681
  156SAPE   C2417352   5.619   7.219   7.075  0.3708 -0.0066  0.6889
  156SAPE   H4R17353   5.540   7.148   7.105  0.8768  0.2908  2.8548
  156SAPE   H4S17354   5.578   7.319   7.100  1.8452  0.5123  1.1711
  156SAPE   C2517355   5.757   7.188   7.139  0.3915  0.8176  0.4829
  156SAPE   H5R17356   5.847   7.231   7.094  0.6600  1.9564  2.0263
  156SAPE   C2617357   5.771   7.096   7.234  0.1225 -0.4562  0.0588
  156SAPE   H6R17358   5.878   7.082   7.255  0.6164 -0.4480 -2.2444
  156SAPE   C2717359   5.668   7.021   7.309 -0.5599 -0.6458  0.1813
  156SAPE   H7R17360   5.611   6.956   7.240 -1.0670 -1.0211  0.9387
  156SAPE   H7S17361   5.594   7.094   7.350  0.3392  1.0802 -1.1580
  156SAPE   C2817362   5.732   6.925   7.414 -0.1435 -0.2920 -0.1280
  156SAPE   H8R17363   5.778   6.833   7.374  0.6691 -0.6849  1.5685
  156SAPE   C2917364   5.722   6.927   7.549 -0.4388 -0.0254  0.4061
  156SAPE   H9R17365   5.771   6.846   7.606 -0.1237  0.0165  0.1944
  156SAPE  C21017366   5.670   7.037   7.630  0.1804 -0.1662  0.0580
  156SAPE  H10R17367   5.630   6.991   7.723 -0.9892  0.1301 -0.2827
  156SAPE  H10S17368   5.579   7.077   7.582  0.2034 -0.2762 -0.0783
  156SAPE  C21117369   5.762   7.153   7.666  0.5204 -0.2953  0.9340
  156SAPE  H11R17370   5.818   7.188   7.578  0.9318 -0.2450  1.2129
  156SAPE  C21217371   5.790   7.222   7.784  0.7699  0.3599  0.3862
  156SAPE  H12R17372   5.859   7.306   7.771  0.3171  0.4224 -1.9631
  156SAPE  C21317373   5.724   7.178   7.916 -0.2204 -0.1739  0.5592
  156SAPE  H13R17374   5.714   7.068   7.911  1.5007 -0.4069  1.2677
  156SAPE  H13S17375   5.623   7.224   7.915  0.4795  1.4416 -0.6130
  156SAPE  C21417376   5.799   7.208   8.040 -0.1373 -0.3871  0.1634
  156SAPE  H14R17377   5.897   7.257   8.036  0.2533 -1.2589 -2.3729
  156SAPE  C21517378   5.758   7.177   8.162 -0.3881 -0.5847 -0.0403
  156SAPE  H15R17379   5.815   7.219   8.246  0.0527 -1.0822 -0.0828
  156SAPE  C21617380   5.637   7.090   8.209 -0.6686  0.0531 -0.6237
  156SAPE  H16R17381   5.679   6.989   8.230 -0.6004 -0.3457 -2.5078
  156SAPE  H16S17382   5.565   7.069   8.127 -2.2943 -1.2534  1.0559
  156SAPE  C21717383   5.552   7.137   8.331  0.1261 -0.0164 -0.3057
  156SAPE  H17R17384   5.620   7.130   8.418  0.5044  2.9180 -0.2901
  156SAPE  H17S17385   5.461   7.073   8.334 -0.3656  0.5352 -2.1151
  156SAPE  C21817386   5.524   7.286   8.313  0.6327 -0.0258 -0.3253
  156SAPE  H18R17387   5.618   7.341   8.335  1.1234 -1.0878  0.3029
  156SAPE  H18S17388   5.465   7.315   8.403  0.2958 -0.0337 -0.5427
  156SAPE  C21917389   5.463   7.333   8.183  0.4950 -0.7770  0.1452
  156SAPE  H19R17390   5.365   7.286   8.160 -1.0147  2.0166  0.3316
  156SAPE  H19S17391   5.532   7.299   8.103  1.2136 -0.7251  0.7339
  156SAPE  C22017392   5.456   7.483   8.182 -0.4771 -0.1453  0.3252
  156SAPE  H20R17393   5.557   7.528   8.181 -0.1704 -0.8039  0.6242
  156SAPE  H20S17394   5.397   7.524   8.267  1.7095  0.5321  1.6112
  156SAPE  H20T17395   5.421   7.511   8.081  2.2635  0.8072 -0.4412
  156SAPE   C3317396   5.142   7.504   6.927 -0.8295  0.5154 -0.2526
  156SAPE   H3X17397   5.204   7.587   6.886 -0.4175  0.4237  0.1842
  156SAPE   H3Y17398   5.208   7.415   6.938 -0.5315  1.0902  4.4205
  156SAPE   C3417399   5.098   7.527   7.075  0.1708 -0.4794 -0.8062
  156SAPE   H4X17400   5.065   7.436   7.129  1.1641 -1.6325 -2.0637
  156SAPE   H4Y17401   5.021   7.606   7.080 -2.3886 -2.8481  2.2331
  156SAPE   C3517402   5.215   7.576   7.166 -0.0252 -0.2753  0.2496
  156SAPE   H5X17403   5.232   7.673   7.115  1.8423 -1.3252 -1.2996
  156SAPE   H5Y17404   5.297   7.500   7.168 -0.3216 -0.6618 -1.1770
  156SAPE   C3617405   5.159   7.607   7.304  0.5582 -0.0380 -0.1454
  156SAPE   H6X17406   5.141   7.510   7.356  2.0144  0.3264  1.0924
  156SAPE   H6Y17407   5.056   7.642   7.280  0.0096  0.0774  2.1913
  156SAPE   C3717408   5.246   7.689   7.399  0.5548 -0.3432  0.3557
  156SAPE   H7X17409   5.336   7.625   7.411  1.7094  0.9500 -1.0067
  156SAPE   H7Y17410   5.196   7.696   7.498 -0.0411 -0.6728  0.0860
  156SAPE   C3817411   5.279   7.830   7.341  0.4604  0.5381 -0.7898
  156SAPE   H8X17412   5.182   7.882   7.325 -0.8266 -1.6457 -0.4348
  156SAPE   H8Y17413   5.337   7.805   7.250 -0.6297 -1.7367 -0.9214
  156SAPE   C3917414   5.375   7.909   7.435  0.0271  0.0526  0.0911
  156SAPE   H9X17415   5.404   8.001   7.380  1.8313  0.5009  1.6799
  156SAPE   H9Y17416   5.468   7.851   7.450 -0.1394  0.0703  1.2709
  156SAPE  C31017417   5.309   7.948   7.568  0.3888 -0.1083  0.5920
  156SAPE  H10X17418   5.284   7.858   7.629  1.9561 -1.6158 -0.8938
  156SAPE  H10Y17419   5.210   7.996   7.547 -0.1373  0.2997  3.5160
  156SAPE  C31117420   5.402   8.043   7.646 -0.0543  1.0406 -0.7037
  156SAPE  H11X17421   5.434   8.125   7.578  0.1274 -0.6630 -2.7922
  156SAPE  H11Y17422   5.484   7.984   7.692  0.9907  1.0434 -2.4754
  156SAPE  C31217423   5.323   8.101   7.774  0.1622 -0.1541  0.3414
  156SAPE  H12X17424   5.216   8.117   7.748  0.6286  0.4198 -1.4000
  156SAPE  H12Y17425   5.381   8.185   7.817  0.6805 -0.3046 -0.0459
  156SAPE  C31317426   5.328   8.008   7.898  0.2186 -0.1397 -0.2980
  156SAPE  H13X17427   5.434   7.998   7.931  0.8397 -2.4555 -2.5971
  156SAPE  H13Y17428   5.290   7.908   7.865 -0.1105 -0.6151  1.4383
  156SAPE  C31417429   5.218   8.050   7.997 -0.1701 -0.2728 -0.0304
  156SAPE  H14X17430   5.234   7.993   8.091 -1.0036  1.9328  1.5430
  156SAPE  H14Y17431   5.115   8.030   7.961 -0.3317  0.1647  0.1843
  156SAPE  C31517432   5.207   8.204   8.021 -0.1248 -0.1702  0.8257
  156SAPE  H15X17433   5.111   8.212   8.076 -1.4778 -0.9067 -1.3268
  156SAPE  H15Y17434   5.192   8.252   7.922  0.3380 -2.2742 -0.3207
  156SAPE  C31617435   5.309   8.270   8.111 -0.1295  0.0071  0.1553
  156SAPE  H16X17436   5.293   8.378   8.130 -1.5978 -0.0216 -0.7766
  156SAPE  H16Y17437   5.409   8.243   8.071  0.2045 -2.8631  2.5369
  156SAPE  C31717438   5.295   8.217   8.256  1.0007  0.0039  0.6420
  156SAPE  H17X17439   5.272   8.108   8.258  1.7109 -0.1591  0.2904
  156SAPE  H17Y17440   5.203   8.265   8.297 -0.2757 -2.7382  1.2529
  156SAPE  C31817441   5.409   8.256   8.342 -0.8370  0.2318 -0.5989
  156SAPE  H18X17442   5.503   8.220   8.295 -1.7895 -0.7125 -1.8751
  156SAPE  H18Y17443   5.396   8.224   8.447  0.6051  1.6323  0.0452
  156SAPE  H18Z17444   5.414   8.366   8.359  2.4913  0.2619 -1.1234
  157SAPE     N17445   0.540   2.982   5.840  0.4416  0.5526 -1.0909
  157SAPE   HN117446   0.632   2.935   5.850  0.7393  1.2432 -0.3876
  157SAPE   HN217447   0.464   2.911   5.847 -1.6267  2.5513 -1.9723
  157SAPE   HN317448   0.540   3.011   5.740  0.6192 -2.5122 -2.0623
  157SAPE   C1217449   0.536   3.095   5.938  0.3546  0.2509  0.0958
  157SAPE  H12A17450   0.426   3.108   5.943  0.1818 -1.0958 -0.0690
  157SAPE  H12B17451   0.588   3.184   5.895 -0.9196  1.7125  1.4187
  157SAPE   C1117452   0.584   3.065   6.080  0.4409 -0.7398  0.1703
  157SAPE  H11A17453   0.560   3.147   6.151 -1.4774 -1.3967  0.3475
  157SAPE  H11B17454   0.695   3.055   6.084  0.5254  0.0236 -0.2159
  157SAPE     P17455   0.394   2.929   6.200 -0.4693 -0.3401 -0.0549
  157SAPE   O1317456   0.357   3.049   6.279 -0.7539  0.1370 -0.3314
  157SAPE   O1417457   0.306   2.868   6.098 -0.1996 -0.5484  0.4463
  157SAPE   O1217458   0.532   2.944   6.127 -0.4804  0.7756 -0.2444
  157SAPE   O1117459   0.433   2.822   6.312  0.0017  0.4848 -0.1839
  157SAPE    C117460   0.470   2.691   6.261  0.5837 -0.0804 -0.3081
  157SAPE    HA17461   0.419   2.661   6.167 -0.8342 -1.9707  0.9813
  157SAPE    HB17462   0.576   2.690   6.229  0.7020 -0.2858  0.0805
  157SAPE    C217463   0.462   2.594   6.382 -0.9276  0.1430 -0.0577
  157SAPE    HS17464   0.353   2.574   6.396 -1.2173  1.8726  0.4965
  157SAPE   O2117465   0.515   2.661   6.494  0.6807  0.3559  0.4263
  157SAPE   C2117466   0.470   2.616   6.606  0.7410 -0.1838  0.1374
  157SAPE   O2217467   0.389   2.523   6.625 -0.3069 -0.3033 -0.0524
  157SAPE   C2217468   0.554   2.692   6.714 -0.0885 -0.2418 -0.0364
  157SAPE   H2R17469   0.660   2.666   6.692 -0.2821  0.1771 -1.6671
  157SAPE   H2S17470   0.545   2.802   6.700 -0.1585 -0.3302 -0.7250
  157SAPE    C317471   0.544   2.457   6.348  0.2175  0.9075  0.2888
  157SAPE    HX17472   0.651   2.478   6.327  1.1555 -0.9916  2.6731
  157SAPE    HY17473   0.489   2.416   6.260  0.7574 -1.7570  1.0751
  157SAPE   O3117474   0.525   2.362   6.453  0.0923  0.2349 -0.5030
  157SAPE   C3117475   0.639   2.300   6.489  0.2628  0.1952  0.0889
  157SAPE   O3217476   0.746   2.303   6.434  0.0693  0.2424 -0.4954
  157SAPE   C3217477   0.609   2.227   6.617  0.2511  0.0418 -0.3040
  157SAPE   H2X17478   0.642   2.122   6.602 -0.6056 -0.4957  1.3252
  157SAPE   H2Y17479   0.498   2.228   6.627  0.3367  0.2794  0.7322
  157SAPE   C2317480   0.517   2.648   6.858 -0.1138 -0.8367  0.4823
  157SAPE   H3R17481   0.596   2.676   6.931  0.3631  2.5709 -1.1639
  157SAPE   H3S17482   0.531   2.539   6.875 -0.6750 -0.7362  1.6803
  157SAPE   C2417483   0.387   2.715   6.906  0.7735  0.2717  0.2251
  157SAPE   H4R17484   0.319   2.736   6.820 -0.2698 -1.7121  0.4946
  157SAPE   H4S17485   0.402   2.822   6.932 -1.2126  1.0631 -1.5487
  157SAPE   C2517486   0.312   2.631   7.010 -0.3959 -0.7205  0.7495
  157SAPE   H5R17487   0.244   2.559   6.961  0.3020  0.0013 -1.4185
  157SAPE   C2617488   0.324   2.640   7.140  0.9700  0.3039  0.3199
  157SAPE   H6R17489   0.266   2.577   7.209 -1.7725  2.3916  0.1284
  157SAPE   C2717490   0.405   2.736   7.216  0.2098 -0.4777  0.2986
  157SAPE   H7R17491   0.336   2.788   7.285 -0.7499 -0.1793 -0.8642
  157SAPE   H7S17492   0.451   2.808   7.144 -2.5162 -0.0935 -1.1826
  157SAPE   C2817493   0.521   2.685   7.294 -0.9146  0.2945  0.2370
  157SAPE   H8R17494   0.604   2.649   7.232 -1.6790 -1.2783  0.0906
  157SAPE   C2917495   0.544   2.693   7.426  0.1039 -0.2516  0.8356
  157SAPE   H9R17496   0.645   2.671   7.463  0.7540  0.5794 -0.3635
  157SAPE  C21017497   0.448   2.751   7.531 -0.6547 -0.1534  0.1283
  157SAPE  H10R17498   0.342   2.742   7.500 -0.8816 -0.8988  1.0798
  157SAPE  H10S17499   0.462   2.861   7.541  0.0029 -0.1360 -0.8275
  157SAPE  C21117500   0.441   2.696   7.672  0.4029 -0.2994 -0.2826
  157SAPE  H11R17501   0.484   2.595   7.680  0.3760 -0.3452 -0.6813
  157SAPE  C21217502   0.401   2.759   7.788 -0.6886  0.2699  1.2976
  157SAPE  H12R17503   0.404   2.698   7.880 -1.6917 -1.5625  0.1878
  157SAPE  C21317504   0.357   2.901   7.798 -0.5591  0.3972  0.5050
  157SAPE  H13R17505   0.258   2.918   7.751 -1.0654 -0.0120  1.4132
  157SAPE  H13S17506   0.430   2.970   7.750 -1.1123  1.6872  1.4548
  157SAPE  C21417507   0.359   2.952   7.940 -0.0768 -0.4761  0.5896
  157SAPE  H14R17508   0.450   2.990   7.988  0.7606 -1.1794 -0.4016
  157SAPE  C21517509   0.252   2.944   8.017  1.3586 -0.2513  0.0489
  157SAPE  H15R17510   0.266   2.964   8.124 -1.5389  0.9040  0.2884
  157SAPE  C21617511   0.113   2.889   7.978 -1.1141 -0.1553 -0.3856
  157SAPE  H16R17512   0.092   2.805   8.048 -0.7009  0.3411  0.3492
  157SAPE  H16S17513   0.111   2.834   7.881 -0.5164 -1.5077  0.3362
  157SAPE  C21717514  -0.008   2.982   7.991  0.6445  1.3044 -0.2899
  157SAPE  H17R17515  -0.106   2.936   7.965  1.5611 -1.9556  1.4943
  157SAPE  H17S17516   0.011   3.050   7.905 -0.8422 -0.3712 -2.0562
  157SAPE  C21817517  -0.015   3.057   8.129 -0.0096 -0.2023 -0.0653
  157SAPE  H18R17518   0.087   3.099   8.140  0.2717 -1.2606  1.7273
  157SAPE  H18S17519  -0.014   2.983   8.212  1.4242  1.4537  1.4793
  157SAPE  C21917520  -0.115   3.166   8.143  0.0365 -0.1814  0.2369
  157SAPE  H19R17521  -0.095   3.258   8.084 -1.7285  0.5555  0.7279
  157SAPE  H19S17522  -0.099   3.197   8.248  0.4769 -0.1470  0.1617
  157SAPE  C22017523  -0.267   3.133   8.114  0.2764 -0.0176 -0.5490
  157SAPE  H20R17524  -0.305   3.150   8.011 -0.7723  0.4242 -0.1082
  157SAPE  H20S17525  -0.328   3.202   8.177 -0.2440 -0.5109 -0.5112
  157SAPE  H20T17526  -0.284   3.029   8.149 -3.0602 -0.6191 -3.3983
  157SAPE   C3317527   0.694   2.287   6.733  0.9903 -0.0657  0.6295
  157SAPE   H3X17528   0.643   2.250   6.825  1.5480  1.2227  1.4829
  157SAPE   H3Y17529   0.684   2.397   6.724 -0.7710 -0.0333  2.3173
  157SAPE   C3417530   0.833   2.233   6.749 -0.0552  0.5030  0.3260
  157SAPE   H4X17531   0.886   2.243   6.652 -2.8604 -2.0788 -1.6704
  157SAPE   H4Y17532   0.828   2.124   6.769  0.0650 -0.1869 -2.8239
  157SAPE   C3517533   0.917   2.287   6.865 -0.4795  0.0916  0.5753
  157SAPE   H5X17534   0.866   2.274   6.962 -0.5784 -1.4965  0.3290
  157SAPE   H5Y17535   0.910   2.398   6.863 -1.5538  0.0339  0.8251
  157SAPE   C3617536   1.064   2.231   6.869  0.1896  0.6649 -0.7188
  157SAPE   H6X17537   1.119   2.305   6.932 -1.1891  0.1740  1.1806
  157SAPE   H6Y17538   1.104   2.229   6.766 -0.2226  1.4644 -0.9044
  157SAPE   C3717539   1.081   2.098   6.947 -0.2987 -0.9650  0.5635
  157SAPE   H7X17540   1.176   2.049   6.916  2.2518  4.6622 -1.7554
  157SAPE   H7Y17541   0.999   2.028   6.918 -1.7603  1.5312 -1.7160
  157SAPE   C3817542   1.078   2.110   7.100  0.2993 -0.6858  0.0702
  157SAPE   H8X17543   1.054   2.008   7.136 -3.4147 -0.0441 -0.2313
  157SAPE   H8Y17544   0.996   2.174   7.137 -1.0031 -1.8338 -0.7545
  157SAPE   C3917545   1.204   2.167   7.158  0.3032  0.3071 -0.2498
  157SAPE   H9X17546   1.208   2.278   7.150  0.7790  0.3914  0.8668
  157SAPE   H9Y17547   1.292   2.138   7.097  0.4312 -0.5387  0.3186
  157SAPE  C31017548   1.226   2.127   7.306 -0.5952 -0.1460  0.1615
  157SAPE  H10X17549   1.320   2.172   7.345 -1.0293  0.1528  0.8721
  157SAPE  H10Y17550   1.229   2.016   7.313 -0.5229 -0.3383 -2.0855
  157SAPE  C31117551   1.117   2.178   7.402 -1.1155 -0.1813  0.2210
  157SAPE  H11X17552   1.026   2.115   7.392 -0.0327 -1.8865  0.6398
  157SAPE  H11Y17553   1.089   2.285   7.395 -1.2629 -0.0585  2.2301
  157SAPE  C31217554   1.145   2.150   7.550 -0.4746  0.0432  0.0689
  157SAPE  H12X17555   1.230   2.216   7.577 -1.1720  2.0510 -2.2917
  157SAPE  H12Y17556   1.176   2.047   7.576 -0.8977  0.0481  0.6061
  157SAPE  C31317557   1.030   2.186   7.642 -0.0821 -0.0866 -0.8696
  157SAPE  H13X17558   0.932   2.157   7.599 -1.1359 -0.9923  1.9045
  157SAPE  H13Y17559   1.025   2.296   7.657  1.0852 -0.2874  1.5366
  157SAPE  C31417560   1.043   2.127   7.779 -0.7442 -0.1585  0.2019
  157SAPE  H14X17561   1.131   2.175   7.828 -1.7532  1.1804  0.7976
  157SAPE  H14Y17562   1.050   2.018   7.764  1.1514 -0.1684  0.8541
  157SAPE  C31517563   0.927   2.161   7.869  0.3335 -0.4333 -0.1114
  157SAPE  H15X17564   0.832   2.142   7.813 -0.2593  0.3003  0.6118
  157SAPE  H15Y17565   0.922   2.268   7.896 -0.6299 -0.3094 -0.7126
  157SAPE  C31617566   0.935   2.093   8.005 -0.2253 -0.5767  0.0388
  157SAPE  H16X17567   1.034   2.101   8.055  0.6995 -0.2640 -1.7398
  157SAPE  H16Y17568   0.937   1.983   7.998 -2.2617 -0.8266  2.2647
  157SAPE  C31717569   0.813   2.122   8.096 -0.3367  0.0432 -0.5238
  157SAPE  H17X17570   0.722   2.062   8.073  0.4403 -1.0157 -0.9510
  157SAPE  H17Y17571   0.787   2.229   8.084  1.0290  0.6203  1.1686
  157SAPE  C31817572   0.844   2.101   8.247  0.1132 -0.3200 -0.0817
  157SAPE  H18X17573   0.912   2.180   8.285 -0.9197 -0.1467  1.4746
  157SAPE  H18Y17574   0.890   2.001   8.258 -0.7019 -0.5083  1.9209
  157SAPE  H18Z17575   0.751   2.116   8.305 -0.2513  0.5039 -0.8492
  158SAPE     N17576   6.468   5.029   5.650 -0.0587  0.0878 -0.5185
  158SAPE   HN117577   6.381   5.082   5.673 -0.2074 -0.0535 -0.7526
  158SAPE   HN217578   6.537   5.088   5.600  0.7489 -0.4616 -0.0668
  158SAPE   HN317579   6.443   4.961   5.575  1.6308  3.0117 -4.0501
  158SAPE   C1217580   6.536   4.972   5.775 -0.2049  0.1219 -0.0778
  158SAPE  H12A17581   6.616   5.048   5.793  1.5534 -1.1540 -2.0392
  158SAPE  H12B17582   6.579   4.874   5.745  1.1454 -0.1054  2.3207
  158SAPE   C1117583   6.435   4.963   5.887  0.3929  0.0919  0.2967
  158SAPE  H11A17584   6.490   4.917   5.972  0.4989 -2.5986 -1.1017
  158SAPE  H11B17585   6.367   4.885   5.846 -1.2478  1.2387  0.7678
  158SAPE     P17586   6.419   5.203   6.001  0.0359  0.1443  0.2942
  158SAPE   O1317587   6.550   5.238   5.945 -0.9891 -0.0096 -0.0786
  158SAPE   O1417588   6.308   5.299   5.997  0.1818  0.0257  0.5907
  158SAPE   O1217589   6.367   5.085   5.915  0.3404  0.2364  0.0462
  158SAPE   O1117590   6.426   5.141   6.145  0.5894  0.4162 -0.1413
  158SAPE    C117591   6.308   5.088   6.203 -0.2718 -0.1679 -0.1919
  158SAPE    HA17592   6.233   5.171   6.201 -2.6468 -2.1929 -2.2211
  158SAPE    HB17593   6.263   5.014   6.134 -1.4359  1.0676 -0.8147
  158SAPE    C217594   6.329   5.019   6.344  0.5496  0.7337  0.8703
  158SAPE    HS17595   6.243   4.954   6.370  1.3812 -0.6087  0.3718
  158SAPE   O2117596   6.358   5.120   6.444 -0.5003 -0.4836 -0.0373
  158SAPE   C2117597   6.251   5.192   6.482 -0.5776  0.5616 -0.8269
  158SAPE   O2217598   6.134   5.163   6.464  0.7098 -0.3247  0.1064
  158SAPE   C2217599   6.301   5.316   6.554 -0.2665  0.3907 -0.3530
  158SAPE   H2R17600   6.374   5.291   6.633  1.1575 -0.1450 -1.7864
  158SAPE   H2S17601   6.326   5.389   6.474  0.4934  0.3124 -0.1860
  158SAPE    C317602   6.451   4.922   6.332 -0.5846 -0.3732  0.1617
  158SAPE    HX17603   6.523   4.976   6.266 -2.7851  1.8154 -0.6130
  158SAPE    HY17604   6.420   4.828   6.281  2.5504 -0.6551 -1.4785
  158SAPE   O3117605   6.503   4.886   6.458  0.0034  0.1230  0.4385
  158SAPE   C3117606   6.601   4.962   6.515  0.4259 -0.3365 -0.0943
  158SAPE   O3217607   6.654   5.058   6.462  0.2356 -0.2356 -0.2272
  158SAPE   C3217608   6.622   4.906   6.657  0.2405  0.5034  0.7823
  158SAPE   H2X17609   6.702   4.829   6.648  1.2461  1.6942 -1.2592
  158SAPE   H2Y17610   6.534   4.854   6.699 -0.2378 -0.2384 -1.0598
  158SAPE   C2317611   6.180   5.394   6.622 -0.2075  0.6842 -0.2165
  158SAPE   H3R17612   6.146   5.325   6.703 -0.8978 -0.9723 -1.8458
  158SAPE   H3S17613   6.102   5.409   6.545  0.2127 -1.2134 -1.0764
  158SAPE   C2417614   6.238   5.517   6.684  0.4493  0.1156  0.1737
  158SAPE   H4R17615   6.295   5.575   6.608 -0.3434  0.5761 -0.0792
  158SAPE   H4S17616   6.309   5.494   6.767  1.7454  2.5629 -0.1471
  158SAPE   C2517617   6.127   5.611   6.726  0.3983  0.3306 -0.2051
  158SAPE   H5R17618   6.061   5.640   6.643 -1.7907 -0.1749  1.2698
  158SAPE   C2617619   6.088   5.643   6.849 -0.7779  0.3283 -0.0032
  158SAPE   H6R17620   5.995   5.699   6.866 -0.9689  0.0204 -0.0483
  158SAPE   C2717621   6.148   5.576   6.971 -0.2476 -0.2976  0.1257
  158SAPE   H7R17622   6.173   5.470   6.948 -0.0997 -0.7046  1.9485
  158SAPE   H7S17623   6.071   5.553   7.048  0.6089  1.7165  1.6904
  158SAPE   C2817624   6.270   5.643   7.028 -0.5305  0.1501  0.1968
  158SAPE   H8R17625   6.344   5.680   6.955  1.7908 -1.8564  1.3428
  158SAPE   C2917626   6.298   5.668   7.158  0.4787  0.2875  0.3156
  158SAPE   H9R17627   6.383   5.734   7.179 -0.5567  1.0452  2.4403
  158SAPE  C21017628   6.203   5.627   7.268 -0.0224  0.5587 -0.1121
  158SAPE  H10R17629   6.256   5.572   7.349  0.0005  0.0945 -0.4385
  158SAPE  H10S17630   6.126   5.562   7.221 -0.8075  0.5593  1.1138
  158SAPE  C21117631   6.124   5.742   7.321  0.2167  0.3171  0.1652
  158SAPE  H11R17632   6.088   5.817   7.248  1.5152  0.4743 -0.3552
  158SAPE  C21217633   6.090   5.756   7.452 -0.0847  0.1206 -0.0801
  158SAPE  H12R17634   6.045   5.851   7.484 -0.1909  0.0217  0.0651
  158SAPE  C21317635   6.116   5.664   7.570  0.1870 -0.4449 -0.4500
  158SAPE  H13R17636   6.211   5.609   7.551  1.4691  1.0330  1.3916
  158SAPE  H13S17637   6.037   5.585   7.570 -0.2512 -0.0131  0.2655
  158SAPE  C21417638   6.117   5.747   7.699  0.5154 -0.3289 -0.1174
  158SAPE  H14R17639   6.173   5.841   7.700  3.1510 -1.8185 -0.7469
  158SAPE  C21517640   6.048   5.717   7.810  0.2549 -0.2844 -0.3994
  158SAPE  H15R17641   6.065   5.783   7.896  0.5162  0.6459 -1.1476
  158SAPE  C21617642   5.955   5.593   7.827  0.7655 -0.2690 -0.2529
  158SAPE  H16R17643   5.993   5.506   7.770  1.7155  0.0453 -0.1253
  158SAPE  H16S17644   5.864   5.624   7.771  0.2541 -1.3533 -0.0535
  158SAPE  C21717645   5.907   5.577   7.970 -0.0458  1.1249  0.5559
  158SAPE  H17R17646   5.812   5.518   7.971 -1.9825  3.9935 -0.7365
  158SAPE  H17S17647   5.873   5.675   8.010  1.2139  1.5229  0.6894
  158SAPE  C21817648   6.006   5.530   8.073  0.2902 -0.6028  0.5061
  158SAPE  H18R17649   6.105   5.578   8.055  0.4408 -1.4603 -1.0740
  158SAPE  H18S17650   6.027   5.421   8.071  1.5024 -0.3864 -1.7088
  158SAPE  C21917651   5.977   5.575   8.218 -0.1489  0.1192 -0.1548
  158SAPE  H19R17652   6.039   5.505   8.277  1.5496 -0.4671 -2.4796
  158SAPE  H19S17653   5.870   5.544   8.229 -0.3554  1.2678  1.3336
  158SAPE  C22017654   6.004   5.716   8.276 -0.1307 -0.2260  0.6428
  158SAPE  H20R17655   6.097   5.765   8.239 -0.9598 -0.7005 -2.2442
  158SAPE  H20S17656   6.004   5.717   8.387 -1.6784  0.8199  0.6638
  158SAPE  H20T17657   5.919   5.779   8.241  0.2600  0.4555  0.8819
  158SAPE   C3317658   6.661   5.018   6.749  0.5339 -0.0416 -0.2771
  158SAPE   H3X17659   6.724   5.087   6.688 -2.7748  2.4108 -1.1564
  158SAPE   H3Y17660   6.727   4.983   6.831  3.0484 -0.9777 -2.5354
  158SAPE   C3417661   6.536   5.098   6.791 -0.1155 -0.2885  0.1995
  158SAPE   H4X17662   6.473   5.023   6.844 -1.7277 -0.1585 -1.4425
  158SAPE   H4Y17663   6.483   5.119   6.696  0.7270  1.0412 -0.0084
  158SAPE   C3517664   6.558   5.227   6.875  0.0341  0.7245 -0.2396
  158SAPE   H5X17665   6.462   5.283   6.881 -0.0162  0.5180  1.4055
  158SAPE   H5Y17666   6.633   5.290   6.823  2.7020 -1.4455  0.7369
  158SAPE   C3617667   6.606   5.199   7.019  0.0483 -0.1578  0.3606
  158SAPE   H6X17668   6.713   5.171   7.003 -0.3704 -1.3058 -0.5760
  158SAPE   H6Y17669   6.554   5.113   7.066  3.1441 -1.2288  2.1802
  158SAPE   C3717670   6.608   5.313   7.117  0.1881  0.2195  0.3818
  158SAPE   H7X17671   6.647   5.403   7.064  2.9323 -0.4164  1.1655
  158SAPE   H7Y17672   6.505   5.346   7.140  0.0960  0.3750 -0.2382
  158SAPE   C3817673   6.698   5.293   7.244  0.5013 -0.4940 -0.2870
  158SAPE   H8X17674   6.806   5.272   7.226  0.3180 -0.5840 -1.3337
  158SAPE   H8Y17675   6.657   5.206   7.298  1.4813 -0.5847  0.3341
  158SAPE   C3917676   6.671   5.408   7.343 -0.9880  0.9133  0.5346
  158SAPE   H9X17677   6.561   5.425   7.354 -1.5001  0.2657 -2.5616
  158SAPE   H9Y17678   6.703   5.499   7.288  0.7632 -0.7083 -1.2787
  158SAPE  C31017679   6.741   5.377   7.474 -0.7608  0.0531 -0.5908
  158SAPE  H10X17680   6.849   5.357   7.461 -0.7935 -2.8231  2.2274
  158SAPE  H10Y17681   6.700   5.281   7.513  0.1449 -0.4378 -0.8368
  158SAPE  C31117682   6.729   5.497   7.576  0.1213  0.8498  0.1357
  158SAPE  H11X17683   6.622   5.506   7.603  0.0763  1.9182 -0.3463
  158SAPE  H11Y17684   6.770   5.597   7.549  2.2472  0.5819  1.9817
  158SAPE  C31217685   6.789   5.459   7.714  0.0575 -0.0239 -0.1202
  158SAPE  H12X17686   6.896   5.428   7.718 -0.1247 -0.9041 -1.2768
  158SAPE  H12Y17687   6.743   5.362   7.742  0.5475 -0.2590 -0.1249
  158SAPE  C31317688   6.760   5.566   7.818 -0.0364  0.1091 -0.1497
  158SAPE  H13X17689   6.655   5.605   7.817  0.0389  0.3112 -0.8859
  158SAPE  H13Y17690   6.816   5.660   7.799  1.0383  0.0443  2.3013
  158SAPE  C31417691   6.804   5.513   7.961 -0.0094 -0.1179  0.2715
  158SAPE  H14X17692   6.905   5.468   7.952  0.6274  1.5137 -1.4697
  158SAPE  H14Y17693   6.736   5.434   7.999 -1.7546  1.6463  1.0767
  158SAPE  C31517694   6.812   5.629   8.067 -0.8585 -0.2369  0.7688
  158SAPE  H15X17695   6.713   5.678   8.082 -1.0881 -0.5395  0.2627
  158SAPE  H15Y17696   6.872   5.710   8.020 -2.3463  0.2845 -0.3142
  158SAPE  C31617697   6.886   5.583   8.196  0.1948  0.4129 -0.3164
  158SAPE  H16X17698   6.991   5.555   8.170  0.6019  0.5372  1.1048
  158SAPE  H16Y17699   6.845   5.497   8.253  0.7974  0.8264  0.7947
  158SAPE  C31717700   6.914   5.696   8.296  0.2246  0.7431 -0.5720
  158SAPE  H17X17701   6.823   5.756   8.317 -1.2277 -1.2734 -0.8197
  158SAPE  H17Y17702   6.982   5.768   8.246 -0.9443  2.3006 -0.0046
  158SAPE  C31817703   6.984   5.639   8.424  0.2457  0.5268 -0.1523
  158SAPE  H18X17704   6.914   5.572   8.479 -1.0560  1.6092 -0.4434
  158SAPE  H18Y17705   6.989   5.723   8.497 -0.5885 -0.5823  1.2317
  158SAPE  H18Z17706   7.080   5.590   8.397  0.2004  0.7990 -0.8071
  159SAPE     N17707   5.591   2.654   5.768 -0.0907 -0.4838 -0.0340
  159SAPE   HN117708   5.679   2.641   5.714  1.0152 -3.2562  2.1748
  159SAPE   HN217709   5.496   2.636   5.728  0.6465  1.4254 -2.8957
  159SAPE   HN317710   5.600   2.755   5.790  0.4401 -0.6210  0.3864
  159SAPE   C1217711   5.618   2.570   5.890  0.0709 -0.1822 -0.5406
  159SAPE  H12A17712   5.719   2.599   5.926 -0.5842 -0.1530  1.4004
  159SAPE  H12B17713   5.631   2.465   5.856 -1.1225 -0.0320 -1.5418
  159SAPE   C1117714   5.506   2.586   5.993  0.2848  0.3347  0.2978
  159SAPE  H11A17715   5.519   2.512   6.074  1.5750 -0.3795 -0.5248
  159SAPE  H11B17716   5.407   2.565   5.945  0.5383  2.2492 -1.1777
  159SAPE     P17717   5.581   2.807   6.141 -0.1694 -0.1402  0.0387
  159SAPE   O1317718   5.715   2.746   6.145 -0.5474 -0.3535  0.5768
  159SAPE   O1417719   5.576   2.951   6.102 -0.3777 -0.0229  0.0456
  159SAPE   O1217720   5.493   2.720   6.042 -0.1429 -0.7894 -0.0348
  159SAPE   O1117721   5.513   2.781   6.288 -0.0562 -0.0364  0.2285
  159SAPE    C117722   5.383   2.724   6.304 -0.3837  0.4387  0.6773
  159SAPE    HA17723   5.306   2.796   6.268 -1.4774 -1.3220 -0.6683
  159SAPE    HB17724   5.376   2.624   6.258 -0.4422  0.0697  1.4784
  159SAPE    C217725   5.348   2.710   6.455  0.6951 -0.0109 -0.1516
  159SAPE    HS17726   5.397   2.795   6.508  0.5685  1.0613 -1.6800
  159SAPE   O2117727   5.397   2.589   6.504  0.0264  0.1214 -0.7602
  159SAPE   C2117728   5.517   2.578   6.548 -0.1953  0.1725  0.3159
  159SAPE   O2217729   5.590   2.675   6.565  0.1147  0.3482  0.3763
  159SAPE   C2217730   5.550   2.425   6.588 -1.0678  0.2663  0.1215
  159SAPE   H2R17731   5.524   2.369   6.495  1.4157 -1.4617  0.3680
  159SAPE   H2S17732   5.660   2.419   6.595 -0.8131  1.1213 -2.2395
  159SAPE    C317733   5.190   2.709   6.458 -0.1468  0.3126  0.3059
  159SAPE    HX17734   5.165   2.621   6.396  0.6247 -0.5862  1.2355
  159SAPE    HY17735   5.156   2.796   6.397 -0.3196 -0.7977 -1.2396
  159SAPE   O3117736   5.128   2.703   6.587  0.1508 -0.2945 -0.2307
  159SAPE   C3117737   5.074   2.590   6.625  0.2285 -0.2124  0.8023
  159SAPE   O3217738   5.053   2.488   6.559 -0.5835 -0.0965  0.1308
  159SAPE   C3217739   5.045   2.588   6.769 -0.1172 -0.2355  0.0647
  159SAPE   H2X17740   4.940   2.613   6.796  0.9958  1.5747  3.3606
  159SAPE   H2Y17741   5.114   2.658   6.821  1.8603 -1.6944 -0.4728
  159SAPE   C2317742   5.478   2.368   6.716  0.2950  0.4398 -0.4227
  159SAPE   H3R17743   5.372   2.354   6.686  0.6344 -0.1609 -1.3976
  159SAPE   H3S17744   5.469   2.435   6.804 -0.8393  0.4811 -0.5520
  159SAPE   C2417745   5.535   2.225   6.753 -0.2861  0.1472 -0.2969
  159SAPE   H4R17746   5.599   2.243   6.842 -0.1032 -2.0281  0.0512
  159SAPE   H4S17747   5.602   2.178   6.679 -0.1472 -3.1112  1.7064
  159SAPE   C2517748   5.425   2.127   6.776 -0.0587 -0.1177 -0.7107
  159SAPE   H5R17749   5.383   2.084   6.685  0.5130 -0.7041 -0.7105
  159SAPE   C2617750   5.389   2.083   6.900  1.0744 -0.6580  0.0939
  159SAPE   H6R17751   5.311   2.009   6.922 -1.5413  1.6232 -0.8805
  159SAPE   C2717752   5.438   2.136   7.036  0.0092 -0.2969 -0.1831
  159SAPE   H7R17753   5.547   2.149   7.024  0.1921  0.5703  1.9519
  159SAPE   H7S17754   5.417   2.062   7.117 -0.9363  1.0042  0.8084
  159SAPE   C2817755   5.369   2.272   7.061  0.0302 -0.4285  0.0839
  159SAPE   H8R17756   5.339   2.326   6.970 -3.1264 -2.7988 -0.4455
  159SAPE   C2917757   5.337   2.325   7.179  0.4529  0.3415 -0.2129
  159SAPE   H9R17758   5.276   2.417   7.179 -2.6089 -1.5534 -0.3084
  159SAPE  C21017759   5.367   2.256   7.311 -0.0040 -0.0876 -0.2546
  159SAPE  H10R17760   5.432   2.166   7.300  0.5768  0.1589  0.9757
  159SAPE  H10S17761   5.270   2.215   7.348  0.6258 -3.8510 -2.2063
  159SAPE  C21117762   5.421   2.353   7.415 -0.5076  0.0013 -1.1181
  159SAPE  H11R17763   5.462   2.447   7.373  1.9730  0.2086  1.4647
  159SAPE  C21217764   5.431   2.336   7.552  0.5620 -0.4548  0.3548
  159SAPE  H12R17765   5.475   2.416   7.613 -0.8958  0.3568  0.3793
  159SAPE  C21317766   5.395   2.210   7.624  0.2533 -0.0218 -0.1626
  159SAPE  H13R17767   5.478   2.165   7.683  1.7465  0.6749 -1.6371
  159SAPE  H13S17768   5.376   2.125   7.556  2.0103 -1.1667  0.6946
  159SAPE  C21417769   5.264   2.231   7.700  0.4606  0.4017 -0.5639
  159SAPE  H14R17770   5.191   2.263   7.624  1.4314 -0.2961 -1.8322
  159SAPE  C21517771   5.241   2.213   7.829  0.0028 -0.3300  0.1468
  159SAPE  H15R17772   5.137   2.229   7.859 -0.0762 -1.1457  0.3140
  159SAPE  C21617773   5.344   2.172   7.931 -0.2377 -0.3475 -0.2434
  159SAPE  H16R17774   5.422   2.251   7.927 -0.6767  0.3534  2.8636
  159SAPE  H16S17775   5.397   2.079   7.901 -1.4288 -0.1224 -3.4104
  159SAPE  C21717776   5.286   2.126   8.064  0.0552 -0.1464  0.1995
  159SAPE  H17R17777   5.209   2.046   8.055  0.2130 -0.5039  1.8090
  159SAPE  H17S17778   5.233   2.217   8.099  0.1040 -0.4055  0.9569
  159SAPE  C21817779   5.390   2.087   8.163  0.3189  0.5804  0.0637
  159SAPE  H18R17780   5.475   2.156   8.141 -0.4194  1.6133  0.3915
  159SAPE  H18S17781   5.419   1.981   8.152 -0.1532  0.3916  0.6187
  159SAPE  C21917782   5.353   2.108   8.309  0.2363 -0.1445  0.4105
  159SAPE  H19R17783   5.331   2.214   8.332 -0.9992 -0.4068  0.4927
  159SAPE  H19S17784   5.444   2.087   8.370 -0.2827  2.4472  2.2660
  159SAPE  C22017785   5.224   2.032   8.350 -0.3586 -0.3689 -0.0078
  159SAPE  H20R17786   5.141   2.067   8.285 -0.4380  1.0404  0.8174
  159SAPE  H20S17787   5.202   2.058   8.456 -2.9032  0.0089 -0.5589
  159SAPE  H20T17788   5.239   1.922   8.349  0.9465 -0.2332  1.2361
  159SAPE   C3317789   5.075   2.447   6.829 -0.3317  0.0299 -0.2954
  159SAPE   H3X17790   5.169   2.399   6.795 -1.3409 -2.3143  0.0287
  159SAPE   H3Y17791   4.990   2.382   6.800 -0.4845  0.3033 -0.4627
  159SAPE   C3417792   5.062   2.445   6.982 -0.7618 -0.1816  0.1325
  159SAPE   H4X17793   5.138   2.519   7.016  0.0445 -0.0473 -1.8367
  159SAPE   H4Y17794   5.097   2.344   7.011 -1.2246 -0.3840 -0.0085
  159SAPE   C3517795   4.918   2.463   7.040 -0.0980 -0.3304  0.0249
  159SAPE   H5X17796   4.844   2.399   6.988 -2.9070  3.9739 -1.8520
  159SAPE   H5Y17797   4.899   2.569   7.011  1.0075 -0.5752 -1.7672
  159SAPE   C3617798   4.900   2.471   7.197  0.4507 -0.2159  0.4100
  159SAPE   H6X17799   4.934   2.373   7.235  0.9058 -0.6074 -0.9321
  159SAPE   H6Y17800   4.794   2.486   7.226  0.3428 -0.5742  0.2066
  159SAPE   C3717801   4.987   2.578   7.274  0.0813  0.1853 -0.8996
  159SAPE   H7X17802   4.952   2.677   7.238  0.8570  1.5042  1.7108
  159SAPE   H7Y17803   5.095   2.570   7.251  0.7506  0.4684  1.8281
  159SAPE   C3817804   4.971   2.576   7.429 -0.6322  0.3628 -0.2912
  159SAPE   H8X17805   5.027   2.483   7.455 -0.1144  0.5728 -0.6359
  159SAPE   H8Y17806   4.867   2.551   7.459  0.6113 -3.3878  1.6226
  159SAPE   C3917807   5.036   2.691   7.512 -0.0688 -0.4652 -0.0921
  159SAPE   H9X17808   4.963   2.774   7.506  0.2924 -0.2424 -2.1429
  159SAPE   H9Y17809   5.128   2.727   7.461  0.9452 -1.2399  1.1309
  159SAPE  C31017810   5.065   2.659   7.658  0.2040  0.6427 -0.2808
  159SAPE  H10X17811   5.135   2.575   7.677 -0.0673  0.7245  1.1803
  159SAPE  H10Y17812   4.970   2.636   7.710 -0.5009  2.2198 -0.7974
  159SAPE  C31117813   5.125   2.779   7.738  0.3629  0.8479 -0.0537
  159SAPE  H11X17814   5.108   2.771   7.848  2.8245 -0.5490  0.3149
  159SAPE  H11Y17815   5.062   2.867   7.714  0.6377  1.2954  0.7908
  159SAPE  C31217816   5.272   2.797   7.717  0.2222  0.2012  0.1023
  159SAPE  H12X17817   5.305   2.881   7.781  2.4099 -0.3706 -0.1893
  159SAPE  H12Y17818   5.287   2.816   7.609 -0.7723  0.3771 -0.0182
  159SAPE  C31317819   5.372   2.682   7.733  1.0653 -0.0830 -0.5442
  159SAPE  H13X17820   5.473   2.726   7.720  0.9101  0.7483  0.9056
  159SAPE  H13Y17821   5.356   2.605   7.654  0.3675  0.2142 -0.6988
  159SAPE  C31417822   5.362   2.607   7.873 -0.2825  0.7529 -0.3527
  159SAPE  H14X17823   5.291   2.523   7.858  2.5005 -1.6062 -1.2894
  159SAPE  H14Y17824   5.330   2.686   7.944 -2.4448  1.0347 -1.5625
  159SAPE  C31517825   5.494   2.560   7.925  0.6092  0.2377 -0.6557
  159SAPE  H15X17826   5.566   2.645   7.927  1.5315 -0.4936  2.2841
  159SAPE  H15Y17827   5.538   2.471   7.875 -0.6441 -0.0680 -1.2587
  159SAPE  C31617828   5.474   2.531   8.072 -0.2105 -0.1170 -0.1259
  159SAPE  H16X17829   5.384   2.465   8.069 -0.7236  0.5480 -3.1787
  159SAPE  H16Y17830   5.436   2.615   8.134  0.1526 -1.5158  2.0704
  159SAPE  C31717831   5.590   2.457   8.133 -0.1840  0.5539 -0.3886
  159SAPE  H17X17832   5.602   2.360   8.081  1.1847 -0.9159  2.4475
  159SAPE  H17Y17833   5.547   2.442   8.234 -1.3072  1.5885 -0.6865
  159SAPE  C31817834   5.728   2.521   8.143 -0.2748  0.3574 -0.0700
  159SAPE  H18X17835   5.767   2.535   8.039 -2.3010  0.7996 -0.8225
  159SAPE  H18Y17836   5.793   2.453   8.202  0.9913  0.2946 -1.4540
  159SAPE  H18Z17837   5.724   2.625   8.181  1.9809 -0.8909  4.2921
  160SAPE     N17838   0.245   2.071   6.122  0.3792 -0.6639 -0.5202
  160SAPE   HN117839   0.214   2.083   6.024  0.0507  1.0284 -0.2494
  160SAPE   HN217840   0.218   1.978   6.159 -1.2102 -0.3207 -0.7302
  160SAPE   HN317841   0.199   2.143   6.183  0.8366  0.8484 -1.9017
  160SAPE   C1217842   0.392   2.085   6.143  0.9811 -0.5714  0.5476
  160SAPE  H12A17843   0.420   2.188   6.113  1.1757 -1.2501 -1.8834
  160SAPE  H12B17844   0.442   2.017   6.070 -1.2799 -0.9537 -0.7797
  160SAPE   C1117845   0.422   2.047   6.286 -0.0472  0.0505 -0.7706
  160SAPE  H11A17846   0.361   2.114   6.351 -0.8110 -0.2188 -1.1908
  160SAPE  H11B17847   0.528   2.064   6.313 -0.0066 -1.7059  0.3189
  160SAPE     P17848   0.456   1.844   6.439  0.2523  0.1083  0.0776
  160SAPE   O1317849   0.410   1.704   6.440  0.3443  0.0152 -0.0404
  160SAPE   O1417850   0.602   1.859   6.425 -0.2388 -0.5184 -0.7080
  160SAPE   O1217851   0.387   1.912   6.317 -0.2484 -0.1132 -0.0216
  160SAPE   O1117852   0.403   1.940   6.554 -0.1963  0.7042  0.1721
  160SAPE    C117853   0.267   1.946   6.591  0.4690  0.1366  0.1869
  160SAPE    HA17854   0.230   2.050   6.582 -0.6028 -0.3528 -1.5056
  160SAPE    HB17855   0.202   1.884   6.527  0.8140  1.2759 -1.3218
  160SAPE    C217856   0.234   1.912   6.740 -0.0536 -0.3294  0.5663
  160SAPE    HS17857   0.125   1.922   6.760  0.2563 -0.6310  2.6873
  160SAPE   O2117858   0.317   1.988   6.830 -0.7067  0.0798  0.0153
  160SAPE   C2117859   0.288   2.116   6.851 -1.2563 -0.2908 -0.3991
  160SAPE   O2217860   0.180   2.171   6.826  0.0788 -0.0105  0.5589
  160SAPE   C2217861   0.409   2.188   6.918  0.4228  0.3248  0.3890
  160SAPE   H2R17862   0.497   2.121   6.923 -1.3071 -1.9684  1.6946
  160SAPE   H2S17863   0.421   2.283   6.861  0.2899 -0.5467 -1.1498
  160SAPE    C317864   0.263   1.758   6.769  0.6601 -1.1625 -0.1786
  160SAPE    HX17865   0.251   1.746   6.879 -0.4817  1.6134  0.0771
  160SAPE    HY17866   0.368   1.737   6.737  1.2656  2.0691 -0.6952
  160SAPE   O3117867   0.168   1.685   6.695  0.0631  0.7363 -0.0139
  160SAPE   C3117868   0.176   1.551   6.689  0.0889  0.3168  0.1102
  160SAPE   O3217869   0.271   1.484   6.732  0.0704  0.0626  0.3963
  160SAPE   C3217870   0.051   1.504   6.627 -0.3611  0.2800  0.1507
  160SAPE   H2X17871   0.046   1.515   6.517  0.8594 -0.7902 -0.0372
  160SAPE   H2Y17872  -0.040   1.554   6.667 -1.6356 -2.8465  1.5141
  160SAPE   C2317873   0.385   2.229   7.069 -0.5110  0.5973  0.2382
  160SAPE   H3R17874   0.389   2.136   7.131 -0.2192 -1.3884 -2.5618
  160SAPE   H3S17875   0.279   2.260   7.081 -0.1774  1.4248  1.1844
  160SAPE   C2417876   0.479   2.336   7.115  0.3569  0.1226  0.0105
  160SAPE   H4R17877   0.427   2.370   7.208  0.6764  2.9466 -0.7745
  160SAPE   H4S17878   0.463   2.422   7.046  0.4186 -0.3338 -0.5779
  160SAPE   C2517879   0.623   2.297   7.133  0.2516  0.0282 -0.8178
  160SAPE   H5R17880   0.673   2.251   7.046  0.6411 -0.8617 -0.1338
  160SAPE   C2617881   0.686   2.295   7.254  0.4121  0.5619 -0.4504
  160SAPE   H6R17882   0.789   2.255   7.246  0.4428  0.9022 -2.2203
  160SAPE   C2717883   0.631   2.323   7.389  0.0101  0.2808 -0.0672
  160SAPE   H7R17884   0.579   2.421   7.387  0.9651  0.7886 -0.9399
  160SAPE   H7S17885   0.720   2.329   7.454 -0.5965  1.4319  0.6796
  160SAPE   C2817886   0.539   2.213   7.445 -0.2619 -0.7778  0.8680
  160SAPE   H8R17887   0.482   2.158   7.369  0.0423 -0.0286  0.0870
  160SAPE   C2917888   0.517   2.198   7.573  1.0287  0.0146  0.1428
  160SAPE   H9R17889   0.442   2.120   7.593  0.9664 -0.2323 -0.9431
  160SAPE  C21017890   0.573   2.288   7.685  0.1419  0.4217  0.7319
  160SAPE  H10R17891   0.534   2.391   7.672 -1.7287 -0.2892  0.3832
  160SAPE  H10S17892   0.683   2.285   7.672 -0.0870 -0.7873 -1.6276
  160SAPE  C21117893   0.542   2.232   7.817 -0.9189  0.5051 -1.3007
  160SAPE  H11R17894   0.532   2.123   7.821 -0.7501  0.4592 -1.9497
  160SAPE  C21217895   0.532   2.300   7.928 -0.0634 -0.0918 -0.7723
  160SAPE  H12R17896   0.521   2.239   8.019  1.4215  0.1364 -0.4176
  160SAPE  C21317897   0.553   2.455   7.940  0.5215 -0.0656  0.3785
  160SAPE  H13R17898   0.460   2.500   7.983  1.0585  1.0515  0.3875
  160SAPE  H13S17899   0.585   2.497   7.842  0.5155 -4.9532 -2.0192
  160SAPE  C21417900   0.656   2.480   8.049 -0.3677  0.3363 -0.1996
  160SAPE  H14R17901   0.756   2.471   8.004 -0.9894 -2.2279 -1.2697
  160SAPE  C21517902   0.638   2.499   8.181 -0.3554  0.3843 -0.7186
  160SAPE  H15R17903   0.728   2.516   8.242 -0.4970  0.5897 -0.5613
  160SAPE  C21617904   0.509   2.508   8.261  0.3484 -0.4213  0.7752
  160SAPE  H16R17905   0.425   2.471   8.199 -0.2085  1.2201  0.4872
  160SAPE  H16S17906   0.484   2.615   8.282  1.9953  0.4789 -1.4762
  160SAPE  C21717907   0.500   2.418   8.380  0.6300  0.2597  0.3535
  160SAPE  H17R17908   0.562   2.471   8.455  0.4206 -0.1840  0.8491
  160SAPE  H17S17909   0.537   2.313   8.371  0.8774  0.2960  0.8674
  160SAPE  C21817910   0.353   2.394   8.412 -0.1414  0.4205  0.6098
  160SAPE  H18R17911   0.310   2.333   8.330 -1.6099  0.7890  1.0856
  160SAPE  H18S17912   0.292   2.487   8.418 -1.6311 -0.4183 -0.9531
  160SAPE  C21917913   0.324   2.322   8.553  0.0723  0.2049  0.5842
  160SAPE  H19R17914   0.378   2.383   8.629  0.7340 -0.1549  0.4100
  160SAPE  H19S17915   0.379   2.227   8.536  2.3900  1.2281  1.8132
  160SAPE  C22017916   0.176   2.286   8.584 -0.7225 -0.3392  0.5373
  160SAPE  H20R17917   0.128   2.385   8.597  0.3673  0.1788  0.6752
  160SAPE  H20S17918   0.152   2.228   8.675 -2.0588 -0.4580  0.1299
  160SAPE  H20T17919   0.140   2.229   8.495  0.4536  3.5028 -2.7035
  160SAPE   C3317920   0.041   1.349   6.652 -0.0957  1.0132 -0.0957
  160SAPE   H3X17921   0.141   1.305   6.634 -0.7617 -0.6103 -0.0255
  160SAPE   H3Y17922  -0.027   1.299   6.580 -1.9763  1.5777  1.2148
  160SAPE   C3417923  -0.018   1.320   6.797  0.5433 -0.5415 -0.2031
  160SAPE   H4X17924  -0.123   1.353   6.803  0.8347  1.0539 -2.6578
  160SAPE   H4Y17925   0.038   1.383   6.869 -2.5815  0.4528  1.5352
  160SAPE   C3517926   0.004   1.172   6.847 -0.4429 -0.0815  0.1538
  160SAPE   H5X17927   0.081   1.116   6.788  0.1846  1.2731 -0.3550
  160SAPE   H5Y17928  -0.094   1.123   6.828 -1.4356  1.4218  1.2254
  160SAPE   C3617929   0.054   1.159   6.994 -0.5942 -0.0602 -0.0093
  160SAPE   H6X17930   0.141   1.228   7.001 -0.5591 -0.1949  0.8725
  160SAPE   H6Y17931   0.092   1.055   7.007 -3.3298 -1.1824 -0.2285
  160SAPE   C3717932  -0.057   1.192   7.089 -0.1842 -0.1807  0.3230
  160SAPE   H7X17933  -0.136   1.114   7.087 -0.9260  0.5624 -0.6245
  160SAPE   H7Y17934  -0.111   1.284   7.059 -1.1108  0.1500  2.7716
  160SAPE   C3817935   0.004   1.219   7.227  0.0950 -0.5793 -0.5986
  160SAPE   H8X17936   0.072   1.305   7.208  0.7844 -0.8927  0.4234
  160SAPE   H8Y17937   0.063   1.135   7.267 -1.2341 -1.2717 -0.0124
  160SAPE   C3917938  -0.099   1.264   7.334  0.1497 -0.1149 -0.0646
  160SAPE   H9X17939  -0.169   1.179   7.347 -0.0296  0.3121  2.0195
  160SAPE   H9Y17940  -0.156   1.351   7.293 -0.7771  0.5294  2.3860
  160SAPE  C31017941  -0.045   1.293   7.472  0.2519  0.6429  0.1992
  160SAPE  H10X17942  -0.009   1.199   7.518 -0.2580  0.7776  0.9010
  160SAPE  H10Y17943  -0.137   1.309   7.532  0.7638 -0.9317  1.4717
  160SAPE  C31117944   0.051   1.408   7.503 -0.2828  0.0975 -0.1754
  160SAPE  H11X17945  -0.001   1.504   7.521 -0.0915 -0.1008  1.5914
  160SAPE  H11Y17946   0.121   1.419   7.417  1.3975  0.0383  1.1408
  160SAPE  C31217947   0.147   1.365   7.620 -1.1032  0.5364 -0.2925
  160SAPE  H12X17948   0.233   1.432   7.635 -0.9005 -0.1374  1.9321
  160SAPE  H12Y17949   0.182   1.259   7.614 -2.1668  0.1645 -0.1628
  160SAPE  C31317950   0.075   1.354   7.758 -0.2438  0.0477 -0.3724
  160SAPE  H13X17951  -0.011   1.284   7.754 -1.9003  1.8275  1.4387
  160SAPE  H13Y17952   0.014   1.445   7.780 -0.8551 -0.6765  1.0381
  160SAPE  C31417953   0.168   1.312   7.883 -0.0782  0.5023 -0.0774
  160SAPE  H14X17954   0.246   1.390   7.893  3.3048 -2.8108  2.1094
  160SAPE  H14Y17955   0.212   1.211   7.871  1.8416  1.1721  0.9432
  160SAPE  C31517956   0.095   1.309   8.012  0.6954  0.2886 -0.2029
  160SAPE  H15X17957   0.009   1.240   7.997 -0.9829  2.4104 -0.7877
  160SAPE  H15Y17958   0.049   1.405   8.046  2.5403  1.3637 -0.6131
  160SAPE  C31617959   0.183   1.262   8.132  0.2338  0.3269 -0.0006
  160SAPE  H16X17960   0.239   1.351   8.169 -1.5670  0.4913  2.5776
  160SAPE  H16Y17961   0.261   1.188   8.105  1.9200  2.3346 -0.8782
  160SAPE  C31717962   0.102   1.208   8.254 -0.0354  0.1015  0.4648
  160SAPE  H17X17963   0.174   1.158   8.323 -0.2340 -0.5522  0.1993
  160SAPE  H17Y17964   0.043   1.121   8.219 -0.7661  0.8561 -0.2089
  160SAPE  C31817965   0.016   1.304   8.322  0.2049  0.1014 -0.3177
  160SAPE  H18X17966  -0.057   1.343   8.247 -1.4145  1.1020  1.6669
  160SAPE  H18Y17967   0.061   1.400   8.355 -0.8157  1.6173 -3.0058
  160SAPE  H18Z17968  -0.045   1.258   8.403  0.7419  0.6859  0.4285
  161SOPE     N17969   6.457   5.807  10.760 -0.4965 -0.1590  0.2644
  161SOPE   HN117970   6.404   5.740  10.819 -0.7083 -0.0006  0.2588
  161SOPE   HN217971   6.552   5.781  10.729 -1.1858 -0.6680 -1.5002
  161SOPE   HN317972   6.475   5.889  10.822 -0.0150 -0.5434  0.6356
  161SOPE   C1217973   6.375   5.866  10.648 -0.4025  0.1730 -0.8211
  161SOPE  H12A17974   6.333   5.781  10.591 -0.3797  0.8546 -1.8921
  161SOPE  H12B17975   6.446   5.913  10.577  0.1245  0.1726 -0.2972
  161SOPE   C1117976   6.260   5.954  10.703 -0.3423 -0.0346 -0.7793
  161SOPE  H11A17977   6.186   5.879  10.739  0.4435  0.5248  2.3340
  161SOPE  H11B17978   6.220   6.012  10.617  0.4895  0.8877 -0.5568
  161SOPE     P17979   6.219   6.184  10.824 -0.0898 -0.1166 -0.5637
  161SOPE   O1317980   6.287   6.260  10.936  0.2428  0.1728  0.2432
  161SOPE   O1417981   6.075   6.178  10.832  0.0511 -0.1161  0.0853
  161SOPE   O1217982   6.289   6.037  10.812 -0.1238 -0.2464  1.3894
  161SOPE   O1117983   6.257   6.260  10.693 -0.7438  0.0949 -0.2268
  161SOPE    C117984   6.398   6.277  10.650  0.4394  0.7294  1.0050
  161SOPE    HA17985   6.446   6.177  10.654 -1.4425 -0.4982 -2.4284
  161SOPE    HB17986   6.452   6.350  10.715  0.1836  0.9963  0.9208
  161SOPE    C217987   6.413   6.341  10.505 -0.3524 -0.0406  0.0106
  161SOPE    HS17988   6.367   6.442  10.516  0.2152  0.3784 -1.3644
  161SOPE   O2117989   6.341   6.253  10.417  0.3855 -0.4187  0.0476
  161SOPE   C2117990   6.241   6.297  10.342 -1.2620  0.4709  0.1751
  161SOPE   O2217991   6.215   6.413  10.319  0.2672  0.1725  0.2087
  161SOPE   C2217992   6.168   6.179  10.276  0.5284 -0.3220  0.2885
  161SOPE   H2R17993   6.150   6.096  10.347  1.0230 -0.6724  0.0141
  161SOPE   H2S17994   6.247   6.121  10.224  1.5648 -0.2134  1.6937
  161SOPE    C317995   6.561   6.369  10.460  0.2637 -0.1367  0.2928
  161SOPE    HX17996   6.624   6.278  10.474  0.4687 -0.0690 -0.1703
  161SOPE    HY17997   6.596   6.438  10.539  1.6294 -0.2797 -0.1449
  161SOPE   O3117998   6.564   6.435  10.328 -0.1853  0.5369 -0.0982
  161SOPE   C3117999   6.612   6.369  10.221 -0.4546  0.4800 -0.0399
  161SOPE   O3218000   6.657   6.258  10.227  0.2698 -0.2083  0.0596
  161SOPE   C3218001   6.578   6.437  10.083 -0.0169  0.5675  0.6258
  161SOPE   H2X18002   6.595   6.547  10.091 -0.0686  0.8144 -1.8436
  161SOPE   H2Y18003   6.474   6.411  10.055  1.3474 -1.4935 -3.2302
  161SOPE   C2318004   6.055   6.220  10.188 -0.3489 -0.2116  0.2744
  161SOPE   H3R18005   5.993   6.288  10.250 -1.5543 -0.4571 -0.6273
  161SOPE   H3S18006   5.983   6.136  10.175 -0.1064 -0.4296  0.3375
  161SOPE   C2418007   6.084   6.258  10.047 -0.9688 -0.1372 -0.4425
  161SOPE   H4R18008   6.164   6.335  10.057  0.1194 -1.2962  0.0923
  161SOPE   H4S18009   6.122   6.170   9.991 -0.3024  0.0122 -0.2371
  161SOPE   C2518010   5.966   6.330   9.983  0.7578  0.2297 -0.5500
  161SOPE   H5R18011   5.874   6.271  10.002  0.1622  1.6514  1.3302
  161SOPE   H5S18012   5.957   6.432  10.026 -1.0824 -0.7726  1.5824
  161SOPE   C2618013   5.995   6.363   9.832  0.7394 -0.1329  0.4243
  161SOPE   H6R18014   6.090   6.421   9.834  0.7463 -0.0223 -1.2289
  161SOPE   H6S18015   6.012   6.265   9.782 -2.5251 -1.5666  1.8998
  161SOPE   C2718016   5.870   6.427   9.769 -0.0016 -0.3201 -0.1849
  161SOPE   H7R18017   5.788   6.353   9.763  0.0388 -0.4280  0.5449
  161SOPE   H7S18018   5.843   6.504   9.844 -1.6178 -1.1376  0.1054
  161SOPE   C2818019   5.909   6.480   9.632 -0.5156  0.0105 -0.3268
  161SOPE   H8R18020   6.004   6.538   9.629 -0.2388 -0.4355 -0.1576
  161SOPE   H8S18021   5.927   6.394   9.564 -1.2862 -2.0521  1.9406
  161SOPE   C2918022   5.801   6.575   9.593 -0.8177 -0.3769  0.2602
  161SOPE   H9118023   5.750   6.617   9.681  0.1571  1.0257  0.2021
  161SOPE  C21018024   5.773   6.612   9.463 -0.9786 -0.1067 -0.7922
  161SOPE  H10118025   5.688   6.681   9.456 -1.3749 -0.5645 -0.5553
  161SOPE  C21118026   5.832   6.572   9.334  0.9393  0.3443 -0.4097
  161SOPE  H11R18027   5.887   6.477   9.347  0.1966 -0.1296 -0.7141
  161SOPE  H11S18028   5.909   6.648   9.307  0.6872  0.3617 -1.1135
  161SOPE  C21218029   5.737   6.545   9.217  0.4562  0.2757  0.3480
  161SOPE  H12R18030   5.678   6.638   9.203 -1.0702 -0.8422 -1.0080
  161SOPE  H12S18031   5.671   6.456   9.226 -0.7109  0.8384 -2.0246
  161SOPE  C21318032   5.820   6.519   9.085 -0.0129  0.3473 -0.2374
  161SOPE  H13R18033   5.879   6.425   9.086  1.4989  1.1889 -2.3674
  161SOPE  H13S18034   5.897   6.598   9.074 -0.7721  1.1395  0.0343
  161SOPE  C21418035   5.723   6.529   8.965 -0.0764  0.0358  0.1401
  161SOPE  H14R18036   5.633   6.467   8.988 -0.2559  0.1826 -0.1568
  161SOPE  H14S18037   5.779   6.480   8.883 -2.7275  0.1345 -1.8483
  161SOPE  C21518038   5.692   6.671   8.921 -0.1187  0.4190  0.4668
  161SOPE  H15R18039   5.781   6.727   8.885 -0.1967  0.1170 -0.2283
  161SOPE  H15S18040   5.635   6.727   8.998  0.4503  0.4315  0.8830
  161SOPE  C21618041   5.605   6.670   8.795  0.0659  0.1406 -0.3846
  161SOPE  H16R18042   5.499   6.644   8.818 -0.5615  1.1558 -1.9586
  161SOPE  H16S18043   5.656   6.580   8.755  0.8223  0.4529 -0.1471
  161SOPE  C21718044   5.613   6.794   8.704  0.5199  0.7695  1.1678
  161SOPE  H17R18045   5.718   6.829   8.697  1.3170 -1.0707  2.9388
  161SOPE  H17S18046   5.561   6.882   8.745 -0.6000  1.4659 -1.5046
  161SOPE  C21818047   5.524   6.775   8.580  0.6698  0.5885  0.2611
  161SOPE  H18R18048   5.567   6.703   8.507  0.4595  0.0305  0.6808
  161SOPE  H18S18049   5.511   6.876   8.537  0.3047  1.2526  1.8465
  161SOPE  H18T18050   5.424   6.742   8.614  0.4442 -0.2306 -1.1294
  161SOPE   C3318051   6.673   6.380   9.981 -0.6217 -0.0413 -0.2436
  161SOPE   H3X18052   6.671   6.269   9.990  0.1996 -0.0313  0.1493
  161SOPE   H3Y18053   6.778   6.409  10.003 -1.1883  0.0856  2.7828
  161SOPE   C3418054   6.630   6.423   9.837 -0.2650 -0.3008  0.0343
  161SOPE   H4X18055   6.608   6.532   9.834 -1.0408 -0.4458  0.3342
  161SOPE   H4Y18056   6.536   6.367   9.822 -0.3127 -0.6642  1.5323
  161SOPE   C3518057   6.725   6.376   9.729 -0.0784  0.4779  0.9732
  161SOPE   H5X18058   6.716   6.265   9.724  3.7631  0.0207  1.2886
  161SOPE   H5Y18059   6.833   6.396   9.746  0.4375 -0.2497 -1.1931
  161SOPE   C3618060   6.696   6.424   9.580 -0.5372  0.6011 -0.9438
  161SOPE   H6X18061   6.672   6.531   9.599 -1.0861  0.2341  0.6183
  161SOPE   H6Y18062   6.604   6.372   9.546 -0.5762 -1.0304  1.4595
  161SOPE   C3718063   6.814   6.415   9.493 -0.1109 -0.2893 -0.1034
  161SOPE   H7X18064   6.876   6.324   9.507  1.1036  0.4952 -0.2596
  161SOPE   H7Y18065   6.891   6.492   9.514  1.5194 -1.6242 -0.9175
  161SOPE   C3818066   6.783   6.438   9.345 -0.0127  0.0331 -0.4696
  161SOPE   H8X18067   6.743   6.542   9.342 -1.4750 -0.4306  1.1973
  161SOPE   H8Y18068   6.701   6.373   9.308 -2.6585  2.4257  0.7871
  161SOPE   C3918069   6.905   6.419   9.250 -0.0348 -0.5064 -0.7947
  161SOPE   H9X18070   6.925   6.316   9.214  1.7499  0.0077 -1.3924
  161SOPE   H9Y18071   7.000   6.459   9.293 -1.0821  1.5138 -0.2007
  161SOPE  C31018072   6.897   6.503   9.117 -0.1767  0.3940  0.3295
  161SOPE  H10X18073   6.997   6.500   9.069 -0.5241  0.4844 -0.4249
  161SOPE  H10Y18074   6.886   6.611   9.142  2.3216  0.7784  0.0098
  161SOPE  C31118075   6.796   6.454   9.021  0.6705  0.2845  0.0721
  161SOPE  H11X18076   6.703   6.444   9.080  1.7555  0.2203  1.8371
  161SOPE  H11Y18077   6.829   6.358   8.976 -2.0385  0.0920 -1.7283
  161SOPE  C31218078   6.761   6.552   8.913 -0.4834 -0.0900  0.6732
  161SOPE  H12X18079   6.859   6.559   8.861 -1.1760 -1.7647 -0.9773
  161SOPE  H12Y18080   6.746   6.653   8.957  5.0046  1.1292  0.4283
  161SOPE  C31318081   6.647   6.495   8.828 -0.3359 -0.4969  0.1965
  161SOPE  H13X18082   6.554   6.482   8.889 -1.6908 -0.2432 -1.7424
  161SOPE  H13Y18083   6.679   6.397   8.787  1.7400 -0.1237  0.7754
  161SOPE  C31418084   6.616   6.583   8.707 -0.1367  0.2630 -0.3949
  161SOPE  H14X18085   6.714   6.614   8.664  0.2113 -1.3500 -0.8428
  161SOPE  H14Y18086   6.567   6.678   8.736 -0.4069 -0.1444  0.5130
  161SOPE  C31518087   6.551   6.512   8.590 -0.0170  0.1509  0.5369
  161SOPE  H15X18088   6.448   6.475   8.613 -0.8858  0.5827 -2.2982
  161SOPE  H15Y18089   6.605   6.420   8.558 -0.9130  0.3177 -1.6260
  161SOPE  C31618090   6.545   6.604   8.469  0.7452  0.1246  0.7924
  161SOPE  H16X18091   6.507   6.541   8.386 -0.8514 -1.7572  2.8097
  161SOPE  H16Y18092   6.646   6.648   8.455  0.7706 -0.3867 -0.7132
  161SOPE  C31718093   6.444   6.710   8.498 -0.6558 -0.4332  0.0566
  161SOPE  H17X18094   6.470   6.774   8.585  2.9844  0.6186 -1.5908
  161SOPE  H17Y18095   6.351   6.654   8.523  0.3869 -2.2530  0.0738
  161SOPE  C31818096   6.413   6.788   8.369 -0.5613  0.4052 -0.0296
  161SOPE  H18X18097   6.499   6.840   8.322 -0.5917 -0.4735 -1.0971
  161SOPE  H18Y18098   6.347   6.873   8.398  0.1292  1.0969 -0.4301
  161SOPE  H18Z18099   6.365   6.721   8.295  0.9283  1.2454 -1.8523
  162SOPE     N18100   5.623   0.195  10.581 -0.4849  0.0957  0.6651
  162SOPE   HN118101   5.692   0.161  10.511 -0.6994  0.1108  0.4457
  162SOPE   HN218102   5.659   0.276  10.635  1.8945 -1.2122  1.1908
  162SOPE   HN318103   5.614   0.111  10.641 -1.0405 -1.1002 -1.0262
  162SOPE   C1218104   5.491   0.238  10.519  0.0515 -0.2825  0.8453
  162SOPE  H12A18105   5.435   0.151  10.477  1.4757 -0.3033 -1.1455
  162SOPE  H12B18106   5.518   0.303  10.433  1.4538 -1.6055  0.2291
  162SOPE   C1118107   5.407   0.314  10.619  0.9176 -0.0659  0.4380
  162SOPE  H11A18108   5.376   0.247  10.702  1.0148  0.2800  0.7577
  162SOPE  H11B18109   5.316   0.359  10.574  0.4648 -0.5366  0.8695
  162SOPE     P18110   5.421   0.566  10.699  0.1076  0.0740 -0.2554
  162SOPE   O1318111   5.533   0.664  10.709 -0.3707  0.3534 -0.3392
  162SOPE   O1418112   5.325   0.572  10.806  0.3219  1.1678  0.6541
  162SOPE   O1218113   5.479   0.422  10.680 -0.1757  0.1342  0.6710
  162SOPE   O1118114   5.346   0.596  10.569 -0.6398  0.6535 -0.0360
  162SOPE    C118115   5.419   0.609  10.445 -0.4712 -0.2647  0.0921
  162SOPE    HA18116   5.348   0.579  10.365 -0.6194  0.9056 -0.2345
  162SOPE    HB18117   5.507   0.541  10.438 -0.2749  0.0566 -0.6493
  162SOPE    C218118   5.466   0.752  10.417 -0.1555  0.3399  0.2071
  162SOPE    HS18119   5.498   0.794  10.515  2.2948  1.0474 -0.8108
  162SOPE   O2118120   5.361   0.821  10.352  0.3637  0.2111  0.2435
  162SOPE   C2118121   5.363   0.957  10.349 -0.1112  0.2906  0.2991
  162SOPE   O2218122   5.425   1.027  10.422  0.1297  0.5128 -0.2026
  162SOPE   C2218123   5.280   1.011  10.240 -0.5812  0.9363  0.0584
  162SOPE   H2R18124   5.279   1.121  10.249 -1.6907  0.8484  1.2185
  162SOPE   H2S18125   5.177   0.971  10.248  0.1360 -1.4449 -1.3379
  162SOPE    C318126   5.589   0.757  10.336 -0.5834 -0.0845  1.3507
  162SOPE    HX18127   5.676   0.725  10.396 -1.5657  1.1427  3.5706
  162SOPE    HY18128   5.604   0.864  10.310 -2.2603 -0.0431  0.3453
  162SOPE   O3118129   5.583   0.683  10.211 -0.4977  0.7630  0.1850
  162SOPE   C3118130   5.692   0.701  10.142  0.5760 -0.8686  0.1377
  162SOPE   O3218131   5.785   0.775  10.175 -0.1118 -0.0468 -0.8295
  162SOPE   C3218132   5.700   0.612  10.021  0.3098  0.3234  0.1413
  162SOPE   H2X18133   5.710   0.506  10.051  0.7883  0.1665 -0.5522
  162SOPE   H2Y18134   5.791   0.646   9.967  0.1392 -2.3302 -1.9996
  162SOPE   C2318135   5.327   0.949  10.104 -0.1930  0.4320 -1.0824
  162SOPE   H3R18136   5.308   0.840  10.108  0.1393  0.3830 -0.7752
  162SOPE   H3S18137   5.437   0.951  10.090  0.5314  2.6999  3.1483
  162SOPE   C2418138   5.247   1.011   9.987 -0.3759 -0.3773  0.2288
  162SOPE   H4R18139   5.141   0.981  10.004 -0.9650  0.9562 -0.8441
  162SOPE   H4S18140   5.257   1.122   9.996 -2.1586 -0.2269  0.9132
  162SOPE   C2518141   5.303   0.964   9.851 -0.1621  0.6921 -0.4107
  162SOPE   H5R18142   5.408   0.996   9.868  0.3268 -1.3413  0.7884
  162SOPE   H5S18143   5.306   0.853   9.842  0.7433  0.8159 -2.3394
  162SOPE   C2618144   5.250   1.020   9.726 -0.0409 -0.5953  0.4023
  162SOPE   H6R18145   5.145   0.983   9.715 -0.1906 -0.3939  1.1090
  162SOPE   H6S18146   5.256   1.130   9.735  0.9601 -0.7689  2.2667
  162SOPE   C2718147   5.329   0.976   9.606  0.4275 -0.3733  0.5474
  162SOPE   H7R18148   5.434   1.009   9.626 -0.0581  0.6848  1.4841
  162SOPE   H7S18149   5.323   0.866   9.596 -0.3387 -0.3585  0.8036
  162SOPE   C2818150   5.293   1.044   9.473  0.3526  0.1845  0.7696
  162SOPE   H8R18151   5.360   0.994   9.399 -1.5505 -1.2413 -0.0849
  162SOPE   H8S18152   5.192   1.014   9.438  1.0408 -0.0348 -1.2159
  162SOPE   C2918153   5.327   1.189   9.476  0.2945 -0.5170 -0.8121
  162SOPE   H9118154   5.344   1.231   9.577 -2.8027 -0.7941 -0.0659
  162SOPE  C21018155   5.354   1.266   9.368 -0.5133  0.1728  0.7292
  162SOPE  H10118156   5.376   1.373   9.386 -0.0005  0.2922 -0.5083
  162SOPE  C21118157   5.342   1.214   9.227  0.5089 -0.1738 -0.3891
  162SOPE  H11R18158   5.256   1.265   9.178 -0.5291 -1.1191  0.3803
  162SOPE  H11S18159   5.313   1.108   9.210 -3.8205  0.7629 -0.1163
  162SOPE  C21218160   5.469   1.230   9.147 -0.2027  0.2105  0.1127
  162SOPE  H12R18161   5.558   1.176   9.185 -1.2350 -1.5968  0.0735
  162SOPE  H12S18162   5.493   1.338   9.145 -1.9698  0.7080  2.0749
  162SOPE  C21318163   5.458   1.196   8.995  0.4402  0.0016  0.3141
  162SOPE  H13R18164   5.386   1.267   8.949  0.2006 -0.8122 -0.5952
  162SOPE  H13S18165   5.409   1.096   9.000  0.1383  0.1598  0.5368
  162SOPE  C21418166   5.594   1.209   8.922  0.1992  0.0254  0.6074
  162SOPE  H14R18167   5.651   1.115   8.939 -1.3830 -1.0465  0.1946
  162SOPE  H14S18168   5.657   1.289   8.967 -1.0447  2.2143 -1.3874
  162SOPE  C21518169   5.590   1.265   8.776 -0.3253 -0.2556  0.2519
  162SOPE  H15R18170   5.549   1.368   8.780 -0.3614  0.0375 -3.6818
  162SOPE  H15S18171   5.526   1.194   8.720 -0.8712 -1.0416  1.7948
  162SOPE  C21618172   5.730   1.267   8.718 -0.1438 -0.1329  0.4119
  162SOPE  H16R18173   5.780   1.171   8.743  0.0724 -0.4510 -1.1849
  162SOPE  H16S18174   5.796   1.344   8.764  0.7104 -0.0149 -0.9730
  162SOPE  C21718175   5.748   1.281   8.571  0.0173  0.3641  0.0055
  162SOPE  H17R18176   5.857   1.297   8.555  0.2019 -0.6798  0.1057
  162SOPE  H17S18177   5.697   1.370   8.529 -0.7204 -0.5774 -1.1927
  162SOPE  C21818178   5.692   1.163   8.491  0.1841 -0.6067  0.5017
  162SOPE  H18R18179   5.729   1.151   8.387  0.2858  2.3179  0.1207
  162SOPE  H18S18180   5.581   1.162   8.505  0.1525 -0.5241  0.2572
  162SOPE  H18T18181   5.736   1.066   8.523  1.1809 -0.6612 -0.9460
  162SOPE   C3318182   5.580   0.629   9.925  0.5723 -0.8469 -0.2191
  162SOPE   H3X18183   5.569   0.732   9.886 -2.4215 -0.4198  1.4584
  162SOPE   H3Y18184   5.484   0.601   9.975 -0.0189  3.3527  1.4029
  162SOPE   C3418185   5.595   0.543   9.796  0.2157 -0.1436 -0.4341
  162SOPE   H4X18186   5.614   0.438   9.825 -1.1670 -0.3376 -0.1469
  162SOPE   H4Y18187   5.683   0.581   9.739  0.0217  1.0770  0.0415
  162SOPE   C3518188   5.476   0.542   9.699 -0.1369  0.4188  0.1664
  162SOPE   H5X18189   5.431   0.643   9.689 -1.0957 -0.1325 -1.4400
  162SOPE   H5Y18190   5.389   0.485   9.738 -0.9229 -0.4214 -2.5611
  162SOPE   C3618191   5.497   0.481   9.559 -0.1880  0.1182  0.7510
  162SOPE   H6X18192   5.400   0.455   9.511  1.0135  0.4352 -2.0400
  162SOPE   H6Y18193   5.562   0.391   9.567 -0.2099  0.0409  0.1162
  162SOPE   C3718194   5.557   0.588   9.465 -0.3290  0.0981  0.4102
  162SOPE   H7X18195   5.667   0.592   9.481  0.6062  0.4338 -4.5807
  162SOPE   H7Y18196   5.514   0.687   9.488 -0.1335 -0.2000  2.2499
  162SOPE   C3818197   5.547   0.552   9.318  0.0006 -0.3121 -0.7385
  162SOPE   H8X18198   5.440   0.529   9.299 -0.3556  0.9565 -0.3915
  162SOPE   H8Y18199   5.602   0.456   9.306 -0.3535 -0.4841 -0.9760
  162SOPE   C3918200   5.596   0.660   9.224 -0.7233 -0.0516 -0.3833
  162SOPE   H9X18201   5.707   0.656   9.226 -0.6534  1.2801 -0.1643
  162SOPE   H9Y18202   5.563   0.759   9.263  0.8443  0.1505  0.4836
  162SOPE  C31018203   5.549   0.643   9.084  0.2437 -0.7419  1.2249
  162SOPE  H10X18204   5.438   0.640   9.084  0.1734 -1.6896  4.2144
  162SOPE  H10Y18205   5.583   0.545   9.044 -0.5028 -0.1649 -0.9610
  162SOPE  C31118206   5.614   0.753   8.991  0.7469  0.4161  0.0076
  162SOPE  H11X18207   5.724   0.762   8.993  0.8144  0.5354 -2.2796
  162SOPE  H11Y18208   5.579   0.855   9.016  1.9561  0.9052 -0.2299
  162SOPE  C31218209   5.589   0.709   8.843  0.2327 -0.5382 -0.5002
  162SOPE  H12X18210   5.496   0.758   8.805  0.3325 -1.4257 -1.9860
  162SOPE  H12Y18211   5.567   0.601   8.854 -1.7240 -0.1812 -0.4330
  162SOPE  C31318212   5.703   0.749   8.753 -0.2624  0.3015  0.0884
  162SOPE  H13X18213   5.800   0.706   8.786  0.0053 -1.1510 -2.3756
  162SOPE  H13Y18214   5.703   0.859   8.743 -0.5150  0.4515  1.5454
  162SOPE  C31418215   5.696   0.693   8.609  0.0731 -0.4651 -0.0680
  162SOPE  H14X18216   5.591   0.694   8.574  0.3411 -1.2271 -0.9462
  162SOPE  H14Y18217   5.730   0.587   8.606  1.4029 -0.0598  0.0451
  162SOPE  C31518218   5.779   0.761   8.507 -0.3356 -0.3697  0.4059
  162SOPE  H15X18219   5.730   0.860   8.493 -0.9030 -0.4977  1.4416
  162SOPE  H15Y18220   5.775   0.712   8.408  0.6756 -0.3906  0.3596
  162SOPE  C31618221   5.928   0.761   8.549  0.4117 -0.0390 -0.3832
  162SOPE  H16X18222   5.972   0.670   8.596  1.0356  1.3045  1.7923
  162SOPE  H16Y18223   5.940   0.845   8.621 -0.4761  0.4755 -0.8262
  162SOPE  C31718224   6.024   0.781   8.431  0.0512  0.4611 -0.0444
  162SOPE  H17X18225   5.991   0.870   8.374 -0.0375  2.3073  2.6776
  162SOPE  H17Y18226   6.023   0.684   8.377 -0.6537  0.0611  0.6647
  162SOPE  C31818227   6.162   0.805   8.497 -0.2471 -0.1790 -0.2273
  162SOPE  H18X18228   6.154   0.847   8.599 -1.2303  1.2665 -0.8563
  162SOPE  H18Y18229   6.207   0.896   8.452  1.6746 -0.4745  1.0211
  162SOPE  H18Z18230   6.225   0.715   8.481 -1.4842 -0.8526 -1.6109
  163SOPE     N18231   5.410   3.667  10.827  0.3775 -0.3486 -0.1789
  163SOPE   HN118232   5.326   3.728  10.839  1.6864  1.7656 -1.0418
  163SOPE   HN218233   5.443   3.647  10.924 -1.5194  1.7130  0.9947
  163SOPE   HN318234   5.484   3.725  10.783 -1.2820  2.5808  0.6114
  163SOPE   C1218235   5.383   3.543  10.756  0.1826 -0.0410  0.4428
  163SOPE  H12A18236   5.297   3.494  10.806 -0.0574 -0.8886 -0.7659
  163SOPE  H12B18237   5.478   3.486  10.762  0.6067  0.3285 -1.9763
  163SOPE   C1118238   5.347   3.567  10.608 -0.5854  0.3450 -0.4787
  163SOPE  H11A18239   5.240   3.596  10.597 -0.4204  1.4738  0.6160
  163SOPE  H11B18240   5.353   3.467  10.560 -3.3553 -0.8236  1.3501
  163SOPE     P18241   5.580   3.629  10.512  0.1660  0.6710 -0.0268
  163SOPE   O1318242   5.637   3.505  10.571 -0.4644  0.9052  0.2409
  163SOPE   O1418243   5.669   3.748  10.521  0.2015  0.1670 -0.0610
  163SOPE   O1218244   5.428   3.670  10.552 -0.8549  0.3566 -1.0009
  163SOPE   O1118245   5.563   3.615  10.352  0.0059 -0.2448 -0.5330
  163SOPE    C118246   5.447   3.670  10.289 -0.1242  0.3973  0.6338
  163SOPE    HA18247   5.436   3.779  10.310  1.3130  1.0342 -1.5404
  163SOPE    HB18248   5.354   3.620  10.322  0.3075 -1.1170 -0.3650
  163SOPE    C218249   5.454   3.658  10.131  0.0338  0.6031 -0.4499
  163SOPE    HS18250   5.445   3.549  10.112 -1.2305 -0.0628  3.1182
  163SOPE   O2118251   5.577   3.728  10.078  0.6913 -0.3834 -0.5430
  163SOPE   C2118252   5.602   3.682   9.958  0.2614  0.1532  0.0118
  163SOPE   O2218253   5.547   3.589   9.903  0.5973  0.1462  0.3223
  163SOPE   C2218254   5.722   3.754   9.892 -0.0414 -0.0023 -0.3451
  163SOPE   H2R18255   5.805   3.680   9.902  0.4661  0.6624  0.4807
  163SOPE   H2S18256   5.746   3.845   9.951 -0.5647  0.1745 -0.3980
  163SOPE    C318257   5.318   3.734  10.077 -0.3587  0.4933 -0.0914
  163SOPE    HX18258   5.328   3.837  10.118 -1.1182 -0.0123  1.4646
  163SOPE    HY18259   5.228   3.702  10.135  1.5435 -2.5684  1.4054
  163SOPE   O3118260   5.306   3.739   9.935 -0.0693  0.3177 -0.6730
  163SOPE   C3118261   5.264   3.623   9.871  0.2423  0.9545 -0.4338
  163SOPE   O3218262   5.231   3.526   9.935  0.3274  0.6029 -1.0714
  163SOPE   C3218263   5.267   3.649   9.716  0.6398 -0.4415 -0.5672
  163SOPE   H2X18264   5.356   3.602   9.669 -0.0027 -2.4318  0.1085
  163SOPE   H2Y18265   5.268   3.756   9.687 -1.8430  0.3828  1.9821
  163SOPE   C2318266   5.698   3.790   9.743 -0.7357  0.8348 -0.0739
  163SOPE   H3R18267   5.773   3.865   9.710 -0.6232  0.7986  0.1022
  163SOPE   H3S18268   5.598   3.838   9.749 -0.8090  0.5323  1.6809
  163SOPE   C2418269   5.698   3.679   9.640  0.2429 -0.6248  0.2611
  163SOPE   H4R18270   5.786   3.611   9.648  1.3958  0.6473 -0.9968
  163SOPE   H4S18271   5.607   3.616   9.648 -0.0827 -0.5367 -1.9662
  163SOPE   C2518272   5.694   3.741   9.500 -0.2335  0.0559 -0.3872
  163SOPE   H5R18273   5.590   3.776   9.480  0.0856  1.1000 -0.2891
  163SOPE   H5S18274   5.764   3.826   9.483  0.7283 -0.8303 -0.9244
  163SOPE   C2618275   5.725   3.648   9.384 -0.2207  0.1146 -0.5006
  163SOPE   H6R18276   5.826   3.607   9.406 -1.1953 -0.9721  2.5522
  163SOPE   H6S18277   5.661   3.557   9.389  0.2214 -0.2061 -0.5920
  163SOPE   C2718278   5.722   3.715   9.244 -0.0871  0.5331  0.8021
  163SOPE   H7R18279   5.619   3.758   9.237 -0.4538 -0.5909 -1.6226
  163SOPE   H7S18280   5.790   3.802   9.253  3.0118 -1.5865 -0.5896
  163SOPE   C2818281   5.757   3.626   9.124  0.0722 -0.5553  0.8048
  163SOPE   H8R18282   5.699   3.534   9.143  0.0851 -0.4274  1.4842
  163SOPE   H8S18283   5.738   3.670   9.024  0.0817 -0.2555  0.9332
  163SOPE   C2918284   5.901   3.580   9.138  0.3497  0.2410  0.5758
  163SOPE   H9118285   5.941   3.561   9.239  3.1988  0.5275 -0.4025
  163SOPE  C21018286   5.988   3.558   9.032  0.6141  0.2215 -0.3062
  163SOPE  H10118287   6.086   3.516   9.058  0.0619 -0.6459  0.4142
  163SOPE  C21118288   5.963   3.570   8.881  0.1213  0.1707  0.2229
  163SOPE  H11R18289   5.857   3.594   8.856 -0.2710 -1.1470  0.5467
  163SOPE  H11S18290   5.977   3.473   8.829 -1.8387 -1.2515  2.1789
  163SOPE  C21218291   6.046   3.678   8.805  0.0068 -0.2160  0.7579
  163SOPE  H12R18292   6.054   3.769   8.868  1.1493 -0.5306  1.0922
  163SOPE  H12S18293   5.990   3.693   8.710 -1.3450 -1.4277  1.3281
  163SOPE  C21318294   6.186   3.618   8.770 -0.0166 -0.3466 -0.2463
  163SOPE  H13R18295   6.169   3.536   8.698  0.7632 -2.0925  1.4806
  163SOPE  H13S18296   6.234   3.587   8.865 -1.9851 -1.3550  0.4608
  163SOPE  C21418297   6.281   3.728   8.714  1.1461  0.0260  0.1145
  163SOPE  H14R18298   6.375   3.672   8.696  1.7111  0.9446  0.1635
  163SOPE  H14S18299   6.296   3.808   8.790  1.0189 -0.8468  1.0885
  163SOPE  C21518300   6.230   3.794   8.589  0.1166  0.2495  0.3149
  163SOPE  H15R18301   6.162   3.882   8.595  1.4574  1.5654 -2.3121
  163SOPE  H15S18302   6.184   3.718   8.522 -1.6295  0.3434  1.3415
  163SOPE  C21618303   6.338   3.863   8.512 -0.0273  0.0710  0.0465
  163SOPE  H16R18304   6.395   3.777   8.472 -2.3284 -1.8446  0.7018
  163SOPE  H16S18305   6.407   3.919   8.578 -1.7057  2.3062  0.0262
  163SOPE  C21718306   6.292   3.960   8.404 -0.3290  0.6145  1.1450
  163SOPE  H17R18307   6.204   4.012   8.447 -0.9356 -0.3489  1.1101
  163SOPE  H17S18308   6.257   3.896   8.319  0.3755  1.5241  0.1418
  163SOPE  C21818309   6.391   4.054   8.337 -0.5468  0.1758  0.1572
  163SOPE  H18R18310   6.466   3.995   8.280  0.0213  0.3156  0.7368
  163SOPE  H18S18311   6.447   4.126   8.401  0.9547  1.1940 -2.1988
  163SOPE  H18T18312   6.342   4.118   8.262 -0.1770 -0.7108 -0.8701
  163SOPE   C3318313   5.134   3.588   9.650  0.4084 -0.3652 -1.0497
  163SOPE   H3X18314   5.056   3.621   9.722  0.4270  1.9424 -1.9711
  163SOPE   H3Y18315   5.132   3.477   9.648  0.5888 -0.4421 -4.8442
  163SOPE   C3418316   5.104   3.643   9.513  0.3009  0.4127  0.7338
  163SOPE   H4X18317   5.121   3.751   9.531 -0.3039  0.1592  3.2117
  163SOPE   H4Y18318   4.996   3.628   9.492 -0.1802  0.8788  2.6518
  163SOPE   C3518319   5.199   3.592   9.395 -0.4452 -0.1258 -0.6317
  163SOPE   H5X18320   5.180   3.488   9.360 -0.7054 -0.7816  1.3218
  163SOPE   H5Y18321   5.297   3.581   9.445 -1.2973  0.3899  1.2614
  163SOPE   C3618322   5.210   3.684   9.275  0.1381  0.2669 -0.2246
  163SOPE   H6X18323   5.250   3.786   9.287  2.1513 -0.3025 -1.6303
  163SOPE   H6Y18324   5.107   3.695   9.233  0.2759 -0.8431 -0.8967
  163SOPE   C3718325   5.293   3.617   9.171 -0.4162  0.2232  0.4506
  163SOPE   H7X18326   5.277   3.507   9.158  0.2152  0.1602  0.1890
  163SOPE   H7Y18327   5.398   3.628   9.204  0.0981 -1.9730 -0.2485
  163SOPE   C3818328   5.286   3.679   9.029  0.1635 -0.8733  0.1504
  163SOPE   H8X18329   5.351   3.769   9.019 -2.5158  0.9380 -3.1403
  163SOPE   H8Y18330   5.181   3.714   9.023  0.4700  0.2911  1.0710
  163SOPE   C3918331   5.314   3.592   8.910 -0.8178  0.1434  0.1135
  163SOPE   H9X18332   5.248   3.506   8.884 -0.1582  0.4836 -3.2081
  163SOPE   H9Y18333   5.415   3.553   8.934 -0.2816  1.9495  0.9655
  163SOPE  C31018334   5.313   3.676   8.781 -0.1804 -0.5410  0.9532
  163SOPE  H10X18335   5.374   3.766   8.803 -1.6090  0.4004  1.2503
  163SOPE  H10Y18336   5.214   3.724   8.763  0.9065  1.7123  0.6222
  163SOPE  C31118337   5.349   3.607   8.649 -0.0966  0.1227 -0.7666
  163SOPE  H11X18338   5.267   3.630   8.577  0.3677  0.7209 -1.1080
  163SOPE  H11Y18339   5.358   3.497   8.661 -1.8053  0.0451  0.2584
  163SOPE  C31218340   5.480   3.655   8.584  0.5775  0.1827 -0.8540
  163SOPE  H12X18341   5.568   3.637   8.650  0.7016  0.5702 -0.9091
  163SOPE  H12Y18342   5.463   3.764   8.578 -1.5968  0.0220  1.0919
  163SOPE  C31318343   5.510   3.590   8.444 -0.0135 -0.0022  0.4424
  163SOPE  H13X18344   5.427   3.615   8.375  1.0170  0.1741 -0.7815
  163SOPE  H13Y18345   5.522   3.483   8.469 -0.0640  0.5950  3.3712
  163SOPE  C31418346   5.650   3.644   8.387 -0.1926  0.5301  0.3183
  163SOPE  H14X18347   5.683   3.578   8.304  1.5568  0.4446  1.0312
  163SOPE  H14Y18348   5.733   3.632   8.460  0.1122  0.0089 -0.1023
  163SOPE  C31518349   5.646   3.792   8.334  0.0481  0.2822  0.0570
  163SOPE  H15X18350   5.573   3.847   8.396  1.4036 -0.0562  2.0459
  163SOPE  H15Y18351   5.593   3.783   8.237  1.3590 -1.0714 -0.5779
  163SOPE  C31618352   5.782   3.854   8.310  0.5444 -0.1115  0.4076
  163SOPE  H16X18353   5.834   3.849   8.408  0.1743  2.4194  0.7922
  163SOPE  H16Y18354   5.761   3.961   8.292 -1.0142 -0.6686 -1.4473
  163SOPE  C31718355   5.873   3.774   8.212  0.1066  0.4450 -0.2090
  163SOPE  H17X18356   5.839   3.776   8.106  0.3415  0.9713 -0.2731
  163SOPE  H17Y18357   5.871   3.668   8.246 -0.0162  0.0478 -1.3953
  163SOPE  C31818358   6.014   3.825   8.233 -0.9229 -0.8402  0.0665
  163SOPE  H18X18359   6.067   3.782   8.320 -1.8102 -0.3633  0.8690
  163SOPE  H18Y18360   6.016   3.931   8.265  2.3461 -1.2186  1.4631
  163SOPE  H18Z18361   6.076   3.809   8.142 -0.9065  0.9594 -0.2742
  164SOPE     N18362   4.969   1.313  10.955  0.1714  0.3896 -0.5254
  164SOPE   HN118363   4.929   1.364  10.874 -0.8853 -1.9250 -1.5512
  164SOPE   HN218364   4.959   1.212  10.933  0.5462  0.2071  0.1253
  164SOPE   HN318365   4.913   1.339  11.039  1.3635 -0.7016  0.6579
  164SOPE   C1218366   5.120   1.337  10.963 -0.1708 -0.1937 -0.2216
  164SOPE  H12A18367   5.162   1.256  11.026 -1.2132  1.2396  2.5137
  164SOPE  H12B18368   5.134   1.426  11.027 -0.0728 -0.9666  0.8619
  164SOPE   C1118369   5.167   1.370  10.824 -0.9664  0.2248  0.2083
  164SOPE  H11A18370   5.278   1.372  10.819 -0.9459 -1.7449 -1.1725
  164SOPE  H11B18371   5.126   1.472  10.807  1.3048  1.5719  2.1859
  164SOPE     P18372   5.021   1.283  10.626  0.1480  0.1816  0.1646
  164SOPE   O1318373   4.912   1.356  10.684  0.2731 -0.1864 -0.0878
  164SOPE   O1418374   4.985   1.150  10.563  0.4064 -0.2614 -0.1340
  164SOPE   O1218375   5.123   1.267  10.739 -0.3869 -0.4578  0.0133
  164SOPE   O1118376   5.088   1.378  10.528  0.2232  0.1184 -0.0198
  164SOPE    C118377   5.223   1.360  10.496 -0.0581  0.1681 -1.2063
  164SOPE    HA18378   5.248   1.252  10.488 -0.2692 -0.1759  1.6347
  164SOPE    HB18379   5.281   1.406  10.579 -1.5188 -1.0584  0.5769
  164SOPE    C218380   5.257   1.434  10.366 -0.5035 -0.4218 -0.3223
  164SOPE    HS18381   5.220   1.535  10.390 -1.3570 -0.9486  0.6352
  164SOPE   O2118382   5.198   1.367  10.249  0.6876  0.6719 -0.7253
  164SOPE   C2118383   5.147   1.467  10.163  0.1751  0.6507 -0.5331
  164SOPE   O2218384   5.134   1.583  10.192 -0.5896  0.5871  0.0689
  164SOPE   C2218385   5.092   1.404  10.036  0.0221 -0.8338 -0.7311
  164SOPE   H2R18386   4.985   1.433  10.032  0.4109  0.6502 -0.8910
  164SOPE   H2S18387   5.106   1.294  10.043  2.9967 -0.5197 -0.7083
  164SOPE    C318388   5.416   1.444  10.347 -0.7925 -0.4289 -0.2923
  164SOPE    HX18389   5.447   1.337  10.343 -0.6709 -0.4303  0.5892
  164SOPE    HY18390   5.465   1.491  10.435  0.3416  2.0144 -2.1279
  164SOPE   O3118391   5.455   1.508  10.221 -0.1210 -0.1087  0.0727
  164SOPE   C3118392   5.586   1.536  10.200  0.7680 -0.5649 -0.5062
  164SOPE   O3218393   5.676   1.519  10.276  0.4533 -0.5033  0.0886
  164SOPE   C3218394   5.596   1.594  10.056  0.3579  0.0908 -0.1697
  164SOPE   H2X18395   5.685   1.540  10.018 -0.1243 -0.9593  0.1686
  164SOPE   H2Y18396   5.622   1.699  10.083 -0.8027  0.2450  0.4089
  164SOPE   C2318397   5.154   1.461   9.909 -0.1379  0.1901 -0.3732
  164SOPE   H3R18398   5.262   1.434   9.913 -0.1622  0.1133 -0.2377
  164SOPE   H3S18399   5.139   1.570   9.898  1.0183  0.4599  0.6191
  164SOPE   C2418400   5.102   1.400   9.777  0.1384 -0.1265 -0.2530
  164SOPE   H4R18401   5.157   1.306   9.754  1.6276  0.8609 -0.8687
  164SOPE   H4S18402   4.993   1.383   9.792  0.3944  0.9585  3.9386
  164SOPE   C2518403   5.116   1.494   9.647  0.2854  0.5930 -0.5987
  164SOPE   H5R18404   5.066   1.591   9.669 -2.8757 -0.3801 -2.8255
  164SOPE   H5S18405   5.222   1.513   9.618  0.7740 -1.3867 -0.2718
  164SOPE   C2618406   5.050   1.446   9.515 -0.4189  0.5724 -0.6034
  164SOPE   H6R18407   5.087   1.346   9.483 -0.4652  0.1164  0.7121
  164SOPE   H6S18408   4.942   1.424   9.526 -0.4519  0.3874 -1.2275
  164SOPE   C2718409   5.057   1.545   9.401 -0.4807  0.3679 -0.5695
  164SOPE   H7R18410   5.048   1.643   9.452  1.3504 -0.2859  1.1146
  164SOPE   H7S18411   5.154   1.551   9.347 -0.7072  0.6779 -0.9471
  164SOPE   C2818412   4.947   1.517   9.303 -0.1808 -0.1938  0.3529
  164SOPE   H8R18413   4.856   1.568   9.341  0.9681  2.3410 -0.1382
  164SOPE   H8S18414   4.965   1.586   9.219  0.2286 -0.2667  0.3780
  164SOPE   C2918415   4.921   1.379   9.243  0.5804  0.0630  0.0075
  164SOPE   H9118416   4.862   1.323   9.317 -1.3588  1.8566 -0.0939
  164SOPE  C21018417   4.973   1.321   9.130 -0.4826 -0.2834 -1.0359
  164SOPE  H10118418   4.943   1.218   9.104 -1.0342 -0.3177 -0.3071
  164SOPE  C21118419   5.072   1.384   9.033  0.1146 -0.2851  0.7072
  164SOPE  H11R18420   5.153   1.315   8.999  0.5988  0.9254 -0.7307
  164SOPE  H11S18421   5.131   1.467   9.078  0.6330 -0.6527  0.7155
  164SOPE  C21218422   4.997   1.417   8.904 -0.4587  1.4507  0.4393
  164SOPE  H12R18423   5.058   1.490   8.847  0.2268 -0.8719 -2.0178
  164SOPE  H12S18424   4.900   1.464   8.930 -1.7631 -0.1547 -1.2758
  164SOPE  C21318425   4.988   1.301   8.802  0.6211  0.0003 -0.3795
  164SOPE  H13R18426   4.931   1.216   8.847 -0.8012 -0.7626 -3.3498
  164SOPE  H13S18427   5.087   1.257   8.779  0.2758 -0.0313 -1.8929
  164SOPE  C21418428   4.907   1.328   8.672 -0.6049 -0.3067  0.2981
  164SOPE  H14R18429   4.963   1.396   8.604  0.6199 -0.6564  0.9269
  164SOPE  H14S18430   4.812   1.382   8.693  1.0979  2.8599  0.5652
  164SOPE  C21518431   4.886   1.197   8.584 -0.2196 -0.2480  0.8067
  164SOPE  H15R18432   4.827   1.127   8.648  0.3612 -3.3118 -1.7499
  164SOPE  H15S18433   4.985   1.150   8.570  0.1003  0.7420 -0.4507
  164SOPE  C21618434   4.824   1.219   8.444 -0.4251  0.1564 -0.4104
  164SOPE  H16R18435   4.718   1.243   8.466  0.0963  1.9401  0.3455
  164SOPE  H16S18436   4.819   1.122   8.391 -1.9444 -0.0439  0.0398
  164SOPE  C21718437   4.889   1.321   8.347  0.2683  0.1995  0.6479
  164SOPE  H17R18438   4.986   1.278   8.314 -0.2290 -2.3400  2.2141
  164SOPE  H17S18439   4.911   1.416   8.399 -1.3864  0.9591  0.0333
  164SOPE  C21818440   4.809   1.349   8.217 -0.1202 -0.3239  0.5836
  164SOPE  H18R18441   4.865   1.415   8.148  2.4319 -3.0572 -0.1904
  164SOPE  H18S18442   4.721   1.407   8.252  0.6683  2.0045 -1.1054
  164SOPE  H18T18443   4.775   1.263   8.155 -1.6399  1.8700 -1.8066
  164SOPE   C3318444   5.473   1.566   9.971  0.3493 -0.5723  0.5685
  164SOPE   H3X18445   5.382   1.605  10.022  0.1544  0.4179 -0.5007
  164SOPE   H3Y18446   5.461   1.456   9.968  3.3681 -1.0201  1.5344
  164SOPE   C3418447   5.480   1.621   9.825 -0.0079  0.4757  0.7318
  164SOPE   H4X18448   5.381   1.600   9.778  0.0433  1.1993  0.2899
  164SOPE   H4Y18449   5.556   1.559   9.771  2.2758  2.0051  2.0126
  164SOPE   C3518450   5.523   1.766   9.808 -0.3441 -0.4315  0.2962
  164SOPE   H5X18451   5.632   1.772   9.787 -0.6664  0.8833 -1.1448
  164SOPE   H5Y18452   5.497   1.817   9.903 -0.3828 -3.3884  2.0052
  164SOPE   C3618453   5.439   1.845   9.708  0.0040  0.6508  0.5268
  164SOPE   H6X18454   5.473   1.951   9.705 -0.6367  0.8895 -3.3816
  164SOPE   H6Y18455   5.334   1.834   9.741  0.9412 -1.5220  3.1653
  164SOPE   C3718456   5.465   1.787   9.566 -0.5296  0.4798 -0.4770
  164SOPE   H7X18457   5.446   1.677   9.564 -1.8460  0.6752  0.2749
  164SOPE   H7Y18458   5.573   1.804   9.542 -0.4146  0.5301  0.0644
  164SOPE   C3818459   5.383   1.854   9.459 -0.4846  0.2666  0.3016
  164SOPE   H8X18460   5.406   1.961   9.444  0.6607  0.3648  2.4614
  164SOPE   H8Y18461   5.273   1.857   9.478 -0.6020 -2.2297  0.4239
  164SOPE   C3918462   5.394   1.787   9.324 -0.4490  0.3954  0.2810
  164SOPE   H9X18463   5.391   1.678   9.340 -0.1059  0.1921 -0.9253
  164SOPE   H9Y18464   5.494   1.803   9.277 -0.6337  0.2243 -0.1724
  164SOPE  C31018465   5.279   1.827   9.230  0.6291 -0.0439  0.4485
  164SOPE  H10X18466   5.278   1.937   9.213  1.6878 -0.1363 -0.3417
  164SOPE  H10Y18467   5.181   1.796   9.273  0.5657 -0.7703 -0.1927
  164SOPE  C31118468   5.305   1.770   9.088 -0.1720  0.2249 -0.1719
  164SOPE  H11X18469   5.346   1.668   9.105 -1.1669 -0.3606 -1.2107
  164SOPE  H11Y18470   5.388   1.830   9.045 -0.2048  0.5902  0.2717
  164SOPE  C31218471   5.188   1.758   8.982  0.5206  0.6876  0.1981
  164SOPE  H12X18472   5.098   1.707   9.023  1.7104 -1.8169 -0.1006
  164SOPE  H12Y18473   5.212   1.693   8.895 -1.0978 -1.2881  1.1436
  164SOPE  C31318474   5.139   1.896   8.932  0.4453 -0.2218  0.0236
  164SOPE  H13X18475   5.200   1.936   8.848 -1.0771  0.8120 -0.6302
  164SOPE  H13Y18476   5.153   1.972   9.011  2.3568 -0.1351 -0.3459
  164SOPE  C31418477   4.996   1.890   8.873 -0.2374  0.0588  0.1113
  164SOPE  H14X18478   4.973   1.996   8.846  3.7460  1.4836  1.5145
  164SOPE  H14Y18479   4.933   1.846   8.953 -1.9798  0.2141 -1.1301
  164SOPE  C31518480   4.983   1.804   8.745  0.4466  0.6274 -0.3687
  164SOPE  H15X18481   4.878   1.816   8.709  0.0408 -1.1286  0.1180
  164SOPE  H15Y18482   5.001   1.699   8.777  0.1670  0.8533  0.5623
  164SOPE  C31618483   5.072   1.843   8.625  0.7799  0.5006 -0.4790
  164SOPE  H16X18484   5.176   1.835   8.664  0.4394  3.2041  1.2669
  164SOPE  H16Y18485   5.050   1.949   8.599 -1.5198 -0.2021 -1.6768
  164SOPE  C31718486   5.051   1.753   8.499 -0.0040  0.0487 -0.0050
  164SOPE  H17X18487   5.073   1.790   8.397 -2.8296 -0.0924 -0.7645
  164SOPE  H17Y18488   4.940   1.745   8.500  0.0013 -0.0620  1.0035
  164SOPE  C31818489   5.116   1.613   8.521 -0.6550 -0.4483 -0.6100
  164SOPE  H18X18490   5.073   1.545   8.445 -1.3182 -0.5520 -0.1434
  164SOPE  H18Y18491   5.081   1.569   8.617  1.8570 -1.4471 -0.0703
  164SOPE  H18Z18492   5.227   1.624   8.511 -0.8588  0.0939 -2.8630
  165SOPE     N18493   1.077   3.570  10.839  0.0532 -0.1685  0.6994
  165SOPE   HN118494   1.002   3.513  10.883 -2.1377  1.5669 -0.5811
  165SOPE   HN218495   1.167   3.523  10.862 -0.3915 -0.9776  0.8311
  165SOPE   HN318496   1.074   3.665  10.882 -1.7788  0.3182 -0.4086
  165SOPE   C1218497   1.057   3.574  10.691 -0.4196  0.4992 -0.0581
  165SOPE  H12A18498   0.983   3.492  10.675 -0.1656  0.6651 -2.4061
  165SOPE  H12B18499   1.150   3.552  10.634 -0.2721 -1.2952  0.8028
  165SOPE   C1118500   0.999   3.711  10.662  0.0990 -0.0588  0.6988
  165SOPE  H11A18501   0.974   3.698  10.554  0.1932 -0.9557  0.7719
  165SOPE  H11B18502   1.081   3.786  10.670  0.7728 -0.6214 -0.6055
  165SOPE     P18503   0.825   3.881  10.723 -0.1620  0.0649  0.1285
  165SOPE   O1318504   0.927   3.986  10.711 -0.1373 -0.0918 -0.0722
  165SOPE   O1418505   0.715   3.902  10.816 -0.0186 -0.0446 -0.6039
  165SOPE   O1218506   0.894   3.738  10.754  0.1711  0.0236 -1.0128
  165SOPE   O1118507   0.759   3.871  10.581  0.4197 -0.0260  0.3012
  165SOPE    C118508   0.689   3.760  10.533 -0.3785 -0.3424  0.2417
  165SOPE    HA18509   0.603   3.726  10.595 -0.7833  0.5313  0.1843
  165SOPE    HB18510   0.751   3.668  10.531  3.0317  1.5746  4.0345
  165SOPE    C218511   0.631   3.801  10.398 -0.0846  0.5054 -0.5145
  165SOPE    HS18512   0.615   3.704  10.345 -1.1217  0.1813  0.3443
  165SOPE   O2118513   0.719   3.883  10.323  0.0932 -0.0361 -0.2370
  165SOPE   C2118514   0.823   3.824  10.271  0.2823  0.2430 -0.3864
  165SOPE   O2218515   0.855   3.707  10.272  0.9869  0.0307 -0.5360
  165SOPE   C2218516   0.908   3.931  10.203 -0.0792  0.0362  0.5053
  165SOPE   H2R18517   0.993   3.882  10.149 -1.7516 -2.4235 -0.0716
  165SOPE   H2S18518   0.938   3.995  10.288  0.7723  0.1743  0.1106
  165SOPE    C318519   0.489   3.861  10.414  0.3788 -0.4690  0.0693
  165SOPE    HX18520   0.506   3.966  10.448  0.5194 -0.2099 -0.7680
  165SOPE    HY18521   0.443   3.802  10.496 -1.2442  0.9328  0.2299
  165SOPE   O3118522   0.416   3.855  10.285  0.1275 -0.0135 -0.1072
  165SOPE   C3118523   0.278   3.866  10.298  0.0113 -0.1815 -0.2363
  165SOPE   O3218524   0.218   3.877  10.399  0.0721  0.1505 -0.0130
  165SOPE   C3218525   0.211   3.862  10.165  0.5676  0.6275 -0.7751
  165SOPE   H2X18526   0.103   3.876  10.187  0.2282 -2.4752  0.0358
  165SOPE   H2Y18527   0.217   3.763  10.114  0.4564  0.0486  0.3066
  165SOPE   C2318528   0.825   4.006  10.100  0.2706 -0.3608 -0.7213
  165SOPE   H3R18529   0.872   4.105  10.083 -1.7631  0.4537 -1.9997
  165SOPE   H3S18530   0.720   4.024  10.133  1.3582  1.7844  2.0001
  165SOPE   C2418531   0.832   3.934   9.970  0.1247  0.5829 -0.1712
  165SOPE   H4R18532   0.937   3.905   9.950 -0.4885 -0.0639 -2.8864
  165SOPE   H4S18533   0.779   3.836   9.965 -2.0939  1.7144 -0.1667
  165SOPE   C2518534   0.787   4.022   9.843 -0.0899  0.1402 -0.7816
  165SOPE   H5R18535   0.676   4.022   9.840 -0.2619 -2.7798  1.1841
  165SOPE   H5S18536   0.808   4.130   9.861 -0.0885  0.0078  0.0766
  165SOPE   C2618537   0.839   3.971   9.712 -0.8954 -0.4715  0.6622
  165SOPE   H6R18538   0.948   3.983   9.695 -1.0440 -0.8949 -0.7357
  165SOPE   H6S18539   0.812   3.865   9.693  2.6470 -0.9704 -2.8745
  165SOPE   C2718540   0.772   4.044   9.593  0.1856  0.7210 -0.3176
  165SOPE   H7R18541   0.664   4.066   9.609  0.8193  2.1195  2.5252
  165SOPE   H7S18542   0.822   4.143   9.600 -0.5972  1.0020  2.2534
  165SOPE   C2818543   0.797   3.977   9.456  0.0839  0.2782  0.1182
  165SOPE   H8R18544   0.906   3.956   9.453  0.0643  0.3315 -1.2706
  165SOPE   H8S18545   0.738   3.883   9.454  1.7357 -0.8446 -2.9666
  165SOPE   C2918546   0.739   4.072   9.348 -0.2757  0.0975 -0.1681
  165SOPE   H9118547   0.645   4.116   9.383  0.5251 -0.0912  2.4576
  165SOPE  C21018548   0.788   4.097   9.231  0.2717 -0.1019  0.2046
  165SOPE  H10118549   0.732   4.160   9.161  2.9759  1.9319 -0.3129
  165SOPE  C21118550   0.919   4.035   9.182  0.5498  0.8082  1.0273
  165SOPE  H11R18551   0.942   3.943   9.239  0.0431  0.8709  1.3452
  165SOPE  H11S18552   0.993   4.117   9.195  0.5224  0.7269  1.7068
  165SOPE  C21218553   0.904   3.992   9.028  0.0636 -0.2201  0.0117
  165SOPE  H12R18554   0.848   4.070   8.972 -0.0280  0.3961  0.9282
  165SOPE  H12S18555   0.845   3.898   9.020 -1.4226  0.6972 -0.2614
  165SOPE  C21318556   1.040   3.985   8.959  0.7877  0.5154  0.5729
  165SOPE  H13R18557   1.030   3.911   8.876  0.2528 -0.0531  1.1426
  165SOPE  H13S18558   1.105   3.938   9.036 -1.0211 -3.1013  0.0623
  165SOPE  C21418559   1.100   4.119   8.911  0.3666 -0.1450 -0.5210
  165SOPE  H14R18560   1.134   4.173   9.002 -0.3335 -0.6292  0.0392
  165SOPE  H14S18561   1.018   4.181   8.868 -0.5890  0.1655  1.6122
  165SOPE  C21518562   1.201   4.115   8.804  0.1343  0.7004  0.5065
  165SOPE  H15R18563   1.169   4.052   8.719  3.4814 -0.7161  0.1397
  165SOPE  H15S18564   1.290   4.061   8.843 -0.7501  0.6666  2.5947
  165SOPE  C21618565   1.243   4.256   8.753  0.7289  0.6922 -0.4118
  165SOPE  H16R18566   1.313   4.296   8.828  0.4089 -2.3123  1.6515
  165SOPE  H16S18567   1.150   4.317   8.743  0.1461 -0.2456 -0.9194
  165SOPE  C21718568   1.303   4.262   8.611 -0.0709 -0.0355  0.7503
  165SOPE  H17R18569   1.383   4.187   8.598  0.9168  1.1165 -0.0447
  165SOPE  H17S18570   1.340   4.364   8.587 -1.5501  0.4705  0.5292
  165SOPE  C21818571   1.197   4.233   8.504  0.0525 -0.7139  0.3854
  165SOPE  H18R18572   1.243   4.259   8.406 -1.3441 -2.1358 -0.7113
  165SOPE  H18S18573   1.107   4.293   8.529  0.2227  0.2763 -1.2027
  165SOPE  H18T18574   1.171   4.125   8.502  2.3503 -1.3072 -0.0592
  165SOPE   C3318575   0.246   3.976  10.058  0.0670  0.5341  0.2118
  165SOPE   H3X18576   0.357   3.982  10.056  0.0345  1.1082 -1.2738
  165SOPE   H3Y18577   0.202   4.073  10.090 -1.1301 -0.3252  1.2505
  165SOPE   C3418578   0.196   3.936   9.921  0.2670  0.4275  0.2973
  165SOPE   H4X18579   0.087   3.957   9.911  0.5921  2.2822  0.2849
  165SOPE   H4Y18580   0.213   3.830   9.893 -2.1891  0.1295 -0.3082
  165SOPE   C3518581   0.265   4.016   9.804 -0.2287  0.5200 -0.0222
  165SOPE   H5X18582   0.371   4.017   9.838 -0.3643 -2.3430  0.7833
  165SOPE   H5Y18583   0.217   4.116   9.802 -1.5334 -0.0674  0.5674
  165SOPE   C3618584   0.248   3.954   9.667  0.0856  0.4121 -0.5876
  165SOPE   H6X18585   0.142   3.971   9.640 -0.4534 -2.0414 -0.2924
  165SOPE   H6Y18586   0.268   3.845   9.653 -0.2182 -0.3567  3.7027
  165SOPE   C3718587   0.331   4.017   9.554 -0.0652 -0.6040 -0.0753
  165SOPE   H7X18588   0.442   4.014   9.563  0.0264 -2.4278 -1.2456
  165SOPE   H7Y18589   0.292   4.120   9.537 -1.6234 -0.8783  1.6279
  165SOPE   C3818590   0.297   3.950   9.423  0.6491 -0.4512 -0.6042
  165SOPE   H8X18591   0.187   3.941   9.407  0.4567  1.2771 -0.4146
  165SOPE   H8Y18592   0.335   3.846   9.416  0.5331 -0.5952  0.7311
  165SOPE   C3918593   0.328   4.034   9.305 -0.7559 -0.0573  0.5315
  165SOPE   H9X18594   0.439   4.030   9.302 -0.7080  0.5832  1.2832
  165SOPE   H9Y18595   0.293   4.140   9.302 -1.2151 -0.2319 -0.7290
  165SOPE  C31018596   0.288   3.984   9.158 -0.3354  0.2033  0.3309
  165SOPE  H10X18597   0.178   3.972   9.163 -0.8172  2.5208 -2.3619
  165SOPE  H10Y18598   0.330   3.881   9.155 -0.0920  0.3235 -0.9007
  165SOPE  C31118599   0.341   4.068   9.047  0.2805  0.0155 -0.2184
  165SOPE  H11X18600   0.342   4.175   9.076  1.0477  0.0092 -0.2008
  165SOPE  H11Y18601   0.266   4.061   8.966 -1.1857 -2.7687  1.2201
  165SOPE  C31218602   0.479   4.019   9.001  0.8860  0.2554 -0.4743
  165SOPE  H12X18603   0.476   3.911   8.975 -0.5883  0.1150  0.1655
  165SOPE  H12Y18604   0.549   4.011   9.087  0.5791 -0.6412 -0.2967
  165SOPE  C31318605   0.545   4.107   8.892  0.6460 -0.4020  0.4830
  165SOPE  H13X18606   0.644   4.064   8.867 -0.8989 -3.3504 -1.0080
  165SOPE  H13Y18607   0.561   4.209   8.934  0.4681 -0.5959  1.0350
  165SOPE  C31418608   0.455   4.103   8.765 -1.0034 -0.0068  0.3616
  165SOPE  H14X18609   0.369   4.167   8.795 -1.3924 -0.2860 -0.1475
  165SOPE  H14Y18610   0.427   3.996   8.761 -0.9899  0.0147 -0.3419
  165SOPE  C31518611   0.528   4.156   8.634 -0.4036  0.2467 -0.7280
  165SOPE  H15X18612   0.618   4.095   8.609 -1.4496 -1.3036 -0.8507
  165SOPE  H15Y18613   0.553   4.258   8.669 -2.8981  0.3642  0.9995
  165SOPE  C31618614   0.434   4.169   8.517  0.2135  0.1386  0.0844
  165SOPE  H16X18615   0.415   4.063   8.492 -0.4531 -0.0404  1.2473
  165SOPE  H16Y18616   0.491   4.211   8.432  1.1389  0.6816  0.9487
  165SOPE  C31718617   0.308   4.250   8.544  0.2203 -0.2278  0.4771
  165SOPE  H17X18618   0.334   4.353   8.577  1.1102 -0.1632 -0.3987
  165SOPE  H17Y18619   0.239   4.206   8.620 -2.5420  0.2952 -1.5951
  165SOPE  C31818620   0.227   4.251   8.416  0.4810  0.2240  0.3367
  165SOPE  H18X18621   0.127   4.299   8.426 -1.2666 -3.0653  0.0235
  165SOPE  H18Y18622   0.199   4.145   8.399 -1.2357  0.5751  0.7379
  165SOPE  H18Z18623   0.280   4.302   8.333 -0.2357  1.1605  0.4283
  166SOPE     N18624   2.919   3.454  11.149 -0.4855  0.6469 -0.9028
  166SOPE   HN118625   2.920   3.352  11.167 -1.4129  0.7708 -0.0875
  166SOPE   HN218626   2.995   3.472  11.081  0.4287 -0.4164 -0.1979
  166SOPE   HN318627   2.929   3.512  11.235  0.3398 -0.1825 -0.4229
  166SOPE   C1218628   2.781   3.480  11.090  0.1736 -0.4454 -0.5770
  166SOPE  H12A18629   2.783   3.584  11.051  2.2652 -0.8789 -1.7751
  166SOPE  H12B18630   2.715   3.458  11.177 -0.0747  0.2393 -0.5903
  166SOPE   C1118631   2.746   3.389  10.972 -0.2585  0.5369 -0.1266
  166SOPE  H11A18632   2.804   3.426  10.885 -0.0403 -0.8814 -0.6030
  166SOPE  H11B18633   2.638   3.404  10.954 -1.1479 -0.3009  3.7030
  166SOPE     P18634   2.671   3.133  10.973 -0.0669 -0.0934 -0.1391
  166SOPE   O1318635   2.553   3.159  11.061  0.0371 -0.2148 -0.1589
  166SOPE   O1418636   2.739   3.005  10.989 -0.0205  1.0456 -0.3724
  166SOPE   O1218637   2.773   3.251  10.997 -0.1944  0.0899 -0.0318
  166SOPE   O1118638   2.633   3.146  10.824  0.2664 -0.6859 -0.6284
  166SOPE    C118639   2.754   3.150  10.732  0.1065  0.3296 -0.2441
  166SOPE    HA18640   2.846   3.108  10.779  0.1979 -0.9055 -1.4548
  166SOPE    HB18641   2.784   3.255  10.709 -0.5799  0.8645  1.1565
  166SOPE    C218642   2.730   3.067  10.602 -0.1386 -0.3967  0.7701
  166SOPE    HS18643   2.824   3.010  10.587  0.2645  0.4675 -0.1279
  166SOPE   O2118644   2.701   3.164  10.497 -0.5064  0.4265 -0.0189
  166SOPE   C2118645   2.742   3.123  10.376  0.8614 -0.8004 -0.0588
  166SOPE   O2218646   2.799   3.018  10.360  0.4306 -0.0506 -0.5444
  166SOPE   C2218647   2.688   3.216  10.273  0.0571 -0.4944 -0.0050
  166SOPE   H2R18648   2.604   3.275  10.316 -1.2838 -1.8663 -0.6584
  166SOPE   H2S18649   2.651   3.153  10.189 -0.2862  0.1496 -0.3426
  166SOPE    C318650   2.601   2.983  10.625 -0.8228  0.4909 -0.4458
  166SOPE    HX18651   2.509   3.045  10.620  0.0843  1.8616 -0.4819
  166SOPE    HY18652   2.600   2.934  10.725  1.0604 -1.4789 -1.3211
  166SOPE   O3118653   2.591   2.869  10.540 -0.0704 -0.1269  0.0697
  166SOPE   C3118654   2.514   2.884  10.435  0.2457  0.2014  0.0113
  166SOPE   O3218655   2.452   2.986  10.405  0.2950  0.0404 -0.0102
  166SOPE   C3218656   2.503   2.754  10.353  0.2772  0.2240  1.2610
  166SOPE   H2X18657   2.433   2.690  10.409 -0.2595  1.1042  1.6208
  166SOPE   H2Y18658   2.603   2.705  10.344  1.1230  1.8939  1.0932
  166SOPE   C2318659   2.793   3.315  10.232  0.8606  0.1424  0.1768
  166SOPE   H3R18660   2.875   3.324  10.306  0.6736 -1.4328  0.6036
  166SOPE   H3S18661   2.746   3.416  10.224  0.8222  0.0965 -0.2408
  166SOPE   C2418662   2.849   3.282  10.096 -0.0426 -0.5822 -0.2353
  166SOPE   H4R18663   2.947   3.333  10.080 -0.3847  0.2635  0.2833
  166SOPE   H4S18664   2.873   3.174  10.095  2.4410 -0.1536  1.8544
  166SOPE   C2518665   2.753   3.313   9.981 -0.1837  0.0504  0.3199
  166SOPE   H5R18666   2.651   3.276  10.004  0.4682 -1.5051  0.8646
  166SOPE   H5S18667   2.753   3.424   9.971  0.2365 -0.0975 -1.8298
  166SOPE   C2618668   2.797   3.243   9.852  0.4675 -0.4050  0.8834
  166SOPE   H6R18669   2.897   3.285   9.826 -1.0771  2.5017 -1.0300
  166SOPE   H6S18670   2.803   3.133   9.865  2.3429 -0.4377 -0.0019
  166SOPE   C2718671   2.705   3.276   9.736 -0.3298  0.3154  0.7476
  166SOPE   H7R18672   2.615   3.212   9.741 -0.7281  0.7199 -0.7109
  166SOPE   H7S18673   2.680   3.385   9.742  1.0705  0.9408 -2.3495
  166SOPE   C2818674   2.775   3.272   9.600  0.3919  0.4895 -0.0287
  166SOPE   H8R18675   2.717   3.334   9.528  2.3572 -0.2203 -2.3829
  166SOPE   H8S18676   2.870   3.326   9.618  1.7505 -2.0358  0.9225
  166SOPE   C2918677   2.801   3.126   9.548  0.1752  0.6615  0.0511
  166SOPE   H9118678   2.870   3.067   9.609  1.2862  1.3035 -0.5517
  166SOPE  C21018679   2.732   3.070   9.444  0.6072  0.1821  0.0153
  166SOPE  H10118680   2.749   2.966   9.413  1.3647  0.1388  0.5432
  166SOPE  C21118681   2.618   3.132   9.359  0.0740 -0.7036 -0.6127
  166SOPE  H11R18682   2.612   3.243   9.362  0.5904 -0.6381 -1.6735
  166SOPE  H11S18683   2.523   3.082   9.385 -1.2900  1.7292 -0.6755
  166SOPE  C21218684   2.642   3.127   9.202  0.0185 -0.2823 -0.3527
  166SOPE  H12R18685   2.723   3.200   9.182  0.1873 -0.3632  0.0314
  166SOPE  H12S18686   2.549   3.174   9.164  0.6406  0.8432 -0.5266
  166SOPE  C21318687   2.657   2.976   9.159 -0.2338  0.6248  0.5798
  166SOPE  H13R18688   2.585   2.913   9.216 -0.7409  2.3373  1.9232
  166SOPE  H13S18689   2.760   2.940   9.182  0.0759  0.5471 -0.8369
  166SOPE  C21418690   2.648   2.971   9.007 -1.0104 -0.2508  0.4930
  166SOPE  H14R18691   2.721   3.041   8.962 -0.1565 -1.0848  0.5461
  166SOPE  H14S18692   2.544   2.994   8.976 -1.2511  0.5673  1.8516
  166SOPE  C21518693   2.676   2.839   8.942  0.3256  0.4766  0.3400
  166SOPE  H15R18694   2.679   2.762   9.023  1.9814  0.9986  0.8031
  166SOPE  H15S18695   2.774   2.831   8.891  0.7346 -0.2738  1.2203
  166SOPE  C21618696   2.568   2.787   8.839  0.0465 -0.0938 -0.0570
  166SOPE  H16R18697   2.467   2.814   8.874  0.6781  1.5199  0.6120
  166SOPE  H16S18698   2.571   2.677   8.825 -0.4862 -0.1401  0.1992
  166SOPE  C21718699   2.606   2.851   8.706 -0.2732  0.0344  0.5880
  166SOPE  H17R18700   2.712   2.827   8.680 -0.6919 -0.1467 -1.0379
  166SOPE  H17S18701   2.610   2.962   8.718  1.3815 -0.0200  0.8099
  166SOPE  C21818702   2.507   2.814   8.598  0.3056  0.0230  0.4422
  166SOPE  H18R18703   2.515   2.887   8.515 -0.2638  0.6026  0.8886
  166SOPE  H18S18704   2.404   2.824   8.637  0.3626  0.4155  0.4924
  166SOPE  H18T18705   2.529   2.708   8.572  2.3395 -1.0962  5.5303
  166SOPE   C3318706   2.445   2.781  10.206  0.0328 -0.1310  0.3168
  166SOPE   H3X18707   2.513   2.857  10.161 -1.6138  1.7174  0.7848
  166SOPE   H3Y18708   2.344   2.828  10.207  1.5197  3.3964 -0.3753
  166SOPE   C3418709   2.446   2.646  10.134  0.7344  0.6006  0.2017
  166SOPE   H4X18710   2.347   2.603  10.160 -0.1757  2.2339 -0.3637
  166SOPE   H4Y18711   2.522   2.577  10.176 -0.2073 -0.8393 -0.3910
  166SOPE   C3518712   2.484   2.669   9.989 -0.0674 -0.3827 -1.2367
  166SOPE   H5X18713   2.498   2.570   9.940  1.5661 -2.1357  2.4365
  166SOPE   H5Y18714   2.582   2.722   9.980 -0.7507  1.0047 -0.8534
  166SOPE   C3618715   2.375   2.743   9.910  0.6290 -0.0515 -0.1946
  166SOPE   H6X18716   2.387   2.848   9.945  2.2257  1.2850 -4.1767
  166SOPE   H6Y18717   2.270   2.709   9.925  0.8018 -1.0057 -1.0539
  166SOPE   C3718718   2.419   2.752   9.770  0.1729 -0.0297  0.1829
  166SOPE   H7X18719   2.411   2.653   9.721 -2.3835  0.8515 -1.3255
  166SOPE   H7Y18720   2.527   2.778   9.767  0.9610 -3.0116 -0.8771
  166SOPE   C3818721   2.327   2.849   9.693  0.4291  0.1327  0.2776
  166SOPE   H8X18722   2.310   2.933   9.764 -0.1241  1.1666 -1.0454
  166SOPE   H8Y18723   2.226   2.809   9.670  0.3437  0.0045  0.8689
  166SOPE   C3918724   2.389   2.915   9.575  0.4356  0.2467 -0.6516
  166SOPE   H9X18725   2.475   2.979   9.602  1.5117 -0.9486 -1.1514
  166SOPE   H9Y18726   2.307   2.976   9.531 -1.1847 -0.8187  0.7293
  166SOPE  C31018727   2.434   2.816   9.465  0.4314  0.7056  0.3210
  166SOPE  H10X18728   2.505   2.742   9.508  2.9016  2.4259 -0.6048
  166SOPE  H10Y18729   2.485   2.873   9.385  1.2373  0.3811  0.5875
  166SOPE  C31118730   2.324   2.723   9.405  0.4112 -0.2027 -0.4171
  166SOPE  H11X18731   2.235   2.783   9.375  1.6481  1.8947 -0.1164
  166SOPE  H11Y18732   2.284   2.659   9.487 -3.0194 -1.2710 -2.7205
  166SOPE  C31218733   2.387   2.625   9.308 -0.4774  0.6819 -0.2701
  166SOPE  H12X18734   2.475   2.593   9.368 -0.0650  0.6274 -0.8890
  166SOPE  H12Y18735   2.443   2.673   9.224  0.6343 -2.4015 -1.4629
  166SOPE  C31318736   2.308   2.498   9.261 -0.3604  0.4571  0.7991
  166SOPE  H13X18737   2.211   2.520   9.309 -1.0692  0.7487 -0.7093
  166SOPE  H13Y18738   2.361   2.412   9.308 -1.3578 -1.1541 -0.8855
  166SOPE  C31418739   2.301   2.475   9.113 -0.1374  0.5163 -0.0569
  166SOPE  H14X18740   2.205   2.421   9.095  1.0047 -0.8356 -2.7781
  166SOPE  H14Y18741   2.376   2.398   9.085 -1.2527 -0.2750 -0.9659
  166SOPE  C31518742   2.300   2.601   9.027  0.0500 -0.2680  0.0361
  166SOPE  H15X18743   2.405   2.636   9.012 -0.6840  1.2188 -2.2012
  166SOPE  H15Y18744   2.242   2.682   9.076  1.3378  0.6130  0.1797
  166SOPE  C31618745   2.244   2.586   8.884 -0.4607  0.3943 -0.4035
  166SOPE  H16X18746   2.245   2.677   8.821  0.0648  0.5050 -0.2395
  166SOPE  H16Y18747   2.136   2.562   8.894 -0.6288  1.5620  0.9266
  166SOPE  C31718748   2.315   2.483   8.794  0.0450  0.3241  0.4439
  166SOPE  H17X18749   2.279   2.385   8.832  0.6961 -0.0924 -0.0057
  166SOPE  H17Y18750   2.426   2.487   8.800  0.1614 -0.7950 -0.7512
  166SOPE  C31818751   2.284   2.509   8.645  0.4873  0.8659  0.0393
  166SOPE  H18X18752   2.299   2.424   8.575 -1.0555 -0.6937  1.4831
  166SOPE  H18Y18753   2.339   2.596   8.604  0.7371  0.4513 -0.5226
  166SOPE  H18Z18754   2.175   2.528   8.646 -0.0027 -1.3686 -1.9141
  167SOPE     N18755   4.328   2.512   6.438  0.2099  0.4836  0.3281
  167SOPE   HN118756   4.348   2.426   6.383 -4.3248 -0.5201 -0.1501
  167SOPE   HN218757   4.354   2.598   6.385  0.7978  0.3815  0.4485
  167SOPE   HN318758   4.379   2.490   6.526  0.2798  0.5347  0.3011
  167SOPE   C1218759   4.178   2.511   6.446  0.1579 -0.6936  0.4658
  167SOPE  H12A18760   4.138   2.575   6.528 -1.6450 -0.1924 -0.7514
  167SOPE  H12B18761   4.151   2.407   6.475  0.2832 -0.3043  2.1010
  167SOPE   C1118762   4.109   2.543   6.310  0.3608  0.1376  0.1236
  167SOPE  H11A18763   4.132   2.649   6.288  2.6500 -0.2469  0.4151
  167SOPE  H11B18764   3.999   2.545   6.324  0.3225  0.5093 -0.2084
  167SOPE     P18765   4.057   2.337   6.163  0.1251  0.6191 -0.1801
  167SOPE   O1318766   4.142   2.231   6.100  0.5762 -0.3532 -0.0887
  167SOPE   O1418767   3.932   2.371   6.092 -0.1169 -0.4324 -0.0159
  167SOPE   O1218768   4.143   2.463   6.196  0.1940 -0.4949 -0.1842
  167SOPE   O1118769   4.011   2.271   6.304 -0.1246  0.5191 -0.1616
  167SOPE    C118770   4.070   2.146   6.348  0.2941 -0.4472  0.2284
  167SOPE    HA18771   4.179   2.147   6.327  0.2985  0.8063  0.2039
  167SOPE    HB18772   4.025   2.057   6.299  0.8036 -2.4874  3.1555
  167SOPE    C218773   4.054   2.118   6.500  0.0246  0.7846  0.4374
  167SOPE    HS18774   3.948   2.084   6.510  0.3507 -0.2699  0.4376
  167SOPE   O2118775   4.083   2.234   6.577  0.1370 -0.0123 -0.5456
  167SOPE   C2118776   4.033   2.235   6.701 -0.1448 -0.0527  0.6333
  167SOPE   O2218777   3.954   2.154   6.743  0.5072 -0.6814 -0.2329
  167SOPE   C2218778   4.093   2.359   6.766 -0.5565  0.6617  0.4774
  167SOPE   H2R18779   4.010   2.431   6.784  0.2860  1.1903  2.5761
  167SOPE   H2S18780   4.163   2.404   6.693 -1.7683  0.3854 -0.8998
  167SOPE    C318781   4.140   1.991   6.545 -0.4392  0.9819 -0.4265
  167SOPE    HX18782   4.241   2.033   6.523  0.2794 -0.2521  0.3800
  167SOPE    HY18783   4.136   1.897   6.486  3.0389 -2.1720  3.6732
  167SOPE   O3118784   4.152   1.963   6.690 -0.2943 -0.1574  0.0935
  167SOPE   C3118785   4.056   1.873   6.717 -0.4103  0.4825  0.3376
  167SOPE   O3218786   3.959   1.841   6.649 -0.1349 -0.2628 -0.0005
  167SOPE   C3218787   4.083   1.802   6.849  0.6009 -0.1351  0.0475
  167SOPE   H2X18788   4.183   1.754   6.839 -1.2937 -4.7802  0.8699
  167SOPE   H2Y18789   4.006   1.723   6.858 -0.4658  0.5315 -2.3071
  167SOPE   C2318790   4.154   2.324   6.897  0.6934 -0.5055 -0.1796
  167SOPE   H3R18791   4.213   2.414   6.921 -1.2014  1.2627 -1.8155
  167SOPE   H3S18792   4.209   2.227   6.898 -0.0447 -0.9505 -1.0803
  167SOPE   C2418793   4.051   2.313   7.013 -0.2087 -0.0294  0.2209
  167SOPE   H4R18794   3.992   2.408   7.017 -0.7812 -0.2984 -1.0710
  167SOPE   H4S18795   3.987   2.228   6.982 -0.3085 -0.5390  1.7495
  167SOPE   C2518796   4.118   2.284   7.144 -0.0106  0.0449  0.4043
  167SOPE   H5R18797   4.172   2.187   7.146 -0.1437 -0.0292  1.8857
  167SOPE   H5S18798   4.180   2.373   7.169  0.2281  0.7363 -2.3474
  167SOPE   C2618799   4.010   2.272   7.261 -0.0683  0.6186  0.4781
  167SOPE   H6R18800   4.005   2.374   7.306  1.9682  0.6815  0.6821
  167SOPE   H6S18801   3.914   2.242   7.214 -0.1080  4.5737 -2.4956
  167SOPE   C2718802   4.045   2.179   7.374  0.3853  0.0840  0.9295
  167SOPE   H7R18803   4.084   2.081   7.339 -0.8113 -0.6176  1.4901
  167SOPE   H7S18804   4.132   2.221   7.427  1.8881 -0.3722 -1.0621
  167SOPE   C2818805   3.931   2.169   7.475 -0.2714 -0.9120  0.1984
  167SOPE   H8R18806   3.989   2.156   7.569  2.3632  0.6060 -1.0860
  167SOPE   H8S18807   3.887   2.270   7.493  0.8754 -0.6095  1.4640
  167SOPE   C2918808   3.827   2.067   7.442  0.6561 -0.0246 -0.0042
  167SOPE   H9118809   3.753   2.100   7.367  0.6814  0.1570  0.0492
  167SOPE  C21018810   3.816   1.939   7.482  0.2452  0.4452 -0.7978
  167SOPE  H10118811   3.747   1.869   7.432  0.2993  0.2672 -0.6209
  167SOPE  C21118812   3.905   1.877   7.577 -0.0993 -1.0328 -0.0303
  167SOPE  H11R18813   4.005   1.915   7.546 -0.4724 -0.5971 -0.7360
  167SOPE  H11S18814   3.901   1.766   7.585  0.8110 -1.1332 -0.7380
  167SOPE  C21218815   3.893   1.924   7.723  0.2769  0.4579 -0.7914
  167SOPE  H12R18816   3.940   2.024   7.737 -1.3030  1.4092 -1.9834
  167SOPE  H12S18817   3.944   1.853   7.792 -1.6034  0.2473  0.4531
  167SOPE  C21318818   3.750   1.912   7.779 -0.3456  0.2215 -0.4595
  167SOPE  H13R18819   3.722   1.805   7.773  0.3236 -0.0980  1.3306
  167SOPE  H13S18820   3.677   1.969   7.717  0.2123 -0.3769 -1.6882
  167SOPE  C21418821   3.741   1.955   7.926  0.4386  0.0291  0.2003
  167SOPE  H14R18822   3.760   2.064   7.937  1.0003 -0.1118  0.7037
  167SOPE  H14S18823   3.822   1.905   7.983 -0.0160  0.5039  1.2920
  167SOPE  C21518824   3.619   1.907   8.001 -0.0553 -0.1145  0.0671
  167SOPE  H15R18825   3.609   1.797   7.988 -0.5954 -0.2818  1.6335
  167SOPE  H15S18826   3.523   1.943   7.959 -0.7786 -1.4841  0.4577
  167SOPE  C21618827   3.630   1.947   8.150 -0.8178  0.1469  0.5358
  167SOPE  H16R18828   3.630   2.058   8.156 -1.0730  0.1366  0.7751
  167SOPE  H16S18829   3.723   1.909   8.198 -1.3698 -1.7777  0.1874
  167SOPE  C21718830   3.510   1.895   8.237 -0.0065 -0.8931 -0.5268
  167SOPE  H17R18831   3.524   1.786   8.225  2.1872 -0.8653  1.2403
  167SOPE  H17S18832   3.417   1.925   8.183 -0.4784 -1.2475  0.0802
  167SOPE  C21818833   3.505   1.935   8.384  0.1938  0.1287 -0.4003
  167SOPE  H18R18834   3.585   1.879   8.436 -0.3488 -0.3166 -0.0255
  167SOPE  H18S18835   3.412   1.901   8.435  1.1036  0.8799  1.8839
  167SOPE  H18T18836   3.523   2.043   8.405 -1.8362  0.3458  0.4796
  167SOPE   C3318837   4.093   1.885   6.978 -0.8658 -0.0505 -0.2108
  167SOPE   H3X18838   4.019   1.968   6.981 -1.3181 -0.4246 -0.7145
  167SOPE   H3Y18839   4.193   1.932   6.976  0.9028 -3.4502  0.3777
  167SOPE   C3418840   4.079   1.811   7.111 -0.2396  0.2137 -0.0509
  167SOPE   H4X18841   4.045   1.706   7.095  0.9912 -0.0531 -1.0696
  167SOPE   H4Y18842   4.002   1.862   7.174 -0.1173 -0.3546  0.5639
  167SOPE   C3518843   4.216   1.815   7.186  0.0430 -0.6914 -0.2903
  167SOPE   H5X18844   4.239   1.924   7.189 -2.3508 -0.0990 -1.0702
  167SOPE   H5Y18845   4.297   1.772   7.123  1.9838  1.7773  0.3327
  167SOPE   C3618846   4.207   1.745   7.327  0.4013 -0.0265 -0.4353
  167SOPE   H6X18847   4.185   1.638   7.307 -2.8855  0.0801  1.7857
  167SOPE   H6Y18848   4.109   1.783   7.365  0.2744 -1.9000  1.2775
  167SOPE   C3718849   4.327   1.761   7.411 -0.1800 -0.0047  0.1922
  167SOPE   H7X18850   4.423   1.743   7.359 -0.2855 -1.2570  0.3799
  167SOPE   H7Y18851   4.323   1.691   7.498  1.2513  0.7842  0.9333
  167SOPE   C3818852   4.325   1.907   7.475 -0.4051 -0.1604 -0.5315
  167SOPE   H8X18853   4.231   1.933   7.529 -1.4913  0.9852 -2.8056
  167SOPE   H8Y18854   4.319   1.977   7.388  0.8347  0.3277 -0.2430
  167SOPE   C3918855   4.442   1.933   7.572 -0.0984  0.3545  0.2681
  167SOPE   H9X18856   4.454   2.043   7.578 -0.1236  0.3233  0.9398
  167SOPE   H9Y18857   4.541   1.889   7.547 -0.5833 -2.6318  2.9332
  167SOPE  C31018858   4.419   1.869   7.708 -0.3831 -0.0297 -0.6016
  167SOPE  H10X18859   4.510   1.880   7.771 -1.8803 -2.4539  2.2066
  167SOPE  H10Y18860   4.389   1.763   7.695 -0.4683  0.1802 -2.3411
  167SOPE  C31118861   4.299   1.926   7.790 -0.0398  0.3655  0.0914
  167SOPE  H11X18862   4.204   1.919   7.733  0.7807 -1.7169 -1.1278
  167SOPE  H11Y18863   4.310   2.031   7.825  1.2079 -0.3402  1.9733
  167SOPE  C31218864   4.284   1.850   7.922  0.3463  0.3066  0.1993
  167SOPE  H12X18865   4.269   1.743   7.894 -2.5374  0.5944  0.2942
  167SOPE  H12Y18866   4.187   1.891   7.959  0.4916  1.1224 -0.2921
  167SOPE  C31318867   4.400   1.855   8.030  0.6898  0.2920  0.4061
  167SOPE  H13X18868   4.493   1.814   7.984  0.9648  0.5064  0.7685
  167SOPE  H13Y18869   4.379   1.790   8.118  1.8437 -0.8419 -0.1088
  167SOPE  C31418870   4.417   1.998   8.066  0.3302  0.2409  0.3543
  167SOPE  H14X18871   4.313   2.036   8.073 -0.5405 -1.8273 -0.5624
  167SOPE  H14Y18872   4.485   2.048   7.994  0.6369 -0.4367  0.1636
  167SOPE  C31518873   4.473   2.021   8.204  0.2381  0.1609  0.0329
  167SOPE  H15X18874   4.562   1.956   8.217  2.0526  2.2091 -1.3415
  167SOPE  H15Y18875   4.392   2.003   8.279 -1.0436  0.1649 -1.2902
  167SOPE  C31618876   4.522   2.167   8.227 -0.2220  0.2858  0.1977
  167SOPE  H16X18877   4.444   2.246   8.227 -0.7555 -0.2396 -0.1449
  167SOPE  H16Y18878   4.606   2.195   8.160 -0.3339  0.7716  0.2574
  167SOPE  C31718879   4.574   2.174   8.372  0.3861  0.4675  0.0557
  167SOPE  H17X18880   4.637   2.083   8.378 -0.7527 -0.3333  0.0942
  167SOPE  H17Y18881   4.486   2.162   8.438  2.3893 -0.8677  2.6695
  167SOPE  C31818882   4.638   2.317   8.395 -0.3763  0.5733 -0.4752
  167SOPE  H18X18883   4.717   2.328   8.317 -1.3647  0.7808 -1.4725
  167SOPE  H18Y18884   4.679   2.324   8.498 -1.3086 -0.7081  0.0168
  167SOPE  H18Z18885   4.571   2.406   8.394  0.3368  1.1113 -1.6738
  168SOPE     N18886   1.013   2.386   6.254 -0.9057 -0.3052 -0.1067
  168SOPE   HN118887   0.980   2.296   6.294 -2.0207  0.6218  1.1806
  168SOPE   HN218888   0.970   2.405   6.161 -0.6325  0.3612 -0.1009
  168SOPE   HN318889   1.113   2.371   6.231 -1.3590 -2.0165 -1.0740
  168SOPE   C1218890   0.988   2.497   6.342  0.5672 -0.1639  0.3046
  168SOPE  H12A18891   0.956   2.444   6.435  0.8866 -2.5906 -0.8862
  168SOPE  H12B18892   0.907   2.556   6.294 -0.2410 -2.2137 -1.0047
  168SOPE   C1118893   1.109   2.582   6.365  0.1884 -0.0770 -0.1472
  168SOPE  H11A18894   1.194   2.520   6.399 -0.2024 -0.9783 -0.7725
  168SOPE  H11B18895   1.089   2.644   6.455 -0.7061  1.0500 -1.0848
  168SOPE     P18896   1.242   2.786   6.264 -0.2334 -0.2889 -0.2799
  168SOPE   O1318897   1.180   2.910   6.215 -0.0357 -0.1471  0.0322
  168SOPE   O1418898   1.369   2.748   6.197  0.1611  0.8784  0.1645
  168SOPE   O1218899   1.132   2.664   6.253 -0.1166  0.1405 -0.2900
  168SOPE   O1118900   1.271   2.805   6.418 -0.3130  0.0728 -1.0890
  168SOPE    C118901   1.405   2.849   6.462  0.2926 -0.3492 -0.3229
  168SOPE    HA18902   1.378   2.901   6.556  0.6096 -0.4397 -0.1832
  168SOPE    HB18903   1.458   2.925   6.401  1.9372 -0.7541  0.5667
  168SOPE    C218904   1.496   2.723   6.493  0.4795  0.0514 -0.5133
  168SOPE    HS18905   1.524   2.680   6.395  3.6904  2.9847 -1.0769
  168SOPE   O2118906   1.428   2.630   6.578  0.1439  0.4437  0.8116
  168SOPE   C2118907   1.472   2.506   6.573  0.0056  0.4904  0.0919
  168SOPE   O2218908   1.564   2.463   6.498 -0.3344 -0.2239 -0.1171
  168SOPE   C2218909   1.375   2.420   6.650 -0.0388  0.1526 -0.1990
  168SOPE   H2R18910   1.309   2.370   6.577 -1.3881  0.9783  0.4242
  168SOPE   H2S18911   1.310   2.496   6.699  0.6128  1.3165 -1.0660
  168SOPE    C318912   1.630   2.765   6.553 -0.4348 -0.2610  0.0700
  168SOPE    HX18913   1.682   2.839   6.488 -2.2327  0.5811 -0.4813
  168SOPE    HY18914   1.687   2.670   6.547  0.0773  0.0587 -0.1535
  168SOPE   O3118915   1.616   2.833   6.684  0.2458  0.4067 -0.5061
  168SOPE   C3118916   1.656   2.759   6.791  0.4404 -0.4074  0.3150
  168SOPE   O3218917   1.708   2.651   6.789 -0.0024 -0.3356  0.8128
  168SOPE   C3218918   1.646   2.847   6.917 -0.0047  0.4042 -0.2419
  168SOPE   H2X18919   1.544   2.887   6.937  0.2551  0.6409  0.6621
  168SOPE   H2Y18920   1.715   2.930   6.893  1.8002 -0.8717  0.2686
  168SOPE   C2318921   1.431   2.316   6.749 -0.8840  0.0615 -0.0884
  168SOPE   H3R18922   1.497   2.252   6.688  0.1772  2.7622 -1.9567
  168SOPE   H3S18923   1.343   2.259   6.786 -0.5992  1.3266  2.8535
  168SOPE   C2418924   1.508   2.375   6.873  0.5499  0.4011 -0.6211
  168SOPE   H4R18925   1.593   2.439   6.840 -1.3529  1.9447 -2.8149
  168SOPE   H4S18926   1.439   2.447   6.921 -0.2241 -1.3928  1.1015
  168SOPE   C2518927   1.554   2.266   6.965 -0.0877 -0.2672 -0.2824
  168SOPE   H5R18928   1.478   2.186   6.973 -1.3942  0.9840  0.3612
  168SOPE   H5S18929   1.642   2.216   6.920  2.4906  2.9059  0.8495
  168SOPE   C2618930   1.601   2.326   7.101 -0.2719  0.5331 -0.1175
  168SOPE   H6R18931   1.681   2.400   7.080  2.0788 -1.1764  2.0843
  168SOPE   H6S18932   1.521   2.379   7.157 -0.3948 -0.5893  0.8348
  168SOPE   C2718933   1.649   2.217   7.203 -0.6133 -0.4506  0.1784
  168SOPE   H7R18934   1.567   2.142   7.207  0.9182 -2.1876  0.2614
  168SOPE   H7S18935   1.741   2.172   7.161  0.2936 -0.6983  2.2850
  168SOPE   C2818936   1.674   2.281   7.345  0.4324  0.2687  0.3974
  168SOPE   H8R18937   1.762   2.347   7.334  2.7839 -2.3714  1.9581
  168SOPE   H8S18938   1.578   2.330   7.374  1.6433  1.4935  2.5895
  168SOPE   C2918939   1.712   2.166   7.433  0.3681  0.1863 -0.1203
  168SOPE   H9118940   1.779   2.094   7.384 -0.6756 -1.6870  1.0876
  168SOPE  C21018941   1.649   2.129   7.549 -0.4303 -0.5657  0.6022
  168SOPE  H10118942   1.666   2.038   7.607  0.2137 -0.7952  0.0647
  168SOPE  C21118943   1.533   2.207   7.608 -0.8861 -0.4198 -0.6740
  168SOPE  H11R18944   1.438   2.171   7.563 -0.7244  0.5247 -1.8481
  168SOPE  H11S18945   1.533   2.318   7.603  1.6822 -0.0817  2.9303
  168SOPE  C21218946   1.526   2.182   7.755  0.0083  0.4714 -0.0394
  168SOPE  H12R18947   1.532   2.073   7.776 -1.1907  0.6704  1.5594
  168SOPE  H12S18948   1.422   2.207   7.786  0.4012  1.0684  0.8280
  168SOPE  C21318949   1.632   2.258   7.831 -0.0624  0.3154  1.2303
  168SOPE  H13R18950   1.629   2.356   7.779  0.4975 -1.0387 -1.5429
  168SOPE  H13S18951   1.731   2.212   7.807 -1.9129 -1.6672 -4.0998
  168SOPE  C21418952   1.604   2.265   7.986  0.6731  0.0507  0.1322
  168SOPE  H14R18953   1.513   2.327   7.989  0.1790 -0.6577  0.1148
  168SOPE  H14S18954   1.680   2.320   8.046  1.2121 -0.8258  0.2782
  168SOPE  C21518955   1.564   2.139   8.061 -0.0608  0.2552  0.4977
  168SOPE  H15R18956   1.631   2.051   8.048 -0.7954 -0.2828  0.3013
  168SOPE  H15S18957   1.466   2.109   8.018  0.3440 -1.0978  0.4659
  168SOPE  C21618958   1.538   2.180   8.205  0.2676  0.9358 -0.0666
  168SOPE  H16R18959   1.445   2.241   8.201 -0.9453 -0.8882 -0.7933
  168SOPE  H16S18960   1.616   2.246   8.248  1.2234 -0.5382  0.5162
  168SOPE  C21718961   1.539   2.063   8.304  0.0555 -0.3030 -0.0342
  168SOPE  H17R18962   1.644   2.034   8.324  0.3026 -0.1160 -1.0043
  168SOPE  H17S18963   1.488   1.975   8.260  0.1746 -1.3851  1.9082
  168SOPE  C21818964   1.476   2.075   8.447 -0.7928 -0.1073 -0.0239
  168SOPE  H18R18965   1.462   1.979   8.500 -1.8628 -0.8376 -1.5557
  168SOPE  H18S18966   1.376   2.122   8.434 -0.3760  0.4817 -1.2251
  168SOPE  H18T18967   1.538   2.135   8.518 -0.1506  0.5550 -1.1096
  168SOPE   C3318968   1.682   2.757   7.040  0.0207 -0.0991  0.8972
  168SOPE   H3X18969   1.792   2.746   7.026 -0.2953 -0.0760 -2.5126
  168SOPE   H3Y18970   1.643   2.653   7.030  2.2684 -1.2203  2.6453
  168SOPE   C3418971   1.626   2.812   7.176 -0.1297  0.3328  0.3311
  168SOPE   H4X18972   1.521   2.844   7.161  0.5913  3.9856  1.9773
  168SOPE   H4Y18973   1.681   2.903   7.210 -1.3523  1.3083 -0.2247
  168SOPE   C3518974   1.650   2.727   7.299 -0.0484  0.7270  0.4759
  168SOPE   H5X18975   1.757   2.699   7.307  0.0101  0.2766 -1.4374
  168SOPE   H5Y18976   1.595   2.633   7.279 -0.8577  1.0931  0.8942
  168SOPE   C3618977   1.595   2.793   7.422  0.1296  0.1659 -0.0754
  168SOPE   H6X18978   1.484   2.799   7.416  0.1771  0.1619 -1.4899
  168SOPE   H6Y18979   1.635   2.896   7.431 -2.5094  1.3760 -1.0171
  168SOPE   C3718980   1.634   2.718   7.555 -0.0469  0.4433  0.1976
  168SOPE   H7X18981   1.744   2.705   7.557  0.5211  1.9446 -5.1098
  168SOPE   H7Y18982   1.601   2.613   7.543 -0.0672  0.5023 -0.2679
  168SOPE   C3818983   1.580   2.795   7.683  0.2147 -0.0265 -0.2066
  168SOPE   H8X18984   1.477   2.828   7.655  0.0105  1.6126  2.1638
  168SOPE   H8Y18985   1.647   2.879   7.709  0.5626 -0.2663 -0.3301
  168SOPE   C3918986   1.566   2.693   7.801  0.3887 -0.4307 -0.4049
  168SOPE   H9X18987   1.659   2.636   7.820  0.3492 -0.2546  0.3572
  168SOPE   H9Y18988   1.487   2.619   7.776 -0.0588  0.2616 -1.0986
  168SOPE  C31018989   1.523   2.761   7.931 -0.6131 -0.4610  0.3213
  168SOPE  H10X18990   1.413   2.774   7.934 -0.5240  0.9652 -1.2999
  168SOPE  H10Y18991   1.576   2.858   7.937 -1.5490  0.0660  0.2001
  168SOPE  C31118992   1.574   2.686   8.056 -0.8071  0.4970  0.5563
  168SOPE  H11X18993   1.682   2.708   8.061 -0.5534 -0.1666 -1.4413
  168SOPE  H11Y18994   1.561   2.575   8.053 -1.2141  0.4737  2.0189
  168SOPE  C31218995   1.516   2.728   8.186  0.0022 -0.4097  0.2758
  168SOPE  H12X18996   1.406   2.716   8.199 -0.4743  0.1503 -2.6094
  168SOPE  H12Y18997   1.531   2.838   8.191 -0.8266 -0.2713 -0.2530
  168SOPE  C31318998   1.579   2.650   8.307 -0.1391 -0.2251  0.5463
  168SOPE  H13X18999   1.574   2.721   8.392  0.5740  0.8562 -0.2741
  168SOPE  H13Y19000   1.689   2.634   8.295  0.4562  3.6088 -0.6794
  168SOPE  C31419001   1.506   2.513   8.318  0.1157 -0.3596 -0.2277
  168SOPE  H14X19002   1.530   2.455   8.226 -0.3486 -0.1052 -0.5153
  168SOPE  H14Y19003   1.397   2.531   8.306  0.4030  2.2935  0.4280
  168SOPE  C31519004   1.543   2.451   8.458  0.8736  0.5237  0.4575
  168SOPE  H15X19005   1.653   2.449   8.471  0.7765 -2.3402  1.4077
  168SOPE  H15Y19006   1.501   2.349   8.451  0.5091  0.7830 -4.4643
  168SOPE  C31619007   1.479   2.516   8.579  0.3236 -0.0265  0.2931
  168SOPE  H16X19008   1.396   2.584   8.550  0.0900  0.8537  2.7614
  168SOPE  H16Y19009   1.555   2.590   8.610 -0.9989  1.3743  0.3217
  168SOPE  C31719010   1.439   2.416   8.684 -0.8159 -0.0867  0.7746
  168SOPE  H17X19011   1.515   2.336   8.698  0.3042  0.5609 -1.1489
  168SOPE  H17Y19012   1.345   2.366   8.652 -0.9222  0.3345  0.4177
  168SOPE  C31819013   1.402   2.474   8.818  0.5689  0.5797  0.1328
  168SOPE  H18X19014   1.340   2.565   8.804 -2.5328 -1.2996  0.7522
  168SOPE  H18Y19015   1.491   2.479   8.884 -0.3177 -0.8541  1.5314
  168SOPE  H18Z19016   1.325   2.413   8.870 -1.1420  2.4335 -0.0949
  169SOPE     N19017   0.169   3.961   5.961 -0.4750  0.3626  0.1884
  169SOPE   HN119018   0.130   3.865   5.950 -0.8498  0.3409  1.4773
  169SOPE   HN219019   0.199   3.996   5.868 -1.0399  0.0015 -0.1375
  169SOPE   HN319020   0.239   3.954   6.037 -3.3212  1.8250  3.2123
  169SOPE   C1219021   0.046   4.034   6.027 -0.1225 -0.4881  0.9251
  169SOPE  H12A19022   0.008   3.973   6.111 -0.9080  1.5598  2.1398
  169SOPE  H12B19023  -0.033   4.048   5.950  1.4149  3.0212 -0.2404
  169SOPE   C1119024   0.092   4.179   6.055  0.6786 -0.4305  0.3514
  169SOPE  H11A19025   0.014   4.242   6.104  1.5444 -0.0978  1.3527
  169SOPE  H11B19026   0.107   4.237   5.962  2.5973  0.3133  1.0705
  169SOPE     P19027   0.271   4.312   6.198 -0.2632 -0.1779 -0.0751
  169SOPE   O1319028   0.269   4.423   6.099 -0.0778  0.3235 -0.0144
  169SOPE   O1419029   0.398   4.280   6.262 -0.2486  0.0538  0.0762
  169SOPE   O1219030   0.217   4.185   6.129  0.2762  0.3453  0.3122
  169SOPE   O1119031   0.168   4.333   6.316 -0.2726 -0.7156 -0.7552
  169SOPE    C119032   0.108   4.214   6.374 -0.1324  0.5448 -0.5402
  169SOPE    HA19033   0.179   4.130   6.364  1.3791  1.9346 -2.0255
  169SOPE    HB19034   0.015   4.182   6.322 -0.0640  0.4404 -0.5986
  169SOPE    C219035   0.082   4.238   6.524 -0.2000 -0.2715  0.3685
  169SOPE    HS19036   0.006   4.319   6.529 -0.1485 -0.2290  0.4674
  169SOPE   O2119037   0.206   4.293   6.574  0.0501  0.3102  0.0179
  169SOPE   C2119038   0.194   4.384   6.670 -0.4569 -1.0131  0.3428
  169SOPE   O2219039   0.094   4.435   6.710 -0.8146  0.0476 -0.6187
  169SOPE   C2219040   0.335   4.407   6.723 -0.8832  0.6305 -0.1259
  169SOPE   H2R19041   0.407   4.412   6.639 -0.8117  2.6311 -0.0107
  169SOPE   H2S19042   0.379   4.325   6.784 -0.2766  1.9960  1.3435
  169SOPE    C319043   0.050   4.115   6.608 -0.3493  0.3271 -0.0066
  169SOPE    HX19044   0.138   4.047   6.614 -0.1492  0.5899  0.0641
  169SOPE    HY19045  -0.028   4.066   6.546  2.5312 -1.8121 -2.2028
  169SOPE   O3119046   0.015   4.159   6.746 -0.2232 -0.4611 -0.2103
  169SOPE   C3119047  -0.069   4.090   6.807 -0.1399 -0.1084 -0.5952
  169SOPE   O3219048  -0.141   4.005   6.753  0.0470 -0.3486  0.4800
  169SOPE   C3219049  -0.072   4.127   6.955 -0.2725  0.1259 -0.3649
  169SOPE   H2X19050  -0.159   4.194   6.974  0.8095  0.9500  2.1000
  169SOPE   H2Y19051   0.021   4.187   6.963  0.6157 -1.3677  1.3167
  169SOPE   C2319052   0.340   4.530   6.816 -0.0702 -0.4505 -0.1460
  169SOPE   H3R19053   0.298   4.615   6.758 -2.0641 -1.8461 -0.8354
  169SOPE   H3S19054   0.446   4.562   6.830 -0.0083 -0.5059 -0.4868
  169SOPE   C2419055   0.272   4.520   6.952  0.0021  1.2566 -0.4469
  169SOPE   H4R19056   0.254   4.612   7.011  2.3422 -0.0091  2.4663
  169SOPE   H4S19057   0.170   4.477   6.940  0.4534 -0.5644  1.6530
  169SOPE   C2519058   0.345   4.417   7.045 -0.3284 -0.1989  0.6157
  169SOPE   H5R19059   0.349   4.317   6.996 -1.4833  1.1618 -2.4908
  169SOPE   H5S19060   0.451   4.450   7.048 -0.0972 -0.7916 -0.3358
  169SOPE   C2619061   0.307   4.414   7.192 -0.2934  0.6056  0.3594
  169SOPE   H6R19062   0.363   4.346   7.260 -2.6786 -0.8195  1.0457
  169SOPE   H6S19063   0.337   4.515   7.227  1.4802  0.1589  0.1958
  169SOPE   C2719064   0.158   4.387   7.219 -0.8598  0.0225 -0.3120
  169SOPE   H7R19065   0.096   4.448   7.150 -0.2329 -1.4963 -2.3301
  169SOPE   H7S19066   0.163   4.281   7.184  0.2370 -0.2712  0.6415
  169SOPE   C2819067   0.135   4.410   7.368 -0.0376 -0.1351  0.1437
  169SOPE   H8R19068   0.029   4.378   7.370  0.2566 -1.2577 -1.0502
  169SOPE   H8S19069   0.203   4.349   7.432 -0.4355 -1.7478 -0.9271
  169SOPE   C2919070   0.138   4.557   7.399  0.7118 -0.3502 -0.0322
  169SOPE   H9119071   0.144   4.627   7.314 -1.2277  0.5159  0.4693
  169SOPE  C21019072   0.137   4.612   7.525 -0.1783  0.5234  0.4041
  169SOPE  H10119073   0.135   4.721   7.542  1.9617  1.3805 -3.5136
  169SOPE  C21119074   0.117   4.529   7.647  0.5507  0.0912 -0.3924
  169SOPE  H11R19075   0.115   4.419   7.632  0.0138 -0.2048  1.5245
  169SOPE  H11S19076   0.018   4.547   7.695  0.9581  0.1027  0.4752
  169SOPE  C21219077   0.225   4.574   7.745 -0.0171  0.9498 -0.2890
  169SOPE  H12R19078   0.212   4.679   7.781  0.7569  1.9075 -2.6197
  169SOPE  H12S19079   0.323   4.561   7.694 -0.1204 -1.4052  0.0037
  169SOPE  C21319080   0.233   4.483   7.871 -0.0498 -0.2732 -0.2217
  169SOPE  H13R19081   0.275   4.386   7.836 -1.8832 -0.9811 -0.5938
  169SOPE  H13S19082   0.130   4.465   7.907  0.4761 -2.1905  0.4369
  169SOPE  C21419083   0.314   4.550   7.982 -0.3885  0.5577  0.1388
  169SOPE  H14R19084   0.266   4.634   8.036 -0.3255  0.7826 -0.1517
  169SOPE  H14S19085   0.408   4.595   7.943  0.0336 -1.0109 -0.7447
  169SOPE  C21519086   0.335   4.452   8.104 -0.1861  0.1218 -0.1296
  169SOPE  H15R19087   0.368   4.354   8.063 -1.4083 -1.4397  2.3268
  169SOPE  H15S19088   0.242   4.437   8.164  0.6501  1.5075  1.5846
  169SOPE  C21619089   0.443   4.493   8.206  0.2098 -0.2415 -0.5295
  169SOPE  H16R19090   0.436   4.440   8.304 -1.2023  1.3288  0.2788
  169SOPE  H16S19091   0.409   4.596   8.230 -2.2238 -0.9566 -0.5747
  169SOPE  C21719092   0.591   4.475   8.154  0.9247 -0.5895  0.1234
  169SOPE  H17R19093   0.629   4.568   8.107  0.6493 -1.0439 -1.0176
  169SOPE  H17S19094   0.590   4.399   8.073  3.9581  0.4946 -1.0784
  169SOPE  C21819095   0.689   4.431   8.257 -1.0505  0.4223  0.3799
  169SOPE  H18R19096   0.791   4.422   8.213 -1.8464  0.4796 -1.5603
  169SOPE  H18S19097   0.661   4.332   8.299 -1.8769 -1.0044 -3.1832
  169SOPE  H18T19098   0.712   4.513   8.328  1.9511 -1.2956  1.5696
  169SOPE   C3319099  -0.072   3.993   7.033 -0.1792  0.2888  0.3085
  169SOPE   H3X19100  -0.008   3.921   6.978  1.0058  2.8700 -1.9668
  169SOPE   H3Y19101  -0.179   3.963   7.026 -0.1097  0.1620 -0.2761
  169SOPE   C3419102  -0.017   4.008   7.176  0.2500  0.1394 -0.4211
  169SOPE   H4X19103   0.069   4.078   7.185  0.3192 -0.1114  0.9963
  169SOPE   H4Y19104   0.023   3.909   7.207 -0.6320  0.1224  0.7173
  169SOPE   C3519105  -0.122   4.044   7.280  0.6471  0.6628  0.0022
  169SOPE   H5X19106  -0.202   3.967   7.284  0.3233  1.0190  0.4875
  169SOPE   H5Y19107  -0.170   4.139   7.250  1.5028  1.2269  0.3892
  169SOPE   C3619108  -0.072   4.055   7.415 -0.1897 -0.3440 -0.3753
  169SOPE   H6X19109  -0.009   4.146   7.423 -0.2885 -0.3991  1.3536
  169SOPE   H6Y19110  -0.014   3.964   7.442 -0.8985 -0.1259  2.2088
  169SOPE   C3719111  -0.176   4.084   7.524  0.3744 -0.0387  0.0829
  169SOPE   H7X19112  -0.212   3.990   7.571 -2.7111 -0.8919 -3.5734
  169SOPE   H7Y19113  -0.261   4.124   7.465 -0.6297 -0.9153  0.8834
  169SOPE   C3819114  -0.129   4.170   7.642  0.1271 -0.2938  0.1624
  169SOPE   H8X19115  -0.027   4.145   7.677  0.7338 -1.9706 -2.5073
  169SOPE   H8Y19116  -0.126   4.276   7.607 -0.7681  0.0917  1.2076
  169SOPE   C3919117  -0.211   4.188   7.765  0.1200 -0.4095 -1.3817
  169SOPE   H9X19118  -0.231   4.092   7.817 -0.9290  1.3049  1.5866
  169SOPE   H9Y19119  -0.313   4.224   7.744  1.2296  3.6401 -0.6674
  169SOPE  C31019120  -0.154   4.288   7.866  0.0479 -0.4144 -0.0181
  169SOPE  H10X19121  -0.152   4.394   7.833  1.2015 -0.4437 -0.0923
  169SOPE  H10Y19122  -0.053   4.261   7.906 -0.0897 -0.7859  0.0894
  169SOPE  C31119123  -0.238   4.305   7.992 -0.0745  0.8670 -0.0364
  169SOPE  H11X19124  -0.230   4.208   8.045  1.6784  1.2858  0.5278
  169SOPE  H11Y19125  -0.345   4.319   7.965  0.2454  2.0392 -0.7704
  169SOPE  C31219126  -0.175   4.407   8.092  0.5753  0.0938 -0.1103
  169SOPE  H12X19127  -0.221   4.501   8.057 -3.0182 -1.4551  0.0605
  169SOPE  H12Y19128  -0.065   4.408   8.074  0.5554  2.8814 -0.5748
  169SOPE  C31319129  -0.205   4.387   8.239 -0.4188 -0.8284  0.1221
  169SOPE  H13X19130  -0.163   4.291   8.276 -2.1821 -2.6959 -2.3807
  169SOPE  H13Y19131  -0.311   4.371   8.267 -0.7441  1.8381  0.6990
  169SOPE  C31419132  -0.158   4.508   8.328 -0.0125  0.4856  0.5848
  169SOPE  H14X19133  -0.208   4.601   8.294  1.3771  1.4035  0.9573
  169SOPE  H14Y19134  -0.048   4.518   8.313 -0.0665 -0.9637 -1.1829
  169SOPE  C31519135  -0.188   4.487   8.478 -0.0003 -0.8954  0.4292
  169SOPE  H15X19136  -0.271   4.417   8.502  0.4971 -1.2156  1.3012
  169SOPE  H15Y19137  -0.202   4.588   8.523  1.2053 -0.3449 -0.4054
  169SOPE  C31619138  -0.070   4.428   8.560  0.3337 -0.2124 -0.9125
  169SOPE  H16X19139   0.015   4.497   8.541  1.2195 -0.5638  1.4384
  169SOPE  H16Y19140  -0.046   4.326   8.525 -0.8317 -1.3788  1.4770
  169SOPE  C31719141  -0.086   4.441   8.716  0.1776 -0.5740  0.8744
  169SOPE  H17X19142  -0.166   4.378   8.758 -0.2023 -0.2765  0.6017
  169SOPE  H17Y19143  -0.113   4.548   8.733 -2.3168 -0.9341 -0.4406
  169SOPE  C31819144   0.055   4.411   8.786 -0.4056  0.0497 -0.3760
  169SOPE  H18X19145   0.133   4.467   8.731 -0.9777 -0.6484 -1.9604
  169SOPE  H18Y19146   0.087   4.305   8.783  1.8521  0.5506  2.0487
  169SOPE  H18Z19147   0.052   4.444   8.892  0.0713 -0.4228 -0.2106
  170SOPE     N19148   0.902   3.263   6.269  0.0711  0.3977 -0.1913
  170SOPE   HN119149   0.961   3.348   6.266  0.1363  0.3963  0.6477
  170SOPE   HN219150   0.943   3.207   6.192  2.9508  3.7380 -1.3518
  170SOPE   HN319151   0.801   3.286   6.257  0.2486  1.0720 -0.4529
  170SOPE   C1219152   0.939   3.185   6.396  0.4945 -0.5130  0.2068
  170SOPE  H12A19153   0.929   3.077   6.368 -2.1943 -0.4247  0.5106
  170SOPE  H12B19154   0.865   3.218   6.473 -0.0753 -0.5308 -0.3242
  170SOPE   C1119155   1.085   3.215   6.439  0.2113  0.1293  0.2055
  170SOPE  H11A19156   1.155   3.162   6.372 -1.4391  0.1005 -1.5653
  170SOPE  H11B19157   1.098   3.158   6.534 -0.6733 -1.3644 -0.5360
  170SOPE     P19158   1.181   3.439   6.349 -0.0765 -0.1884  0.4451
  170SOPE   O1319159   1.076   3.505   6.271  0.0678  0.3612  0.2167
  170SOPE   O1419160   1.274   3.358   6.273 -0.2062  0.4448  0.0657
  170SOPE   O1219161   1.111   3.348   6.463 -0.0215 -1.1696 -0.9463
  170SOPE   O1119162   1.270   3.550   6.423 -0.2788 -0.0545 -0.1371
  170SOPE    C119163   1.317   3.551   6.551 -0.5224 -0.1221  0.3776
  170SOPE    HA19164   1.412   3.606   6.560 -1.6203  2.3222 -1.5726
  170SOPE    HB19165   1.341   3.451   6.593  1.1711 -0.1606 -0.6121
  170SOPE    C219166   1.219   3.639   6.634 -0.5600 -0.4415 -0.7426
  170SOPE    HS19167   1.250   3.670   6.736  0.8570  1.1532 -1.6108
  170SOPE   O2119168   1.093   3.570   6.655  0.2523 -0.1325 -0.4688
  170SOPE   C2119169   1.109   3.467   6.746  1.0906  0.7319  0.0106
  170SOPE   O2219170   1.212   3.441   6.801  0.2116  0.2438 -0.2724
  170SOPE   C2219171   0.963   3.407   6.775 -0.7052 -0.6479  0.4780
  170SOPE   H2R19172   0.934   3.362   6.678  1.1663  2.7107 -1.8622
  170SOPE   H2S19173   0.888   3.489   6.782  0.1700  0.4315 -1.6752
  170SOPE    C319174   1.171   3.763   6.568  0.4681 -0.1139 -0.0649
  170SOPE    HX19175   1.112   3.739   6.477  0.0002  0.1872  0.1561
  170SOPE    HY19176   1.261   3.810   6.523 -0.3505 -0.6308 -2.3770
  170SOPE   O3119177   1.117   3.860   6.656  0.0072 -0.0254  0.6376
  170SOPE   C3119178   0.991   3.857   6.663  0.5992  0.2636  0.3076
  170SOPE   O3219179   0.913   3.787   6.593 -0.1585  0.0961  0.3358
  170SOPE   C3219180   0.940   3.943   6.783 -0.2618 -0.3505  1.0793
  170SOPE   H2X19181   0.843   3.994   6.764 -1.3722 -2.7616 -0.2386
  170SOPE   H2Y19182   1.014   4.026   6.787 -1.1549  0.4644  0.9676
  170SOPE   C2319183   0.969   3.309   6.897 -0.2689  0.2438  1.0914
  170SOPE   H3R19184   1.041   3.225   6.884 -1.0381 -0.3718  0.7100
  170SOPE   H3S19185   0.868   3.266   6.912 -0.3694 -0.5205 -1.2659
  170SOPE   C2419186   1.000   3.382   7.021  0.3296  0.3790 -1.0777
  170SOPE   H4R19187   1.106   3.413   7.014  0.5250 -0.0609 -0.1433
  170SOPE   H4S19188   0.940   3.473   7.040  3.1142  1.9905  0.5983
  170SOPE   C2519189   0.987   3.291   7.138  0.3754  0.4379 -0.8933
  170SOPE   H5R19190   0.878   3.270   7.134  0.4084  0.2720 -0.9197
  170SOPE   H5S19191   1.030   3.189   7.130  0.9239  0.5460  0.4549
  170SOPE   C2619192   1.014   3.347   7.278  0.2831  0.2414  0.1154
  170SOPE   H6R19193   1.123   3.369   7.278  0.4541 -0.0405 -3.2841
  170SOPE   H6S19194   0.949   3.434   7.302 -1.7247 -1.8271  2.7438
  170SOPE   C2719195   0.964   3.251   7.384  1.0659 -0.6167 -0.3392
  170SOPE   H7R19196   0.853   3.251   7.381  1.0767  0.3196 -1.0725
  170SOPE   H7S19197   0.992   3.148   7.353 -1.2620 -1.6844  0.8762
  170SOPE   C2819198   1.018   3.283   7.526  0.0640  0.1814 -0.1532
  170SOPE   H8R19199   1.015   3.183   7.575  1.2414  0.6993  1.0378
  170SOPE   H8S19200   1.125   3.314   7.527  0.3334 -0.6872  1.5519
  170SOPE   C2919201   0.941   3.386   7.603  0.3004 -0.8721 -0.5224
  170SOPE   H9119202   0.986   3.486   7.612 -2.0341  0.0668  2.6043
  170SOPE  C21019203   0.840   3.355   7.685 -0.2236  0.3261 -0.4291
  170SOPE  H10119204   0.784   3.434   7.737 -1.4720 -1.0347  0.3587
  170SOPE  C21119205   0.770   3.227   7.711 -0.0845 -1.0099 -0.9508
  170SOPE  H11R19206   0.789   3.144   7.640 -0.2067  0.4609 -2.7694
  170SOPE  H11S19207   0.660   3.247   7.710  0.2924  1.3877 -2.0487
  170SOPE  C21219208   0.808   3.168   7.850 -0.1569 -0.7203 -0.2927
  170SOPE  H12R19209   0.814   3.246   7.930  1.6769  0.6088 -1.6292
  170SOPE  H12S19210   0.906   3.119   7.834  0.4108  0.2125  0.2227
  170SOPE  C21319211   0.702   3.064   7.886  0.4688 -0.2468  0.3120
  170SOPE  H13R19212   0.672   3.009   7.794  0.6071  1.4217 -0.7914
  170SOPE  H13S19213   0.608   3.115   7.915  0.1956 -0.1836 -0.6444
  170SOPE  C21419214   0.749   2.970   7.993  0.4669 -0.0562  0.2437
  170SOPE  H14R19215   0.839   2.922   7.950 -0.6528 -0.0843 -2.2573
  170SOPE  H14S19216   0.679   2.885   8.007  0.1770  0.1401 -0.0198
  170SOPE  C21519217   0.784   3.029   8.133  0.7628 -0.9508 -0.0194
  170SOPE  H15R19218   0.803   3.138   8.125 -1.6655 -0.3366  1.6106
  170SOPE  H15S19219   0.861   2.969   8.186 -0.3628 -2.0641  0.3970
  170SOPE  C21619220   0.668   3.031   8.237  0.1979 -0.1348 -0.0152
  170SOPE  H16R19221   0.582   3.090   8.198  0.3029  0.9110  1.2772
  170SOPE  H16S19222   0.698   3.078   8.333  0.3177  0.4584 -0.3414
  170SOPE  C21719223   0.619   2.889   8.279  0.6279 -0.4886 -0.0058
  170SOPE  H17R19224   0.593   2.823   8.194 -2.5081 -1.6786  1.7081
  170SOPE  H17S19225   0.518   2.897   8.323  0.4238 -0.8631 -0.4024
  170SOPE  C21819226   0.717   2.815   8.374  0.1333  0.1494  0.0206
  170SOPE  H18R19227   0.670   2.722   8.412  2.1210  0.3252  3.3116
  170SOPE  H18S19228   0.729   2.877   8.465 -0.3022  1.9838 -1.1197
  170SOPE  H18T19229   0.816   2.794   8.330  1.1277  2.5854  0.9257
  170SOPE   C3319230   0.930   3.859   6.908 -0.2121  0.0242  0.5198
  170SOPE   H3X19231   1.023   3.802   6.932  0.3114  0.1545 -1.0609
  170SOPE   H3Y19232   0.851   3.786   6.881  0.4332 -0.5409  0.1203
  170SOPE   C3419233   0.884   3.939   7.031  0.3990  0.4217 -0.7982
  170SOPE   H4X19234   0.784   3.986   7.015 -0.8058 -2.1946 -1.5189
  170SOPE   H4Y19235   0.970   4.004   7.058  0.0396 -0.2336  2.3200
  170SOPE   C3519236   0.855   3.836   7.152  1.1990 -0.2739 -0.3790
  170SOPE   H5X19237   0.942   3.767   7.161  3.5209  2.5161  0.1349
  170SOPE   H5Y19238   0.766   3.777   7.121  0.6134 -0.8048  2.1057
  170SOPE   C3619239   0.817   3.906   7.287  0.1364  0.9045  0.6623
  170SOPE   H6X19240   0.720   3.958   7.304 -0.7208 -1.4189  3.8108
  170SOPE   H6Y19241   0.904   3.974   7.290  0.8678 -0.0455  2.0512
  170SOPE   C3719242   0.812   3.794   7.394 -0.7898 -0.2585 -0.0580
  170SOPE   H7X19243   0.904   3.733   7.396  0.7233  1.7760 -1.9667
  170SOPE   H7Y19244   0.733   3.721   7.366 -1.1974  0.2759 -0.3268
  170SOPE   C3819245   0.790   3.838   7.535  0.2351  0.3076 -0.1622
  170SOPE   H8X19246   0.698   3.900   7.526  0.4506  0.4828 -1.2541
  170SOPE   H8Y19247   0.876   3.904   7.554  1.2792 -1.2886  0.9360
  170SOPE   C3919248   0.777   3.722   7.634  0.0703  0.6259 -0.0664
  170SOPE   H9X19249   0.862   3.655   7.607 -0.5694  0.7158 -2.6125
  170SOPE   H9Y19250   0.681   3.669   7.615  0.4882  0.5108 -2.1641
  170SOPE  C31019251   0.774   3.775   7.780  0.1331 -0.2592 -0.3873
  170SOPE  H10X19252   0.686   3.841   7.800  2.4408  2.3975  1.8217
  170SOPE  H10Y19253   0.862   3.840   7.794  0.5629 -1.0661  0.8558
  170SOPE  C31119254   0.766   3.673   7.896 -0.1602  0.4367 -0.1867
  170SOPE  H11X19255   0.781   3.716   7.997  1.0654 -2.1829  0.8306
  170SOPE  H11Y19256   0.844   3.594   7.889  0.1883  0.5677  1.7517
  170SOPE  C31219257   0.626   3.606   7.900  0.1530  0.0392 -0.1400
  170SOPE  H12X19258   0.593   3.556   7.807  0.4072  0.0722 -0.2479
  170SOPE  H12Y19259   0.553   3.689   7.915  1.2874  1.1975 -0.7763
  170SOPE  C31319260   0.609   3.512   8.013  0.0228  0.1723  0.0887
  170SOPE  H13X19261   0.622   3.565   8.110  1.0027  0.7071 -0.3144
  170SOPE  H13Y19262   0.684   3.431   8.022  2.6394  2.5311  0.8340
  170SOPE  C31419263   0.467   3.455   8.007 -0.0634 -0.0116  0.3273
  170SOPE  H14X19264   0.437   3.414   7.908 -0.4810  0.5516  0.2154
  170SOPE  H14Y19265   0.393   3.538   8.009 -0.3239 -0.2383  0.1823
  170SOPE  C31519266   0.453   3.357   8.123  0.3264  0.1508  0.1469
  170SOPE  H15X19267   0.509   3.407   8.205  0.3232  0.9224 -0.3040
  170SOPE  H15Y19268   0.521   3.274   8.095  0.5775  0.4023 -0.0056
  170SOPE  C31619269   0.307   3.318   8.165  0.3135 -0.6042  0.5514
  170SOPE  H16X19270   0.323   3.235   8.237 -0.6086 -0.4540  0.9410
  170SOPE  H16Y19271   0.256   3.273   8.077  0.2889  1.2260 -0.4180
  170SOPE  C31719272   0.217   3.426   8.216 -0.0617 -0.9208 -0.3903
  170SOPE  H17X19273   0.127   3.368   8.247  0.6466 -1.6373  0.3785
  170SOPE  H17Y19274   0.194   3.498   8.135  1.5348 -0.6395 -0.6265
  170SOPE  C31819275   0.259   3.515   8.334 -0.0340  0.1341 -0.2534
  170SOPE  H18X19276   0.347   3.570   8.296  0.2483 -0.0942  0.0720
  170SOPE  H18Y19277   0.286   3.448   8.418 -0.2088 -0.4976 -0.6941
  170SOPE  H18Z19278   0.174   3.582   8.360 -1.5098 -1.6337 -0.3497
  171SOPE     N19279   6.739   6.783   6.354  0.4380 -0.2581  0.0980
  171SOPE   HN119280   6.783   6.853   6.418  1.2472 -1.9442  1.4949
  171SOPE   HN219281   6.818   6.733   6.308 -0.5756 -1.6473 -0.1865
  171SOPE   HN319282   6.701   6.842   6.278 -2.1519 -2.8047 -0.7487
  171SOPE   C1219283   6.636   6.697   6.429 -0.1653  0.5311  0.2690
  171SOPE  H12A19284   6.543   6.683   6.370 -0.7994  0.3168  1.2974
  171SOPE  H12B19285   6.623   6.759   6.520 -0.1270 -1.7389  1.8918
  171SOPE   C1119286   6.709   6.574   6.479  0.6755  0.6235  0.6376
  171SOPE  H11A19287   6.646   6.538   6.564 -0.8704  3.4904  0.8448
  171SOPE  H11B19288   6.816   6.586   6.508  1.8255 -1.7335 -2.2008
  171SOPE     P19289   6.609   6.358   6.343  0.3036 -0.2599 -0.3215
  171SOPE   O1319290   6.647   6.293   6.215 -0.2848  0.0868 -0.6481
  171SOPE   O1419291   6.475   6.416   6.340 -0.3483  0.0186 -0.0633
  171SOPE   O1219292   6.720   6.466   6.377  0.3726  0.1733  0.0815
  171SOPE   O1119293   6.621   6.258   6.466 -0.1343 -0.1430 -0.9028
  171SOPE    C119294   6.737   6.180   6.510 -0.6897 -0.8328  0.2529
  171SOPE    HA19295   6.828   6.237   6.486 -1.6469 -0.1173 -1.8735
  171SOPE    HB19296   6.740   6.084   6.454 -1.4358 -1.5492  1.3912
  171SOPE    C219297   6.738   6.163   6.662 -0.5334 -0.1392 -0.0530
  171SOPE    HS19298   6.839   6.141   6.701 -1.6473  1.3861  4.1785
  171SOPE   O2119299   6.637   6.065   6.694  0.4868  0.4038 -0.0555
  171SOPE   C2119300   6.676   5.945   6.662  0.0604  0.2069  0.4930
  171SOPE   O2219301   6.792   5.916   6.627  0.4479  0.3731 -0.1296
  171SOPE   C2219302   6.560   5.841   6.687 -0.1472  0.1031  0.8047
  171SOPE   H2R19303   6.514   5.818   6.588 -1.1305  1.9308  0.8063
  171SOPE   H2S19304   6.475   5.886   6.742 -0.5329 -2.0287  2.0876
  171SOPE    C319305   6.705   6.298   6.724  0.0489 -0.0209 -0.1259
  171SOPE    HX19306   6.604   6.340   6.702 -0.7372 -1.0582  1.3470
  171SOPE    HY19307   6.786   6.368   6.695  0.4266 -0.7199 -0.7992
  171SOPE   O3119308   6.717   6.285   6.865 -0.2554 -0.7819  0.0894
  171SOPE   C3119309   6.661   6.374   6.936  0.3033 -0.5277  0.2778
  171SOPE   O3219310   6.616   6.483   6.896 -0.5322 -0.0328  0.6060
  171SOPE   C3219311   6.674   6.329   7.088 -0.4181  0.0770  0.2715
  171SOPE   H2X19312   6.774   6.281   7.102 -0.0886  0.2700 -1.2125
  171SOPE   H2Y19313   6.593   6.254   7.101  0.7018 -0.9012  2.0027
  171SOPE   C2319314   6.603   5.719   6.772 -0.5997 -0.6607  0.9669
  171SOPE   H3R19315   6.664   5.655   6.705  2.2320  1.7703  1.0244
  171SOPE   H3S19316   6.509   5.665   6.796 -1.8347  0.3312 -1.3457
  171SOPE   C2419317   6.685   5.748   6.894  0.2806  0.3099  0.1973
  171SOPE   H4R19318   6.696   5.650   6.946 -0.4633  0.1229  0.0083
  171SOPE   H4S19319   6.786   5.779   6.859  1.8407 -2.5252  1.8303
  171SOPE   C2519320   6.632   5.848   7.001  0.3849  0.2835 -0.3967
  171SOPE   H5R19321   6.648   5.952   6.966  2.9294 -0.3571 -1.3818
  171SOPE   H5S19322   6.522   5.838   6.991  0.1994  2.2854 -0.7406
  171SOPE   C2619323   6.688   5.818   7.143 -0.4274 -0.3239  0.1755
  171SOPE   H6R19324   6.659   5.714   7.170  1.6526 -1.6766 -2.3458
  171SOPE   H6S19325   6.797   5.837   7.149 -0.7497  1.5851  0.5369
  171SOPE   C2719326   6.606   5.908   7.237  0.4234 -0.3627  0.6302
  171SOPE   H7R19327   6.613   6.011   7.197  0.7624 -0.8762 -0.7058
  171SOPE   H7S19328   6.503   5.868   7.224  0.2615  0.3508 -0.3525
  171SOPE   C2819329   6.659   5.892   7.385 -0.2460  0.1018 -0.1416
  171SOPE   H8R19330   6.627   5.790   7.417 -1.7904  0.6187  0.0103
  171SOPE   H8S19331   6.770   5.900   7.388 -0.2224  0.1303  2.9179
  171SOPE   C2919332   6.605   6.003   7.477 -0.8135 -0.2723 -0.6303
  171SOPE   H9119333   6.612   6.097   7.421 -0.0532 -1.2461 -2.2567
  171SOPE  C21019334   6.559   5.977   7.601 -0.5160 -0.3983 -0.3416
  171SOPE  H10119335   6.524   6.064   7.659 -0.7221  0.2244 -1.3796
  171SOPE  C21119336   6.550   5.843   7.670 -0.5356 -0.2880  0.2886
  171SOPE  H11R19337   6.645   5.786   7.662 -0.3472  0.0677  0.0125
  171SOPE  H11S19338   6.474   5.787   7.612  0.5218 -1.9776  0.4526
  171SOPE  C21219339   6.503   5.853   7.810 -0.0114  0.1621  0.5286
  171SOPE  H12R19340   6.481   5.748   7.839 -0.9506  0.3773  0.6367
  171SOPE  H12S19341   6.401   5.896   7.802 -0.1731 -0.4218 -0.7149
  171SOPE  C21319342   6.601   5.930   7.901 -0.5470 -0.5204 -1.1700
  171SOPE  H13R19343   6.630   6.030   7.862 -0.1840  0.2141  0.8663
  171SOPE  H13S19344   6.695   5.872   7.918  0.1545  0.8689 -0.0244
  171SOPE  C21419345   6.526   5.968   8.028 -1.0744 -0.2439 -1.0871
  171SOPE  H14R19346   6.494   5.875   8.080  1.5799 -0.1966  0.8525
  171SOPE  H14S19347   6.432   6.020   8.000  0.1984  0.5616 -4.3078
  171SOPE  C21519348   6.617   6.075   8.106 -0.2477 -0.0086 -0.4831
  171SOPE  H15R19349   6.611   6.175   8.058 -1.3949  0.3740  0.4025
  171SOPE  H15S19350   6.718   6.034   8.081  0.1289  0.7884 -0.3070
  171SOPE  C21619351   6.591   6.074   8.259  0.0820  0.3235 -0.1459
  171SOPE  H16R19352   6.561   5.976   8.302 -5.0450  1.6475 -0.0884
  171SOPE  H16S19353   6.504   6.143   8.264  0.2790  0.4738  1.6846
  171SOPE  C21719354   6.707   6.158   8.322 -0.0089 -0.1476 -0.5199
  171SOPE  H17R19355   6.688   6.259   8.280  1.3225  0.6018  0.5955
  171SOPE  H17S19356   6.805   6.118   8.290  0.0387  0.5983 -1.3397
  171SOPE  C21819357   6.695   6.156   8.477 -0.1984 -0.5221  0.6751
  171SOPE  H18R19358   6.604   6.204   8.519  0.3784  0.0815  1.2594
  171SOPE  H18S19359   6.792   6.196   8.514 -0.5740 -0.5440  1.7273
  171SOPE  H18T19360   6.699   6.055   8.523 -1.8870  0.2838  2.7924
  171SOPE   C3319361   6.620   6.435   7.196  0.6669 -0.1427 -0.4721
  171SOPE   H3X19362   6.527   6.479   7.155 -0.5138 -1.7197  0.3664
  171SOPE   H3Y19363   6.699   6.512   7.192 -1.0104  1.5748 -2.6443
  171SOPE   C3419364   6.584   6.362   7.328 -0.0146  0.1483  0.6679
  171SOPE   H4X19365   6.673   6.309   7.369 -0.2329 -1.2189 -0.5495
  171SOPE   H4Y19366   6.499   6.292   7.312 -2.4433  2.3729  2.8632
  171SOPE   C3519367   6.525   6.461   7.430  0.2716 -0.5183 -0.4039
  171SOPE   H5X19368   6.442   6.516   7.380  0.9407  1.4004  0.4879
  171SOPE   H5Y19369   6.604   6.535   7.455 -0.3342  0.2787 -0.7718
  171SOPE   C3619370   6.491   6.387   7.558  0.4438 -0.0399  0.7407
  171SOPE   H6X19371   6.572   6.319   7.595 -0.3300 -1.5983 -0.3443
  171SOPE   H6Y19372   6.403   6.322   7.543  0.2688  0.6556 -1.6414
  171SOPE   C3719373   6.482   6.489   7.675  0.1893 -0.3038  0.1524
  171SOPE   H7X19374   6.392   6.554   7.670 -0.0198 -0.4933  1.1652
  171SOPE   H7Y19375   6.563   6.564   7.660 -1.5331  1.7935  0.8730
  171SOPE   C3819376   6.473   6.437   7.816 -0.7881 -0.2140 -0.3659
  171SOPE   H8X19377   6.573   6.395   7.840  0.4254  2.1281 -0.9722
  171SOPE   H8Y19378   6.394   6.360   7.824  0.9131 -1.8377  1.9647
  171SOPE   C3919379   6.440   6.540   7.928 -0.2738 -0.2757 -0.5650
  171SOPE   H9X19380   6.350   6.591   7.889  0.0996 -0.0568 -1.1493
  171SOPE   H9Y19381   6.520   6.615   7.947 -1.0583 -0.2704  3.6637
  171SOPE  C31019382   6.427   6.478   8.068  0.7436 -0.0402 -0.0394
  171SOPE  H10X19383   6.400   6.559   8.138 -0.4558 -3.2678  3.6101
  171SOPE  H10Y19384   6.525   6.433   8.096  0.4951 -0.4777  0.1383
  171SOPE  C31119385   6.318   6.376   8.078  0.1578 -0.1990  0.0765
  171SOPE  H11X19386   6.348   6.270   8.058 -0.4947 -0.1154 -1.4606
  171SOPE  H11Y19387   6.243   6.404   8.001  0.5857  2.0609  0.4212
  171SOPE  C31219388   6.258   6.366   8.217  0.4653 -0.5847  0.0573
  171SOPE  H12X19389   6.345   6.375   8.285 -0.3710  1.3816  0.9483
  171SOPE  H12Y19390   6.211   6.267   8.238 -0.4635 -0.4645 -1.3094
  171SOPE  C31319391   6.159   6.481   8.239 -1.2585 -0.9148 -0.0804
  171SOPE  H13X19392   6.082   6.472   8.160 -1.3957 -0.7786  0.0379
  171SOPE  H13Y19393   6.212   6.578   8.227  0.7871 -2.1118 -1.2724
  171SOPE  C31419394   6.108   6.485   8.385  0.0369 -0.0977  1.1228
  171SOPE  H14X19395   6.198   6.470   8.447  1.1678 -2.6399 -0.9305
  171SOPE  H14Y19396   6.050   6.390   8.394 -1.3974  0.6305  0.0938
  171SOPE  C31519397   6.024   6.610   8.424  0.4078 -0.2529  0.6332
  171SOPE  H15X19398   5.939   6.608   8.353  1.1175 -2.4434 -0.2422
  171SOPE  H15Y19399   6.078   6.702   8.394 -1.4322  0.3456 -1.0319
  171SOPE  C31619400   5.971   6.620   8.570  0.0546  0.3747 -0.0663
  171SOPE  H16X19401   5.922   6.526   8.603  1.9559 -1.5558 -2.3561
  171SOPE  H16Y19402   5.902   6.707   8.579  0.3311  0.5328  0.5666
  171SOPE  C31719403   6.089   6.639   8.669 -0.0837  0.2247 -0.0797
  171SOPE  H17X19404   6.166   6.712   8.636  2.1910 -2.3909 -1.0042
  171SOPE  H17Y19405   6.150   6.546   8.659  1.7944  1.5367 -1.3885
  171SOPE  C31819406   6.052   6.671   8.814  1.0434 -0.0044  0.2920
  171SOPE  H18X19407   5.981   6.604   8.866 -1.0318  2.2172  0.5269
  171SOPE  H18Y19408   5.991   6.764   8.807 -1.0544 -1.3811 -0.4713
  171SOPE  H18Z19409   6.138   6.698   8.880  0.7601  0.5039  0.4608
  172SOPE     N19410   2.440   1.688   6.336  0.3320  0.0580 -1.0642
  172SOPE   HN119411   2.525   1.650   6.291  2.2144 -1.5901  3.2941
  172SOPE   HN219412   2.353   1.647   6.298  0.2125  0.5754 -1.3612
  172SOPE   HN319413   2.439   1.791   6.317  2.6098  0.0943 -1.2304
  172SOPE   C1219414   2.462   1.676   6.486 -0.2191 -0.3342  0.3171
  172SOPE  H12A19415   2.386   1.742   6.533  1.2049  1.1242  0.6714
  172SOPE  H12B19416   2.565   1.717   6.496  0.1484 -1.1698  0.0283
  172SOPE   C1119417   2.460   1.522   6.528  0.2542 -0.6938 -0.1738
  172SOPE  H11A19418   2.355   1.488   6.544 -0.5005  1.0111 -1.2396
  172SOPE  H11B19419   2.506   1.518   6.629 -2.4294 -0.1212  1.1761
  172SOPE     P19420   2.687   1.428   6.422  0.2954 -0.2626 -0.2496
  172SOPE   O1319421   2.704   1.508   6.300  0.2051  0.0699 -0.5137
  172SOPE   O1419422   2.738   1.291   6.418 -0.4630  1.0120 -0.3525
  172SOPE   O1219423   2.527   1.431   6.434  0.4824  0.5252 -0.4558
  172SOPE   O1119424   2.734   1.512   6.545  0.1362  0.0119  0.4291
  172SOPE    C119425   2.842   1.461   6.629  0.4064 -0.2242  0.3454
  172SOPE    HA19426   2.899   1.546   6.673  1.2932  0.1036 -1.3181
  172SOPE    HB19427   2.920   1.415   6.564  0.1831  1.2000 -1.0289
  172SOPE    C219428   2.796   1.366   6.740 -0.2412  0.1652 -0.0399
  172SOPE    HS19429   2.733   1.290   6.689  0.1257 -0.9339  1.1040
  172SOPE   O2119430   2.741   1.437   6.845  0.4530  0.8303 -0.3700
  172SOPE   C2119431   2.635   1.379   6.902  0.4212  0.1689 -0.0112
  172SOPE   O2219432   2.588   1.272   6.863  0.1392 -0.6084  0.1151
  172SOPE   C2219433   2.576   1.458   7.017  0.6418 -0.2723  0.3581
  172SOPE   H2R19434   2.495   1.522   6.977  0.8276  0.1739  0.6747
  172SOPE   H2S19435   2.654   1.524   7.061  0.9043 -0.3007 -0.0567
  172SOPE    C319436   2.918   1.283   6.800  0.6516 -0.0683  0.4871
  172SOPE    HX19437   2.999   1.357   6.817  1.1901 -0.1982 -1.2979
  172SOPE    HY19438   2.953   1.228   6.710  2.0466  0.3573  0.7564
  172SOPE   O3119439   2.884   1.196   6.910 -0.0415 -0.2298 -0.2307
  172SOPE   C3119440   2.874   1.069   6.888  0.7699  0.5895 -0.7135
  172SOPE   O3219441   2.906   1.004   6.790 -0.4045  0.6205 -0.3605
  172SOPE   C3219442   2.812   0.999   7.006  0.2853  0.3075  0.4913
  172SOPE   H2X19443   2.860   0.900   6.989  1.0559  0.8438 -0.5819
  172SOPE   H2Y19444   2.706   0.978   6.981  0.5761 -2.6236  1.2873
  172SOPE   C2319445   2.516   1.382   7.140  0.3551  0.8474  0.6073
  172SOPE   H3R19446   2.586   1.303   7.175  0.4690 -0.1057 -1.6138
  172SOPE   H3S19447   2.423   1.330   7.109  1.4579 -0.2060 -1.1211
  172SOPE   C2419448   2.492   1.479   7.261 -0.1265  0.5662 -0.0610
  172SOPE   H4R19449   2.580   1.543   7.281 -0.5254  1.0305  0.2389
  172SOPE   H4S19450   2.420   1.558   7.230 -0.2968  2.1920  3.9214
  172SOPE   C2519451   2.437   1.408   7.383 -0.4043 -0.2002 -0.7780
  172SOPE   H5R19452   2.344   1.355   7.353 -0.7151  0.5460 -1.1700
  172SOPE   H5S19453   2.511   1.332   7.416 -2.0050 -1.3470  0.3696
  172SOPE   C2619454   2.402   1.510   7.499 -0.4044  0.4841  0.3977
  172SOPE   H6R19455   2.481   1.588   7.508 -0.7682  0.9321 -0.2544
  172SOPE   H6S19456   2.307   1.558   7.468 -0.0762  1.4460  0.8636
  172SOPE   C2719457   2.379   1.443   7.640 -0.0625  0.3801  0.1110
  172SOPE   H7R19458   2.346   1.338   7.622  0.6968  0.1528 -0.0077
  172SOPE   H7S19459   2.476   1.442   7.694  0.6391  2.5651 -0.9706
  172SOPE   C2819460   2.257   1.513   7.712 -0.6372 -0.4597  0.1388
  172SOPE   H8R19461   2.268   1.495   7.821 -0.4283  3.4779  0.9233
  172SOPE   H8S19462   2.286   1.619   7.693  0.0657 -0.5818  0.5354
  172SOPE   C2919463   2.122   1.480   7.672  0.5036  0.1165 -0.1533
  172SOPE   H9119464   2.112   1.461   7.565  0.3181 -2.5495  0.2638
  172SOPE  C21019465   2.007   1.484   7.748 -0.0061  0.0785  0.9335
  172SOPE  H10119466   1.909   1.463   7.704 -1.1367  1.1757  2.7980
  172SOPE  C21119467   2.005   1.528   7.893  0.5370 -0.2726  0.5303
  172SOPE  H11R19468   1.918   1.587   7.928  1.3239  0.4736  1.2894
  172SOPE  H11S19469   2.092   1.595   7.911 -0.1337  0.6831  0.3625
  172SOPE  C21219470   2.030   1.410   7.984 -0.8993 -1.1877  0.0270
  172SOPE  H12R19471   2.062   1.437   8.087 -0.3771 -1.1765 -0.1379
  172SOPE  H12S19472   2.103   1.340   7.938 -1.3624 -0.0262 -2.6926
  172SOPE  C21319473   1.901   1.335   8.012  0.2526  0.5719  0.2954
  172SOPE  H13R19474   1.919   1.236   8.059 -1.4982 -0.0337 -0.1975
  172SOPE  H13S19475   1.854   1.319   7.913  0.7254 -0.8914  0.2827
  172SOPE  C21419476   1.804   1.419   8.096  0.2313  0.4373  0.1524
  172SOPE  H14R19477   1.775   1.511   8.040  2.0971  1.0429  0.1163
  172SOPE  H14S19478   1.864   1.453   8.183  0.6837  0.5589 -0.2031
  172SOPE  C21519479   1.676   1.344   8.125 -0.4209 -0.5710 -0.4919
  172SOPE  H15R19480   1.624   1.390   8.212  1.2315 -0.9100  0.7323
  172SOPE  H15S19481   1.704   1.241   8.156  0.2111 -0.4171 -0.5410
  172SOPE  C21619482   1.591   1.326   8.007 -0.3616 -0.2593 -0.1265
  172SOPE  H16R19483   1.649   1.272   7.929 -0.7961 -0.4543 -0.3224
  172SOPE  H16S19484   1.565   1.424   7.960  1.4152  0.6846  0.7563
  172SOPE  C21719485   1.471   1.232   8.019  0.7975 -0.2487 -0.6309
  172SOPE  H17R19486   1.404   1.270   8.099  0.0287  2.6810 -2.5309
  172SOPE  H17S19487   1.507   1.132   8.051 -3.5762 -2.0393 -0.6672
  172SOPE  C21819488   1.395   1.206   7.888 -0.3831  0.4465 -0.1953
  172SOPE  H18R19489   1.466   1.167   7.811 -0.2654 -0.6461  0.4406
  172SOPE  H18S19490   1.343   1.295   7.848 -1.8234  0.3303  1.3170
  172SOPE  H18T19491   1.319   1.126   7.903 -0.4295  0.7752  1.5060
  172SOPE   C3319492   2.840   1.058   7.149  0.0563  0.0639 -0.4328
  172SOPE   H3X19493   2.773   1.146   7.154  0.3966  0.3043 -0.0449
  172SOPE   H3Y19494   2.949   1.082   7.153 -0.3063  1.7411 -0.0165
  172SOPE   C3419495   2.788   0.955   7.259  0.1480  0.3395 -0.1378
  172SOPE   H4X19496   2.858   0.871   7.240 -0.4289 -0.1041 -0.3226
  172SOPE   H4Y19497   2.681   0.927   7.246 -0.0504  0.0357  1.7688
  172SOPE   C3519498   2.814   0.987   7.408 -0.7716  0.5680 -0.2877
  172SOPE   H5X19499   2.905   1.049   7.422 -0.4428 -0.1956  1.0832
  172SOPE   H5Y19500   2.835   0.892   7.460 -0.5255  1.5398  1.4839
  172SOPE   C3619501   2.700   1.056   7.476 -0.1370  0.5746 -0.3935
  172SOPE   H6X19502   2.615   0.993   7.444  1.5165 -1.4301 -0.9877
  172SOPE   H6Y19503   2.677   1.158   7.437  0.5032  0.1083 -2.0525
  172SOPE   C3719504   2.721   1.045   7.635  0.2114 -0.4334  0.3437
  172SOPE   H7X19505   2.795   1.124   7.660 -1.5034  1.5406 -0.5545
  172SOPE   H7Y19506   2.764   0.944   7.652  0.5368 -0.5999 -1.2495
  172SOPE   C3819507   2.593   1.068   7.720  0.0575  0.0285  0.5401
  172SOPE   H8X19508   2.521   0.989   7.688 -0.6020  0.9352 -0.3067
  172SOPE   H8Y19509   2.536   1.159   7.690  0.8532  0.8776  1.5198
  172SOPE   C3919510   2.604   1.067   7.868  0.1162 -0.4787  0.3861
  172SOPE   H9X19511   2.671   1.149   7.900 -1.1710  0.6666  0.2589
  172SOPE   H9Y19512   2.630   0.963   7.898 -1.6892 -1.2596 -0.5704
  172SOPE  C31019513   2.468   1.081   7.928  0.5480  0.3436  0.1110
  172SOPE  H10X19514   2.404   1.022   7.858  2.6544 -2.1303  0.1528
  172SOPE  H10Y19515   2.432   1.186   7.920 -1.4034 -0.0759  2.2955
  172SOPE  C31119516   2.465   1.034   8.074 -0.0530 -0.2237  0.1981
  172SOPE  H11X19517   2.553   1.076   8.126  0.4746  1.6334 -1.9956
  172SOPE  H11Y19518   2.491   0.926   8.059  0.9829  0.1334 -0.7478
  172SOPE  C31219519   2.332   1.058   8.152 -0.2288 -0.3676  0.3251
  172SOPE  H12X19520   2.337   0.995   8.244  1.2532 -0.7839 -0.0056
  172SOPE  H12Y19521   2.244   1.032   8.090  0.8560  1.2034 -2.0117
  172SOPE  C31319522   2.322   1.200   8.196  0.9504 -0.3136 -0.2987
  172SOPE  H13X19523   2.337   1.259   8.103  2.2095  1.6884  1.0947
  172SOPE  H13Y19524   2.401   1.218   8.272  0.9873 -0.9697 -0.1777
  172SOPE  C31419525   2.186   1.222   8.252  0.4203 -0.3744 -0.1698
  172SOPE  H14X19526   2.114   1.192   8.174 -1.3593 -0.7438  1.5372
  172SOPE  H14Y19527   2.166   1.327   8.284 -5.5333 -1.3604  0.4512
  172SOPE  C31519528   2.161   1.123   8.371 -0.6759  0.5606 -0.1596
  172SOPE  H15X19529   2.259   1.101   8.418 -0.5497 -0.9927 -1.0907
  172SOPE  H15Y19530   2.134   1.019   8.344 -0.3088  0.7519 -1.2710
  172SOPE  C31619531   2.061   1.174   8.481  0.4013 -0.0897  0.3936
  172SOPE  H16X19532   1.969   1.206   8.427  2.3322  2.5150 -1.6035
  172SOPE  H16Y19533   2.095   1.254   8.549 -1.0306 -1.1148  2.4115
  172SOPE  C31719534   2.023   1.061   8.577  0.0029 -0.1080 -0.8063
  172SOPE  H17X19535   2.110   1.010   8.623 -0.7432 -1.6113 -1.0032
  172SOPE  H17Y19536   1.968   0.986   8.517 -1.8831  2.1670 -2.1058
  172SOPE  C31819537   1.937   1.110   8.696  0.0259 -0.6987  0.9458
  172SOPE  H18X19538   1.990   1.198   8.739  0.8118 -0.4615 -0.4827
  172SOPE  H18Y19539   1.929   1.034   8.777  0.6612 -0.4867  1.2102
  172SOPE  H18Z19540   1.836   1.146   8.666  0.1825 -1.1162 -0.1001
  173SAPI   C1219541   5.531   2.327  10.506 -0.2015 -0.2545  1.1130
  173SAPI    H219542   5.613   2.322  10.430 -2.1907 -1.9996 -1.0738
  173SAPI    O219543   5.411   2.342  10.426  0.2341 -0.4342 -0.0155
  173SAPI   HO219544   5.419   2.431  10.393  0.7799 -0.0504  1.1002
  173SAPI   C1319545   5.534   2.181  10.567  0.4548  0.3836 -0.1232
  173SAPI    H319546   5.626   2.169  10.628 -0.0213 -0.2955  0.4824
  173SAPI    O319547   5.539   2.077  10.471 -0.7369  0.3459 -0.1401
  173SAPI   HO319548   5.479   2.103  10.401 -0.7824 -0.0231 -0.2376
  173SAPI   C1419549   5.418   2.159  10.669  0.5876 -0.6205 -0.0953
  173SAPI    H419550   5.319   2.175  10.621  1.1308  0.4447 -0.8915
  173SAPI    O419551   5.423   2.026  10.723 -0.2262 -0.3758  0.2366
  173SAPI   HO419552   5.400   1.966  10.652 -1.2089 -0.3708  0.5303
  173SAPI   C1519553   5.430   2.271  10.779 -0.4994  0.1494  0.1094
  173SAPI    H519554   5.532   2.260  10.823 -0.0094  3.2854 -0.0169
  173SAPI    O519555   5.342   2.252  10.891 -0.2653  0.0094 -0.4866
  173SAPI   HO519556   5.255   2.221  10.865 -0.6098 -0.3699  0.9968
  173SAPI   C1619557   5.432   2.412  10.722 -0.5529 -0.4413  0.5800
  173SAPI    H619558   5.337   2.424  10.667 -1.0973  0.2759  1.6402
  173SAPI    O619559   5.433   2.523  10.815 -0.0580 -0.1733 -0.1347
  173SAPI   HO619560   5.522   2.547  10.842  0.1006 -1.4890  0.5623
  173SAPI   C1119561   5.542   2.432  10.613  0.5117  0.4081  0.2108
  173SAPI    H119562   5.637   2.404  10.663  1.5233  2.2668 -0.5604
  173SAPI     P19563   5.703   2.605  10.500 -0.0061 -0.5521  0.5032
  173SAPI   O1319564   5.813   2.523  10.554 -0.4472  0.4557 -0.6788
  173SAPI   O1419565   5.723   2.757  10.500  0.5693 -0.2405 -0.5465
  173SAPI   O1219566   5.552   2.565  10.558  0.1174  0.8464 -0.2594
  173SAPI   O1119567   5.697   2.560  10.349  0.4604 -0.0439  0.0419
  173SAPI    C119568   5.813   2.526  10.273  0.7488  0.3321  0.0166
  173SAPI    HA19569   5.895   2.494  10.341  1.0734  1.5359  0.2182
  173SAPI    HB19570   5.786   2.434  10.216  0.3897  1.1155 -1.1023
  173SAPI    C219571   5.849   2.635  10.171 -0.1514  0.4319 -0.6224
  173SAPI    HS19572   5.859   2.730  10.228 -2.1563  0.0679  0.4161
  173SAPI   O2119573   5.745   2.640  10.066  0.1614  0.4386 -0.3687
  173SAPI   C2119574   5.711   2.759  10.030  0.0708  0.1572  0.6641
  173SAPI   O2219575   5.774   2.860  10.058 -0.2914 -0.8837 -0.1783
  173SAPI   C2219576   5.586   2.754   9.946  0.1148  0.1234 -0.5033
  173SAPI   H2R19577   5.511   2.713  10.017 -0.0080  2.5722  0.8815
  173SAPI   H2S19578   5.556   2.858   9.921 -0.5896  1.1718  3.9304
  173SAPI    C319579   5.986   2.590  10.114  0.4316 -0.1961 -0.0383
  173SAPI    HX19580   5.963   2.483  10.093 -1.8192 -0.2914  2.2622
  173SAPI    HY19581   6.068   2.603  10.188 -0.7336 -0.0735  1.2924
  173SAPI   O3119582   6.014   2.652   9.987  0.4913 -0.2865 -0.0999
  173SAPI   C3119583   6.084   2.760  10.002 -0.2268 -0.2263 -0.5015
  173SAPI   O3219584   6.119   2.811  10.110  0.1603 -0.1193 -0.2741
  173SAPI   C3219585   6.141   2.813   9.860 -0.2663  0.2666 -1.2235
  173SAPI   H2X19586   6.251   2.808   9.877 -0.4533 -0.1936 -0.0324
  173SAPI   H2Y19587   6.112   2.920   9.852  0.5582  0.8902  2.3882
  173SAPI   C2319588   5.594   2.672   9.816  0.0984  0.2623  0.6321
  173SAPI   H3R19589   5.506   2.681   9.748 -1.2735  2.4909  2.5084
  173SAPI   H3S19590   5.599   2.565   9.842 -1.6883 -0.5241 -1.8063
  173SAPI   C2419591   5.715   2.701   9.729 -0.6716  0.5083  0.4924
  173SAPI   H4R19592   5.716   2.620   9.653 -0.5086 -0.2109  1.2449
  173SAPI   H4S19593   5.803   2.675   9.791  0.1450  0.3120 -0.7068
  173SAPI   C2519594   5.735   2.841   9.666 -0.1013 -0.4205 -1.0351
  173SAPI   H5R19595   5.717   2.912   9.748 -2.2353 -1.2295 -0.7359
  173SAPI   C2619596   5.748   2.871   9.538 -0.5703 -0.2578 -0.0668
  173SAPI   H6R19597   5.750   2.976   9.506  0.1313  0.1437  1.2702
  173SAPI   C2719598   5.760   2.768   9.423 -0.4369 -0.4814 -0.3939
  173SAPI   H7R19599   5.660   2.751   9.378 -0.0860 -0.4378 -1.2081
  173SAPI   H7S19600   5.787   2.664   9.453 -1.7557 -1.0952 -1.2388
  173SAPI   C2819601   5.858   2.813   9.317  0.0178 -0.0992 -0.2218
  173SAPI   H8R19602   5.958   2.826   9.360 -0.5717  2.6895  0.4831
  173SAPI   C2919603   5.835   2.843   9.182  0.0673  0.2110 -0.7979
  173SAPI   H9R19604   5.925   2.863   9.121  2.8175  2.3169  3.4219
  173SAPI  C21019605   5.714   2.843   9.092  0.4681 -0.2311 -0.5884
  173SAPI  H10R19606   5.735   2.904   9.002 -2.6883 -1.5143 -2.3662
  173SAPI  H10S19607   5.631   2.894   9.145  0.3873 -1.5966  0.6508
  173SAPI  C21119608   5.675   2.701   9.064 -0.2500  0.5454 -0.2343
  173SAPI  H11R19609   5.613   2.659   9.146 -0.0748 -2.0446 -1.3356
  173SAPI  C21219610   5.701   2.617   8.958  0.1915 -0.4100  0.4985
  173SAPI  H12R19611   5.647   2.521   8.959 -0.1519 -0.2197  1.1065
  173SAPI  C21319612   5.779   2.653   8.839 -0.1873 -0.6275 -0.1876
  173SAPI  H13R19613   5.737   2.743   8.790  0.5739 -1.3335 -2.2495
  173SAPI  H13S19614   5.754   2.581   8.758 -0.9455  2.0995 -2.5616
  173SAPI  C21419615   5.927   2.651   8.870  0.3026  0.4704 -0.4491
  173SAPI  H14R19616   5.956   2.582   8.951 -2.2935  0.1868  0.3316
  173SAPI  C21519617   6.020   2.725   8.810 -0.5913 -0.0678  0.7173
  173SAPI  H15R19618   6.123   2.718   8.849 -0.9208 -2.3058  1.3171
  173SAPI  C21619619   6.006   2.812   8.685  0.3203 -0.2760 -0.1513
  173SAPI  H16R19620   6.019   2.919   8.713  1.8957 -0.3918 -0.3580
  173SAPI  H16S19621   5.907   2.802   8.635  0.2276  0.7434 -0.1977
  173SAPI  C21719622   6.108   2.778   8.572 -0.0249  0.5764  0.2054
  173SAPI  H17R19623   6.082   2.674   8.541 -0.5078  0.7743 -0.0655
  173SAPI  H17S19624   6.210   2.788   8.616  0.7981 -2.7249 -0.6666
  173SAPI  C21819625   6.110   2.868   8.447  0.2119  0.0223 -0.3941
  173SAPI  H18R19626   6.189   2.826   8.380  0.4196 -1.5794  0.7928
  173SAPI  H18S19627   6.135   2.971   8.477 -1.1306  0.0815  0.6045
  173SAPI  C21919628   5.980   2.852   8.359 -0.0546  0.0415 -0.7713
  173SAPI  H19R19629   5.889   2.878   8.418  0.8415  2.4685 -0.3305
  173SAPI  H19S19630   5.963   2.746   8.330  1.6834 -1.2233  2.3645
  173SAPI  C22019631   5.989   2.946   8.241  0.3317 -0.3717  0.0946
  173SAPI  H20R19632   6.018   3.050   8.266  0.0733 -0.4594  0.7741
  173SAPI  H20S19633   5.885   2.954   8.204  0.3361 -4.1840 -1.2684
  173SAPI  H20T19634   6.052   2.905   8.159  0.7764  0.2889  0.1050
  173SAPI   C3319635   6.115   2.735   9.729 -0.2250 -0.7492  0.7489
  173SAPI   H3X19636   6.008   2.725   9.703  0.4163 -0.9388 -2.0742
  173SAPI   H3Y19637   6.165   2.636   9.740 -0.3134 -0.5987  3.0128
  173SAPI   C3419638   6.193   2.801   9.609  0.3554 -0.7993 -0.1044
  173SAPI   H4X19639   6.297   2.823   9.643  0.0232 -1.1452  1.1831
  173SAPI   H4Y19640   6.144   2.896   9.577 -0.0966 -0.6453  0.9932
  173SAPI   C3519641   6.191   2.704   9.495  0.3586  0.8055  0.0646
  173SAPI   H5X19642   6.095   2.652   9.474  1.5086 -1.7345  0.6231
  173SAPI   H5Y19643   6.250   2.615   9.528 -2.9728 -1.6902 -0.1207
  173SAPI   C3619644   6.245   2.763   9.363 -0.5953  0.1427  0.2973
  173SAPI   H6X19645   6.338   2.817   9.391 -1.3175  2.4308 -1.5083
  173SAPI   H6Y19646   6.170   2.840   9.336 -0.7372 -0.0863  0.0340
  173SAPI   C3719647   6.269   2.673   9.245  0.2425  0.8073 -0.5518
  173SAPI   H7X19648   6.166   2.656   9.207 -0.3445  1.4433  0.6899
  173SAPI   H7Y19649   6.309   2.575   9.281 -1.0205  0.3903 -0.2137
  173SAPI   C3819650   6.355   2.750   9.143  0.1485  0.8122  0.5034
  173SAPI   H8X19651   6.443   2.797   9.192 -1.6150  1.7051  3.0310
  173SAPI   H8Y19652   6.298   2.837   9.103 -1.0688  0.0994  0.6422
  173SAPI   C3919653   6.391   2.659   9.028 -0.7034  0.1207 -0.7742
  173SAPI   H9X19654   6.301   2.620   8.975  1.8914 -3.1582 -3.1689
  173SAPI   H9Y19655   6.462   2.584   9.067  0.2919  2.7390  2.9733
  173SAPI  C31019656   6.469   2.725   8.913 -0.5821  0.4729 -0.7284
  173SAPI  H10X19657   6.551   2.783   8.959 -1.2772  0.6210  0.3529
  173SAPI  H10Y19658   6.408   2.798   8.855 -1.2878  0.7410  0.3139
  173SAPI  C31119659   6.533   2.628   8.817 -0.1596  0.3128 -0.3349
  173SAPI  H11X19660   6.591   2.558   8.881  2.9959  0.6224 -2.5985
  173SAPI  H11Y19661   6.601   2.683   8.749 -0.4699 -0.4068 -1.2359
  173SAPI  C31219662   6.430   2.552   8.728 -0.0982 -0.1327 -0.2178
  173SAPI  H12X19663   6.351   2.625   8.701  0.1285  0.2043  0.0245
  173SAPI  H12Y19664   6.387   2.471   8.791  1.5391 -0.7091  0.2131
  173SAPI  C31319665   6.495   2.480   8.614  0.1836  0.0502  0.0635
  173SAPI  H13X19666   6.570   2.407   8.654  0.9978  0.1549 -1.2370
  173SAPI  H13Y19667   6.553   2.547   8.548  0.1293  0.9916  0.9493
  173SAPI  C31419668   6.391   2.403   8.528  0.1704  0.0501  0.9646
  173SAPI  H14X19669   6.306   2.356   8.582 -1.4858 -0.0628 -1.5942
  173SAPI  H14Y19670   6.440   2.316   8.481  2.4372  0.6084  2.1423
  173SAPI  C31519671   6.328   2.492   8.418 -0.4190 -0.2160  0.2611
  173SAPI  H15X19672   6.388   2.577   8.378 -1.2472  0.8812  1.2986
  173SAPI  H15Y19673   6.238   2.542   8.458  0.6554  1.7523  0.3409
  173SAPI  C31619674   6.271   2.411   8.299  0.5220  0.2280 -0.0954
  173SAPI  H16X19675   6.217   2.325   8.344 -0.6909  0.7219 -0.5466
  173SAPI  H16Y19676   6.356   2.379   8.235  1.9271 -1.8136  2.5903
  173SAPI  C31719677   6.166   2.474   8.216  0.2379 -0.2173  0.6243
  173SAPI  H17X19678   6.148   2.576   8.255  0.0571 -0.3487  0.8812
  173SAPI  H17Y19679   6.069   2.420   8.222  0.2443 -0.6288 -1.7341
  173SAPI  C31819680   6.201   2.492   8.068  0.3633  0.5672  0.6336
  173SAPI  H18X19681   6.291   2.556   8.055  0.7382 -0.2069 -0.8609
  173SAPI  H18Y19682   6.118   2.544   8.015  0.9217  1.0394  0.2080
  173SAPI  H18Z19683   6.208   2.393   8.017 -1.4083  1.7519 -2.2257
  174SAPI   C1219684   2.601   4.555  11.095  0.0545  0.1694  0.1346
  174SAPI    H219685   2.679   4.633  11.083  2.3989 -2.1259 -0.8212
  174SAPI    O219686   2.675   4.432  11.112  0.5687  0.8282  0.0018
  174SAPI   HO219687   2.742   4.417  11.045  0.5572 -2.1431  0.4910
  174SAPI   C1319688   2.524   4.597  11.218  0.5651  0.3261 -0.1815
  174SAPI    H319689   2.470   4.694  11.211  0.0490  0.1608  1.1684
  174SAPI    O319690   2.611   4.619  11.328 -0.2507 -0.0546  0.4894
  174SAPI   HO319691   2.622   4.711  11.355 -0.2022  0.0742  0.0297
  174SAPI   C1419692   2.419   4.495  11.244  0.4934 -0.3389  0.1778
  174SAPI    H419693   2.480   4.406  11.271  2.0143  0.7836  0.5691
  174SAPI    O419694   2.347   4.522  11.367 -0.1040 -0.5232  0.3337
  174SAPI   HO419695   2.281   4.590  11.350 -0.2440 -1.1311 -1.8248
  174SAPI   C1519696   2.333   4.476  11.125  0.4416 -0.1500  0.5017
  174SAPI    H519697   2.291   4.576  11.103 -0.4228 -0.1622  1.9754
  174SAPI    O519698   2.218   4.393  11.148  0.4886 -0.1651 -0.8306
  174SAPI   HO519699   2.179   4.379  11.061  0.0972 -3.0035 -0.2879
  174SAPI   C1619700   2.417   4.427  11.001  0.4919  0.7183  0.3523
  174SAPI    H619701   2.472   4.331  11.017  0.7902  0.3874 -2.2404
  174SAPI    O619702   2.326   4.392  10.893 -0.1531 -0.6457 -0.5164
  174SAPI   HO619703   2.367   4.397  10.806  0.7199  1.3730 -0.0463
  174SAPI   C1119704   2.513   4.536  10.969 -0.4624  0.4545 -0.8149
  174SAPI    H119705   2.456   4.630  10.960 -1.8120 -0.0891  1.2692
  174SAPI     P19706   2.677   4.619  10.768  0.1503 -0.3891 -0.0391
  174SAPI   O1319707   2.792   4.575  10.689  0.0104  0.3902  0.1433
  174SAPI   O1419708   2.715   4.724  10.863 -0.4483  0.2523 -0.2088
  174SAPI   O1219709   2.594   4.507  10.848 -0.1340  0.0724 -0.1904
  174SAPI   O1119710   2.553   4.666  10.674  0.5750  0.0413 -0.5024
  174SAPI    C119711   2.434   4.728  10.704 -0.1646  0.7552  0.8789
  174SAPI    HA19712   2.373   4.640  10.735  2.8175 -1.6402  0.4381
  174SAPI    HB19713   2.439   4.806  10.784  0.5223  1.8640 -0.2130
  174SAPI    C219714   2.388   4.782  10.565 -0.2207  0.0483  0.5646
  174SAPI    HS19715   2.291   4.833  10.584 -0.1669  0.0987  0.7014
  174SAPI   O2119716   2.365   4.666  10.479  0.3290 -0.0202 -0.7212
  174SAPI   C2119717   2.248   4.656  10.425 -0.3875 -0.3412 -0.0723
  174SAPI   O2219718   2.162   4.743  10.419 -0.5066 -0.4974  0.4933
  174SAPI   C2219719   2.228   4.517  10.365 -0.6688 -0.6483 -0.1261
  174SAPI   H2R19720   2.323   4.461  10.350 -0.2836 -0.0798  0.1465
  174SAPI   H2S19721   2.172   4.457  10.440 -0.4077 -1.0492 -0.2456
  174SAPI    C319722   2.492   4.885  10.502  0.4453  0.5677 -0.0296
  174SAPI    HX19723   2.595   4.847  10.515  0.7863  1.1287 -0.9947
  174SAPI    HY19724   2.484   4.977  10.562 -0.2166 -0.4184  1.4579
  174SAPI   O3119725   2.455   4.932  10.374  0.1329  1.0291 -0.0265
  174SAPI   C3119726   2.530   4.892  10.273  0.2381  0.0290  0.5019
  174SAPI   O3219727   2.629   4.825  10.276  0.0728  0.1489  0.1107
  174SAPI   C3219728   2.469   4.959  10.145 -0.3056  0.3466 -1.1171
  174SAPI   H2X19729   2.491   5.064  10.170 -2.0800  0.6616 -0.7462
  174SAPI   H2Y19730   2.361   4.934  10.143  0.0651 -1.7045  0.6562
  174SAPI   C2319731   2.154   4.529  10.229  0.6830  0.0828 -0.3629
  174SAPI   H3R19732   2.044   4.541  10.243  1.0204  1.2558  1.7105
  174SAPI   H3S19733   2.169   4.428  10.186  2.4244 -0.2899  1.0308
  174SAPI   C2419734   2.226   4.628  10.131  0.1015 -0.3589  0.4403
  174SAPI   H4R19735   2.191   4.732  10.148  0.8517  0.3581 -2.0121
  174SAPI   H4S19736   2.182   4.613  10.030 -0.9366  0.0844  0.8199
  174SAPI   C2519737   2.374   4.619  10.124  0.7542 -0.2896  0.2632
  174SAPI   H5R19738   2.427   4.639  10.219  0.9467 -0.2175  0.1418
  174SAPI   C2619739   2.456   4.578  10.027  0.7539  0.5126  0.7580
  174SAPI   H6R19740   2.563   4.593  10.046  0.9789  0.5446 -0.4313
  174SAPI   C2719741   2.417   4.527   9.887  0.6853 -0.2619 -0.2610
  174SAPI   H7R19742   2.394   4.617   9.827 -4.2845  0.0364  1.6396
  174SAPI   H7S19743   2.312   4.492   9.890  0.6715 -0.1893  0.3026
  174SAPI   C2819744   2.507   4.429   9.817 -0.1561  0.3615 -0.6550
  174SAPI   H8R19745   2.600   4.417   9.873 -0.0001  0.2217 -0.9427
  174SAPI   C2919746   2.492   4.386   9.690  0.5127 -0.1425 -0.4811
  174SAPI   H9R19747   2.575   4.339   9.635 -0.5088  0.0120 -2.2325
  174SAPI  C21019748   2.368   4.424   9.607  0.4850 -0.2672  0.1711
  174SAPI  H10R19749   2.366   4.534   9.590  2.2438 -0.4646 -1.7110
  174SAPI  H10S19750   2.280   4.399   9.671 -0.2120  0.8047 -0.3434
  174SAPI  C21119751   2.363   4.338   9.484 -0.0190 -0.4161  0.5262
  174SAPI  H11R19752   2.307   4.245   9.502  0.7437 -0.8280  0.8113
  174SAPI  C21219753   2.429   4.364   9.369 -0.3830 -0.1505  0.2507
  174SAPI  H12R19754   2.413   4.299   9.281  0.3682  0.0456 -0.0429
  174SAPI  C21319755   2.520   4.483   9.344  0.0137 -0.3324  0.4043
  174SAPI  H13R19756   2.626   4.453   9.330 -0.3198 -2.1403  1.4780
  174SAPI  H13S19757   2.524   4.545   9.436 -1.2784 -0.6348  0.6824
  174SAPI  C21419758   2.470   4.575   9.233  0.2961 -0.3596  0.6697
  174SAPI  H14R19759   2.421   4.662   9.277 -0.1285  0.1903 -0.8254
  174SAPI  C21519760   2.495   4.558   9.101 -0.4017 -0.0333 -0.2386
  174SAPI  H15R19761   2.433   4.610   9.026  0.1173 -0.1456 -0.7616
  174SAPI  C21619762   2.572   4.428   9.061 -0.4788 -0.1211 -0.5954
  174SAPI  H16R19763   2.576   4.357   9.147  0.7552 -0.0107 -0.5377
  174SAPI  H16S19764   2.670   4.450   9.014 -1.4649  0.1210 -2.6264
  174SAPI  C21719765   2.484   4.363   8.954 -0.2079  0.2092 -0.7602
  174SAPI  H17R19766   2.489   4.424   8.861 -1.2784  0.3732 -0.7235
  174SAPI  H17S19767   2.381   4.361   8.994  0.0082  1.7431 -0.0771
  174SAPI  C21819768   2.525   4.230   8.916  0.1803  0.3451  0.5452
  174SAPI  H18R19769   2.542   4.165   9.005  2.4636  0.5067  0.2969
  174SAPI  H18S19770   2.622   4.230   8.862 -0.8320  1.8662 -1.3988
  174SAPI  C21919771   2.424   4.156   8.833 -0.2158  0.3221 -0.1626
  174SAPI  H19R19772   2.440   4.215   8.740  2.1005  0.4983  0.2932
  174SAPI  H19S19773   2.319   4.168   8.866  0.1873  2.8830  0.4375
  174SAPI  C22019774   2.461   4.012   8.804 -0.0616  0.3623 -0.3205
  174SAPI  H20R19775   2.400   3.969   8.721  0.7015 -1.2293 -0.1053
  174SAPI  H20S19776   2.461   3.953   8.898  1.0694 -1.3971 -1.3563
  174SAPI  H20T19777   2.564   4.010   8.762 -0.1675  2.0980 -0.7489
  174SAPI   C3319778   2.527   4.921  10.007 -0.6993  0.0572  0.2243
  174SAPI   H3X19779   2.517   4.814   9.981 -2.4326  0.3453 -0.3643
  174SAPI   H3Y19780   2.635   4.946  10.000 -0.2487 -1.2106  1.9420
  174SAPI   C3419781   2.446   5.001   9.899  0.1376 -1.1955  0.4712
  174SAPI   H4X19782   2.454   5.110   9.919  2.0649 -1.2183  0.0526
  174SAPI   H4Y19783   2.337   4.980   9.895  0.0014 -0.3732 -1.6689
  174SAPI   C3519784   2.495   4.964   9.762  0.1273 -0.9276  0.3817
  174SAPI   H5X19785   2.503   4.854   9.743 -1.1036 -1.0493  0.4930
  174SAPI   H5Y19786   2.598   4.999   9.739 -0.8305  0.0867 -2.8939
  174SAPI   C3619787   2.400   5.023   9.649 -0.2726 -0.1360 -0.6354
  174SAPI   H6X19788   2.376   5.127   9.681 -3.6869 -1.5573  2.0219
  174SAPI   H6Y19789   2.308   4.961   9.650 -1.4894  1.5482  1.5213
  174SAPI   C3719790   2.464   5.008   9.515  0.2782 -0.3850  0.9659
  174SAPI   H7X19791   2.497   4.901   9.512  0.4024 -0.3270 -1.2558
  174SAPI   H7Y19792   2.551   5.076   9.506  0.8100 -1.2067 -0.6239
  174SAPI   C3819793   2.375   5.034   9.391 -0.0992 -0.4062  0.2919
  174SAPI   H8X19794   2.334   5.136   9.407 -0.2600 -0.8438  3.1781
  174SAPI   H8Y19795   2.284   4.971   9.390  0.0942 -0.7654 -2.6413
  174SAPI   C3919796   2.442   5.003   9.254 -0.0194 -0.3100 -0.3820
  174SAPI   H9X19797   2.479   4.899   9.259 -0.1226 -0.3661 -0.7714
  174SAPI   H9Y19798   2.533   5.064   9.241  0.3809 -0.2300  2.3251
  174SAPI  C31019799   2.339   5.039   9.148 -0.0790  0.4772 -0.3806
  174SAPI  H10X19800   2.319   5.147   9.169  0.8110  0.7554 -0.9457
  174SAPI  H10Y19801   2.243   4.984   9.149  0.5032 -0.7494 -3.2905
  174SAPI  C31119802   2.395   5.023   9.008 -0.2686  0.6669  0.1446
  174SAPI  H11X19803   2.415   4.915   8.991 -0.1737  0.3584  2.0529
  174SAPI  H11Y19804   2.495   5.070   9.009 -0.0420  0.1884  0.0346
  174SAPI  C31219805   2.312   5.082   8.897 -0.0873 -0.5095  0.1210
  174SAPI  H12X19806   2.276   5.175   8.946 -0.7872 -0.0404 -1.2232
  174SAPI  H12Y19807   2.229   5.015   8.865  1.2122 -1.1990 -2.0282
  174SAPI  C31319808   2.388   5.148   8.780 -0.2950  0.8901  0.2991
  174SAPI  H13X19809   2.433   5.066   8.720 -1.1855 -0.0932  0.9743
  174SAPI  H13Y19810   2.467   5.219   8.814 -0.7283  1.0393  1.0050
  174SAPI  C31419811   2.297   5.237   8.694  0.4425  0.1731  0.6189
  174SAPI  H14X19812   2.206   5.181   8.666  1.0573  0.9703 -3.7273
  174SAPI  H14Y19813   2.345   5.263   8.597 -0.3644 -2.1172 -0.4510
  174SAPI  C31519814   2.238   5.375   8.752 -0.7499  0.6948  0.1542
  174SAPI  H15X19815   2.333   5.418   8.792  0.2400  1.0577 -2.4061
  174SAPI  H15Y19816   2.162   5.367   8.833  1.0551  1.9665  2.1124
  174SAPI  C31619817   2.180   5.458   8.631 -0.0840  0.0486 -0.9279
  174SAPI  H16X19818   2.091   5.401   8.599 -0.3429  0.6825 -1.3625
  174SAPI  H16Y19819   2.258   5.470   8.552  0.2908  0.4049 -0.5110
  174SAPI  C31719820   2.140   5.606   8.660 -0.1466  0.8488 -0.2004
  174SAPI  H17X19821   2.058   5.605   8.734  1.0873  2.3309  1.2825
  174SAPI  H17Y19822   2.113   5.656   8.565 -0.7572 -0.6736 -0.8598
  174SAPI  C31819823   2.254   5.679   8.728 -0.9610 -0.3447 -0.3942
  174SAPI  H18X19824   2.281   5.634   8.825 -3.1500 -2.9889 -0.9101
  174SAPI  H18Y19825   2.233   5.788   8.740  1.3599  0.2364 -0.9672
  174SAPI  H18Z19826   2.342   5.668   8.660 -1.3063 -3.5062 -0.4669
  175SAPI   C1219827   3.627   4.225   6.453 -0.7295 -0.6790 -0.1991
  175SAPI    H219828   3.545   4.301   6.458 -1.7216 -1.7346  0.0555
  175SAPI    O219829   3.676   4.225   6.319  0.2820  0.2280  0.1334
  175SAPI   HO219830   3.615   4.293   6.288 -0.3274  0.4541  1.7239
  175SAPI   C1319831   3.740   4.271   6.545  0.3150  0.1723  0.5420
  175SAPI    H319832   3.709   4.289   6.651 -2.4379  0.2998 -0.1894
  175SAPI    O319833   3.799   4.394   6.492  0.4766 -0.0731 -0.6106
  175SAPI   HO319834   3.856   4.431   6.560 -0.1142  0.4265 -0.3808
  175SAPI   C1419835   3.844   4.163   6.545 -0.4234  0.5250 -0.1658
  175SAPI    H419836   3.899   4.154   6.449 -0.0443 -3.0932  0.2428
  175SAPI    O419837   3.950   4.186   6.642  0.4280  0.2202 -0.2691
  175SAPI   HO419838   4.038   4.182   6.605  0.0638  0.3830 -1.2020
  175SAPI   C1519839   3.778   4.025   6.581  0.1981  0.0233  0.1177
  175SAPI    H519840   3.724   4.042   6.676  2.3660 -2.3411  1.8876
  175SAPI    O519841   3.870   3.915   6.585 -0.0555 -0.0875 -0.2891
  175SAPI   HO519842   3.864   3.872   6.671 -0.1909 -0.2631 -0.3861
  175SAPI   C1619843   3.668   3.988   6.485  0.0994 -0.0383  0.3721
  175SAPI    H619844   3.710   3.980   6.382  2.0177  0.4958  1.0690
  175SAPI    O619845   3.603   3.866   6.526  0.0654  0.3352 -0.1038
  175SAPI   HO619846   3.517   3.864   6.483 -0.1458 -0.6541  0.3448
  175SAPI   C1119847   3.562   4.095   6.489  0.3522 -0.7898 -0.4653
  175SAPI    H119848   3.528   4.115   6.593 -1.0086  0.8395 -1.1850
  175SAPI     P19849   3.295   4.079   6.454 -0.1461 -0.2805 -0.2470
  175SAPI   O1319850   3.209   4.083   6.330 -0.5326 -0.3235 -0.7844
  175SAPI   O1419851   3.284   4.193   6.546  0.2085  0.0877  0.3260
  175SAPI   O1219852   3.453   4.060   6.402 -0.1035 -0.2355 -0.5613
  175SAPI   O1119853   3.253   3.951   6.537  0.0270 -0.0369  0.1254
  175SAPI    C119854   3.196   3.956   6.666 -0.1784 -0.4000 -0.2264
  175SAPI    HA19855   3.141   4.052   6.682 -0.5849 -0.2131 -2.4621
  175SAPI    HB19856   3.128   3.869   6.668 -1.0801  0.2508 -1.4581
  175SAPI    C219857   3.291   3.938   6.785  0.3019 -0.2518 -0.1732
  175SAPI    HS19858   3.362   4.023   6.793  0.8046 -0.8280  2.0671
  175SAPI   O2119859   3.349   3.804   6.774  0.4003 -0.4245  0.1968
  175SAPI   C2119860   3.476   3.799   6.799  0.2056 -0.5357 -0.0240
  175SAPI   O2219861   3.552   3.888   6.836  0.7942  0.2772 -0.1828
  175SAPI   C2219862   3.533   3.661   6.771  0.2091 -0.3500  1.0346
  175SAPI   H2R19863   3.482   3.622   6.681 -0.0624  0.7451  0.6960
  175SAPI   H2S19864   3.636   3.690   6.742 -0.1752  0.8774  0.8188
  175SAPI    C319865   3.207   3.951   6.918 -0.0490  0.3528  0.5704
  175SAPI    HX19866   3.111   3.895   6.917 -0.4637  1.0524  0.1553
  175SAPI    HY19867   3.189   4.060   6.927 -2.6540 -0.0744  1.3992
  175SAPI   O3119868   3.285   3.895   7.031  0.3330 -0.0094 -0.2655
  175SAPI   C3119869   3.338   3.988   7.111  0.8029 -0.4064 -0.8613
  175SAPI   O3219870   3.341   4.108   7.099 -0.2218  0.0571 -0.3850
  175SAPI   C3219871   3.426   3.923   7.218  0.1351 -0.1514  0.1953
  175SAPI   H2X19872   3.496   4.007   7.236  0.7511 -0.4312 -0.7887
  175SAPI   H2Y19873   3.482   3.833   7.185  0.2307 -1.3104  3.2454
  175SAPI   C2319874   3.550   3.560   6.888  0.3371 -0.2659 -0.6496
  175SAPI   H3R19875   3.594   3.617   6.972 -0.6610 -1.4146  0.6918
  175SAPI   H3S19876   3.633   3.490   6.864  0.6923 -0.3182  0.6485
  175SAPI   C2419877   3.425   3.485   6.925  0.4072  0.0061  0.1770
  175SAPI   H4R19878   3.458   3.381   6.945 -0.2698 -0.4425 -0.9591
  175SAPI   H4S19879   3.363   3.478   6.833 -2.0453  0.0242  1.7484
  175SAPI   C2519880   3.363   3.558   7.041 -0.0113  0.0032 -0.5970
  175SAPI   H5R19881   3.322   3.655   7.009 -2.1005 -1.0692 -1.3140
  175SAPI   C2619882   3.353   3.518   7.173  0.3810 -0.5564  0.0250
  175SAPI   H6R19883   3.313   3.591   7.246 -0.0666  0.7027 -1.4376
  175SAPI   C2719884   3.405   3.382   7.223  1.0020 -0.5400  0.3863
  175SAPI   H7R19885   3.439   3.326   7.133  1.1377  2.1911 -1.3613
  175SAPI   H7S19886   3.326   3.316   7.266  0.6177  0.0406  0.5846
  175SAPI   C2819887   3.520   3.414   7.313 -1.2975 -0.1419 -0.4168
  175SAPI   H8R19888   3.622   3.427   7.275 -1.5198 -0.4037 -1.1054
  175SAPI   C2919889   3.506   3.427   7.447  0.1739  0.1931 -0.0137
  175SAPI   H9R19890   3.594   3.429   7.513 -1.0945 -0.3907  1.7849
  175SAPI  C21019891   3.370   3.418   7.517 -0.4653  0.4993 -1.2825
  175SAPI  H10R19892   3.385   3.364   7.612 -0.7273  0.4671 -1.2591
  175SAPI  H10S19893   3.299   3.353   7.462 -0.2336 -0.2259 -0.7406
  175SAPI  C21119894   3.293   3.548   7.541 -0.6974  0.0001 -0.1978
  175SAPI  H11R19895   3.281   3.619   7.458  3.5912  2.1934  0.7447
  175SAPI  C21219896   3.255   3.589   7.668  0.2086  0.7735  0.3892
  175SAPI  H12R19897   3.199   3.684   7.672 -1.1050  0.0964 -1.0191
  175SAPI  C21319898   3.273   3.520   7.800 -0.6261  0.2093  0.0806
  175SAPI  H13R19899   3.375   3.474   7.802 -0.9032 -0.6231 -2.3190
  175SAPI  H13S19900   3.206   3.432   7.810 -0.6497  0.2533  0.3231
  175SAPI  C21419901   3.260   3.622   7.915 -0.7790 -0.2029  1.1397
  175SAPI  H14R19902   3.167   3.681   7.915 -0.4857  0.3773 -1.5283
  175SAPI  C21519903   3.346   3.635   8.018 -0.5005  0.2968  0.0899
  175SAPI  H15R19904   3.309   3.688   8.107 -0.2627 -0.6275  0.7579
  175SAPI  C21619905   3.469   3.540   8.036 -0.2501 -0.1496  0.4503
  175SAPI  H16R19906   3.504   3.500   7.939 -0.0410 -2.5501  1.4652
  175SAPI  H16S19907   3.436   3.458   8.103  0.5762 -0.5433  0.3851
  175SAPI  C21719908   3.594   3.613   8.098  0.0524  0.0736 -0.4634
  175SAPI  H17R19909   3.617   3.697   8.029 -1.2289  0.0481 -0.9437
  175SAPI  H17S19910   3.682   3.546   8.112 -0.4667 -0.5852 -0.2991
  175SAPI  C21819911   3.572   3.669   8.237 -0.0314 -0.4018  0.5902
  175SAPI  H18R19912   3.475   3.723   8.237 -0.2670 -0.8017  1.2943
  175SAPI  H18S19913   3.652   3.744   8.254 -1.7430  2.2477 -2.0869
  175SAPI  C21919914   3.564   3.567   8.351 -0.3314  0.4182 -0.6016
  175SAPI  H19R19915   3.658   3.509   8.362  0.1276  0.9844 -1.4256
  175SAPI  H19S19916   3.484   3.499   8.316 -0.0711 -0.7742  1.0396
  175SAPI  C22019917   3.528   3.631   8.486 -0.2679 -0.0654  0.2522
  175SAPI  H20R19918   3.434   3.689   8.478 -0.8313 -0.3680  3.2941
  175SAPI  H20S19919   3.604   3.711   8.500  3.1092 -2.9173 -0.1261
  175SAPI  H20T19920   3.517   3.565   8.575 -0.9917 -0.2761  0.0095
  175SAPI   C3319921   3.356   3.894   7.354  0.2900  0.0313  0.2207
  175SAPI   H3X19922   3.426   3.850   7.428  2.0646  1.2263 -0.6742
  175SAPI   H3Y19923   3.280   3.815   7.333 -0.6946  1.0819 -0.3068
  175SAPI   C3419924   3.286   4.011   7.428 -0.0231  0.7970  0.2556
  175SAPI   H4X19925   3.187   4.035   7.383  0.7462 -0.4478 -2.3237
  175SAPI   H4Y19926   3.351   4.100   7.412 -0.8398  1.2283 -0.8480
  175SAPI   C3519927   3.266   3.987   7.567  0.2644 -0.2296  0.0629
  175SAPI   H5X19928   3.219   3.888   7.587  0.4868 -0.6568 -1.4131
  175SAPI   H5Y19929   3.200   4.068   7.606  3.0338  1.8850  0.6574
  175SAPI   C3619930   3.394   4.008   7.659 -0.2644  0.0718  0.0795
  175SAPI   H6X19931   3.436   4.105   7.626 -1.4837  0.3089 -0.8245
  175SAPI   H6Y19932   3.466   3.927   7.632 -0.9500 -0.5133 -0.0274
  175SAPI   C3719933   3.340   3.991   7.805 -0.1068  0.0999 -0.0154
  175SAPI   H7X19934   3.270   3.905   7.808  1.4617 -1.3719 -2.3229
  175SAPI   H7Y19935   3.285   4.085   7.830 -0.5561 -0.2389  0.2899
  175SAPI   C3819936   3.451   3.977   7.911  0.4615  0.2683 -0.8346
  175SAPI   H8X19937   3.548   4.016   7.875  0.1965  0.6227 -1.1682
  175SAPI   H8Y19938   3.460   3.867   7.918  1.5825  0.4609  2.8060
  175SAPI   C3919939   3.407   4.044   8.035 -0.7243  0.3165 -0.1740
  175SAPI   H9X19940   3.323   3.982   8.072  0.2145 -1.8717 -1.5455
  175SAPI   H9Y19941   3.375   4.150   8.024  0.6620  0.9015  1.0469
  175SAPI  C31019942   3.515   4.049   8.147  0.9586 -0.1420  0.0047
  175SAPI  H10X19943   3.612   4.063   8.094  0.7075 -2.9436 -1.3682
  175SAPI  H10Y19944   3.515   3.946   8.188  1.9308 -0.0602  0.2397
  175SAPI  C31119945   3.478   4.154   8.255  0.0307  0.7456 -0.0196
  175SAPI  H11X19946   3.381   4.127   8.302 -0.3655  0.4773 -0.9695
  175SAPI  H11Y19947   3.457   4.254   8.212 -2.4612 -0.5390 -2.0684
  175SAPI  C31219948   3.579   4.169   8.375  0.3088  0.9124 -0.7230
  175SAPI  H12X19949   3.542   4.237   8.455 -0.8142 -0.0012 -0.4318
  175SAPI  H12Y19950   3.672   4.202   8.325 -0.0351 -1.7639 -3.3830
  175SAPI  C31319951   3.627   4.041   8.446 -0.4385 -0.0292 -0.1473
  175SAPI  H13X19952   3.677   3.975   8.371  0.3030 -0.2198  0.5000
  175SAPI  H13Y19953   3.537   3.990   8.487 -0.1216 -2.0725 -1.8013
  175SAPI  C31419954   3.711   4.073   8.566  0.3706 -0.2642 -0.2492
  175SAPI  H14X19955   3.735   3.977   8.616  4.4750  0.8506  0.2955
  175SAPI  H14Y19956   3.660   4.144   8.634  1.8966  3.0788 -2.3357
  175SAPI  C31519957   3.853   4.129   8.530  0.7138 -0.1014  0.4142
  175SAPI  H15X19958   3.863   4.204   8.449  0.9336 -0.5729  0.0023
  175SAPI  H15Y19959   3.914   4.042   8.498 -0.6464 -0.6697 -0.7360
  175SAPI  C31619960   3.918   4.193   8.661  0.1098  0.5402  0.6719
  175SAPI  H16X19961   3.924   4.115   8.740 -0.3496 -0.3403 -0.1438
  175SAPI  H16Y19962   3.856   4.276   8.699 -0.4177  0.9610 -1.0276
  175SAPI  C31719963   4.056   4.255   8.639  0.2124  0.1319  0.1699
  175SAPI  H17X19964   4.081   4.328   8.718 -0.1912  0.1138  0.3172
  175SAPI  H17Y19965   4.053   4.323   8.551  0.3678 -1.1362 -0.8512
  175SAPI  C31819966   4.163   4.144   8.627 -0.2561 -0.3542 -0.4743
  175SAPI  H18X19967   4.123   4.067   8.557 -0.6356 -0.5674 -0.0292
  175SAPI  H18Y19968   4.174   4.094   8.726 -0.3415 -1.4090 -0.9871
  175SAPI  H18Z19969   4.260   4.187   8.595  0.8095 -1.3592  1.2559
  176SAPI   C1219970   1.702   2.130   6.178  0.3192  0.5183  0.5522
  176SAPI    H219971   1.698   2.222   6.116 -1.1408 -1.5513 -2.6727
  176SAPI    O219972   1.608   2.139   6.281  0.0084 -0.1678  0.2710
  176SAPI   HO219973   1.639   2.219   6.325 -1.6920  0.6782  0.0122
  176SAPI   C1319974   1.651   2.021   6.080  1.0425  0.7598 -0.0150
  176SAPI    H319975   1.718   2.003   5.993  0.3690 -1.2741 -0.1604
  176SAPI    O319976   1.516   2.064   6.043 -0.1196 -0.3785 -0.1499
  176SAPI   HO319977   1.476   2.099   6.123 -1.5745 -1.3401 -0.4199
  176SAPI   C1419978   1.645   1.885   6.150  0.0537  0.8339  0.2939
  176SAPI    H419979   1.572   1.887   6.234  0.8017  0.1158  0.9780
  176SAPI    O419980   1.604   1.798   6.043  0.5170  0.4169 -0.1184
  176SAPI   HO419981   1.511   1.811   6.021  0.3780  3.2565  1.6580
  176SAPI   C1519982   1.779   1.855   6.202 -0.7532  0.0717  0.6764
  176SAPI    H519983   1.848   1.845   6.116  0.0174 -3.5169  1.5577
  176SAPI    O519984   1.781   1.724   6.255  0.5346  0.4859 -0.3416
  176SAPI   HO519985   1.872   1.692   6.261  1.0482  1.5929 -1.6568
  176SAPI   C1619986   1.847   1.966   6.290 -0.0577  0.5053  0.6869
  176SAPI    H619987   1.792   1.974   6.387 -0.3369 -1.4844  0.7459
  176SAPI    O619988   1.984   1.930   6.324 -0.0626  0.2191 -0.0387
  176SAPI   HO619989   2.019   1.988   6.392 -0.1506  0.2731 -0.0394
  176SAPI   C1119990   1.840   2.096   6.225 -0.3991 -0.2499  0.1607
  176SAPI    H119991   1.906   2.099   6.135 -1.0086  0.5618 -0.2702
  176SAPI     P19992   2.039   2.253   6.333 -0.2191 -0.2361 -0.7597
  176SAPI   O1319993   2.104   2.303   6.207  0.3569 -0.2777 -0.2467
  176SAPI   O1419994   2.111   2.152   6.412  0.1627 -0.6963  0.0010
  176SAPI   O1219995   1.884   2.201   6.312  0.1585  0.1678 -0.1877
  176SAPI   O1119996   2.014   2.376   6.423  0.9024  0.0338  0.0032
  176SAPI    C119997   1.950   2.372   6.553  0.9005  0.3527  0.1937
  176SAPI    HA19998   1.844   2.405   6.542  1.3474  2.0227  0.5922
  176SAPI    HB19999   1.957   2.270   6.598 -2.3894  0.0918  0.3546
  176SAPI    C220000   2.020   2.467   6.644 -0.1255 -0.1675  0.4221
  176SAPI    HS20001   2.130   2.452   6.642  0.3001  2.0455  2.1858
  176SAPI   O2120002   1.960   2.450   6.778  0.3574 -0.7498 -1.0668
  176SAPI   C2120003   2.041   2.476   6.879 -0.7475 -0.6360 -0.2265
  176SAPI   O2220004   2.158   2.509   6.877 -0.5955 -0.0024 -0.2478
  176SAPI   C2220005   1.977   2.475   7.018  0.4396 -0.2466 -0.5112
  176SAPI   H2R20006   1.883   2.533   7.007 -0.9936 -2.1091  1.1477
  176SAPI   H2S20007   1.951   2.369   7.040  0.0188  0.2234  1.5023
  176SAPI    C320008   2.007   2.612   6.591  0.2443 -0.1772 -0.3806
  176SAPI    HX20009   1.904   2.637   6.555  0.6080  0.6677 -0.8787
  176SAPI    HY20010   2.074   2.621   6.503 -0.9936  0.4145 -1.3058
  176SAPI   O3120011   2.048   2.700   6.697  0.1252 -0.7991  0.1445
  176SAPI   C3120012   2.031   2.831   6.665  1.1585  0.6439  0.7279
  176SAPI   O3220013   1.992   2.870   6.556  0.1012 -0.5761 -0.1885
  176SAPI   C3220014   2.069   2.922   6.776  0.3968  0.0217 -0.0028
  176SAPI   H2X20015   1.994   3.004   6.789  1.5453  0.8481  1.8953
  176SAPI   H2Y20016   2.170   2.968   6.772 -0.5596  2.2086 -0.5883
  176SAPI   C2320017   2.070   2.526   7.132  0.2391  0.0048 -0.0593
  176SAPI   H3R20018   2.103   2.627   7.102 -2.5411  0.3269 -2.5818
  176SAPI   H3S20019   2.162   2.466   7.148 -0.1385 -0.7191 -0.5247
  176SAPI   C2420020   1.991   2.551   7.263  0.3101 -0.8922  0.1153
  176SAPI   H4R20021   1.929   2.464   7.294 -1.9964  0.3100 -0.9105
  176SAPI   H4S20022   1.923   2.638   7.250  2.5778  1.3773  2.2541
  176SAPI   C2520023   2.092   2.578   7.377  0.6276 -0.1845 -0.1154
  176SAPI   H5R20024   2.178   2.637   7.342  0.0284  1.0452  0.4382
  176SAPI   C2620025   2.096   2.528   7.497  0.5960  0.2747  0.3364
  176SAPI   H6R20026   2.185   2.551   7.558  0.9622 -1.3543  0.4701
  176SAPI   C2720027   2.008   2.420   7.555  0.0918 -0.1671 -0.4209
  176SAPI   H7R20028   1.986   2.351   7.471  2.5331  0.9929 -2.1101
  176SAPI   H7S20029   1.909   2.462   7.584  1.1105  2.2226 -0.1307
  176SAPI   C2820030   2.076   2.338   7.660  0.1192  0.3612  0.6743
  176SAPI   H8R20031   2.176   2.314   7.623  0.4580  1.1624  1.0449
  176SAPI   C2920032   2.045   2.326   7.789 -0.2209 -0.4129 -0.1308
  176SAPI   H9R20033   2.105   2.266   7.859 -1.3268 -1.1646  0.2060
  176SAPI  C21020034   1.930   2.392   7.864  0.2547 -0.2173  0.3602
  176SAPI  H10R20035   1.913   2.324   7.949  1.0394 -1.9994 -0.8392
  176SAPI  H10S20036   1.844   2.386   7.794  1.0840  1.0350 -0.8200
  176SAPI  C21120037   1.966   2.534   7.890  0.2318 -0.0373 -0.3217
  176SAPI  H11R20038   1.993   2.601   7.807 -2.7574 -0.9864 -2.2143
  176SAPI  C21220039   1.975   2.584   8.012  1.1011 -0.2385 -0.4027
  176SAPI  H12R20040   1.999   2.692   8.022  0.8775 -0.3759  2.4223
  176SAPI  C21320041   1.938   2.514   8.146 -0.2842  0.1626  0.1701
  176SAPI  H13R20042   1.920   2.407   8.123  0.2867  0.3868 -1.5231
  176SAPI  H13S20043   1.840   2.557   8.176 -0.0919  1.6501 -1.1514
  176SAPI  C21420044   2.018   2.544   8.268 -0.0476  0.5448 -0.3947
  176SAPI  H14R20045   2.072   2.639   8.258 -0.9242  1.1804  0.6478
  176SAPI  C21520046   2.034   2.468   8.378  1.0097  0.3439  0.2242
  176SAPI  H15R20047   2.094   2.505   8.462  2.4215 -0.8475 -0.2089
  176SAPI  C21620048   1.970   2.329   8.392 -0.2118  0.2380 -0.4567
  176SAPI  H16R20049   2.038   2.251   8.352  0.2081 -0.0649  0.7789
  176SAPI  H16S20050   1.877   2.326   8.333  0.1495 -0.0856 -1.0206
  176SAPI  C21720051   1.931   2.303   8.538 -0.4381 -0.2450  0.1543
  176SAPI  H17R20052   1.841   2.364   8.563 -0.1134  0.5791 -0.6111
  176SAPI  H17S20053   2.017   2.330   8.603 -0.8666  0.4228  0.4523
  176SAPI  C21820054   1.880   2.160   8.562  0.0575  0.2058 -0.4212
  176SAPI  H18R20055   1.802   2.139   8.485  0.9579 -1.2949 -0.9576
  176SAPI  H18S20056   1.838   2.163   8.664  0.5867  0.1385 -0.1979
  176SAPI  C21920057   1.982   2.049   8.557  0.2197  0.2719 -0.6783
  176SAPI  H19R20058   2.051   2.080   8.638 -0.7821  1.4058 -0.2282
  176SAPI  H19S20059   2.051   2.043   8.470  1.3935  1.3886  0.1526
  176SAPI  C22020060   1.929   1.916   8.596  1.1290  0.1184 -0.3045
  176SAPI  H20R20061   1.859   1.874   8.521  0.7691 -1.6917  0.9795
  176SAPI  H20S20062   1.889   1.911   8.699  0.8858  1.5251 -0.3191
  176SAPI  H20T20063   2.007   1.836   8.597 -0.9085 -1.9638  0.8128
  176SAPI   C3320064   2.076   2.846   6.915 -1.0658 -0.3673 -0.4987
  176SAPI   H3X20065   2.159   2.773   6.917 -0.3173  0.4611 -0.5457
  176SAPI   H3Y20066   1.984   2.785   6.930 -0.8492 -0.5984 -0.0964
  176SAPI   C3420067   2.099   2.933   7.046  0.0209 -0.4145 -0.3801
  176SAPI   H4X20068   2.195   2.988   7.031  0.8622 -1.6407  0.3589
  176SAPI   H4Y20069   2.120   2.860   7.127 -0.2145 -2.6269 -2.2257
  176SAPI   C3520070   1.979   3.017   7.084 -0.3413 -0.4943  0.9100
  176SAPI   H5X20071   1.887   2.954   7.088  1.4676 -3.2497  1.8325
  176SAPI   H5Y20072   1.973   3.096   7.006  0.4628 -1.5018 -0.2038
  176SAPI   C3620073   2.000   3.086   7.217 -0.5980 -0.6604  0.1501
  176SAPI   H6X20074   1.939   3.176   7.238 -0.1061 -0.3372  0.2104
  176SAPI   H6Y20075   2.096   3.141   7.225 -0.5406 -0.6952 -0.3077
  176SAPI   C3720076   1.979   2.997   7.339  0.4327  0.2795 -0.2123
  176SAPI   H7X20077   2.046   2.910   7.327  0.6809  0.5644 -0.8838
  176SAPI   H7Y20078   1.870   2.973   7.342  0.0490  1.9452  0.3792
  176SAPI   C3820079   1.992   3.069   7.474  0.0923 -0.6344 -0.6185
  176SAPI   H8X20080   1.916   3.149   7.480  0.4054 -0.1883 -2.1728
  176SAPI   H8Y20081   2.090   3.119   7.468  0.5059 -1.5575 -2.0279
  176SAPI   C3920082   1.983   2.977   7.591  0.1614 -0.3185 -0.7544
  176SAPI   H9X20083   2.079   2.922   7.600  0.2235 -0.2000 -0.6969
  176SAPI   H9Y20084   1.902   2.901   7.586 -1.3598  1.2753 -1.3700
  176SAPI  C31020085   1.965   3.056   7.728  0.3524  0.4028 -0.0222
  176SAPI  H10X20086   1.883   3.126   7.704 -0.0047 -0.1929 -0.5678
  176SAPI  H10Y20087   2.058   3.116   7.744  0.9489 -0.9087  1.8677
  176SAPI  C31120088   1.934   2.968   7.849  0.8511  0.6227 -0.3641
  176SAPI  H11X20089   2.023   2.901   7.859 -0.1572 -0.6886  0.2020
  176SAPI  H11Y20090   1.849   2.901   7.823  2.2143 -1.2284 -0.3069
  176SAPI  C31220091   1.903   3.062   7.975 -0.7890  0.0906 -0.6674
  176SAPI  H12X20092   1.818   3.127   7.947 -2.9332 -1.3841  1.9267
  176SAPI  H12Y20093   1.999   3.105   8.012 -0.5603 -0.4635 -0.6076
  176SAPI  C31320094   1.854   2.976   8.095 -0.0016  0.0519  0.7491
  176SAPI  H13X20095   1.920   2.887   8.106  0.8326  0.8474  2.4687
  176SAPI  H13Y20096   1.752   2.932   8.088  0.3449 -0.8703  1.4306
  176SAPI  C31420097   1.863   3.053   8.237 -0.1038  0.2274  0.4036
  176SAPI  H14X20098   1.800   3.144   8.230  1.0454  1.1074  1.1831
  176SAPI  H14Y20099   1.968   3.087   8.250 -0.0569 -0.4270  1.8994
  176SAPI  C31520100   1.834   2.959   8.363  0.4573 -0.3935 -0.1248
  176SAPI  H15X20101   1.878   2.857   8.359 -0.7932 -0.9499 -0.1241
  176SAPI  H15Y20102   1.725   2.938   8.369  0.7379 -1.6633  1.1471
  176SAPI  C31620103   1.878   3.013   8.493 -0.6320 -0.3893 -0.5719
  176SAPI  H16X20104   1.842   2.940   8.569  0.5901 -2.4417 -1.8512
  176SAPI  H16Y20105   1.845   3.118   8.505  1.9258  0.6154 -1.5729
  176SAPI  C31720106   2.032   3.018   8.521 -0.0776  0.3792 -0.1624
  176SAPI  H17X20107   2.055   3.091   8.603  0.7626 -0.3226  0.2444
  176SAPI  H17Y20108   2.085   3.045   8.428 -1.4199 -3.8769 -2.4023
  176SAPI  C31820109   2.102   2.880   8.559 -0.0772 -0.9360 -0.0912
  176SAPI  H18X20110   2.211   2.895   8.571 -0.2687 -0.0975  0.6796
  176SAPI  H18Y20111   2.091   2.808   8.474  4.3366 -2.0210  0.0130
  176SAPI  H18Z20112   2.072   2.838   8.657 -0.3469 -0.7755 -0.1056
  177SLPC     N20113   1.549   5.279  11.004 -0.2227 -0.3742  0.1998
  177SLPC   C1320114   1.634   5.176  10.936  0.6207 -0.5743 -1.0309
  177SLPC  H13A20115   1.662   5.208  10.837 -3.3029  0.9658 -1.8247
  177SLPC  H13B20116   1.728   5.161  10.987 -0.0962 -1.2803  0.1379
  177SLPC  H13C20117   1.586   5.080  10.929 -0.4263 -0.0095 -1.8384
  177SLPC   C1420118   1.625   5.409  11.031 -0.2548  0.9755  0.3965
  177SLPC  H14A20119   1.583   5.465  11.113 -1.8550 -0.2204  0.4531
  177SLPC  H14B20120   1.725   5.390  11.066 -0.7712 -1.3485  0.7895
  177SLPC  H14C20121   1.625   5.473  10.945 -0.7316 -0.7965 -0.9962
  177SLPC   C1520122   1.523   5.233  11.141  0.0172  0.0744 -0.1294
  177SLPC  H15A20123   1.486   5.132  11.149  2.8738 -1.0072  0.7583
  177SLPC  H15B20124   1.615   5.228  11.198  0.0791 -0.9434 -0.3021
  177SLPC  H15C20125   1.462   5.299  11.201 -1.1969  0.5644 -1.8333
  177SLPC   C1220126   1.414   5.291  10.934 -1.0726  0.4166 -0.5961
  177SLPC  H12A20127   1.347   5.335  11.006  1.2865 -1.1057  2.7572
  177SLPC  H12B20128   1.377   5.190  10.920  2.8004 -1.3869  0.7489
  177SLPC   C1120129   1.403   5.370  10.808  0.1858 -0.1152  0.4495
  177SLPC  H11A20130   1.298   5.352  10.776  0.4856  0.4284 -0.9127
  177SLPC  H11B20131   1.459   5.331  10.721 -0.5679  2.1259 -1.1240
  177SLPC     P20132   1.357   5.616  10.881 -0.1423  0.9525 -0.0052
  177SLPC   O1320133   1.228   5.555  10.922  0.7425 -0.3699  0.5180
  177SLPC   O1420134   1.425   5.689  10.988  0.0080 -0.0443 -0.4919
  177SLPC   O1220135   1.453   5.506  10.826  0.4019  0.1189 -0.8111
  177SLPC   O1120136   1.321   5.714  10.759 -0.1378  0.6355 -0.9119
  177SLPC    C120137   1.239   5.667  10.652 -0.5718 -0.3854  0.2114
  177SLPC    HA20138   1.183   5.572  10.666  0.4161 -1.0339 -0.1237
  177SLPC    HB20139   1.162   5.746  10.638  1.0716  1.1714 -0.4011
  177SLPC    C220140   1.325   5.654  10.518 -0.1188  0.3904  0.1401
  177SLPC    HS20141   1.402   5.576  10.534  0.5134  0.7538 -0.9990
  177SLPC   O2120142   1.403   5.776  10.513 -0.0191 -0.6576  0.1373
  177SLPC   C2120143   1.521   5.779  10.459  0.5120  0.0508  0.5763
  177SLPC   O2220144   1.579   5.678  10.421  1.0640 -0.2884  0.6635
  177SLPC   C2220145   1.569   5.924  10.444 -0.3463  0.2451 -0.1928
  177SLPC   H2R20146   1.477   5.982  10.422 -1.7738 -0.2241  3.8644
  177SLPC   H2S20147   1.618   5.956  10.538 -0.3115  2.3009 -0.8489
  177SLPC    C320148   1.237   5.623  10.391 -0.4354 -0.0216 -0.3260
  177SLPC    HX20149   1.175   5.715  10.384 -2.5983 -1.0587  2.8629
  177SLPC    HY20150   1.169   5.538  10.414 -0.6922  0.9510  3.0037
  177SLPC   O3120151   1.315   5.607  10.271  0.3786 -0.4047 -0.2383
  177SLPC   C3120152   1.393   5.504  10.265  0.1830 -0.1666 -0.2579
  177SLPC   O3220153   1.387   5.406  10.342 -0.3829  0.1735  0.7527
  177SLPC   C3220154   1.490   5.520  10.148 -0.0726  0.3379  0.8261
  177SLPC   H2X20155   1.572   5.593  10.170  0.9320 -0.0716 -1.2695
  177SLPC   H2Y20156   1.426   5.558  10.066  1.7289  2.3901  0.2812
  177SLPC   C2320157   1.665   5.939  10.328  0.1331  0.4745 -0.1998
  177SLPC   H3R20158   1.758   5.880  10.339 -0.3238 -0.2737 -0.2012
  177SLPC   H3S20159   1.697   6.044  10.312  0.2019  0.6810  1.2140
  177SLPC   C2420160   1.609   5.897  10.188 -0.0997 -0.1285  0.5106
  177SLPC   H4R20161   1.528   5.972  10.175  1.1244  1.1781  0.1864
  177SLPC   H4S20162   1.574   5.792  10.191 -0.5094 -0.0755 -1.2428
  177SLPC   C2520163   1.722   5.913  10.082 -0.3916  0.2277 -0.1402
  177SLPC   H5R20164   1.797   5.832  10.095  1.3331  1.7587 -0.0308
  177SLPC   H5S20165   1.784   6.005  10.093 -0.1414 -0.0398  0.8139
  177SLPC   C2620166   1.669   5.905   9.942 -0.0794  0.0261  1.4045
  177SLPC   H6R20167   1.597   5.989   9.930 -1.5011 -1.3704 -0.4773
  177SLPC   H6S20168   1.612   5.812   9.923  1.9835 -0.9678 -0.3405
  177SLPC   C2720169   1.772   5.906   9.828  0.3178 -0.4991  0.3939
  177SLPC   H7R20170   1.843   5.821   9.839  0.7246 -0.5444 -2.0013
  177SLPC   H7S20171   1.829   5.996   9.860 -0.3042 -0.0445  0.2427
  177SLPC   C2820172   1.711   5.911   9.685 -0.5407  0.8903  0.5418
  177SLPC   H8R20173   1.652   6.005   9.677 -0.9925  0.4546 -1.9296
  177SLPC   H8S20174   1.640   5.830   9.663  1.2725 -0.6236 -0.0234
  177SLPC   C2920175   1.826   5.925   9.585  0.0433  0.3091  0.6120
  177SLPC   H9R20176   1.928   5.917   9.624  1.0080 -1.1696 -1.9400
  177SLPC  C21020177   1.809   5.939   9.452 -0.1176 -0.7450  0.2514
  177SLPC  H10R20178   1.901   5.960   9.395 -0.2159  1.9169  0.9749
  177SLPC  C21120179   1.674   5.953   9.378  0.4519 -0.5413 -0.0110
  177SLPC  H11R20180   1.599   5.980   9.456  1.5330  0.0335  0.8561
  177SLPC  H11S20181   1.671   6.048   9.322 -1.0258 -0.0526  0.8223
  177SLPC  C21220182   1.627   5.838   9.300  0.5175 -0.2721 -0.1843
  177SLPC  H12R20183   1.651   5.742   9.346  0.9743  0.0157  0.1916
  177SLPC  C21320184   1.573   5.835   9.180  0.0849  0.2553  0.4799
  177SLPC  H13R20185   1.538   5.736   9.146 -1.6896  1.5449 -1.6992
  177SLPC  C21420186   1.541   5.946   9.079 -0.4726  0.1788 -1.1206
  177SLPC  H14R20187   1.623   5.972   9.008 -0.4016  0.6299 -0.8777
  177SLPC  H14S20188   1.532   6.038   9.140  0.7096 -0.4910  0.1242
  177SLPC  C21520189   1.415   5.916   8.998 -0.4085 -0.7027 -0.1130
  177SLPC  H15R20190   1.374   6.017   8.977  1.5920 -0.1774 -1.8761
  177SLPC  H15S20191   1.350   5.862   9.070  0.5187 -0.5595  0.8620
  177SLPC  C21620192   1.434   5.840   8.868 -0.0922 -0.2018 -0.9962
  177SLPC  H16R20193   1.492   5.747   8.884  1.4574  0.6001 -1.7829
  177SLPC  H16S20194   1.490   5.916   8.810  1.3929 -1.9284 -1.9047
  177SLPC  C21720195   1.294   5.811   8.805  0.4443  0.5329 -0.5966
  177SLPC  H17R20196   1.230   5.902   8.805 -1.3084 -0.6495 -1.3607
  177SLPC  H17S20197   1.240   5.733   8.863 -0.0642  1.4200  0.1564
  177SLPC  C21820198   1.309   5.752   8.661  0.2969 -0.6834  0.0826
  177SLPC  H18R20199   1.212   5.773   8.610  0.6583 -1.0835 -0.7806
  177SLPC  H18S20200   1.330   5.643   8.661 -0.9841 -0.9578  1.0688
  177SLPC  H18T20201   1.386   5.814   8.610 -1.2309 -0.3735 -2.0006
  177SLPC   C3320202   1.550   5.381  10.109 -0.1357  0.1544  0.4538
  177SLPC   H3X20203   1.474   5.311  10.069 -1.1991  0.5117  1.7703
  177SLPC   H3Y20204   1.605   5.334  10.193  0.0198 -3.2812 -1.3980
  177SLPC   C3420205   1.664   5.400  10.006 -0.1396 -0.1506 -0.3603
  177SLPC   H4X20206   1.710   5.301   9.984 -0.5033 -1.1210  2.7093
  177SLPC   H4Y20207   1.749   5.464  10.038 -0.7245  0.3737  0.1884
  177SLPC   C3520208   1.608   5.447   9.872  0.2471  0.5995 -0.2799
  177SLPC   H5X20209   1.544   5.537   9.875  0.7356  0.9532 -0.3126
  177SLPC   H5Y20210   1.546   5.363   9.833 -0.0658  1.7043 -2.3116
  177SLPC   C3620211   1.715   5.479   9.771 -0.1339 -0.5937  0.5832
  177SLPC   H6X20212   1.784   5.393   9.775 -0.4927 -0.9599 -0.7877
  177SLPC   H6Y20213   1.768   5.573   9.799 -2.2119  0.6621  0.5547
  177SLPC   C3720214   1.648   5.519   9.641 -0.5440 -0.1638  0.2497
  177SLPC   H7X20215   1.719   5.573   9.574 -0.4160 -0.8000 -0.1424
  177SLPC   H7Y20216   1.573   5.599   9.659  1.2778  1.6926  0.0689
  177SLPC   C3820217   1.588   5.399   9.569  0.1295  0.5243  0.5968
  177SLPC   H8X20218   1.488   5.371   9.609 -0.6367  1.8953 -0.2759
  177SLPC   H8Y20219   1.668   5.323   9.559 -0.8513 -0.3511 -0.9576
  177SLPC   C3920220   1.553   5.439   9.423  0.3171  0.0856  0.4299
  177SLPC   H9X20221   1.649   5.469   9.375  2.6773 -3.0261  2.7004
  177SLPC   H9Y20222   1.488   5.528   9.430  0.1974 -0.0183  0.6437
  177SLPC  C31020223   1.483   5.336   9.336 -0.0505  0.6180 -0.1381
  177SLPC  H10X20224   1.386   5.314   9.385 -0.1500 -0.9468 -0.9886
  177SLPC  H10Y20225   1.555   5.252   9.350  0.3211  0.8539 -0.6260
  177SLPC  C31120226   1.479   5.375   9.189  0.4170 -1.0051  0.2562
  177SLPC  H11X20227   1.581   5.412   9.165  0.8543 -1.6357  1.0911
  177SLPC  H11Y20228   1.410   5.458   9.164  2.6802  1.1943  0.8924
  177SLPC  C31220229   1.445   5.263   9.091  0.0036  0.0674  0.4604
  177SLPC  H12X20230   1.342   5.223   9.104  0.1665 -0.6974 -0.4683
  177SLPC  H12Y20231   1.515   5.181   9.115 -0.6746 -1.4145 -2.1359
  177SLPC  C31320232   1.465   5.285   8.934  0.3310  0.6525 -0.2853
  177SLPC  H13X20233   1.572   5.304   8.909  0.1040  1.5576 -0.6110
  177SLPC  H13Y20234   1.395   5.365   8.902 -1.5476 -0.2396  1.3918
  177SLPC  C31420235   1.421   5.162   8.853  0.1207  0.0787 -0.5254
  177SLPC  H14X20236   1.318   5.147   8.890  1.0074 -0.9541  1.6582
  177SLPC  H14Y20237   1.477   5.078   8.899  0.0480  1.1549  1.6751
  177SLPC  C31520238   1.446   5.173   8.700 -0.1602  0.5786 -0.7675
  177SLPC  H15X20239   1.548   5.199   8.666  0.1931  0.2789  0.0541
  177SLPC  H15Y20240   1.382   5.252   8.655 -0.0963  1.5364  0.7868
  177SLPC  C31620241   1.423   5.040   8.620 -0.1659 -0.5413 -0.1623
  177SLPC  H16X20242   1.317   5.010   8.639 -1.0476  2.9510  1.1936
  177SLPC  H16Y20243   1.501   4.973   8.660  1.3446  0.7895 -0.7748
  177SLPC  C31720244   1.434   5.058   8.472 -0.1344 -0.7541 -0.2923
  177SLPC  H17X20245   1.372   5.147   8.445 -1.2050 -0.8682  1.5820
  177SLPC  H17Y20246   1.379   4.975   8.422  0.6380 -1.0027 -0.7466
  177SLPC  C31820247   1.580   5.068   8.413  0.4961  0.0390  0.1267
  177SLPC  H18X20248   1.593   5.055   8.303  1.1569 -1.7103  0.3787
  177SLPC  H18Y20249   1.626   4.981   8.463 -1.5578 -1.4166 -0.3932
  177SLPC  H18Z20250   1.640   5.153   8.453 -1.6305  0.9851  1.5278
  178SLPC     N20251   3.632   4.469  11.110  0.0135  0.0346  0.0152
  178SLPC   C1320252   3.582   4.500  10.974 -0.0319 -0.5799  0.0561
  178SLPC  H13A20253   3.561   4.605  10.957  1.4526 -0.4419 -1.1501
  178SLPC  H13B20254   3.654   4.472  10.898  0.0634  0.9403 -0.4480
  178SLPC  H13C20255   3.484   4.457  10.959  0.0244 -1.4812  1.8914
  178SLPC   C1420256   3.636   4.319  11.130  0.2682  0.1519  0.3916
  178SLPC  H14A20257   3.696   4.275  11.052  1.8637  0.2643  1.5057
  178SLPC  H14B20258   3.673   4.298  11.229 -0.9111 -0.7977  0.6492
  178SLPC  H14C20259   3.539   4.274  11.120 -0.5214  1.9946 -0.8029
  178SLPC   C1520260   3.546   4.536  11.214  0.3704  0.1337  0.0791
  178SLPC  H15A20261   3.598   4.530  11.309  0.6434  1.9057  0.0782
  178SLPC  H15B20262   3.527   4.638  11.184 -0.1350 -0.6588 -2.5287
  178SLPC  H15C20263   3.448   4.495  11.234  0.9887 -0.9775  0.9669
  178SLPC   C1220264   3.777   4.518  11.127 -0.0011 -0.4434 -0.0041
  178SLPC  H12A20265   3.819   4.502  11.225  0.3824 -0.8569 -0.2379
  178SLPC  H12B20266   3.780   4.626  11.127 -1.2739 -0.3132  2.7531
  178SLPC   C1120267   3.890   4.464  11.025 -1.0733  0.5224 -0.4957
  178SLPC  H11A20268   3.901   4.357  11.055 -0.9517  0.0792 -2.0357
  178SLPC  H11B20269   3.991   4.507  11.043 -1.1181 -0.0099  1.1881
  178SLPC     P20270   3.917   4.580  10.799  0.2231 -0.1887 -0.2990
  178SLPC   O1320271   3.906   4.718  10.862 -0.2426  0.1896  0.0589
  178SLPC   O1420272   4.052   4.538  10.766 -0.2006  0.0987 -0.0708
  178SLPC   O1220273   3.854   4.470  10.888 -0.0785 -0.0975  0.0825
  178SLPC   O1120274   3.835   4.579  10.667 -0.1780 -0.5707 -0.0164
  178SLPC    C120275   3.695   4.588  10.647  0.0699 -0.3037  0.0436
  178SLPC    HA20276   3.654   4.487  10.623  1.9149 -0.4987 -2.7798
  178SLPC    HB20277   3.643   4.629  10.736 -0.2292 -1.0452  0.2219
  178SLPC    C220278   3.652   4.687  10.540 -0.5656  0.4550  0.3537
  178SLPC    HS20279   3.545   4.708  10.556 -0.4260  0.1882  1.7278
  178SLPC   O2120280   3.683   4.614  10.419 -0.3230 -0.0730  0.1200
  178SLPC   C2120281   3.606   4.639  10.312  0.3877 -0.0114  0.2386
  178SLPC   O2220282   3.502   4.702  10.315  0.5351 -0.4265 -0.5388
  178SLPC   C2220283   3.668   4.570  10.194 -0.4822  0.0019 -0.0170
  178SLPC   H2R20284   3.755   4.636  10.172 -0.2355  0.3195  1.6930
  178SLPC   H2S20285   3.695   4.467  10.223 -0.3469  0.3429  1.1225
  178SLPC    C320286   3.731   4.824  10.546 -0.0144  0.1966 -0.4445
  178SLPC    HX20287   3.835   4.791  10.528 -0.3641 -1.1488 -0.1177
  178SLPC    HY20288   3.727   4.874  10.645 -2.7918  0.8060 -0.7601
  178SLPC   O3120289   3.696   4.915  10.439  0.0778 -0.3269  0.2990
  178SLPC   C3120290   3.588   4.980  10.458  0.4001 -0.0366  0.5384
  178SLPC   O3220291   3.520   4.972  10.559 -0.1137 -0.3809 -0.9077
  178SLPC   C3220292   3.594   5.089  10.347  0.3919 -0.3466 -0.1344
  178SLPC   H2X20293   3.574   5.031  10.254  2.6805 -2.4335  0.5717
  178SLPC   H2Y20294   3.697   5.127  10.332  0.0944 -0.2256 -2.0920
  178SLPC   C2320295   3.576   4.559  10.075 -0.0825 -0.1546  0.5813
  178SLPC   H3R20296   3.549   4.659  10.033  0.5784  1.4571  3.6664
  178SLPC   H3S20297   3.477   4.512  10.095 -0.4579  0.4904  0.2898
  178SLPC   C2420298   3.645   4.478   9.964  0.3676  0.1040 -0.4106
  178SLPC   H4R20299   3.685   4.383  10.006 -0.0595  0.3420  0.5543
  178SLPC   H4S20300   3.734   4.536   9.932 -0.4757  1.3424 -0.5609
  178SLPC   C2520301   3.562   4.429   9.847 -0.3802  0.5176 -0.3122
  178SLPC   H5R20302   3.513   4.519   9.804 -2.3860  0.0702  0.9236
  178SLPC   H5S20303   3.489   4.355   9.886 -0.0044 -0.0642 -0.6955
  178SLPC   C2620304   3.641   4.368   9.736  0.2336  0.4451  0.0969
  178SLPC   H6R20305   3.679   4.272   9.779  2.1403  2.2677  2.7930
  178SLPC   H6S20306   3.732   4.426   9.711  1.1216 -0.9473  0.0011
  178SLPC   C2720307   3.550   4.348   9.612 -0.1454  0.3653 -0.4545
  178SLPC   H7R20308   3.495   4.444   9.597  1.6128  1.5306  0.2881
  178SLPC   H7S20309   3.472   4.275   9.643 -1.5890  2.7273  1.9634
  178SLPC   C2820310   3.626   4.306   9.486  1.2157 -0.3771  0.6112
  178SLPC   H8R20311   3.684   4.399   9.468 -1.7480  1.7281  1.1305
  178SLPC   H8S20312   3.548   4.291   9.407  0.5973  0.8395  0.9696
  178SLPC   C2920313   3.718   4.192   9.483  0.8226 -0.2257 -0.1056
  178SLPC   H9R20314   3.715   4.128   9.572 -1.0188 -1.1488 -0.7708
  178SLPC  C21020315   3.806   4.171   9.386 -0.1039  0.0170  0.8498
  178SLPC  H10R20316   3.869   4.081   9.394  1.8200  1.1422 -0.8389
  178SLPC  C21120317   3.827   4.256   9.264 -0.6147 -0.4452  0.1680
  178SLPC  H11R20318   3.732   4.304   9.232 -0.6584 -0.5019  0.2114
  178SLPC  H11S20319   3.836   4.184   9.179 -1.7133 -0.6347  0.1920
  178SLPC  C21220320   3.956   4.333   9.267  0.0329  0.4855  0.4927
  178SLPC  H12R20321   3.984   4.350   9.372 -1.3982 -0.4776  1.0659
  178SLPC  C21320322   4.033   4.371   9.162 -0.1169 -0.5480 -0.4153
  178SLPC  H13R20323   4.134   4.410   9.182  0.1722 -0.8383 -1.2449
  178SLPC  C21420324   4.007   4.346   9.018  0.3212 -0.5959  0.3545
  178SLPC  H14R20325   3.908   4.300   8.999 -0.7026  2.1023 -1.3557
  178SLPC  H14S20326   4.096   4.288   8.985  0.8116  1.1197 -1.5162
  178SLPC  C21520327   3.998   4.481   8.944 -0.2511 -0.5179  0.0060
  178SLPC  H15R20328   3.978   4.470   8.835 -3.6036 -1.3791  0.5957
  178SLPC  H15S20329   4.091   4.541   8.946 -0.8022  0.5204 -2.3532
  178SLPC  C21620330   3.892   4.577   9.003 -0.1651 -1.4105  0.2848
  178SLPC  H16R20331   3.904   4.677   8.955 -2.0071 -0.4474  1.6812
  178SLPC  H16S20332   3.900   4.595   9.112  1.8711 -0.4046  0.0096
  178SLPC  C21720333   3.759   4.512   8.979  0.4432  0.0217 -0.3157
  178SLPC  H17R20334   3.751   4.432   9.055 -0.5738 -0.6840 -1.1404
  178SLPC  H17S20335   3.763   4.467   8.877  0.0911 -2.3839  0.6772
  178SLPC  C21820336   3.648   4.614   8.991  0.5782 -0.0070  0.4269
  178SLPC  H18R20337   3.657   4.668   9.088  0.2627  2.2325 -0.7176
  178SLPC  H18S20338   3.548   4.574   8.964 -0.4631  2.2494  0.6315
  178SLPC  H18T20339   3.669   4.687   8.909 -1.9511 -0.2097 -0.4844
  178SLPC   C3320340   3.483   5.196  10.385 -0.2832  0.7364  0.9086
  178SLPC   H3X20341   3.510   5.239  10.484  0.5449 -2.0305  1.9859
  178SLPC   H3Y20342   3.388   5.144  10.413 -0.0623 -1.6988 -2.3370
  178SLPC   C3420343   3.462   5.310  10.284 -0.1669  0.0819 -0.0323
  178SLPC   H4X20344   3.567   5.341  10.271  0.5785 -1.8773  0.9403
  178SLPC   H4Y20345   3.402   5.394  10.326 -0.7699  0.2702 -1.2259
  178SLPC   C3520346   3.403   5.258  10.154  0.3152 -0.5258 -0.4690
  178SLPC   H5X20347   3.301   5.215  10.168 -0.8784  1.7808 -1.5063
  178SLPC   H5Y20348   3.467   5.172  10.123  1.1469 -0.4964  1.1150
  178SLPC   C3620349   3.411   5.374  10.046  0.7503 -0.4838  0.7975
  178SLPC   H6X20350   3.516   5.403  10.027  0.7345  0.3336  1.8558
  178SLPC   H6Y20351   3.362   5.453  10.107 -0.0574 -0.8988  0.7091
  178SLPC   C3720352   3.330   5.363   9.923  0.6463 -0.5337 -0.1551
  178SLPC   H7X20353   3.334   5.456   9.863 -2.0657 -0.7403 -0.7459
  178SLPC   H7Y20354   3.223   5.342   9.943 -0.0685  2.1901 -0.6637
  178SLPC   C3820355   3.385   5.252   9.833 -0.4410  0.4248 -0.3436
  178SLPC   H8X20356   3.361   5.150   9.870  0.6420  0.4062  0.3492
  178SLPC   H8Y20357   3.496   5.259   9.829 -0.4335 -0.1750 -1.5967
  178SLPC   C3920358   3.340   5.273   9.687 -0.4769 -0.9577 -0.0556
  178SLPC   H9X20359   3.389   5.361   9.639 -2.8311 -0.0074 -0.8464
  178SLPC   H9Y20360   3.232   5.295   9.677 -0.2855 -0.9088 -3.1305
  178SLPC  C31020361   3.386   5.162   9.597 -0.2795 -0.7506  0.7366
  178SLPC  H10X20362   3.359   5.057   9.622 -0.9818 -1.7735 -3.5298
  178SLPC  H10Y20363   3.495   5.181   9.611 -0.6370  0.7034  1.6930
  178SLPC  C31120364   3.336   5.190   9.449  0.1164  0.0310  0.2548
  178SLPC  H11X20365   3.377   5.283   9.406 -1.9292  0.5382 -0.7397
  178SLPC  H11Y20366   3.225   5.201   9.451  0.1306  0.0738  1.0590
  178SLPC  C31220367   3.380   5.073   9.353 -0.1972  0.2332 -0.5632
  178SLPC  H12X20368   3.319   4.986   9.384  0.5505 -1.1528 -2.7524
  178SLPC  H12Y20369   3.483   5.047   9.386 -1.0792  0.0597  2.2352
  178SLPC  C31320370   3.375   5.115   9.205  0.1977  0.8915 -0.5308
  178SLPC  H13X20371   3.436   5.200   9.169  0.7243 -0.1508 -2.2421
  178SLPC  H13Y20372   3.266   5.136   9.204 -0.8106 -2.8550  3.0622
  178SLPC  C31420373   3.406   4.994   9.108 -0.1216 -0.5700  0.0281
  178SLPC  H14X20374   3.384   4.898   9.159  3.6536 -1.9858 -0.6493
  178SLPC  H14Y20375   3.517   4.993   9.100 -0.0823  0.0352  0.3994
  178SLPC  C31520376   3.343   5.002   8.969 -0.4221  0.1490  0.2990
  178SLPC  H15X20377   3.246   5.056   8.983 -0.5930  0.7938 -2.7273
  178SLPC  H15Y20378   3.402   5.070   8.904 -0.7554 -0.8381 -1.0844
  178SLPC  C31620379   3.314   4.863   8.905  0.1189 -0.3119  0.5764
  178SLPC  H16X20380   3.237   4.816   8.970 -0.3554  1.0110  0.9956
  178SLPC  H16Y20381   3.403   4.796   8.917 -0.1422 -0.2513  4.0178
  178SLPC  C31720382   3.272   4.853   8.758  0.1907 -0.3776  0.6398
  178SLPC  H17X20383   3.180   4.913   8.742  2.1903  2.7675 -0.0571
  178SLPC  H17Y20384   3.251   4.752   8.718  0.3380 -0.8345  1.6796
  178SLPC  C31820385   3.382   4.923   8.676 -0.5761  0.1210 -0.1984
  178SLPC  H18X20386   3.483   4.886   8.703  0.8346  2.2731 -2.1215
  178SLPC  H18Y20387   3.384   5.033   8.688 -2.1497  0.1203  0.1869
  178SLPC  H18Z20388   3.364   4.901   8.568  1.8778  2.0262 -1.1030
  179SLPC     N20389   6.634   2.251  10.759 -0.3031 -0.1544 -0.5085
  179SLPC   C1320390   6.688   2.237  10.903  0.2612 -0.5717 -0.2003
  179SLPC  H13A20391   6.753   2.319  10.930  0.6592 -0.3362 -1.7492
  179SLPC  H13B20392   6.605   2.252  10.971 -0.5177 -0.6489 -1.1111
  179SLPC  H13C20393   6.744   2.145  10.913 -0.9512 -1.1265  2.1079
  179SLPC   C1420394   6.756   2.260  10.671 -0.4067  0.3651 -0.9121
  179SLPC  H14A20395   6.806   2.166  10.658  0.3688  0.4127  1.2566
  179SLPC  H14B20396   6.740   2.298  10.571  3.6286  4.2857 -0.3982
  179SLPC  H14C20397   6.823   2.328  10.723  0.3882 -2.6685  2.4479
  179SLPC   C1520398   6.554   2.374  10.752  0.4444  0.3015 -0.7970
  179SLPC  H15A20399   6.600   2.465  10.787 -1.0030  1.2105 -1.1647
  179SLPC  H15B20400   6.520   2.389  10.650  0.1481  1.2570 -0.5722
  179SLPC  H15C20401   6.469   2.362  10.818 -1.1053 -0.5266 -2.8295
  179SLPC   C1220402   6.543   2.132  10.718 -0.4575  0.0196 -0.7247
  179SLPC  H12A20403   6.481   2.118  10.806  0.1229 -2.5280 -0.6434
  179SLPC  H12B20404   6.605   2.043  10.713 -0.3214  0.0505  0.2413
  179SLPC   C1120405   6.457   2.135  10.593 -1.1106 -0.5877 -0.5422
  179SLPC  H11A20406   6.407   2.038  10.571 -2.0423  0.0640 -1.4183
  179SLPC  H11B20407   6.523   2.148  10.505 -0.0161  1.2187  0.4740
  179SLPC     P20408   6.287   2.305  10.475 -0.3011  0.5634  0.1838
  179SLPC   O1320409   6.179   2.386  10.528  0.2687 -0.0353  0.6196
  179SLPC   O1420410   6.391   2.369  10.386  0.7559  0.7750 -0.2664
  179SLPC   O1220411   6.353   2.235  10.596  0.2380 -0.0417 -0.0132
  179SLPC   O1120412   6.215   2.187  10.398 -0.3536 -0.3719 -0.0853
  179SLPC    C120413   6.140   2.083  10.470 -0.4963 -1.7115 -0.0165
  179SLPC    HA20414   6.204   2.000  10.508  2.3593 -0.2656 -1.3792
  179SLPC    HB20415   6.094   2.124  10.562  1.9915 -1.6532  1.2913
  179SLPC    C220416   6.019   2.036  10.384 -0.1289 -0.6226  0.9219
  179SLPC    HS20417   5.961   1.972  10.454 -3.3734  1.5619  0.5047
  179SLPC   O2120418   6.076   1.971  10.269  1.0905  0.3051  0.2071
  179SLPC   C2120419   6.012   1.862  10.243  0.4466 -0.0221  0.5597
  179SLPC   O2220420   5.908   1.827  10.296  0.4401  0.7727 -0.5838
  179SLPC   C2220421   6.084   1.782  10.141  0.2791  0.5535  0.3562
  179SLPC   H2R20422   6.116   1.847  10.056 -1.2197  0.6422 -0.1700
  179SLPC   H2S20423   6.175   1.747  10.195 -1.2025 -0.2042  2.4531
  179SLPC    C320424   5.929   2.156  10.336 -0.2300  0.5280 -0.2438
  179SLPC    HX20425   5.988   2.220  10.268  3.1397  0.0688  2.0368
  179SLPC    HY20426   5.923   2.216  10.429 -0.8217 -0.9334  0.7076
  179SLPC   O3120427   5.794   2.128  10.290  1.1780 -0.1339 -0.8149
  179SLPC   C3120428   5.780   2.088  10.168 -0.0818  0.2430  0.5163
  179SLPC   O3220429   5.877   2.082  10.095  0.3186 -0.7733 -0.3510
  179SLPC   C3220430   5.637   2.061  10.123  0.2473 -0.2407 -0.2370
  179SLPC   H2X20431   5.568   2.108  10.197  1.3293 -1.7586  1.8486
  179SLPC   H2Y20432   5.628   1.951  10.121  1.3457 -0.3593  0.3869
  179SLPC   C2320433   5.999   1.663  10.079 -0.6374  0.9427  0.5050
  179SLPC   H3R20434   5.918   1.711  10.019  1.1227  1.1978 -1.7786
  179SLPC   H3S20435   5.970   1.591  10.159 -0.3479 -1.6879 -1.6348
  179SLPC   C2420436   6.079   1.585   9.971 -0.7686 -0.0718  0.0579
  179SLPC   H4R20437   6.142   1.512  10.027 -0.7515  0.5539  0.8669
  179SLPC   H4S20438   6.128   1.658   9.903 -0.5482  0.9005  1.2313
  179SLPC   C2520439   5.992   1.495   9.881  0.2394 -0.0144  0.3164
  179SLPC   H5R20440   5.930   1.427   9.943  1.5801 -1.2184  0.3881
  179SLPC   H5S20441   6.071   1.432   9.834  0.4268  0.3456  0.1435
  179SLPC   C2620442   5.912   1.570   9.775  0.3804 -0.3956 -0.5261
  179SLPC   H6R20443   5.990   1.627   9.721  0.9239 -0.0387  0.5969
  179SLPC   H6S20444   5.837   1.642   9.815  0.4695  1.2455 -3.0826
  179SLPC   C2720445   5.829   1.489   9.665 -0.7947 -0.4588  0.3553
  179SLPC   H7R20446   5.749   1.426   9.709 -0.2933  0.4940  2.8324
  179SLPC   H7S20447   5.906   1.422   9.622  0.1997  1.4082 -0.9057
  179SLPC   C2820448   5.761   1.579   9.558  0.4028 -0.4106  0.1235
  179SLPC   H8R20449   5.702   1.642   9.628  0.6360 -0.2190  0.1461
  179SLPC   H8S20450   5.695   1.515   9.494 -0.6252  0.2148  0.5286
  179SLPC   C2920451   5.842   1.668   9.461  0.0307 -0.7135 -0.2486
  179SLPC   H9R20452   5.910   1.740   9.509 -1.4039  0.3681  0.2143
  179SLPC  C21020453   5.847   1.640   9.328  0.7529  0.0679  0.0639
  179SLPC  H10R20454   5.891   1.726   9.276  0.9219  1.2444  2.0444
  179SLPC  C21120455   5.779   1.527   9.253  0.3481  0.8159  0.1223
  179SLPC  H11R20456   5.676   1.566   9.237 -0.1047 -0.6833 -0.9049
  179SLPC  H11S20457   5.760   1.440   9.320 -0.7754  0.5898 -0.4644
  179SLPC  C21220458   5.845   1.493   9.118  0.3719  0.0584 -0.0916
  179SLPC  H12R20459   5.920   1.413   9.128 -0.9208 -1.0479  1.1338
  179SLPC  C21320460   5.842   1.556   9.000  0.7070 -0.4498  0.4129
  179SLPC  H13R20461   5.903   1.515   8.919 -0.1296  1.2506 -1.1625
  179SLPC  C21420462   5.756   1.679   8.976  0.5983  0.4659  0.0060
  179SLPC  H14R20463   5.811   1.774   8.957  0.5313  0.8168  1.4502
  179SLPC  H14S20464   5.680   1.718   9.047 -0.1818 -1.1217  0.0838
  179SLPC  C21520465   5.691   1.663   8.843  0.8050 -0.2022  0.4325
  179SLPC  H15R20466   5.615   1.582   8.844  0.2548  0.2113 -1.8786
  179SLPC  H15S20467   5.761   1.627   8.765  2.8091  2.0232  1.0810
  179SLPC  C21620468   5.621   1.795   8.784  0.8205  0.8749 -0.3102
  179SLPC  H16R20469   5.692   1.880   8.777  1.2622  0.4831 -0.5911
  179SLPC  H16S20470   5.544   1.823   8.859  1.1158 -2.5113  1.4587
  179SLPC  C21720471   5.570   1.772   8.637  0.1857  0.2033 -0.6393
  179SLPC  H17R20472   5.488   1.841   8.609  0.9564  1.3800 -0.0716
  179SLPC  H17S20473   5.523   1.671   8.633 -1.0930  0.7817 -0.4974
  179SLPC  C21820474   5.675   1.801   8.528 -0.8502 -0.5792 -0.2796
  179SLPC  H18R20475   5.767   1.744   8.553 -1.6724 -2.9921 -2.3381
  179SLPC  H18S20476   5.697   1.910   8.531 -1.4444 -0.4392  3.1997
  179SLPC  H18T20477   5.641   1.784   8.424 -3.0157 -2.2448  0.6011
  179SLPC   C3320478   5.594   2.121   9.985  0.8220  0.0758  0.1528
  179SLPC   H3X20479   5.500   2.066   9.962  0.4302  1.6242 -2.4020
  179SLPC   H3Y20480   5.650   2.099   9.892 -0.5161 -1.8113 -0.2669
  179SLPC   C3420481   5.559   2.271   9.984 -0.3908 -0.3321  0.5301
  179SLPC   H4X20482   5.652   2.331   9.987 -1.5328  1.5946 -0.6132
  179SLPC   H4Y20483   5.498   2.292  10.074 -0.9830  0.1171  0.0285
  179SLPC   C3520484   5.472   2.304   9.858 -0.1804 -0.3178  0.1996
  179SLPC   H5X20485   5.440   2.410   9.857  3.2628  0.8349 -0.8173
  179SLPC   H5Y20486   5.390   2.229   9.854  1.4928 -2.2723  0.8312
  179SLPC   C3620487   5.544   2.302   9.726 -0.3844  0.3198  0.3862
  179SLPC   H6X20488   5.592   2.206   9.698 -1.0349  0.3779 -1.0190
  179SLPC   H6Y20489   5.633   2.368   9.730 -0.5206  0.4679  1.1558
  179SLPC   C3720490   5.447   2.354   9.615  0.6724 -0.5663  0.1829
  179SLPC   H7X20491   5.394   2.451   9.623  1.1364 -0.2156 -0.7989
  179SLPC   H7Y20492   5.361   2.283   9.609 -1.1491  1.6151 -1.0718
  179SLPC   C3820493   5.521   2.366   9.475  0.1564  0.1477 -0.1890
  179SLPC   H8X20494   5.545   2.260   9.454  1.8178  0.3070  0.7012
  179SLPC   H8Y20495   5.623   2.404   9.497 -0.0304 -0.7714  2.6757
  179SLPC   C3920496   5.444   2.444   9.372 -0.3950  0.0909  0.1041
  179SLPC   H9X20497   5.456   2.554   9.382 -1.2063  0.1702  0.2711
  179SLPC   H9Y20498   5.340   2.423   9.403  0.6624 -1.2823  3.1309
  179SLPC  C31020499   5.474   2.417   9.223  0.2734  0.1573  0.3284
  179SLPC  H10X20500   5.568   2.473   9.203 -0.3554  0.5533 -1.8357
  179SLPC  H10Y20501   5.392   2.472   9.171 -0.8978 -0.4569  1.4564
  179SLPC  C31120502   5.469   2.272   9.179 -0.1671  0.1711 -0.2923
  179SLPC  H11X20503   5.370   2.221   9.180  0.0605 -0.3033  1.5112
  179SLPC  H11Y20504   5.526   2.193   9.232 -3.4386 -1.4103  1.2201
  179SLPC  C31220505   5.505   2.260   9.028  1.2180 -0.5652 -0.2699
  179SLPC  H12X20506   5.612   2.283   9.009  1.1520  0.7886  0.8019
  179SLPC  H12Y20507   5.441   2.334   8.974  0.5803  0.5337  1.8687
  179SLPC  C31320508   5.471   2.127   8.958  0.1244 -0.1031 -0.0204
  179SLPC  H13X20509   5.368   2.089   8.978  0.1233 -0.4039 -0.5866
  179SLPC  H13Y20510   5.544   2.046   8.980  1.5419  1.1286 -0.0571
  179SLPC  C31420511   5.469   2.148   8.802  0.4502  0.0305 -0.1155
  179SLPC  H14X20512   5.381   2.206   8.767  1.1025  0.2395 -1.4616
  179SLPC  H14Y20513   5.451   2.044   8.767  2.4000 -0.4300  0.1152
  179SLPC  C31520514   5.594   2.216   8.741 -0.1118  0.4088 -0.0595
  179SLPC  H15X20515   5.680   2.157   8.780  1.2538  0.0082 -3.3357
  179SLPC  H15Y20516   5.600   2.323   8.771 -1.1149  0.5083 -0.1773
  179SLPC  C31620517   5.598   2.204   8.585 -0.1668 -0.5317  0.2181
  179SLPC  H16X20518   5.512   2.255   8.536  1.2198  0.5776 -1.1650
  179SLPC  H16Y20519   5.598   2.095   8.563 -2.1358 -1.1870  2.9375
  179SLPC  C31720520   5.737   2.252   8.519 -0.2512  0.8497 -0.4293
  179SLPC  H17X20521   5.812   2.199   8.582 -1.0042 -2.0732 -1.7835
  179SLPC  H17Y20522   5.747   2.362   8.523 -0.7476  0.8737  0.2098
  179SLPC  C31820523   5.741   2.206   8.369  0.2437 -0.0246  0.1756
  179SLPC  H18X20524   5.834   2.235   8.315  1.3252 -1.6902  1.0541
  179SLPC  H18Y20525   5.657   2.244   8.307  0.0490 -1.4365 -0.4559
  179SLPC  H18Z20526   5.733   2.096   8.360  1.1316 -0.2891  2.0246
  180SLPC     N20527   5.024   5.007  10.560  0.0059  0.2846 -0.2774
  180SLPC   C1320528   5.005   5.155  10.580 -0.2285  0.3663  0.4413
  180SLPC  H13A20529   5.063   5.194  10.661 -0.7752  0.1450  0.9503
  180SLPC  H13B20530   5.035   5.213  10.494  2.3873  0.7350  1.5307
  180SLPC  H13C20531   4.899   5.173  10.590 -0.3459 -0.3657  0.5692
  180SLPC   C1420532   4.984   4.926  10.685 -0.0545 -0.0136  0.4832
  180SLPC  H14A20533   4.978   4.821  10.661 -1.8145  0.3520 -0.8790
  180SLPC  H14B20534   5.050   4.942  10.769 -0.1359 -1.1032  0.7752
  180SLPC  H14C20535   4.886   4.958  10.718 -0.0915 -2.1176  2.6994
  180SLPC   C1520536   5.164   4.966  10.529  0.1215 -0.2322  0.4729
  180SLPC  H15A20537   5.229   5.005  10.607  0.5359  1.2950 -0.5774
  180SLPC  H15B20538   5.169   4.859  10.538  0.2921 -0.3961 -1.2725
  180SLPC  H15C20539   5.193   5.002  10.431 -1.0903  0.2187  0.2570
  180SLPC   C1220540   4.930   4.960  10.454  0.1055 -0.3230 -0.5935
  180SLPC  H12A20541   4.946   5.022  10.367  1.1665  0.0259 -0.1649
  180SLPC  H12B20542   4.827   4.969  10.487 -1.2240 -2.5517 -3.6457
  180SLPC   C1120543   4.938   4.811  10.401 -0.0966 -0.5179  0.1169
  180SLPC  H11A20544   5.043   4.801  10.366  0.4616  0.0724  1.5417
  180SLPC  H11B20545   4.871   4.799  10.314  0.5926 -0.7924 -0.3890
  180SLPC     P20546   4.754   4.692  10.536  0.1513 -0.1520  0.0518
  180SLPC   O1320547   4.730   4.604  10.651 -0.5389 -0.3881 -0.7387
  180SLPC   O1420548   4.697   4.829  10.549 -0.5627  0.2660 -0.2197
  180SLPC   O1220549   4.906   4.708  10.495  0.1262  0.3479 -0.2417
  180SLPC   O1120550   4.686   4.625  10.410  0.4367  0.6528  0.2700
  180SLPC    C120551   4.730   4.497  10.343  0.4871 -0.5672 -0.9148
  180SLPC    HA20552   4.791   4.438  10.414  0.7794 -0.4288 -1.0459
  180SLPC    HB20553   4.643   4.433  10.315 -0.1578  0.0328 -0.3293
  180SLPC    C220554   4.813   4.514  10.217  0.8119 -0.3458  0.5675
  180SLPC    HS20555   4.898   4.577  10.251 -0.0247  2.3113 -1.8637
  180SLPC   O2120556   4.730   4.576  10.119 -0.0980 -0.2114  0.1062
  180SLPC   C2120557   4.798   4.668  10.046 -0.0217 -0.3519  0.3393
  180SLPC   O2220558   4.905   4.712  10.079 -0.3501 -0.5389  0.8565
  180SLPC   C2220559   4.720   4.704   9.918  0.0537  0.1509 -0.2246
  180SLPC   H2R20560   4.705   4.611   9.859  1.3573 -1.6805  2.1930
  180SLPC   H2S20561   4.621   4.736   9.957 -0.5149 -1.0786 -0.5975
  180SLPC    C320562   4.862   4.376  10.159  0.4091  0.6197  0.0751
  180SLPC    HX20563   4.763   4.326  10.145  0.5628 -0.2353  1.7688
  180SLPC    HY20564   4.912   4.317  10.239 -2.2070 -0.0232  1.3822
  180SLPC   O3120565   4.939   4.381  10.040 -0.1445  0.5485  0.0795
  180SLPC   C3120566   5.075   4.398  10.058 -0.0785  1.1142 -0.3427
  180SLPC   O3220567   5.132   4.410  10.162  0.6252 -0.5115  0.1041
  180SLPC   C3220568   5.145   4.394   9.922  0.3107 -0.3175 -0.5947
  180SLPC   H2X20569   5.088   4.314   9.870 -2.1392  1.0625 -0.2222
  180SLPC   H2Y20570   5.251   4.363   9.933  0.2465  0.2368  2.1120
  180SLPC   C2320571   4.792   4.809   9.831 -0.5162 -0.0743 -0.0799
  180SLPC   H3R20572   4.882   4.754   9.795 -1.4815 -1.8526  0.1325
  180SLPC   H3S20573   4.821   4.906   9.876 -1.7998  0.0809  0.4618
  180SLPC   C2420574   4.695   4.853   9.716 -0.4885  0.8135 -0.5623
  180SLPC   H4R20575   4.604   4.904   9.755  0.3641  0.3139  2.3479
  180SLPC   H4S20576   4.656   4.756   9.680 -1.0172  1.2719 -1.2461
  180SLPC   C2520577   4.760   4.947   9.611  0.3822 -0.9020  0.0027
  180SLPC   H5R20578   4.862   4.913   9.584  0.9031  1.4440 -1.2636
  180SLPC   H5S20579   4.765   5.051   9.649  1.5230  0.3529 -3.2091
  180SLPC   C2620580   4.675   4.960   9.486  0.0310 -0.0146  0.3434
  180SLPC   H6R20581   4.586   5.021   9.513  0.8883  0.7134  1.6621
  180SLPC   H6S20582   4.638   4.860   9.457  0.3766  0.2607 -1.1568
  180SLPC   C2720583   4.740   5.023   9.364 -0.5655 -0.2474 -0.0826
  180SLPC   H7R20584   4.764   5.129   9.384  0.6206 -0.3394 -0.9247
  180SLPC   H7S20585   4.660   5.019   9.287 -3.1009 -0.7160  2.3878
  180SLPC   C2820586   4.872   4.952   9.313 -0.1194  0.6890  0.7576
  180SLPC   H8R20587   4.939   4.931   9.399  0.8746  1.7826  0.2881
  180SLPC   H8S20588   4.937   5.025   9.260 -0.0920 -0.1205 -0.3633
  180SLPC   C2920589   4.860   4.822   9.238 -0.0815 -0.2956 -0.3947
  180SLPC   H9R20590   4.863   4.732   9.301  5.7903 -0.2578 -0.0624
  180SLPC  C21020591   4.827   4.809   9.110  0.4001 -0.1439 -0.9630
  180SLPC  H10R20592   4.807   4.713   9.060 -1.3099  0.2680 -1.1346
  180SLPC  C21120593   4.806   4.928   9.019  0.2861  1.0545 -0.3934
  180SLPC  H11R20594   4.842   5.024   9.063 -0.9457  1.4575 -0.2094
  180SLPC  H11S20595   4.699   4.941   8.991  0.2038  0.7916 -0.1975
  180SLPC  C21220596   4.884   4.907   8.890  0.3563 -0.4984 -1.3155
  180SLPC  H12R20597   4.950   4.820   8.898 -0.8636 -1.2705  1.4280
  180SLPC  C21320598   4.883   4.997   8.787  0.7549  0.5022  0.4610
  180SLPC  H13R20599   4.938   4.972   8.695  0.1094  2.3582 -0.4700
  180SLPC  C21420600   4.799   5.122   8.772  0.5438  0.7238  0.4638
  180SLPC  H14R20601   4.845   5.197   8.704  0.0217 -0.3017 -1.0524
  180SLPC  H14S20602   4.767   5.177   8.864  0.5992  2.6561 -0.6182
  180SLPC  C21520603   4.656   5.086   8.709  0.1534  0.0789  0.0806
  180SLPC  H15R20604   4.616   4.993   8.756  0.4787  0.9023  2.0821
  180SLPC  H15S20605   4.663   5.055   8.602 -1.0467  0.8696 -0.2536
  180SLPC  C21620606   4.555   5.196   8.724 -0.1121  0.0581 -0.1927
  180SLPC  H16R20607   4.595   5.291   8.683 -0.0884 -0.6062 -1.7853
  180SLPC  H16S20608   4.531   5.220   8.830 -1.7539  3.0325 -1.1002
  180SLPC  C21720609   4.441   5.158   8.631  0.3256  0.6170 -0.1759
  180SLPC  H17R20610   4.387   5.069   8.670 -0.8484  1.7081  0.7623
  180SLPC  H17S20611   4.482   5.127   8.532 -1.0824 -0.9271 -0.3162
  180SLPC  C21820612   4.330   5.259   8.598 -0.4183 -0.3061  0.1383
  180SLPC  H18R20613   4.249   5.255   8.674 -0.8335 -1.0087 -0.3278
  180SLPC  H18S20614   4.289   5.254   8.495  0.8008 -1.4995 -0.3154
  180SLPC  H18T20615   4.375   5.359   8.617 -0.3475 -0.2308 -0.4330
  180SLPC   C3320616   5.134   4.525   9.841  0.2003  0.3027 -0.6659
  180SLPC   H3X20617   5.201   4.602   9.886  1.6387 -1.5700  0.5155
  180SLPC   H3Y20618   5.036   4.577   9.834 -0.6624 -1.1960 -0.1614
  180SLPC   C3420619   5.177   4.505   9.694  0.5578 -0.5680  0.0722
  180SLPC   H4X20620   5.136   4.414   9.646  0.1282 -0.6310  0.5569
  180SLPC   H4Y20621   5.288   4.493   9.694  1.0233  2.7648  0.8808
  180SLPC   C3520622   5.147   4.627   9.602  0.6498  1.0126  0.5442
  180SLPC   H5X20623   5.186   4.723   9.643  1.6440 -0.0475  2.1634
  180SLPC   H5Y20624   5.037   4.635   9.587  0.0286 -3.0848  1.8883
  180SLPC   C3620625   5.207   4.610   9.460  0.2822  0.1706 -0.1459
  180SLPC   H6X20626   5.144   4.534   9.407 -0.0592  0.9598 -0.8895
  180SLPC   H6Y20627   5.309   4.567   9.466 -0.0727 -0.5347  1.3468
  180SLPC   C3720628   5.215   4.733   9.366  0.6191  0.6585 -0.1002
  180SLPC   H7X20629   5.282   4.816   9.396 -0.0334  1.6588 -1.3070
  180SLPC   H7Y20630   5.112   4.775   9.357 -0.7286 -2.3175  0.2309
  180SLPC   C3820631   5.259   4.679   9.230  0.2603 -0.1662  0.0291
  180SLPC   H8X20632   5.203   4.589   9.198  2.1287 -2.1155  1.9193
  180SLPC   H8Y20633   5.363   4.653   9.257  0.5399  0.8664  0.0050
  180SLPC   C3920634   5.254   4.774   9.105 -0.4748  0.2882  0.1034
  180SLPC   H9X20635   5.288   4.879   9.120  0.9919  0.0084 -0.9579
  180SLPC   H9Y20636   5.150   4.778   9.066 -0.7739 -0.0848  0.8602
  180SLPC  C31020637   5.357   4.729   8.990 -0.4858 -0.1378 -0.0009
  180SLPC  H10X20638   5.340   4.620   8.974 -0.2643 -0.5326  2.1425
  180SLPC  H10Y20639   5.456   4.749   9.034 -0.0769  0.0616 -0.9813
  180SLPC  C31120640   5.334   4.807   8.860  0.4751 -0.6019 -0.1131
  180SLPC  H11X20641   5.324   4.915   8.885 -0.5255 -0.9278  0.9757
  180SLPC  H11Y20642   5.241   4.770   8.811  0.4895  0.8374 -1.3049
  180SLPC  C31220643   5.441   4.784   8.752 -0.2093  0.4807  0.1409
  180SLPC  H12X20644   5.436   4.673   8.743 -2.4072  0.5900 -0.4383
  180SLPC  H12Y20645   5.545   4.813   8.781 -0.0548 -1.1597  1.3900
  180SLPC  C31320646   5.402   4.846   8.615  0.7659 -0.5098  0.0098
  180SLPC  H13X20647   5.408   4.957   8.617 -1.0471 -0.3860  1.1849
  180SLPC  H13Y20648   5.300   4.812   8.587  1.0550 -1.3892 -0.0182
  180SLPC  C31420649   5.496   4.802   8.503  0.1030 -0.5347 -1.1641
  180SLPC  H14X20650   5.596   4.841   8.530 -0.4252  2.1396 -2.6639
  180SLPC  H14Y20651   5.467   4.863   8.414 -0.0001  2.6303  0.8787
  180SLPC  C31520652   5.502   4.652   8.472 -0.4411  0.0763  0.0492
  180SLPC  H15X20653   5.398   4.614   8.465  0.2815 -2.8536  2.7977
  180SLPC  H15Y20654   5.554   4.583   8.541  1.3257 -0.8426 -2.0633
  180SLPC  C31620655   5.564   4.633   8.333 -0.3820  0.4133 -0.6204
  180SLPC  H16X20656   5.502   4.688   8.259  0.9964  0.4667 -1.7986
  180SLPC  H16Y20657   5.561   4.525   8.308  1.6819  0.1413  0.1402
  180SLPC  C31720658   5.706   4.672   8.322 -0.1638 -0.5411  0.1577
  180SLPC  H17X20659   5.768   4.597   8.377  1.4113 -0.1780 -1.0309
  180SLPC  H17Y20660   5.721   4.768   8.376  0.7437 -0.3168 -0.4690
  180SLPC  C31820661   5.760   4.672   8.178  0.5418  0.2977 -0.5340
  180SLPC  H18X20662   5.723   4.580   8.127  0.2723 -0.9737  1.7977
  180SLPC  H18Y20663   5.870   4.658   8.187  0.8171 -0.1991 -3.4929
  180SLPC  H18Z20664   5.740   4.768   8.127 -0.2013  1.5533  1.9651
  181SLPC     N20665   4.274   3.563  10.672  0.2846  0.7886 -0.5938
  181SLPC   C1320666   4.220   3.614  10.804 -0.3450 -0.4436 -0.2173
  181SLPC  H13A20667   4.241   3.720  10.804  0.0940 -0.4971  1.4849
  181SLPC  H13B20668   4.115   3.599  10.828  0.0033 -0.5740  1.3698
  181SLPC  H13C20669   4.278   3.569  10.884 -1.4059 -1.5134 -0.0219
  181SLPC   C1420670   4.251   3.422  10.676 -0.1928 -0.3526 -0.0784
  181SLPC  H14A20671   4.145   3.405  10.680 -0.1764 -1.2258 -2.2763
  181SLPC  H14B20672   4.278   3.372  10.584 -2.1054 -3.3691  0.8623
  181SLPC  H14C20673   4.293   3.375  10.764  1.7550  2.0366  0.4022
  181SLPC   C1520674   4.422   3.573  10.683  0.3050  0.0598  0.5039
  181SLPC  H15A20675   4.458   3.675  10.690 -0.6610  0.5712 -1.3818
  181SLPC  H15B20676   4.463   3.510  10.760  1.9593  0.1108 -0.2914
  181SLPC  H15C20677   4.465   3.539  10.590  1.4230  2.3870  0.0871
  181SLPC   C1220678   4.220   3.639  10.549 -0.7147 -0.0562 -0.1339
  181SLPC  H12A20679   4.113   3.627  10.551 -0.7911 -0.5681 -2.9264
  181SLPC  H12B20680   4.260   3.598  10.457  0.0432 -2.3725  1.1355
  181SLPC   C1120681   4.253   3.789  10.545  0.0232 -0.3257  1.1801
  181SLPC  H11A20682   4.234   3.824  10.442  1.7749 -0.8231  0.6547
  181SLPC  H11B20683   4.356   3.811  10.580 -0.9892  0.1889  4.1735
  181SLPC     P20684   4.035   3.922  10.589  0.2667 -0.2744 -0.3922
  181SLPC   O1320685   3.945   3.939  10.704  0.5672 -0.5481  0.1046
  181SLPC   O1420686   4.046   4.048  10.506 -0.0538 -0.7292  0.6009
  181SLPC   O1220687   4.169   3.867  10.632  0.5740 -0.1369 -0.2447
  181SLPC   O1120688   3.986   3.808  10.489 -0.1682 -0.0207  0.1134
  181SLPC    C120689   3.863   3.815  10.413  0.3291  0.6612  0.3790
  181SLPC    HA20690   3.771   3.793  10.471 -1.5717  1.0908 -2.2913
  181SLPC    HB20691   3.850   3.911  10.359 -2.8051 -0.8734 -1.9076
  181SLPC    C220692   3.861   3.696  10.304  0.0852  0.6747 -0.2000
  181SLPC    HS20693   3.783   3.719  10.228 -0.7093 -0.6780  0.1739
  181SLPC   O2120694   3.832   3.571  10.374  0.3766  0.0272 -0.3821
  181SLPC   C2120695   3.710   3.548  10.402  0.3449 -0.4285  0.2739
  181SLPC   O2220696   3.618   3.622  10.389  0.9809 -0.5040 -0.2141
  181SLPC   C2220697   3.690   3.402  10.431  0.0712 -0.5198  0.3212
  181SLPC   H2R20698   3.740   3.396  10.531  0.9879 -0.4587 -0.1247
  181SLPC   H2S20699   3.583   3.392  10.458  0.4024 -0.7068  1.6886
  181SLPC    C320700   4.004   3.690  10.238 -0.4777  0.3734  0.4681
  181SLPC    HX20701   4.072   3.625  10.297  0.8647  2.0095  0.7762
  181SLPC    HY20702   4.063   3.782  10.218  0.9584 -0.8185 -1.0772
  181SLPC   O3120703   3.983   3.639  10.104  0.8760 -0.6788 -0.2129
  181SLPC   C3120704   3.979   3.512  10.078 -0.4100  0.3376  0.4403
  181SLPC   O3220705   4.004   3.420  10.151 -0.3996 -0.0247  0.5222
  181SLPC   C3220706   3.917   3.498   9.935 -0.0651 -0.5457 -0.1787
  181SLPC   H2X20707   3.836   3.571   9.920  0.4833 -0.3455 -2.5426
  181SLPC   H2Y20708   3.877   3.395   9.951  0.3245 -0.8669 -1.1615
  181SLPC   C2320709   3.738   3.298  10.330 -0.0132  0.0499 -0.5986
  181SLPC   H3R20710   3.714   3.195  10.362  0.0371  0.6223  1.4094
  181SLPC   H3S20711   3.846   3.295  10.301  0.4922 -1.3624  1.2800
  181SLPC   C2420712   3.662   3.301  10.197 -0.7392 -0.3163 -0.1856
  181SLPC   H4R20713   3.699   3.392  10.146  1.0612 -1.0725 -0.3106
  181SLPC   H4S20714   3.552   3.305  10.213 -0.7896 -0.2633 -0.5428
  181SLPC   C2520715   3.711   3.185  10.105 -1.0249 -0.0669 -0.0290
  181SLPC   H5R20716   3.686   3.083  10.142  2.2235 -0.5107  1.2449
  181SLPC   H5S20717   3.821   3.177  10.101 -0.8191  2.0653  0.5935
  181SLPC   C2620718   3.659   3.197   9.964  0.2580 -0.7157  0.3777
  181SLPC   H6R20719   3.677   3.299   9.923  1.1482 -0.4504  1.3930
  181SLPC   H6S20720   3.551   3.175   9.961  0.2836 -0.7478 -0.5679
  181SLPC   C2720721   3.736   3.107   9.871  0.1500  0.3411  0.1559
  181SLPC   H7R20722   3.745   3.009   9.923  1.0543  0.8933  1.0702
  181SLPC   H7S20723   3.841   3.139   9.856  0.4146 -0.0213  1.2056
  181SLPC   C2820724   3.661   3.103   9.734 -0.0295  0.0181  0.3289
  181SLPC   H8R20725   3.659   3.209   9.702  0.1524  0.5848  2.0643
  181SLPC   H8S20726   3.558   3.067   9.756 -0.5260  1.0816 -0.1741
  181SLPC   C2920727   3.714   3.004   9.632  0.3102  0.4682 -0.1490
  181SLPC   H9R20728   3.764   2.918   9.679 -1.1027 -0.2558  0.0667
  181SLPC  C21020729   3.718   3.008   9.498  0.1787 -0.2080  0.1283
  181SLPC  H10R20730   3.760   2.930   9.432 -0.2632 -0.7450  0.4785
  181SLPC  C21120731   3.659   3.128   9.427  0.7890 -0.5305 -0.2715
  181SLPC  H11R20732   3.739   3.180   9.371  1.5321 -1.3445  0.0069
  181SLPC  H11S20733   3.616   3.204   9.496  0.6178 -0.8894  0.0251
  181SLPC  C21220734   3.554   3.079   9.328  0.1448  0.9925  0.2386
  181SLPC  H12R20735   3.555   2.972   9.299  0.6734  1.1865 -0.5124
  181SLPC  C21320736   3.463   3.169   9.279  0.1736  0.7001 -1.1049
  181SLPC  H13R20737   3.407   3.143   9.188 -0.7108  1.6881 -0.8637
  181SLPC  C21420738   3.449   3.317   9.317 -0.0432  0.0095 -0.6537
  181SLPC  H14R20739   3.446   3.376   9.223  0.1650  0.3536 -0.4451
  181SLPC  H14S20740   3.539   3.349   9.373  0.3999 -0.8263 -0.8767
  181SLPC  C21520741   3.317   3.363   9.390  0.6916  0.3906  0.0529
  181SLPC  H15R20742   3.237   3.371   9.313  2.3367  0.5840 -1.6883
  181SLPC  H15S20743   3.334   3.465   9.431  0.7083 -0.8792  3.5437
  181SLPC  C21620744   3.278   3.277   9.515 -0.0574  0.4746 -0.1549
  181SLPC  H16R20745   3.357   3.292   9.591  0.9878 -1.5480 -0.7752
  181SLPC  H16S20746   3.290   3.168   9.499  0.8616  0.7327 -1.3375
  181SLPC  C21720747   3.145   3.315   9.577 -0.1778  0.3572  0.2627
  181SLPC  H17R20748   3.103   3.236   9.642 -0.8547 -1.0627 -1.8068
  181SLPC  H17S20749   3.070   3.332   9.496  1.2477 -0.1041 -1.2021
  181SLPC  C21820750   3.148   3.441   9.665 -0.0711  0.5266  0.7832
  181SLPC  H18R20751   3.198   3.525   9.613  0.5625 -1.1808 -1.5218
  181SLPC  H18S20752   3.210   3.418   9.754  2.3888 -2.2137 -1.4288
  181SLPC  H18T20753   3.045   3.473   9.693  0.0358  1.3099  0.2943
  181SLPC   C3320754   4.017   3.488   9.824  0.0065 -0.8374 -0.1547
  181SLPC   H3X20755   4.098   3.417   9.849 -0.7963 -1.3324  1.1447
  181SLPC   H3Y20756   4.062   3.585   9.792  0.6309 -0.5774  1.4222
  181SLPC   C3420757   3.951   3.428   9.706 -0.2521  0.5248  0.4334
  181SLPC   H4X20758   3.862   3.488   9.677 -1.8705 -1.2654  1.4004
  181SLPC   H4Y20759   3.918   3.329   9.744  1.9297 -0.7165 -0.7139
  181SLPC   C3520760   4.039   3.399   9.581  0.0803 -0.0675  1.1057
  181SLPC   H5X20761   4.141   3.370   9.613 -0.0115 -0.5118  0.9965
  181SLPC   H5Y20762   4.043   3.500   9.535 -1.9329 -0.8103 -0.8540
  181SLPC   C3620763   3.972   3.288   9.501  0.1001 -0.0163 -0.0026
  181SLPC   H6X20764   3.866   3.321   9.497  0.3901  1.0600  0.7150
  181SLPC   H6Y20765   3.987   3.194   9.559 -4.1662 -1.3142 -0.6228
  181SLPC   C3720766   4.034   3.260   9.360 -0.0225  0.5715 -0.5912
  181SLPC   H7X20767   3.984   3.172   9.314  0.5374  0.3498 -0.7839
  181SLPC   H7Y20768   4.142   3.233   9.364 -0.5277 -1.4511  1.5070
  181SLPC   C3820769   4.014   3.377   9.259  0.1308  0.0655  0.1864
  181SLPC   H8X20770   4.100   3.368   9.189  0.1222  0.5598  0.1104
  181SLPC   H8Y20771   4.030   3.469   9.318 -0.7175  0.9684 -0.9546
  181SLPC   C3920772   3.876   3.379   9.197  0.5484 -0.1523  0.3283
  181SLPC   H9X20773   3.797   3.389   9.275  1.6686 -0.7452  1.5768
  181SLPC   H9Y20774   3.850   3.291   9.135 -0.2448  0.4172 -0.1821
  181SLPC  C31020775   3.870   3.500   9.098  0.3838  0.4584 -0.7688
  181SLPC  H10X20776   3.916   3.488   8.998 -2.4386  1.6422 -2.3288
  181SLPC  H10Y20777   3.914   3.588   9.149 -1.1319 -0.1550  1.7786
  181SLPC  C31120778   3.722   3.551   9.089 -0.3077  0.0963 -0.8077
  181SLPC  H11X20779   3.670   3.523   9.182  0.5163  0.3870 -0.2424
  181SLPC  H11Y20780   3.663   3.505   9.008 -2.3224  1.1362 -0.0034
  181SLPC  C31220781   3.704   3.701   9.071 -0.2853 -0.0822 -0.1653
  181SLPC  H12X20782   3.787   3.751   9.124  0.1501 -1.5955  0.6210
  181SLPC  H12Y20783   3.603   3.726   9.110 -0.3310 -1.6365  0.8024
  181SLPC  C31320784   3.705   3.743   8.924  0.0694 -0.0085  0.0328
  181SLPC  H13X20785   3.647   3.660   8.879  0.3384  0.5790 -1.4495
  181SLPC  H13Y20786   3.813   3.746   8.898 -0.4028  1.2667 -1.9628
  181SLPC  C31420787   3.638   3.873   8.894  0.3249  0.1268  0.9862
  181SLPC  H14X20788   3.534   3.870   8.934 -0.4880  1.1209 -0.9376
  181SLPC  H14Y20789   3.636   3.882   8.784  2.2920 -1.0747  0.8147
  181SLPC  C31520790   3.706   3.989   8.964  0.3341  0.0393 -0.1579
  181SLPC  H15X20791   3.809   3.995   8.923  0.7788 -3.0731  0.2363
  181SLPC  H15Y20792   3.714   3.968   9.073 -1.4024 -0.2139 -0.0561
  181SLPC  C31620793   3.630   4.123   8.962  0.8644  0.3841  0.2905
  181SLPC  H16X20794   3.604   4.153   8.858  2.0368 -1.4013 -0.5646
  181SLPC  H16Y20795   3.713   4.192   8.992  0.4056  0.3382  1.7344
  181SLPC  C31720796   3.510   4.125   9.054  0.3150  0.3285  0.3649
  181SLPC  H17X20797   3.546   4.092   9.153 -2.8670  0.9259  1.8319
  181SLPC  H17Y20798   3.434   4.049   9.023  1.0975 -1.1890  2.0118
  181SLPC  C31820799   3.440   4.256   9.077 -0.4834 -0.6611 -0.1995
  181SLPC  H18X20800   3.334   4.242   9.107 -0.3069 -1.7953 -0.0728
  181SLPC  H18Y20801   3.435   4.310   8.980 -0.0439  1.3390  0.8409
  181SLPC  H18Z20802   3.502   4.316   9.146 -0.8683  0.7517 -1.0480
  182SLPC     N20803   2.278   5.339  10.972 -0.0100  0.4065  0.0439
  182SLPC   C1320804   2.195   5.207  10.973  0.1297 -0.0331 -0.0089
  182SLPC  H13A20805   2.117   5.228  11.046  1.7138 -0.2836  1.8412
  182SLPC  H13B20806   2.141   5.192  10.881 -2.0830  2.5630  0.7153
  182SLPC  H13C20807   2.251   5.123  11.012 -0.2098  0.1017  0.8024
  182SLPC   C1420808   2.389   5.324  10.868 -0.1077 -0.0928  0.9906
  182SLPC  H14A20809   2.461   5.244  10.880  0.3143 -0.3368 -2.3002
  182SLPC  H14B20810   2.336   5.307  10.775 -1.4880 -0.0841  1.7495
  182SLPC  H14C20811   2.451   5.412  10.860  0.8688 -0.8084  0.4804
  182SLPC   C1520812   2.347   5.363  11.103  0.7499 -0.0918  0.1576
  182SLPC  H15A20813   2.272   5.375  11.180 -1.5464 -1.3708 -1.7161
  182SLPC  H15B20814   2.402   5.274  11.129  0.9268  0.3662  1.4148
  182SLPC  H15C20815   2.416   5.446  11.106 -0.9210  1.3343  1.3564
  182SLPC   C1220816   2.188   5.461  10.960  0.5504  0.0549  0.8315
  182SLPC  H12A20817   2.111   5.459  11.036 -1.4189  0.8393 -1.0144
  182SLPC  H12B20818   2.130   5.453  10.869 -3.9693  0.6036  3.3750
  182SLPC   C1120819   2.271   5.592  10.978 -0.4854  0.2072  0.0388
  182SLPC  H11A20820   2.374   5.591  10.936 -0.1030 -0.3195  0.9486
  182SLPC  H11B20821   2.298   5.605  11.085  0.9642 -0.3111 -0.2399
  182SLPC     P20822   2.141   5.767  10.815 -0.5113  0.4037 -0.0359
  182SLPC   O1320823   2.037   5.673  10.765  0.0025 -0.5005 -0.0871
  182SLPC   O1420824   2.101   5.907  10.838 -0.5366  0.2024 -1.0866
  182SLPC   O1220825   2.195   5.706  10.955  0.7832 -0.4539  0.3497
  182SLPC   O1120826   2.263   5.750  10.715  0.0464 -0.3335  0.2772
  182SLPC    C120827   2.362   5.857  10.697  0.4048  0.1027  0.5529
  182SLPC    HA20828   2.390   5.913  10.788  0.9877  0.1345  0.3578
  182SLPC    HB20829   2.449   5.804  10.652 -1.5711 -0.2405 -3.2530
  182SLPC    C220830   2.311   5.969  10.600 -0.2396 -0.2478 -0.3233
  182SLPC    HS20831   2.207   5.996  10.627 -0.4563 -0.6358 -0.7544
  182SLPC   O2120832   2.316   5.914  10.472  0.2945  0.5052 -0.4378
  182SLPC   C2120833   2.202   5.902  10.403 -0.7780 -0.1423 -0.4729
  182SLPC   O2220834   2.096   5.942  10.445  0.3232 -0.2926  0.7633
  182SLPC   C2220835   2.216   5.832  10.273 -0.4669  0.0438 -0.1787
  182SLPC   H2R20836   2.230   5.901  10.187 -0.5945 -1.5032 -1.5020
  182SLPC   H2S20837   2.299   5.758  10.284 -1.3407 -0.8248  0.8385
  182SLPC    C320838   2.397   6.103  10.611 -0.6617 -0.5218  0.2478
  182SLPC    HX20839   2.493   6.091  10.557 -1.1739  0.6530 -0.9679
  182SLPC    HY20840   2.404   6.131  10.719 -0.9500 -2.4942  0.8105
  182SLPC   O3120841   2.337   6.212  10.535  0.3860 -0.2953 -0.2162
  182SLPC   C3120842   2.252   6.296  10.598 -0.0740 -0.2229 -0.1559
  182SLPC   O3220843   2.217   6.284  10.716 -0.0554 -0.2788  0.0482
  182SLPC   C3220844   2.192   6.410  10.497 -0.6718  0.1937 -0.8306
  182SLPC   H2X20845   2.267   6.424  10.416  0.0438 -1.6803 -0.5460
  182SLPC   H2Y20846   2.183   6.501  10.560 -0.6892 -0.5707  0.3033
  182SLPC   C2320847   2.079   5.774  10.246 -0.4582  0.3112  0.1317
  182SLPC   H3R20848   2.003   5.853  10.231 -1.3099 -0.0982  2.0130
  182SLPC   H3S20849   2.043   5.715  10.333  0.0628  0.5202  0.4941
  182SLPC   C2420850   2.075   5.686  10.116  0.2739 -0.1587 -0.3239
  182SLPC   H4R20851   1.971   5.652  10.099  0.7092 -1.2869 -0.8288
  182SLPC   H4S20852   2.139   5.597  10.133 -0.2313 -0.6338 -0.8679
  182SLPC   C2520853   2.107   5.766   9.984  0.0453 -0.2597  0.1185
  182SLPC   H5R20854   2.204   5.818   9.998  0.2876 -1.2377  2.2733
  182SLPC   H5S20855   2.028   5.838   9.953 -0.1875  0.0333  1.3692
  182SLPC   C2620856   2.112   5.658   9.870 -0.4332  0.3587  0.0821
  182SLPC   H6R20857   2.011   5.624   9.842 -1.1646  2.4113  0.0303
  182SLPC   H6S20858   2.172   5.571   9.904  0.2744  0.6840 -0.2895
  182SLPC   C2720859   2.174   5.725   9.742 -0.4781 -0.9861 -0.1088
  182SLPC   H7R20860   2.281   5.719   9.773 -0.9705 -1.8211  1.5302
  182SLPC   H7S20861   2.143   5.832   9.748  0.1289 -0.8734  1.5143
  182SLPC   C2820862   2.150   5.655   9.612  0.2886  0.0139 -0.3199
  182SLPC   H8R20863   2.045   5.657   9.577  0.9185  0.1969 -2.3415
  182SLPC   H8S20864   2.183   5.552   9.638 -0.3793 -0.1113  0.0375
  182SLPC   C2920865   2.229   5.702   9.494  0.5696  0.5315  0.3619
  182SLPC   H9R20866   2.327   5.739   9.527  0.7915 -1.3883  2.1177
  182SLPC  C21020867   2.191   5.715   9.368  0.9913  0.2117  0.5221
  182SLPC  H10R20868   2.258   5.766   9.297 -0.2449 -1.0347 -1.6536
  182SLPC  C21120869   2.052   5.680   9.312 -0.1513 -0.5132 -0.2972
  182SLPC  H11R20870   2.029   5.754   9.232  1.4557 -0.2347 -0.5349
  182SLPC  H11S20871   1.966   5.687   9.383 -0.9993 -0.8917 -1.2607
  182SLPC  C21220872   2.039   5.546   9.250 -0.9830 -0.3301  0.1458
  182SLPC  H12R20873   2.065   5.469   9.323 -0.5671 -1.3419 -1.0341
  182SLPC  C21320874   1.995   5.505   9.132  0.1881  0.3370 -0.6217
  182SLPC  H13R20875   2.007   5.396   9.120  0.6127  0.2983  0.0970
  182SLPC  C21420876   1.927   5.581   9.023 -0.1946  0.4913 -0.1059
  182SLPC  H14R20877   1.997   5.631   8.952 -1.1528  0.1644 -1.3079
  182SLPC  H14S20878   1.858   5.658   9.062  2.1148  2.5081  0.1920
  182SLPC  C21520879   1.857   5.473   8.929 -0.2258  0.8570  0.2344
  182SLPC  H15R20880   1.793   5.401   8.985 -0.3571  1.4383  0.8510
  182SLPC  H15S20881   1.934   5.423   8.866 -0.8944 -0.7434  0.6406
  182SLPC  C21620882   1.776   5.541   8.821  0.0678 -0.8355 -0.2537
  182SLPC  H16R20883   1.834   5.632   8.797  1.1205 -0.9592  1.6115
  182SLPC  H16S20884   1.682   5.585   8.862 -0.9926 -0.7812 -2.5563
  182SLPC  C21720885   1.748   5.454   8.698 -0.0049  0.1020  0.1429
  182SLPC  H17R20886   1.705   5.357   8.731 -2.8357  0.9408 -0.7250
  182SLPC  H17S20887   1.843   5.441   8.642 -0.0778 -2.4701  0.5050
  182SLPC  C21820888   1.645   5.523   8.613  0.0323  0.2920  0.0452
  182SLPC  H18R20889   1.667   5.629   8.588 -2.1627  0.7744 -0.0818
  182SLPC  H18S20890   1.549   5.532   8.669 -0.4808  1.4917 -0.9796
  182SLPC  H18T20891   1.629   5.468   8.518 -1.9332  1.3921 -0.3339
  182SLPC   C3320892   2.051   6.373  10.445 -0.6373  0.1888  0.0243
  182SLPC   H3X20893   2.001   6.471  10.431 -2.1452 -0.6558 -0.7728
  182SLPC   H3Y20894   1.999   6.304  10.515  1.3544 -1.0950  0.3161
  182SLPC   C3420895   2.050   6.299  10.312  0.9290  0.0387 -0.0220
  182SLPC   H4X20896   2.079   6.193  10.322  0.4504 -0.1757 -0.7796
  182SLPC   H4Y20897   2.120   6.349  10.241 -0.3114  1.5480 -0.2478
  182SLPC   C3520898   1.909   6.310  10.249 -0.4056 -0.8477  0.3598
  182SLPC   H5X20899   1.839   6.281  10.331 -0.7034 -1.0378  0.0402
  182SLPC   H5Y20900   1.889   6.236  10.169 -1.0995 -0.0059 -0.2635
  182SLPC   C3620901   1.896   6.449  10.187  0.7033 -0.0080 -0.2414
  182SLPC   H6X20902   1.993   6.470  10.136  0.9297  0.1666  0.2529
  182SLPC   H6Y20903   1.884   6.518  10.273 -1.5523 -1.8506  1.0480
  182SLPC   C3720904   1.785   6.477  10.087  0.2939  0.1314  0.4755
  182SLPC   H7X20905   1.799   6.572  10.032  2.6521  0.9364  2.3048
  182SLPC   H7Y20906   1.693   6.485  10.149 -1.5467  0.2912 -2.0972
  182SLPC   C3820907   1.768   6.367   9.982  0.5188 -0.0360  0.1166
  182SLPC   H8X20908   1.723   6.282  10.037 -3.2207  1.2938 -0.5975
  182SLPC   H8Y20909   1.862   6.331   9.935 -0.3853 -1.3886 -0.7450
  182SLPC   C3920910   1.679   6.419   9.874  0.5255  0.2374  0.4505
  182SLPC   H9X20911   1.734   6.491   9.810  0.1044  1.8896  1.8551
  182SLPC   H9Y20912   1.595   6.479   9.917  0.4343  1.3237 -1.1571
  182SLPC  C31020913   1.628   6.297   9.789  0.1294 -0.2760  0.6154
  182SLPC  H10X20914   1.607   6.216   9.862  1.8604 -0.2439  1.2129
  182SLPC  H10Y20915   1.718   6.260   9.735 -0.7920  0.2628 -1.3893
  182SLPC  C31120916   1.524   6.339   9.685 -0.5112  0.5172  0.3145
  182SLPC  H11X20917   1.540   6.445   9.654 -2.8418  1.7188  2.7707
  182SLPC  H11Y20918   1.421   6.334   9.727 -0.0432 -1.6826  1.3274
  182SLPC  C31220919   1.529   6.238   9.570 -0.4973 -0.4213 -0.4355
  182SLPC  H12X20920   1.483   6.148   9.616  0.0836 -0.0782  0.8749
  182SLPC  H12Y20921   1.629   6.205   9.534 -0.6373 -0.5527 -0.7060
  182SLPC  C31320922   1.444   6.289   9.454  0.0217 -0.7801 -0.3150
  182SLPC  H13X20923   1.345   6.320   9.495  0.7220  1.1345  0.0292
  182SLPC  H13Y20924   1.439   6.209   9.378  1.2200  0.6916 -2.0290
  182SLPC  C31420925   1.495   6.405   9.370  0.6874  0.1110  0.2284
  182SLPC  H14X20926   1.603   6.383   9.352  0.9605  0.9868  0.7417
  182SLPC  H14Y20927   1.504   6.498   9.430  0.3485 -1.4216  2.7600
  182SLPC  C31520928   1.411   6.430   9.245  0.2689 -0.3552 -0.6212
  182SLPC  H15X20929   1.465   6.506   9.184 -0.3549 -1.1716 -2.2533
  182SLPC  H15Y20930   1.313   6.470   9.280  0.8073  0.7752 -0.3447
  182SLPC  C31620931   1.380   6.309   9.153  0.1288  0.0546 -0.5474
  182SLPC  H16X20932   1.341   6.223   9.211  3.2092  0.0632  1.7814
  182SLPC  H16Y20933   1.482   6.285   9.116 -0.9350 -0.3678 -3.4775
  182SLPC  C31720934   1.290   6.351   9.033  0.2831 -0.6173 -0.5977
  182SLPC  H17X20935   1.309   6.268   8.961  4.6840  0.6432 -1.1832
  182SLPC  H17Y20936   1.328   6.444   8.985 -0.8831 -0.3332 -1.0023
  182SLPC  C31820937   1.143   6.365   9.067 -0.0661 -0.1637 -0.7374
  182SLPC  H18X20938   1.091   6.390   8.972 -0.1785 -0.3552 -0.7274
  182SLPC  H18Y20939   1.134   6.452   9.135 -1.6214 -1.4653  0.8054
  182SLPC  H18Z20940   1.097   6.273   9.110 -0.0875  0.4100  0.5111
  183SLPC     N20941   3.211   3.966  10.726 -0.5090 -0.1930  0.6004
  183SLPC   C1320942   3.238   3.849  10.819  0.0052  0.4192 -0.4082
  183SLPC  H13A20943   3.207   3.871  10.920 -1.7590  0.4580 -0.9275
  183SLPC  H13B20944   3.183   3.762  10.784 -1.9165  2.1915 -2.0873
  183SLPC  H13C20945   3.339   3.815  10.803  0.1030 -1.0638  2.5984
  183SLPC   C1420946   3.091   4.031  10.761  0.3521 -1.0711  0.3132
  183SLPC  H14A20947   3.000   3.974  10.764 -0.6804  0.4257 -1.0722
  183SLPC  H14B20948   3.095   4.082  10.856 -2.4083  2.3049 -1.1485
  183SLPC  H14C20949   3.075   4.109  10.688  0.9991 -0.6944  0.5631
  183SLPC   C1520950   3.194   3.904  10.589  0.2731  0.4090  0.1050
  183SLPC  H15A20951   3.116   3.831  10.605  1.9775 -1.3163  0.8374
  183SLPC  H15B20952   3.160   3.973  10.512 -0.6249 -0.6296 -0.4500
  183SLPC  H15C20953   3.284   3.854  10.558  0.1274  0.7271 -0.8518
  183SLPC   C1220954   3.327   4.061  10.730 -0.0833 -0.1080  0.4315
  183SLPC  H12A20955   3.312   4.141  10.660  1.2381  0.2366  0.5167
  183SLPC  H12B20956   3.421   4.014  10.705  1.2598  2.0417  1.1935
  183SLPC   C1120957   3.348   4.136  10.863  0.1886 -0.3226 -0.1125
  183SLPC  H11A20958   3.445   4.188  10.852 -0.7820  1.7430  0.5944
  183SLPC  H11B20959   3.362   4.067  10.949  0.6222  1.1954  1.0702
  183SLPC     P20960   3.232   4.370  10.825  0.4601  0.0403  0.6561
  183SLPC   O1320961   3.095   4.419  10.833  0.3911 -0.0764  0.8154
  183SLPC   O1420962   3.331   4.451  10.892 -0.4952  0.3091  0.1809
  183SLPC   O1220963   3.241   4.228  10.895 -0.3386  0.4495 -0.0892
  183SLPC   O1120964   3.265   4.345  10.665 -0.7809 -0.2811 -0.2668
  183SLPC    C120965   3.250   4.465  10.587  0.1289 -0.8790 -0.1099
  183SLPC    HA20966   3.147   4.505  10.598  1.2398  1.8802  0.8520
  183SLPC    HB20967   3.316   4.550  10.611 -1.1889  0.1061  0.1274
  183SLPC    C220968   3.284   4.416  10.441  0.9205 -0.3216 -0.3407
  183SLPC    HS20969   3.279   4.505  10.374 -0.7866  1.0976  1.5474
  183SLPC   O2120970   3.184   4.317  10.395 -0.6026 -0.3878 -0.0452
  183SLPC   C2120971   3.061   4.349  10.388  0.6708  0.9787 -0.5390
  183SLPC   O2220972   3.015   4.458  10.403 -0.1437 -0.1463  0.3448
  183SLPC   C2220973   2.991   4.221  10.321 -1.2917 -0.0084  0.3887
  183SLPC   H2R20974   3.043   4.123  10.330 -1.1157 -0.0061 -0.5344
  183SLPC   H2S20975   2.901   4.214  10.387 -1.4414  1.6456  0.3976
  183SLPC    C320976   3.424   4.356  10.431  0.6104  0.7236  1.2005
  183SLPC    HX20977   3.418   4.269  10.499  0.6236 -1.9553 -1.9513
  183SLPC    HY20978   3.491   4.436  10.468  2.3075  1.1027 -2.2496
  183SLPC   O3120979   3.460   4.304  10.301 -0.4683  0.4901 -0.2546
  183SLPC   C3120980   3.461   4.171  10.282 -0.4205  1.1115  0.7063
  183SLPC   O3220981   3.446   4.089  10.374  0.1138 -0.4661  0.3926
  183SLPC   C3220982   3.493   4.128  10.132  0.0325 -0.5906  0.2373
  183SLPC   H2X20983   3.509   4.221  10.073  1.0138  0.3018  1.8310
  183SLPC   H2Y20984   3.405   4.072  10.095  1.7050 -2.6078 -0.9495
  183SLPC   C2320985   2.963   4.249  10.173  0.6170 -0.7164  0.3362
  183SLPC   H3R20986   2.892   4.335  10.164  0.1628 -1.0559  0.6295
  183SLPC   H3S20987   2.905   4.160  10.142  1.9173 -0.6669 -2.4260
  183SLPC   C2420988   3.087   4.258  10.079  0.1258  0.6167 -0.2753
  183SLPC   H4R20989   3.145   4.165  10.096  3.1975  2.4047 -0.1546
  183SLPC   H4S20990   3.146   4.342  10.122 -0.2884  0.7586  0.0297
  183SLPC   C2520991   3.052   4.280   9.938 -0.0915 -0.1227  0.0370
  183SLPC   H5R20992   3.001   4.379   9.929  1.7450  0.8005 -0.6875
  183SLPC   H5S20993   2.980   4.203   9.904 -0.0352 -0.6077  0.9873
  183SLPC   C2620994   3.180   4.280   9.848  0.6850  0.5676 -0.2869
  183SLPC   H6R20995   3.263   4.333   9.899  0.7891  2.1772 -2.0525
  183SLPC   H6S20996   3.175   4.333   9.751  1.3117 -0.5635 -0.9654
  183SLPC   C2720997   3.229   4.135   9.823  0.4413  0.7566 -0.1572
  183SLPC   H7R20998   3.216   4.079   9.918 -1.5585  1.6580  0.1594
  183SLPC   H7S20999   3.339   4.129   9.812  0.5720  0.1224  1.3231
  183SLPC   C2821000   3.146   4.046   9.731 -0.8664  0.0923  0.8862
  183SLPC   H8R21001   3.040   4.048   9.765 -1.6344 -0.6726 -1.3059
  183SLPC   H8S21002   3.173   3.939   9.747  1.9129  0.8313  1.4965
  183SLPC   C2921003   3.164   4.085   9.583 -0.1324  0.1060 -0.0377
  183SLPC   H9R21004   3.269   4.071   9.554 -0.3159 -0.7434 -0.3468
  183SLPC  C21021005   3.079   4.136   9.494 -0.0550  0.5181  0.2135
  183SLPC  H10R21006   3.118   4.156   9.393 -1.8757  0.6724 -0.4838
  183SLPC  C21121007   2.930   4.172   9.511  0.5553 -0.2138  0.2213
  183SLPC  H11R21008   2.917   4.243   9.595  5.1576 -0.3123  1.2655
  183SLPC  H11S21009   2.871   4.082   9.537 -0.8086  0.4146 -0.6133
  183SLPC  C21221010   2.875   4.238   9.388 -0.8459 -1.6586  0.4575
  183SLPC  H12R21011   2.934   4.328   9.367 -0.9883 -1.1412  2.1812
  183SLPC  C21321012   2.783   4.188   9.304 -0.0249 -0.0372 -0.1112
  183SLPC  H13R21013   2.751   4.254   9.222  1.0752  1.3250  0.5141
  183SLPC  C21421014   2.712   4.054   9.306 -0.0715 -0.1523 -0.4495
  183SLPC  H14R21015   2.603   4.054   9.283 -0.2223 -2.3805  0.0731
  183SLPC  H14S21016   2.711   4.018   9.411  0.7259  1.9439  0.3312
  183SLPC  C21521017   2.791   3.943   9.230 -0.0496  0.4161 -0.1608
  183SLPC  H15R21018   2.741   3.846   9.254  2.1251 -0.9077 -0.6773
  183SLPC  H15S21019   2.896   3.945   9.265 -0.4928  0.7461  1.2341
  183SLPC  C21621020   2.784   3.968   9.079  0.8570 -0.4464 -0.0895
  183SLPC  H16R21021   2.840   4.062   9.059 -1.6508  2.1489  3.6500
  183SLPC  H16S21022   2.682   3.978   9.036  0.9460 -2.7683 -0.9888
  183SLPC  C21721023   2.852   3.851   9.008  0.1784  0.5131  0.7076
  183SLPC  H17R21024   2.818   3.754   9.050  0.2857 -0.2407 -0.8759
  183SLPC  H17S21025   2.961   3.855   9.030  0.1156  1.4568  0.9003
  183SLPC  C21821026   2.833   3.837   8.854 -0.1513  0.4008 -0.2061
  183SLPC  H18R21027   2.896   3.909   8.799  0.3250 -1.2819 -1.9848
  183SLPC  H18S21028   2.723   3.844   8.837  0.0483  3.1029 -0.8227
  183SLPC  H18T21029   2.866   3.740   8.810 -2.5556  0.9789 -3.6267
  183SLPC   C3321030   3.617   4.037  10.123  0.5997  0.0197 -0.0203
  183SLPC   H3X21031   3.597   3.934  10.160 -1.2192  0.9688  1.7951
  183SLPC   H3Y21032   3.700   4.079  10.185  1.3321  1.8882 -2.1255
  183SLPC   C3421033   3.674   4.017   9.980  0.4839  0.0594  0.7600
  183SLPC   H4X21034   3.692   4.120   9.941  0.6428 -0.5487 -0.8361
  183SLPC   H4Y21035   3.591   3.984   9.915 -0.6144  2.8336  0.6049
  183SLPC   C3521036   3.802   3.935   9.974  0.2400  0.1099 -0.0363
  183SLPC   H5X21037   3.802   3.827  10.000 -0.2994  0.3170  0.8323
  183SLPC   H5Y21038   3.876   3.972  10.047  1.8934 -3.2637  0.1949
  183SLPC   C3621039   3.861   3.941   9.839 -0.2152  0.2887 -0.2053
  183SLPC   H6X21040   3.883   4.048   9.820 -2.6031  0.9539  0.3658
  183SLPC   H6Y21041   3.801   3.902   9.754 -1.4585 -1.0261  1.2256
  183SLPC   C3721042   3.993   3.854   9.835  0.1269  0.4336  0.0073
  183SLPC   H7X21043   3.962   3.750   9.856  1.7287 -0.1504 -0.4019
  183SLPC   H7Y21044   4.067   3.891   9.909  0.2938 -0.9225  0.5328
  183SLPC   C3821045   4.070   3.866   9.706  0.7983  0.4535  0.6562
  183SLPC   H8X21046   4.161   3.803   9.715 -1.1207 -2.7642 -0.6687
  183SLPC   H8Y21047   4.087   3.974   9.690  1.1155  0.6900  2.3904
  183SLPC   C3921048   4.002   3.801   9.583  0.7531 -0.4259  0.4805
  183SLPC   H9X21049   3.903   3.851   9.570  1.1927 -0.0031 -1.5241
  183SLPC   H9Y21050   3.982   3.695   9.611  0.3754 -0.5475 -0.2337
  183SLPC  C31021051   4.081   3.835   9.460 -0.0514 -0.3742  0.1365
  183SLPC  H10X21052   4.181   3.790   9.474  0.6622  1.1535  0.1338
  183SLPC  H10Y21053   4.103   3.939   9.426 -0.7157 -0.9707 -2.2878
  183SLPC  C31121054   4.026   3.776   9.331  0.0206 -0.5438 -0.2514
  183SLPC  H11X21055   3.920   3.798   9.306  0.1930  1.7101  0.7163
  183SLPC  H11Y21056   4.041   3.668   9.348 -0.0959 -0.4645  0.3814
  183SLPC  C31221057   4.119   3.801   9.215  0.0392 -1.0457  0.5237
  183SLPC  H12X21058   4.105   3.723   9.137  1.1788 -0.4527 -0.3005
  183SLPC  H12Y21059   4.227   3.802   9.241  0.3223  0.1756 -0.6158
  183SLPC  C31321060   4.089   3.934   9.149 -0.2702  0.2129 -0.0581
  183SLPC  H13X21061   4.095   4.008   9.232 -1.9959  0.7371 -0.3622
  183SLPC  H13Y21062   3.980   3.928   9.127 -0.3162  0.8595 -0.0302
  183SLPC  C31421063   4.167   3.975   9.024  0.1757 -0.7431  0.7829
  183SLPC  H14X21064   4.131   4.075   8.993  2.2013 -0.2660 -0.2114
  183SLPC  H14Y21065   4.141   3.903   8.943 -2.2232  0.6795  0.1947
  183SLPC  C31521066   4.320   3.980   9.043  0.0279 -0.2860 -0.3285
  183SLPC  H15X21067   4.362   3.884   9.081 -1.2592 -0.6907  0.1066
  183SLPC  H15Y21068   4.320   4.042   9.136  0.1154  1.2909 -1.3393
  183SLPC  C31621069   4.393   4.028   8.919 -0.2827  0.2402  0.1151
  183SLPC  H16X21070   4.326   4.102   8.870 -1.5664 -1.4303 -0.7790
  183SLPC  H16Y21071   4.415   3.945   8.848  0.5008 -1.8351  2.6018
  183SLPC  C31721072   4.529   4.104   8.957  0.3025 -0.5521 -0.2252
  183SLPC  H17X21073   4.599   4.046   9.020  0.8523 -0.0065 -0.3196
  183SLPC  H17Y21074   4.494   4.190   9.019 -0.6152 -0.2004 -1.1974
  183SLPC  C31821075   4.608   4.152   8.836 -0.4045  0.1485  0.6174
  183SLPC  H18X21076   4.653   4.063   8.785 -0.6595  1.0332 -1.2524
  183SLPC  H18Y21077   4.696   4.214   8.862  1.2635 -1.0757 -1.7306
  183SLPC  H18Z21078   4.541   4.198   8.760  0.4567 -0.1258 -0.3408
  184SLPC     N21079   4.429   0.534  10.663  0.2524 -0.0207  0.1739
  184SLPC   C1321080   4.446   0.600  10.790  0.1672  0.5604 -0.2664
  184SLPC  H13A21081   4.353   0.650  10.813  0.2769  0.1146  1.2482
  184SLPC  H13B21082   4.473   0.537  10.874  0.7237  0.5948 -0.4174
  184SLPC  H13C21083   4.516   0.682  10.791  3.0164 -1.6868  1.1661
  184SLPC   C1421084   4.338   0.420  10.672  0.3399  0.7807 -0.2943
  184SLPC  H14A21085   4.252   0.443  10.734  1.1676 -3.6270  2.9622
  184SLPC  H14B21086   4.299   0.382  10.579 -0.1623  0.5986 -0.0161
  184SLPC  H14C21087   4.390   0.351  10.737 -3.4552 -0.3496  1.9134
  184SLPC   C1521088   4.555   0.478  10.609  0.3357  0.3908 -0.0216
  184SLPC  H15A21089   4.626   0.552  10.576 -0.1958  0.5279 -0.8861
  184SLPC  H15B21090   4.596   0.400  10.671  0.4891  0.3275 -0.2028
  184SLPC  H15C21091   4.532   0.425  10.518 -0.1911  0.3704  0.1173
  184SLPC   C1221092   4.376   0.635  10.567 -0.3936 -0.4951  0.5298
  184SLPC  H12A21093   4.281   0.673  10.601  0.6187  1.3357  1.4613
  184SLPC  H12B21094   4.345   0.577  10.481 -2.3284 -2.7454  2.6079
  184SLPC   C1121095   4.465   0.759  10.549 -0.1150 -0.4026  0.3696
  184SLPC  H11A21096   4.450   0.799  10.447 -0.7732 -1.4581  0.0361
  184SLPC  H11B21097   4.574   0.738  10.555 -0.2473 -1.3156 -0.1587
  184SLPC     P21098   4.309   0.955  10.614 -0.1806  0.2414 -0.3363
  184SLPC   O1321099   4.190   0.889  10.570 -0.0276  0.3379  0.6709
  184SLPC   O1421100   4.301   1.046  10.733 -0.5190 -0.3104  0.1509
  184SLPC   O1221101   4.425   0.852  10.645  0.4131 -0.2502 -0.6639
  184SLPC   O1121102   4.373   1.032  10.490  0.5028 -0.1318  0.6264
  184SLPC    C121103   4.340   1.170  10.452 -0.1854 -0.0108 -0.5370
  184SLPC    HA21104   4.239   1.183  10.407  0.2552 -1.4163 -2.0673
  184SLPC    HB21105   4.337   1.237  10.540 -1.2295 -1.2343  0.4082
  184SLPC    C221106   4.455   1.207  10.354  0.1086 -0.4683  0.1365
  184SLPC    HS21107   4.427   1.307  10.315  1.7887  0.8425  2.0520
  184SLPC   O2121108   4.473   1.101  10.255 -0.0647 -0.0697 -0.3731
  184SLPC   C2121109   4.371   1.092  10.170  0.0349 -0.5983 -0.2454
  184SLPC   O2221110   4.264   1.155  10.173 -0.2736 -0.1046 -0.0451
  184SLPC   C2221111   4.409   1.000  10.058 -0.6561  0.7555 -0.3044
  184SLPC   H2R21112   4.458   1.055   9.976  1.5191 -1.0411 -0.3264
  184SLPC   H2S21113   4.479   0.923  10.098 -2.0826 -0.1045  0.6359
  184SLPC    C321114   4.586   1.233  10.431 -0.0854  0.2479 -0.5454
  184SLPC    HX21115   4.587   1.155  10.511 -0.6471  1.0911  0.3098
  184SLPC    HY21116   4.577   1.331  10.484 -3.1916  0.2036 -0.8275
  184SLPC   O3121117   4.703   1.239  10.345  0.1327  0.2569  0.4303
  184SLPC   C3121118   4.778   1.127  10.344 -0.4063 -0.2337  0.2994
  184SLPC   O3221119   4.754   1.024  10.395  0.5582 -0.4766 -0.0764
  184SLPC   C3221120   4.909   1.136  10.268  0.6154 -0.8744 -0.4727
  184SLPC   H2X21121   4.989   1.088  10.330  1.0674 -0.1248 -0.4651
  184SLPC   H2Y21122   4.931   1.245  10.269  0.1722 -0.7836 -0.0966
  184SLPC   C2321123   4.292   0.921  10.002  0.0718  0.1922  0.0637
  184SLPC   H3R21124   4.202   0.942  10.063  0.0552  1.3958 -0.3480
  184SLPC   H3S21125   4.324   0.815  10.003 -0.5382  0.0057 -0.0133
  184SLPC   C2421126   4.254   0.948   9.856 -0.8704  0.0447  0.1649
  184SLPC   H4R21127   4.344   0.939   9.792 -0.5230  0.9341  0.5227
  184SLPC   H4S21128   4.223   1.054   9.847 -1.1471  0.0352  0.8993
  184SLPC   C2521129   4.137   0.867   9.808 -0.2961 -0.3835 -0.0027
  184SLPC   H5R21130   4.051   0.930   9.840  0.9869  1.0895  0.6957
  184SLPC   H5S21131   4.127   0.767   9.855 -0.6632 -1.5648 -2.4299
  184SLPC   C2621132   4.128   0.866   9.653 -0.0727 -0.4086 -0.4612
  184SLPC   H6R21133   4.226   0.825   9.619  0.5963 -1.0450  1.9883
  184SLPC   H6S21134   4.113   0.970   9.619 -1.2551 -0.2276  0.5237
  184SLPC   C2721135   4.004   0.795   9.595 -0.4080 -0.0241  0.2178
  184SLPC   H7R21136   3.911   0.831   9.643 -1.5888  0.2220 -2.1270
  184SLPC   H7S21137   4.037   0.690   9.609 -0.2556 -0.3557 -2.2023
  184SLPC   C2821138   3.985   0.838   9.450  0.5840  0.2733  0.3328
  184SLPC   H8R21139   3.950   0.943   9.443 -1.3719 -0.4466 -2.2814
  184SLPC   H8S21140   3.907   0.779   9.397  2.2805 -2.0647  0.2768
  184SLPC   C2921141   4.112   0.817   9.373 -0.5352  0.8897 -0.2517
  184SLPC   H9R21142   4.196   0.886   9.390 -1.0446  1.3274  0.5335
  184SLPC  C21021143   4.138   0.728   9.269  0.2462 -0.3210  0.7107
  184SLPC  H10R21144   4.232   0.744   9.214 -0.6774  3.6730 -0.0323
  184SLPC  C21121145   4.047   0.627   9.212  0.0583  0.3626  0.4465
  184SLPC  H11R21146   3.961   0.625   9.283 -0.5168 -1.5773 -0.2309
  184SLPC  H11S21147   4.086   0.523   9.214  0.7896  0.6170  2.4197
  184SLPC  C21221148   4.008   0.662   9.065 -0.1461 -0.4744 -0.0131
  184SLPC  H12R21149   3.958   0.759   9.047 -0.6053 -0.3134  1.9145
  184SLPC  C21321150   4.026   0.565   8.968  0.5303  0.2296  0.0288
  184SLPC  H13R21151   4.004   0.588   8.863  2.0896 -0.0136 -0.3727
  184SLPC  C21421152   4.087   0.428   8.974 -0.1004 -0.3821  0.4612
  184SLPC  H14R21153   4.005   0.353   8.963  0.6697 -0.9020 -2.9278
  184SLPC  H14S21154   4.151   0.415   9.064  1.0823  0.8518 -0.1637
  184SLPC  C21521155   4.174   0.398   8.846  0.1024  0.4495 -0.2335
  184SLPC  H15R21156   4.225   0.304   8.877  0.5398  0.6051 -0.4737
  184SLPC  H15S21157   4.250   0.477   8.826  1.3409 -0.4214  0.8481
  184SLPC  C21621158   4.089   0.378   8.723 -0.7310  0.3773 -0.5034
  184SLPC  H16R21159   4.057   0.477   8.684 -2.4135 -0.5112 -1.5170
  184SLPC  H16S21160   4.000   0.321   8.758 -1.4780  0.4534 -2.1697
  184SLPC  C21721161   4.172   0.293   8.625  0.2966 -0.1045  0.0133
  184SLPC  H17R21162   4.197   0.197   8.674  1.4380 -0.9298 -2.0378
  184SLPC  H17S21163   4.260   0.342   8.577 -1.1461  0.9929 -1.6742
  184SLPC  C21821164   4.080   0.252   8.506 -0.4050 -0.1326 -0.7530
  184SLPC  H18R21165   4.144   0.199   8.432  3.2038  1.6354  0.8568
  184SLPC  H18S21166   4.048   0.349   8.463 -0.7876  0.6723  1.2381
  184SLPC  H18T21167   3.992   0.195   8.543 -0.0658 -0.5464 -0.5868
  184SLPC   C3321168   4.884   1.089  10.125 -0.0370  0.6895  0.7056
  184SLPC   H3X21169   4.860   0.982  10.145  2.9957 -0.3910 -0.7493
  184SLPC   H3Y21170   4.974   1.090  10.059 -0.3307 -1.9844  0.1469
  184SLPC   C3421171   4.773   1.149  10.041 -0.1165 -0.5857  0.2551
  184SLPC   H4X21172   4.781   1.251   9.995  2.2628 -0.6673  0.3766
  184SLPC   H4Y21173   4.677   1.141  10.095 -0.9386  0.6118 -0.9563
  184SLPC   C3521174   4.741   1.065   9.913  0.2981 -0.0513 -0.7387
  184SLPC   H5X21175   4.640   1.093   9.874  0.6039  1.2615 -0.6326
  184SLPC   H5Y21176   4.741   0.954   9.926  1.5875 -0.1622 -1.4931
  184SLPC   C3621177   4.837   1.078   9.797 -0.1335 -0.0649  0.4565
  184SLPC   H6X21178   4.928   1.017   9.817 -1.0329 -0.9083  2.1499
  184SLPC   H6Y21179   4.865   1.184   9.774 -2.6565  0.2691 -1.5044
  184SLPC   C3721180   4.767   1.033   9.661  0.0680 -0.5437  0.3422
  184SLPC   H7X21181   4.676   1.097   9.656  0.2354 -0.3710 -0.7202
  184SLPC   H7Y21182   4.736   0.928   9.679 -0.1843 -0.7674 -1.3023
  184SLPC   C3821183   4.858   1.053   9.540  0.4302 -0.4345 -0.4772
  184SLPC   H8X21184   4.947   0.989   9.559  0.5833 -0.1615 -0.2826
  184SLPC   H8Y21185   4.903   1.154   9.528  2.1055 -1.0360  0.4706
  184SLPC   C3921186   4.801   1.006   9.404 -0.2579 -0.0952  0.2195
  184SLPC   H9X21187   4.782   0.897   9.414 -2.1716 -0.0677 -2.0021
  184SLPC   H9Y21188   4.862   1.019   9.312 -0.5661 -1.8218 -0.2705
  184SLPC  C31021189   4.662   1.064   9.386  0.4111  0.7588 -0.3395
  184SLPC  H10X21190   4.656   1.174   9.401  0.3993  0.3961  3.0483
  184SLPC  H10Y21191   4.589   1.019   9.457 -0.1561  1.8802 -0.1856
  184SLPC  C31121192   4.606   1.025   9.247  0.2400 -0.3976 -0.2111
  184SLPC  H11X21193   4.598   0.914   9.239 -2.3516 -0.4212  1.3708
  184SLPC  H11Y21194   4.674   1.058   9.167  0.6264  1.0667  0.6853
  184SLPC  C31221195   4.466   1.082   9.221  0.2280 -0.1771  0.7307
  184SLPC  H12X21196   4.471   1.192   9.227  2.1271 -0.2353  0.7946
  184SLPC  H12Y21197   4.390   1.035   9.287  0.5237 -2.7064 -0.5892
  184SLPC  C31321198   4.421   1.048   9.077 -0.2149 -0.3066  0.7399
  184SLPC  H13X21199   4.478   1.115   9.009 -1.9396 -0.8394 -1.3635
  184SLPC  H13Y21200   4.317   1.089   9.077 -1.5036 -3.2716  2.0585
  184SLPC  C31421201   4.406   0.902   9.037  0.0608 -0.1300 -0.6060
  184SLPC  H14X21202   4.326   0.876   9.109 -1.2153  1.0153 -1.5827
  184SLPC  H14Y21203   4.504   0.849   9.040 -0.6811 -1.5132  0.5169
  184SLPC  C31521204   4.339   0.885   8.901  0.0052 -1.1781 -0.1485
  184SLPC  H15X21205   4.374   0.960   8.827  0.4358 -1.7636 -0.5597
  184SLPC  H15Y21206   4.235   0.919   8.917  1.5133  3.8533  0.6099
  184SLPC  C31621207   4.358   0.749   8.837  0.5921 -0.3375  0.7666
  184SLPC  H16X21208   4.312   0.680   8.911 -1.2897 -0.2435 -0.2511
  184SLPC  H16Y21209   4.467   0.726   8.834  0.4426 -1.2265 -2.6639
  184SLPC  C31721210   4.284   0.733   8.701 -0.2992 -0.2719  0.2109
  184SLPC  H17X21211   4.289   0.827   8.642 -1.4264 -0.8596 -0.8484
  184SLPC  H17Y21212   4.178   0.705   8.712 -0.5218  0.6325  0.4445
  184SLPC  C31821213   4.344   0.625   8.609  0.2625  0.3864  0.0764
  184SLPC  H18X21214   4.382   0.544   8.674  0.1058 -1.2482 -1.7976
  184SLPC  H18Y21215   4.425   0.660   8.541  0.6586  2.9032  1.6789
  184SLPC  H18Z21216   4.270   0.587   8.535  0.3230  0.4146  0.0003
  185SLPC     N21217   3.193   3.301   6.053 -0.3803  0.2128 -0.0074
  185SLPC   C1321218   3.066   3.239   6.010  0.2143  0.5255  0.2136
  185SLPC  H13A21219   2.996   3.321   6.018 -0.1211  0.1086  2.3337
  185SLPC  H13B21220   3.057   3.188   5.916 -2.1427 -1.0595  1.1941
  185SLPC  H13C21221   3.042   3.163   6.083 -0.3177 -0.1560 -0.6575
  185SLPC   C1421222   3.243   3.403   5.947 -0.4799  0.8786  0.3933
  185SLPC  H14A21223   3.341   3.445   5.965  1.7832 -1.5853 -4.3108
  185SLPC  H14B21224   3.253   3.347   5.855  0.9694 -0.9083  1.5891
  185SLPC  H14C21225   3.176   3.487   5.935 -0.9603  0.5135  0.4520
  185SLPC   C1521226   3.292   3.192   6.064  0.1357 -0.1390  0.0167
  185SLPC  H15A21227   3.387   3.226   6.103 -0.6476  2.3130 -0.0464
  185SLPC  H15B21228   3.251   3.108   6.116 -0.7692  0.7097  0.6979
  185SLPC  H15C21229   3.323   3.155   5.967 -1.4546 -2.5458  0.3439
  185SLPC   C1221230   3.176   3.367   6.181 -0.1755  0.1452 -0.6098
  185SLPC  H12A21231   3.134   3.461   6.148 -2.3545 -0.8374 -0.8186
  185SLPC  H12B21232   3.271   3.397   6.223 -0.6510 -0.8378  1.2503
  185SLPC   C1121233   3.071   3.311   6.274  0.0307 -0.5162  0.6408
  185SLPC  H11A21234   2.969   3.328   6.234 -0.8397  1.3206  3.3499
  185SLPC  H11B21235   3.092   3.368   6.367  0.3331 -1.5788  1.2407
  185SLPC     P21236   3.212   3.112   6.387  0.1415  0.5005 -0.3345
  185SLPC   O1321237   3.277   3.005   6.309 -0.1320 -0.5364  0.1606
  185SLPC   O1421238   3.306   3.220   6.428  0.7082  0.4379 -0.6280
  185SLPC   O1221239   3.091   3.173   6.303  0.1997 -0.3754 -0.0471
  185SLPC   O1121240   3.134   3.051   6.523 -0.1403  0.5130 -0.4046
  185SLPC    C121241   3.020   3.122   6.568  0.6792 -0.3107 -0.7825
  185SLPC    HA21242   3.042   3.228   6.592 -0.1139 -0.2244 -0.4098
  185SLPC    HB21243   2.937   3.130   6.494 -1.5563 -0.0117  1.5970
  185SLPC    C221244   2.969   3.055   6.697  0.6989  0.9238  0.7815
  185SLPC    HS21245   2.866   3.095   6.701 -0.1635 -1.0407 -0.1097
  185SLPC   O2121246   3.056   3.065   6.818 -0.4376  0.8765  0.3354
  185SLPC   C2121247   3.059   3.189   6.852  0.5067 -1.1056  0.5329
  185SLPC   O2221248   2.988   3.282   6.809 -0.0022 -0.4889 -0.2613
  185SLPC   C2221249   3.153   3.209   6.971  0.1017 -0.0388  0.0389
  185SLPC   H2R21250   3.239   3.140   6.962  0.5400  0.6370 -1.3227
  185SLPC   H2S21251   3.191   3.314   6.964  0.6752 -0.3127 -1.4510
  185SLPC    C321252   2.962   2.900   6.670  0.2804  0.0294 -0.2746
  185SLPC    HX21253   3.061   2.856   6.691  0.4461  0.6305  0.2008
  185SLPC    HY21254   2.951   2.881   6.561  1.4487  0.2070 -0.4369
  185SLPC   O3121255   2.855   2.842   6.753  0.1578 -0.0318 -0.3220
  185SLPC   C3121256   2.733   2.858   6.710 -0.4495 -0.2827 -0.2464
  185SLPC   O3221257   2.702   2.907   6.603 -0.0140 -0.0598  0.1723
  185SLPC   C3221258   2.635   2.810   6.826 -0.5239 -0.0069 -0.3463
  185SLPC   H2X21259   2.690   2.744   6.896 -0.6009 -0.1234 -0.3965
  185SLPC   H2Y21260   2.544   2.763   6.783 -0.1640  0.1428 -1.3050
  185SLPC   C2321261   3.092   3.178   7.105  0.3974 -0.0454 -0.1693
  185SLPC   H3R21262   3.159   3.160   7.192 -0.7044 -0.2348  0.6587
  185SLPC   H3S21263   3.030   3.087   7.099  0.7634 -0.2726 -0.6151
  185SLPC   C2421264   3.004   3.301   7.150  0.3471  0.0811  0.4718
  185SLPC   H4R21265   2.914   3.300   7.085  1.5866 -0.6916 -1.2912
  185SLPC   H4S21266   3.055   3.395   7.120 -0.1385  0.3002  0.3127
  185SLPC   C2521267   2.979   3.321   7.302 -0.6624  0.5905  0.4171
  185SLPC   H5R21268   2.901   3.394   7.332  0.1025  0.9552  1.5883
  185SLPC   H5S21269   3.074   3.357   7.346 -0.8903  1.6337  0.0846
  185SLPC   C2621270   2.945   3.186   7.366 -0.1635 -0.0780 -1.0169
  185SLPC   H6R21271   3.046   3.153   7.398  1.3602  2.3182 -2.9166
  185SLPC   H6S21272   2.916   3.116   7.285 -2.5502  2.0600 -2.1674
  185SLPC   C2721273   2.846   3.195   7.469 -0.2458  0.2539  0.1068
  185SLPC   H7R21274   2.791   3.100   7.490  0.6027 -0.9795 -2.7612
  185SLPC   H7S21275   2.764   3.260   7.432 -0.5456 -0.4144 -0.4299
  185SLPC   C2821276   2.895   3.246   7.603  0.5170  0.3258  0.0244
  185SLPC   H8R21277   2.929   3.351   7.599  0.6045  0.3146  0.4502
  185SLPC   H8S21278   2.978   3.183   7.640  0.2542 -0.3488 -0.4858
  185SLPC   C2921279   2.779   3.263   7.697 -0.6062 -0.6542 -0.6810
  185SLPC   H9R21280   2.701   3.189   7.676 -0.0557 -1.3500 -0.3059
  185SLPC  C21021281   2.770   3.343   7.810  0.7572 -0.4899  0.6063
  185SLPC  H10R21282   2.684   3.327   7.877  0.3074 -0.8376 -0.0300
  185SLPC  C21121283   2.877   3.433   7.869 -0.3602  0.7313 -0.0279
  185SLPC  H11R21284   2.815   3.507   7.925 -1.3893  0.1657 -0.4018
  185SLPC  H11S21285   2.928   3.495   7.792  1.3225  3.1118  2.7564
  185SLPC  C21221286   2.991   3.361   7.942  0.8673 -0.9523  0.2833
  185SLPC  H12R21287   3.052   3.302   7.871  0.3996  3.8773 -4.7709
  185SLPC  C21321288   3.008   3.351   8.072  0.6035  0.3000 -0.1030
  185SLPC  H13R21289   3.093   3.300   8.119  0.7125  0.2516 -0.3491
  185SLPC  C21421290   2.916   3.420   8.170  0.4025  0.5849  0.2135
  185SLPC  H14R21291   2.921   3.361   8.264  1.0604  1.8981  1.0296
  185SLPC  H14S21292   2.810   3.419   8.138 -0.1206  0.5565  1.8646
  185SLPC  C21521293   2.972   3.559   8.211  0.1246 -0.2631  0.9981
  185SLPC  H15R21294   2.896   3.607   8.276  0.4968 -0.1213  1.3408
  185SLPC  H15S21295   2.995   3.633   8.131  0.0170  0.3086  1.4887
  185SLPC  C21621296   3.092   3.553   8.302 -0.3744 -0.5519  0.1783
  185SLPC  H16R21297   3.129   3.653   8.333  0.0088 -1.8683  4.7458
  185SLPC  H16S21298   3.172   3.510   8.238 -1.2832 -0.8558 -0.7860
  185SLPC  C21721299   3.067   3.484   8.439 -0.5397  0.7914  0.2505
  185SLPC  H17R21300   3.078   3.377   8.414  1.4617  0.9942  0.1287
  185SLPC  H17S21301   2.960   3.503   8.463 -0.9807  0.1976 -1.1288
  185SLPC  C21821302   3.173   3.521   8.547  0.0215 -0.2172 -0.2841
  185SLPC  H18R21303   3.149   3.478   8.646  1.1026  0.7081  0.3968
  185SLPC  H18S21304   3.175   3.631   8.564  1.0653 -0.1933 -0.4946
  185SLPC  H18T21305   3.275   3.487   8.521 -1.1498 -3.9220 -0.6648
  185SLPC   C3321306   2.584   2.924   6.917 -0.2884 -0.1553  0.5466
  185SLPC   H3X21307   2.540   2.995   6.843 -0.1915  1.2544  1.7858
  185SLPC   H3Y21308   2.673   2.975   6.960  0.5823 -1.1800 -0.0126
  185SLPC   C3421309   2.486   2.881   7.023  0.5526 -0.4293 -0.2842
  185SLPC   H4X21310   2.429   2.791   6.990 -0.6258  0.1235  0.1967
  185SLPC   H4Y21311   2.416   2.966   7.038  0.2872 -0.8756  1.1786
  185SLPC   C3521312   2.548   2.857   7.167 -0.5105 -0.2656 -0.1313
  185SLPC   H5X21313   2.609   2.948   7.188  0.7534 -0.9463 -0.7316
  185SLPC   H5Y21314   2.614   2.770   7.187 -1.5671 -0.8694  0.8329
  185SLPC   C3621315   2.436   2.841   7.272  0.1210 -0.1869  0.3338
  185SLPC   H6X21316   2.385   2.744   7.257  0.7604 -0.4289 -0.3498
  185SLPC   H6Y21317   2.366   2.927   7.266 -1.0018 -1.0924  0.2502
  185SLPC   C3721318   2.496   2.844   7.411 -1.4048  0.8446 -0.1873
  185SLPC   H7X21319   2.554   2.938   7.400 -2.4305  1.8915  2.4650
  185SLPC   H7Y21320   2.566   2.760   7.428  0.0296  1.7185 -1.5342
  185SLPC   C3821321   2.399   2.858   7.529 -0.7879 -0.1594 -0.3228
  185SLPC   H8X21322   2.325   2.775   7.527 -0.3768 -0.5294 -0.1881
  185SLPC   H8Y21323   2.338   2.949   7.510 -0.7301  0.3164  1.5466
  185SLPC   C3921324   2.465   2.874   7.668  0.1127 -0.3679  0.3369
  185SLPC   H9X21325   2.544   2.953   7.665 -0.2845  0.0093 -1.0584
  185SLPC   H9Y21326   2.510   2.777   7.696 -0.3703 -0.8273 -0.4479
  185SLPC  C31021327   2.369   2.914   7.779  0.9485  0.5651 -0.3493
  185SLPC  H10X21328   2.276   2.953   7.733 -0.2304 -1.3500  0.2983
  185SLPC  H10Y21329   2.419   2.997   7.833  0.7180  1.6288 -1.6990
  185SLPC  C31121330   2.324   2.804   7.880 -1.0140 -0.3370 -0.1284
  185SLPC  H11X21331   2.284   2.717   7.824 -0.6438 -1.1392  0.8332
  185SLPC  H11Y21332   2.244   2.854   7.939 -2.1270  0.1093 -1.9246
  185SLPC  C31221333   2.435   2.762   7.977 -0.1102  0.3231  0.1287
  185SLPC  H12X21334   2.487   2.852   8.015  1.5125  1.0612 -3.3732
  185SLPC  H12Y21335   2.510   2.711   7.912 -0.4540  0.3138 -0.2656
  185SLPC  C31321336   2.397   2.662   8.089 -0.1080  0.3589  0.2204
  185SLPC  H13X21337   2.368   2.561   8.054 -1.1604  0.8061 -0.2370
  185SLPC  H13Y21338   2.323   2.717   8.151 -0.8230 -0.2262 -0.1079
  185SLPC  C31421339   2.517   2.637   8.175 -1.2206  0.0951  0.4472
  185SLPC  H14X21340   2.572   2.731   8.199 -0.0708 -0.8374  1.5909
  185SLPC  H14Y21341   2.590   2.588   8.107  0.0713  2.7399 -0.2263
  185SLPC  C31521342   2.491   2.550   8.296 -0.3141  0.1053 -0.3321
  185SLPC  H15X21343   2.419   2.472   8.263 -0.5270  0.7107 -1.3619
  185SLPC  H15Y21344   2.444   2.602   8.381  3.1507 -1.3263  2.7062
  185SLPC  C31621345   2.618   2.500   8.364  0.9456 -0.2887  0.4114
  185SLPC  H16X21346   2.674   2.589   8.402 -0.5038  0.3446  1.1478
  185SLPC  H16Y21347   2.676   2.434   8.297  1.5521 -1.3076  1.8950
  185SLPC  C31721348   2.598   2.410   8.492 -0.9236  0.2139  0.4409
  185SLPC  H17X21349   2.542   2.320   8.458  2.6525 -1.2926 -2.1582
  185SLPC  H17Y21350   2.529   2.453   8.567  0.0435  1.0155  0.8959
  185SLPC  C31821351   2.734   2.378   8.562 -0.8794  0.2665  0.4950
  185SLPC  H18X21352   2.779   2.470   8.606  1.3943 -1.0886  1.1392
  185SLPC  H18Y21353   2.803   2.345   8.481 -1.4479 -1.2803  0.6132
  185SLPC  H18Z21354   2.715   2.295   8.633 -1.8641 -0.5318 -0.6586
  186SLPC     N21355   3.051   4.621   5.974 -0.0674 -0.4041  0.2889
  186SLPC   C1321356   2.928   4.632   5.901 -0.1475 -0.8369  1.1582
  186SLPC  H13A21357   2.870   4.722   5.920  0.2093 -0.5158  0.7600
  186SLPC  H13B21358   2.945   4.633   5.794 -3.0868 -2.4317  0.5738
  186SLPC  H13C21359   2.871   4.543   5.922  0.6958 -1.2423  1.7649
  186SLPC   C1421360   3.018   4.623   6.123  0.2594  0.8498  0.1309
  186SLPC  H14A21361   2.941   4.551   6.145  2.2357 -1.2268  0.6858
  186SLPC  H14B21362   3.100   4.583   6.182 -0.3302  1.8729  1.6929
  186SLPC  H14C21363   2.979   4.717   6.157  0.4318  0.2288  2.2181
  186SLPC   C1521364   3.142   4.743   5.955 -0.8111  0.0986 -0.0952
  186SLPC  H15A21365   3.090   4.830   5.994  0.4229  2.2188 -2.8836
  186SLPC  H15B21366   3.231   4.740   6.016 -1.3910  1.9622  0.9115
  186SLPC  H15C21367   3.172   4.747   5.852  0.6403 -0.6041  0.2797
  186SLPC   C1221368   3.126   4.492   5.930 -0.9289 -0.4823 -0.5936
  186SLPC  H12A21369   3.135   4.489   5.823 -1.9677  1.1197 -0.7536
  186SLPC  H12B21370   3.059   4.411   5.957 -0.7116 -0.4211  0.1468
  186SLPC   C1121371   3.267   4.469   6.001  0.6218  0.1761  0.7259
  186SLPC  H11A21372   3.332   4.540   5.946  0.7393 -1.7358 -1.7951
  186SLPC  H11B21373   3.318   4.372   5.981  0.7940  0.9049 -2.9225
  186SLPC     P21374   3.423   4.514   6.203  0.3955  0.3310 -0.2480
  186SLPC   O1321375   3.488   4.381   6.185 -0.4247 -0.1298  0.3115
  186SLPC   O1421376   3.493   4.631   6.152  0.1947  0.0432 -0.0991
  186SLPC   O1221377   3.276   4.500   6.140 -0.1605 -0.3151  0.4925
  186SLPC   O1121378   3.404   4.541   6.355  0.3570 -0.1215 -0.1776
  186SLPC    C121379   3.277   4.548   6.426  0.1413 -0.1740  0.1864
  186SLPC    HA21380   3.210   4.472   6.380  2.8706 -1.9115 -1.1621
  186SLPC    HB21381   3.286   4.504   6.528 -1.5204 -2.9169 -0.7427
  186SLPC    C221382   3.236   4.694   6.424  0.3487 -1.0945  0.0531
  186SLPC    HS21383   3.230   4.724   6.317 -0.0842  1.0260  0.6179
  186SLPC   O2121384   3.347   4.776   6.475  0.1710 -0.2103  0.1557
  186SLPC   C2121385   3.338   4.905   6.474  0.5300  0.0466 -0.1936
  186SLPC   O2221386   3.245   4.963   6.419 -0.1772 -0.0955  0.9435
  186SLPC   C2221387   3.447   4.973   6.564  0.8139  0.1937 -0.3754
  186SLPC   H2R21388   3.541   4.976   6.505  1.3582  2.4243  0.4988
  186SLPC   H2S21389   3.418   5.071   6.607  0.2519 -1.2958  2.9338
  186SLPC    C321390   3.103   4.726   6.499  0.1206  0.1698 -0.2132
  186SLPC    HX21391   3.020   4.673   6.449  0.7266  0.2923 -1.3708
  186SLPC    HY21392   3.070   4.831   6.484  1.9728  0.7193 -0.6965
  186SLPC   O3121393   3.096   4.691   6.639 -0.6388  0.2908 -0.1011
  186SLPC   C3121394   3.072   4.786   6.729 -0.3611  0.5852 -0.3367
  186SLPC   O3221395   3.023   4.895   6.709  0.6005 -0.6299  0.6124
  186SLPC   C3221396   3.134   4.736   6.859  0.5630 -0.3530  0.1725
  186SLPC   H2X21397   3.237   4.705   6.829  0.6140 -0.2566  0.2460
  186SLPC   H2Y21398   3.068   4.652   6.889  0.0165 -0.3108 -0.8544
  186SLPC   C2321399   3.462   4.884   6.695  0.7524 -0.0638 -1.0208
  186SLPC   H3R21400   3.517   4.800   6.646  2.5047  0.1036  0.5634
  186SLPC   H3S21401   3.366   4.845   6.736  2.0046  0.0832  2.3080
  186SLPC   C2421402   3.544   4.960   6.798 -0.4478 -1.6622 -1.0350
  186SLPC   H4R21403   3.489   5.052   6.829  3.7665  0.3356  1.2613
  186SLPC   H4S21404   3.635   5.003   6.752  0.3091 -0.2191  1.6326
  186SLPC   C2521405   3.593   4.870   6.905 -0.0176 -0.3077 -0.0714
  186SLPC   H5R21406   3.628   4.776   6.858 -1.3496 -0.9598  0.2010
  186SLPC   H5S21407   3.511   4.846   6.976 -2.5577 -0.4030 -2.8692
  186SLPC   C2621408   3.705   4.926   6.992  0.6526  0.4100 -0.1488
  186SLPC   H6R21409   3.784   4.981   6.937  0.5069  1.8853  1.0569
  186SLPC   H6S21410   3.757   4.841   7.042 -1.2706 -1.6374 -1.4547
  186SLPC   C2721411   3.658   5.027   7.095  0.4322 -0.1537 -0.1354
  186SLPC   H7R21412   3.581   5.091   7.048 -0.6426 -0.9836  0.4500
  186SLPC   H7S21413   3.745   5.090   7.124  0.4453 -1.3114  2.7559
  186SLPC   C2821414   3.616   4.972   7.229  0.1591  0.1484  0.0024
  186SLPC   H8R21415   3.539   4.892   7.228  1.4713 -1.1749  0.4105
  186SLPC   H8S21416   3.569   5.056   7.285  0.1763  1.7333 -2.2355
  186SLPC   C2921417   3.732   4.917   7.308 -0.6903  0.3053  0.4247
  186SLPC   H9R21418   3.783   4.843   7.245  4.4812  3.2198  0.5822
  186SLPC  C21021419   3.776   4.942   7.436  0.2187 -0.5367  0.8096
  186SLPC  H10R21420   3.867   4.896   7.477  0.6819 -0.9138 -0.5779
  186SLPC  C21121421   3.711   5.037   7.539  0.3429 -0.1688  0.4403
  186SLPC  H11R21422   3.662   4.984   7.624 -2.5121  0.9758 -0.3617
  186SLPC  H11S21423   3.624   5.093   7.498 -1.1382 -0.6060  2.7582
  186SLPC  C21221424   3.816   5.137   7.594  0.4103 -0.4566  0.1010
  186SLPC  H12R21425   3.877   5.193   7.521  0.1008  2.8719  2.1838
  186SLPC  C21321426   3.851   5.160   7.725  0.2900  0.5220  0.4896
  186SLPC  H13R21427   3.937   5.224   7.752  2.3071 -1.7363 -0.1443
  186SLPC  C21421428   3.779   5.096   7.839 -0.1115 -0.0143  0.5287
  186SLPC  H14R21429   3.851   5.024   7.883  0.0316  0.1235  0.5193
  186SLPC  H14S21430   3.687   5.049   7.795 -0.5742 -0.2410  1.7088
  186SLPC  C21521431   3.732   5.178   7.962 -0.1900 -0.4480 -1.1020
  186SLPC  H15R21432   3.675   5.102   8.019 -0.6961 -0.7411 -1.9824
  186SLPC  H15S21433   3.666   5.261   7.930 -1.3655 -1.1868 -0.6370
  186SLPC  C21621434   3.843   5.231   8.057 -0.1176  0.7360 -0.6831
  186SLPC  H16R21435   3.884   5.323   8.011  0.2882  1.2813  0.6993
  186SLPC  H16S21436   3.929   5.163   8.066 -0.0390  0.9753  0.6548
  186SLPC  C21721437   3.783   5.260   8.196 -0.4724 -0.0597  0.3956
  186SLPC  H17R21438   3.743   5.167   8.242  0.5450 -0.1411  1.1492
  186SLPC  H17S21439   3.701   5.334   8.192 -0.3458  0.1249  1.0667
  186SLPC  C21821440   3.889   5.315   8.289  0.2732  0.0575  0.2799
  186SLPC  H18R21441   3.971   5.368   8.235 -1.2553  2.3818  0.0685
  186SLPC  H18S21442   3.941   5.237   8.348  1.2568  0.8066  0.4293
  186SLPC  H18T21443   3.837   5.391   8.351 -2.0537 -0.6890 -0.6632
  186SLPC   C3321444   3.143   4.847   6.960 -0.1540 -0.4368 -0.2727
  186SLPC   H3X21445   3.035   4.872   6.969  0.3819  1.4326  1.6737
  186SLPC   H3Y21446   3.193   4.933   6.912 -0.1690 -0.2580  0.0281
  186SLPC   C3421447   3.207   4.807   7.099  0.1469  0.5499  0.1232
  186SLPC   H4X21448   3.317   4.793   7.087  0.4716  1.5646  1.6406
  186SLPC   H4Y21449   3.156   4.724   7.151 -1.0616  1.6893  0.8261
  186SLPC   C3521450   3.186   4.912   7.204 -0.3685 -0.3319  0.0855
  186SLPC   H5X21451   3.079   4.939   7.218 -0.6394 -0.3896 -1.6972
  186SLPC   H5Y21452   3.252   4.994   7.169 -0.6493 -0.8149 -1.6698
  186SLPC   C3621453   3.241   4.876   7.340 -0.3400  0.2641 -0.1718
  186SLPC   H6X21454   3.351   4.855   7.340 -0.4582 -0.4047 -0.2178
  186SLPC   H6Y21455   3.203   4.778   7.377 -0.3872 -0.6714 -2.5407
  186SLPC   C3721456   3.198   4.979   7.438 -0.1752 -0.1394 -0.5450
  186SLPC   H7X21457   3.088   4.995   7.435  0.1363  3.1751  1.0926
  186SLPC   H7Y21458   3.253   5.071   7.408 -1.8434  2.0525  2.5675
  186SLPC   C3821459   3.251   4.944   7.580 -0.0259 -0.4681  0.2915
  186SLPC   H8X21460   3.354   4.902   7.580 -0.2959 -1.1357 -0.0432
  186SLPC   H8Y21461   3.176   4.869   7.614 -0.8171 -1.1288 -2.6111
  186SLPC   C3921462   3.232   5.054   7.685  0.7177  0.2500  0.4189
  186SLPC   H9X21463   3.122   5.056   7.696  0.2731 -1.7615 -2.5188
  186SLPC   H9Y21464   3.269   5.157   7.663  3.7938 -0.9164 -0.4705
  186SLPC  C31021465   3.302   5.013   7.812  0.1094 -0.2137 -0.5963
  186SLPC  H10X21466   3.403   4.984   7.776 -0.5539 -0.1799 -2.5861
  186SLPC  H10Y21467   3.245   4.926   7.850  1.7431 -1.3298 -0.5756
  186SLPC  C31121468   3.299   5.129   7.919  0.2063 -0.3806 -0.1549
  186SLPC  H11X21469   3.196   5.170   7.926  1.0406  1.5716  1.6502
  186SLPC  H11Y21470   3.369   5.208   7.886  1.0374 -1.4963 -1.1779
  186SLPC  C31221471   3.319   5.087   8.063  0.2110  0.0079 -0.0113
  186SLPC  H12X21472   3.426   5.054   8.062 -0.3055 -1.9044  1.5780
  186SLPC  H12Y21473   3.262   4.994   8.085  0.8297 -0.3200  0.2351
  186SLPC  C31321474   3.300   5.202   8.161  0.4582  0.0311  0.2445
  186SLPC  H13X21475   3.350   5.180   8.258  0.9464  1.2708  0.2868
  186SLPC  H13Y21476   3.191   5.196   8.176  0.2493  0.6126 -0.9281
  186SLPC  C31421477   3.343   5.342   8.127 -0.1445  0.4437  0.7532
  186SLPC  H14X21478   3.318   5.377   8.024  0.9817 -0.8021  0.0191
  186SLPC  H14Y21479   3.454   5.347   8.129 -0.0905  0.2984 -0.6117
  186SLPC  C31521480   3.294   5.442   8.237 -0.2884  0.1692 -0.3619
  186SLPC  H15X21481   3.351   5.424   8.331  1.2855  2.6864 -0.7500
  186SLPC  H15Y21482   3.189   5.417   8.262 -1.2311  0.5850 -3.4895
  186SLPC  C31621483   3.304   5.587   8.190  0.0168 -0.0127  0.8032
  186SLPC  H16X21484   3.213   5.618   8.133 -1.3050 -1.7306  1.8908
  186SLPC  H16Y21485   3.383   5.624   8.121 -1.2255  2.7687  0.7233
  186SLPC  C31721486   3.309   5.690   8.306 -0.3261  0.1420  0.4965
  186SLPC  H17X21487   3.398   5.666   8.369  2.0947 -0.6471 -2.9311
  186SLPC  H17Y21488   3.217   5.674   8.365 -0.5913 -0.2871 -0.0307
  186SLPC  C31821489   3.328   5.837   8.259 -0.2970 -0.5826  0.3796
  186SLPC  H18X21490   3.262   5.854   8.171 -0.0961 -0.3956  0.2655
  186SLPC  H18Y21491   3.434   5.841   8.226  0.1876  3.5675  1.8029
  186SLPC  H18Z21492   3.308   5.906   8.344 -1.9499  1.5981 -1.6559
  187SLPC     N21493   2.460   2.439   6.369  0.4997 -0.0132 -0.1537
  187SLPC   C1321494   2.334   2.471   6.442 -0.6115 -0.4015  0.0397
  187SLPC  H13A21495   2.276   2.544   6.387  2.0092  0.1810 -2.1749
  187SLPC  H13B21496   2.278   2.384   6.472  1.2556 -1.4985  0.4611
  187SLPC  H13C21497   2.358   2.526   6.532  2.4565 -1.6286  0.1072
  187SLPC   C1421498   2.526   2.560   6.314 -0.3554  0.0302  0.3278
  187SLPC  H14A21499   2.473   2.614   6.237 -0.1495  1.9712  1.4529
  187SLPC  H14B21500   2.541   2.634   6.392 -0.5017  0.0389  0.3494
  187SLPC  H14C21501   2.622   2.541   6.270 -1.5659 -0.8297 -2.1349
  187SLPC   C1521502   2.426   2.355   6.248 -0.4756  0.4283 -0.6388
  187SLPC  H15A21503   2.348   2.397   6.187 -2.0860 -1.1821  0.2063
  187SLPC  H15B21504   2.518   2.339   6.194  0.0931  1.0115  0.1295
  187SLPC  H15C21505   2.398   2.254   6.271 -1.0252  0.6966 -0.0989
  187SLPC   C1221506   2.560   2.373   6.462  0.0279  0.2166  0.0570
  187SLPC  H12A21507   2.598   2.443   6.534 -1.3193 -0.6852  1.7153
  187SLPC  H12B21508   2.643   2.351   6.396  1.0575  2.4618  0.5070
  187SLPC   C1121509   2.532   2.244   6.548 -0.8328  0.2980  0.0186
  187SLPC  H11A21510   2.448   2.261   6.619 -2.3111 -1.9301 -1.0830
  187SLPC  H11B21511   2.622   2.215   6.606 -1.5923  2.5566  2.5452
  187SLPC     P21512   2.614   2.046   6.385  0.3465 -0.3739  0.2925
  187SLPC   O1321513   2.543   1.942   6.305 -0.0443  0.3020 -0.5778
  187SLPC   O1421514   2.715   2.132   6.326 -0.9639  0.2204 -0.2894
  187SLPC   O1221515   2.499   2.140   6.458 -0.0577  0.1992  0.0745
  187SLPC   O1121516   2.677   1.970   6.505 -0.5644  0.1403 -0.6289
  187SLPC    C121517   2.815   1.970   6.538  0.1154  0.5213 -0.4842
  187SLPC    HA21518   2.870   1.939   6.446  0.1375  3.5811 -1.6343
  187SLPC    HB21519   2.842   2.071   6.576  0.4212  0.2010  0.1632
  187SLPC    C221520   2.844   1.864   6.642 -0.9766 -0.4481  0.7061
  187SLPC    HS21521   2.802   1.765   6.612  0.8978 -0.4291 -2.4145
  187SLPC   O2121522   2.789   1.913   6.762 -0.0500  0.0491 -0.2348
  187SLPC   C2121523   2.657   1.888   6.778 -0.8101  0.4352 -0.4841
  187SLPC   O2221524   2.592   1.804   6.720  0.4132 -0.0183  0.3857
  187SLPC   C2221525   2.607   1.966   6.896 -0.0003  0.1078 -0.2430
  187SLPC   H2R21526   2.693   2.030   6.927 -0.6721  1.6806 -1.4510
  187SLPC   H2S21527   2.525   2.039   6.879 -0.1469  0.4334  1.5726
  187SLPC    C321528   2.994   1.843   6.654  0.5019 -0.0622 -0.2146
  187SLPC    HX21529   3.040   1.944   6.655 -2.5401  1.4328  0.6547
  187SLPC    HY21530   3.028   1.777   6.571 -4.1822 -3.0651 -0.1833
  187SLPC   O3121531   3.018   1.765   6.771 -0.0865 -0.1640  0.0521
  187SLPC   C3121532   3.080   1.831   6.867 -0.0470  0.4602  0.6366
  187SLPC   O3221533   3.132   1.941   6.861 -0.0052  0.0966 -0.1065
  187SLPC   C3221534   3.093   1.726   6.979  0.3512  0.5324 -0.6702
  187SLPC   H2X21535   3.119   1.778   7.074 -1.8373  1.4824 -0.5336
  187SLPC   H2Y21536   3.176   1.656   6.955  0.5669  0.3410  0.5394
  187SLPC   C2321537   2.564   1.877   7.014  0.0211 -0.2022  0.2591
  187SLPC   H3R21538   2.649   1.816   7.049  2.0589  1.3365 -1.7497
  187SLPC   H3S21539   2.484   1.805   6.987  0.7183 -0.9165  0.0999
  187SLPC   C2421540   2.517   1.969   7.128  0.2924  0.6129  0.5961
  187SLPC   H4R21541   2.430   2.033   7.103 -0.9579 -1.5423 -0.9575
  187SLPC   H4S21542   2.597   2.037   7.165  1.1343  0.1786 -0.3782
  187SLPC   C2521543   2.489   1.878   7.254 -0.2542 -0.3554 -0.0742
  187SLPC   H5R21544   2.570   1.803   7.265 -0.3771 -0.3679  0.8344
  187SLPC   H5S21545   2.390   1.828   7.243 -0.4675  0.1727 -0.5797
  187SLPC   C2621546   2.487   1.954   7.388  0.4893 -0.4000 -0.4140
  187SLPC   H6R21547   2.404   2.026   7.373  0.5476 -0.3707 -0.6001
  187SLPC   H6S21548   2.582   2.011   7.391  0.7063 -0.7597 -0.3600
  187SLPC   C2721549   2.479   1.865   7.520 -0.1910 -0.2704 -0.8844
  187SLPC   H7R21550   2.551   1.780   7.525 -0.0673 -0.0862  1.4723
  187SLPC   H7S21551   2.376   1.824   7.512 -0.4670  0.4737 -1.2336
  187SLPC   C2821552   2.480   1.933   7.665 -0.5507 -0.3510  0.0124
  187SLPC   H8R21553   2.397   2.007   7.658 -1.2634 -1.2194 -0.9176
  187SLPC   H8S21554   2.578   1.985   7.673 -0.2649 -1.1541  3.2735
  187SLPC   C2921555   2.455   1.833   7.772 -0.7069 -0.4707  0.5833
  187SLPC   H9R21556   2.350   1.810   7.794 -0.9820 -0.4458 -0.6522
  187SLPC  C21021557   2.552   1.778   7.837  0.1288  0.6534 -0.6677
  187SLPC  H10R21558   2.526   1.717   7.925  0.7020  1.5853  0.1767
  187SLPC  C21121559   2.697   1.793   7.806 -0.4988  0.2287 -0.8584
  187SLPC  H11R21560   2.737   1.863   7.882 -0.4376 -0.7479  0.0425
  187SLPC  H11S21561   2.713   1.845   7.710  1.6715  3.9254  1.2767
  187SLPC  C21221562   2.771   1.662   7.800  0.0926 -0.5473 -0.6527
  187SLPC  H12R21563   2.817   1.650   7.701 -0.9238  1.4402 -1.4345
  187SLPC  C21321564   2.789   1.566   7.893  0.9682 -0.3439  0.2635
  187SLPC  H13R21565   2.855   1.480   7.876  0.3106 -0.9044  0.4896
  187SLPC  C21421566   2.734   1.559   8.031  0.1818 -0.3092  0.7304
  187SLPC  H14R21567   2.649   1.489   8.044 -1.9448  1.3481 -2.8146
  187SLPC  H14S21568   2.711   1.663   8.062  1.1046  0.6512 -1.5248
  187SLPC  C21521569   2.840   1.499   8.119 -0.3180 -0.4179  0.3939
  187SLPC  H15R21570   2.912   1.582   8.133 -1.1910  0.4817 -0.3321
  187SLPC  H15S21571   2.892   1.414   8.069  1.0146  0.2125  0.6683
  187SLPC  C21621572   2.786   1.453   8.262  0.0913  1.1509  0.7587
  187SLPC  H16R21573   2.699   1.515   8.290 -1.2927  0.0863 -0.9589
  187SLPC  H16S21574   2.858   1.482   8.342  0.2155  1.1769  0.6380
  187SLPC  C21721575   2.751   1.305   8.269  0.0223  0.2771  0.2503
  187SLPC  H17R21576   2.842   1.249   8.302 -0.4485  1.0721  3.1255
  187SLPC  H17S21577   2.713   1.269   8.171 -1.4189  0.2796  0.7916
  187SLPC  C21821578   2.655   1.287   8.393  0.8166 -0.0053  0.2748
  187SLPC  H18R21579   2.704   1.323   8.486  3.0117 -2.5607  0.2509
  187SLPC  H18S21580   2.622   1.185   8.423 -0.6008  0.5744  0.7709
  187SLPC  H18T21581   2.571   1.352   8.361  1.7439  1.7337  1.2853
  187SLPC   C3321582   2.966   1.650   6.996  0.8751  0.5665 -0.8934
  187SLPC   H3X21583   2.931   1.590   6.909  0.4721  0.0711 -0.3958
  187SLPC   H3Y21584   2.879   1.707   7.036 -0.1359 -1.4970  0.0528
  187SLPC   C3421585   2.980   1.530   7.095 -0.0114  0.4108  0.2099
  187SLPC   H4X21586   3.062   1.457   7.079 -0.5256 -0.8266  2.6959
  187SLPC   H4Y21587   2.890   1.466   7.084  1.4230 -1.4861 -1.2015
  187SLPC   C3521588   2.972   1.569   7.244 -0.2462 -0.5451  0.1446
  187SLPC   H5X21589   2.871   1.611   7.266  0.5262  1.2806  0.3973
  187SLPC   H5Y21590   3.037   1.650   7.283 -2.8937  0.8013  2.0841
  187SLPC   C3621591   3.012   1.446   7.334 -0.4142  0.1824 -0.5197
  187SLPC   H6X21592   3.121   1.436   7.311 -0.2631 -1.1020  0.5930
  187SLPC   H6Y21593   2.957   1.359   7.295 -0.0803 -0.3949  0.2570
  187SLPC   C3721594   2.992   1.448   7.492  0.3881  0.0342  0.8915
  187SLPC   H7X21595   3.029   1.545   7.533 -0.4265  0.0373  1.6686
  187SLPC   H7Y21596   2.881   1.457   7.498  0.0920 -1.5963 -1.2019
  187SLPC   C3821597   3.053   1.324   7.559 -0.1908 -0.3232  0.0848
  187SLPC   H8X21598   3.161   1.317   7.533  0.1845 -2.2110  1.8783
  187SLPC   H8Y21599   3.001   1.239   7.510  0.8878 -1.6039  1.0929
  187SLPC   C3921600   3.013   1.320   7.705 -0.6580  0.0107  0.2266
  187SLPC   H9X21601   2.904   1.311   7.685 -0.2176 -1.8815 -1.6850
  187SLPC   H9Y21602   3.044   1.417   7.751  2.3583 -1.0955  0.7681
  187SLPC  C31021603   3.065   1.185   7.772 -0.3092 -0.0592 -0.1273
  187SLPC  H10X21604   3.174   1.200   7.786 -0.2041  0.3523 -1.2396
  187SLPC  H10Y21605   3.063   1.106   7.693 -1.8933 -0.7695  0.5647
  187SLPC  C31121606   2.996   1.134   7.895 -0.2540  0.0841 -0.2036
  187SLPC  H11X21607   2.886   1.125   7.876 -0.1810 -0.5370 -0.3608
  187SLPC  H11Y21608   3.002   1.203   7.981 -1.8174 -2.5270  2.1738
  187SLPC  C31221609   3.037   0.989   7.932  0.3255  0.4757 -0.1512
  187SLPC  H12X21610   3.133   0.966   7.881  0.3363 -1.2245  0.5878
  187SLPC  H12Y21611   2.962   0.920   7.888  1.0047  0.6108 -1.6111
  187SLPC  C31321612   3.041   0.954   8.077 -0.0235 -0.6051  0.7602
  187SLPC  H13X21613   3.108   1.023   8.132  2.4760 -1.8238 -0.5619
  187SLPC  H13Y21614   3.084   0.853   8.095 -0.1870 -0.7998  0.0943
  187SLPC  C31421615   2.900   0.936   8.132 -0.4848  0.2141  0.0360
  187SLPC  H14X21616   2.850   0.850   8.082 -1.7001  1.9674 -1.8795
  187SLPC  H14Y21617   2.846   1.024   8.092 -2.2225  0.2807  2.3004
  187SLPC  C31521618   2.879   0.943   8.288  0.1333  0.1152 -0.9701
  187SLPC  H15X21619   2.899   1.046   8.324  0.2305 -0.0438 -0.5678
  187SLPC  H15Y21620   2.941   0.862   8.332 -4.1774 -3.2176 -0.3548
  187SLPC  C31621621   2.737   0.918   8.324  0.4553  0.2354 -0.0936
  187SLPC  H16X21622   2.713   0.822   8.274 -0.5219 -0.1241  1.0141
  187SLPC  H16Y21623   2.667   0.992   8.280 -0.4739  0.1446  1.1670
  187SLPC  C31721624   2.713   0.904   8.479  0.2732  0.3077  0.5184
  187SLPC  H17X21625   2.744   1.000   8.526  1.7154 -0.3052  0.8746
  187SLPC  H17Y21626   2.784   0.828   8.518 -0.0942 -0.2158  0.1708
  187SLPC  C31821627   2.566   0.872   8.529  0.0041 -0.6563  0.4439
  187SLPC  H18X21628   2.564   0.862   8.639  0.3386  0.2419  0.5365
  187SLPC  H18Y21629   2.528   0.775   8.491 -0.3030 -0.6289  0.6777
  187SLPC  H18Z21630   2.506   0.957   8.489  2.8256  1.6232  0.6910
  188SLPC     N21631   3.653   3.659   6.201 -0.4376  0.0970 -0.5263
  188SLPC   C1321632   3.695   3.801   6.169 -0.5964  0.1022  0.3501
  188SLPC  H13A21633   3.795   3.819   6.206 -0.5080 -0.7881  0.5544
  188SLPC  H13B21634   3.678   3.825   6.065 -1.2682 -1.0590  0.1722
  188SLPC  H13C21635   3.634   3.873   6.221  0.8866  1.1383  0.7345
  188SLPC   C1421636   3.720   3.569   6.098  0.2177  0.0203  0.2921
  188SLPC  H14A21637   3.711   3.465   6.126 -0.6899 -0.3757 -1.3187
  188SLPC  H14B21638   3.688   3.580   5.995 -0.7916  0.6331  0.6632
  188SLPC  H14C21639   3.826   3.586   6.100  0.5482 -0.9699 -2.6531
  188SLPC   C1521640   3.507   3.662   6.180 -0.2010  0.5128  0.1940
  188SLPC  H15A21641   3.495   3.706   6.082  1.3103  1.7253  0.5115
  188SLPC  H15B21642   3.466   3.562   6.178  1.0369 -0.0911 -3.6345
  188SLPC  H15C21643   3.456   3.720   6.256 -2.2927 -1.6170  0.5436
  188SLPC   C1221644   3.694   3.619   6.337  0.6226  0.3489 -0.8349
  188SLPC  H12A21645   3.649   3.523   6.358  0.4555  0.3903 -0.9979
  188SLPC  H12B21646   3.656   3.693   6.407  2.4954  0.7085 -0.1562
  188SLPC   C1121647   3.843   3.598   6.363 -0.6297 -0.5832  0.7945
  188SLPC  H11A21648   3.857   3.589   6.473  0.4518  0.8122  0.7987
  188SLPC  H11B21649   3.898   3.689   6.330  0.0210 -1.1299  0.3606
  188SLPC     P21650   3.874   3.339   6.317 -0.3315 -0.0653  0.0152
  188SLPC   O1321651   3.733   3.316   6.292  0.4879  0.3008 -0.2432
  188SLPC   O1421652   3.970   3.248   6.249  0.7317 -0.2913 -0.0300
  188SLPC   O1221653   3.902   3.489   6.295  0.0285 -0.0981 -0.1328
  188SLPC   O1121654   3.899   3.322   6.476 -0.2616  0.8266  0.3953
  188SLPC    C121655   3.921   3.194   6.530  0.2620 -0.2967  0.3140
  188SLPC    HA21656   3.818   3.150   6.529  0.0049  0.3121 -0.1856
  188SLPC    HB21657   3.993   3.134   6.470 -0.5349 -0.4285 -0.5294
  188SLPC    C221658   3.980   3.191   6.674 -0.2419  0.9688  0.1631
  188SLPC    HS21659   4.021   3.089   6.689  0.2926  1.1707  0.0845
  188SLPC   O2121660   3.877   3.226   6.769  0.1344  0.5898 -0.1017
  188SLPC   C2121661   3.871   3.162   6.888 -1.0010 -0.5447 -0.0137
  188SLPC   O2221662   3.930   3.056   6.908  0.1184 -0.0230 -0.4972
  188SLPC   C2221663   3.777   3.240   6.978 -0.5419  0.9637  0.3758
  188SLPC   H2R21664   3.812   3.345   6.982  0.9209  0.4788  1.7682
  188SLPC   H2S21665   3.679   3.230   6.928 -1.5990  3.1521  1.8318
  188SLPC    C321666   4.104   3.280   6.678  0.3751  0.5749 -0.3419
  188SLPC    HX21667   4.095   3.383   6.637 -0.0040 -0.7683 -4.0021
  188SLPC    HY21668   4.181   3.230   6.615 -0.1274 -3.4381  1.8337
  188SLPC   O3121669   4.160   3.280   6.808  0.0818 -0.7984 -0.1809
  188SLPC   C3121670   4.223   3.176   6.847 -0.6036 -0.1876 -0.4854
  188SLPC   O3221671   4.251   3.078   6.780  0.0175 -0.0837 -0.6840
  188SLPC   C3221672   4.234   3.172   7.006  0.0341 -0.0435  1.0014
  188SLPC   H2X21673   4.154   3.109   7.050  0.7031 -1.0274  0.8577
  188SLPC   H2Y21674   4.229   3.275   7.047  2.2647  0.4918  0.1080
  188SLPC   C2321675   3.766   3.176   7.123  0.2403  0.1645 -0.2814
  188SLPC   H3R21676   3.725   3.073   7.117  0.1355  0.2213 -0.5907
  188SLPC   H3S21677   3.681   3.232   7.169  1.2188  2.5570 -1.2209
  188SLPC   C2421678   3.888   3.194   7.210  0.2553 -0.4591  0.0146
  188SLPC   H4R21679   3.933   3.291   7.178  0.7144 -0.7499 -0.2223
  188SLPC   H4S21680   3.964   3.116   7.190  1.0682  0.3728 -0.2398
  188SLPC   C2521681   3.859   3.192   7.363  0.0285  0.2986  0.3200
  188SLPC   H5R21682   3.832   3.088   7.392 -1.1207  0.5066  0.0427
  188SLPC   H5S21683   3.773   3.257   7.388 -0.7005 -1.2746  2.1706
  188SLPC   C2621684   3.974   3.240   7.454 -0.1489  0.0716  0.0653
  188SLPC   H6R21685   4.048   3.307   7.404  1.0819  0.5431  2.3492
  188SLPC   H6S21686   4.029   3.149   7.488 -2.3714 -1.6966 -0.8293
  188SLPC   C2721687   3.911   3.301   7.589 -0.2081 -0.3885 -0.1567
  188SLPC   H7R21688   3.875   3.211   7.643 -1.9070 -0.2680 -1.0382
  188SLPC   H7S21689   3.832   3.377   7.573 -0.4859 -0.4777  0.7076
  188SLPC   C2821690   4.018   3.356   7.683 -0.1290 -0.6845 -0.2987
  188SLPC   H8R21691   4.066   3.437   7.625  1.5460 -0.5727  1.1688
  188SLPC   H8S21692   4.086   3.269   7.696  0.6652 -0.4645 -2.5895
  188SLPC   C2921693   3.952   3.405   7.807 -0.1174 -0.1745  0.3906
  188SLPC   H9R21694   3.905   3.502   7.785  0.8202  0.4104  0.8990
  188SLPC  C21021695   3.956   3.356   7.930 -0.6391  0.1887 -0.3108
  188SLPC  H10R21696   3.888   3.403   8.003 -0.5149  1.2387 -0.8515
  188SLPC  C21121697   4.026   3.236   7.981 -0.1852 -0.0631 -0.6753
  188SLPC  H11R21698   4.120   3.260   8.036 -0.0530  0.3546 -1.0734
  188SLPC  H11S21699   4.057   3.169   7.898  0.9601 -0.0063 -0.3092
  188SLPC  C21221700   3.922   3.151   8.061  0.2858 -0.1945  0.4609
  188SLPC  H12R21701   3.854   3.100   7.991  1.3765  0.3444 -1.0620
  188SLPC  C21321702   3.898   3.152   8.192 -0.6299  0.0607 -0.5504
  188SLPC  H13R21703   3.827   3.080   8.236 -1.8816  2.8278  2.3221
  188SLPC  C21421704   3.989   3.232   8.286  0.4325  0.9596 -0.7423
  188SLPC  H14R21705   4.082   3.273   8.241  0.6901 -1.9659 -3.2290
  188SLPC  H14S21706   4.011   3.159   8.366 -3.4453  0.0608 -0.2879
  188SLPC  C21521707   3.919   3.349   8.363  0.4622 -0.2217  0.2765
  188SLPC  H15R21708   3.880   3.306   8.458  0.9781  0.3230  0.7316
  188SLPC  H15S21709   3.839   3.401   8.305 -0.4124 -0.1208  1.5441
  188SLPC  C21621710   4.013   3.460   8.409  0.3679 -0.6179 -0.2751
  188SLPC  H16R21711   4.087   3.497   8.335  1.1476 -0.1816  0.6965
  188SLPC  H16S21712   4.058   3.423   8.504 -1.8894  0.7537  1.4425
  188SLPC  C21721713   3.927   3.586   8.452 -0.5979 -0.2655 -0.0588
  188SLPC  H17R21714   3.846   3.553   8.521 -2.3439  1.0863 -1.3393
  188SLPC  H17S21715   3.870   3.626   8.365  0.1516  2.5499  0.6427
  188SLPC  C21821716   4.009   3.701   8.515  0.0945  0.5630 -0.5767
  188SLPC  H18R21717   3.956   3.799   8.508 -1.0842 -0.0587 -0.5963
  188SLPC  H18S21718   4.111   3.696   8.473  1.0831  0.5617  1.6497
  188SLPC  H18T21719   4.023   3.683   8.624  0.8486  2.6641 -0.2749
  188SLPC   C3321720   4.368   3.108   7.053 -0.0172 -0.1608  0.1087
  188SLPC   H3X21721   4.457   3.164   7.018 -0.3161 -0.5904 -1.4467
  188SLPC   H3Y21722   4.389   3.004   7.020  2.9546  0.6162 -0.7583
  188SLPC   C3421723   4.368   3.116   7.205 -0.4130  0.1787 -0.0234
  188SLPC   H4X21724   4.461   3.058   7.228 -0.2173  0.9229  1.1403
  188SLPC   H4Y21725   4.290   3.051   7.251 -0.0218 -0.1338  0.2184
  188SLPC   C3521726   4.385   3.252   7.261  0.0227 -0.3560  0.9313
  188SLPC   H5X21727   4.287   3.302   7.252  0.3540  0.4236  1.5462
  188SLPC   H5Y21728   4.456   3.308   7.197  0.4983 -0.7447  1.1112
  188SLPC   C3621729   4.434   3.257   7.408  0.7907 -0.1465  0.4120
  188SLPC   H6X21730   4.433   3.360   7.451  0.1540 -0.5558  1.4145
  188SLPC   H6Y21731   4.542   3.237   7.397  0.6666  0.2693 -2.3708
  188SLPC   C3721732   4.363   3.155   7.489 -0.5905  0.1602  0.0555
  188SLPC   H7X21733   4.415   3.059   7.469 -1.1889  0.2933 -2.4780
  188SLPC   H7Y21734   4.258   3.137   7.458 -0.9009 -2.9597  2.4172
  188SLPC   C3821735   4.384   3.181   7.638 -0.5739  0.2009  0.7975
  188SLPC   H8X21736   4.320   3.267   7.668 -0.9500  0.0085  0.5561
  188SLPC   H8Y21737   4.490   3.205   7.664 -0.7226  1.0884  0.6193
  188SLPC   C3921738   4.352   3.060   7.726 -0.3592 -0.2303  0.1481
  188SLPC   H9X21739   4.398   2.962   7.701  1.3676  0.4833  0.3620
  188SLPC   H9Y21740   4.242   3.045   7.722 -0.5600  0.8317  0.9963
  188SLPC  C31021741   4.374   3.092   7.875 -0.2528  0.3219  0.3674
  188SLPC  H10X21742   4.307   3.178   7.894 -0.1337  0.8914 -1.5839
  188SLPC  H10Y21743   4.478   3.130   7.889 -0.4487  0.2005  2.3713
  188SLPC  C31121744   4.324   2.974   7.968  0.2077 -0.6229 -0.9421
  188SLPC  H11X21745   4.385   2.883   7.955  1.6956 -0.1809  1.9797
  188SLPC  H11Y21746   4.219   2.957   7.937 -0.8670 -1.0452  2.4351
  188SLPC  C31221747   4.339   3.017   8.119 -0.0385  0.1410 -0.5079
  188SLPC  H12X21748   4.297   3.119   8.128  0.1930  0.6828 -3.9681
  188SLPC  H12Y21749   4.447   3.028   8.143 -0.4425  0.7719  1.1153
  188SLPC  C31321750   4.269   2.925   8.219 -0.1539  0.3760 -0.7547
  188SLPC  H13X21751   4.159   2.933   8.231 -0.4138 -1.7807 -1.2050
  188SLPC  H13Y21752   4.321   2.943   8.316 -2.1742  0.2404  0.4256
  188SLPC  C31421753   4.308   2.768   8.200  0.0391 -0.1263 -0.1270
  188SLPC  H14X21754   4.413   2.760   8.233 -0.7586  0.5379  2.8116
  188SLPC  H14Y21755   4.303   2.745   8.091  2.2632  2.8991 -0.9765
  188SLPC  C31521756   4.226   2.676   8.294  0.2978 -0.4868  0.3566
  188SLPC  H15X21757   4.125   2.662   8.250 -0.0063  2.7629 -0.2716
  188SLPC  H15Y21758   4.210   2.744   8.380  0.2069  2.5567 -1.8705
  188SLPC  C31621759   4.297   2.553   8.341  0.3446 -0.5180 -0.1620
  188SLPC  H16X21760   4.394   2.584   8.385  0.2864 -1.4340  0.6610
  188SLPC  H16Y21761   4.309   2.489   8.251  0.8362 -0.2345 -0.2951
  188SLPC  C31721762   4.218   2.486   8.454 -0.2676 -0.1334 -0.5073
  188SLPC  H17X21763   4.122   2.460   8.405 -1.2490  1.4342  0.4828
  188SLPC  H17Y21764   4.195   2.568   8.526  0.4840 -2.5643  2.7177
  188SLPC  C31821765   4.281   2.363   8.520  0.5179 -0.3130 -0.0830
  188SLPC  H18X21766   4.219   2.305   8.592  1.9071 -1.7141  0.0481
  188SLPC  H18Y21767   4.377   2.380   8.573 -0.0274  0.5099  0.6619
  188SLPC  H18Z21768   4.307   2.291   8.439 -1.0538 -0.0309 -0.8718
  189SLPC     N21769   1.577   4.013   6.204  0.2162  0.3003 -0.0581
  189SLPC   C1321770   1.725   4.015   6.227 -0.0987 -1.1886  0.5099
  189SLPC  H13A21771   1.754   3.915   6.259  1.4837 -1.1559 -0.7216
  189SLPC  H13B21772   1.793   4.046   6.149 -0.4983 -0.9949  0.2353
  189SLPC  H13C21773   1.744   4.079   6.312 -2.1642  1.7196 -1.0502
  189SLPC   C1421774   1.517   3.989   6.334 -0.1084  0.0430 -0.1987
  189SLPC  H14A21775   1.563   3.909   6.389 -0.5194 -0.4047 -0.5012
  189SLPC  H14B21776   1.514   4.080   6.392  0.5636  1.5834 -2.4355
  189SLPC  H14C21777   1.411   3.972   6.328 -0.0818 -0.3936  0.4621
  189SLPC   C1521778   1.544   3.903   6.113 -0.0465 -0.5913  0.3407
  189SLPC  H15A21779   1.555   3.931   6.009 -2.2505  1.1114  0.4734
  189SLPC  H15B21780   1.593   3.809   6.132 -0.1844 -0.7185  0.0747
  189SLPC  H15C21781   1.441   3.875   6.128 -0.6032  0.0121 -1.8975
  189SLPC   C1221782   1.528   4.154   6.137 -0.7108  0.2341 -0.8667
  189SLPC  H12A21783   1.422   4.136   6.119 -0.4665 -2.3210 -0.1954
  189SLPC  H12B21784   1.571   4.159   6.038 -1.4767  3.1203 -1.1370
  189SLPC   C1121785   1.538   4.282   6.218  0.5027  0.5063  0.1065
  189SLPC  H11A21786   1.524   4.372   6.154 -0.3132  0.7284  0.5847
  189SLPC  H11B21787   1.635   4.289   6.273  0.3391  1.1196  0.3268
  189SLPC     P21788   1.293   4.344   6.293  0.1364 -0.0051 -0.2713
  189SLPC   O1321789   1.267   4.417   6.165 -0.3575  1.0171 -0.3651
  189SLPC   O1421790   1.186   4.247   6.324 -0.1359  0.0446  0.0782
  189SLPC   O1221791   1.434   4.284   6.312 -0.1767  0.3842 -0.2453
  189SLPC   O1121792   1.290   4.448   6.414  0.6246  0.0715 -0.1024
  189SLPC    C121793   1.416   4.510   6.463 -0.3912  0.1199 -0.2548
  189SLPC    HA21794   1.490   4.548   6.389  1.4800 -0.1895  1.3825
  189SLPC    HB21795   1.380   4.606   6.505 -1.4154 -0.0040 -0.8195
  189SLPC    C221796   1.496   4.437   6.579  0.3925 -0.5816  0.9370
  189SLPC    HS21797   1.575   4.379   6.527 -0.8390  0.0601 -1.8211
  189SLPC   O2121798   1.394   4.377   6.667  0.1145  0.1219 -0.5555
  189SLPC   C2121799   1.370   4.253   6.651 -0.3976  0.0083 -0.7330
  189SLPC   O2221800   1.430   4.179   6.572  0.1719 -0.4525 -0.8980
  189SLPC   C2221801   1.256   4.201   6.749 -0.4728  0.5857  0.5569
  189SLPC   H2R21802   1.180   4.160   6.679  1.3391 -0.4832 -0.8992
  189SLPC   H2S21803   1.296   4.107   6.793  1.6822  0.5442 -1.3419
  189SLPC    C321804   1.573   4.548   6.654 -0.2170  0.1587 -0.4086
  189SLPC    HX21805   1.498   4.624   6.687  0.1427  1.2748 -2.0249
  189SLPC    HY21806   1.640   4.604   6.585 -1.3287 -0.9401 -2.4892
  189SLPC   O3121807   1.641   4.494   6.772 -0.1943 -0.4305  0.4268
  189SLPC   C3121808   1.765   4.446   6.754  0.0414 -0.7524  0.2677
  189SLPC   O3221809   1.825   4.435   6.649 -0.3422 -0.2183  0.1919
  189SLPC   C3221810   1.819   4.424   6.895 -0.2631  0.0670  0.1904
  189SLPC   H2X21811   1.812   4.527   6.935  0.5988  0.6231 -1.0382
  189SLPC   H2Y21812   1.922   4.383   6.886  0.4449  0.1819  4.9539
  189SLPC   C2321813   1.204   4.297   6.852 -0.7569 -0.0530  0.4415
  189SLPC   H3R21814   1.122   4.245   6.906  0.3380 -1.9292  0.3945
  189SLPC   H3S21815   1.164   4.394   6.817  0.0514 -0.4325 -1.6976
  189SLPC   C2421816   1.317   4.325   6.958 -0.6294  0.0532 -0.3167
  189SLPC   H4R21817   1.403   4.384   6.918  1.2766 -1.7318  0.9396
  189SLPC   H4S21818   1.360   4.224   6.977 -0.8552  0.1073  0.5042
  189SLPC   C2521819   1.266   4.388   7.091  0.5038 -0.2440 -0.4205
  189SLPC   H5R21820   1.165   4.345   7.110  1.5172 -1.8686  1.7079
  189SLPC   H5S21821   1.268   4.498   7.081  1.0656 -0.2934 -0.8958
  189SLPC   C2621822   1.361   4.352   7.203 -0.6503  0.5961  0.0564
  189SLPC   H6R21823   1.453   4.412   7.184  0.3434 -1.2124 -1.2301
  189SLPC   H6S21824   1.380   4.242   7.201  1.5096  0.9145 -1.9471
  189SLPC   C2721825   1.296   4.392   7.334  0.0524 -0.4001  0.2862
  189SLPC   H7R21826   1.223   4.313   7.363 -0.0910 -0.4897 -0.3114
  189SLPC   H7S21827   1.224   4.474   7.313  0.3571 -0.6031 -1.7714
  189SLPC   C2821828   1.391   4.439   7.444 -0.4348  0.7358 -0.0173
  189SLPC   H8R21829   1.316   4.475   7.518 -3.5070 -1.3130 -1.8957
  189SLPC   H8S21830   1.455   4.523   7.410 -0.4120  1.3035  1.3720
  189SLPC   C2921831   1.468   4.322   7.497 -0.9414 -0.2782 -0.7156
  189SLPC   H9R21832   1.520   4.258   7.424 -2.9163  0.6287 -3.0516
  189SLPC  C21021833   1.469   4.281   7.624 -0.4836 -0.3074 -0.0779
  189SLPC  H10R21834   1.536   4.197   7.649 -0.4195 -0.3115 -0.2612
  189SLPC  C21121835   1.408   4.343   7.743  0.0777  0.0517  0.8378
  189SLPC  H11R21836   1.311   4.293   7.763 -1.0503  1.1208 -1.5703
  189SLPC  H11S21837   1.361   4.442   7.725  0.6962  0.5595  1.8909
  189SLPC  C21221838   1.501   4.325   7.866  0.0462  0.1642 -0.1046
  189SLPC  H12R21839   1.566   4.409   7.896  0.2883 -0.3239  0.7672
  189SLPC  C21321840   1.510   4.219   7.949  0.5934  0.1324  0.1732
  189SLPC  H13R21841   1.584   4.210   8.030 -0.3340 -1.3762  0.8998
  189SLPC  C21421842   1.428   4.099   7.945  0.6868  0.3932 -0.4517
  189SLPC  H14R21843   1.480   4.009   7.907 -0.3071 -0.1437 -0.5581
  189SLPC  H14S21844   1.339   4.106   7.879 -0.0010  3.3071  0.6433
  189SLPC  C21521845   1.379   4.078   8.092  0.6083 -0.6689  0.1241
  189SLPC  H15R21846   1.279   4.032   8.084  0.8203 -1.3732  1.2482
  189SLPC  H15S21847   1.377   4.168   8.158  2.4419  0.4754 -1.2868
  189SLPC  C21621848   1.475   3.990   8.181 -0.1585 -0.7372 -0.2138
  189SLPC  H16R21849   1.567   4.050   8.199  0.3874 -1.2398 -1.2681
  189SLPC  H16S21850   1.491   3.895   8.127  0.6868  0.3493 -1.9404
  189SLPC  C21721851   1.407   3.969   8.319 -0.7273  0.3055 -0.5105
  189SLPC  H17R21852   1.317   3.906   8.303  0.3439 -1.7163  0.9673
  189SLPC  H17S21853   1.369   4.061   8.369  0.0079 -0.2053  1.0533
  189SLPC  C21821854   1.497   3.890   8.422 -0.2852  0.2426  0.3502
  189SLPC  H18R21855   1.523   3.792   8.377 -2.3627  0.4077 -1.3502
  189SLPC  H18S21856   1.438   3.861   8.511 -1.1981 -1.5455 -0.7856
  189SLPC  H18T21857   1.591   3.940   8.455 -0.1568  0.3097 -0.1121
  189SLPC   C3321858   1.729   4.325   6.972 -0.1320  0.8896 -0.2267
  189SLPC   H3X21859   1.761   4.220   6.955 -1.2121  0.7798 -1.7340
  189SLPC   H3Y21860   1.622   4.329   6.943  0.1180 -1.6512 -1.7315
  189SLPC   C3421861   1.729   4.350   7.119 -0.1946 -0.2182 -0.2002
  189SLPC   H4X21862   1.663   4.274   7.167  0.3314  1.2080  3.0921
  189SLPC   H4Y21863   1.677   4.445   7.142 -1.1961 -0.7239 -0.3605
  189SLPC   C3521864   1.863   4.320   7.187  0.2137  0.6783 -0.2244
  189SLPC   H5X21865   1.932   4.402   7.160 -1.3914  1.2409 -3.0262
  189SLPC   H5Y21866   1.898   4.226   7.141  0.8649 -0.0787  1.7038
  189SLPC   C3621867   1.848   4.308   7.344 -0.5171 -0.0032 -0.2217
  189SLPC   H6X21868   1.943   4.272   7.389 -1.5834 -4.1308 -0.8509
  189SLPC   H6Y21869   1.783   4.225   7.381  2.0015 -1.0000  2.4200
  189SLPC   C3721870   1.803   4.446   7.405  0.3284  0.1409 -0.4347
  189SLPC   H7X21871   1.695   4.460   7.385 -0.1940 -1.2245  1.2410
  189SLPC   H7Y21872   1.866   4.514   7.343  0.2917 -2.1033 -3.1070
  189SLPC   C3821873   1.835   4.458   7.551 -0.5285 -0.5829  0.4631
  189SLPC   H8X21874   1.805   4.367   7.606  0.5234 -0.6630  0.9179
  189SLPC   H8Y21875   1.779   4.548   7.584 -0.8299 -0.2008 -1.0142
  189SLPC   C3921876   1.982   4.490   7.578 -0.2870 -0.4052 -0.5163
  189SLPC   H9X21877   2.020   4.564   7.504 -3.4764 -0.0164 -1.9436
  189SLPC   H9Y21878   2.040   4.401   7.545  0.7572 -0.0008  0.1799
  189SLPC  C31021879   2.006   4.529   7.722 -0.2987  0.2774  0.2627
  189SLPC  H10X21880   1.954   4.625   7.740  0.7063  1.0231 -0.7171
  189SLPC  H10Y21881   2.111   4.549   7.754  0.0158 -1.7912  0.6933
  189SLPC  C31121882   1.979   4.423   7.828 -0.0467 -0.6377  0.0122
  189SLPC  H11X21883   2.049   4.342   7.797  0.6779  0.7155 -2.1156
  189SLPC  H11Y21884   1.873   4.394   7.814 -0.0306 -0.0796 -1.3993
  189SLPC  C31221885   2.019   4.458   7.969  0.0829 -0.1307 -0.5392
  189SLPC  H12X21886   1.927   4.504   8.010  0.3961  0.3279 -0.3524
  189SLPC  H12Y21887   2.114   4.509   7.992 -1.2066  1.3213  2.0097
  189SLPC  C31321888   2.017   4.332   8.063  0.0272  0.3103 -0.4540
  189SLPC  H13X21889   2.089   4.258   8.020  0.0261 -0.3166  0.6030
  189SLPC  H13Y21890   1.916   4.293   8.038 -0.4504  1.9711 -1.2657
  189SLPC  C31421891   2.039   4.348   8.213 -0.7367  0.2911 -0.3615
  189SLPC  H14X21892   1.947   4.340   8.276 -0.8090  0.6788 -0.4134
  189SLPC  H14Y21893   2.076   4.450   8.237 -1.7042  0.0145  2.8712
  189SLPC  C31521894   2.150   4.257   8.268 -0.4700  0.6659  0.5464
  189SLPC  H15X21895   2.255   4.275   8.235 -0.4383  1.0946  0.8786
  189SLPC  H15Y21896   2.120   4.157   8.230  0.6056  0.2267  0.8154
  189SLPC  C31621897   2.152   4.257   8.420 -0.4939 -0.0809 -0.1274
  189SLPC  H16X21898   2.055   4.254   8.473 -1.0824 -0.4159 -1.2114
  189SLPC  H16Y21899   2.206   4.351   8.445  1.6381 -1.2185 -0.1918
  189SLPC  C31721900   2.245   4.143   8.478  0.8854 -0.3137  0.6971
  189SLPC  H17X21901   2.236   4.148   8.589 -0.2038  0.3687  0.5865
  189SLPC  H17Y21902   2.341   4.168   8.428  0.0504  2.6768  0.3539
  189SLPC  C31821903   2.207   4.005   8.432  0.2064  0.0383  0.1455
  189SLPC  H18X21904   2.110   3.971   8.474  2.3248 -3.9109  2.4104
  189SLPC  H18Y21905   2.282   3.928   8.458 -0.2074  0.3208  2.3001
  189SLPC  H18Z21906   2.197   3.996   8.321 -1.1794  0.4803  0.2141
  190SLPC     N21907   0.470   5.088   6.106  0.4911 -0.1779  0.6995
  190SLPC   C1321908   0.320   5.088   6.104 -0.5642 -0.3258  0.2934
  190SLPC  H13A21909   0.277   5.177   6.063 -0.6666 -0.7860 -0.6338
  190SLPC  H13B21910   0.285   5.002   6.049  2.2860 -0.2421 -1.9062
  190SLPC  H13C21911   0.287   5.078   6.206  0.2940  0.4918  0.6698
  190SLPC   C1421912   0.528   5.147   5.979 -0.3786 -0.6039 -0.6070
  190SLPC  H14A21913   0.493   5.088   5.895  2.3109 -0.8394 -1.6633
  190SLPC  H14B21914   0.499   5.250   5.973  1.2013  0.0132  1.3703
  190SLPC  H14C21915   0.634   5.131   5.993 -0.4656 -0.5596  0.1405
  190SLPC   C1521916   0.527   4.947   6.119 -0.7570 -0.1139  0.1885
  190SLPC  H15A21917   0.512   4.908   6.020 -0.1744  0.6408 -0.2118
  190SLPC  H15B21918   0.633   4.956   6.137 -0.6307 -1.5181  0.2081
  190SLPC  H15C21919   0.472   4.897   6.197  0.8612 -0.7988  0.9345
  190SLPC   C1221920   0.520   5.171   6.225 -0.1558 -0.1176  0.8701
  190SLPC  H12A21921   0.627   5.159   6.231 -0.2234 -1.9558 -0.8105
  190SLPC  H12B21922   0.490   5.119   6.315 -1.5394 -1.6420 -0.4093
  190SLPC   C1121923   0.494   5.325   6.230 -0.2564  0.2044  0.2158
  190SLPC  H11A21924   0.527   5.362   6.329 -4.3664  2.9051  0.8109
  190SLPC  H11B21925   0.384   5.340   6.225 -0.0879  1.1942 -1.9042
  190SLPC     P21926   0.692   5.463   6.108  0.4027 -0.1957 -0.0179
  190SLPC   O1321927   0.796   5.366   6.141  0.5633 -0.2066  0.1507
  190SLPC   O1421928   0.710   5.528   5.976 -0.0020 -0.4727 -0.0665
  190SLPC   O1221929   0.549   5.399   6.124  0.3804  0.2631 -0.2038
  190SLPC   O1121930   0.697   5.584   6.203 -0.0686  0.0023  0.1952
  190SLPC    C121931   0.811   5.629   6.270 -0.2398  0.3254  0.0035
  190SLPC    HA21932   0.897   5.617   6.200  0.4836 -1.8221  1.1737
  190SLPC    HB21933   0.806   5.738   6.292  1.8811  0.3543  0.5842
  190SLPC    C221934   0.836   5.538   6.394  0.4702  0.2910  0.6171
  190SLPC    HS21935   0.873   5.437   6.364  1.4652  0.8066  0.1027
  190SLPC   O2121936   0.732   5.551   6.491  0.2326  0.1475  0.3348
  190SLPC   C2121937   0.686   5.437   6.537 -0.3189 -0.6208 -0.6198
  190SLPC   O2221938   0.705   5.324   6.488  0.5314  0.3462 -0.1865
  190SLPC   C2221939   0.595   5.465   6.660  0.0293  0.9085  0.0208
  190SLPC   H2R21940   0.647   5.530   6.733 -0.2450  1.7783 -0.5446
  190SLPC   H2S21941   0.507   5.524   6.625  0.9540  1.5103 -1.4177
  190SLPC    C321942   0.956   5.597   6.468 -0.7335 -0.8435  0.2930
  190SLPC    HX21943   0.937   5.703   6.496  2.3654 -0.4382  1.1879
  190SLPC    HY21944   1.031   5.599   6.386 -1.9691 -1.5985 -0.8968
  190SLPC   O3121945   1.020   5.523   6.570  0.5861  0.2546 -0.3496
  190SLPC   C3121946   0.988   5.542   6.699  0.0178  0.6948 -0.8021
  190SLPC   O3221947   0.924   5.638   6.740 -0.3838  0.6056  0.1944
  190SLPC   C3221948   1.052   5.431   6.785  0.2065  0.5489  0.1472
  190SLPC   H2X21949   1.160   5.453   6.770 -0.0134  0.5241 -1.6912
  190SLPC   H2Y21950   1.024   5.335   6.736  1.2659  0.9194 -1.2585
  190SLPC   C2321951   0.549   5.339   6.735  0.2330  0.8046 -1.4695
  190SLPC   H3R21952   0.515   5.262   6.662 -2.5044  0.1604  0.3193
  190SLPC   H3S21953   0.457   5.359   6.793 -0.7692 -3.1498 -1.3700
  190SLPC   C2421954   0.640   5.283   6.838  0.4016 -0.1813  0.1838
  190SLPC   H4R21955   0.669   5.358   6.915 -0.1774 -0.8444  1.0686
  190SLPC   H4S21956   0.735   5.250   6.792  0.2446  0.5509 -0.6807
  190SLPC   C2521957   0.590   5.151   6.897 -0.0216  0.1651  0.0366
  190SLPC   H5R21958   0.671   5.085   6.936 -1.9033 -2.5958 -0.4711
  190SLPC   H5S21959   0.539   5.088   6.822  0.1669 -1.1251  0.9656
  190SLPC   C2621960   0.488   5.174   7.005  0.2684 -0.1524 -0.6435
  190SLPC   H6R21961   0.456   5.072   7.033  2.9322 -0.8081  0.2481
  190SLPC   H6S21962   0.394   5.219   6.965 -0.7157 -1.9470 -0.4437
  190SLPC   C2721963   0.520   5.263   7.130  0.0481  0.5485  0.6768
  190SLPC   H7R21964   0.430   5.265   7.196 -1.8164 -2.1920 -1.5632
  190SLPC   H7S21965   0.552   5.366   7.101  0.6593  0.5016  1.1690
  190SLPC   C2821966   0.643   5.204   7.209  0.1554  0.0132  0.4154
  190SLPC   H8R21967   0.731   5.197   7.142 -1.9679 -0.8347 -2.5413
  190SLPC   H8S21968   0.601   5.104   7.234  0.6392 -0.7392 -1.5935
  190SLPC   C2921969   0.685   5.274   7.337 -0.3072 -0.1192  0.5389
  190SLPC   H9R21970   0.669   5.383   7.336  0.7011  0.1094  2.7987
  190SLPC  C21021971   0.740   5.215   7.441 -0.3817 -0.4820 -0.5424
  190SLPC  H10R21972   0.761   5.282   7.525 -1.4542  0.8899 -1.3421
  190SLPC  C21121973   0.782   5.067   7.467 -0.1852  0.4880 -0.0517
  190SLPC  H11R21974   0.854   5.038   7.387 -1.6812 -0.1302 -1.2291
  190SLPC  H11S21975   0.689   5.007   7.456  1.4892 -2.1570 -0.5731
  190SLPC  C21221976   0.848   5.040   7.604  0.1370 -0.1550  0.4051
  190SLPC  H12R21977   0.955   5.019   7.610  0.7783  2.0105 -1.7762
  190SLPC  C21321978   0.789   5.049   7.721  0.0080  0.3524 -0.4832
  190SLPC  H13R21979   0.842   5.031   7.817 -0.7566 -0.4734 -0.2088
  190SLPC  C21421980   0.648   5.078   7.761  0.1957  0.4418 -0.0844
  190SLPC  H14R21981   0.582   5.077   7.671  0.8953  2.6580 -0.6755
  190SLPC  H14S21982   0.636   5.183   7.795 -3.9060  0.2217 -0.2917
  190SLPC  C21521983   0.574   4.989   7.862  0.2967  0.1986 -0.6047
  190SLPC  H15R21984   0.551   4.892   7.814  0.0388  0.5276 -1.1710
  190SLPC  H15S21985   0.473   5.033   7.881 -0.0509 -0.0072 -1.8420
  190SLPC  C21621986   0.647   4.984   7.996  0.7224  0.3707  0.5922
  190SLPC  H16R21987   0.686   5.083   8.028  2.3211  0.2546 -0.8126
  190SLPC  H16S21988   0.736   4.918   7.984 -0.5071 -1.3979  0.6909
  190SLPC  C21721989   0.574   4.922   8.116 -0.1094  0.4348 -0.1488
  190SLPC  H17R21990   0.541   4.821   8.082 -0.7535  0.1731  1.2096
  190SLPC  H17S21991   0.482   4.981   8.134 -0.7183 -0.9109  1.4598
  190SLPC  C21821992   0.650   4.895   8.246  0.1656 -0.4441  0.3360
  190SLPC  H18R21993   0.604   4.824   8.319  0.4125 -3.0395 -1.8738
  190SLPC  H18S21994   0.675   4.990   8.298 -0.5794 -0.8302  1.4432
  190SLPC  H18T21995   0.742   4.843   8.213  0.7249  0.6323  0.1458
  190SLPC   C3321996   1.014   5.422   6.937 -0.0623  0.5507  0.4931
  190SLPC   H3X21997   0.906   5.397   6.951 -0.1894  0.0206 -1.2055
  190SLPC   H3Y21998   1.050   5.511   6.992  2.0336 -0.2727  0.5391
  190SLPC   C3421999   1.086   5.299   7.009  0.5945  0.0465 -0.2084
  190SLPC   H4X22000   1.056   5.324   7.112  0.5619  0.2926 -0.2766
  190SLPC   H4Y22001   1.197   5.306   7.000  0.6430 -1.6073 -1.3522
  190SLPC   C3522002   1.040   5.167   6.950 -0.3357  0.2833 -0.0530
  190SLPC   H5X22003   1.049   5.151   6.840 -1.1816 -3.4428  0.2910
  190SLPC   H5Y22004   0.931   5.163   6.970 -0.0407 -1.1229  1.4622
  190SLPC   C3622005   1.100   5.043   7.021  0.3378 -0.1550 -0.0889
  190SLPC   H6X22006   1.208   5.068   7.036  0.7195 -2.6438  2.1968
  190SLPC   H6Y22007   1.079   4.946   6.971 -1.8408 -0.0025  0.4260
  190SLPC   C3722008   1.046   5.017   7.161 -0.7356  0.4703 -0.2044
  190SLPC   H7X22009   0.935   5.011   7.160 -0.8788  0.8569  2.9478
  190SLPC   H7Y22010   1.072   5.108   7.219 -1.5665  0.1934  0.6221
  190SLPC   C3822011   1.115   4.894   7.221  0.2160  0.6164  0.7958
  190SLPC   H8X22012   1.225   4.911   7.222  0.7613 -2.2853 -0.4673
  190SLPC   H8Y22013   1.097   4.803   7.159  0.7657  0.1881  1.2567
  190SLPC   C3922014   1.064   4.862   7.362 -0.2856 -0.3684 -0.3787
  190SLPC   H9X22015   0.953   4.857   7.355 -0.3009 -0.9229  0.1778
  190SLPC   H9Y22016   1.099   4.939   7.434 -1.8004  3.0507 -3.0224
  190SLPC  C31022017   1.110   4.724   7.405 -0.1964 -0.4470  0.6109
  190SLPC  H10X22018   1.220   4.734   7.422 -0.4386 -0.3067  2.2243
  190SLPC  H10Y22019   1.088   4.650   7.325  0.2814 -0.3123  0.3456
  190SLPC  C31122020   1.066   4.674   7.541 -0.1876 -0.3871  0.9300
  190SLPC  H11X22021   1.076   4.565   7.528  4.0874  0.1080 -2.2180
  190SLPC  H11Y22022   0.960   4.708   7.552  0.1042  0.4459  1.2441
  190SLPC  C31222023   1.172   4.712   7.657  0.9649 -0.0664 -0.5303
  190SLPC  H12X22024   1.173   4.823   7.650 -0.4347 -0.0298 -0.5261
  190SLPC  H12Y22025   1.268   4.667   7.624  1.2229  0.0630  0.0295
  190SLPC  C31322026   1.140   4.659   7.796  0.4243  0.0037 -0.1837
  190SLPC  H13X22027   1.234   4.649   7.853  0.8361  3.1054 -0.1332
  190SLPC  H13Y22028   1.081   4.564   7.791  1.2944 -0.4940 -1.3436
  190SLPC  C31422029   1.053   4.768   7.874  0.1597 -0.0849  0.1129
  190SLPC  H14X22030   0.956   4.783   7.822 -0.1822 -1.7434  0.2443
  190SLPC  H14Y22031   1.109   4.865   7.878 -1.7281  1.1438 -1.5726
  190SLPC  C31522032   1.001   4.729   8.023 -0.2261 -0.3634  0.0930
  190SLPC  H15X22033   0.917   4.659   8.007 -1.2746  0.9869 -0.5053
  190SLPC  H15Y22034   0.955   4.818   8.072 -1.0519 -0.5300 -0.3783
  190SLPC  C31622035   1.100   4.662   8.100 -0.4755  0.0101 -0.4629
  190SLPC  H16X22036   1.190   4.726   8.112 -1.1147  0.6620  1.0603
  190SLPC  H16Y22037   1.146   4.579   8.042 -2.3765 -0.5314 -1.2909
  190SLPC  C31722038   1.068   4.607   8.242 -0.0455 -0.8612  0.6311
  190SLPC  H17X22039   1.159   4.552   8.275  1.6519  1.3503 -0.0989
  190SLPC  H17Y22040   0.983   4.538   8.224  0.2856 -1.0536 -0.2670
  190SLPC  C31822041   1.027   4.724   8.336  0.8294 -0.8967 -0.3119
  190SLPC  H18X22042   1.000   4.687   8.437 -0.2018 -2.2236 -1.0465
  190SLPC  H18Y22043   0.937   4.772   8.290  2.9305  1.2347 -2.4794
  190SLPC  H18Z22044   1.102   4.804   8.349 -0.9701  0.8523 -0.1375
  191SLPC     N22045   3.252   6.537   6.106  0.1704 -0.8635  0.0837
  191SLPC   C1322046   3.210   6.492   5.962 -0.1577  0.1630 -0.5215
  191SLPC  H13A22047   3.206   6.576   5.894  1.3711  1.0291  0.4002
  191SLPC  H13B22048   3.290   6.427   5.930 -0.7010 -0.0093 -1.5792
  191SLPC  H13C22049   3.131   6.418   5.965  1.8739 -2.1516 -1.0742
  191SLPC   C1422050   3.135   6.609   6.169 -1.0218 -0.3528  0.5012
  191SLPC  H14A22051   3.053   6.543   6.196 -1.3696  0.2810  1.0050
  191SLPC  H14B22052   3.168   6.672   6.250  0.2016  0.3244 -0.4928
  191SLPC  H14C22053   3.105   6.668   6.084  0.2517  0.2946  0.4819
  191SLPC   C1522054   3.357   6.640   6.087 -0.5439  0.3993 -0.0095
  191SLPC  H15A22055   3.398   6.666   6.183  1.0578 -3.7602  0.6395
  191SLPC  H15B22056   3.442   6.593   6.039  1.1124  0.1299  2.9498
  191SLPC  H15C22057   3.339   6.719   6.015 -1.4250  0.1054 -0.1252
  191SLPC   C1222058   3.292   6.418   6.190 -0.5683  0.1008 -0.1938
  191SLPC  H12A22059   3.229   6.333   6.169  0.7702 -0.6469 -1.3170
  191SLPC  H12B22060   3.313   6.449   6.292 -0.0207  0.2880 -0.3601
  191SLPC   C1122061   3.429   6.353   6.154  0.5106  0.9845 -0.8872
  191SLPC  H11A22062   3.444   6.270   6.227 -2.3659  2.7525  1.9860
  191SLPC  H11B22063   3.506   6.431   6.167  0.0023  1.1207  1.9970
  191SLPC     P22064   3.530   6.202   5.952 -0.2059  0.3227 -0.1076
  191SLPC   O1322065   3.474   6.064   5.969 -0.4035 -0.1982 -0.4159
  191SLPC   O1422066   3.552   6.254   5.812 -0.3603  0.8433  0.3560
  191SLPC   O1222067   3.429   6.309   6.018  0.0069  0.0439  0.5231
  191SLPC   O1122068   3.669   6.215   6.024  0.6275  0.0035 -0.4900
  191SLPC    C122069   3.747   6.333   6.018 -0.2144 -0.1718  0.3042
  191SLPC    HA22070   3.779   6.357   5.914 -1.2871 -0.3720 -0.0796
  191SLPC    HB22071   3.696   6.423   6.059 -0.0772  0.6262 -1.1720
  191SLPC    C222072   3.879   6.317   6.099 -0.1145  0.1200 -0.2885
  191SLPC    HS22073   3.922   6.219   6.068 -4.0546 -2.4427  1.5885
  191SLPC   O2122074   3.850   6.318   6.243 -0.3069 -0.3343 -0.1386
  191SLPC   C2122075   3.830   6.195   6.291 -0.3197 -1.0341  0.3919
  191SLPC   O2222076   3.849   6.092   6.235  0.0103 -0.5421  0.2645
  191SLPC   C2222077   3.816   6.207   6.444  0.3321  0.3409  0.3535
  191SLPC   H2R22078   3.785   6.313   6.459  3.0893  1.0846  1.2892
  191SLPC   H2S22079   3.739   6.133   6.476  2.2632 -0.7730  2.7216
  191SLPC    C322080   3.988   6.441   6.074  0.6392  0.2825 -0.0142
  191SLPC    HX22081   3.931   6.536   6.073  1.2247  0.6399 -0.9187
  191SLPC    HY22082   4.021   6.438   5.968 -1.2893  0.2159 -0.6471
  191SLPC   O3122083   4.093   6.444   6.170  0.3444 -0.3581 -0.3365
  191SLPC   C3122084   4.194   6.362   6.156  0.6282 -0.1107 -0.5642
  191SLPC   O3222085   4.216   6.295   6.054 -0.3603  0.3885  0.4878
  191SLPC   C3222086   4.258   6.361   6.291 -0.6227 -0.3249  0.6548
  191SLPC   H2X22087   4.265   6.255   6.325 -0.7136 -0.7681 -0.6551
  191SLPC   H2Y22088   4.200   6.416   6.369  0.8600 -0.9556  2.2741
  191SLPC   C2322089   3.947   6.159   6.501  0.3839 -0.0314 -0.6119
  191SLPC   H3R22090   4.027   6.226   6.462  0.7246 -1.3804 -2.3647
  191SLPC   H3S22091   3.969   6.056   6.464  0.4370 -0.3908  0.3690
  191SLPC   C2422092   3.952   6.162   6.652 -0.8567 -0.3939  0.1858
  191SLPC   H4R22093   3.867   6.095   6.679  0.2366 -2.1717 -0.6232
  191SLPC   H4S22094   3.930   6.267   6.680 -1.4567  0.6044 -3.5637
  191SLPC   C2522095   4.072   6.094   6.716 -1.0506 -0.8186 -0.2890
  191SLPC   H5R22096   4.158   6.165   6.715 -0.7285 -1.1995 -0.0232
  191SLPC   H5S22097   4.092   6.008   6.648  1.1297 -1.9916  1.6631
  191SLPC   C2622098   4.044   6.040   6.865 -0.3013 -0.2124 -0.3007
  191SLPC   H6R22099   4.126   5.989   6.919 -0.0061  0.2869 -0.2820
  191SLPC   H6S22100   3.975   5.954   6.847 -1.9870  1.3619 -1.8136
  191SLPC   C2722101   3.977   6.146   6.948 -0.1864 -0.2168 -1.4455
  191SLPC   H7R22102   3.871   6.164   6.921  0.0117 -0.2270 -2.2569
  191SLPC   H7S22103   4.027   6.243   6.930  3.1185 -1.1950  1.4479
  191SLPC   C2822104   3.989   6.125   7.105  0.4099  0.2409  0.1198
  191SLPC   H8R22105   3.966   6.225   7.147 -0.1775  0.6218 -1.0530
  191SLPC   H8S22106   4.098   6.110   7.120  0.6927 -0.6991 -2.3400
  191SLPC   C2922107   3.905   6.013   7.157 -0.8217  0.8558  0.2555
  191SLPC   H9R22108   3.820   5.994   7.089  0.5983  0.3064 -1.4472
  191SLPC  C21022109   3.924   5.954   7.281 -0.2939 -0.5989  0.2521
  191SLPC  H10R22110   3.854   5.876   7.315 -1.0849  0.7963  2.0417
  191SLPC  C21122111   4.025   5.991   7.392  0.4365  0.2376  0.0900
  191SLPC  H11R22112   4.068   6.091   7.369  2.5104 -0.8731 -1.1564
  191SLPC  H11S22113   4.108   5.917   7.398  0.3825  0.0646 -1.0913
  191SLPC  C21222114   3.958   5.998   7.527 -0.1352  0.0792  0.1049
  191SLPC  H12R22115   3.856   6.039   7.525  0.5633  1.9642 -2.5830
  191SLPC  C21322116   4.002   5.937   7.640 -0.2654  0.6573 -1.2401
  191SLPC  H13R22117   3.956   5.978   7.731 -1.1680  0.8190 -1.7586
  191SLPC  C21422118   4.133   5.854   7.659 -0.2527  0.1353 -0.0542
  191SLPC  H14R22119   4.211   5.930   7.679  0.6448  0.0079 -2.6534
  191SLPC  H14S22120   4.166   5.802   7.566 -2.8720 -1.9927  0.0777
  191SLPC  C21522121   4.129   5.736   7.761 -0.9226  0.4992  0.7832
  191SLPC  H15R22122   4.224   5.677   7.758 -1.7417 -0.8240 -0.5926
  191SLPC  H15S22123   4.060   5.650   7.747  2.9321 -2.4298 -3.6834
  191SLPC  C21622124   4.143   5.791   7.904  0.5718 -0.0592 -0.7665
  191SLPC  H16R22125   4.043   5.829   7.935  0.6070  0.0414 -0.7755
  191SLPC  H16S22126   4.216   5.874   7.913 -0.1147  0.5112 -0.3145
  191SLPC  C21722127   4.182   5.684   8.006  0.2774  0.3803 -0.6130
  191SLPC  H17R22128   4.288   5.650   8.000  0.7353  1.1090  2.1218
  191SLPC  H17S22129   4.123   5.591   7.990  0.5437  0.0648  0.2053
  191SLPC  C21822130   4.177   5.726   8.156  0.4073  0.1963 -0.5081
  191SLPC  H18R22131   4.182   5.636   8.220  2.2193 -0.2179 -1.1575
  191SLPC  H18S22132   4.080   5.779   8.165  0.0569  0.2755 -3.6792
  191SLPC  H18T22133   4.254   5.800   8.187  1.4273 -1.2711  0.6120
  191SLPC   C3322134   4.403   6.422   6.296 -0.3184 -0.0891 -0.1774
  191SLPC   H3X22135   4.400   6.517   6.238  0.2821 -1.3648 -2.4060
  191SLPC   H3Y22136   4.463   6.362   6.224  0.9138  0.6450  0.2290
  191SLPC   C3422137   4.480   6.426   6.432  0.1189  0.2961  0.5663
  191SLPC   H4X22138   4.466   6.520   6.489 -0.7836 -1.0867  2.7844
  191SLPC   H4Y22139   4.587   6.421   6.403 -0.2396  1.5093 -1.0780
  191SLPC   C3522140   4.446   6.305   6.520 -0.7088 -0.1182 -0.3365
  191SLPC   H5X22141   4.471   6.215   6.460  0.8503 -0.3954  0.6793
  191SLPC   H5Y22142   4.337   6.304   6.539 -1.0760  0.9268 -2.1677
  191SLPC   C3622143   4.518   6.293   6.659 -0.5449 -0.5292  0.0033
  191SLPC   H6X22144   4.501   6.382   6.725  1.3464  0.6481 -1.0021
  191SLPC   H6Y22145   4.628   6.295   6.647 -0.5849 -0.1820 -0.3552
  191SLPC   C3722146   4.490   6.165   6.743 -0.1202  0.3238 -0.0284
  191SLPC   H7X22147   4.529   6.074   6.692 -1.2313 -1.7398  2.5507
  191SLPC   H7Y22148   4.380   6.150   6.738 -0.1658  0.1353  1.3111
  191SLPC   C3822149   4.540   6.165   6.888 -0.2797 -0.4898  0.1043
  191SLPC   H8X22150   4.522   6.262   6.940  0.1557 -0.6498  0.5731
  191SLPC   H8Y22151   4.650   6.152   6.891  0.0586  1.0531 -2.5210
  191SLPC   C3922152   4.468   6.068   6.980 -0.1651  0.7612 -0.9277
  191SLPC   H9X22153   4.479   5.962   6.949  0.7696  0.9818 -1.3864
  191SLPC   H9Y22154   4.361   6.094   6.970 -0.3041  0.4861 -0.1836
  191SLPC  C31022155   4.517   6.085   7.126  0.5301 -0.0544  0.3220
  191SLPC  H10X22156   4.517   6.194   7.147 -0.8271  0.2117 -0.9016
  191SLPC  H10Y22157   4.625   6.060   7.137  0.3434 -1.4304 -0.5975
  191SLPC  C31122158   4.442   6.009   7.236 -0.5183  0.0365  0.2034
  191SLPC  H11X22159   4.454   5.899   7.223 -0.1603 -0.1964  2.2186
  191SLPC  H11Y22160   4.335   6.040   7.240 -1.1219 -2.0024  1.7709
  191SLPC  C31222161   4.509   6.042   7.369 -0.0875 -0.1757 -0.2666
  191SLPC  H12X22162   4.480   6.144   7.402 -2.6847 -0.9729  0.1590
  191SLPC  H12Y22163   4.618   6.033   7.350 -0.4550 -1.9122 -1.9152
  191SLPC  C31322164   4.483   5.942   7.484  0.1938  0.2452  0.2568
  191SLPC  H13X22165   4.532   5.844   7.468  0.1873  0.5455 -2.0494
  191SLPC  H13Y22166   4.374   5.920   7.478 -0.3310  0.8086  4.6098
  191SLPC  C31422167   4.491   5.989   7.629  0.4573  0.2528 -0.2262
  191SLPC  H14X22168   4.448   5.909   7.694  1.4112  1.9695  2.6873
  191SLPC  H14Y22169   4.433   6.083   7.641  0.2490  0.0716  0.2019
  191SLPC  C31522170   4.641   6.018   7.683  0.5747 -0.7696 -0.0635
  191SLPC  H15X22171   4.624   6.086   7.769  1.4212  1.4570 -1.5492
  191SLPC  H15Y22172   4.690   6.063   7.594 -0.2837 -1.8846 -1.1325
  191SLPC  C31622173   4.725   5.901   7.727 -0.0639  0.3583 -0.4454
  191SLPC  H16X22174   4.718   5.824   7.647 -1.4803  1.0659 -1.0294
  191SLPC  H16Y22175   4.674   5.865   7.819  2.0752 -0.3459  0.5441
  191SLPC  C31722176   4.864   5.947   7.767 -0.5424 -0.0716 -0.0771
  191SLPC  H17X22177   4.853   6.024   7.846  2.7072  0.8476 -0.3683
  191SLPC  H17Y22178   4.915   6.010   7.692 -1.4172  2.6127  1.4461
  191SLPC  C31822179   4.954   5.834   7.809 -0.7512  0.8281 -0.4484
  191SLPC  H18X22180   4.942   5.792   7.911  1.4936  1.0781 -0.0443
  191SLPC  H18Y22181   5.063   5.853   7.800 -0.7887  0.7634 -1.0739
  191SLPC  H18Z22182   4.924   5.744   7.750  1.7782 -0.9580  0.8219
  192SLPC     N22183   6.623   0.613   6.566 -0.7340 -0.5404  0.8226
  192SLPC   C1322184   6.528   0.723   6.612 -0.0635 -1.0497  0.2174
  192SLPC  H13A22185   6.579   0.818   6.622 -1.8967 -0.1575  1.7325
  192SLPC  H13B22186   6.443   0.746   6.550  0.5335 -0.9377 -0.5780
  192SLPC  H13C22187   6.495   0.703   6.713 -0.1570 -1.7151  0.0596
  192SLPC   C1422188   6.689   0.647   6.433  0.9408 -0.1733  0.2861
  192SLPC  H14A22189   6.617   0.640   6.353  1.2900 -1.8685  0.0951
  192SLPC  H14B22190   6.725   0.749   6.436  1.1905 -0.2620  2.8266
  192SLPC  H14C22191   6.776   0.589   6.406  0.5660 -1.3245  1.5123
  192SLPC   C1522192   6.549   0.486   6.547 -0.5148 -0.0620  0.7964
  192SLPC  H15A22193   6.504   0.463   6.643  0.1485  0.8034  1.3205
  192SLPC  H15B22194   6.469   0.501   6.476  0.4335  2.4533  0.1590
  192SLPC  H15C22195   6.608   0.398   6.528  0.5649  0.9856 -0.9104
  192SLPC   C1222196   6.730   0.604   6.673  0.8529  0.5109 -0.0867
  192SLPC  H12A22197   6.784   0.512   6.653 -0.5401 -1.1501  3.1327
  192SLPC  H12B22198   6.685   0.570   6.765 -0.2720  2.7531  0.2614
  192SLPC   C1122199   6.824   0.732   6.692 -0.4187  1.0047  0.2507
  192SLPC  H11A22200   6.879   0.702   6.784  1.7201  0.5770 -1.0901
  192SLPC  H11B22201   6.761   0.822   6.706  0.0519  1.1994  1.1647
  192SLPC     P22202   7.030   0.641   6.556  0.5721 -0.2294 -0.2487
  192SLPC   O1322203   7.040   0.547   6.662  0.1881  0.1956 -0.5791
  192SLPC   O1422204   7.007   0.576   6.430 -0.0579  0.1531  0.0678
  192SLPC   O1222205   6.915   0.745   6.580  0.1374 -0.0879 -0.0838
  192SLPC   O1122206   7.168   0.725   6.550  0.4924  0.4508 -0.2108
  192SLPC    C122207   7.168   0.858   6.606 -0.6609  0.1167  0.5570
  192SLPC    HA22208   7.225   0.925   6.537 -1.8195 -1.9691 -2.6829
  192SLPC    HB22209   7.065   0.900   6.618 -0.0710  1.9252 -0.3287
  192SLPC    C222210   7.213   0.865   6.750  0.3142 -0.1722  0.6530
  192SLPC    HS22211   7.312   0.816   6.745 -0.1449 -1.1757  1.1429
  192SLPC   O2122212   7.131   0.792   6.841 -0.0438 -0.1726  0.3218
  192SLPC   C2122213   7.190   0.725   6.933 -0.0648  0.1615 -0.8680
  192SLPC   O2222214   7.311   0.728   6.951  0.6279  0.1207 -0.5537
  192SLPC   C2222215   7.094   0.646   7.015  0.5807 -0.4662 -0.5234
  192SLPC   H2R22216   7.020   0.708   7.071 -0.2064 -0.7172 -1.2561
  192SLPC   H2S22217   7.022   0.595   6.947 -2.2412  1.5136  0.7512
  192SLPC    C322218   7.219   1.013   6.799 -0.1669  1.5111  0.2946
  192SLPC    HX22219   7.135   1.075   6.761  0.2309  1.9457  0.1190
  192SLPC    HY22220   7.298   1.071   6.747  1.9218 -1.2994  0.0723
  192SLPC   O3122221   7.223   1.033   6.943  0.2886  0.0272  0.5106
  192SLPC   C3122222   7.339   1.012   7.002 -0.4176  0.6053  0.0228
  192SLPC   O3222223   7.441   0.973   6.944  0.5530  0.0731  0.9952
  192SLPC   C3222224   7.326   1.043   7.149  0.1900  0.3384  0.0469
  192SLPC   H2X22225   7.279   1.144   7.151  1.2289  0.8496 -0.5095
  192SLPC   H2Y22226   7.431   1.063   7.179 -0.2089 -1.5211  3.0416
  192SLPC   C2322227   7.173   0.554   7.118  0.8573  0.1940  0.2164
  192SLPC   H3R22228   7.244   0.623   7.169 -1.4704  1.7746  1.4950
  192SLPC   H3S22229   7.232   0.486   7.054 -1.0739 -0.6661 -0.7351
  192SLPC   C2422230   7.081   0.491   7.218 -0.2568  0.2197 -0.0060
  192SLPC   H4R22231   7.001   0.439   7.160 -1.4534  0.1242  1.6614
  192SLPC   H4S22232   7.045   0.565   7.292 -1.1252  0.1749 -0.3708
  192SLPC   C2522233   7.165   0.396   7.303  0.4304 -0.2161  0.2498
  192SLPC   H5R22234   7.245   0.458   7.349  0.1653  0.2156  0.1426
  192SLPC   H5S22235   7.200   0.318   7.232 -1.5603 -2.3633  1.4929
  192SLPC   C2622236   7.087   0.335   7.423  0.1489  0.0054  0.3966
  192SLPC   H6R22237   7.008   0.267   7.385  0.1327  0.7636 -1.0092
  192SLPC   H6S22238   7.046   0.422   7.479  1.9106  2.4206 -1.8210
  192SLPC   C2722239   7.186   0.264   7.517  0.3716  0.2250 -0.9839
  192SLPC   H7R22240   7.262   0.328   7.567  1.3401 -0.9637 -0.8935
  192SLPC   H7S22241   7.248   0.185   7.470 -0.8835 -2.4557  1.5672
  192SLPC   C2822242   7.109   0.181   7.619  0.8597  0.5601 -0.4265
  192SLPC   H8R22243   7.188   0.113   7.657  0.2494 -0.2433 -0.5600
  192SLPC   H8S22244   7.019   0.127   7.581  0.8957 -0.5406  0.9719
  192SLPC   C2922245   7.052   0.271   7.726 -0.3151 -0.2520 -0.6727
  192SLPC   H9R22246   7.051   0.375   7.691  3.4567  1.0029  2.1979
  192SLPC  C21022247   7.018   0.237   7.854 -0.2716  0.1523 -0.0687
  192SLPC  H10R22248   6.975   0.307   7.927 -1.2141  0.1999 -0.6493
  192SLPC  C21122249   7.025   0.089   7.893  0.8960  0.4722 -0.1785
  192SLPC  H11R22250   7.132   0.059   7.888  0.6327 -0.3487 -1.4165
  192SLPC  H11S22251   6.981   0.028   7.811  0.9064 -0.0758  0.2188
  192SLPC  C21222252   6.957   0.037   8.015 -0.2130  1.1862  0.1575
  192SLPC  H12R22253   7.019   0.025   8.105 -0.0134 -0.2540 -0.1411
  192SLPC  C21322254   6.826   0.018   8.030 -0.0374  0.1775 -0.3349
  192SLPC  H13R22255   6.786  -0.006   8.129  0.1072 -2.1530 -0.7671
  192SLPC  C21422256   6.712   0.032   7.931  0.6398 -0.2746  1.0584
  192SLPC  H14R22257   6.676  -0.071   7.909  2.1948 -0.1398 -2.7504
  192SLPC  H14S22258   6.743   0.075   7.834  3.9110 -1.1086  1.6384
  192SLPC  C21522259   6.598   0.107   7.989 -0.0621 -0.5090 -0.4528
  192SLPC  H15R22260   6.574   0.078   8.093 -0.1016 -4.2818 -1.3914
  192SLPC  H15S22261   6.508   0.071   7.935 -0.5148 -2.6403  1.5910
  192SLPC  C21622262   6.594   0.259   7.969  0.4091 -0.3019  0.7234
  192SLPC  H16R22263   6.665   0.280   7.886  0.1608 -1.4316  0.1910
  192SLPC  H16S22264   6.630   0.303   8.064  1.7657  0.1956  0.0059
  192SLPC  C21722265   6.464   0.307   7.913 -0.3672 -0.2788  0.1300
  192SLPC  H17R22266   6.469   0.417   7.898  0.7779 -0.2998  0.3375
  192SLPC  H17S22267   6.443   0.254   7.818 -1.9303 -0.0548  0.3178
  192SLPC  C21822268   6.349   0.282   8.009 -0.3947  0.0037 -0.0241
  192SLPC  H18R22269   6.331   0.174   8.026 -2.1550 -0.0495 -1.9182
  192SLPC  H18S22270   6.251   0.328   7.985 -0.9182 -1.4744 -0.8300
  192SLPC  H18T22271   6.374   0.323   8.110  1.2508 -1.2366  0.1167
  192SLPC   C3322272   7.274   0.932   7.231 -0.3383 -0.3051  0.3616
  192SLPC   H3X22273   7.335   0.841   7.213 -1.3382 -0.5659 -2.1379
  192SLPC   H3Y22274   7.166   0.913   7.214 -0.3973 -1.4122  1.8195
  192SLPC   C3422275   7.287   0.968   7.372 -0.3899 -0.2469 -0.4608
  192SLPC   H4X22276   7.254   1.074   7.384 -0.1333  0.0042 -1.7980
  192SLPC   H4Y22277   7.392   0.996   7.398 -1.3654  3.6568 -0.0368
  192SLPC   C3522278   7.237   0.858   7.469  0.2863 -0.9373  0.7082
  192SLPC   H5X22279   7.128   0.848   7.446 -0.3054  2.0860  1.8047
  192SLPC   H5Y22280   7.233   0.895   7.574  2.0442  1.1808  0.0918
  192SLPC   C3622281   7.305   0.727   7.455 -0.1500  0.9347  0.2421
  192SLPC   H6X22282   7.416   0.733   7.454  0.0283 -0.8274 -2.5959
  192SLPC   H6Y22283   7.277   0.673   7.362 -1.6923  1.0507  0.6155
  192SLPC   C3722284   7.273   0.632   7.581  0.4085  0.4240  0.0218
  192SLPC   H7X22285   7.343   0.546   7.575 -0.9933 -0.7453 -0.0675
  192SLPC   H7Y22286   7.169   0.600   7.560  1.1299 -0.9810 -1.6763
  192SLPC   C3822287   7.292   0.684   7.726 -0.5026  0.9528  0.5696
  192SLPC   H8X22288   7.207   0.748   7.760  0.6608  1.9928  1.6342
  192SLPC   H8Y22289   7.385   0.744   7.733 -1.2801  2.2740 -0.0105
  192SLPC   C3922290   7.311   0.563   7.818 -0.0293  0.7664 -0.0053
  192SLPC   H9X22291   7.229   0.490   7.805  2.0688 -1.2826 -2.7113
  192SLPC   H9Y22292   7.315   0.603   7.922 -0.1730  1.2367 -0.1749
  192SLPC  C31022293   7.450   0.495   7.804 -0.2882 -0.4238  0.0408
  192SLPC  H10X22294   7.534   0.567   7.800  0.3348 -1.1537 -0.2250
  192SLPC  H10Y22295   7.455   0.444   7.705  2.1590 -1.3709  0.6071
  192SLPC  C31122296   7.479   0.398   7.919  0.3869 -0.6921  0.3265
  192SLPC  H11X22297   7.500   0.462   8.007 -1.3455  0.1463  0.1765
  192SLPC  H11Y22298   7.570   0.340   7.895  0.0954 -0.3219 -1.9093
  192SLPC  C31222299   7.372   0.292   7.950  0.2124  0.2028 -0.4491
  192SLPC  H12X22300   7.347   0.234   7.859 -0.0088  0.3316 -0.4700
  192SLPC  H12Y22301   7.282   0.348   7.981 -0.1129 -0.0342 -0.9403
  192SLPC  C31322302   7.411   0.186   8.058  0.2247 -0.0243 -0.3119
  192SLPC  H13X22303   7.519   0.178   8.079  0.0865  1.1789  1.0536
  192SLPC  H13Y22304   7.365   0.087   8.036 -1.8086  0.3370  1.8507
  192SLPC  C31422305   7.345   0.214   8.201 -0.1053  0.5165 -0.1146
  192SLPC  H14X22306   7.236   0.199   8.187  0.2702 -1.5154 -1.4790
  192SLPC  H14Y22307   7.360   0.320   8.227  0.5464 -0.2439  2.9433
  192SLPC  C31522308   7.406   0.118   8.312 -0.1506  0.1595  0.1227
  192SLPC  H15X22309   7.515   0.141   8.314  0.4812 -2.4223 -0.9035
  192SLPC  H15Y22310   7.397   0.014   8.274  2.0490 -0.3004  0.7531
  192SLPC  C31622311   7.343   0.124   8.451 -0.4187  0.9205 -0.3230
  192SLPC  H16X22312   7.234   0.119   8.434 -0.1788 -1.8395 -1.5064
  192SLPC  H16Y22313   7.366   0.223   8.498  0.4111  0.2224  0.8025
  192SLPC  C31722314   7.391   0.009   8.543 -0.4945 -0.2938 -0.8500
  192SLPC  H17X22315   7.400  -0.083   8.482  0.3958 -1.2771  0.7229
  192SLPC  H17Y22316   7.326  -0.005   8.632  0.7386  0.6220  0.2376
  192SLPC  C31822317   7.529   0.051   8.591 -0.8780 -0.0430  0.0618
  192SLPC  H18X22318   7.610   0.070   8.518 -1.3971  1.6194 -0.1093
  192SLPC  H18Y22319   7.567  -0.032   8.655  1.0127  0.8301  0.1231
  192SLPC  H18Z22320   7.532   0.137   8.661  1.5253  0.9076 -1.1145
  193SOD    SOD22321   2.181   4.492   5.345 -0.0957 -0.0744  0.1915
  194SOD    SOD22322   4.715   4.835  15.580  0.1839  0.1589  0.4604
  195SOD    SOD22323   0.405   5.236   4.478 -0.3417  0.0214 -0.4274
  196SOD    SOD22324   2.985   0.636  10.831 -0.2867 -0.2249 -0.0040
  197SOD    SOD22325   6.445   6.079  12.451  0.0527  0.6184 -0.5674
  198SOD    SOD22326   5.477   4.225   6.048 -0.2380 -0.1702 -0.2570
  199SOD    SOD22327   5.509   0.516   2.486 -0.1676  0.2991  0.4997
  200SOD    SOD22328   0.547   1.051   0.705  0.2609 -0.3917  0.0038
  201SOD    SOD22329   3.083   6.316   2.193  0.5227 -0.1200  0.6129
  202SOD    SOD22330   2.188   5.019   3.857  0.2416 -0.0610 -0.0921
  203SOD    SOD22331   5.089   1.621  12.897 -0.2011 -0.3250  0.3088
  204SOD    SOD22332   1.994   5.415   2.459  0.0534 -0.3744  0.1193
  205SOD    SOD22333   1.746   2.227   1.786  0.0903  0.0556 -0.2475
  206SOD    SOD22334   4.872   5.948  14.557 -0.0128 -0.1226 -0.2364
  207SOD    SOD22335   0.656   0.257  16.915 -0.2055 -0.2214  0.2019
  208SOD    SOD22336   5.874   3.602   0.615  0.1937 -0.1763  0.0186
  209SOD    SOD22337   3.872   3.969  15.211 -0.5057 -0.5354 -0.0973
  210SOD    SOD22338   5.578   0.766  11.037  0.4319 -0.2405  0.3398
  211SOD    SOD22339   0.768   1.511   4.489 -0.0626 -0.0706  0.2941
  212SOD    SOD22340   4.788   2.615  12.609 -0.6236  0.1035  0.0633
  213SOD    SOD22341   2.999   2.580   3.263  0.0546 -0.2211  0.4930
  214SOD    SOD22342   3.661   5.239  11.471 -0.3488  0.2308  0.5406
  215SOD    SOD22343   2.888   4.292   6.317  0.5588  0.0454  0.3010
  216SOD    SOD22344   2.805   0.309   4.927 -0.1871  0.2897 -0.5642
  217SOD    SOD22345   4.498   1.679   3.744 -0.4618 -0.3836 -0.1375
  218SOD    SOD22346   4.538   0.506  12.811 -0.1674 -0.1093  0.3007
  219SOD    SOD22347   5.738   3.014   5.743  0.1283  0.1555 -0.5718
  220SOD    SOD22348   4.292   4.828  14.413 -0.2456  0.4292 -0.1201
  221SOD    SOD22349   6.296   2.514  13.398 -0.5534  0.0676  0.3001
  222SOD    SOD22350   0.310   4.200  11.187  0.1005  0.0164  0.4049
  223SOD    SOD22351   6.751   4.483   2.728 -0.4398  0.1027 -0.4503
  224SOD    SOD22352   5.347   0.831  13.126  0.1512 -0.6465  0.0195
  225SOD    SOD22353   0.748   2.380  15.998 -0.0905 -0.0668 -0.3850
  226SOD    SOD22354   1.932   0.441  15.058 -0.1823  0.0053  0.1422
  227SOD    SOD22355   6.812   0.553   1.123 -0.4264  0.0494 -0.2332
  228SOD    SOD22356   3.229   1.827  10.797  0.2316 -0.2345 -0.4300
  229SOD    SOD22357   1.643   3.094   4.401  0.1991  0.2603 -0.0858
  230SOD    SOD22358   3.051   1.232  11.502 -0.1351 -0.2689 -0.3633
  231SOD    SOD22359   2.449   4.732  13.180 -0.0194 -0.5513 -0.0313
  232SOD    SOD22360   0.609   2.712   0.907 -0.5186 -0.4232  0.4683
  233SOD    SOD22361   3.108   5.802   1.587 -0.1712  0.1516 -0.2543
  234SOD    SOD22362   0.889   5.342   4.060  0.0708  0.0819 -0.1317
  235SOD    SOD22363   3.261   4.839  16.476  0.2514 -0.0809  0.0835
  236SOD    SOD22364   6.005   2.826   4.803  0.1052  0.2963 -0.2095
  237SOD    SOD22365   1.126   1.638   2.087  0.3000  0.0998 -0.0654
  238SOD    SOD22366   4.324   1.194   5.625 -0.3265 -0.2227 -0.4238
  239SOD    SOD22367   2.801   3.885  11.055  0.2511  0.3926 -0.2037
  240SOD    SOD22368   3.403   3.860  12.242  0.2070  0.1606 -0.2208
  241SOD    SOD22369   5.255   5.539  15.430 -0.0826 -0.3438  0.1835
  242SOD    SOD22370   4.368   5.912  15.215 -0.6503 -0.0188 -0.0931
  243SOD    SOD22371   4.530   5.696   1.655 -0.2485  0.5802  0.0080
  244SOD    SOD22372   3.391   0.133   4.600 -0.1750  0.0966  0.0412
  245SOD    SOD22373   4.643   6.295   5.873  0.3444 -0.5854  0.2411
  246SOD    SOD22374   1.390   2.594   0.481  0.0347 -0.2850  0.2954
  247SOD    SOD22375   3.799   0.339  14.490  0.1053  0.5234 -0.5714
  248SOD    SOD22376   2.145   6.339  10.915 -0.4474 -0.2694  0.2194
  249SOD    SOD22377   0.158   0.616   6.173  0.0939  0.1769  0.4444
  250SOD    SOD22378   4.808   4.459   0.758  0.0214  0.1506 -0.0631
  251SOD    SOD22379   0.469   0.429   5.043 -0.5490 -0.2939 -0.1746
  252SOD    SOD22380   2.712   0.422  16.124 -0.2975  0.6870  0.3878
  253SOD    SOD22381   2.669   4.888  16.061  0.4438  0.3093 -0.0026
  254SOD    SOD22382   2.120   6.138  14.394  0.3754 -0.6187 -0.0625
  255SOD    SOD22383   2.440   3.994   0.392 -0.0109  0.3174 -0.7146
  256SOD    SOD22384   3.494   0.494  13.768  0.2226  0.3657 -0.4125
  257SOD    SOD22385   0.134   5.818   6.534 -0.7635 -0.2449 -0.0887
  258SOD    SOD22386   6.314   6.177  16.516  0.2351  0.0681  0.0127
  259SOD    SOD22387   2.593   3.358   2.805 -0.2904 -0.7963  0.0171
  260SOD    SOD22388   0.532   4.986  12.770  0.2487 -0.1386 -0.2171
  261SOD    SOD22389   1.282   1.524  15.021 -0.0793 -0.2598  0.3751
  262SOD    SOD22390   2.852   0.371  11.726 -0.4422 -0.2765 -0.0765
  263SOD    SOD22391   1.530   0.416   2.512 -0.2936 -0.1780 -0.0309
  264SOD    SOD22392   4.439   5.992   3.693 -0.1586  0.1498  0.0451
  265SOD    SOD22393   1.344   0.545  15.391  0.5704  0.0391 -0.3926
  266CLA    CLA22394   4.336   4.743  16.851 -0.1841  0.3037 -0.1875
  267CLA    CLA22395   0.119   0.566   2.078 -0.0602  0.1495  0.1196
  268CLA    CLA22396   3.064   1.046  16.346  0.4266 -0.2790  0.3301
  269CLA    CLA22397   4.825   5.288  15.781  0.3492  0.3399  0.0416
  270CLA    CLA22398   0.102   1.098   5.460  0.0789 -0.1496 -0.0378
  271CLA    CLA22399   4.200   4.210  14.558  0.1818  0.0401  0.1604
  272CLA    CLA22400   4.864   1.998   1.363  0.5828 -0.1657  0.0719
  273CLA    CLA22401   2.506   5.222  15.543 -0.0923 -0.1989  0.6100
  274CLA    CLA22402   2.483   3.838  13.033  0.1138 -0.1812  0.0598
  275CLA    CLA22403   5.648   3.167   1.561 -0.1405 -0.4894 -0.2701
  276CLA    CLA22404   2.361   4.154   3.718 -0.2802 -0.1948  0.8131
  277CLA    CLA22405   4.689   0.667   1.208 -0.0108 -0.0340  0.0885
  278CLA    CLA22406   3.624   4.200   2.733 -0.2540  0.1035 -0.1309
  279CLA    CLA22407   5.490   2.621  14.437 -0.1723 -0.5863 -0.5009
  280CLA    CLA22408   2.218   5.329   1.899 -0.1333  0.6160 -0.1191
  281CLA    CLA22409   3.621   5.793   2.990  0.0375 -0.0774 -0.2523
  282CLA    CLA22410   0.919   2.149   0.212  0.1160 -0.0420  0.1203
  283CLA    CLA22411   1.892   6.221   3.362  0.0222 -0.0693 -0.1398
  284CLA    CLA22412   6.741   1.740   1.769  0.0974  0.0610  0.5048
  285CLA    CLA22413   1.198   1.503   3.472 -0.0409 -0.2841 -0.0448
  286CLA    CLA22414   4.693   0.259  17.060 -0.0901 -0.0739  0.4102
  287CLA    CLA22415   1.325   1.700  15.561  0.3960 -0.3332 -0.0627
  288CLA    CLA22416   6.833   4.812  13.827  0.0573  0.0558  0.2142
  289CLA    CLA22417   0.459   3.980   2.637 -0.0274  0.2922 -0.4452
  290CLA    CLA22418   4.918   1.390  13.032 -0.1252  0.4440 -0.2447
  291CLA    CLA22419   1.468   0.401  13.804 -0.3308  0.4122  0.2799
  292CLA    CLA22420   5.340   4.892  13.210 -0.2255  0.0509 -0.2721
  293CLA    CLA22421   6.197   1.588   4.123 -0.1926 -0.0062 -0.0492
  294CLA    CLA22422   2.181   3.732  15.599  0.1649 -0.5377 -0.1749
  295CLA    CLA22423   5.253   0.535  12.512 -0.3165  0.5224 -0.3818
  296CLA    CLA22424   6.789   5.629  13.248 -0.3214  0.0479  0.0358
  297CLA    CLA22425   2.915   6.250  14.832 -0.0567  0.1514  0.1320
  298CLA    CLA22426   3.515   6.528   2.025  0.0816  0.0980 -0.0880
  299CLA    CLA22427   6.104   3.258  13.035 -0.5703  0.0186  0.5456
  300CLA    CLA22428   3.962   6.545  13.827 -0.0132 -0.0867  0.0277
  301CLA    CLA22429   3.019   6.559   5.434  0.1158  0.1170  0.0703
  302CLA    CLA22430   4.048   0.036   2.738  0.1110 -0.1269  0.1796
  303CLA    CLA22431   1.486   2.102   2.175 -0.1407 -0.2890  0.0886
  304CLA    CLA22432   4.760   0.062  12.924  0.2245 -0.2602 -0.1345
  305CLA    CLA22433   4.821   0.384  16.194  0.4427  0.0447  0.1309
  306CLA    CLA22434   0.594   3.915   0.536 -0.1687  0.4012 -0.0953
  307CLA    CLA22435   3.943   1.342   2.573 -0.2096 -0.0865 -0.3803
  308CLA    CLA22436   4.860   5.110   2.003 -0.1506  0.3439 -0.0336
  309CLA    CLA22437   0.850   5.665   0.109 -0.2314 -0.5490 -0.6124
  310CLA    CLA22438   2.690   3.548   0.794  0.2959  0.3407  0.3934
  311CLA    CLA22439   2.991   1.135  14.459 -0.0091  0.0005  0.1417
  312CLA    CLA22440   3.912   1.474  13.920 -0.1298  0.3895  0.0244
  313CLA    CLA22441   4.168   6.524   5.184 -0.4821  0.0261 -0.2013
  314CLA    CLA22442   2.135   2.862   2.449 -0.1613  0.3180  0.2000
  315CLA    CLA22443   0.572   1.139   0.965 -0.2601 -0.0876  0.0679
  316CLA    CLA22444   5.947   5.926  15.103  0.0521  0.1201 -0.2055
  317CLA    CLA22445   0.749   1.457  14.893  0.5159  0.0830  0.1099
  318CLA    CLA22446   0.793   4.716  12.208 -0.0654 -0.2046 -0.2182
  319TIP3   OH222447   1.082   0.513   1.629  0.1356  0.1311 -0.1825
  319TIP3    H122448   0.998   0.512   1.582 -0.0739 -1.7753  0.1312
  319TIP3    H222449   1.058   0.498   1.720  0.8734 -1.7958 -0.2707
  320TIP3   OH222450   2.827   3.135  11.906  0.0114  0.1487 -0.1563
  320TIP3    H122451   2.861   3.165  11.822  1.4011  2.3240  1.1010
  320TIP3    H222452   2.761   3.200  11.930  0.9405  0.6112  1.2495
  321TIP3   OH222453   3.805   4.763   3.724  0.3476 -0.4300 -0.8689
  321TIP3    H122454   3.824   4.671   3.741  0.3956  0.0786  2.3827
  321TIP3    H222455   3.710   4.767   3.715  0.3668 -0.8187 -1.2618
  322TIP3   OH222456   6.473   0.020   2.143  1.1396  0.4803 -0.1754
  322TIP3    H122457   6.458   0.104   2.100 -0.0519  0.3758  0.0056
  322TIP3    H222458   6.450   0.035   2.235  0.9260 -0.0355 -0.1389
  323TIP3   OH222459   0.160   1.881  15.309 -0.2898 -0.1998  0.2150
  323TIP3    H122460   0.103   1.825  15.361 -1.5139 -0.4180 -1.2858
  323TIP3    H222461   0.101   1.926  15.249  1.1247 -0.6199 -1.5818
  324TIP3   OH222462   1.369   3.493  11.607  0.1174  0.0540 -0.2165
  324TIP3    H122463   1.464   3.477  11.613  0.0073 -0.1934  1.0493
  324TIP3    H222464   1.362   3.565  11.544  0.9279 -1.7556 -2.4921
  325TIP3   OH222465   1.924   4.258   1.721  0.2868 -0.5757  0.6573
  325TIP3    H122466   1.923   4.354   1.728 -0.0017 -0.5962  0.8948
  325TIP3    H222467   2.009   4.233   1.757  1.8814 -0.1795 -2.4907
  326TIP3   OH222468   1.966   1.851  17.111 -0.1775  0.2406  0.7935
  326TIP3    H122469   1.997   1.935  17.143  1.7566  0.7132 -1.9383
  326TIP3    H222470   2.027   1.787  17.148 -1.2953  0.0644  2.3999
  327TIP3   OH222471   3.577   2.273   4.025  0.2915  0.3363  0.2100
  327TIP3    H122472   3.566   2.181   4.002  1.0403  0.1337  0.6458
  327TIP3    H222473   3.647   2.274   4.090 -0.9492  1.0100  1.6043
  328TIP3   OH222474   5.803   3.787   0.750 -0.1524  0.1044 -0.1417
  328TIP3    H122475   5.846   3.836   0.819 -0.3766 -1.1816  0.9550
  328TIP3    H222476   5.710   3.790   0.773 -0.1304 -1.1750  0.2057
  329TIP3   OH222477   1.578   6.399   3.289  0.0720 -0.5634 -0.4529
  329TIP3    H122478   1.616   6.482   3.319 -1.9620  0.0159  0.7057
  329TIP3    H222479   1.615   6.333   3.349 -0.6926 -0.0215  0.6378
  330TIP3   OH222480   1.678   0.745  12.041  0.9135 -0.0854  0.0109
  330TIP3    H122481   1.684   0.827  12.090 -0.2932 -0.5996  1.0888
  330TIP3    H222482   1.598   0.754  11.990  0.4500 -0.8152  0.5945
  331TIP3   OH222483   2.266   1.510  12.228  0.1622 -0.0388  0.2955
  331TIP3    H122484   2.197   1.563  12.268  0.5294 -0.5750  1.7028
  331TIP3    H222485   2.247   1.512  12.134 -2.3119 -0.9398  0.7110
  332TIP3   OH222486   0.136   4.451   5.381 -0.0021  0.3726 -0.2932
  332TIP3    H122487   0.079   4.484   5.450 -0.9744  1.1369 -1.4185
  332TIP3    H222488   0.185   4.379   5.422 -0.3316  0.9885  1.2501
  333TIP3   OH222489   5.186   2.570  12.557  0.0670 -0.1104  0.7428
  333TIP3    H122490   5.252   2.507  12.527 -0.7975 -0.9023  0.4393
  333TIP3    H222491   5.113   2.515  12.588  0.0947  0.7130  2.3858
  334TIP3   OH222492   2.292   5.118  15.760 -0.1289  0.0738  0.1669
  334TIP3    H122493   2.220   5.071  15.719 -0.0839  1.1069 -1.1674
  334TIP3    H222494   2.343   5.153  15.687  0.8883  0.6115  1.0970
  335TIP3   OH222495   1.090   4.967  11.611  0.3206 -0.5066  0.2054
  335TIP3    H122496   1.022   5.032  11.626  0.1440 -0.6575  0.0529
  335TIP3    H222497   1.157   5.013  11.561  0.0948 -0.5045 -0.0953
  336TIP3   OH222498   0.475   1.323   0.325  0.0571 -0.5636  0.9380
  336TIP3    H122499   0.535   1.307   0.252 -0.9590  0.3643 -0.1449
  336TIP3    H222500   0.411   1.252   0.320  0.6349 -1.1630  1.6759
  337TIP3   OH222501   0.058   3.719  14.015 -0.3433  0.0564 -0.4832
  337TIP3    H122502   0.034   3.770  13.937  1.8672  2.1070  0.0430
  337TIP3    H222503   0.152   3.733  14.024 -0.3552 -1.0117  1.9554
  338TIP3   OH222504   3.195   5.783  14.883  0.1699  0.1179 -0.0225
  338TIP3    H122505   3.226   5.733  14.958 -0.2614  0.6025  0.4857
  338TIP3    H222506   3.101   5.796  14.900  0.4384  1.8353  0.2977
  339TIP3   OH222507   5.430   1.665  10.760  0.0807  0.2786  0.1592
  339TIP3    H122508   5.409   1.708  10.677  1.9666 -0.0735 -0.5369
  339TIP3    H222509   5.523   1.647  10.755  0.1159 -0.2862  2.1336
  340TIP3   OH222510   5.802   5.340   6.490 -0.5763 -0.0834  0.2381
  340TIP3    H122511   5.710   5.320   6.504 -0.3820 -1.0596  0.1830
  340TIP3    H222512   5.838   5.261   6.448  0.3823  0.1064  0.6712
  341TIP3   OH222513   1.351   6.652  15.401  0.4577 -0.1725 -0.1640
  341TIP3    H122514   1.440   6.619  15.383  0.9661  1.0114  0.1048
  341TIP3    H222515   1.330   6.707  15.326  0.4996  0.6412  0.4165
  342TIP3   OH222516   1.152   6.683  13.244  0.2035  0.2242  0.0004
  342TIP3    H122517   1.121   6.613  13.301  0.6327 -0.0164 -0.0565
  342TIP3    H222518   1.116   6.662  13.158  1.3675 -0.6346 -0.2982
  343TIP3   OH222519   2.820   3.978  11.629  0.3189  0.2528  0.4065
  343TIP3    H122520   2.800   4.016  11.543 -0.3839 -0.5276  0.2165
  343TIP3    H222521   2.739   3.936  11.657  0.9364 -0.6937  0.8305
  344TIP3   OH222522   5.483   1.493  15.323 -0.8737 -0.3079  0.1589
  344TIP3    H122523   5.568   1.460  15.352  0.1294  0.5991 -1.5745
  344TIP3    H222524   5.461   1.562  15.386  0.2528  0.2295 -0.0106
  345TIP3   OH222525   5.478   4.062  11.402  0.5088  0.1238  0.6119
  345TIP3    H122526   5.514   4.059  11.314 -1.1951 -2.9206 -0.1445
  345TIP3    H222527   5.401   4.118  11.395 -0.7468 -1.6612 -0.3945
  346TIP3   OH222528   3.424   1.513  12.658 -0.4274 -0.1513 -0.5117
  346TIP3    H122529   3.408   1.446  12.724 -2.5040  0.2014 -0.5805
  346TIP3    H222530   3.484   1.574  12.700 -0.4668 -0.7600  0.4602
  347TIP3   OH222531   1.409   0.480  12.489  0.1733 -0.3388 -0.0497
  347TIP3    H122532   1.370   0.481  12.577 -3.1093  1.8966 -1.3443
  347TIP3    H222533   1.487   0.535  12.497 -1.5621  2.1498  1.0188
  348TIP3   OH222534   0.408   3.934   5.359  0.4439  0.2856 -0.1150
  348TIP3    H122535   0.374   3.844   5.354  1.6988 -0.1724 -0.8611
  348TIP3    H222536   0.368   3.979   5.285 -0.0221  0.2965  0.1375
  349TIP3   OH222537   4.904   0.615   6.375 -0.3676 -0.0782 -0.2644
  349TIP3    H122538   4.875   0.573   6.456  1.5427 -0.4240  0.2941
  349TIP3    H222539   4.932   0.702   6.402  1.3330 -0.5736 -0.2938
  350TIP3   OH222540   1.132   6.073   4.873  0.5589 -0.1563 -0.0792
  350TIP3    H122541   1.152   6.153   4.824  0.7319 -0.9349 -1.3398
  350TIP3    H222542   1.207   6.061   4.930  0.8507  0.2263 -0.3730
  351TIP3   OH222543   2.051   4.479   4.128 -0.4039  0.0804 -0.0304
  351TIP3    H122544   2.057   4.385   4.141 -1.6833 -0.0241 -0.0372
  351TIP3    H222545   2.057   4.491   4.033 -1.8533 -0.1695 -0.1814
  352TIP3   OH222546   1.591   3.903  14.465  0.2932 -0.6111  0.2442
  352TIP3    H122547   1.673   3.949  14.484  0.2322 -0.0881 -0.7107
  352TIP3    H222548   1.530   3.936  14.531 -0.2002  1.9832 -1.3743
  353TIP3   OH222549   3.872   6.816  16.445  0.3124  0.2068  0.0991
  353TIP3    H122550   3.809   6.876  16.404 -1.5461 -1.5586  0.2417
  353TIP3    H222551   3.927   6.786  16.372 -1.4079 -1.0501 -0.7371
  354TIP3   OH222552   5.805   6.735   5.132 -0.7344 -0.1856  0.2177
  354TIP3    H122553   5.754   6.734   5.213 -0.3592 -0.2023  0.4545
  354TIP3    H222554   5.833   6.644   5.120  0.2602  0.0454  0.7392
  355TIP3   OH222555   4.374   4.567   2.074  0.2144  0.3243 -0.2021
  355TIP3    H122556   4.450   4.609   2.034 -0.6421  1.8830 -0.2626
  355TIP3    H222557   4.346   4.628   2.142  0.1244 -1.1063  1.1029
  356TIP3   OH222558   2.301   2.747   4.986  0.3323 -0.0814  0.1478
  356TIP3    H122559   2.248   2.770   4.910 -0.8611 -2.4724  0.1459
  356TIP3    H222560   2.368   2.688   4.952  1.0989  0.4824  0.6458
  357TIP3   OH222561   1.395   6.572   3.754  0.3964  0.4331 -0.1448
  357TIP3    H122562   1.437   6.492   3.721  2.8150  0.9950  1.2290
  357TIP3    H222563   1.339   6.541   3.826  2.0070 -0.0334  0.9794
  358TIP3   OH222564   4.318   4.288   0.384 -0.3744 -0.0147  0.1510
  358TIP3    H122565   4.347   4.359   0.326 -0.1422 -0.9741 -0.9452
  358TIP3    H222566   4.332   4.209   0.333  0.7985 -0.9982  1.8914
  359TIP3   OH222567   4.623   5.030  11.287  0.2584 -0.4905 -0.0939
  359TIP3    H122568   4.699   4.999  11.335  0.4640 -2.7859 -1.7466
  359TIP3    H222569   4.640   5.005  11.196 -1.1586  1.5906 -0.9996
  360TIP3   OH222570   5.522   2.270   0.193 -0.2111 -0.3238 -0.1917
  360TIP3    H122571   5.552   2.211   0.262  0.5309  0.4999  0.2130
  360TIP3    H222572   5.432   2.243   0.175 -0.4128 -0.5414  1.1044
  361TIP3   OH222573   5.103   3.766   0.541 -0.1733  0.7352  0.0714
  361TIP3    H122574   5.130   3.725   0.624  1.6551  1.5001 -0.1018
  361TIP3    H222575   5.077   3.692   0.486 -0.0284  0.0869  0.8419
  362TIP3   OH222576   0.660   0.243  11.342 -0.7665 -0.5021  0.0277
  362TIP3    H122577   0.610   0.292  11.406  0.5729  0.5345  0.3354
  362TIP3    H222578   0.700   0.171  11.391 -0.0035  0.1023  0.3155
  363TIP3   OH222579   1.339   3.711  14.118 -0.6039 -0.4807  0.0943
  363TIP3    H122580   1.255   3.676  14.087  0.0075 -0.7368 -1.3463
  363TIP3    H222581   1.396   3.709  14.041  0.0241  1.9354  0.4091
  364TIP3   OH222582   0.991   5.188  14.631  0.0851 -0.7282 -0.4390
  364TIP3    H122583   0.962   5.100  14.605 -0.1042 -1.2380  1.3800
  364TIP3    H222584   1.086   5.185  14.624 -0.0267  0.0881 -3.7890
  365TIP3   OH222585   2.746   0.187  15.443 -0.4158 -0.0892 -0.4076
  365TIP3    H122586   2.730   0.229  15.359  0.4061  1.1521  0.0203
  365TIP3    H222587   2.841   0.172  15.446 -0.6030 -1.3968 -0.2580
  366TIP3   OH222588   2.486   4.168   5.252  0.0839 -0.1393  0.2804
  366TIP3    H122589   2.523   4.252   5.279 -0.6608  0.5367 -0.7168
  366TIP3    H222590   2.417   4.150   5.316  2.1095 -1.4572  2.2073
  367TIP3   OH222591   5.901   2.437   5.965 -0.2394 -0.1728 -0.3339
  367TIP3    H122592   5.956   2.442   5.888 -1.3996  1.6420 -1.1166
  367TIP3    H222593   5.904   2.345   5.991  0.3306 -0.7985 -2.4283
  368TIP3   OH222594   4.338   3.998  10.768  0.3852  0.0689  0.4689
  368TIP3    H122595   4.297   3.956  10.693  0.2204  1.8249 -0.4794
  368TIP3    H222596   4.265   4.024  10.824  0.5009 -1.1107  1.2167
  369TIP3   OH222597   4.523   4.032   1.635 -0.2018 -0.2372  0.4376
  369TIP3    H122598   4.458   3.962   1.633 -1.2204  0.6830 -0.3349
  369TIP3    H222599   4.499   4.088   1.561  0.8004  0.7282  0.8233
  370TIP3   OH222600   6.497   6.688  16.890  0.3386  0.0162  0.5797
  370TIP3    H122601   6.500   6.635  16.811  2.2144  0.3229  0.4110
  370TIP3    H222602   6.405   6.714  16.898  0.2289  0.5712 -1.8819
  371TIP3   OH222603   6.643   4.433  12.484  0.8851  0.2214  0.0753
  371TIP3    H122604   6.628   4.520  12.446  0.3678 -0.4170 -1.2502
  371TIP3    H222605   6.693   4.386  12.418 -0.6452 -1.1601 -0.1616
  372TIP3   OH222606   3.476   2.379  16.069 -0.5518 -0.4120  0.0524
  372TIP3    H122607   3.447   2.313  16.132  0.5300  0.2091  1.2645
  372TIP3    H222608   3.547   2.336  16.021 -0.9703 -0.6843 -0.3279
  373TIP3   OH222609   5.431   1.486  15.952  0.0136 -0.0734  0.6089
  373TIP3    H122610   5.378   1.499  16.030 -2.1694  1.1225 -0.9503
  373TIP3    H222611   5.404   1.400  15.919 -0.8189  0.4081 -0.0222
  374TIP3   OH222612   4.353   4.971  16.020  0.1043  0.7120 -0.4930
  374TIP3    H122613   4.315   4.967  15.932 -0.7147  0.2492 -0.1325
  374TIP3    H222614   4.349   5.063  16.044 -0.5231  0.7129 -0.5844
  375TIP3   OH222615   2.569   6.650   0.424  0.4822  0.5240 -0.1055
  375TIP3    H122616   2.519   6.588   0.371 -1.9134  1.9662  0.2829
  375TIP3    H222617   2.585   6.604   0.506 -0.1175 -0.0248 -0.2848
  376TIP3   OH222618   4.767   0.147  15.607  0.1108 -0.7335 -0.0563
  376TIP3    H122619   4.725   0.181  15.687 -0.4808 -1.8746  0.1329
  376TIP3    H222620   4.750   0.053  15.609 -0.8864 -0.6444 -2.0957
  377TIP3   OH222621   6.501   2.839  13.338 -0.0385  0.4462 -0.2830
  377TIP3    H122622   6.504   2.797  13.424 -1.7736  0.5391 -0.1398
  377TIP3    H222623   6.434   2.790  13.290  0.7284  0.5568 -1.5067
  378TIP3   OH222624   6.708   2.932  15.599 -0.2182 -0.3122  0.2137
  378TIP3    H122625   6.661   2.856  15.634 -0.4110  0.5365  1.9413
  378TIP3    H222626   6.798   2.901  15.586  0.4718 -0.2129  3.6455
  379TIP3   OH222627   5.855   6.301  14.185 -0.0674 -0.3144 -0.1460
  379TIP3    H122628   5.812   6.317  14.269 -0.6659 -0.3810 -0.4312
  379TIP3    H222629   5.887   6.386  14.157 -1.0813 -0.0328 -0.4941
  380TIP3   OH222630   0.437   1.307   3.859  0.0408 -0.1011  0.2577
  380TIP3    H122631   0.398   1.221   3.873  0.4454 -0.3961 -0.3652
  380TIP3    H222632   0.520   1.289   3.815  0.1485  0.6047  0.1521
  381TIP3   OH222633   1.053   4.533  13.349  0.6148 -0.2595 -0.1447
  381TIP3    H122634   1.046   4.438  13.340  0.1505 -0.4137  1.4747
  381TIP3    H222635   1.130   4.545  13.405  0.1255  0.2581  0.4285
  382TIP3   OH222636   1.880   0.668  14.955 -0.2525 -0.4839 -0.3783
  382TIP3    H122637   1.905   0.687  14.864 -0.8705  1.6353 -0.1581
  382TIP3    H222638   1.919   0.740  15.005  0.1120 -1.6550  1.0541
  383TIP3   OH222639   2.633   5.020  10.971 -0.2146  0.2172 -0.7229
  383TIP3    H122640   2.543   4.993  10.988  0.2818 -0.4191  1.0744
  383TIP3    H222641   2.673   4.943  10.929 -0.1207 -0.0422 -0.1626
  384TIP3   OH222642   0.224   2.668  15.321 -0.6730 -0.3858 -0.3603
  384TIP3    H122643   0.254   2.668  15.412  0.1395 -0.6189 -0.6313
  384TIP3    H222644   0.168   2.590  15.314  0.6490 -1.3412 -0.5166
  385TIP3   OH222645   0.040   4.092   5.466 -0.6719 -0.2446  0.0773
  385TIP3    H122646  -0.019   4.122   5.534  0.6957  3.7792 -0.2507
  385TIP3    H222647  -0.007   4.108   5.384 -0.7376 -1.1378 -0.0669
  386TIP3   OH222648   4.823   4.738   0.365 -0.1906  0.0215  0.1076
  386TIP3    H122649   4.895   4.798   0.389 -0.2983 -0.7210  2.5596
  386TIP3    H222650   4.854   4.694   0.286  1.2025  1.1123  0.0007
  387TIP3   OH222651   2.141   4.559   6.759 -0.5453 -0.3003 -0.4871
  387TIP3    H122652   2.210   4.617   6.728 -0.2838 -0.9639 -1.1660
  387TIP3    H222653   2.060   4.605   6.737 -0.3425  0.5606  0.4684
  388TIP3   OH222654   2.877   3.689   3.306  0.4791  0.5221  0.0734
  388TIP3    H122655   2.919   3.755   3.251 -0.2845  1.3023  0.3922
  388TIP3    H222656   2.880   3.726   3.394 -2.4666  1.5272 -0.1235
  389TIP3   OH222657   5.368   6.194  14.842 -0.2672 -0.3703  0.3278
  389TIP3    H122658   5.309   6.268  14.831 -0.5138 -0.7464 -1.0550
  389TIP3    H222659   5.450   6.221  14.801  0.0045 -0.4448  0.8168
  390TIP3   OH222660   1.536   4.829   1.852 -0.2813  0.1196 -0.5064
  390TIP3    H122661   1.551   4.831   1.947 -2.3634 -1.2277 -0.0773
  390TIP3    H222662   1.544   4.921   1.825 -0.0997  0.5993  1.0422
  391TIP3   OH222663   3.551   4.486  14.613  0.7431  0.9606  0.1302
  391TIP3    H122664   3.613   4.550  14.578  0.9649  0.6064 -0.1319
  391TIP3    H222665   3.605   4.410  14.635  0.2017  0.0034 -1.6597
  392TIP3   OH222666   5.409   4.334  14.665 -0.5388  0.0078 -0.0068
  392TIP3    H122667   5.449   4.265  14.718 -2.1508  1.0567  2.7883
  392TIP3    H222668   5.481   4.371  14.615  0.6903 -2.4222 -0.1760
  393TIP3   OH222669   0.211   3.022   1.754  0.1849  0.0191  0.0634
  393TIP3    H122670   0.138   2.989   1.806  0.6724 -0.2901  0.5491
  393TIP3    H222671   0.212   2.967   1.676 -1.1591  1.0988 -0.7655
  394TIP3   OH222672   1.550   0.655  11.307  0.2187  0.5005 -0.1195
  394TIP3    H122673   1.462   0.678  11.337 -0.3352 -0.3402 -1.0284
  394TIP3    H222674   1.540   0.566  11.272  1.8327 -0.3536  1.4426
  395TIP3   OH222675   5.301   4.422  11.783  0.5889  0.2149 -0.1099
  395TIP3    H122676   5.337   4.381  11.705  0.2496  0.1308 -0.2232
  395TIP3    H222677   5.210   4.392  11.786  0.5734  0.2948  0.2619
  396TIP3   OH222678   5.488   2.504  14.105 -0.4648 -0.2335  0.0683
  396TIP3    H122679   5.531   2.514  14.190  0.1389 -0.4116 -0.2038
  396TIP3    H222680   5.435   2.425  14.115 -0.3760 -0.2701  0.2744
  397TIP3   OH222681   1.513   4.318   0.565 -0.8597 -0.6379 -0.0189
  397TIP3    H122682   1.585   4.379   0.579 -0.8760 -0.7015  0.3574
  397TIP3    H222683   1.519   4.294   0.473 -0.9323  0.0269 -0.1952
  398TIP3   OH222684   4.556   4.707  14.690 -0.2040 -0.4858  0.1323
  398TIP3    H122685   4.609   4.770  14.739 -0.0213 -0.0600 -0.5878
  398TIP3    H222686   4.557   4.628  14.743  1.2631 -0.5237  0.0890
  399TIP3   OH222687   5.069   4.174  15.658 -0.0091 -0.2060 -0.3970
  399TIP3    H122688   5.100   4.083  15.655  4.0798  0.9218  0.8254
  399TIP3    H222689   5.087   4.209  15.571 -2.0688 -0.6209 -1.0316
  400TIP3   OH222690   1.020   2.097   4.342 -0.7151 -0.2727  0.0373
  400TIP3    H122691   0.950   2.129   4.286 -2.4758 -1.0913  1.6845
  400TIP3    H222692   1.079   2.172   4.350 -1.3795  0.4451 -1.3571
  401TIP3   OH222693   6.575   1.652   3.646 -0.4048 -0.0908 -0.5263
  401TIP3    H122694   6.631   1.575   3.642 -0.9019 -0.4089 -1.5614
  401TIP3    H222695   6.534   1.648   3.733  1.5613  0.4547  0.4992
  402TIP3   OH222696   3.900   3.185  11.726 -0.3926  0.3088  0.3281
  402TIP3    H122697   3.851   3.268  11.725  0.8351  1.0592 -0.7516
  402TIP3    H222698   3.884   3.147  11.639  0.4450  0.2656  0.1875
  403TIP3   OH222699   2.814   3.146   4.393  0.1296 -0.5430  0.2579
  403TIP3    H122700   2.785   3.237   4.395 -0.7155 -0.7429 -1.4075
  403TIP3    H222701   2.910   3.151   4.398  0.1708  0.5357 -1.1832
  404TIP3   OH222702   1.476   5.023  15.503 -0.2013 -0.3556 -0.2391
  404TIP3    H122703   1.405   4.964  15.479 -0.7510 -0.7690  2.2139
  404TIP3    H222704   1.435   5.109  15.511  0.1403 -0.0582 -1.4781
  405TIP3   OH222705   1.322   2.846   0.016 -0.1074 -0.0184  0.3846
  405TIP3    H122706   1.260   2.797   0.070 -0.4955  0.7609  0.6515
  405TIP3    H222707   1.408   2.826   0.053 -0.3488  0.3015  1.1302
  406TIP3   OH222708   2.676   5.318  11.063  0.3140 -0.1487  0.1932
  406TIP3    H122709   2.769   5.337  11.053  0.6344 -0.5564  1.9723
  406TIP3    H222710   2.666   5.227  11.037  0.3166  0.0151 -0.4010
  407TIP3   OH222711   2.187   4.642  12.886 -0.3615 -0.1830 -0.0607
  407TIP3    H122712   2.177   4.623  12.792  1.0405  0.1834 -0.3165
  407TIP3    H222713   2.103   4.679  12.912 -0.7150 -0.1197 -1.2169
  408TIP3   OH222714   0.251   5.805  13.666 -0.2854  0.6172  0.0700
  408TIP3    H122715   0.286   5.873  13.723 -0.2148  1.0494 -0.4736
  408TIP3    H222716   0.247   5.727  13.721  0.4183  0.8529  0.4671
  409TIP3   OH222717   5.754   1.847  16.460  0.2036 -0.1371 -0.2154
  409TIP3    H122718   5.736   1.753  16.454  0.5111 -0.1054 -2.6045
  409TIP3    H222719   5.669   1.889  16.447  0.1352 -0.0864  0.4026
  410TIP3   OH222720   1.770   2.474  14.885  0.6046  0.7227 -0.1394
  410TIP3    H122721   1.822   2.434  14.955  2.6463  0.1625 -1.8736
  410TIP3    H222722   1.790   2.567  14.891  0.8272  0.6683 -0.0165
  411TIP3   OH222723   0.355   4.301   2.603  0.4351 -0.4855 -0.5419
  411TIP3    H122724   0.361   4.210   2.629 -0.9129 -0.6726 -0.7843
  411TIP3    H222725   0.419   4.311   2.533  1.3580 -0.9533  0.2225
  412TIP3   OH222726   2.502   4.648   4.094 -0.3475  0.3205  0.4913
  412TIP3    H122727   2.423   4.652   4.148 -0.4234  0.7628  0.3465
  412TIP3    H222728   2.543   4.565   4.119 -0.1465  0.7214  1.5388
  413TIP3   OH222729   0.255   1.999   0.952 -0.0200 -0.3511 -0.0220
  413TIP3    H122730   0.346   2.025   0.965 -0.1983  0.7086 -0.7814
  413TIP3    H222731   0.249   1.913   0.993  1.0401  0.0391  1.0242
  414TIP3   OH222732   4.746   1.725  13.487  0.0064 -0.1137 -0.0327
  414TIP3    H122733   4.709   1.648  13.443 -0.8312 -0.3842  1.1088
  414TIP3    H222734   4.839   1.723  13.466 -0.2478 -0.6357 -1.1838
  415TIP3   OH222735   2.935   4.293   3.622 -0.7855 -0.9519 -0.2918
  415TIP3    H122736   2.852   4.246   3.633 -1.2442 -0.0253  0.2659
  415TIP3    H222737   2.925   4.338   3.538 -1.2742  0.0024  0.2696
  416TIP3   OH222738   4.810   5.269  15.418  0.7945 -0.4261 -0.0189
  416TIP3    H122739   4.722   5.232  15.412  0.0505  0.8986  1.7824
  416TIP3    H222740   4.839   5.279  15.327 -1.3821  0.1337 -0.7040
  417TIP3   OH222741   4.566   3.208  15.160 -0.6907  0.1475 -0.2422
  417TIP3    H122742   4.472   3.209  15.145 -0.7429 -1.1086 -0.1194
  417TIP3    H222743   4.596   3.127  15.119  0.1440 -0.0759  0.7685
  418TIP3   OH222744   3.462   1.545  15.099  0.2966  0.3262  0.1954
  418TIP3    H122745   3.424   1.463  15.067  0.7793 -0.0277  0.5181
  418TIP3    H222746   3.393   1.611  15.085 -0.6666 -0.4076  1.3521
  419TIP3   OH222747   1.860   1.522  11.336  0.2598  0.0618 -0.4773
  419TIP3    H122748   1.842   1.614  11.354  0.8943  0.2910 -0.9864
  419TIP3    H222749   1.939   1.523  11.282  2.0378 -0.9190  1.9123
  420TIP3   OH222750   1.386   2.086   2.789 -0.1053  0.1535  0.0239
  420TIP3    H122751   1.451   2.044   2.733  0.1586  0.1798  0.3008
  420TIP3    H222752   1.406   2.053   2.877 -0.3405  0.3176  0.1396
  421TIP3   OH222753   3.192   0.436  10.454 -0.3298  1.0675 -0.2145
  421TIP3    H122754   3.152   0.350  10.439 -1.4734  1.3650  0.9400
  421TIP3    H222755   3.202   0.473  10.367  0.2378 -0.2467 -0.7401
  422TIP3   OH222756   0.946   5.499  12.169  0.9149  0.4396  0.0667
  422TIP3    H122757   0.980   5.567  12.227  1.4903 -1.1203  1.6474
  422TIP3    H222758   0.851   5.513  12.170  1.0631  1.6129 -0.1837
  423TIP3   OH222759   3.869   1.518  16.804 -0.6517  0.4129  0.3511
  423TIP3    H122760   3.799   1.506  16.740 -0.9832 -0.2347  0.8270
  423TIP3    H222761   3.935   1.570  16.758 -0.6920 -0.4160 -0.6630
  424TIP3   OH222762   5.760   4.610  13.626 -0.0997 -0.2289  0.1284
  424TIP3    H122763   5.739   4.536  13.570 -0.3342 -0.9894  1.1937
  424TIP3    H222764   5.802   4.674  13.567  2.0006 -2.0006 -0.4463
  425TIP3   OH222765   2.687   6.726  14.343  0.7343 -0.5029 -0.1297
  425TIP3    H122766   2.656   6.641  14.311  0.2088 -0.0944 -0.7272
  425TIP3    H222767   2.718   6.708  14.432 -0.8383 -1.0357  0.3441
  426TIP3   OH222768   4.005   2.912   3.123  0.0257 -0.1077  0.0401
  426TIP3    H122769   4.044   2.925   3.210 -2.2633  1.4368  0.9497
  426TIP3    H222770   4.015   2.996   3.080  0.5165 -0.6610 -0.9577
  427TIP3   OH222771   2.838   2.171   1.261 -0.2520  0.0440 -0.7792
  427TIP3    H122772   2.790   2.097   1.223  1.0351 -0.3565 -1.7069
  427TIP3    H222773   2.859   2.227   1.186  2.4928 -0.8435 -0.8010
  428TIP3   OH222774   2.000   4.570  11.048  0.2694  0.0448 -0.0025
  428TIP3    H122775   2.068   4.543  11.109  1.0282  1.9644  0.0625
  428TIP3    H222776   1.994   4.665  11.059  0.2571  0.4285 -2.6954
  429TIP3   OH222777   6.455   2.362   4.236  0.1281 -0.0592  0.1310
  429TIP3    H122778   6.447   2.310   4.155  1.0427 -0.1333  0.0744
  429TIP3    H222779   6.540   2.405   4.228  0.7051 -0.8806  1.5209
  430TIP3   OH222780   3.748   5.411   3.620 -0.6652 -0.6865  0.2177
  430TIP3    H122781   3.694   5.375   3.550 -2.4080 -1.6732  1.9505
  430TIP3    H222782   3.711   5.498   3.636 -1.9254 -1.4066  1.4819
  431TIP3   OH222783   1.647   6.058  14.595  0.1274  0.2652 -0.1221
  431TIP3    H122784   1.675   6.013  14.675 -0.6081  0.9728  0.5616
  431TIP3    H222785   1.639   6.150  14.622  0.2037  0.5636 -1.1059
  432TIP3   OH222786   6.828   0.467   6.183 -0.0324  0.0836 -0.2358
  432TIP3    H122787   6.835   0.401   6.251 -0.2009 -0.2268 -0.5172
  432TIP3    H222788   6.734   0.472   6.165 -0.0490  0.5794 -0.0423
  433TIP3   OH222789   5.944   3.242  11.609 -0.3404  0.0576 -0.3424
  433TIP3    H122790   5.933   3.333  11.639  1.8099  0.4131 -0.4572
  433TIP3    H222791   5.969   3.251  11.517 -0.5788 -0.6826 -0.4809
  434TIP3   OH222792   4.587   6.335   0.093 -0.3272  0.1296 -0.1652
  434TIP3    H122793   4.557   6.398   0.159 -0.5242 -1.1130  0.9785
  434TIP3    H222794   4.603   6.388   0.014 -2.3968  1.3190  0.1517
  435TIP3   OH222795   6.742   0.570   4.814 -0.3733 -0.7307  0.3216
  435TIP3    H122796   6.684   0.510   4.768  1.2508 -1.0255 -1.4988
  435TIP3    H222797   6.772   0.630   4.747  0.6448  0.0276  1.4108
  436TIP3   OH222798   5.408   1.809  12.192  0.5712 -0.2613  0.0230
  436TIP3    H122799   5.428   1.716  12.201 -1.2880 -0.6034  1.0556
  436TIP3    H222800   5.492   1.850  12.172  1.5535 -2.0565  0.2974
  437TIP3   OH222801   5.308   6.621   3.369 -0.1089 -0.1911  0.6659
  437TIP3    H122802   5.365   6.572   3.429 -0.9419  0.0354  1.6869
  437TIP3    H222803   5.309   6.570   3.288  2.2812  0.3219  0.2929
  438TIP3   OH222804   6.833   5.995   1.312  0.1102 -0.1575  0.7067
  438TIP3    H122805   6.853   5.915   1.263 -1.0203  0.4755 -0.8987
  438TIP3    H222806   6.918   6.026   1.343  0.5951 -1.8487  1.1708
  439TIP3   OH222807   5.523   4.531  14.985  0.3663 -0.2151 -0.2278
  439TIP3    H122808   5.434   4.497  14.986 -0.1018  0.9966  0.3383
  439TIP3    H222809   5.519   4.608  14.928  0.2665  1.7974  2.3271
  440TIP3   OH222810   5.438   0.026  15.955 -0.3874 -0.3809  0.3027
  440TIP3    H122811   5.369   0.004  15.893  0.7680  0.0679 -1.2343
  440TIP3    H222812   5.432   0.121  15.965  1.3283  0.0177 -1.6421
  441TIP3   OH222813   4.964   1.659   2.351  0.3557 -0.0212  0.0383
  441TIP3    H122814   4.929   1.745   2.328 -0.5396 -0.2059  0.6896
  441TIP3    H222815   5.023   1.637   2.278 -2.2626 -0.5109 -2.1231
  442TIP3   OH222816   4.177   2.689  16.553  0.4043  0.2861  0.7712
  442TIP3    H122817   4.262   2.701  16.511  0.1516  0.8325  0.4099
  442TIP3    H222818   4.153   2.599  16.534 -0.1349  0.7838 -1.0548
  443TIP3   OH222819   1.329   5.089   1.253  0.1286 -0.1008  0.6747
  443TIP3    H122820   1.337   5.184   1.262  0.1013 -0.0458  0.1686
  443TIP3    H222821   1.287   5.061   1.334 -1.0940  0.4814  0.2774
  444TIP3   OH222822   2.800   1.847  15.568  0.8088  0.1221 -0.0752
  444TIP3    H122823   2.761   1.922  15.523  1.6079  1.4931  1.4308
  444TIP3    H222824   2.893   1.868  15.574  1.0681 -1.0368  0.3276
  445TIP3   OH222825   6.335   0.558   2.106  0.5655 -0.2917  0.4145
  445TIP3    H122826   6.311   0.643   2.142 -1.3741 -0.5894 -0.0694
  445TIP3    H222827   6.367   0.578   2.018 -1.9590 -0.1751 -0.5579
  446TIP3   OH222828   6.751   4.740   4.080 -0.2200  0.0788 -0.1253
  446TIP3    H122829   6.720   4.651   4.098  0.7499 -0.0858  0.8026
  446TIP3    H222830   6.772   4.776   4.166 -1.6624  1.6302 -0.3697
  447TIP3   OH222831   5.848   5.130  14.177 -0.0754 -0.0186 -0.3562
  447TIP3    H122832   5.805   5.097  14.097 -1.0426 -0.1844  0.2140
  447TIP3    H222833   5.898   5.055  14.210  1.6301  0.4931 -1.6360
  448TIP3   OH222834   1.595   3.204   1.834  0.2582 -0.0886 -0.2544
  448TIP3    H122835   1.619   3.292   1.806  0.6352 -0.2015 -0.2944
  448TIP3    H222836   1.638   3.146   1.771 -2.5854 -0.2490 -2.2225
  449TIP3   OH222837   6.445   5.016  12.590  0.1314 -0.1645  0.4910
  449TIP3    H122838   6.521   4.971  12.553 -0.1709 -1.1189  1.0046
  449TIP3    H222839   6.439   4.983  12.680 -0.1849  0.8079  0.8382
  450TIP3   OH222840   6.159   3.253  11.886  0.4593  0.4194 -0.5538
  450TIP3    H122841   6.234   3.232  11.942 -0.7806  0.0198  1.0397
  450TIP3    H222842   6.161   3.187  11.817  1.8579  0.7387 -0.8473
  451TIP3   OH222843   4.887   4.630  14.651  0.0718  0.0490  0.2409
  451TIP3    H122844   4.954   4.604  14.713  0.8234  0.8028 -0.2357
  451TIP3    H222845   4.858   4.717  14.681 -0.8475 -0.3550  0.5621
  452TIP3   OH222846   0.593   1.514  16.501 -1.2058  0.2075  0.2302
  452TIP3    H122847   0.596   1.518  16.406 -1.9119 -0.0195  0.1875
  452TIP3    H222848   0.519   1.570  16.525 -0.8936  0.4404  0.6559
  453TIP3   OH222849   4.548   3.883   5.556  0.5386  0.1810  0.4712
  453TIP3    H122850   4.570   3.875   5.463 -0.7910 -0.6695  0.2137
  453TIP3    H222851   4.549   3.793   5.589  1.9582  0.5365  1.5473
  454TIP3   OH222852   2.396   6.536  12.638  0.3393  0.2350 -0.1792
  454TIP3    H122853   2.400   6.589  12.718 -0.6084 -2.3461  1.7105
  454TIP3    H222854   2.314   6.563  12.596 -0.7030 -0.4063  1.3404
  455TIP3   OH222855   2.991   2.852  15.037 -0.1933 -0.1701 -0.0332
  455TIP3    H122856   2.927   2.921  15.055 -1.4596 -1.2674 -0.1525
  455TIP3    H222857   3.031   2.878  14.954 -1.0959  0.1247 -0.3893
  456TIP3   OH222858   4.181   1.147   1.036 -0.0344 -0.3586 -0.5714
  456TIP3    H122859   4.111   1.200   1.073  0.4284 -0.0126 -0.1757
  456TIP3    H222860   4.229   1.206   0.979  0.1781 -0.4830 -0.5242
  457TIP3   OH222861   2.569   6.171   2.284 -0.3291  0.4940 -0.8456
  457TIP3    H122862   2.505   6.139   2.221 -0.9933  1.9425 -0.9378
  457TIP3    H222863   2.524   6.241   2.331 -0.8712 -2.1582  3.1411
  458TIP3   OH222864   0.906   3.819   3.137  0.0814 -0.4809  0.2714
  458TIP3    H122865   0.913   3.909   3.107 -2.6733 -0.5161 -0.7752
  458TIP3    H222866   0.987   3.778   3.108  0.3206  1.0816 -1.4617
  459TIP3   OH222867   2.426   4.008  14.389  0.7437 -0.0430 -0.3516
  459TIP3    H122868   2.490   3.947  14.354  0.8372 -0.7146  0.9462
  459TIP3    H222869   2.341   3.966  14.373  0.8793 -1.4350  2.1132
  460TIP3   OH222870   1.425   1.913  15.365 -0.1634  0.0842 -0.0760
  460TIP3    H122871   1.449   1.978  15.431 -0.5696 -0.3413  0.4974
  460TIP3    H222872   1.395   1.837  15.415 -2.5160  0.4982 -0.7388
  461TIP3   OH222873   3.800   5.317  14.747  0.2963 -0.7063 -0.5135
  461TIP3    H122874   3.762   5.398  14.712  1.2318  0.1387  0.3644
  461TIP3    H222875   3.731   5.282  14.804  1.2299  1.6059  2.2727
  462TIP3   OH222876   3.881   5.655   1.801 -0.3065 -0.0782  0.2753
  462TIP3    H122877   3.903   5.587   1.865 -0.9872 -0.8760 -0.3141
  462TIP3    H222878   3.844   5.726   1.853 -0.4891 -0.5501  0.8033
  463TIP3   OH222879   0.370   2.045  13.962 -0.1523 -0.4587  0.6569
  463TIP3    H122880   0.398   2.091  14.040  0.4279 -0.7322  0.6188
  463TIP3    H222881   0.444   1.987  13.940  0.4094  0.8073 -1.0489
  464TIP3   OH222882   5.096   5.626  12.546 -0.5936 -0.3586  0.2241
  464TIP3    H122883   5.125   5.717  12.550 -0.8237 -0.2721 -0.0528
  464TIP3    H222884   5.177   5.575  12.556 -0.8083 -0.2144  3.9561
  465TIP3   OH222885   5.377   3.618  16.701 -0.1930 -0.0463  0.4144
  465TIP3    H122886   5.450   3.560  16.724 -0.1858 -0.4960 -0.6661
  465TIP3    H222887   5.393   3.698  16.751  2.4575  0.8544 -1.6525
  466TIP3   OH222888   0.683   3.797  15.106  0.0858 -0.4893 -0.2665
  466TIP3    H122889   0.766   3.754  15.089  0.5058  0.0777  0.3239
  466TIP3    H222890   0.691   3.883  15.066 -0.2372 -0.4450 -0.2441
  467TIP3   OH222891   4.738   5.528   3.873 -0.1545 -0.1740 -0.0919
  467TIP3    H122892   4.794   5.547   3.948  0.8956  1.0383 -1.1315
  467TIP3    H222893   4.669   5.472   3.908  0.4195  0.1902  1.7217
  468TIP3   OH222894   4.476   2.891   3.188  0.1412 -0.0989 -0.3531
  468TIP3    H122895   4.491   2.951   3.262  0.4910  0.7033 -1.0600
  468TIP3    H222896   4.481   2.804   3.227 -3.2050  0.2727  1.2594
  469TIP3   OH222897   3.416   6.337   3.436 -0.2320 -0.2676 -0.5838
  469TIP3    H122898   3.473   6.265   3.462 -0.8845 -0.7061 -0.3765
  469TIP3    H222899   3.450   6.413   3.485  0.0615 -0.5622 -0.3283
  470TIP3   OH222900   2.842   3.954  13.506 -0.2709 -0.3621  0.1716
  470TIP3    H122901   2.758   3.955  13.553 -0.4814 -3.1116  0.0154
  470TIP3    H222902   2.821   3.918  13.420  1.0196 -0.7746  0.0131
  471TIP3   OH222903   0.059   0.512  13.327 -0.1325 -0.3889  0.4321
  471TIP3    H122904   0.025   0.563  13.253  0.2342  0.1987  0.6640
  471TIP3    H222905   0.113   0.574  13.376  0.6675 -1.1168  0.4835
  472TIP3   OH222906   1.383   2.570   3.126  0.1558 -0.0434 -0.7122
  472TIP3    H122907   1.459   2.601   3.077 -0.1004 -1.2194 -1.9074
  472TIP3    H222908   1.394   2.475   3.129 -0.4299 -0.0932  0.5512
  473TIP3   OH222909   0.523   4.493  13.185  0.4554  0.1237 -0.1203
  473TIP3    H122910   0.435   4.456  13.192 -0.0385  1.3209  0.2194
  473TIP3    H222911   0.582   4.419  13.204 -0.4710 -0.6422 -0.1584
  474TIP3   OH222912   0.292   4.768  13.818  0.3938 -0.1903 -0.2871
  474TIP3    H122913   0.309   4.858  13.847  0.8163 -0.7381  1.2653
  474TIP3    H222914   0.198   4.767  13.799  0.1818  0.3408  0.6518
  475TIP3   OH222915   3.376   6.404  11.879  0.3359 -0.4771 -0.1604
  475TIP3    H122916   3.402   6.399  11.971  0.4925  0.0986 -0.1713
  475TIP3    H222917   3.459   6.404  11.830  0.3703  1.5636 -0.1846
  476TIP3   OH222918   4.917   6.443  15.930  0.0222  0.7832 -0.2566
  476TIP3    H122919   4.851   6.410  15.991 -0.7517 -0.3877 -1.6622
  476TIP3    H222920   5.000   6.432  15.976 -0.6922  1.9594  1.4142
  477TIP3   OH222921   6.309   2.375  13.003  0.2612  0.2810 -0.3748
  477TIP3    H122922   6.297   2.342  12.914 -1.2153 -0.3562  0.0240
  477TIP3    H222923   6.333   2.297  13.054 -0.6973  0.2880  0.1053
  478TIP3   OH222924   3.146   6.833   6.403 -0.3948  0.0446 -0.1794
  478TIP3    H122925   3.054   6.805   6.406 -0.4829  0.3810  0.5054
  478TIP3    H222926   3.193   6.768   6.455 -0.2283 -0.1689 -0.5919
  479TIP3   OH222927   5.243   0.999   4.297 -0.0996  0.1225 -0.5280
  479TIP3    H122928   5.249   1.003   4.202  1.4901 -0.0652 -0.4716
  479TIP3    H222929   5.150   1.009   4.316 -1.0334 -3.4755 -2.2640
  480TIP3   OH222930   3.547   0.334   4.225 -0.5128 -0.4596 -0.1039
  480TIP3    H122931   3.591   0.393   4.285  0.1834 -1.1728  0.1063
  480TIP3    H222932   3.551   0.378   4.140  1.4550 -0.9068 -0.2869
  481TIP3   OH222933   6.342   3.103  10.872  0.7655 -0.0863 -0.1978
  481TIP3    H122934   6.341   3.031  10.935 -0.9007 -0.1810 -0.3006
  481TIP3    H222935   6.330   3.060  10.787  3.8460 -0.0528 -0.7644
  482TIP3   OH222936   0.088   3.135   5.255  0.0785  0.1916  0.3168
  482TIP3    H122937  -0.001   3.123   5.288  0.1843 -1.0285  0.2059
  482TIP3    H222938   0.140   3.157   5.332  0.2708 -2.3291  0.9823
  483TIP3   OH222939   4.278   1.716  14.565 -0.5157 -0.3413 -0.1867
  483TIP3    H122940   4.282   1.771  14.486 -0.2169  0.7081  0.5415
  483TIP3    H222941   4.198   1.665  14.554 -1.4362  1.0777 -0.3565
  484TIP3   OH222942   0.247   1.722   5.406 -0.1750 -0.3477 -0.1221
  484TIP3    H122943   0.209   1.753   5.324 -1.6229 -0.0605  0.6193
  484TIP3    H222944   0.336   1.757   5.406 -0.5964  0.7860 -0.9429
  485TIP3   OH222945   1.605   3.268  14.188 -0.5685 -0.4433 -0.4115
  485TIP3    H122946   1.582   3.194  14.132 -3.8593 -0.9873  1.4209
  485TIP3    H222947   1.697   3.254  14.209  0.1431 -1.4995 -3.5939
  486TIP3   OH222948   2.839   5.259  15.868  0.0125  0.6910 -0.0634
  486TIP3    H122949   2.769   5.211  15.911  0.1079 -0.6903 -1.3901
  486TIP3    H222950   2.804   5.281  15.782  0.3019  2.2473  0.1808
  487TIP3   OH222951   3.356   4.252   4.523  0.2358  0.4232  0.2670
  487TIP3    H122952   3.352   4.293   4.610  3.3894 -0.0239  0.7167
  487TIP3    H222953   3.264   4.234   4.502 -1.1708  5.1967  1.1538
  488TIP3   OH222954   2.597   2.542   0.580  0.0320 -0.5004  0.4350
  488TIP3    H122955   2.510   2.550   0.620 -0.7394 -1.8370 -0.8699
  488TIP3    H222956   2.640   2.472   0.631  1.0443  1.2566  2.1491
  489TIP3   OH222957   2.936   1.420  14.259 -0.0689 -0.5944 -0.1126
  489TIP3    H122958   2.992   1.386  14.329  2.8245  0.8175 -1.6077
  489TIP3    H222959   2.949   1.515  14.262 -1.6554 -0.3087 -1.1680
  490TIP3   OH222960   5.517   5.609  13.678 -0.1138 -0.0758 -0.1024
  490TIP3    H122961   5.504   5.675  13.746 -0.4584  1.0914 -1.2386
  490TIP3    H222962   5.429   5.591  13.645 -0.0038 -1.0218  0.1147
  491TIP3   OH222963   6.486   1.015  15.254 -0.8322 -0.4922 -0.4843
  491TIP3    H122964   6.523   0.945  15.199  2.6488  0.9468 -0.2636
  491TIP3    H222965   6.531   1.004  15.339  3.1796  4.1244 -1.5414
  492TIP3   OH222966   3.200   6.347   5.590 -0.0808  0.4323 -0.2451
  492TIP3    H122967   3.255   6.401   5.647 -3.7043  1.6926  2.4885
  492TIP3    H222968   3.178   6.403   5.516  0.0129  0.9788  0.1373
  493TIP3   OH222969   4.337   4.196   6.068 -0.2754  0.1828  0.0250
  493TIP3    H122970   4.420   4.149   6.058  0.4821  1.3763  0.5389
  493TIP3    H222971   4.308   4.213   5.978  0.2468  0.1327 -0.1538
  494TIP3   OH222972   5.254   3.848  14.343 -0.3302 -0.0649 -0.1609
  494TIP3    H122973   5.273   3.754  14.344 -0.1830 -0.0359 -0.1704
  494TIP3    H222974   5.294   3.881  14.424  2.0726  0.4571 -1.4704
  495TIP3   OH222975   5.655   6.187   3.372 -0.0278 -0.0950 -0.7411
  495TIP3    H122976   5.680   6.234   3.452  0.7409  0.5629 -1.3575
  495TIP3    H222977   5.738   6.164   3.331 -0.4096 -1.2758 -0.8765
  496TIP3   OH222978   1.176   4.185   0.796  0.5433 -0.0601 -0.3473
  496TIP3    H122979   1.255   4.217   0.840 -0.3943 -0.0590  1.4477
  496TIP3    H222980   1.122   4.264   0.786 -0.5165 -0.5206  1.3470
  497TIP3   OH222981   0.644   2.011   1.846 -0.4895  0.0523  0.2227
  497TIP3    H122982   0.721   2.027   1.901 -0.5471 -1.4061  0.7627
  497TIP3    H222983   0.581   1.970   1.904 -1.0423 -0.3199 -0.6280
  498TIP3   OH222984   1.124   5.815   4.773  0.1164 -0.3495  0.1437
  498TIP3    H122985   1.144   5.898   4.815  1.4044  0.0179 -1.1230
  498TIP3    H222986   1.036   5.826   4.737 -0.8478 -0.5393  2.3277
  499TIP3   OH222987   6.846   5.169  14.462 -0.1590  0.0922 -0.1402
  499TIP3    H122988   6.891   5.112  14.399  0.2876 -0.2045  0.4389
  499TIP3    H222989   6.828   5.112  14.537 -2.6479 -0.1512 -0.8262
  500TIP3   OH222990   4.944   1.299   1.703  0.0003  0.0440  0.4000
  500TIP3    H122991   5.006   1.227   1.706  0.1195 -0.0527 -2.0621
  500TIP3    H222992   4.998   1.378   1.702  0.1728 -0.0413 -1.7839
  501TIP3   OH222993   3.403   5.517   3.696  0.0089  0.8259 -0.0545
  501TIP3    H122994   3.465   5.506   3.768 -0.0442 -0.4140 -0.1665
  501TIP3    H222995   3.324   5.552   3.737 -0.0561  0.0352  0.5256
  502TIP3   OH222996   2.359   3.777   0.398 -0.3510  0.0103  0.5593
  502TIP3    H122997   2.278   3.737   0.365  0.0773 -0.7060  0.3564
  502TIP3    H222998   2.429   3.725   0.358  0.2291  1.0843  0.1430
  503TIP3   OH222999   5.312   3.547   5.210  0.3153 -0.3424  0.1774
  503TIP3    H123000   5.395   3.540   5.257  0.2336 -0.2656  0.3349
  503TIP3    H223001   5.286   3.456   5.194 -0.1292 -0.3941  1.1220
  504TIP3   OH223002   5.210   4.424   4.824 -0.2425 -0.3491 -0.4346
  504TIP3    H123003   5.215   4.380   4.740 -1.9756  1.7700 -1.7398
  504TIP3    H223004   5.298   4.457   4.840  0.0623 -0.6515 -1.4865
  505TIP3   OH223005   1.471   6.473   1.280  0.2069 -0.0371  0.1084
  505TIP3    H123006   1.430   6.468   1.366  1.2724  1.7310  0.7857
  505TIP3    H223007   1.414   6.531   1.230  1.2473  1.5778  0.7169
  506TIP3   OH223008   2.791   0.905   2.112 -0.1600  1.0762 -0.1011
  506TIP3    H123009   2.777   0.916   2.018 -1.0115  1.4402  0.0618
  506TIP3    H223010   2.837   0.821   2.119 -3.4129 -0.9345 -0.6410
  507TIP3   OH223011   3.641   1.765   3.264 -0.3752  0.1990 -0.7782
  507TIP3    H123012   3.669   1.679   3.234  0.5485 -0.7855  2.5457
  507TIP3    H223013   3.548   1.755   3.283  0.3506 -1.1992  2.7047
  508TIP3   OH223014   6.360   5.608  13.966 -0.3275 -0.1764 -0.2248
  508TIP3    H123015   6.365   5.637  13.875  1.9773 -3.3219 -1.2985
  508TIP3    H223016   6.274   5.567  13.974 -0.2054 -0.6585 -1.2799
  509TIP3   OH223017   6.319   2.156  12.187 -0.0673  0.0347  0.1505
  509TIP3    H123018   6.365   2.163  12.103 -0.8834 -1.6440 -0.4907
  509TIP3    H223019   6.236   2.202  12.172 -0.5306 -0.8985 -0.2386
  510TIP3   OH223020   5.219   5.669  13.974  0.5806 -0.1145 -0.6254
  510TIP3    H123021   5.147   5.715  14.016  0.8988  1.1430 -1.4105
  510TIP3    H223022   5.257   5.615  14.044 -0.4079  0.0754  0.0722
  511TIP3   OH223023   6.177   1.502  11.074 -0.5255 -0.2347 -0.4103
  511TIP3    H123024   6.090   1.485  11.110 -0.7588 -0.4533 -1.0565
  511TIP3    H223025   6.237   1.459  11.135 -0.9298 -0.8125 -0.4107
  512TIP3   OH223026   4.629   1.974  12.388  0.3937 -0.0599  0.3743
  512TIP3    H123027   4.629   2.047  12.326 -0.1013 -0.0981  0.3240
  512TIP3    H223028   4.692   1.912  12.352  1.7317  0.8513  1.0335
  513TIP3   OH223029   4.525   4.897   5.124 -0.0078 -0.0351 -0.1114
  513TIP3    H123030   4.611   4.869   5.094 -0.9837 -1.7166 -1.5021
  513TIP3    H223031   4.501   4.969   5.065  0.3770  0.3854  0.2293
  514TIP3   OH223032   5.722   6.176  12.455  0.0322 -0.7568  0.0775
  514TIP3    H123033   5.692   6.249  12.400 -1.1797  0.1714  1.8583
  514TIP3    H223034   5.648   6.115  12.454 -0.6223 -0.0678  1.7233
  515TIP3   OH223035   1.169   0.194   1.396 -0.2545  0.0119 -0.0743
  515TIP3    H123036   1.118   0.236   1.465  1.3935 -0.6567  1.6500
  515TIP3    H223037   1.144   0.240   1.316 -1.0496  1.9159  1.2034
  516TIP3   OH223038   2.697   0.982   3.621 -0.4514  0.0820 -0.4536
  516TIP3    H123039   2.701   0.890   3.645  1.0999  0.4408  0.8421
  516TIP3    H223040   2.710   0.983   3.527  0.2576 -0.9842 -0.3806
  517TIP3   OH223041   0.721   1.364  11.401 -0.1444  0.5193 -0.2795
  517TIP3    H123042   0.790   1.303  11.375 -0.1051 -0.0566  1.0844
  517TIP3    H223043   0.768   1.443  11.430  0.0416 -0.1836  1.4715
  518TIP3   OH223044   0.128   0.376   6.855  0.2186  0.3113 -0.0151
  518TIP3    H123045   0.200   0.314   6.867  0.4951  0.5358 -0.4840
  518TIP3    H223046   0.158   0.434   6.784  0.2515  1.3971  0.8593
  519TIP3   OH223047   6.103   1.327   2.093  0.0915 -0.1097 -0.0306
  519TIP3    H123048   6.196   1.338   2.112 -0.0205 -0.7363  0.9667
  519TIP3    H223049   6.100   1.259   2.026  0.3418 -0.5434  0.3853
  520TIP3   OH223050   1.973   4.357   3.850  0.0054 -0.1001  0.2629
  520TIP3    H123051   2.001   4.274   3.811  1.4164 -0.1166  1.2245
  520TIP3    H223052   1.916   4.332   3.922 -0.5239 -0.1767 -0.1780
  521TIP3   OH223053   1.771   3.918  13.679  0.0263  0.2366 -0.4476
  521TIP3    H123054   1.776   3.894  13.771 -0.1865  0.6899 -0.3129
  521TIP3    H223055   1.737   3.840  13.635 -2.9256  0.9783  0.3045
  522TIP3   OH223056   4.086   3.404   0.505 -0.1483 -0.0605  0.0680
  522TIP3    H123057   4.080   3.500   0.511 -1.7824 -0.1965  1.3896
  522TIP3    H223058   4.090   3.386   0.411 -0.0296  1.2862 -0.2091
  523TIP3   OH223059   6.588   2.126  11.660  0.8466  0.1930 -0.0448
  523TIP3    H123060   6.594   2.148  11.567  0.4355  1.4680  0.1950
  523TIP3    H223061   6.656   2.061  11.675  2.4054  1.5741 -0.8056
  524TIP3   OH223062   0.558   5.064   4.436 -0.1607  1.1956 -0.1003
  524TIP3    H123063   0.552   5.033   4.346 -0.4497  0.8203  0.0462
  524TIP3    H223064   0.624   5.009   4.477 -1.8622 -0.4146  0.6260
  525TIP3   OH223065   0.775   0.809   2.121 -0.1498  0.0592  0.2614
  525TIP3    H123066   0.800   0.902   2.123 -1.8489  0.5834 -0.7232
  525TIP3    H223067   0.735   0.793   2.207  0.9395 -0.0383  0.7744
  526TIP3   OH223068   2.040   1.322   5.460  0.0040  0.4539  0.3076
  526TIP3    H123069   2.111   1.288   5.406 -0.3131 -0.6385  0.5440
  526TIP3    H223070   1.960   1.286   5.420 -0.1618 -1.7159  2.3505
  527TIP3   OH223071   1.716   0.866   0.350  0.0842  0.4792  0.3211
  527TIP3    H123072   1.724   0.956   0.320  0.2704  0.5702  0.6406
  527TIP3    H223073   1.668   0.822   0.280 -0.3945  0.9231  0.3690
  528TIP3   OH223074   5.459   0.314  15.990  0.2561  0.4469  0.3844
  528TIP3    H123075   5.453   0.410  15.993 -1.5725  0.3706  0.2601
  528TIP3    H223076   5.503   0.290  16.072  0.3923  1.3667  0.5924
  529TIP3   OH223077   3.787   3.457   1.351  0.2213  0.4216  0.1249
  529TIP3    H123078   3.847   3.524   1.317 -0.7110  1.4777  0.4800
  529TIP3    H223079   3.765   3.488   1.439 -0.3013 -0.3092  0.2542
  530TIP3   OH223080   1.409   4.139   4.166 -0.1675 -0.6919  0.1085
  530TIP3    H123081   1.360   4.212   4.204  0.0365 -0.1441 -0.6527
  530TIP3    H223082   1.496   4.145   4.205 -0.5387 -1.3556  1.0714
  531TIP3   OH223083   1.864   1.301   2.627  0.2233  0.0768 -0.2068
  531TIP3    H123084   1.776   1.300   2.663  0.8231 -0.8758  1.3568
  531TIP3    H223085   1.854   1.332   2.537 -1.5738  0.8564  0.2289
  532TIP3   OH223086   1.242   4.917   2.458  0.0994 -0.0887  0.1921
  532TIP3    H123087   1.328   4.910   2.499 -0.6958  1.4088  2.3139
  532TIP3    H223088   1.202   4.830   2.472  0.7020 -0.3072  0.5919
  533TIP3   OH223089   3.463   6.358   4.291  0.1189 -0.0901  0.0900
  533TIP3    H123090   3.384   6.334   4.339  0.5557 -2.9848 -0.4816
  533TIP3    H223091   3.533   6.310   4.334  0.8501 -1.0432 -2.0348
  534TIP3   OH223092   3.988   5.418   6.334  0.9276 -0.2510  0.0148
  534TIP3    H123093   3.977   5.465   6.251  0.1702  0.3650  0.4460
  534TIP3    H223094   3.983   5.326   6.309 -0.2385 -0.0659 -0.5251
  535TIP3   OH223095   0.099   3.118  12.253  0.0001 -0.2778  0.0649
  535TIP3    H123096   0.110   3.080  12.340  1.4704 -0.3608 -0.1331
  535TIP3    H223097   0.179   3.170  12.239  0.0776 -0.7603 -1.4748
  536TIP3   OH223098   0.647   0.359  16.129 -0.2118 -0.2924  0.6048
  536TIP3    H123099   0.659   0.279  16.180  1.8054 -0.5291 -0.1565
  536TIP3    H223100   0.644   0.329  16.038 -1.5174  0.3288  0.4250
  537TIP3   OH223101   2.930   4.672  10.515  0.2917 -0.3690  0.1618
  537TIP3    H123102   2.970   4.600  10.465 -0.4155  0.2644 -1.3767
  537TIP3    H223103   2.897   4.630  10.595  1.3429 -1.4367  0.0759
  538TIP3   OH223104   0.877   6.420  12.831 -0.1616 -0.3877  0.1266
  538TIP3    H123105   0.875   6.438  12.925 -0.0621  1.0747 -0.1183
  538TIP3    H223106   0.822   6.489  12.793  1.3386  0.2272 -1.0241
  539TIP3   OH223107   2.754   3.435   4.428  0.3839  0.3132  0.1980
  539TIP3    H123108   2.778   3.431   4.521 -2.2898 -2.0268  0.9438
  539TIP3    H223109   2.688   3.505   4.424 -0.2574 -0.2817  0.2868
  540TIP3   OH223110   5.481   2.234  11.614 -0.0783 -0.5657 -0.5584
  540TIP3    H123111   5.566   2.201  11.643 -0.9661 -1.9330  0.5937
  540TIP3    H223112   5.464   2.309  11.672  1.0787  0.8335 -1.9341
  541TIP3   OH223113   4.593   4.557  16.916  0.4561  0.4018 -0.3267
  541TIP3    H123114   4.610   4.493  16.846 -0.2509  0.0472 -0.1802
  541TIP3    H223115   4.499   4.571  16.913 -0.0176 -1.4822  2.1239
  542TIP3   OH223116   0.878   5.157  11.398  0.0178  0.6603  0.0587
  542TIP3    H123117   0.832   5.210  11.333  0.1880  0.7486  0.0092
  542TIP3    H223118   0.842   5.184  11.482 -1.1764 -0.4098 -0.0834
  543TIP3   OH223119   0.814   5.698   2.684 -0.5742 -0.6166  0.0660
  543TIP3    H123120   0.873   5.730   2.616  1.6176 -1.5703  1.3947
  543TIP3    H223121   0.728   5.730   2.658  0.5837  1.3534 -1.6927
  544TIP3   OH223122   1.601   5.533  13.902  0.3971 -0.4856  0.3770
  544TIP3    H123123   1.584   5.488  13.819 -1.0590  0.5006  0.1122
  544TIP3    H223124   1.648   5.613  13.877  0.7883 -0.6426  0.6027
  545TIP3   OH223125   0.752   5.301  12.990  0.5245 -0.0157 -0.1909
  545TIP3    H123126   0.706   5.240  12.933 -0.4184  0.6000 -0.1225
  545TIP3    H223127   0.809   5.351  12.931  2.4208 -1.8740 -0.0632
  546TIP3   OH223128   4.691   0.247   5.450 -0.0097  0.1281  0.4640
  546TIP3    H123129   4.731   0.319   5.498 -0.5054  2.6488 -2.5584
  546TIP3    H223130   4.749   0.233   5.375 -0.8614 -1.4014  0.0504
  547TIP3   OH223131   3.349   0.668   1.739 -0.3204 -0.0530  0.2692
  547TIP3    H123132   3.387   0.744   1.695 -0.4317 -0.6212 -0.8430
  547TIP3    H223133   3.262   0.697   1.765  0.1905  0.6798  1.2259
  548TIP3   OH223134   3.227   1.630   4.124 -0.9971 -0.1331 -0.2537
  548TIP3    H123135   3.132   1.638   4.137 -1.1105 -1.6101  0.0232
  548TIP3    H223136   3.236   1.567   4.052 -0.2282  0.4419 -0.6719
  549TIP3   OH223137   6.834   0.386   3.952 -0.1893  0.0983  0.1437
  549TIP3    H123138   6.785   0.348   4.025  0.4006  0.3897  0.7018
  549TIP3    H223139   6.909   0.428   3.994 -0.3845  1.1483 -0.5405
  550TIP3   OH223140   6.411   5.905   3.080  0.6689 -0.3164 -0.0256
  550TIP3    H123141   6.400   5.841   3.010 -0.1130 -1.8140  1.3832
  550TIP3    H223142   6.338   5.966   3.068 -1.1673 -2.1653  1.0280
  551TIP3   OH223143   1.191   3.726  11.236  0.4428  0.2765  0.0676
  551TIP3    H123144   1.256   3.792  11.261  0.4541  0.9060 -1.5137
  551TIP3    H223145   1.158   3.755  11.151 -2.2709  0.2199  0.9938
  552TIP3   OH223146   4.881   4.130   3.072 -0.2834  0.7380 -0.0977
  552TIP3    H123147   4.923   4.107   3.155  1.0257  2.6422 -0.1590
  552TIP3    H223148   4.798   4.082   3.072  1.2394 -2.1087  0.6645
  553TIP3   OH223149   0.456   6.029   4.219 -0.0373 -0.4503 -0.1004
  553TIP3    H123150   0.459   6.037   4.124 -2.0974 -1.2946 -0.2990
  553TIP3    H223151   0.430   6.115   4.250  1.8524  0.1847 -0.1550
  554TIP3   OH223152   4.977   0.879  11.358 -0.6382  0.1340 -0.0260
  554TIP3    H123153   4.884   0.859  11.368 -0.3422 -1.2690  0.2786
  554TIP3    H223154   5.018   0.839  11.435  0.4909 -1.5335 -1.4019
  555TIP3   OH223155   5.142   5.144   0.074  0.1225 -0.2611 -0.3771
  555TIP3    H123156   5.175   5.161  -0.015 -0.5965 -0.8253 -0.7534
  555TIP3    H223157   5.079   5.214   0.089 -1.5403 -1.4935 -1.2578
  556TIP3   OH223158   5.087   2.086  11.799 -0.3059  0.7334 -0.1676
  556TIP3    H123159   5.114   2.002  11.838  0.6130  1.0962  0.0085
  556TIP3    H223160   5.142   2.151  11.842 -2.2168  1.6715  0.9721
  557TIP3   OH223161   1.142   4.559   4.551 -0.8016  0.2598  0.1958
  557TIP3    H123162   1.052   4.589   4.564 -0.6030  1.0257 -0.1074
  557TIP3    H223163   1.164   4.589   4.463 -0.0746  0.5332  0.4646
  558TIP3   OH223164   5.961   5.857  15.462 -0.5573 -0.0457  0.0091
  558TIP3    H123165   5.990   5.777  15.504 -0.8570  0.5227  1.3286
  558TIP3    H223166   5.943   5.831  15.371  0.0305 -1.3015  0.2317
  559TIP3   OH223167   4.928   0.458   4.349 -0.1498 -0.0388  0.4521
  559TIP3    H123168   4.963   0.379   4.391 -0.0264  0.1372  0.6842
  559TIP3    H223169   4.842   0.432   4.315 -0.0706 -0.2966  0.4461
  560TIP3   OH223170   4.867   1.515   4.643  0.2616 -0.3558  0.1237
  560TIP3    H123171   4.929   1.443   4.656  0.7158  0.2531  1.5283
  560TIP3    H223172   4.815   1.489   4.567  2.0091 -1.0436 -0.8774
  561TIP3   OH223173   5.128   4.288   2.407 -0.1821 -0.5247  0.3278
  561TIP3    H123174   5.127   4.259   2.499 -3.0699 -2.2087 -0.1113
  561TIP3    H223175   5.054   4.348   2.400 -1.3030 -2.0030 -1.2862
  562TIP3   OH223176   2.529   0.306   1.205  0.0444 -1.0678 -0.6103
  562TIP3    H123177   2.578   0.274   1.281 -0.5194  0.6348  0.5502
  562TIP3    H223178   2.596   0.335   1.143  0.6142  0.8156  0.7695
  563TIP3   OH223179   2.310   3.981   3.480 -0.5868  0.4148  0.2912
  563TIP3    H123180   2.326   4.042   3.551  0.7256  0.1795  0.2245
  563TIP3    H223181   2.260   4.031   3.416 -0.5926  1.0342  0.7772
  564TIP3   OH223182   6.603   6.458  11.188 -0.0761 -0.0554  0.4355
  564TIP3    H123183   6.561   6.427  11.108 -1.9689  3.0558  0.0464
  564TIP3    H223184   6.560   6.408  11.258 -0.1767 -1.0579 -0.3254
  565TIP3   OH223185   6.729   0.815   3.295  0.7403 -0.0475  0.2957
  565TIP3    H123186   6.635   0.800   3.281  0.7257 -0.3162  0.6954
  565TIP3    H223187   6.772   0.742   3.251  0.8078  0.6013 -0.7446
  566TIP3   OH223188   0.324   6.373   5.166 -0.2543  0.0462  0.5483
  566TIP3    H123189   0.361   6.287   5.187 -0.1627  0.1023  0.6192
  566TIP3    H223190   0.400   6.432   5.168 -0.2558  0.0621  0.1116
  567TIP3   OH223191   6.396   3.323   3.477 -0.3669  0.3271  0.2772
  567TIP3    H123192   6.375   3.269   3.553  0.2542  2.1406  1.8172
  567TIP3    H223193   6.484   3.295   3.451  0.3312  1.1357  1.6336
  568TIP3   OH223194   2.480   5.286   3.336  0.3308 -0.4079 -0.3936
  568TIP3    H123195   2.439   5.322   3.414  0.9156 -0.3143 -0.1296
  568TIP3    H223196   2.433   5.203   3.321  0.1563 -0.3833 -0.0021
  569TIP3   OH223197   5.407   5.978  16.640  0.1796  0.1720  0.2110
  569TIP3    H123198   5.318   5.988  16.608 -0.0263 -0.3236  0.6130
  569TIP3    H223199   5.459   5.962  16.561 -0.1070  0.3085 -0.0091
  570TIP3   OH223200   0.976   2.903   3.440  0.4357  0.6241  0.0076
  570TIP3    H123201   1.012   2.988   3.464  1.7100 -0.3894  1.9014
  570TIP3    H223202   0.954   2.912   3.347 -0.8520  3.4537  0.4799
  571TIP3   OH223203   1.542   2.804   4.040  0.7117 -0.6589 -0.0329
  571TIP3    H123204   1.545   2.893   4.075 -0.1384 -0.1510 -1.1813
  571TIP3    H223205   1.611   2.802   3.973  0.3985 -0.6856 -0.3615
  572TIP3   OH223206   4.662   2.617   5.581  0.0994  0.3030  0.6685
  572TIP3    H123207   4.710   2.547   5.537 -1.9842 -2.4602  2.3768
  572TIP3    H223208   4.712   2.634   5.660  0.7739  1.0000  0.1021
  573TIP3   OH223209   6.235   0.109  15.850  0.3580  0.4894 -0.0413
  573TIP3    H123210   6.223   0.015  15.839 -1.7846  0.5647  1.3185
  573TIP3    H223211   6.163   0.149  15.801  1.4846  1.5014 -0.9754
  574TIP3   OH223212   1.562   6.252  12.275 -0.1222  0.3651 -0.5692
  574TIP3    H123213   1.483   6.202  12.258 -0.5747  1.3943 -1.6689
  574TIP3    H223214   1.549   6.288  12.363  0.4634 -1.8240  0.4737
  575TIP3   OH223215   1.119   1.953  16.065  0.6668 -0.5316 -0.2238
  575TIP3    H123216   1.031   1.939  16.032  0.6710  0.5285 -0.7279
  575TIP3    H223217   1.132   1.885  16.131 -0.1342 -1.3429 -0.8972
  576TIP3   OH223218   6.438   5.922   2.294 -0.4187 -0.7777  0.0025
  576TIP3    H123219   6.376   5.924   2.221  0.8033 -0.3955 -1.0457
  576TIP3    H223220   6.518   5.959   2.259 -0.0292  0.1472  1.7749
  577TIP3   OH223221   3.771   1.559  12.006 -0.5598 -0.8310 -0.5393
  577TIP3    H123222   3.725   1.524  11.929 -0.3633  0.8235 -1.4551
  577TIP3    H223223   3.717   1.633  12.035  0.4177 -0.1618 -0.3624
  578TIP3   OH223224   3.802   2.294   3.513 -0.4087  0.2728  0.2014
  578TIP3    H123225   3.841   2.207   3.527 -0.4995  0.4230  1.5464
  578TIP3    H223226   3.866   2.355   3.551 -0.1693  0.8483 -1.0663
  579TIP3   OH223227   6.412   5.343  17.032 -0.2180  0.2567 -0.2479
  579TIP3    H123228   6.472   5.357  16.959 -1.3439 -0.2256 -1.3115
  579TIP3    H223229   6.452   5.274  17.084  1.0273  1.2045  0.1028
  580TIP3   OH223230   6.607   0.479  16.065  0.4869  0.4087 -0.2679
  580TIP3    H123231   6.568   0.439  15.988 -0.8747  2.1192 -0.5274
  580TIP3    H223232   6.643   0.406  16.115  2.1754 -0.6943 -2.8879
  581TIP3   OH223233   3.296   6.835  11.282  0.1489  0.1589 -0.1776
  581TIP3    H123234   3.256   6.919  11.259  0.3138  0.4267  0.4897
  581TIP3    H223235   3.387   6.844  11.255 -0.1603 -0.3789 -1.5153
  582TIP3   OH223236   1.410   6.403  12.000  0.2102 -0.6582 -0.3523
  582TIP3    H123237   1.440   6.316  11.973 -1.4705 -2.0600  1.9636
  582TIP3    H223238   1.316   6.403  11.980  0.0659  0.3799  0.2699
  583TIP3   OH223239   3.917   5.520   6.071  0.2290 -0.1235 -0.5018
  583TIP3    H123240   3.964   5.597   6.040 -1.8649  0.1835 -3.2562
  583TIP3    H223241   3.835   5.554   6.107  0.5060 -0.9144  1.0030
  584TIP3   OH223242   0.500   1.469   6.569  0.4251 -0.3332  0.0047
  584TIP3    H123243   0.457   1.472   6.655  0.6814  1.6983  0.1097
  584TIP3    H223244   0.468   1.546   6.524 -1.3594 -2.4272 -2.6283
  585TIP3   OH223245   5.915   4.000   5.970  0.0875 -0.3435  0.4506
  585TIP3    H123246   5.874   3.946   5.902 -0.2355 -1.2635  1.3474
  585TIP3    H223247   6.009   3.993   5.953 -0.0267  0.1920 -0.4485
  586TIP3   OH223248   4.867   1.179  16.486  0.4375 -0.3995  0.2669
  586TIP3    H123249   4.788   1.177  16.431  0.0433 -0.8260  0.8347
  586TIP3    H223250   4.929   1.122  16.440  0.6930  0.5425 -0.5780
  587TIP3   OH223251   0.442   1.561  11.306  0.0163  0.1222  0.4578
  587TIP3    H123252   0.367   1.507  11.332  0.2864  0.0933  1.1854
  587TIP3    H223253   0.499   1.500  11.258  0.4446 -0.3232  1.5033
  588TIP3   OH223254   4.010   6.101  12.916 -0.4829 -0.3485 -0.4784
  588TIP3    H123255   4.044   6.069  13.000 -0.8828 -0.9669 -0.5455
  588TIP3    H223256   3.998   6.195  12.929  2.4579  0.1759 -0.8507
  589TIP3   OH223257   4.421   5.817   3.132 -0.1429  0.2973  0.4073
  589TIP3    H123258   4.356   5.753   3.160  0.4581 -0.6283 -0.2812
  589TIP3    H223259   4.498   5.766   3.109  0.1901  1.2102 -0.6027
  590TIP3   OH223260   4.078   0.402  13.413 -0.1368  0.4567  0.4463
  590TIP3    H123261   4.133   0.336  13.453 -0.5816  0.0108  0.3260
  590TIP3    H223262   4.004   0.354  13.376 -0.5034  1.0237  0.4208
  591TIP3   OH223263   3.896   4.363   4.531  0.1549 -0.3056 -0.2425
  591TIP3    H123264   3.826   4.414   4.572 -1.0495 -0.0458 -2.4545
  591TIP3    H223265   3.869   4.271   4.543 -0.3395 -0.2217 -0.6782
  592TIP3   OH223266   1.625   2.923  14.440 -0.1858  0.2436 -0.0692
  592TIP3    H123267   1.596   2.956  14.525 -0.1678  0.6321 -0.2137
  592TIP3    H223268   1.547   2.923  14.385 -0.3289 -0.5917  0.1250
  593TIP3   OH223269   5.434   4.204   1.158  0.1164 -0.1807  0.1989
  593TIP3    H123270   5.415   4.113   1.181 -0.2909  0.3669  2.2825
  593TIP3    H223271   5.493   4.199   1.083  3.9093 -2.3213  3.0069
  594TIP3   OH223272   0.130   3.699  11.503 -0.7012 -0.3439  0.2163
  594TIP3    H123273   0.187   3.775  11.516  0.0322 -0.9273  0.4882
  594TIP3    H223274   0.148   3.642  11.578 -1.6217 -0.5606  0.2903
  595TIP3   OH223275   6.036   1.320  16.112 -0.4300 -0.5846 -0.0491
  595TIP3    H123276   5.950   1.311  16.153 -1.1496  0.6814 -1.1845
  595TIP3    H223277   6.038   1.252  16.044 -1.5173  0.8173 -1.5549
  596TIP3   OH223278   3.535   3.272   2.474 -0.0375  0.4916  0.1586
  596TIP3    H123279   3.462   3.217   2.446  1.6125 -2.1683  0.7788
  596TIP3    H223280   3.536   3.265   2.569 -0.2267  2.2688  0.3283
  597TIP3   OH223281   5.317   2.031  12.808  0.3275 -0.7908 -0.2137
  597TIP3    H123282   5.287   1.943  12.784  0.9294 -1.3801  1.0508
  597TIP3    H223283   5.366   2.017  12.889 -0.0652  0.7993  0.3323
  598TIP3   OH223284   6.371   6.101  16.917  0.0056 -0.2781  0.0042
  598TIP3    H123285   6.325   6.053  16.986  0.4878 -0.4759  0.1960
  598TIP3    H223286   6.460   6.112  16.951 -0.3299  1.5981  0.3948
  599TIP3   OH223287   1.825   0.749  11.244 -0.1800  0.0822 -0.0349
  599TIP3    H123288   1.734   0.780  11.238 -0.4677 -0.2543  1.9324
  599TIP3    H223289   1.820   0.656  11.224 -0.5882 -0.3206  1.7777
  600TIP3   OH223290   1.309   3.391   1.051  0.2448  0.4500  0.2605
  600TIP3    H123291   1.370   3.418   0.982 -1.3494  1.5980 -0.7888
  600TIP3    H223292   1.256   3.469   1.067 -1.7933 -0.8381  0.1572
  601TIP3   OH223293   1.109   0.198   4.692  0.0694  0.4953 -0.0169
  601TIP3    H123294   1.041   0.191   4.759  2.3624  3.6768  2.9845
  601TIP3    H223295   1.178   0.139   4.722  0.0708 -0.1550 -1.2135
  602TIP3   OH223296   4.644   3.791  11.495  0.2231 -0.3961  0.4379
  602TIP3    H123297   4.692   3.709  11.481  0.3640  0.0997 -2.5425
  602TIP3    H223298   4.558   3.776  11.455 -0.1243  0.5803  0.7888
  603TIP3   OH223299   0.342   0.728  16.239  0.2529 -0.3649  0.0126
  603TIP3    H123300   0.380   0.681  16.165 -1.3903 -3.3749  0.9473
  603TIP3    H223301   0.344   0.666  16.312 -3.0876  0.5390  1.0454
  604TIP3   OH223302   1.049   3.416  16.768 -0.2445 -0.3918 -0.5331
  604TIP3    H123303   1.073   3.443  16.856  0.9763 -2.4301 -0.1718
  604TIP3    H223304   1.067   3.492  16.713  0.8599  0.2654  0.7059
  605TIP3   OH223305   5.912   0.832  14.861 -0.1618  0.4270 -0.0069
  605TIP3    H123306   5.909   0.917  14.906 -0.1827  0.7837 -0.6667
  605TIP3    H223307   5.964   0.849  14.783 -1.1920  0.1422 -0.7791
  606TIP3   OH223308   3.638   0.412   3.376 -0.0540  0.3044  0.1648
  606TIP3    H123309   3.624   0.499   3.340  0.1707  0.5453  0.6500
  606TIP3    H223310   3.620   0.353   3.303  1.2620  0.8054 -0.6181
  607TIP3   OH223311   0.346   1.181   5.200 -0.1493  0.0620 -0.1867
  607TIP3    H123312   0.414   1.181   5.268  1.7636 -0.8098 -1.9874
  607TIP3    H223313   0.301   1.265   5.213  0.9609  0.4843  1.3513
  608TIP3   OH223314   0.677   3.001   0.515 -0.3264  0.5776  0.5837
  608TIP3    H123315   0.616   3.041   0.577 -1.5240 -1.2669  0.6603
  608TIP3    H223316   0.662   3.049   0.433 -1.0222  0.9341  0.9086
  609TIP3   OH223317   0.802   4.891   3.257 -0.3126  0.0163 -0.2380
  609TIP3    H123318   0.741   4.831   3.215 -0.1757  0.5713 -1.2577
  609TIP3    H223319   0.866   4.834   3.301 -1.2062 -0.5642  0.3420
  610TIP3   OH223320   3.112   4.525   3.015  0.4719 -0.7099 -0.5919
  610TIP3    H123321   3.156   4.490   3.093 -0.7098 -0.3990  0.2287
  610TIP3    H223322   3.132   4.618   3.017  2.4457 -1.0289 -2.0170
  611TIP3   OH223323   1.248   6.276   4.142  0.0748 -0.0926 -0.5865
  611TIP3    H123324   1.213   6.239   4.224 -0.4190 -1.7442 -1.4919
  611TIP3    H223325   1.341   6.292   4.162  0.1748 -1.3068  0.0536
  612TIP3   OH223326   0.849   0.031  14.632 -0.1909  0.0313  0.0775
  612TIP3    H123327   0.798  -0.050  14.626 -0.7001  0.4364 -1.2174
  612TIP3    H223328   0.925   0.016  14.576 -0.9880  0.9448 -1.2909
  613TIP3   OH223329   1.946   6.106  14.557  0.9411  0.4471 -0.4671
  613TIP3    H123330   1.949   6.157  14.638 -0.9740  0.3643 -0.2934
  613TIP3    H223331   1.853   6.093  14.540  1.3214 -0.5116 -2.0879
  614TIP3   OH223332   1.466   6.279   2.738 -0.5615  0.0615 -0.3086
  614TIP3    H123333   1.535   6.233   2.786 -1.2998  1.3305  2.0917
  614TIP3    H223334   1.446   6.221   2.665  1.1989 -1.5867  0.4354
  615TIP3   OH223335   2.480   5.461   1.048 -0.3104 -0.0481 -0.2651
  615TIP3    H123336   2.543   5.429   0.984 -2.5896  0.3133 -2.8349
  615TIP3    H223337   2.439   5.382   1.084  0.7698 -0.2373  0.6098
  616TIP3   OH223338   6.161   2.044  13.825  0.0381  0.3072  0.1805
  616TIP3    H123339   6.208   2.116  13.783  1.9532 -0.0728  1.5194
  616TIP3    H223340   6.230   1.981  13.847 -1.4198 -1.3087  0.2871
  617TIP3   OH223341   2.191   4.572   1.474  0.5055  0.2232 -0.3276
  617TIP3    H123342   2.200   4.497   1.533  0.9099  0.1841 -0.4374
  617TIP3    H223343   2.102   4.603   1.489 -0.5217 -1.6845 -1.9413
  618TIP3   OH223344   1.162   5.677  16.958 -0.6178 -0.1623  0.5167
  618TIP3    H123345   1.233   5.694  17.020 -0.5511  1.8143 -0.0545
  618TIP3    H223346   1.089   5.730  16.989 -1.5290 -1.3680  0.4965
  619TIP3   OH223347   6.133   0.329  16.272  0.0871  0.1270  0.0851
  619TIP3    H123348   6.070   0.382  16.223 -0.1006  0.2671  0.4671
  619TIP3    H223349   6.213   0.382  16.272  0.7890 -0.8651 -1.9674
  620TIP3   OH223350   2.203   0.510  15.409  0.1456 -0.0161 -0.7629
  620TIP3    H123351   2.252   0.576  15.458 -0.2061  0.0372 -0.4826
  620TIP3    H223352   2.262   0.485  15.338  0.9464 -0.6203  0.0991
  621TIP3   OH223353   2.919   6.360   6.187  0.3500 -0.5344  0.0680
  621TIP3    H123354   2.876   6.335   6.105  0.7842  0.5596 -0.5170
  621TIP3    H223355   2.993   6.301   6.194 -1.1060 -2.3682  1.0227
  622TIP3   OH223356   1.548   2.707   2.849 -0.4512  0.1206  0.3305
  622TIP3    H123357   1.627   2.672   2.808 -0.3361  0.7916 -0.0265
  622TIP3    H223358   1.578   2.741   2.933 -0.6711 -1.1685  0.9605
  623TIP3   OH223359   3.212   6.436   4.019  0.2398 -0.4262  0.3877
  623TIP3    H123360   3.206   6.460   4.112  0.7560 -1.1011  0.5991
  623TIP3    H223361   3.121   6.416   3.994 -0.7571  4.1245 -0.5024
  624TIP3   OH223362   5.076   2.465   2.915 -0.1373  0.1228  0.4216
  624TIP3    H123363   5.015   2.526   2.955  0.0689 -0.6844  2.0480
  624TIP3    H223364   5.055   2.380   2.954  1.5507 -0.3027  0.5028
  625TIP3   OH223365   1.488   1.856  13.887  0.0494  0.6102 -0.2069
  625TIP3    H123366   1.494   1.862  13.982  1.5266  0.6958 -0.2798
  625TIP3    H223367   1.571   1.891  13.856 -0.7814  1.4591 -1.5794
  626TIP3   OH223368   0.671   2.273   4.384 -0.7039  0.4682 -0.2043
  626TIP3    H123369   0.576   2.268   4.392 -0.7572 -0.4088 -1.0800
  626TIP3    H223370   0.696   2.349   4.435 -1.9796  1.2672 -0.7240
  627TIP3   OH223371   1.726   3.326  13.241  0.4379 -0.3469 -0.1682
  627TIP3    H123372   1.660   3.352  13.305  1.4515  1.0084  0.3809
  627TIP3    H223373   1.753   3.238  13.268  0.4169 -0.0337  0.9186
  628TIP3   OH223374   1.751   2.159   4.223  0.4607 -0.0668  0.0955
  628TIP3    H123375   1.828   2.160   4.280 -0.8949 -1.0265  2.0386
  628TIP3    H223376   1.764   2.083   4.167  1.0548 -0.0491  0.2033
  629TIP3   OH223377   6.580   4.300  14.466 -0.6175  0.7492  0.5347
  629TIP3    H123378   6.517   4.371  14.453 -0.5964  0.6193 -0.3102
  629TIP3    H223379   6.550   4.229  14.410  0.4272  0.7850 -0.0980
  630TIP3   OH223380   4.278   2.841  15.621 -0.4835  0.0912 -0.0015
  630TIP3    H123381   4.263   2.768  15.561 -0.4601  0.0881 -0.0037
  630TIP3    H223382   4.329   2.803  15.693  1.7317  0.6110 -1.1869
  631TIP3   OH223383   1.813   1.272  11.077  0.0245  0.2513 -0.3016
  631TIP3    H123384   1.828   1.237  10.989 -1.0995 -0.8344 -0.0895
  631TIP3    H223385   1.829   1.366  11.069  0.8192  0.0368 -1.4475
  632TIP3   OH223386   4.880   1.214   4.543  0.2316  0.6979 -0.5267
  632TIP3    H123387   4.969   1.245   4.528  1.3171 -2.1265 -0.4610
  632TIP3    H223388   4.858   1.166   4.463 -0.2696 -0.6557  0.3933
  633TIP3   OH223389   1.546   0.281  14.856 -0.4366  0.0671  0.1520
  633TIP3    H123390   1.620   0.319  14.904  0.1577 -0.3128 -0.4461
  633TIP3    H223391   1.482   0.351  14.851  1.3297  1.6748 -2.4897
  634TIP3   OH223392   6.007   3.992  16.070  0.4339  0.1429 -0.0915
  634TIP3    H123393   5.927   4.007  16.122 -0.4395 -3.0520 -0.3075
  634TIP3    H223394   6.062   3.939  16.127  1.8602  1.1678 -0.4775
  635TIP3   OH223395   6.833   6.159   1.054  0.1725  0.1152  0.5437
  635TIP3    H123396   6.786   6.076   1.047 -1.1835  0.9617 -0.9019
  635TIP3    H223397   6.925   6.133   1.060 -0.1879 -1.4960 -0.2858
  636TIP3   OH223398   4.830   3.950  14.640 -0.2275  0.2617 -0.1523
  636TIP3    H123399   4.879   4.032  14.631  1.2223 -0.1307  2.9057
  636TIP3    H223400   4.891   3.882  14.613 -1.4232  0.0342 -2.6671
  637TIP3   OH223401   5.801   1.126   0.908  0.0916 -0.1472 -0.6743
  637TIP3    H123402   5.729   1.085   0.861  0.2781 -1.6592  0.2714
  637TIP3    H223403   5.761   1.166   0.985  0.4127 -3.1373  1.2249
  638TIP3   OH223404   0.591   0.310  13.983  0.3570  0.7285  0.1414
  638TIP3    H123405   0.511   0.264  14.011  0.4719  0.2294 -0.3419
  638TIP3    H223406   0.605   0.375  14.052  0.3552 -0.1521  1.0105
  639TIP3   OH223407   6.323   0.821  13.898  0.3859 -0.2062  0.1819
  639TIP3    H123408   6.400   0.868  13.867  0.2763  0.2707  0.6097
  639TIP3    H223409   6.251   0.883  13.886 -0.2182 -1.2071 -1.6983
  640TIP3   OH223410   1.287   5.121   0.426  0.0665 -0.2603 -0.1350
  640TIP3    H123411   1.326   5.033   0.421  1.7116  0.4585 -0.3347
  640TIP3    H223412   1.360   5.181   0.415 -0.8466  1.1786  1.2057
  641TIP3   OH223413   4.314   3.489  14.498 -0.4353  0.4523  0.2407
  641TIP3    H123414   4.321   3.402  14.537 -2.2876  0.6552  1.1332
  641TIP3    H223415   4.222   3.514  14.512  0.2700  2.9385  0.8348
  642TIP3   OH223416   5.520   2.646  11.588  0.2978 -0.4198  0.4243
  642TIP3    H123417   5.555   2.637  11.499  2.6612  0.3335  1.2093
  642TIP3    H223418   5.484   2.560  11.609 -0.0937 -0.6806 -1.1370
  643TIP3   OH223419   5.958   1.873  16.839  0.0417  0.5595  0.7665
  643TIP3    H123420   6.015   1.845  16.768 -3.1757 -0.4609 -1.6338
  643TIP3    H223421   5.975   1.967  16.848 -0.1418  0.9694 -2.1926
  644TIP3   OH223422   5.454   4.865   0.085 -0.1368 -0.0260  0.2947
  644TIP3    H123423   5.496   4.906   0.161  0.3547  2.0708 -1.0173
  644TIP3    H223424   5.455   4.933   0.018 -1.9678 -1.2944 -1.1136
  645TIP3   OH223425   6.057   1.127  13.422  0.2843 -0.2363  0.0334
  645TIP3    H123426   5.999   1.141  13.496  0.4127 -0.4073  0.1676
  645TIP3    H223427   6.126   1.192  13.433  0.5154 -0.5158  0.2849
  646TIP3   OH223428   6.751   3.874  11.703  0.2740 -0.1775 -0.2180
  646TIP3    H123429   6.765   3.795  11.651  1.6737  0.5200 -0.9366
  646TIP3    H223430   6.658   3.871  11.726  0.0454 -1.4441 -1.1988
  647TIP3   OH223431   4.404   5.730   4.782  0.1345  0.1513  0.5043
  647TIP3    H123432   4.346   5.778   4.722  2.2340  0.0467 -1.7445
  647TIP3    H223433   4.409   5.642   4.745  0.4784 -0.3010  1.5905
  648TIP3   OH223434   1.201   1.594  14.530 -0.6875  0.0588  0.4425
  648TIP3    H123435   1.145   1.648  14.586 -1.7822  0.3957 -0.9181
  648TIP3    H223436   1.141   1.528  14.494  0.0151 -0.2310 -0.2100
  649TIP3   OH223437   1.414   4.263   3.641  0.1340 -0.4434  0.2294
  649TIP3    H123438   1.491   4.207   3.657 -1.2796 -2.4891  0.2099
  649TIP3    H223439   1.426   4.336   3.701  1.9041 -0.9022  0.5054
  650TIP3   OH223440   3.749   4.251  16.978 -0.2407 -0.1568 -0.6988
  650TIP3    H123441   3.803   4.172  16.976 -0.5632 -0.3953 -0.1478
  650TIP3    H223442   3.682   4.237  16.910 -0.4213 -0.4466 -0.4610
  651TIP3   OH223443   5.422   1.344  11.110  0.4584 -0.1972  0.5534
  651TIP3    H123444   5.400   1.425  11.155  1.3085  0.6349 -0.4671
  651TIP3    H223445   5.455   1.286  11.179 -1.3391 -0.1579  1.4961
  652TIP3   OH223446   6.381   0.801   1.882 -0.3327 -0.2085  0.2006
  652TIP3    H123447   6.444   0.829   1.949 -1.2023 -0.3740  1.1222
  652TIP3    H223448   6.361   0.880   1.833  0.2519 -0.0678  0.1734
  653TIP3   OH223449   3.233   6.801  14.350 -0.2145 -0.2381 -0.4249
  653TIP3    H123450   3.284   6.865  14.400  0.3441  1.1234 -2.5754
  653TIP3    H223451   3.288   6.782  14.273 -1.7071 -0.9382 -1.3656
  654TIP3   OH223452   4.080   1.173  11.985  0.0366 -0.0311  0.3544
  654TIP3    H123453   4.008   1.219  12.029  1.4213  1.3243  1.3051
  654TIP3    H223454   4.149   1.239  11.978  1.4635 -1.4983  0.1511
  655TIP3   OH223455   5.950   2.975  16.241 -0.3854  0.6061  0.2667
  655TIP3    H123456   5.874   2.959  16.296 -2.1110 -0.4449 -2.2359
  655TIP3    H223457   5.974   2.888  16.206 -0.0284  1.3196 -1.3952
  656TIP3   OH223458   1.060   4.828   5.871 -0.7726  0.1275 -0.1753
  656TIP3    H123459   1.012   4.770   5.930 -0.1627 -0.3470 -0.1306
  656TIP3    H223460   1.144   4.841   5.915 -0.5485  0.2750 -0.6440
  657TIP3   OH223461   0.848   1.765   5.824  0.4126  0.2807  0.1313
  657TIP3    H123462   0.929   1.787   5.871  0.7082 -1.5006  0.5037
  657TIP3    H223463   0.854   1.671   5.808 -0.6014  0.4864 -1.7550
  658TIP3   OH223464   1.988   2.234   2.930  0.1726 -0.6444  0.2475
  658TIP3    H123465   1.952   2.319   2.908 -1.7584 -1.2832  0.8073
  658TIP3    H223466   2.080   2.240   2.903 -0.1433  1.2726 -0.5743
  659TIP3   OH223467   0.404   6.048   3.658 -0.0517  0.1168 -0.1151
  659TIP3    H123468   0.466   6.069   3.588  2.4111  0.1144  1.9129
  659TIP3    H223469   0.345   5.984   3.620  2.5366 -1.5500 -1.6093
  660TIP3   OH223470   4.845   2.365  16.594  1.3567  0.0165  0.1992
  660TIP3    H123471   4.809   2.441  16.550  0.3918 -0.7153 -0.3048
  660TIP3    H223472   4.784   2.347  16.666  1.5646 -0.2985  0.3035
  661TIP3   OH223473   6.634   1.856  10.789 -0.1872 -0.0089  0.4713
  661TIP3    H123474   6.645   1.836  10.882 -1.0440 -0.1218  0.5548
  661TIP3    H223475   6.554   1.810  10.763  0.4422 -0.6038 -0.5161
  662TIP3   OH223476   2.753   4.597  10.309  0.2690  0.4570  0.1848
  662TIP3    H123477   2.806   4.626  10.382  3.2441 -0.3307 -1.4839
  662TIP3    H223478   2.708   4.676  10.279  0.2982  1.1275  1.8037
  663TIP3   OH223479   4.883   1.358  16.042 -0.1395 -0.3852 -0.3589
  663TIP3    H123480   4.970   1.320  16.034  1.0180  1.9209  0.4389
  663TIP3    H223481   4.887   1.439  15.992 -0.8954  1.1461  1.8968
  664TIP3   OH223482   2.420   1.520  12.747 -0.9353 -0.1458 -0.1767
  664TIP3    H123483   2.432   1.601  12.697  0.3385 -0.2548 -0.0795
  664TIP3    H223484   2.378   1.548  12.828 -0.6967  0.3973 -0.2355
  665TIP3   OH223485   0.158   1.863   5.195  0.2652 -0.5657  0.5287
  665TIP3    H123486   0.068   1.885   5.216  0.5907  0.1363  1.2010
  665TIP3    H223487   0.162   1.866   5.099 -0.3149 -0.1977  0.5175
  666TIP3   OH223488   0.018   5.394   5.798 -0.1142 -0.2099  0.2419
  666TIP3    H123489   0.054   5.380   5.886  0.2163  1.0327  0.3205
  666TIP3    H223490  -0.071   5.424   5.813 -0.4633 -1.1431  0.1049
  667TIP3   OH223491   1.906   4.750   0.297  0.4224 -0.2977  0.3849
  667TIP3    H123492   1.917   4.834   0.252 -0.0263 -1.1451 -1.4026
  667TIP3    H223493   1.928   4.769   0.388 -0.1004  1.8613  0.1308
  668TIP3   OH223494   4.161   4.821   1.619 -0.1667 -0.0841 -0.4285
  668TIP3    H123495   4.114   4.903   1.635 -1.6108 -0.9859  0.1947
  668TIP3    H223496   4.148   4.770   1.699  0.7903 -0.8929 -0.7647
  669TIP3   OH223497   6.083   5.769   4.058  0.0838 -0.4272  0.7157
  669TIP3    H123498   6.054   5.760   3.967  1.2809  1.8556  0.0157
  669TIP3    H223499   6.011   5.816   4.102 -0.4131 -1.3658  0.9361
  670TIP3   OH223500   1.374   1.434   1.030  0.2222 -0.3612 -0.1211
  670TIP3    H123501   1.300   1.379   1.005 -2.1070  2.4360 -0.0183
  670TIP3    H223502   1.351   1.466   1.118  0.9659  1.4015 -0.5190
  671TIP3   OH223503   4.335   1.627   1.370 -0.2000 -0.2984  0.4227
  671TIP3    H123504   4.421   1.609   1.408  0.3337  1.0834 -0.0717
  671TIP3    H223505   4.288   1.675   1.438  0.1912  0.7902 -0.0541
  672TIP3   OH223506   0.726   6.232   5.380  0.0642 -0.3996 -0.0942
  672TIP3    H123507   0.664   6.166   5.412 -0.6362  0.8124  1.1200
  672TIP3    H223508   0.672   6.298   5.337  0.8572 -1.1246 -2.3820
  673TIP3   OH223509   6.481   0.557  12.053 -0.2194  1.0750  0.3019
  673TIP3    H123510   6.418   0.628  12.041 -1.0464  0.2468 -0.4825
  673TIP3    H223511   6.506   0.533  11.963 -1.1602 -0.6502  0.4621
  674TIP3   OH223512   6.794   5.601  12.722  0.2069  0.7565  0.2287
  674TIP3    H123513   6.772   5.533  12.657  0.5279  1.3489 -0.5179
  674TIP3    H223514   6.758   5.568  12.804  0.2964 -0.2902 -0.1355
  675TIP3   OH223515   2.577   1.022   1.465 -0.4766 -0.5628  0.2054
  675TIP3    H123516   2.615   1.102   1.428  0.5092 -1.6784 -1.3714
  675TIP3    H223517   2.488   1.047   1.489  0.9812  2.0888  3.7526
  676TIP3   OH223518   3.082   0.917  13.064  0.3406 -0.4052  0.3104
  676TIP3    H123519   3.157   0.941  13.009  0.9428 -1.5062  0.6241
  676TIP3    H223520   3.112   0.840  13.112 -0.8124 -0.5268  0.8487
  677TIP3   OH223521   2.426   3.040   1.083 -0.6229 -0.5712  0.0821
  677TIP3    H123522   2.407   2.966   1.140  1.2723 -0.4958  0.9080
  677TIP3    H223523   2.521   3.051   1.090 -0.2749 -0.6476 -3.2351
  678TIP3   OH223524   0.039   1.595  13.990 -0.1898 -0.0100 -0.0217
  678TIP3    H123525   0.081   1.681  13.987  0.4030 -0.3071 -0.7529
  678TIP3    H223526   0.051   1.559  13.902 -1.0416 -0.5586  0.0690
  679TIP3   OH223527   6.043   3.552  14.146  0.1551 -0.6355  0.5422
  679TIP3    H123528   6.013   3.577  14.058  0.5791  1.1544  0.8584
  679TIP3    H223529   6.138   3.561  14.141  0.4944 -3.5853  0.3328
  680TIP3   OH223530   2.055   3.155   5.994  0.2798  0.5310  0.0657
  680TIP3    H123531   2.112   3.159   6.071  0.8957  0.6941 -0.3802
  680TIP3    H223532   2.113   3.124   5.924 -0.0355  1.2471 -0.5303
  681TIP3   OH223533   2.328   3.038  10.952  1.0673 -0.0967  0.3317
  681TIP3    H123534   2.404   3.083  10.988  1.1185  0.9650 -1.0443
  681TIP3    H223535   2.261   3.046  11.020  0.7774  2.8951 -0.2112
  682TIP3   OH223536   6.067   5.385  13.436 -0.3864 -0.1910  0.5834
  682TIP3    H123537   6.081   5.305  13.486 -1.5666 -0.1199  1.0530
  682TIP3    H223538   6.047   5.452  13.501  0.5486  0.4868  0.1930
  683TIP3   OH223539   5.205   0.868  12.946  0.0055  0.0653  0.1778
  683TIP3    H123540   5.186   0.953  12.906 -1.9349  0.2554  1.3418
  683TIP3    H223541   5.175   0.804  12.881  0.5564  0.2832 -0.2953
  684TIP3   OH223542   4.363   5.976   6.009  0.0711  0.4002  0.5085
  684TIP3    H123543   4.315   6.038   6.063 -0.2337  0.9928 -0.4115
  684TIP3    H223544   4.295   5.925   5.965  0.2528  1.0404 -0.5688
  685TIP3   OH223545   6.264   3.659   2.651  0.2165 -0.0267 -0.4242
  685TIP3    H123546   6.194   3.614   2.605 -0.0671 -0.0529  0.0336
  685TIP3    H223547   6.338   3.599   2.647 -0.2392 -0.6660  0.4311
  686TIP3   OH223548   4.171   4.326   0.922 -0.1294  0.1054  0.3834
  686TIP3    H123549   4.255   4.280   0.933  0.8190  1.2787 -1.4615
  686TIP3    H223550   4.129   4.281   0.848 -0.6480  0.2244  0.6024
  687TIP3   OH223551   1.055   4.665  12.440 -0.7580 -0.7093  0.6298
  687TIP3    H123552   1.010   4.630  12.517 -1.5958 -0.9900  0.0268
  687TIP3    H223553   0.985   4.703  12.386 -0.3215 -1.3556 -0.4277
  688TIP3   OH223554   2.101   3.677  12.050  0.4699  0.5842 -0.2993
  688TIP3    H123555   2.032   3.716  11.996  0.7477  1.6372  0.0935
  688TIP3    H223556   2.079   3.583  12.052 -2.7183  1.1926  2.2543
  689TIP3   OH223557   6.054   3.532   0.745  0.2640  0.0879  0.2805
  689TIP3    H123558   6.074   3.474   0.819 -0.4743 -0.6686 -0.0880
  689TIP3    H223559   6.139   3.567   0.718  0.5020  0.6931  1.7255
  690TIP3   OH223560   0.088   1.842   1.294 -0.0789 -0.0312  0.8323
  690TIP3    H123561   0.183   1.848   1.284 -0.1305 -0.6460 -0.0843
  690TIP3    H223562   0.076   1.814   1.385  0.8240 -3.7184 -0.0134
  691TIP3   OH223563   5.026   1.379   2.345 -0.0799  0.3005 -0.5569
  691TIP3    H123564   4.934   1.373   2.319 -0.1568  1.2333 -0.5269
  691TIP3    H223565   5.044   1.473   2.347  1.1682  0.1080 -1.5773
  692TIP3   OH223566   2.145   5.560   5.849 -0.0370 -0.1666 -0.1783
  692TIP3    H123567   2.056   5.536   5.824 -0.9600  1.6410  1.1045
  692TIP3    H223568   2.165   5.637   5.794  0.0194  0.5163  0.7783
  693TIP3   OH223569   5.659   4.423  14.563  0.6498 -0.3075 -0.0901
  693TIP3    H123570   5.642   4.458  14.475  0.7676  0.7365  0.2938
  693TIP3    H223571   5.702   4.495  14.610 -0.7341 -0.3177  1.2763
  694TIP3   OH223572   3.843   2.799   4.048 -0.6489 -0.1381 -0.2866
  694TIP3    H123573   3.904   2.802   4.122 -1.2279 -1.9719  0.3243
  694TIP3    H223574   3.771   2.856   4.074 -0.5707 -0.2990  0.2960
  695TIP3   OH223575   1.204   6.799   5.375  0.0165  0.0244 -0.1069
  695TIP3    H123576   1.193   6.803   5.470 -2.0225 -0.9902 -0.2552
  695TIP3    H223577   1.278   6.740   5.363 -0.0004 -0.2223  0.8567
  696TIP3   OH223578   6.640   5.226   2.778  0.2867 -0.4899 -0.1716
  696TIP3    H123579   6.735   5.240   2.777  0.5637 -2.1519 -0.1617
  696TIP3    H223580   6.625   5.163   2.708 -0.8336 -0.1735 -0.2230
  697TIP3   OH223581   6.609   5.288   6.339  0.7714 -0.9654 -0.4237
  697TIP3    H123582   6.631   5.206   6.382 -0.1940 -0.4023  1.2177
  697TIP3    H223583   6.546   5.263   6.271  0.8008 -1.6218 -0.2158
  698TIP3   OH223584   5.517   0.716   2.330 -0.1930 -0.4463 -0.0001
  698TIP3    H123585   5.446   0.751   2.278 -0.2982  0.0119  0.4467
  698TIP3    H223586   5.578   0.789   2.342  0.0884 -0.6880  0.0714
  699TIP3   OH223587   0.779   6.720  11.569  0.2909 -0.3875  0.2429
  699TIP3    H123588   0.751   6.681  11.486 -0.9161  0.3094  0.2856
  699TIP3    H223589   0.697   6.741  11.614  0.9275 -1.1200  1.8062
  700TIP3   OH223590   2.567   6.828  13.746  0.1294  0.4970  0.6691
  700TIP3    H123591   2.602   6.764  13.809  2.6508  0.2696 -0.8105
  700TIP3    H223592   2.559   6.909  13.797  1.8468  0.2595  1.4085
  701TIP3   OH223593   0.185   3.633   6.133 -0.2493  0.6378 -0.9063
  701TIP3    H123594   0.181   3.716   6.180 -1.2310  1.3622 -2.2129
  701TIP3    H223595   0.251   3.647   6.065 -0.3525  0.3109 -1.0753
  702TIP3   OH223596   0.589   6.096  13.852 -0.4536  0.1476 -0.6546
  702TIP3    H123597   0.505   6.140  13.841 -1.0668 -0.6857  0.4999
  702TIP3    H223598   0.584   6.019  13.795 -0.9010 -0.4638  0.1949
  703TIP3   OH223599   6.290   4.725   0.690 -0.4803  0.1853  0.3154
  703TIP3    H123600   6.338   4.806   0.707 -1.1213  0.7513 -0.4870
  703TIP3    H223601   6.203   4.740   0.727 -1.6539  1.1488 -2.5425
  704TIP3   OH223602   0.066   4.212   3.715 -0.3482  0.3641 -0.1376
  704TIP3    H123603   0.103   4.188   3.799 -0.3119  2.4732  0.5079
  704TIP3    H223604  -0.025   4.183   3.719 -0.0126 -0.7130  0.0747
  705TIP3   OH223605   5.813   6.628   0.425  0.2179  0.1116 -0.0967
  705TIP3    H123606   5.898   6.599   0.459 -0.9768 -3.9486 -0.0533
  705TIP3    H223607   5.770   6.667   0.501  1.7006  1.5766  0.0582
  706TIP3   OH223608   4.894   4.534   3.388  0.1623  0.8039  0.3626
  706TIP3    H123609   4.891   4.580   3.472  0.9932  1.4298  0.0608
  706TIP3    H223610   4.935   4.595   3.328 -2.0405  1.0791 -0.9925
  707TIP3   OH223611   5.621   5.314   5.030 -0.0872  0.3816 -0.2744
  707TIP3    H123612   5.685   5.378   4.999  0.0148  0.0466 -0.7562
  707TIP3    H223613   5.608   5.255   4.956  0.1665 -0.4297  0.3197
  708TIP3   OH223614   3.412   2.036  12.786  0.0204 -0.4069  0.3869
  708TIP3    H123615   3.367   1.992  12.714 -0.3585 -0.5767  0.7234
  708TIP3    H223616   3.440   1.965  12.844  0.8081 -0.3098  0.1373
  709TIP3   OH223617   6.162   4.863  13.445 -0.1797 -0.1723 -0.2699
  709TIP3    H123618   6.183   4.928  13.512  0.1074 -0.5022 -0.0353
  709TIP3    H223619   6.247   4.829  13.417 -0.3076 -0.1710 -0.6703
  710TIP3   OH223620   4.634   2.050   4.576 -0.3767 -0.7376  0.1703
  710TIP3    H123621   4.717   2.074   4.533 -0.8684  1.2679  0.2484
  710TIP3    H223622   4.661   1.996   4.651  0.6361 -2.5225 -1.3926
  711TIP3   OH223623   3.471   1.416  13.214  0.6928  0.3863 -0.1852
  711TIP3    H123624   3.521   1.380  13.288 -0.7389  0.6005  0.9312
  711TIP3    H223625   3.516   1.498  13.192  0.5491  0.8565  1.1686
  712TIP3   OH223626   6.159   0.921   4.962 -0.0594 -0.1440 -0.5739
  712TIP3    H123627   6.225   0.861   4.996 -0.1132 -0.0383 -0.2815
  712TIP3    H223628   6.194   1.009   4.980 -0.3238 -0.0863 -0.3194
  713TIP3   OH223629   5.069   1.666   3.426  0.8942  0.2093  0.6559
  713TIP3    H123630   5.092   1.601   3.492 -2.0556  0.3423  2.0034
  713TIP3    H223631   5.037   1.615   3.352 -1.3220  0.0124  1.6724
  714TIP3   OH223632   2.501   5.739   1.195  0.6762  0.0390 -0.6010
  714TIP3    H123633   2.532   5.724   1.106 -0.9231  1.1884 -1.4007
  714TIP3    H223634   2.408   5.717   1.192  0.2436  1.6088  0.3805
  715TIP3   OH223635   1.477   4.050  14.674 -0.3313  0.2813  0.8637
  715TIP3    H123636   1.498   4.144  14.670  0.5298  0.0668 -0.4606
  715TIP3    H223637   1.544   4.013  14.732 -1.2961  0.6144  2.2333
  716TIP3   OH223638   3.265   4.384  12.514 -0.2772 -0.4129 -0.4817
  716TIP3    H123639   3.318   4.418  12.586 -0.9595 -1.3957  0.5086
  716TIP3    H223640   3.263   4.455  12.450  1.5236 -0.0391 -0.1767
  717TIP3   OH223641   4.674   5.782   4.856  0.0359  0.2503 -0.0726
  717TIP3    H123642   4.584   5.776   4.824  0.0522  2.3625 -0.6473
  717TIP3    H223643   4.677   5.864   4.905  1.6400  0.1922 -0.0195
  718TIP3   OH223644   5.297   4.171  15.034 -0.1907 -0.2428  0.4933
  718TIP3    H123645   5.334   4.150  15.119 -0.1329  1.2063  0.8564
  718TIP3    H223646   5.298   4.089  14.986  3.6236 -0.3431  0.4399
  719TIP3   OH223647   5.162   0.877   0.075 -0.2782  0.3725  0.1677
  719TIP3    H123648   5.066   0.882   0.074 -0.3072  0.0476  0.8601
  719TIP3    H223649   5.188   0.926   0.153  0.0173 -0.8633  0.8728
  720TIP3   OH223650   4.700   0.786  11.406  0.4518  0.5135 -0.7941
  720TIP3    H123651   4.607   0.769  11.391  0.5617  0.1572 -1.0906
  720TIP3    H223652   4.714   0.763  11.498  0.5499 -0.8759 -1.1310
  721TIP3   OH223653   1.309   0.832  14.203  0.2907 -0.1854  0.0001
  721TIP3    H123654   1.311   0.927  14.190 -0.6706 -0.3248 -1.3507
  721TIP3    H223655   1.255   0.799  14.131 -1.2094 -1.5626  1.6573
  722TIP3   OH223656   6.275   6.829   1.896 -0.0492 -0.1382 -0.0846
  722TIP3    H123657   6.265   6.847   1.803 -2.0050  1.9645  0.4420
  722TIP3    H223658   6.348   6.885   1.923 -0.5181  0.4821 -0.0789
  723TIP3   OH223659   0.825   3.995   2.468  0.1147 -0.6118  0.2973
  723TIP3    H123660   0.753   4.008   2.406 -0.0237 -0.5816  0.4636
  723TIP3    H223661   0.796   3.922   2.523  0.0549 -0.3694  0.5902
  724TIP3   OH223662   3.923   0.654  14.715 -0.1242 -0.2351  0.2812
  724TIP3    H123663   3.846   0.696  14.676  0.6063  2.2303  1.2764
  724TIP3    H223664   3.892   0.623  14.800  0.0428  1.2117  0.9017
  725TIP3   OH223665   1.872   1.320   5.691  0.1086 -0.4329  0.3549
  725TIP3    H123666   1.822   1.291   5.615  0.7897 -1.2685  0.2153
  725TIP3    H223667   1.868   1.416   5.687 -0.7496 -0.4842 -0.1327
  726TIP3   OH223668   3.261   3.840   3.889 -0.5184 -0.0067 -0.3783
  726TIP3    H123669   3.354   3.815   3.893 -0.1926  1.2980  1.3711
  726TIP3    H223670   3.236   3.853   3.980 -2.0484  1.0336 -0.9147
  727TIP3   OH223671   6.544   3.830  16.782  0.3613  0.2501  0.4160
  727TIP3    H123672   6.579   3.760  16.726  0.3130  1.3886 -1.1003
  727TIP3    H223673   6.621   3.879  16.810  0.4405 -0.6550  1.8787
  728TIP3   OH223674   5.332   0.579  11.453 -0.5510 -0.3543 -0.0212
  728TIP3    H123675   5.284   0.646  11.502  0.4523  0.4789 -0.1590
  728TIP3    H223676   5.350   0.620  11.368  0.4271 -0.6346  0.0379
  729TIP3   OH223677   5.260   5.460   3.127 -0.4898  0.3149 -0.1254
  729TIP3    H123678   5.168   5.456   3.101 -0.6018  0.8354  0.1587
  729TIP3    H223679   5.307   5.412   3.060 -0.5991  2.7476 -2.0906
  730TIP3   OH223680   1.857   1.125  14.588 -0.8382  0.0933 -0.3603
  730TIP3    H123681   1.784   1.187  14.578 -2.6849 -1.8934 -0.0257
  730TIP3    H223682   1.926   1.176  14.631 -1.8814  2.1593 -1.0013
  731TIP3   OH223683   0.562   4.293  14.484  0.4376 -0.1548 -0.1989
  731TIP3    H123684   0.562   4.201  14.457 -0.2044 -0.2268  0.0186
  731TIP3    H223685   0.487   4.331  14.437  0.3492  0.1222  0.1645
  732TIP3   OH223686   3.883   0.576   4.161  0.3335  1.1124 -0.7377
  732TIP3    H123687   3.829   0.632   4.217 -1.2296  0.2611 -1.3417
  732TIP3    H223688   3.947   0.536   4.221 -0.5035  1.1806  0.2223
  733TIP3   OH223689   4.316   0.948  16.408 -0.2397  0.4898  0.6618
  733TIP3    H123690   4.403   0.977  16.383  0.4442 -0.0512  2.3030
  733TIP3    H223691   4.311   0.857  16.377 -0.5041  0.7472 -0.0673
  734TIP3   OH223692   5.765   3.897   3.136  0.0147 -0.2211 -0.1436
  734TIP3    H123693   5.799   3.953   3.206  2.0824  0.0101 -1.2510
  734TIP3    H223694   5.807   3.813   3.150 -1.6132 -0.9853  0.3923
  735TIP3   OH223695   3.588   0.131  12.607  0.0643  0.5511  0.6652
  735TIP3    H123696   3.550   0.100  12.525 -1.1980  0.4987  1.2414
  735TIP3    H223697   3.677   0.156  12.584  0.3329 -1.1686 -0.3404
  736TIP3   OH223698   2.073   2.519  12.261 -0.3480  0.5386  0.3850
  736TIP3    H123699   2.155   2.505  12.310 -0.1177 -0.7858 -0.3320
  736TIP3    H223700   2.102   2.534  12.171 -0.9004 -0.5748  0.0052
  737TIP3   OH223701   2.814   0.135  16.994 -0.3452 -0.0663 -0.1651
  737TIP3    H123702   2.851   0.215  17.030 -0.5823 -1.0283  2.4508
  737TIP3    H223703   2.877   0.106  16.928  1.0288  0.9188  0.6778
  738TIP3   OH223704   0.228   5.299  14.705  0.4626 -0.8760  0.7794
  738TIP3    H123705   0.197   5.282  14.794  0.8102  1.3692  1.3949
  738TIP3    H223706   0.267   5.386  14.710  1.9733 -1.3786 -1.2164
  739TIP3   OH223707   4.490   2.595  14.816  0.1600  0.6126 -0.1485
  739TIP3    H123708   4.459   2.509  14.842 -1.5881  1.3463  0.2866
  739TIP3    H223709   4.584   2.593  14.835  0.0238 -0.9394  0.5090
  740TIP3   OH223710   3.290   6.165   4.528  0.1979 -1.1581  0.1194
  740TIP3    H123711   3.308   6.226   4.600 -0.1378  0.0045 -0.7537
  740TIP3    H223712   3.344   6.088   4.548 -1.4158 -1.7517  2.7108
  741TIP3   OH223713   0.555   5.276   4.662 -0.4291 -0.1309  0.1198
  741TIP3    H123714   0.586   5.359   4.697  0.0932 -0.9344  1.6337
  741TIP3    H223715   0.626   5.214   4.681  0.6010 -0.3900 -3.6968
  742TIP3   OH223716   6.846   3.376  12.734 -0.3440 -0.2431  0.4190
  742TIP3    H123717   6.778   3.368  12.800  0.4760  1.8336  1.6047
  742TIP3    H223718   6.853   3.470  12.717  0.8166 -0.5705 -1.1980
  743TIP3   OH223719   3.857   6.637  17.130 -0.4304  0.7349  0.3879
  743TIP3    H123720   3.803   6.565  17.099  0.0146  0.0904  1.0778
  743TIP3    H223721   3.842   6.640  17.224  1.8678 -0.4796  0.8638
  744TIP3   OH223722   2.316   2.891   0.064 -0.2601  0.4746 -0.4287
  744TIP3    H123723   2.350   2.915   0.150  0.2529  0.7134 -0.6931
  744TIP3    H223724   2.296   2.975   0.022  0.8062  0.4289 -1.0620
  745TIP3   OH223725   2.947   5.910   4.901  0.3097 -0.3922 -0.3130
  745TIP3    H123726   2.868   5.927   4.849  0.1099 -1.7548 -0.4723
  745TIP3    H223727   2.991   5.995   4.905 -1.0942  0.3780 -0.3230
  746TIP3   OH223728   6.112   5.363   0.957  0.6162 -0.1810  0.5011
  746TIP3    H123729   6.180   5.327   1.014  0.4821 -1.0012  0.1561
  746TIP3    H223730   6.159   5.392   0.879  0.7645  0.7001  0.8999
  747TIP3   OH223731   4.686   4.679   1.489 -0.0916  0.0419  0.0131
  747TIP3    H123732   4.655   4.654   1.402 -1.6091  0.9822  0.2606
  747TIP3    H223733   4.740   4.756   1.473  0.8522 -0.6342 -0.2229
  748TIP3   OH223734   6.703   6.327  16.742  0.0759 -0.0995  0.0313
  748TIP3    H123735   6.633   6.305  16.804  0.3137  1.7113  1.0290
  748TIP3    H223736   6.778   6.275  16.769  0.0166  0.2798  0.9456
  749TIP3   OH223737   6.404   4.311  12.871  0.3468  0.0043 -0.3094
  749TIP3    H123738   6.336   4.312  12.802 -0.6000  1.7484  0.5819
  749TIP3    H223739   6.458   4.387  12.851  1.4260 -0.7653 -0.3766
  750TIP3   OH223740   1.568   6.296   1.999 -0.3348 -0.1317 -0.0058
  750TIP3    H123741   1.523   6.260   2.075  0.0325  3.4341  2.1619
  750TIP3    H223742   1.647   6.244   1.991 -1.5650 -2.1607  0.4259
  751TIP3   OH223743   6.237   4.561  12.482 -0.2133  0.1211 -0.8313
  751TIP3    H123744   6.217   4.469  12.464  0.1425  0.1192 -1.2323
  751TIP3    H223745   6.165   4.609  12.440  0.6227  0.1166 -2.3218
  752TIP3   OH223746   6.268   0.597  17.064 -0.4538  0.2443 -0.3118
  752TIP3    H123747   6.235   0.684  17.086  1.5909  0.9683  0.1756
  752TIP3    H223748   6.349   0.614  17.015 -0.9403 -1.3992 -1.7773
  753TIP3   OH223749   6.085   2.392  10.774 -0.3443 -0.9061  0.1791
  753TIP3    H123750   6.125   2.406  10.689 -0.1325  0.9766  0.5336
  753TIP3    H223751   6.151   2.343  10.824 -0.6797 -2.4794 -0.8498
  754TIP3   OH223752   4.027   6.102   0.482 -0.7920 -0.0010 -0.2229
  754TIP3    H123753   4.009   6.008   0.478  0.1306 -0.1623 -0.8610
  754TIP3    H223754   3.984   6.138   0.405 -1.3163  0.1377  0.1296
  755TIP3   OH223755   1.350   6.079  13.282  0.1344  0.1904 -0.2623
  755TIP3    H123756   1.263   6.041  13.291 -0.2474  1.0430 -0.3111
  755TIP3    H223757   1.347   6.158  13.335 -0.2598  2.1465 -2.9895
  756TIP3   OH223758   4.615   6.417  16.454 -0.4191 -0.2501 -0.1568
  756TIP3    H123759   4.640   6.355  16.523 -1.2633 -1.5238 -0.9538
  756TIP3    H223760   4.648   6.502  16.485  2.0494 -1.2855  0.3155
  757TIP3   OH223761   2.216   0.844   3.902 -0.1700 -0.0102  0.1385
  757TIP3    H123762   2.229   0.840   3.996  1.2250 -1.7398 -0.0735
  757TIP3    H223763   2.189   0.755   3.877  0.8453  0.0234 -1.2413
  758TIP3   OH223764   1.197   4.008   1.359 -0.3497 -0.2189  0.1924
  758TIP3    H123765   1.154   3.969   1.283 -2.2406 -0.5294  1.3508
  758TIP3    H223766   1.186   4.102   1.348  0.7291 -0.1710 -0.6384
  759TIP3   OH223767   1.972   2.924  15.059 -0.0564  0.4573 -0.3513
  759TIP3    H123768   1.893   2.977  15.042 -1.4431 -1.4960 -0.2811
  759TIP3    H223769   1.976   2.916  15.154  0.7211  1.2103 -0.3057
  760TIP3   OH223770   1.478   5.581   1.859  0.0706 -0.4561  0.4056
  760TIP3    H123771   1.540   5.508   1.861  2.7997  1.6854 -0.0165
  760TIP3    H223772   1.530   5.656   1.832 -2.8458  1.4777 -0.3298
  761TIP3   OH223773   0.519   0.291   4.861 -0.3246 -0.5930 -0.3054
  761TIP3    H123774   0.483   0.308   4.774  1.8478  0.9632 -1.0080
  761TIP3    H223775   0.605   0.253   4.844  0.0105 -0.5631  1.1811
  762TIP3   OH223776   2.074   4.780   4.424 -0.1558 -0.2058 -0.0597
  762TIP3    H123777   2.108   4.756   4.510 -1.2575 -0.4428  0.3345
  762TIP3    H223778   2.056   4.874   4.431  1.5319  0.1895 -0.6764
  763TIP3   OH223779   5.331   3.217   2.289  0.2947 -0.4389  0.5538
  763TIP3    H123780   5.246   3.259   2.279  0.9425  0.7990 -0.0217
  763TIP3    H223781   5.327   3.174   2.374 -0.5510  0.4916  1.0064
  764TIP3   OH223782   6.296   6.410   5.015 -0.4171  0.0638  0.0188
  764TIP3    H123783   6.303   6.396   4.920 -1.9806  1.5046 -0.3462
  764TIP3    H223784   6.373   6.365   5.051  0.6133  0.1031 -1.9779
  765TIP3   OH223785   5.771   3.099   0.425 -0.0945  0.4169 -1.0783
  765TIP3    H123786   5.682   3.095   0.389 -0.8709  0.3554  0.7234
  765TIP3    H223787   5.773   3.180   0.475 -0.1788 -0.9473  1.3116
  766TIP3   OH223788   5.696   4.763   2.710 -0.8312 -1.1725  0.0543
  766TIP3    H123789   5.616   4.740   2.663 -2.1980  0.8774  1.1728
  766TIP3    H223790   5.676   4.743   2.801 -0.8530  1.0426  0.6021
  767TIP3   OH223791   2.187   1.531   1.074 -0.2185  0.2819  0.5436
  767TIP3    H123792   2.146   1.459   1.028 -0.7341 -1.0920  2.9758
  767TIP3    H223793   2.190   1.602   1.010  1.9759 -2.3192 -2.6190
  768TIP3   OH223794   2.716   3.650  12.930 -0.3706 -0.4651 -0.2093
  768TIP3    H123795   2.695   3.557  12.943  0.0605 -0.3704  1.3480
  768TIP3    H223796   2.634   3.695  12.952 -0.5081 -0.4535 -0.7320
  769TIP3   OH223797   2.726   5.280   3.721 -0.2557 -0.6337  0.0485
  769TIP3    H123798   2.749   5.279   3.814 -0.1803  2.1163  0.1615
  769TIP3    H223799   2.669   5.204   3.709  0.6556 -1.7072  2.0590
  770TIP3   OH223800   5.913   4.256  13.128 -0.6135  0.3289  0.3516
  770TIP3    H123801   5.899   4.170  13.168  2.1412 -0.0078  0.7842
  770TIP3    H223802   5.826   4.296  13.127 -2.2846 -2.9384 -1.1439
  771TIP3   OH223803   0.403   0.545  16.459 -0.0381  0.4779 -0.1829
  771TIP3    H123804   0.467   0.474  16.467 -0.2249  0.2480 -0.7171
  771TIP3    H223805   0.323   0.502  16.431 -0.6649  0.6527  1.2263
  772TIP3   OH223806   0.217   4.334  11.997 -0.3708  0.1274  0.2762
  772TIP3    H123807   0.131   4.339  11.957  0.1046 -1.1703 -0.9645
  772TIP3    H223808   0.271   4.285  11.935  0.9050 -0.2977  1.6374
  773TIP3   OH223809   4.358   6.115  15.308  0.5063  0.1145  0.0648
  773TIP3    H123810   4.290   6.152  15.365  0.9777  1.0821  0.0319
  773TIP3    H223811   4.418   6.189  15.293  1.6492 -0.7584  0.2301
  774TIP3   OH223812   3.871   5.995  15.790  0.3061 -0.3270  0.2592
  774TIP3    H123813   3.831   6.031  15.869  0.1696 -0.2656  0.1624
  774TIP3    H223814   3.932   5.929  15.822 -1.3167 -1.8603  0.3368
  775TIP3   OH223815   0.432   1.721  12.597 -0.1141 -0.1098  0.6427
  775TIP3    H123816   0.396   1.714  12.509 -1.1965  1.1194  0.9600
  775TIP3    H223817   0.489   1.797  12.594 -0.9601  0.5771  1.2340
  776TIP3   OH223818   2.266   5.259   5.745  0.4437  0.2816 -0.1622
  776TIP3    H123819   2.242   5.309   5.822  2.4779  1.1673 -0.0191
  776TIP3    H223820   2.252   5.319   5.672 -1.7361 -0.6419 -0.5856
  777TIP3   OH223821   6.297   1.002  11.575 -0.2284  0.2051  0.3966
  777TIP3    H123822   6.256   0.983  11.491  1.7366 -0.6851 -0.4222
  777TIP3    H223823   6.289   1.097  11.586 -1.6453  0.1614 -0.1485
  778TIP3   OH223824   6.535   0.346  11.224  0.4463 -0.4151 -0.2894
  778TIP3    H123825   6.594   0.400  11.277  0.1255 -0.4866  0.1460
  778TIP3    H223826   6.560   0.256  11.245  1.5013 -0.4582 -1.5948
  779TIP3   OH223827   4.914   1.107   1.447 -0.1469 -0.7375 -0.6405
  779TIP3    H123828   4.910   1.172   1.376  0.3466 -0.3314 -0.3035
  779TIP3    H223829   4.848   1.041   1.423  0.7975 -1.2118 -2.0874
  780TIP3   OH223830   2.918   5.223   0.149 -0.1651 -0.1552 -0.2126
  780TIP3    H123831   2.977   5.153   0.121  0.0250 -0.2073  0.3146
  780TIP3    H223832   2.974   5.301   0.156 -0.7873  0.6893 -3.1960
  781TIP3   OH223833   4.090   2.625  13.755 -0.8203 -0.1199  0.2207
  781TIP3    H123834   4.153   2.608  13.825 -0.2871  1.1630  0.0895
  781TIP3    H223835   4.135   2.686  13.697 -2.0877  0.6644  0.0147
  782TIP3   OH223836   4.036   4.050   3.286  0.3143 -0.0245  0.2878
  782TIP3    H123837   3.956   4.046   3.339  0.3560  0.9957  0.4422
  782TIP3    H223838   4.005   4.048   3.196  0.0454  1.2747  0.3393
  783TIP3   OH223839   4.997   0.600  17.114 -0.6560 -0.3212 -0.0355
  783TIP3    H123840   4.959   0.661  17.178 -1.0846 -2.0952  1.4829
  783TIP3    H223841   4.922   0.557  17.074 -0.3434 -1.1499  0.2428
  784TIP3   OH223842   5.255   2.867   3.278 -0.0788 -0.3367 -0.1743
  784TIP3    H123843   5.249   2.777   3.309  0.7348 -0.5065 -0.4816
  784TIP3    H223844   5.348   2.880   3.260 -0.2973  0.3070 -0.8986
  785TIP3   OH223845   4.240   2.203   3.788  0.6446  0.2759  0.0489
  785TIP3    H123846   4.243   2.297   3.769  0.2054 -0.1846 -2.8466
  785TIP3    H223847   4.154   2.190   3.827  0.3789  0.9924 -0.2728
  786TIP3   OH223848   5.783   3.855   5.782 -0.6711 -0.0693 -0.4145
  786TIP3    H123849   5.760   3.784   5.843 -3.6499  1.6304  0.6606
  786TIP3    H223850   5.730   3.837   5.704  1.6629 -1.1498 -1.8610
  787TIP3   OH223851   1.894   5.050  15.116 -0.3648 -0.4345 -0.3419
  787TIP3    H123852   1.892   4.956  15.135  0.8042 -0.5855 -0.9188
  787TIP3    H223853   1.838   5.060  15.039 -0.3209 -0.6773 -0.4064
  788TIP3   OH223854   6.009   3.086   3.742  0.2159  0.1416 -0.1382
  788TIP3    H123855   6.038   2.995   3.740  1.1092  0.3644  1.3676
  788TIP3    H223856   5.931   3.086   3.798  0.4814  0.3544  0.2390
  789TIP3   OH223857   2.936   2.272  17.014  0.7551  0.2617  0.9100
  789TIP3    H123858   2.848   2.236  17.005 -0.2571  2.7470  0.0603
  789TIP3    H223859   2.986   2.203  17.058 -1.3177 -1.6208  0.4703
  790TIP3   OH223860   0.372   3.795  13.695  0.7455  0.0201 -0.0493
  790TIP3    H123861   0.465   3.809  13.713  0.5233 -0.3299  1.5158
  790TIP3    H223862   0.334   3.882  13.696  0.7398  0.0148  1.3037
  791TIP3   OH223863   4.023   6.114   3.477  0.2031  0.3300  0.1089
  791TIP3    H123864   3.928   6.110   3.467  0.3442 -0.3233 -1.1886
  791TIP3    H223865   4.051   6.022   3.477  0.7774  0.4967  1.1927
  792TIP3   OH223866   5.326   1.264   2.771  0.0040 -0.0736 -0.1002
  792TIP3    H123867   5.270   1.265   2.849  0.3197  0.5845  0.1265
  792TIP3    H223868   5.291   1.193   2.717  0.9430 -1.7915  1.4570
  793TIP3   OH223869   3.396   3.952  17.130 -0.0784  0.1544 -0.2723
  793TIP3    H123870   3.450   3.973  17.205 -0.6683 -0.5485  0.3713
  793TIP3    H223871   3.335   4.025  17.123 -0.8954 -0.3941  0.7833
  794TIP3   OH223872   0.634   2.843   5.524 -0.2333  0.1877 -0.5106
  794TIP3    H123873   0.555   2.869   5.476 -0.6535 -0.2375 -0.0709
  794TIP3    H223874   0.678   2.925   5.544 -0.8061  0.4667 -0.3633
  795TIP3   OH223875   4.822   5.473   3.628  1.0477  0.0899  0.3285
  795TIP3    H123876   4.813   5.496   3.720  0.4052 -1.2553  0.6159
  795TIP3    H223877   4.851   5.382   3.628  1.4445  0.2011 -0.7937
  796TIP3   OH223878   0.478   6.653  14.576 -0.1692  0.2845 -0.0505
  796TIP3    H123879   0.505   6.665  14.667 -1.0800  1.0887  0.1165
  796TIP3    H223880   0.551   6.604  14.537  0.7007  0.8137  0.8452
  797TIP3   OH223881   6.444   5.845  12.944 -0.0415 -0.9504 -0.0989
  797TIP3    H123882   6.447   5.837  12.849 -1.2315  0.1783 -0.2684
  797TIP3    H223883   6.533   5.828  12.974  0.7189  0.3101 -1.5572
  798TIP3   OH223884   2.479   4.685  16.125  0.1189  0.4849 -0.4799
  798TIP3    H123885   2.417   4.633  16.074 -0.6685  0.0957  0.8246
  798TIP3    H223886   2.424   4.745  16.174  0.4682 -1.5257  2.6378
  799TIP3   OH223887   6.837   0.338  11.988 -0.3775  0.2125  0.6183
  799TIP3    H123888   6.812   0.331  11.895  3.6599  1.0919 -0.7550
  799TIP3    H223889   6.860   0.248  12.012  1.8574  0.4489 -0.4230
  800TIP3   OH223890   4.317   0.941  11.662  0.1282  0.5510 -0.1609
  800TIP3    H123891   4.224   0.965  11.661 -0.1642 -0.5187  0.4589
  800TIP3    H223892   4.318   0.846  11.658  1.1641  0.4978  0.8164
  801TIP3   OH223893   2.731   5.678   4.667  0.4847  0.3979  0.0966
  801TIP3    H123894   2.811   5.637   4.700 -0.3756 -0.9290  0.5793
  801TIP3    H223895   2.730   5.658   4.574  2.3504  3.2193 -0.6743
  802TIP3   OH223896   2.305   5.893   2.332 -0.4371  0.6230  0.0123
  802TIP3    H123897   2.377   5.946   2.297 -0.1147 -0.5338 -1.1656
  802TIP3    H223898   2.227   5.927   2.289 -0.2063  0.0613 -0.8912
  803TIP3   OH223899   6.614   2.025   1.782 -0.6439  0.2171 -0.0624
  803TIP3    H123900   6.625   2.102   1.727 -1.1187  1.3451  1.3693
  803TIP3    H223901   6.657   1.954   1.733  0.6724  1.5813 -0.9567
  804TIP3   OH223902   0.741   4.255   1.829 -0.0141  0.0810  0.8144
  804TIP3    H123903   0.757   4.304   1.749  0.6688  0.7290  1.3317
  804TIP3    H223904   0.647   4.237   1.828  0.0175 -0.0955 -0.2157
  805TIP3   OH223905   5.609   3.706  14.012  0.0125  0.3248  0.1827
  805TIP3    H123906   5.576   3.643  14.076 -0.0807  1.0897  0.9111
  805TIP3    H223907   5.570   3.790  14.039 -1.9687  0.2989 -2.3001
  806TIP3   OH223908   1.134   2.153   3.354 -0.0876  0.2675 -0.0778
  806TIP3    H123909   1.096   2.134   3.440 -0.3126 -0.8090 -0.3995
  806TIP3    H223910   1.058   2.171   3.298  0.1149  2.4161  0.2440
  807TIP3   OH223911   3.619   0.812  16.974  0.4518 -0.4986 -0.4710
  807TIP3    H123912   3.580   0.887  17.020 -0.6771 -1.0899 -0.4171
  807TIP3    H223913   3.668   0.851  16.902 -0.0528  0.3069 -0.3947
  808TIP3   OH223914   5.826   0.263  16.979  0.2809 -0.2780 -0.3380
  808TIP3    H123915   5.889   0.210  16.930  1.8839  0.8856  0.3597
  808TIP3    H223916   5.837   0.236  17.070  0.5240  0.6200 -0.0851
  809TIP3   OH223917   3.762   1.741  14.048  0.1775 -0.3882  0.2645
  809TIP3    H123918   3.823   1.677  14.013  0.3997  0.7030 -1.4612
  809TIP3    H223919   3.800   1.826  14.023 -1.0057  0.3689  0.9568
  810TIP3   OH223920   6.099   0.551  10.685 -0.4873  0.0783  0.4341
  810TIP3    H123921   6.045   0.494  10.739  1.0065 -0.6236  1.2582
  810TIP3    H223922   6.185   0.550  10.728 -0.2349  2.4459  0.1050
  811TIP3   OH223923   1.655   1.228  13.269  0.5495  0.2637 -0.8929
  811TIP3    H123924   1.676   1.140  13.238  2.8555 -0.5048  2.3384
  811TIP3    H223925   1.740   1.271  13.279 -0.1510  1.2309  1.8006
  812TIP3   OH223926   2.099   0.813   0.855  0.0448  0.3452 -0.7972
  812TIP3    H123927   2.161   0.884   0.875 -0.9838  1.0129  0.1231
  812TIP3    H223928   2.013   0.852   0.871 -0.5150 -1.7372  2.0033
  813TIP3   OH223929   6.569   0.793  16.625  0.0180 -0.3800 -0.3203
  813TIP3    H123930   6.530   0.868  16.671  1.4204 -0.6697  1.4491
  813TIP3    H223931   6.513   0.719  16.648  0.5097 -0.4570  0.6896
  814TIP3   OH223932   6.182   5.303   1.880  0.0708 -0.4719  0.3445
  814TIP3    H123933   6.092   5.270   1.881  0.8500 -2.7815 -0.5891
  814TIP3    H223934   6.187   5.355   1.800 -0.3877 -0.4263  0.3414
  815TIP3   OH223935   0.563   4.011  16.707 -0.0207  0.0681  0.5384
  815TIP3    H123936   0.658   4.002  16.701 -0.0592 -0.9370  1.1350
  815TIP3    H223937   0.531   3.986  16.621  0.1591 -1.5798  0.9102
  816TIP3   OH223938   1.088   0.317  15.090  0.1898  0.0691 -0.0624
  816TIP3    H123939   1.150   0.245  15.099  1.8684  1.5539  0.8136
  816TIP3    H223940   1.086   0.336  14.997 -0.2834 -1.0718 -0.3075
  817TIP3   OH223941   1.466   4.902   0.425  0.1392 -0.7827 -0.4174
  817TIP3    H123942   1.468   4.811   0.454  1.4248 -0.2502  1.4089
  817TIP3    H223943   1.547   4.939   0.460  0.6658  0.5730 -2.8996
  818TIP3   OH223944   2.120   6.132   2.879  0.2101  0.3341 -0.7006
  818TIP3    H123945   2.070   6.053   2.857  1.8431 -0.6893 -0.9260
  818TIP3    H223946   2.116   6.138   2.974 -1.0243  0.7522 -0.7670
  819TIP3   OH223947   2.178   3.244   4.225  0.2196  0.3269 -0.1935
  819TIP3    H123948   2.176   3.229   4.320  1.7146  0.9650 -0.0322
  819TIP3    H223949   2.253   3.194   4.194 -0.9936 -0.9234 -1.2908
  820TIP3   OH223950   1.415   5.150  14.909 -0.4490 -0.1210  0.0564
  820TIP3    H123951   1.431   5.242  14.929 -0.5602 -0.1283  0.1825
  820TIP3    H223952   1.388   5.112  14.993 -1.8347  0.0504 -0.2999
  821TIP3   OH223953   2.680   2.847   6.117  0.0553 -0.2697  0.6559
  821TIP3    H123954   2.665   2.938   6.090  1.6945 -0.6166 -1.7916
  821TIP3    H223955   2.698   2.853   6.211  0.3014  1.9602  0.5310
  822TIP3   OH223956   0.930   6.759  12.473 -0.0708  0.0157 -0.1881
  822TIP3    H123957   0.900   6.829  12.415 -1.4037  0.4449  0.9709
  822TIP3    H223958   0.914   6.679  12.423 -0.3293  0.4167 -0.7687
  823TIP3   OH223959   5.453   3.318   5.610 -0.5395 -0.1185  0.1343
  823TIP3    H123960   5.524   3.321   5.547 -1.5676  1.8457 -1.0280
  823TIP3    H223961   5.462   3.232   5.652  1.4120 -0.6397 -1.2046
  824TIP3   OH223962   6.065   4.550   0.756  0.0097  0.1970  0.3424
  824TIP3    H123963   5.985   4.592   0.788 -0.9979 -1.3222 -0.0719
  824TIP3    H223964   6.046   4.529   0.664  0.8155 -0.3460  0.2824
  825TIP3   OH223965   3.710   5.358  16.464  0.1129  0.2411  0.5967
  825TIP3    H123966   3.695   5.422  16.533  1.8820  0.8003  0.5179
  825TIP3    H223967   3.804   5.365  16.445  0.2377 -1.9416  0.1581
  826TIP3   OH223968   2.222   4.635   2.979 -0.3562  0.3014 -0.2369
  826TIP3    H123969   2.157   4.604   2.915  0.8638  2.3236 -2.6448
  826TIP3    H223970   2.214   4.730   2.977  1.2661  0.4972  1.0115
  827TIP3   OH223971   0.535   0.576   4.275 -0.2625  0.2503 -0.3993
  827TIP3    H123972   0.612   0.529   4.307  1.1889  2.7831  0.0444
  827TIP3    H223973   0.547   0.582   4.180  1.4164  2.6898 -0.1120
  828TIP3   OH223974   1.951   2.707   1.821  0.4527  0.1501  0.2174
  828TIP3    H123975   2.034   2.729   1.779 -0.2699 -0.0851 -1.4003
  828TIP3    H223976   1.897   2.670   1.751 -0.0089 -2.4829  1.8317
  829TIP3   OH223977   6.632   0.028   1.657 -0.6578 -0.0596  0.0667
  829TIP3    H123978   6.644   0.025   1.751 -0.4343  0.3462  0.0550
  829TIP3    H223979   6.716   0.001   1.621 -0.4233  0.7384 -0.0122
  830TIP3   OH223980   6.800   5.180   6.064  0.5066  0.1455  0.3234
  830TIP3    H123981   6.840   5.266   6.077 -1.0697  0.5756  3.2495
  830TIP3    H223982   6.717   5.199   6.019  0.2487  0.1791  0.7990
  831TIP3   OH223983   6.693   2.090   4.552  0.0273  0.2398  0.1600
  831TIP3    H123984   6.604   2.063   4.575  1.3513 -3.1203  2.1580
  831TIP3    H223985   6.700   2.180   4.585 -2.9618  1.1456 -1.3563
  832TIP3   OH223986   1.997   4.585   2.586 -0.2168 -0.4501 -0.1626
  832TIP3    H123987   1.917   4.547   2.550  0.6554 -1.4604 -1.1127
  832TIP3    H223988   2.064   4.568   2.520  1.0308 -0.6394  1.0843
  833TIP3   OH223989   2.013   2.007   1.510 -1.1359  0.0148 -0.1430
  833TIP3    H123990   2.043   2.087   1.466 -1.6277  0.0841 -0.3609
  833TIP3    H223991   2.092   1.955   1.523 -1.0224 -0.1649 -1.4267
  834TIP3   OH223992   4.735   2.840  11.008  0.9752  0.4102 -0.4465
  834TIP3    H123993   4.722   2.752  11.044 -2.4570  1.3210  0.9392
  834TIP3    H223994   4.712   2.832  10.916 -1.2393  0.1468  0.0790
  835TIP3   OH223995   6.282   2.817   0.269 -0.2258 -0.4240 -0.3574
  835TIP3    H123996   6.213   2.880   0.289  0.2832 -0.2757  1.0782
  835TIP3    H223997   6.358   2.870   0.245 -0.4792 -0.5793 -1.5857
  836TIP3   OH223998   1.885   2.748  13.314 -0.4442  0.2322  0.6774
  836TIP3    H123999   1.974   2.761  13.280  0.1726  1.8171  2.6429
  836TIP3    H224000   1.849   2.676  13.262  1.9154 -0.3351 -0.3042
  837TIP3   OH224001   1.181   1.433  15.968  0.0616  0.5362  0.0675
  837TIP3    H124002   1.145   1.415  15.881  0.1781  0.2310  0.0816
  837TIP3    H224003   1.269   1.465  15.951  0.5002 -0.5820  0.1115
  838TIP3   OH224004   3.799   5.895   4.809  0.3255 -0.0376 -0.5156
  838TIP3    H124005   3.836   5.834   4.873 -0.6597  0.1029  0.2054
  838TIP3    H224006   3.819   5.855   4.724  0.4392 -0.9330 -0.0851
  839TIP3   OH224007   4.958   3.054  15.934  0.2196 -0.1758 -0.0682
  839TIP3    H124008   5.045   3.090  15.951  0.6376 -1.6014  1.0342
  839TIP3    H224009   4.898   3.127  15.951  1.1861  0.9691 -1.3327
  840TIP3   OH224010   5.962   2.051   0.009 -0.1731 -0.7916 -0.0065
  840TIP3    H124011   6.033   2.106   0.043 -0.3329  0.2315 -1.2517
  840TIP3    H224012   5.997   1.962   0.012  0.8438 -0.4026  0.2103
  841TIP3   OH224013   2.889   4.725   5.210  0.1743  0.4961  0.7628
  841TIP3    H124014   2.877   4.800   5.267  0.0238  0.9169  0.1929
  841TIP3    H224015   2.944   4.758   5.138 -2.6391  1.0675 -1.2977
  842TIP3   OH224016   0.656   0.864   4.256 -0.2745  0.3381 -0.5626
  842TIP3    H124017   0.610   0.781   4.270 -1.9783  1.1869 -0.8534
  842TIP3    H224018   0.733   0.858   4.312 -0.6576 -1.2135 -0.1445
  843TIP3   OH224019   6.223   2.644   3.387  0.5982 -0.7398 -0.4960
  843TIP3    H124020   6.222   2.571   3.449  0.4518 -1.8633 -1.7813
  843TIP3    H224021   6.186   2.608   3.307 -0.6665  1.1150 -0.7972
  844TIP3   OH224022   5.092   0.610  16.862  0.2894  0.6372 -0.5199
  844TIP3    H124023   5.186   0.612  16.877  0.4441  2.1355 -1.5515
  844TIP3    H224024   5.054   0.644  16.944  0.7864  2.1836 -0.8974
  845TIP3   OH224025   2.503   5.663   2.296  0.5574  1.0889 -0.8449
  845TIP3    H124026   2.447   5.739   2.279 -1.5720 -0.5785 -1.7838
  845TIP3    H224027   2.532   5.635   2.210 -1.7159 -1.2390 -0.9845
  846TIP3   OH224028   2.691   4.085  14.228 -0.8078  0.3329  0.3099
  846TIP3    H124029   2.664   4.168  14.268 -1.9738 -0.2594  0.8238
  846TIP3    H224030   2.692   4.103  14.134 -2.6924  0.5345  0.2773
  847TIP3   OH224031   0.677   4.321   3.629  0.0781  0.3697 -0.2875
  847TIP3    H124032   0.627   4.315   3.547  0.2142 -0.9582 -0.3003
  847TIP3    H224033   0.700   4.231   3.649  1.0436  0.7957  0.6144
  848TIP3   OH224034   6.362   5.307   5.612 -0.2171  0.2152  0.2150
  848TIP3    H124035   6.297   5.239   5.626  0.8374 -0.6577  0.9802
  848TIP3    H224036   6.345   5.371   5.681 -0.5890  0.2625  0.0846
  849TIP3   OH224037   6.446   5.286  15.791 -0.3516  0.0639  0.6499
  849TIP3    H124038   6.502   5.261  15.864 -3.3918 -0.0313  3.1949
  849TIP3    H224039   6.384   5.348  15.829 -2.2315 -0.1862 -1.7814
  850TIP3   OH224040   1.390   5.119   4.431 -0.1834 -0.1528 -0.0388
  850TIP3    H124041   1.339   5.200   4.436 -2.7304 -1.6109 -0.5026
  850TIP3    H224042   1.358   5.066   4.503  0.1338 -1.4304 -0.8060
  851TIP3   OH224043   3.350   2.315   4.852 -0.3526 -0.1909 -0.3584
  851TIP3    H124044   3.328   2.223   4.867 -0.4319 -0.2559 -0.8494
  851TIP3    H224045   3.278   2.349   4.798  0.5681 -0.3255 -1.7162
  852TIP3   OH224046   3.466   6.808  16.879 -0.5089 -0.6390 -0.0285
  852TIP3    H124047   3.558   6.807  16.908  0.4298 -0.4536 -2.7167
  852TIP3    H224048   3.436   6.896  16.899 -0.3076 -0.8631  1.3707
  853TIP3   OH224049   0.437   6.258  13.540 -0.6505 -0.3487  0.2466
  853TIP3    H124050   0.445   6.263  13.635 -0.2803 -0.3697  0.2182
  853TIP3    H224051   0.349   6.225  13.525 -0.7681 -0.1884  0.5785
  854TIP3   OH224052   0.011   4.860   4.316  0.2344 -0.1412 -0.1238
  854TIP3    H124053  -0.006   4.871   4.410  0.1241 -0.8739 -0.0571
  854TIP3    H224054  -0.027   4.939   4.276  1.1122  0.6424  0.5332
  855TIP3   OH224055   3.528   2.990  15.599 -0.2242 -1.0198 -0.1522
  855TIP3    H124056   3.615   3.007  15.563  0.0530  0.3060  1.0418
  855TIP3    H224057   3.478   3.069  15.579 -0.1082 -0.2843  2.0872
  856TIP3   OH224058   3.549   2.272  12.804  0.4067  0.5826 -0.1065
  856TIP3    H124059   3.496   2.192  12.806 -1.0206  1.5013  1.2587
  856TIP3    H224060   3.550   2.302  12.895  0.1038  2.6064 -0.7224
  857TIP3   OH224061   3.561   2.148  10.812  0.3620  0.3102  0.0946
  857TIP3    H124062   3.625   2.212  10.842  1.7869 -1.3108  0.6297
  857TIP3    H224063   3.531   2.182  10.728  2.2466  0.9025 -0.3788
  858TIP3   OH224064   6.473   0.209  15.798  0.3273  0.0690 -0.3391
  858TIP3    H124065   6.431   0.260  15.729 -0.4916 -1.4297 -1.0056
  858TIP3    H224066   6.400   0.164  15.842  1.0617 -1.1877 -0.3532
  859TIP3   OH224067   0.473   4.146  11.609  0.2375  0.0549  0.1703
  859TIP3    H124068   0.493   4.239  11.614 -3.1992  0.9033  0.3487
  859TIP3    H224069   0.468   4.127  11.516  0.0658  0.2834  0.1319
  860TIP3   OH224070   2.313   4.328   1.628  0.3119  0.0693 -0.2338
  860TIP3    H124071   2.296   4.257   1.567 -2.4818 -1.0956  1.6944
  860TIP3    H224072   2.334   4.284   1.711  1.5872  1.5604  0.2845
  861TIP3   OH224073   2.664   0.246   5.662 -0.2241  0.4813 -0.4502
  861TIP3    H124074   2.719   0.172   5.691 -1.3807  0.1789  1.1581
  861TIP3    H224075   2.720   0.323   5.673  0.0482  0.1400  0.8127
  862TIP3   OH224076   0.705   6.297   5.762  0.0645 -0.0288 -0.1577
  862TIP3    H124077   0.682   6.374   5.710 -0.0285 -0.2272 -0.4152
  862TIP3    H224078   0.749   6.332   5.840 -1.6510  0.4044  0.6572
  863TIP3   OH224079   0.320   2.635   4.408  0.5709  0.4743 -0.0383
  863TIP3    H124080   0.279   2.644   4.495  0.0147  0.2913 -0.2778
  863TIP3    H224081   0.283   2.554   4.373  0.5897  0.6914 -0.5566
  864TIP3   OH224082   2.998   1.899  14.608  0.2324 -0.5672  0.2824
  864TIP3    H124083   2.998   1.804  14.608 -0.6884 -0.5867  1.7586
  864TIP3    H224084   3.061   1.923  14.676 -1.2914 -0.1855  1.6196
  865TIP3   OH224085   3.597   0.281  10.885  0.9649  0.0650 -1.4542
  865TIP3    H124086   3.557   0.195  10.878  0.9318 -0.0273 -0.2512
  865TIP3    H224087   3.576   0.324  10.801 -0.4578 -0.4859 -1.4133
  866TIP3   OH224088   1.132   3.658   1.082 -0.6007 -0.1075  0.0745
  866TIP3    H124089   1.047   3.616   1.095 -0.4719  0.1615  2.0568
  866TIP3    H224090   1.111   3.748   1.055 -0.9369 -0.1872  0.0739
  867TIP3   OH224091   2.234   6.800   4.694 -0.1791  0.4983  0.3729
  867TIP3    H124092   2.222   6.861   4.767  1.0204  0.1325  0.8976
  867TIP3    H224093   2.191   6.720   4.722 -1.0681  0.8428  0.0155
  868TIP3   OH224094   0.778   6.361  11.744 -0.3662  0.2206 -0.7457
  868TIP3    H124095   0.751   6.423  11.812 -1.0046 -0.1536 -0.6524
  868TIP3    H224096   0.868   6.337  11.768 -0.6129  0.0325  0.0043
  869TIP3   OH224097   4.991   1.034  15.626  0.3898  0.0429  0.3521
  869TIP3    H124098   4.922   1.084  15.670  0.1183 -0.3232  0.3501
  869TIP3    H224099   5.027   0.978  15.694  1.2893  0.8625  0.5613
  870TIP3   OH224100   0.548   5.584   4.588  0.0441  0.9939  0.2060
  870TIP3    H124101   0.503   5.655   4.542  0.6352  1.5277  0.4339
  870TIP3    H224102   0.481   5.544   4.642 -0.1463  1.8259  0.5941
  871TIP3   OH224103   2.671   4.864   5.038  0.3125 -0.0354 -0.5932
  871TIP3    H124104   2.733   4.844   5.109 -1.4711 -2.4137  0.4444
  871TIP3    H224105   2.662   4.959   5.040  1.6123  0.1045  1.2271
  872TIP3   OH224106   5.781   3.598  13.144  0.2525 -0.2047 -0.1661
  872TIP3    H124107   5.873   3.606  13.117  0.3107  0.4929  0.2063
  872TIP3    H224108   5.751   3.689  13.151 -0.2174 -0.4092  0.5253
  873TIP3   OH224109   4.240   3.284   0.242 -0.1233  0.4744  0.2583
  873TIP3    H124110   4.276   3.341   0.174  1.0728 -0.6166 -0.0804
  873TIP3    H224111   4.298   3.295   0.317 -1.5072  1.7594  1.1970
  874TIP3   OH224112   3.459   1.605   2.304 -0.0010  0.1713  0.1758
  874TIP3    H124113   3.434   1.557   2.383  0.2956  1.6701  1.2258
  874TIP3    H224114   3.549   1.633   2.320  0.5801 -0.7463 -1.3451
  875TIP3   OH224115   5.866   1.414   4.448  0.0505 -0.5035  0.0773
  875TIP3    H124116   5.784   1.411   4.497 -0.6703 -0.3815 -1.1023
  875TIP3    H224117   5.886   1.322   4.431  0.2151 -0.5381  0.4444
  876TIP3   OH224118   0.566   5.685  17.069 -0.5082  0.1012  0.9846
  876TIP3    H124119   0.638   5.683  17.132 -0.9949  0.1573  1.5509
  876TIP3    H224120   0.508   5.614  17.096  0.5333 -1.5566 -0.9291
  877TIP3   OH224121   1.467   0.991   6.127 -0.2733  1.0245  0.1676
  877TIP3    H124122   1.437   0.995   6.217 -0.1305  1.1268  0.2111
  877TIP3    H224123   1.561   1.010   6.132 -0.2693  1.0540 -0.0041
  878TIP3   OH224124   2.875   0.688  12.379 -0.1063 -0.2946  0.5856
  878TIP3    H124125   2.925   0.768  12.393  0.4027 -0.6810  1.0828
  878TIP3    H224126   2.942   0.621  12.365 -0.5215 -0.6475  0.2786
  879TIP3   OH224127   1.801   3.282  11.203  0.5309 -0.4231  0.1320
  879TIP3    H124128   1.759   3.205  11.167  0.4590  0.2754 -1.3357
  879TIP3    H224129   1.755   3.356  11.163  2.2274  0.3636 -0.4596
  880TIP3   OH224130   1.032   1.403  15.327 -0.7941  0.3032  0.1860
  880TIP3    H124131   0.970   1.336  15.296 -1.0401  0.1120  1.0650
  880TIP3    H224132   1.106   1.352  15.361 -0.6130  0.5058  0.0951
  881TIP3   OH224133   1.062   4.316   0.562  0.8633 -0.0773 -0.2374
  881TIP3    H124134   1.083   4.390   0.505 -0.1834  0.1871 -0.3029
  881TIP3    H224135   0.969   4.325   0.580  1.4494  1.0589  3.1563
  882TIP3   OH224136   4.981   5.827  14.092 -0.1726  0.4276 -0.3722
  882TIP3    H124137   4.994   5.862  14.003  0.8921  0.1247 -0.3500
  882TIP3    H224138   5.062   5.850  14.138  0.1687 -1.2429 -0.0832
  883TIP3   OH224139   6.345   3.732   4.455  0.2104 -0.0499 -0.5185
  883TIP3    H124140   6.412   3.690   4.509 -1.3592 -0.0967  1.4913
  883TIP3    H224141   6.264   3.686   4.476 -0.5903  0.2767 -2.5734
  884TIP3   OH224142   3.808   2.017  15.387  0.2948 -0.2098 -0.3512
  884TIP3    H124143   3.849   2.091  15.341 -2.1593  0.5273 -1.4977
  884TIP3    H224144   3.723   2.050  15.415  0.0908 -1.9194  1.2244
  885TIP3   OH224145   1.572   6.083   1.737  0.3780 -0.2181  0.0167
  885TIP3    H124146   1.628   6.161   1.737 -1.1935  0.9773 -0.1289
  885TIP3    H224147   1.617   6.021   1.794  0.6130  1.6469  1.9896
  886TIP3   OH224148   6.211   1.284  16.798 -0.5275 -0.2942 -0.6362
  886TIP3    H124149   6.118   1.270  16.819 -0.5884 -1.5974 -1.6438
  886TIP3    H224150   6.230   1.218  16.731  0.9422  0.4436 -0.9709
  887TIP3   OH224151   6.298   1.563   6.014  0.2235 -0.0444 -0.4103
  887TIP3    H124152   6.252   1.490   6.055  1.0954 -0.2907  0.1496
  887TIP3    H224153   6.385   1.528   5.992  0.4967  0.6923 -0.5484
  888TIP3   OH224154   1.838   0.011   4.704  0.1865  0.2235 -0.1612
  888TIP3    H124155   1.749   0.020   4.739  0.0971  0.0051 -0.3341
  888TIP3    H224156   1.855   0.095   4.661 -0.1401  0.0740 -0.5957
  889TIP3   OH224157   4.463   6.525   1.314  0.0780 -0.0672 -0.7343
  889TIP3    H124158   4.426   6.563   1.233 -0.6271  2.3028  0.5953
  889TIP3    H224159   4.406   6.450   1.333 -0.9129  0.4598 -1.4724
  890TIP3   OH224160   5.779   5.497   4.203  0.1877  0.3222 -0.2493
  890TIP3    H124161   5.763   5.435   4.274  0.8438  1.8012  1.2756
  890TIP3    H224162   5.846   5.455   4.149 -1.0463 -1.2650 -0.6136
  891TIP3   OH224163   0.437   6.774  14.356 -0.2129 -0.0033  0.5395
  891TIP3    H124164   0.458   6.741  14.443  0.6320  0.2281  0.4306
  891TIP3    H224165   0.342   6.768  14.350 -0.1868 -1.0521  1.0551
  892TIP3   OH224166   0.559   1.362   3.072 -0.0099 -0.2015  0.2699
  892TIP3    H124167   0.606   1.412   3.005  1.1668 -0.1738  1.0831
  892TIP3    H224168   0.581   1.271   3.054  1.0678 -0.1418  1.1250
  893TIP3   OH224169   3.185   0.930  10.513  0.2555 -0.5698 -0.3265
  893TIP3    H124170   3.132   0.878  10.573  0.0334  0.9590  0.8656
  893TIP3    H224171   3.259   0.873  10.491  0.0937 -1.3458  1.0362
  894TIP3   OH224172   0.637   6.528   6.045  0.5608 -0.1300  0.2046
  894TIP3    H124173   0.599   6.587   5.981 -0.8678 -0.4954  0.6793
  894TIP3    H224174   0.602   6.557   6.129  0.3331 -1.2465  0.5171
  895TIP3   OH224175   5.829   0.557   4.314 -0.0776  0.2863 -0.0772
  895TIP3    H124176   5.793   0.548   4.225  0.0267  0.5066 -0.1403
  895TIP3    H224177   5.792   0.639   4.346 -0.1516  0.1842  0.1020
  896TIP3   OH224178   4.094   1.173  15.819 -0.3273  0.3012  0.4992
  896TIP3    H124179   4.115   1.223  15.740 -0.2751  0.5660  0.6798
  896TIP3    H224180   4.090   1.238  15.889  1.1350 -0.1172  1.0042
  897TIP3   OH224181   2.617   3.595  14.030  0.0270  0.2375  0.2972
  897TIP3    H124182   2.585   3.672  13.983 -1.8029 -0.3164  0.5527
  897TIP3    H224183   2.541   3.565  14.081  0.8045 -1.5206  0.4771
  898TIP3   OH224184   0.905   3.489   0.758 -0.1109 -0.2046  0.0205
  898TIP3    H124185   0.887   3.415   0.700  0.6675 -0.3071 -0.0974
  898TIP3    H224186   0.843   3.557   0.730  1.2625  0.3048 -1.9831
  899TIP3   OH224187   5.764   1.607  12.786 -0.0024 -0.5033  0.4232
  899TIP3    H124188   5.845   1.570  12.821  0.3532 -0.9035 -0.7521
  899TIP3    H224189   5.695   1.548  12.817  0.3509 -1.1038  0.0825
  900TIP3   OH224190   4.127   2.926   5.495 -0.1010  0.2571  0.1487
  900TIP3    H124191   4.098   2.878   5.573 -0.4006  1.8346  1.0666
  900TIP3    H224192   4.220   2.942   5.510 -0.1195  0.4046  0.1100
  901TIP3   OH224193   3.960   3.576  15.628 -0.3051 -0.0275  0.1683
  901TIP3    H124194   3.945   3.614  15.541  0.4190 -0.8773 -0.3452
  901TIP3    H224195   4.027   3.632  15.666  0.9672 -0.9201 -0.6982
  902TIP3   OH224196   3.808   3.229   2.098 -0.3188  0.5958  0.8184
  902TIP3    H124197   3.738   3.282   2.060  0.7009  3.0366  2.1413
  902TIP3    H224198   3.869   3.213   2.026 -1.1703  0.2183  0.1557
  903TIP3   OH224199   2.634   6.300   3.905  0.0722 -0.0352  0.5165
  903TIP3    H124200   2.644   6.256   3.989  0.5037 -1.5777 -0.3006
  903TIP3    H224201   2.723   6.328   3.881 -0.3643  2.7465  1.7076
  904TIP3   OH224202   4.264   5.082  15.275 -0.1501 -0.1190  0.1116
  904TIP3    H124203   4.218   5.076  15.359  1.3189 -0.8337  0.9203
  904TIP3    H224204   4.268   4.991  15.244  1.1811 -0.1813  0.3724
  905TIP3   OH224205   2.384   5.149   3.854 -0.0419  0.0382  0.7872
  905TIP3    H124206   2.457   5.118   3.799  0.1411  0.7693  0.5980
  905TIP3    H224207   2.420   5.150   3.943  0.5015  1.2758  0.5798
  906TIP3   OH224208   1.896   3.422   0.388 -0.1401 -0.3939  0.0241
  906TIP3    H124209   1.948   3.342   0.401 -1.1960 -0.9066  1.3771
  906TIP3    H224210   1.806   3.391   0.384 -0.4818  0.6333 -0.7330
  907TIP3   OH224211   6.491   5.618   2.658 -0.0773 -0.1175 -0.0982
  907TIP3    H124212   6.447   5.695   2.694  0.5272  0.0599  0.2603
  907TIP3    H224213   6.461   5.615   2.567 -0.8582 -0.0181  0.1461
  908TIP3   OH224214   3.179   2.175   1.062 -0.0386 -0.2734  0.1109
  908TIP3    H124215   3.201   2.193   1.154  0.8886 -0.3053 -0.1009
  908TIP3    H224216   3.093   2.216   1.050  0.0935  0.2352  0.8332
  909TIP3   OH224217   1.355   1.559  11.142 -0.2469  0.6469  0.4376
  909TIP3    H124218   1.379   1.467  11.141 -1.7009  0.2198 -1.5282
  909TIP3    H224219   1.434   1.605  11.113 -0.2443 -0.2439 -1.0877
  910TIP3   OH224220   2.431   5.287  11.641 -0.5998  0.0765  0.4167
  910TIP3    H124221   2.457   5.378  11.632 -0.3557  0.0060  0.3941
  910TIP3    H224222   2.444   5.266  11.733  1.9691 -0.7069 -0.0354
  911TIP3   OH224223   6.745   5.852  15.353 -0.1571  0.5419 -0.4280
  911TIP3    H124224   6.694   5.776  15.382  1.5298  0.1378  1.7092
  911TIP3    H224225   6.705   5.927  15.398 -0.3737  0.5900 -0.6971
  912TIP3   OH224226   5.850   0.560   1.703  0.8127  0.5177  0.7301
  912TIP3    H124227   5.801   0.505   1.764  0.5647  0.2383  0.2834
  912TIP3    H224228   5.884   0.499   1.638 -0.6424  1.0183 -0.5749
  913TIP3   OH224229   5.128   6.091   0.612  0.1931  0.3053  0.0136
  913TIP3    H124230   5.128   6.102   0.707 -0.4411 -2.5904  0.4135
  913TIP3    H224231   5.040   6.062   0.590  0.3369  0.8833 -1.5000
  914TIP3   OH224232   3.974   0.364  12.957  0.0031 -0.0413 -0.4039
  914TIP3    H124233   4.050   0.363  12.898  0.2300  0.5562 -0.1301
  914TIP3    H224234   3.984   0.285  13.011  0.3961  0.0033 -0.4105
  915TIP3   OH224235   2.316   3.244   3.386  0.1196  0.7601  0.4342
  915TIP3    H124236   2.296   3.325   3.338 -0.4250 -0.4577 -1.4972
  915TIP3    H224237   2.243   3.186   3.368  0.4074 -0.1367  1.9585
  916TIP3   OH224238   5.580   5.408  11.425  0.3186  0.0281  0.0489
  916TIP3    H124239   5.620   5.348  11.488 -1.2724  0.8383  1.9785
  916TIP3    H224240   5.546   5.479  11.480  0.9346  2.0145 -2.0006
  917TIP3   OH224241   6.324   1.646  16.329  0.6306  0.3785  0.2040
  917TIP3    H124242   6.365   1.561  16.342  0.9816  0.4170 -0.5707
  917TIP3    H224243   6.230   1.629  16.340  0.7560  0.0602  0.8478
  918TIP3   OH224244   5.096   4.143  10.489 -0.4250 -0.7615 -0.1346
  918TIP3    H124245   5.122   4.091  10.413  1.8664  0.7661 -0.5017
  918TIP3    H224246   5.154   4.113  10.559 -0.0626  0.2841  0.0271
  919TIP3   OH224247   4.292   1.871  16.687 -0.1870  0.8228 -0.2867
  919TIP3    H124248   4.369   1.925  16.667  0.7265  0.0038  0.8530
  919TIP3    H224249   4.234   1.930  16.736  0.0737  1.2286 -0.4586
  920TIP3   OH224250   1.569   6.197  13.160 -0.3838 -0.1980 -0.5367
  920TIP3    H124251   1.506   6.155  13.219  1.4163 -0.6739  1.1322
  920TIP3    H224252   1.556   6.153  13.076 -1.8739 -0.6654 -0.0983
  921TIP3   OH224253   4.270   3.544   4.884  0.6553  0.1242 -0.0698
  921TIP3    H124254   4.179   3.550   4.913  1.0442  0.2222  1.2020
  921TIP3    H224255   4.271   3.468   4.826 -0.2792  0.2562 -0.2760
  922TIP3   OH224256   1.087   1.142   4.195 -0.0602 -0.0943  0.4996
  922TIP3    H124257   1.099   1.154   4.289  0.2392  0.8069  0.3605
  922TIP3    H224258   1.072   1.231   4.162  0.1166 -0.3724 -0.3410
  923TIP3   OH224259   2.232   2.907   3.187 -0.2323 -0.0569  0.6304
  923TIP3    H124260   2.193   2.927   3.102  0.1086 -0.0270  0.4817
  923TIP3    H224261   2.158   2.909   3.248 -0.3661  0.6803  0.4608
  924TIP3   OH224262   6.537   6.775  15.104  0.4738 -0.3797  0.2613
  924TIP3    H124263   6.534   6.717  15.027  2.5611  0.1814 -0.3238
  924TIP3    H224264   6.571   6.858  15.070 -3.8965  1.8942  0.7598
  925TIP3   OH224265   0.661   4.104   1.101 -0.3981  0.2100 -0.1403
  925TIP3    H124266   0.684   4.127   1.011  1.3701  3.0359  0.9223
  925TIP3    H224267   0.702   4.018   1.115  1.4421  0.8486 -1.2851
  926TIP3   OH224268   4.400   6.694   5.279  0.1460 -0.2158 -0.0452
  926TIP3    H124269   4.350   6.628   5.230 -0.9003  1.1795 -0.9262
  926TIP3    H224270   4.335   6.757   5.309  1.1609  0.6383  0.4600
  927TIP3   OH224271   0.978   4.386  15.618  0.3134  0.4522  0.8324
  927TIP3    H124272   1.022   4.425  15.694 -1.5310 -0.0292  2.2236
  927TIP3    H224273   0.926   4.458  15.582  0.3737  0.4033  0.6476
  928TIP3   OH224274   1.133   0.875  13.361  0.0381 -0.2782 -0.1004
  928TIP3    H124275   1.067   0.817  13.324 -0.2675  0.0719 -0.1150
  928TIP3    H224276   1.124   0.865  13.456  0.6241 -0.9568 -0.1076
  929TIP3   OH224277   0.353   3.014   3.350 -0.2830  0.7990 -0.7908
  929TIP3    H124278   0.350   3.010   3.254  2.0997  1.7499 -0.9860
  929TIP3    H224279   0.267   3.048   3.375 -0.6799  1.3153 -2.6569
  930TIP3   OH224280   6.465   4.407   1.331  0.2680  0.6564  0.5194
  930TIP3    H124281   6.440   4.330   1.382 -1.2055  1.2516  0.7249
  930TIP3    H224282   6.552   4.386   1.297  0.4073 -0.5896  1.5873
  931TIP3   OH224283   5.423   4.746  14.399 -0.0096  0.1931  0.2442
  931TIP3    H124284   5.426   4.652  14.413 -0.8167  0.1214 -0.0451
  931TIP3    H224285   5.362   4.779  14.464  0.8560  0.6264  0.8626
  932TIP3   OH224286   5.283   5.188  11.306 -0.8833 -0.3562 -0.0560
  932TIP3    H124287   5.374   5.169  11.282 -0.3370 -0.1536  1.6795
  932TIP3    H224288   5.242   5.214  11.224  1.0966  1.3345 -0.6005
  933TIP3   OH224289   0.775   0.723   0.830 -0.0668 -0.7250  0.5203
  933TIP3    H124290   0.817   0.683   0.754 -0.3574  1.5232 -0.9166
  933TIP3    H224291   0.682   0.715   0.812 -0.1326  0.0337  0.5034
  934TIP3   OH224292   6.129   5.162  13.600  0.0986  0.3793 -0.5624
  934TIP3    H124293   6.179   5.095  13.645  0.4201 -0.3928 -2.0250
  934TIP3    H224294   6.038   5.145  13.626  0.3210  0.2378  0.1434
  935TIP3   OH224295   5.670   4.427   1.426 -0.2070 -0.0697 -0.2071
  935TIP3    H124296   5.747   4.392   1.383 -0.8976  0.7890 -2.2586
  935TIP3    H224297   5.697   4.514   1.456  0.2048 -0.5798  0.9796
  936TIP3   OH224298   0.139   5.645   2.726  0.2709  0.0875 -0.3909
  936TIP3    H124299   0.078   5.624   2.655 -0.5659 -0.0617  0.3527
  936TIP3    H224300   0.203   5.574   2.725 -0.3284 -0.4635 -0.3480
  937TIP3   OH224301   4.212   4.669   2.822 -0.1365 -0.0598  0.6116
  937TIP3    H124302   4.173   4.584   2.803  0.5976 -0.1772 -0.4065
  937TIP3    H224303   4.137   4.729   2.828 -1.1040 -1.2996  4.9347
  938TIP3   OH224304   5.629   5.951   4.779  0.3689  0.1024 -0.5218
  938TIP3    H124305   5.708   5.987   4.820  0.8897  1.0684 -2.2782
  938TIP3    H224306   5.636   5.975   4.687 -1.8477 -0.0520 -0.7924
  939TIP3   OH224307   1.553   6.537  11.750 -0.2691 -0.0190  0.3763
  939TIP3    H124308   1.488   6.522  11.682 -0.0418 -0.7539  0.3134
  939TIP3    H224309   1.512   6.506  11.831 -0.4883  0.7312  0.5651
  940TIP3   OH224310   0.104   1.317   4.474  0.6456 -0.4493  0.4836
  940TIP3    H124311   0.042   1.273   4.415  0.4350  0.7161 -0.1962
  940TIP3    H224312   0.048   1.358   4.540  0.4774  1.9996 -1.0507
  941TIP3   OH224313   0.664   3.981   4.776 -0.2517 -0.3469  0.1653
  941TIP3    H124314   0.637   4.063   4.736  1.8360  0.2633 -0.1429
  941TIP3    H224315   0.627   3.913   4.720  1.8089  0.4757 -2.4065
  942TIP3   OH224316   5.114   2.423   1.499  0.0969  0.5140  0.2510
  942TIP3    H124317   5.068   2.428   1.583 -1.5159 -2.6940 -0.3057
  942TIP3    H224318   5.076   2.493   1.447  0.5185  2.0136  1.8382
  943TIP3   OH224319   5.853   2.926  16.853  0.3471 -0.0672  0.7517
  943TIP3    H124320   5.947   2.929  16.872  0.4260  1.7855  0.2566
  943TIP3    H224321   5.832   3.015  16.825 -1.2116 -0.8806 -0.8332
  944TIP3   OH224322   2.390   5.229  16.628 -0.1036 -0.4267  0.5092
  944TIP3    H124323   2.418   5.157  16.685 -0.3948 -0.4579  0.6136
  944TIP3    H224324   2.430   5.307  16.667  0.4103 -0.5619  0.2587
  945TIP3   OH224325   0.327   6.265  15.415 -0.6517  0.2586  0.0802
  945TIP3    H124326   0.352   6.330  15.350 -0.2701  0.4335  0.4019
  945TIP3    H224327   0.368   6.184  15.385 -3.6857 -0.6800 -2.1121
  946TIP3   OH224328   4.273   6.598  16.861 -0.2898  0.3007 -0.5520
  946TIP3    H124329   4.368   6.606  16.850  0.0214 -1.7589  0.0738
  946TIP3    H224330   4.236   6.656  16.796  1.3930  1.7702 -0.2719
  947TIP3   OH224331   6.073   3.409   3.817  0.1310 -0.0163 -0.3802
  947TIP3    H124332   5.997   3.395   3.761  0.2393 -0.9669 -0.3027
  947TIP3    H224333   6.046   3.377   3.903  0.0666  1.1596  0.0527
  948TIP3   OH224334   1.318   0.217   5.675  0.8769 -0.7217  0.0206
  948TIP3    H124335   1.412   0.217   5.663  0.7979 -1.8014 -0.7076
  948TIP3    H224336   1.298   0.131   5.712 -0.1676 -1.9598 -3.0868
  949TIP3   OH224337   6.148   0.296  17.075  0.3320 -0.9172 -0.5076
  949TIP3    H124338   6.168   0.390  17.082 -1.6062 -0.5300  0.6909
  949TIP3    H224339   6.226   0.253  17.110  0.4603  0.3448  0.8670
  950TIP3   OH224340   3.958   0.012  15.616 -0.3891 -0.0125  0.8297
  950TIP3    H124341   3.927   0.096  15.581  2.2321  0.7944  0.2107
  950TIP3    H224342   3.959  -0.047  15.541 -1.2916 -0.3221  1.0534
  951TIP3   OH224343   1.384   3.147  10.928  0.2836  0.1702 -0.0643
  951TIP3    H124344   1.447   3.193  10.872  0.6151 -1.2730 -0.9233
  951TIP3    H224345   1.354   3.074  10.875 -0.5800 -0.3523  1.1005
  952TIP3   OH224346   1.971   5.946   3.575 -0.0616 -0.5717  0.1912
  952TIP3    H124347   1.948   6.013   3.510 -0.9723 -0.8086  0.2544
  952TIP3    H224348   2.061   5.966   3.599 -0.1760  0.3681 -0.1155
  953TIP3   OH224349   6.049   1.655   3.033 -0.3642 -0.3200 -0.4442
  953TIP3    H124350   6.116   1.656   3.101 -0.6580  0.0625 -0.1573
  953TIP3    H224351   6.092   1.694   2.956 -0.0515 -0.7000 -0.4653
  954TIP3   OH224352   1.091   6.193   4.574 -0.0260 -0.2848  0.4679
  954TIP3    H124353   1.016   6.173   4.630  0.2651  1.3249  1.4999
  954TIP3    H224354   1.143   6.255   4.625  2.1068 -1.4679 -0.1665
  955TIP3   OH224355   1.608   1.132   4.021 -0.6593 -0.0489 -0.1848
  955TIP3    H124356   1.619   1.220   3.985 -1.6154 -0.4532 -1.5069
  955TIP3    H224357   1.513   1.120   4.027 -0.6032  0.0698  2.7327
  956TIP3   OH224358   2.660   4.667   2.939  0.0633  0.0136  0.6408
  956TIP3    H124359   2.630   4.582   2.971  0.8020 -0.2672  0.5869
  956TIP3    H224360   2.673   4.655   2.845 -0.6504  0.4300  0.4766
  957TIP3   OH224361   0.354   5.119  15.960 -0.0831 -0.2514  0.3744
  957TIP3    H124362   0.387   5.040  16.002  0.1307 -0.9836 -1.1002
  957TIP3    H224363   0.426   5.147  15.903 -0.6301  0.2827 -0.0655
  958TIP3   OH224364   2.277   6.495  15.860  0.3453  0.3096  0.4032
  958TIP3    H124365   2.207   6.493  15.795  0.4886  0.5370  0.2437
  958TIP3    H224366   2.352   6.534  15.814  0.4851  0.3488  0.6640
  959TIP3   OH224367   0.894   1.648   5.378  0.1995 -0.1209 -0.6897
  959TIP3    H124368   0.927   1.591   5.308  1.3823  0.2434 -0.4552
  959TIP3    H224369   0.940   1.731   5.365 -0.5653  0.3873 -0.2698
  960TIP3   OH224370   3.454   0.939   6.359  0.3223  0.0994 -0.3000
  960TIP3    H124371   3.428   0.849   6.378 -1.1821  0.4757 -0.4536
  960TIP3    H224372   3.484   0.937   6.268  0.1475 -0.2103 -0.3517
  961TIP3   OH224373   2.736   0.648   5.085 -0.3911 -0.8316  0.2794
  961TIP3    H124374   2.670   0.696   5.034 -1.6386 -2.2968  0.4544
  961TIP3    H224375   2.688   0.614   5.160  0.5620 -1.9857  0.3898
  962TIP3   OH224376   2.561   5.791   3.811 -0.1191  0.0949 -0.4404
  962TIP3    H124377   2.619   5.723   3.844 -1.0114 -0.6675 -0.4104
  962TIP3    H224378   2.605   5.873   3.833  0.7358 -0.4600 -0.0505
  963TIP3   OH224379   1.239   1.849  11.228  0.0985 -0.0042  0.4838
  963TIP3    H124380   1.272   1.765  11.259 -0.3061 -0.7190 -0.9269
  963TIP3    H224381   1.285   1.864  11.145 -0.4215  0.7727  0.3267
  964TIP3   OH224382   3.598   0.054   4.653  0.4410 -0.0022 -0.1185
  964TIP3    H124383   3.692   0.050   4.634  0.8073  2.1897  0.8701
  964TIP3    H224384   3.594   0.075   4.746 -0.9753  1.3789 -0.4541
  965TIP3   OH224385   2.218   3.372   3.667 -0.1518  0.1978 -0.5746
  965TIP3    H124386   2.273   3.412   3.600 -0.4615 -1.1134 -1.6577
  965TIP3    H224387   2.269   3.379   3.747  1.3054 -0.3253 -1.4067
  966TIP3   OH224388   4.022   5.025  13.056  0.4243  0.1504 -0.0618
  966TIP3    H124389   4.066   5.057  12.977 -0.5529  0.4516 -0.4960
  966TIP3    H224390   4.016   4.931  13.044  0.5156  0.1659 -0.2290
  967TIP3   OH224391   1.885   2.113  15.848 -0.4960 -0.6783 -0.4955
  967TIP3    H124392   1.881   2.131  15.755 -0.7823  0.5896 -0.2615
  967TIP3    H224393   1.797   2.085  15.872 -1.3688  2.1153 -0.0629
  968TIP3   OH224394   6.322   3.197   4.533  0.3796 -0.0139 -0.0601
  968TIP3    H124395   6.340   3.214   4.626 -0.2086  0.0483  0.0447
  968TIP3    H224396   6.249   3.255   4.512  0.4583 -0.0887 -0.5437
  969TIP3   OH224397   0.182   1.367   0.550  0.4526  0.2540  0.6701
  969TIP3    H124398   0.165   1.334   0.462  2.2773  1.2675 -0.1146
  969TIP3    H224399   0.266   1.412   0.543  0.7919  0.1047  3.0079
  970TIP3   OH224400   6.629   5.617   2.958  1.0127  0.4522 -0.1442
  970TIP3    H124401   6.629   5.600   2.863  0.0281  1.6536 -0.3761
  970TIP3    H224402   6.539   5.640   2.979  0.9412 -0.9891  1.3406
  971TIP3   OH224403   4.859   4.258  14.750 -0.5335  0.0516  0.5378
  971TIP3    H124404   4.859   4.228  14.841  2.0909 -0.7991  0.3289
  971TIP3    H224405   4.942   4.304  14.740 -0.9875  0.5228 -1.3226
  972TIP3   OH224406   6.467   0.432  13.712  0.3316  0.3148 -0.2418
  972TIP3    H124407   6.491   0.457  13.623  0.9267  0.2829 -0.0980
  972TIP3    H224408   6.428   0.345  13.703  0.6604  0.1848 -0.4426
  973TIP3   OH224409   1.349   3.976   1.076 -0.1026 -0.0362  0.1075
  973TIP3    H124410   1.272   4.032   1.079 -0.1165 -0.0927  1.7138
  973TIP3    H224411   1.322   3.900   1.024 -0.9685  0.1825  0.2279
  974TIP3   OH224412   3.270   1.413  13.398  0.2194 -0.4955 -0.2363
  974TIP3    H124413   3.334   1.401  13.329  2.0537  0.8471  1.1202
  974TIP3    H224414   3.232   1.499  13.381 -1.3671 -1.3269 -1.0927
  975TIP3   OH224415   4.046   5.943   1.096 -0.1681 -0.3471  0.1141
  975TIP3    H124416   4.025   6.036   1.088 -0.4738 -0.2863  1.4045
  975TIP3    H224417   3.965   5.898   1.074  0.3254 -0.3909 -1.8057
  976TIP3   OH224418   4.740   6.026  13.861  0.3905 -0.7674 -0.7418
  976TIP3    H124419   4.834   6.038  13.855  0.2737  0.3881 -0.4316
  976TIP3    H224420   4.708   6.040  13.771  0.3959 -0.0541 -0.6325
  977TIP3   OH224421   1.870   3.718  15.997 -0.1579  0.0161  0.2986
  977TIP3    H124422   1.869   3.725  15.901 -1.9306 -1.1790  0.1860
  977TIP3    H224423   1.785   3.751  16.025  0.1039 -0.2131  1.4130
  978TIP3   OH224424   5.136   4.063  11.621  0.3407  0.8780 -0.1963
  978TIP3    H124425   5.156   3.974  11.595 -0.5136  0.5618  0.1945
  978TIP3    H224426   5.070   4.093  11.559  0.8219  1.3486 -0.4991
  979TIP3   OH224427   1.246   5.207  10.223  0.4616  0.0851 -1.0349
  979TIP3    H124428   1.290   5.268  10.283 -0.7214  1.0788 -1.1314
  979TIP3    H224429   1.304   5.131  10.220  0.5624 -0.0336  1.4168
  980TIP3   OH224430   5.854   4.812  11.523  0.1433  0.1972 -0.0057
  980TIP3    H124431   5.801   4.734  11.506  0.8398 -0.3044  0.0672
  980TIP3    H224432   5.944   4.782  11.511  0.6016  0.2727  2.6705
  981TIP3   OH224433   6.341   1.121   0.768  0.2053  0.0760  0.3918
  981TIP3    H124434   6.259   1.131   0.817 -0.2595 -1.0229 -0.1288
  981TIP3    H224435   6.367   1.210   0.747 -2.1113  0.4307 -1.4844
  982TIP3   OH224436   4.562   3.571  14.583 -0.0407 -0.5131 -0.0474
  982TIP3    H124437   4.591   3.630  14.513 -0.4856  1.9452  1.7065
  982TIP3    H224438   4.473   3.547  14.560  0.0416 -0.2593 -0.6417
  983TIP3   OH224439   3.408   4.674  13.102  0.4081 -0.0328 -0.5527
  983TIP3    H124440   3.356   4.595  13.086  1.6037 -0.9064 -0.2795
  983TIP3    H224441   3.396   4.692  13.195 -1.2053  1.1320 -0.9391
  984TIP3   OH224442   4.394   3.664   0.170 -0.2574 -0.5500 -0.8091
  984TIP3    H124443   4.477   3.690   0.129 -0.9651 -0.3184 -2.1454
  984TIP3    H224444   4.385   3.724   0.244  0.9217 -0.8006 -0.4385
  985TIP3   OH224445   3.851   4.694  16.478  0.1403  0.3324 -0.0631
  985TIP3    H124446   3.795   4.770  16.465 -2.4687 -1.0232  2.0866
  985TIP3    H224447   3.879   4.701  16.569  5.0254  1.7388 -1.3719
  986TIP3   OH224448   3.515   1.053   4.012  0.2631  0.3285  0.1233
  986TIP3    H124449   3.585   1.113   4.040  1.1851 -1.4519  1.9006
  986TIP3    H224450   3.562   0.982   3.967 -0.5831 -0.0831 -0.1169
  987TIP3   OH224451   1.971   2.918  10.875 -0.0609 -0.0705 -0.2930
  987TIP3    H124452   1.883   2.956  10.872  0.9248  2.3571 -1.1182
  987TIP3    H224453   1.973   2.868  10.957 -1.6953  1.1665  0.5667
  988TIP3   OH224454   0.020   4.875  11.522 -0.2353 -0.3967 -0.0211
  988TIP3    H124455  -0.026   4.820  11.586  0.3745  1.8281  2.4868
  988TIP3    H224456   0.106   4.834  11.514 -0.2914 -0.6676  0.6558
  989TIP3   OH224457   4.577   1.816  15.790  0.0218  0.9730 -0.2530
  989TIP3    H124458   4.530   1.898  15.773 -0.4847  0.8923  0.7106
  989TIP3    H224459   4.518   1.748  15.758  0.0515  0.9368 -0.2304
  990TIP3   OH224460   4.366   3.905   5.831  0.3909  0.5461  0.0071
  990TIP3    H124461   4.442   3.911   5.773  0.0567 -0.5763 -0.5872
  990TIP3    H224462   4.401   3.875   5.914  0.7339  1.0891  0.0627
  991TIP3   OH224463   2.285   3.772  14.992  0.6458 -0.1246 -0.0552
  991TIP3    H124464   2.267   3.782  15.086  1.3185 -0.2149  0.0882
  991TIP3    H224465   2.243   3.688  14.969 -1.0493  0.7371 -0.2488
  992TIP3   OH224466   1.383   3.176  13.662 -0.3517  0.3245 -0.8208
  992TIP3    H124467   1.320   3.215  13.601 -0.9400  0.8459  0.0947
  992TIP3    H224468   1.382   3.083  13.642 -1.8042  0.2544 -0.4882
  993TIP3   OH224469   3.425   2.427  13.038 -0.3575  0.0575  0.4387
  993TIP3    H124470   3.361   2.486  12.996 -1.2939 -1.5686 -0.5148
  993TIP3    H224471   3.485   2.486  13.084 -1.0563  1.7687 -0.7351
  994TIP3   OH224472   0.186   2.146   5.862  0.4743  0.1382  0.2347
  994TIP3    H124473   0.238   2.214   5.819  0.4291  1.6438  2.3902
  994TIP3    H224474   0.135   2.105   5.792  0.8569  2.0303 -1.1987
  995TIP3   OH224475   4.709   6.604   4.164  0.2353 -0.4103  0.2792
  995TIP3    H124476   4.629   6.647   4.132  0.0374 -0.4856  0.6704
  995TIP3    H224477   4.775   6.673   4.164  1.2197 -1.1248 -3.6492
  996TIP3   OH224478   2.826   0.289  14.634 -0.5201 -0.4688 -0.1776
  996TIP3    H124479   2.882   0.233  14.579 -0.2145  1.2360 -1.7099
  996TIP3    H224480   2.841   0.258  14.723  0.6838 -1.9058 -0.8314
  997TIP3   OH224481   3.318   1.869   3.879 -0.0331 -0.1346  0.5607
  997TIP3    H124482   3.294   1.959   3.860 -0.4430 -0.4164 -0.2662
  997TIP3    H224483   3.235   1.823   3.891  0.1770 -0.3638  1.2080
  998TIP3   OH224484   5.510   2.180   4.992 -0.0496  0.2050 -0.2500
  998TIP3    H124485   5.571   2.245   5.026 -1.8597  0.8188  2.0834
  998TIP3    H224486   5.531   2.100   5.040  0.2728 -0.1780 -1.0061
  999TIP3   OH224487   6.691   1.949   3.806  0.4154  0.6350 -0.2564
  999TIP3    H124488   6.774   1.969   3.763  1.0660 -0.0503  0.6410
  999TIP3    H224489   6.713   1.884   3.873 -1.0707 -0.7456 -1.0048
 1000TIP3   OH224490   6.396   1.887  12.175  0.0798  0.0079 -0.0781
 1000TIP3    H124491   6.348   1.968  12.193 -0.0421  0.4134 -2.0529
 1000TIP3    H224492   6.466   1.886  12.241  0.3605  1.9514 -0.2750
 1001TIP3   OH224493   4.662   2.759  16.283  0.0674 -0.2406  0.1931
 1001TIP3    H124494   4.705   2.772  16.199 -0.0055 -2.8897 -0.3520
 1001TIP3    H224495   4.672   2.842  16.329  1.3947  0.7977 -1.8416
 1002TIP3   OH224496   1.636   3.146  14.657 -0.5233  0.3273 -0.6461
 1002TIP3    H124497   1.547   3.115  14.669 -1.0189  2.0052  0.3570
 1002TIP3    H224498   1.626   3.235  14.623  0.7835  0.1769 -1.4751
 1003TIP3   OH224499   0.558   0.261  15.152  0.4406 -0.5579  0.0400
 1003TIP3    H124500   0.560   0.165  15.151  0.6533 -0.5518 -0.1269
 1003TIP3    H224501   0.647   0.287  15.177  0.3586 -0.4057  0.1719
 1004TIP3   OH224502   0.604   6.695   0.349 -0.2366 -0.0116 -0.1272
 1004TIP3    H124503   0.620   6.602   0.365  2.6147  0.3229 -0.6128
 1004TIP3    H224504   0.625   6.708   0.257 -1.3350  1.0034 -0.2544
 1005TIP3   OH224505   3.584   5.611  16.306  0.2482 -0.1271  0.1086
 1005TIP3    H124506   3.535   5.692  16.320  0.5420  0.2218 -0.7997
 1005TIP3    H224507   3.618   5.589  16.393 -0.6068  0.2085  0.5416
 1006TIP3   OH224508   4.745   4.140   3.860  0.2277 -0.5375  0.3098
 1006TIP3    H124509   4.789   4.133   3.944  1.1321 -1.3306 -0.2124
 1006TIP3    H224510   4.653   4.121   3.878  0.2535  0.1789  1.2516
 1007TIP3   OH224511   5.813   6.518   5.529  0.4424 -0.0056  0.2915
 1007TIP3    H124512   5.872   6.445   5.510  2.0223  1.0111  1.1205
 1007TIP3    H224513   5.758   6.486   5.600 -1.5511 -1.7279 -1.8700
 1008TIP3   OH224514   3.521   6.157  10.942  0.4408 -0.0609 -0.3372
 1008TIP3    H124515   3.562   6.071  10.953 -0.5137 -0.3745  0.9304
 1008TIP3    H224516   3.459   6.145  10.870  0.3480 -0.4249 -0.1972
 1009TIP3   OH224517   1.786   0.535  16.855 -0.5536  0.0008  0.3123
 1009TIP3    H124518   1.844   0.536  16.931  0.6228 -0.3455 -0.5488
 1009TIP3    H224519   1.824   0.598  16.794 -0.7273 -0.6758 -0.5214
 1010TIP3   OH224520   5.637   1.982  15.161  0.2172  0.2558  0.1315
 1010TIP3    H124521   5.642   2.077  15.175  2.0312  0.2430 -0.2228
 1010TIP3    H224522   5.662   1.970  15.070 -1.5614 -0.4668 -0.2944
 1011TIP3   OH224523   5.190   5.510  14.609 -0.1576 -0.0281  0.6575
 1011TIP3    H124524   5.245   5.437  14.582  0.0877 -0.0282  1.1425
 1011TIP3    H224525   5.101   5.484  14.585 -0.0434 -0.3826  0.6219
 1012TIP3   OH224526   0.752   3.324  12.866 -0.4610 -0.3084  0.0974
 1012TIP3    H124527   0.823   3.342  12.927  0.2821  2.5069 -1.4229
 1012TIP3    H224528   0.680   3.381  12.894 -0.5962  0.0043 -0.8503
 1013TIP3   OH224529   5.256   6.024  11.987  0.0810 -0.3823 -0.2457
 1013TIP3    H124530   5.264   5.954  11.921  2.1582  1.2231 -1.8335
 1013TIP3    H224531   5.182   6.076  11.957 -1.6354 -1.9558  1.0798
 1014TIP3   OH224532   5.106   0.106   1.279 -0.0537  0.1752  0.6114
 1014TIP3    H124533   5.162   0.174   1.243 -0.1854 -0.0892 -0.0990
 1014TIP3    H224534   5.108   0.036   1.214 -0.3822 -0.2622  1.0626
 1015TIP3   OH224535   4.313   3.632  16.187  0.2325  0.8354  0.4478
 1015TIP3    H124536   4.363   3.570  16.134 -2.1479  0.5080 -1.6207
 1015TIP3    H224537   4.330   3.717  16.146  0.6007  1.0169  0.9696
 1016TIP3   OH224538   6.393   5.471   2.147  0.0489 -0.4475  0.6868
 1016TIP3    H124539   6.454   5.545   2.141 -0.8333  0.4156  1.9398
 1016TIP3    H224540   6.308   5.511   2.165 -0.5164 -1.7561  1.0558
 1017TIP3   OH224541   1.630   3.900   5.838 -0.2008 -0.8096  0.0787
 1017TIP3    H124542   1.620   3.994   5.822 -0.5226 -0.3556  2.6278
 1017TIP3    H224543   1.723   3.890   5.860 -0.4794 -0.8193  1.2879
 1018TIP3   OH224544   3.281   0.764  14.443 -0.1659  0.2402 -0.2303
 1018TIP3    H124545   3.284   0.858  14.425 -1.1100  0.0230 -1.6754
 1018TIP3    H224546   3.187   0.744  14.447  0.0221 -0.7936 -0.7967
 1019TIP3   OH224547   5.266   0.156   3.962  0.7284  0.2378  0.1650
 1019TIP3    H124548   5.192   0.112   4.005  0.4122 -0.4248 -0.9891
 1019TIP3    H224549   5.238   0.247   3.953 -0.6596 -0.3110 -1.6499
 1020TIP3   OH224550   1.634   1.526   0.545 -0.2246  0.2938 -0.2744
 1020TIP3    H124551   1.664   1.442   0.580 -1.6940  0.5033  1.6492
 1020TIP3    H224552   1.590   1.504   0.464  1.2212 -0.5186 -0.8663
 1021TIP3   OH224553   0.218   1.179   2.517 -0.1438 -0.3670  0.3692
 1021TIP3    H124554   0.192   1.089   2.497 -2.3870  0.0514  1.1145
 1021TIP3    H224555   0.291   1.197   2.458 -1.1629 -1.8952 -1.4511
 1022TIP3   OH224556   0.861   5.628  16.623  0.1828 -0.2724  0.0009
 1022TIP3    H124557   0.835   5.596  16.710  2.1533 -0.2472  0.6505
 1022TIP3    H224558   0.957   5.624  16.624  0.2328 -1.6668 -2.7368
 1023TIP3   OH224559   5.236   0.771   1.910 -0.9531 -0.0382 -0.1257
 1023TIP3    H124560   5.239   0.865   1.893  2.0085 -0.0373 -0.0670
 1023TIP3    H224561   5.256   0.730   1.826  0.0160 -0.5250  0.3333
 1024TIP3   OH224562   0.754   4.515  11.683 -0.7231 -0.0929  0.0123
 1024TIP3    H124563   0.839   4.557  11.698 -0.3087 -0.7551 -0.3827
 1024TIP3    H224564   0.775   4.421  11.680 -1.7536 -0.4100  1.7732
 1025TIP3   OH224565   4.698   3.921  16.926 -0.0027 -0.0650  0.0153
 1025TIP3    H124566   4.636   3.933  16.854  0.5320  1.4113 -0.2241
 1025TIP3    H224567   4.779   3.961  16.895  0.3438  0.2534  1.2765
 1026TIP3   OH224568   6.834   1.933  10.601  0.1991  0.3746  0.5958
 1026TIP3    H124569   6.781   1.890  10.668  1.3088  0.1107  1.3263
 1026TIP3    H224570   6.923   1.903  10.618  0.5257  0.3898 -0.9356
 1027TIP3   OH224571   4.625   0.134  15.323  0.4329  0.1735  0.0354
 1027TIP3    H124572   4.635   0.195  15.251  1.6671 -0.6916 -0.5666
 1027TIP3    H224573   4.686   0.164  15.390  3.6209 -2.1676 -1.5733
 1028TIP3   OH224574   3.239   4.995  15.837 -0.3986 -0.0164  0.2456
 1028TIP3    H124575   3.234   4.949  15.753  0.5490  2.1866 -1.1212
 1028TIP3    H224576   3.151   5.031  15.851 -0.9717 -1.6284  1.0115
 1029TIP3   OH224577   2.614   5.469   3.225  0.4957 -0.0955 -0.6099
 1029TIP3    H124578   2.549   5.404   3.250  2.1941 -1.3469  0.7983
 1029TIP3    H224579   2.689   5.418   3.194  2.0675  1.0979  0.9822
 1030TIP3   OH224580   0.247   3.077  17.083 -0.2266  0.0452  0.4077
 1030TIP3    H124581   0.297   3.024  17.146  1.2746 -0.6757 -1.3159
 1030TIP3    H224582   0.176   3.018  17.055 -0.2723 -0.0032  0.6165
 1031TIP3   OH224583   1.573   0.956   1.815  0.1357 -0.0646  0.0853
 1031TIP3    H124584   1.607   1.026   1.870  1.5072 -0.4042 -0.2645
 1031TIP3    H224585   1.602   0.980   1.726 -0.5806 -0.3666 -0.2336
 1032TIP3   OH224586   2.563   6.729   1.119  0.3582 -0.0974 -0.4614
 1032TIP3    H124587   2.610   6.802   1.080 -0.4762  0.3724 -0.5999
 1032TIP3    H224588   2.486   6.716   1.063  0.5174 -1.1234 -0.4783
 1033TIP3   OH224589   3.822   4.187   0.729  0.3081 -0.2577 -0.0321
 1033TIP3    H124590   3.815   4.283   0.724  2.0041 -0.0492  0.6474
 1033TIP3    H224591   3.873   4.163   0.652  0.5141 -0.5201  0.1811
 1034TIP3   OH224592   1.786   3.575  11.696  0.0929 -0.0087 -0.0809
 1034TIP3    H124593   1.854   3.526  11.649  0.9928  1.3231 -0.2223
 1034TIP3    H224594   1.773   3.653  11.643 -1.7955 -0.3707 -0.2122
 1035TIP3   OH224595   5.479   0.143   1.749  0.4640  0.2344 -0.6849
 1035TIP3    H124596   5.531   0.174   1.675  0.3727  1.8513 -0.1181
 1035TIP3    H224597   5.439   0.222   1.785  0.1450 -0.5700  0.8271
 1036TIP3   OH224598   4.228   1.880   3.717  0.2827  0.3632  0.1469
 1036TIP3    H124599   4.158   1.939   3.689 -0.1130 -0.1086  0.1354
 1036TIP3    H224600   4.308   1.933   3.710  0.4403 -0.0988 -3.2052
 1037TIP3   OH224601   0.824   3.286  16.703  0.3234  0.0877  0.0291
 1037TIP3    H124602   0.789   3.328  16.624 -2.9500  2.1277  2.2788
 1037TIP3    H224603   0.894   3.344  16.732 -0.5295  1.0395  0.2254
 1038TIP3   OH224604   5.728   5.081   5.197 -0.5259 -0.1851 -0.4019
 1038TIP3    H124605   5.700   5.014   5.259  0.3620 -0.3520 -0.1724
 1038TIP3    H224606   5.746   5.158   5.252  1.0479 -0.5732 -0.3223
 1039TIP3   OH224607   1.380   1.792  16.860 -0.1859  0.0637 -0.0392
 1039TIP3    H124608   1.436   1.749  16.795 -2.2000 -0.4684 -1.5008
 1039TIP3    H224609   1.358   1.876  16.822  1.0834  1.0919  1.3771
 1040TIP3   OH224610   4.162   5.089   1.947 -0.0011  0.4155  0.2831
 1040TIP3    H124611   4.246   5.043   1.946  1.4970  2.8765  1.9807
 1040TIP3    H224612   4.143   5.106   1.855  1.4149 -0.1089 -0.1352
 1041TIP3   OH224613   1.148   3.119   2.008 -0.1311  0.0877  0.0775
 1041TIP3    H124614   1.077   3.062   1.978  0.4169  0.4454 -2.0319
 1041TIP3    H224615   1.104   3.190   2.053 -0.9056 -1.2378  1.5031
 1042TIP3   OH224616   3.846   1.497   2.118 -0.6269  0.2841 -0.1965
 1042TIP3    H124617   3.927   1.465   2.078 -0.7981  0.6309 -0.8385
 1042TIP3    H224618   3.797   1.418   2.141 -0.2030  0.0754 -0.0022
 1043TIP3   OH224619   2.314   0.466  14.014 -0.4028  0.2497  0.5172
 1043TIP3    H124620   2.316   0.392  14.075 -1.1901 -0.4972 -0.3128
 1043TIP3    H224621   2.252   0.438  13.946 -0.2460  1.4331 -0.1340
 1044TIP3   OH224622   3.292   3.513   4.652  0.3721  0.0074  0.5688
 1044TIP3    H124623   3.251   3.597   4.635  1.5290  0.5802  0.5160
 1044TIP3    H224624   3.247   3.479   4.729 -0.4967  0.3902  0.2421
 1045TIP3   OH224625   6.571   0.729   2.437  0.5530 -0.3230 -0.8580
 1045TIP3    H124626   6.494   0.774   2.402 -0.9171 -2.5393 -0.6540
 1045TIP3    H224627   6.616   0.695   2.360  1.8253  1.5989 -1.0345
 1046TIP3   OH224628   3.889   1.824   5.652  0.1157 -0.5205  0.3267
 1046TIP3    H124629   3.852   1.912   5.654  1.8183  0.2916 -1.0877
 1046TIP3    H224630   3.813   1.767   5.643 -0.9348  0.9196 -0.4316
 1047TIP3   OH224631   0.640   4.601  11.272  0.5352 -0.1821  0.1563
 1047TIP3    H124632   0.638   4.508  11.294  3.8386 -0.6658 -1.1035
 1047TIP3    H224633   0.618   4.604  11.179  2.8383 -0.0704 -0.4454
 1048TIP3   OH224634   3.464   2.459   5.078 -0.0003  0.6383 -0.0738
 1048TIP3    H124635   3.423   2.461   4.991 -1.9705  1.3707  0.8105
 1048TIP3    H224636   3.454   2.548   5.111  0.4137  0.2837  1.0431
 1049TIP3   OH224637   1.088   1.727   1.061 -0.7318  0.2706  0.4290
 1049TIP3    H124638   1.099   1.822   1.063 -0.7637  0.2744  1.9560
 1049TIP3    H224639   1.143   1.697   0.989  1.0685  1.2582  1.3368
 1050TIP3   OH224640   3.110   0.583   4.761  0.2408  0.4092 -0.0829
 1050TIP3    H124641   3.169   0.653   4.787  0.5526 -0.4105  1.5520
 1050TIP3    H224642   3.132   0.565   4.669  1.2467  1.3548 -0.0354
 1051TIP3   OH224643   1.355   2.618  16.146  0.4296 -0.7666 -0.6465
 1051TIP3    H124644   1.329   2.690  16.088 -0.9555 -2.3010 -2.0711
 1051TIP3    H224645   1.299   2.627  16.223  2.0249  1.0783  0.3823
 1052TIP3   OH224646   0.235   4.734   5.157  0.4286  0.2114  0.8455
 1052TIP3    H124647   0.241   4.787   5.237  0.3397 -0.5437  1.3706
 1052TIP3    H224648   0.241   4.796   5.086 -3.0463  1.4203  1.3860
 1053TIP3   OH224649   2.208   0.418  16.180 -0.2601 -0.0507  0.2644
 1053TIP3    H124650   2.206   0.419  16.276  0.0728 -2.9736  0.3987
 1053TIP3    H224651   2.300   0.431  16.158 -0.3574  0.7648  0.3170
 1054TIP3   OH224652   6.680   6.023  14.168 -0.1024  0.2793  1.0314
 1054TIP3    H124653   6.661   5.949  14.111  0.1313  1.0207 -0.0319
 1054TIP3    H224654   6.762   5.998  14.212 -0.3333 -0.3347  1.1251
 1055TIP3   OH224655   1.539   4.976   2.284 -0.4747  0.7209  0.2084
 1055TIP3    H124656   1.461   4.966   2.229 -0.4386  0.2206  0.2444
 1055TIP3    H224657   1.513   4.941   2.369  0.3094 -1.1192 -0.2504
 1056TIP3   OH224658   2.007   0.996   4.929 -0.4878 -0.3105 -0.7948
 1056TIP3    H124659   2.055   1.074   4.904 -1.0088  0.3809  0.2914
 1056TIP3    H224660   2.056   0.924   4.890  1.4967  0.3449  0.3427
 1057TIP3   OH224661   4.300   6.046  12.061  0.3029  0.2995  0.1466
 1057TIP3    H124662   4.301   6.032  11.967 -1.6620 -1.3896  0.3015
 1057TIP3    H224663   4.345   6.129  12.074  1.8399 -0.0918 -2.1307
 1058TIP3   OH224664   3.804   5.890   1.946  0.4906  1.0667  0.3462
 1058TIP3    H124665   3.804   5.985   1.960 -3.4124  1.2650  0.0352
 1058TIP3    H224666   3.801   5.852   2.033  1.0558  1.2372  0.4449
 1059TIP3   OH224667   0.812   3.742  11.057 -0.9922 -0.6271 -0.8002
 1059TIP3    H124668   0.779   3.717  10.971 -0.2319 -1.8998 -0.7388
 1059TIP3    H224669   0.899   3.777  11.040 -1.2013 -0.0128 -0.6376
 1060TIP3   OH224670   4.831   1.364  12.606  0.5421 -0.1174  0.2254
 1060TIP3    H124671   4.806   1.385  12.516  1.2142 -0.0713  0.0450
 1060TIP3    H224672   4.926   1.356  12.604  0.7282  1.3564  1.2259
 1061TIP3   OH224673   0.184   5.265  16.124  0.0073  0.0392 -0.0866
 1061TIP3    H124674   0.208   5.187  16.074  0.6989  0.4788 -0.4626
 1061TIP3    H224675   0.268   5.310  16.139 -0.2174  0.0684  1.2134
 1062TIP3   OH224676   2.579   3.599   0.271  0.3243  0.7820  0.3525
 1062TIP3    H124677   2.636   3.610   0.348 -0.8072  1.3249  1.1454
 1062TIP3    H224678   2.637   3.616   0.196  1.2264  1.2538  1.1244
 1063TIP3   OH224679   4.121   3.724   4.364  0.8322  0.7485  0.0300
 1063TIP3    H124680   4.030   3.712   4.391  0.2962 -0.0935 -1.9201
 1063TIP3    H224681   4.115   3.749   4.272  2.5815 -0.0841 -0.3490
 1064TIP3   OH224682   1.729   5.253   2.191  0.0743  0.5583  0.2928
 1064TIP3    H124683   1.747   5.340   2.228 -0.6839  0.3785  1.0945
 1064TIP3    H224684   1.755   5.192   2.259  0.6205  0.1370 -0.2756
 1065TIP3   OH224685   1.163   6.525   6.363  0.0593  0.5058  0.8654
 1065TIP3    H124686   1.156   6.436   6.329  0.7534  0.0566  1.8351
 1065TIP3    H224687   1.146   6.515   6.457  2.4056  0.9990  1.4049
 1066TIP3   OH224688   2.075   3.700   4.153 -0.0709 -0.3026  0.6163
 1066TIP3    H124689   2.023   3.634   4.108  1.1867 -1.2729  0.5237
 1066TIP3    H224690   2.047   3.695   4.244 -0.0539 -0.8918  0.5904
 1067TIP3   OH224691   1.045   3.042  13.396  1.0979  0.3833 -0.1883
 1067TIP3    H124692   1.021   2.991  13.473  1.1829  0.6206 -0.0049
 1067TIP3    H224693   0.964   3.049  13.345  1.0824  0.0834 -0.2030
 1068TIP3   OH224694   3.545   6.469   5.305  0.0683 -0.1024  0.9339
 1068TIP3    H124695   3.491   6.492   5.230 -1.1550 -0.6101  1.6426
 1068TIP3    H224696   3.579   6.553   5.336  0.1839  0.1607  0.1352
 1069TIP3   OH224697   2.118   2.239  13.590 -0.2961  0.4064 -0.1611
 1069TIP3    H124698   2.022   2.240  13.599 -0.1336  1.3309  2.1398
 1069TIP3    H224699   2.142   2.148  13.608 -0.6366  0.5393  1.0530
 1070TIP3   OH224700   6.514   1.384   0.716  0.1512  0.5438  0.6997
 1070TIP3    H124701   6.430   1.429   0.707 -1.9912 -2.6327  2.5396
 1070TIP3    H224702   6.560   1.432   0.784 -0.1095  2.3114 -0.3043
 1071TIP3   OH224703   2.642   5.912  12.173  0.0337 -0.5887  0.1527
 1071TIP3    H124704   2.655   5.867  12.256 -1.0545  0.4003  0.8925
 1071TIP3    H224705   2.551   5.893  12.149  0.5026 -1.3583 -1.1402
 1072TIP3   OH224706   3.837   4.615   5.770 -0.9673  0.4877 -0.3926
 1072TIP3    H124707   3.911   4.675   5.780 -1.0514  0.7528 -1.2679
 1072TIP3    H224708   3.773   4.645   5.834 -0.2615  0.1558  0.4862
 1073TIP3   OH224709   6.082   6.055  13.924 -0.6218 -0.1189 -0.2096
 1073TIP3    H124710   5.995   6.075  13.890 -0.6769 -1.3316 -0.8384
 1073TIP3    H224711   6.072   6.058  14.019 -1.8257 -1.9296 -0.2220
 1074TIP3   OH224712   1.908   6.456   3.131 -0.5274  0.2734 -0.0382
 1074TIP3    H124713   1.891   6.390   3.198  2.2857 -0.1400  0.3756
 1074TIP3    H224714   1.883   6.413   3.049  0.2228 -0.9333  0.3329
 1075TIP3   OH224715   0.218   0.595  14.078 -0.9269  0.2361  0.3168
 1075TIP3    H124716   0.255   0.683  14.073 -1.3517  0.5073  1.6606
 1075TIP3    H224717   0.123   0.608  14.075 -0.9798 -0.3363 -1.4580
 1076TIP3   OH224718   6.605   5.619   5.059  0.1307 -0.6679 -0.2540
 1076TIP3    H124719   6.522   5.626   5.011 -1.1696 -1.6970  1.7143
 1076TIP3    H224720   6.585   5.653   5.146  1.5383 -1.7816  0.5313
 1077TIP3   OH224721   5.892   1.936  14.081 -0.0084  0.0150  0.3595
 1077TIP3    H124722   5.974   1.919  14.130  0.2387 -1.8453 -0.5947
 1077TIP3    H224723   5.862   1.849  14.055 -3.1574  0.4867  1.9680
 1078TIP3   OH224724   4.653   5.360  16.050  0.1006 -0.2611  0.5663
 1078TIP3    H124725   4.699   5.327  16.127  1.7671  0.8665  0.1138
 1078TIP3    H224726   4.717   5.356  15.980 -1.7429 -2.3813 -1.1222
 1079TIP3   OH224727   6.119   5.740   1.434  0.3203  0.1605  0.3267
 1079TIP3    H124728   6.095   5.766   1.523 -0.7599  1.9683 -0.4200
 1079TIP3    H224729   6.122   5.823   1.385 -1.1214 -0.9275 -1.7603
 1080TIP3   OH224730   4.027   6.490   4.920 -0.1264 -0.1583  0.4449
 1080TIP3    H124731   4.078   6.431   4.864 -1.1380  1.0941 -1.9506
 1080TIP3    H224732   4.080   6.500   4.999  1.3721 -2.0652 -0.2428
 1081TIP3   OH224733   6.735   1.149  14.154  0.0088 -0.6520 -0.2827
 1081TIP3    H124734   6.641   1.161  14.170  0.2414 -0.0046  0.7067
 1081TIP3    H224735   6.770   1.238  14.150  0.8707 -0.8919  1.2640
 1082TIP3   OH224736   4.501   6.026  12.419  0.4197  0.6288 -0.4329
 1082TIP3    H124737   4.496   6.122  12.426  2.5135  0.7673 -0.3397
 1082TIP3    H224738   4.428   6.003  12.360 -1.8060  1.9510  1.6219
 1083TIP3   OH224739   3.386   2.468   0.185  0.0816  0.0137 -0.3165
 1083TIP3    H124740   3.457   2.526   0.157  0.4411  0.8674  2.1542
 1083TIP3    H224741   3.307   2.511   0.152  0.4672  0.9994 -0.0024
 1084TIP3   OH224742   0.397   3.407   0.728 -0.4363 -0.0407 -0.5963
 1084TIP3    H124743   0.394   3.501   0.715  0.8310  0.0804 -0.1501
 1084TIP3    H224744   0.308   3.384   0.757 -0.4275  1.2097  0.5195
 1085TIP3   OH224745   6.382   3.829   2.983 -0.0858  0.4139 -0.1051
 1085TIP3    H124746   6.293   3.830   2.948 -0.1046  0.1491 -0.0630
 1085TIP3    H224747   6.377   3.769   3.057 -0.1364  1.2295  0.5762
 1086TIP3   OH224748   5.911   5.105   2.129  0.0272  0.1348  0.1139
 1086TIP3    H124749   5.903   5.131   2.038 -1.3818  0.4252  0.2985
 1086TIP3    H224750   5.964   5.025   2.127 -1.9295 -1.2187 -1.2145
 1087TIP3   OH224751   2.650   6.564  15.353 -0.2354 -0.7899  0.3905
 1087TIP3    H124752   2.619   6.483  15.395 -1.4748 -1.0789 -0.9901
 1087TIP3    H224753   2.745   6.564  15.369 -0.5299 -1.2331  2.5172
 1088TIP3   OH224754   1.359   4.211  16.683 -0.2300 -0.0251 -0.3514
 1088TIP3    H124755   1.283   4.249  16.639 -0.9667 -0.0960  0.8080
 1088TIP3    H224756   1.434   4.236  16.628 -0.8102  2.0915 -0.2881
 1089TIP3   OH224757   4.513   0.276   4.472 -0.5938 -0.0093 -0.4807
 1089TIP3    H124758   4.471   0.235   4.396 -2.7950  1.2354 -0.0437
 1089TIP3    H224759   4.525   0.205   4.534 -0.2923 -0.7472 -1.3610
 1090TIP3   OH224760   3.024   1.090  16.661 -0.3997  0.7092  0.4915
 1090TIP3    H124761   3.056   1.067  16.573 -1.2172  1.7455 -0.0932
 1090TIP3    H224762   2.944   1.038  16.671 -1.6593  2.3905 -0.3999
 1091TIP3   OH224763   1.068   6.524  15.433 -0.0077 -0.6479 -0.3092
 1091TIP3    H124764   1.065   6.561  15.521 -0.6322 -1.3226 -0.0370
 1091TIP3    H224765   1.142   6.568  15.391  2.2023 -2.4064  1.4980
 1092TIP3   OH224766   0.502   2.793  16.835  0.2265 -0.1887 -0.2775
 1092TIP3    H124767   0.523   2.790  16.742 -2.5515 -0.2698 -0.9979
 1092TIP3    H224768   0.527   2.881  16.862  3.5819 -0.9863 -0.3134
 1093TIP3   OH224769   2.250   1.432  17.022  0.9122  0.1953  0.1090
 1093TIP3    H124770   2.188   1.503  17.007  2.2752  1.0995 -1.6976
 1093TIP3    H224771   2.336   1.473  17.015  1.7536 -1.2881  1.0323
 1094TIP3   OH224772   1.739   5.587   3.875  0.5635  0.5436 -0.0236
 1094TIP3    H124773   1.803   5.519   3.895  0.1034 -0.5720 -2.0593
 1094TIP3    H224774   1.669   5.574   3.939  1.2488  0.2124  0.6808
 1095TIP3   OH224775   0.349   2.442  10.926 -0.4653 -0.5144  0.5426
 1095TIP3    H124776   0.354   2.455  11.021  0.3968 -0.0655  0.4381
 1095TIP3    H224777   0.417   2.377  10.907  1.2342  1.3566 -0.1078
 1096TIP3   OH224778   6.095   2.105   2.750  0.6199 -0.3039  0.5585
 1096TIP3    H124779   6.062   2.118   2.661 -1.1915 -0.4410  1.1762
 1096TIP3    H224780   6.173   2.051   2.739 -1.2585 -2.9523 -0.7660
 1097TIP3   OH224781   4.581   2.405  12.956  0.1147 -0.4514 -0.5999
 1097TIP3    H124782   4.600   2.464  13.028  1.4717 -1.8957  0.2886
 1097TIP3    H224783   4.512   2.448  12.906 -0.5163  0.7904  1.2855
 1098TIP3   OH224784   6.282   6.686   5.363  0.0295 -0.5457 -0.4602
 1098TIP3    H124785   6.208   6.737   5.329 -0.2632 -1.1922 -0.8153
 1098TIP3    H224786   6.254   6.660   5.451  0.1974 -0.0654 -0.2609
 1099TIP3   OH224787   0.872   0.965   6.078 -0.4006  0.1145  0.2902
 1099TIP3    H124788   0.889   0.883   6.124  0.5179  0.0816 -0.0738
 1099TIP3    H224789   0.781   0.985   6.096 -0.6703 -1.0513  0.2909
 1100TIP3   OH224790   3.089   1.187  12.383  0.2444 -0.4194 -0.4667
 1100TIP3    H124791   3.111   1.093  12.386  0.9749 -0.3923 -2.6221
 1100TIP3    H224792   3.002   1.193  12.421 -0.1077 -2.1074 -0.9115
 1101TIP3   OH224793   1.485   1.260  11.961 -0.0054  0.2119 -0.1454
 1101TIP3    H124794   1.472   1.354  11.950 -0.2933  0.0979 -0.8128
 1101TIP3    H224795   1.580   1.248  11.953  0.1678  0.5855  1.1218
 1102TIP3   OH224796   6.743   0.198   2.185 -0.2455 -0.4606  0.6124
 1102TIP3    H124797   6.690   0.277   2.189  0.8617  0.2842  1.4313
 1102TIP3    H224798   6.689   0.130   2.224 -0.4976  0.3495  1.7164
 1103TIP3   OH224799   5.323   6.292   2.789  0.4767 -0.4580 -0.7451
 1103TIP3    H124800   5.242   6.287   2.840  1.1329  0.1532  0.4068
 1103TIP3    H224801   5.355   6.381   2.805 -0.0145  0.2927 -3.4098
 1104TIP3   OH224802   5.518   2.189   3.124 -0.6122  0.1149 -0.1698
 1104TIP3    H124803   5.543   2.261   3.066 -0.0757 -0.3408 -0.5185
 1104TIP3    H224804   5.570   2.115   3.094 -2.2288 -0.8344 -0.7713
 1105TIP3   OH224805   0.647   3.876   2.898  0.2216 -0.4154  0.4674
 1105TIP3    H124806   0.609   3.892   2.812 -0.7867  0.9035  1.1228
 1105TIP3    H224807   0.665   3.782   2.899  3.5255 -0.0023 -2.4490
 1106TIP3   OH224808   2.846   0.872  14.177 -0.1573  0.4217  0.0884
 1106TIP3    H124809   2.802   0.812  14.117 -2.5446  1.7273  0.3732
 1106TIP3    H224810   2.806   0.853  14.262  0.4539  1.1019  0.5419
 1107TIP3   OH224811   2.446   0.583   4.628 -0.1853 -0.4803  0.1867
 1107TIP3    H124812   2.431   0.560   4.536 -2.1459 -0.0229  0.3444
 1107TIP3    H224813   2.472   0.675   4.626 -1.4079 -0.1149  0.1303
 1108TIP3   OH224814   4.885   5.927  11.345  0.1302 -0.1413 -0.2067
 1108TIP3    H124815   4.846   5.978  11.274  0.6593  1.5279  0.6530
 1108TIP3    H224816   4.970   5.901  11.312  0.0658 -0.0287 -0.4633
 1109TIP3   OH224817   6.266   4.275  11.611  0.1053  0.0711 -0.1777
 1109TIP3    H124818   6.357   4.298  11.629 -0.0117  1.6773 -1.4357
 1109TIP3    H224819   6.255   4.289  11.517 -1.3529 -0.4466 -0.1205
 1110TIP3   OH224820   4.302   5.482  11.001 -0.5888  0.0187 -0.9700
 1110TIP3    H124821   4.275   5.459  11.090  0.4770 -0.0268 -0.6534
 1110TIP3    H224822   4.289   5.402  10.951  1.0603 -0.6809 -0.3338
 1111TIP3   OH224823   5.628   0.035  14.248 -0.1161  0.1021 -0.6027
 1111TIP3    H124824   5.592   0.037  14.159 -2.1976  1.1375  0.1928
 1111TIP3    H224825   5.553   0.050  14.304  1.4993  2.0161  1.2341
 1112TIP3   OH224826   0.302   2.271  16.848 -0.2814 -0.1489 -0.4466
 1112TIP3    H124827   0.232   2.313  16.898 -0.3009 -0.9974  0.2574
 1112TIP3    H224828   0.291   2.304  16.759 -1.9628 -0.7571 -0.4979
 1113TIP3   OH224829   4.996   3.319   0.149  0.4389 -0.9114 -0.0370
 1113TIP3    H124830   5.003   3.318   0.053  0.7236 -1.1905 -0.0169
 1113TIP3    H224831   5.072   3.268   0.178  0.6351 -0.3983  0.3520
 1114TIP3   OH224832   6.503   0.234   3.119 -0.0755  0.5789 -0.0289
 1114TIP3    H124833   6.532   0.277   3.200  0.4690 -1.2509  0.8085
 1114TIP3    H224834   6.408   0.242   3.120  0.0436  2.5752 -0.4184
 1115TIP3   OH224835   6.435   2.218   5.484  0.2262  0.8832  0.0230
 1115TIP3    H124836   6.425   2.125   5.501  1.4618  0.6523 -0.4188
 1115TIP3    H224837   6.347   2.254   5.493  0.0507  0.0502  2.3978
 1116TIP3   OH224838   0.894   3.624  14.472 -0.0182  0.2804  0.2618
 1116TIP3    H124839   0.907   3.644  14.565 -1.8986  3.3140  0.0036
 1116TIP3    H224840   0.956   3.680  14.426 -1.1497  1.0730 -0.3497
 1117TIP3   OH224841   5.572   3.209   4.686 -0.3471  0.2561 -0.0520
 1117TIP3    H124842   5.601   3.122   4.659 -1.2288  0.0407 -0.3605
 1117TIP3    H224843   5.639   3.269   4.652 -0.9196 -0.0999 -1.9487
 1118TIP3   OH224844   4.068   0.155  13.083 -0.3109 -0.9131  0.1997
 1118TIP3    H124845   4.027   0.155  13.169 -0.4068  0.1542  0.1720
 1118TIP3    H224846   4.104   0.067  13.073  0.8315 -0.6832  1.8742
 1119TIP3   OH224847   5.348   0.109   2.377 -0.0218 -0.3802 -0.1442
 1119TIP3    H124848   5.367   0.054   2.453 -2.3089 -1.8242 -0.5215
 1119TIP3    H224849   5.427   0.103   2.323  1.7143  0.7777  2.0698
 1120TIP3   OH224850   4.576   5.757   4.157 -0.3710  0.0179 -0.0719
 1120TIP3    H124851   4.554   5.665   4.147  2.0240 -0.8421  1.5890
 1120TIP3    H224852   4.524   5.786   4.232  0.6391 -0.7267  0.9595
 1121TIP3   OH224853   3.180   6.456  12.729  0.2552  0.1066  0.0734
 1121TIP3    H124854   3.255   6.509  12.704  0.9388 -1.3033 -0.9827
 1121TIP3    H224855   3.156   6.487  12.817  0.4696  2.2827 -0.5830
 1122TIP3   OH224856   1.980   0.877  15.379 -0.1697 -0.0630 -0.1062
 1122TIP3    H124857   1.993   0.893  15.285 -2.2679 -0.3439 -0.4961
 1122TIP3    H224858   2.069   0.868  15.414  0.6955  0.8015 -1.9186
 1123TIP3   OH224859   0.013   3.502   1.352  0.2077  0.3921  0.1802
 1123TIP3    H124860  -0.003   3.479   1.443 -1.6439 -0.2446 -0.2540
 1123TIP3    H224861   0.064   3.428   1.318  0.3521  0.3239  0.5372
 1124TIP3   OH224862   3.209   1.631  15.614 -0.6271 -0.4545 -0.2313
 1124TIP3    H124863   3.260   1.708  15.590  1.6036 -1.7964 -0.1492
 1124TIP3    H224864   3.185   1.646  15.706  2.1989 -0.9531  0.7094
 1125TIP3   OH224865   0.901   2.091   2.688  0.0235  0.2921 -0.5863
 1125TIP3    H124866   0.894   2.147   2.611  0.7415 -0.0476 -0.9024
 1125TIP3    H224867   0.964   2.135   2.744 -0.2584  0.3750 -0.3332
 1126TIP3   OH224868   5.764   1.923   0.803 -0.4268  0.2351 -0.1179
 1126TIP3    H124869   5.812   1.855   0.849  1.5776  2.4050  1.2118
 1126TIP3    H224870   5.780   1.906   0.710 -0.2257 -1.2444  0.1695
 1127TIP3   OH224871   1.657   3.816  14.206 -0.2733 -0.2269 -0.1217
 1127TIP3    H124872   1.607   3.737  14.225 -0.3658 -0.0461  0.4116
 1127TIP3    H224873   1.639   3.874  14.281 -0.5264  0.4479 -0.6912
 1128TIP3   OH224874   3.538   1.401   1.865  0.1608 -0.0063 -0.2032
 1128TIP3    H124875   3.569   1.320   1.824  0.3171  0.1719 -0.4441
 1128TIP3    H224876   3.466   1.374   1.921  0.3206 -0.3351 -0.1559
 1129TIP3   OH224877   1.226   5.989  16.406 -0.3825  0.5799  0.1258
 1129TIP3    H124878   1.135   5.960  16.397  0.2233 -1.3940 -0.0766
 1129TIP3    H224879   1.247   6.028  16.321 -0.9231  0.7151  0.0529
 1130TIP3   OH224880   5.705   5.938   2.295 -0.2791 -0.4368 -0.9087
 1130TIP3    H124881   5.651   6.016   2.279  1.7656  1.7760  2.0857
 1130TIP3    H224882   5.774   5.944   2.229  0.3374  0.8419 -0.1951
 1131TIP3   OH224883   5.168   6.736  15.301  0.2471  0.0535  0.4721
 1131TIP3    H124884   5.203   6.647  15.301  1.5213  0.4688 -1.9734
 1131TIP3    H224885   5.239   6.790  15.266 -1.7994  1.4237 -1.8918
 1132TIP3   OH224886   1.409   3.954   3.252  0.0589  0.2991  0.5434
 1132TIP3    H124887   1.439   3.911   3.172  1.1862  0.0183  1.1016
 1132TIP3    H224888   1.442   4.044   3.244  0.6520  0.1167  0.9497
 1133TIP3   OH224889   4.394   2.692   2.280  0.0316  0.3270 -0.2321
 1133TIP3    H124890   4.389   2.784   2.306  2.0836  0.4835 -0.2218
 1133TIP3    H224891   4.462   2.655   2.336 -0.7895 -1.2199 -0.2166
 1134TIP3   OH224892   2.244   3.312   1.748  0.5181  0.1475  0.6394
 1134TIP3    H124893   2.158   3.331   1.785  0.6664  0.1425  0.9828
 1134TIP3    H224894   2.285   3.399   1.738  0.4415  0.1575  0.3941
 1135TIP3   OH224895   6.629   6.162  17.025 -0.1927 -0.0213 -0.3586
 1135TIP3    H124896   6.674   6.211  17.095 -2.9021  2.0373  0.1075
 1135TIP3    H224897   6.676   6.079  17.021  3.1851  1.6182  0.4918
 1136TIP3   OH224898   6.362   5.881  16.116 -0.5193 -0.3152 -0.5379
 1136TIP3    H124899   6.360   5.786  16.104  0.3835 -0.6439  1.4133
 1136TIP3    H224900   6.426   5.913  16.053  0.6026 -1.2693  0.0861
 1137TIP3   OH224901   3.906   0.636  11.972 -0.0083 -0.0172  0.3971
 1137TIP3    H124902   3.938   0.547  11.957  2.2380  0.7911 -0.0775
 1137TIP3    H224903   3.905   0.645  12.067 -1.4266 -0.9129  0.4859
 1138TIP3   OH224904   5.442   4.472  17.022  0.6889 -0.0875 -0.0259
 1138TIP3    H124905   5.508   4.498  17.087  0.2492  1.6728 -0.2379
 1138TIP3    H224906   5.414   4.554  16.982 -2.6755 -0.5301  1.0451
 1139TIP3   OH224907   2.061   4.536   4.993 -0.5051 -0.4355 -0.5940
 1139TIP3    H124908   2.154   4.543   5.015 -0.7467  0.1760  0.3182
 1139TIP3    H224909   2.027   4.468   5.051 -0.6620 -0.5132 -0.7758
 1140TIP3   OH224910   3.560   1.773  15.300 -0.2071 -0.2007 -0.0877
 1140TIP3    H124911   3.577   1.808  15.388  1.0154 -1.6503  0.2803
 1140TIP3    H224912   3.586   1.681  15.305 -0.0729 -0.3017 -1.9920
 1141TIP3   OH224913   5.431   0.862  15.380 -0.2562  0.8175 -0.3475
 1141TIP3    H124914   5.347   0.873  15.337  0.2391 -0.0303 -1.6046
 1141TIP3    H224915   5.476   0.945  15.367  0.7878 -0.1135 -3.6415
 1142TIP3   OH224916   3.444   4.767  11.393  0.1467  0.5576 -0.1898
 1142TIP3    H124917   3.514   4.723  11.441 -0.4412 -0.8449 -0.5639
 1142TIP3    H224918   3.369   4.707  11.398 -0.7312  1.5719 -0.6292
 1143TIP3   OH224919   1.759   4.600   5.259 -0.3770  0.4117  0.9962
 1143TIP3    H124920   1.721   4.531   5.204 -1.3772  0.0422  2.1177
 1143TIP3    H224921   1.737   4.681   5.213 -0.2203  0.0643  0.2790
 1144TIP3   OH224922   2.911   1.252  15.503  0.1042  0.1432 -0.0342
 1144TIP3    H124923   2.943   1.165  15.525  0.5910  0.4596  0.5425
 1144TIP3    H224924   2.948   1.309  15.571 -0.5567  0.7304 -0.1579
 1145TIP3   OH224925   0.770   6.542   1.873  0.3648 -0.2080 -0.0808
 1145TIP3    H124926   0.736   6.557   1.785 -1.1644  0.4008  0.5660
 1145TIP3    H224927   0.863   6.524   1.861  0.6307  1.8472 -1.6616
 1146TIP3   OH224928   2.804   5.149  15.304 -1.3506 -0.0525  0.2156
 1146TIP3    H124929   2.801   5.127  15.211 -0.9346  0.6114  0.0314
 1146TIP3    H224930   2.830   5.068  15.347  1.4861  0.3219 -0.5735
 1147TIP3   OH224931   5.583   0.525   1.035  0.2522 -0.4530 -0.5763
 1147TIP3    H124932   5.553   0.521   1.126 -0.3024 -0.0326 -0.7370
 1147TIP3    H224933   5.677   0.511   1.040  0.3157  0.1689  0.1269
 1148TIP3   OH224934   2.263   2.898  14.397 -0.3527 -0.6625 -0.2313
 1148TIP3    H124935   2.176   2.857  14.393 -0.5603 -0.5206  1.9593
 1148TIP3    H224936   2.251   2.974  14.453  1.4341 -1.3567  1.1712
 1149TIP3   OH224937   2.897   1.157   2.424  0.1841 -0.0391 -0.5038
 1149TIP3    H124938   2.902   1.233   2.482 -0.9017 -0.8071  0.6518
 1149TIP3    H224939   2.939   1.186   2.343 -0.3196  1.8453 -0.1467
 1150TIP3   OH224940   0.392   3.742   3.588  0.3730  0.4742 -0.2902
 1150TIP3    H124941   0.352   3.775   3.508  1.8717  1.5563 -0.6386
 1150TIP3    H224942   0.376   3.648   3.587  2.1470  0.0825 -2.9726
 1151TIP3   OH224943   5.490   0.584  16.037  0.0842 -0.2357  0.5917
 1151TIP3    H124944   5.451   0.666  16.005 -0.3161 -1.1721 -1.4702
 1151TIP3    H224945   5.581   0.587  16.006 -0.1921 -0.9713 -0.3270
 1152TIP3   OH224946   4.690   1.141   6.214  0.0632 -0.1681 -0.2612
 1152TIP3    H124947   4.636   1.169   6.288  0.6411 -0.5124  0.3015
 1152TIP3    H224948   4.635   1.080   6.166  0.7632 -2.5528  1.7351
 1153TIP3   OH224949   5.325   2.993  12.942  0.1924  0.0405  0.1463
 1153TIP3    H124950   5.332   3.087  12.955  0.6963 -0.2286  2.1281
 1153TIP3    H224951   5.348   2.955  13.027  3.2906 -1.9805 -1.3943
 1154TIP3   OH224952   2.748   4.677  15.616 -0.0316 -0.5318  0.5297
 1154TIP3    H124953   2.660   4.646  15.638 -0.2711  0.2485  0.7314
 1154TIP3    H224954   2.745   4.771  15.635  0.8738 -0.5137  0.6248
 1155TIP3   OH224955   5.902   5.864  15.872  0.5082 -0.2719  0.0356
 1155TIP3    H124956   5.959   5.874  15.949  0.7123 -0.8375 -0.0378
 1155TIP3    H224957   5.847   5.789  15.894 -0.3474  0.3939  0.1859
 1156TIP3   OH224958   3.244   5.109   2.579 -0.7980  0.0059 -0.2324
 1156TIP3    H124959   3.296   5.172   2.628 -0.2186  0.8221 -1.8036
 1156TIP3    H224960   3.258   5.026   2.624  3.3910 -0.2278 -1.4707
 1157TIP3   OH224961   4.441   2.467  14.213  0.5102  0.1588  0.3495
 1157TIP3    H124962   4.519   2.425  14.249 -1.6765 -2.8845  2.0250
 1157TIP3    H224963   4.410   2.525  14.283  0.2769 -0.0686  0.4365
 1158TIP3   OH224964   6.201   0.082  12.926 -0.7101  0.1834 -0.2996
 1158TIP3    H124965   6.143   0.007  12.908 -1.0967  0.4105 -0.0150
 1158TIP3    H224966   6.152   0.158  12.895  0.4568  0.1789 -2.3722
 1159TIP3   OH224967   0.853   2.326  13.383 -0.6566 -0.3412 -0.4614
 1159TIP3    H124968   0.842   2.384  13.308 -0.6546  0.0579 -0.1612
 1159TIP3    H224969   0.793   2.361  13.449  1.4631  1.1490  0.7868
 1160TIP3   OH224970   2.664   2.136   5.915  0.8474 -0.2975 -0.2264
 1160TIP3    H124971   2.748   2.175   5.891  2.5457 -1.4025  3.2281
 1160TIP3    H224972   2.631   2.193   5.986 -0.0818 -1.2404  0.1223
 1161TIP3   OH224973   2.446   6.816  14.450 -0.2144 -0.2103 -0.4317
 1161TIP3    H124974   2.519   6.795  14.392  0.5891 -2.2230  1.1932
 1161TIP3    H224975   2.474   6.896  14.495  0.7237 -0.5941 -0.3030
 1162TIP3   OH224976   4.601   2.142   3.525 -0.5741 -0.6207  0.0204
 1162TIP3    H124977   4.565   2.155   3.437 -1.8488 -0.7276  0.5017
 1162TIP3    H224978   4.696   2.143   3.513 -0.5370  3.2753 -0.8452
 1163TIP3   OH224979   4.721   3.475  13.738  0.1376  0.0571 -0.0521
 1163TIP3    H124980   4.715   3.412  13.810  0.4847 -0.5215 -0.5236
 1163TIP3    H224981   4.797   3.447  13.688 -0.2663  0.2899 -0.8090
 1164TIP3   OH224982   2.513   1.659   0.786 -0.1113 -1.1002  0.0510
 1164TIP3    H124983   2.580   1.687   0.849  0.7082  0.9294 -1.5804
 1164TIP3    H224984   2.445   1.726   0.794 -0.4024 -1.3240 -0.5840
 1165TIP3   OH224985   1.504   4.545  12.351 -0.0751 -0.2951  0.0802
 1165TIP3    H124986   1.579   4.599  12.325 -0.7780  1.9807  2.3804
 1165TIP3    H224987   1.438   4.564  12.285  0.1635  0.6319  0.0854
 1166TIP3   OH224988   1.739   6.197  10.755 -0.1794  0.8164 -0.1795
 1166TIP3    H124989   1.795   6.134  10.711 -0.6176  0.6497 -0.5114
 1166TIP3    H224990   1.655   6.191  10.709 -1.4221 -1.0541  2.0750
 1167TIP3   OH224991   2.172   1.542   0.465  0.3144  0.3722 -0.3877
 1167TIP3    H124992   2.249   1.597   0.455  1.3927  0.1196  4.1985
 1167TIP3    H224993   2.100   1.603   0.479  1.0214  0.7646  1.9777
 1168TIP3   OH224994   2.239   3.212   6.629  0.0594 -0.1019  0.4498
 1168TIP3    H124995   2.205   3.276   6.566 -0.5364  1.3909  2.2159
 1168TIP3    H224996   2.305   3.163   6.579  0.0204  1.3967 -1.1822
 1169TIP3   OH224997   3.201   1.070   6.632  0.4219 -0.3628 -0.1044
 1169TIP3    H124998   3.253   0.991   6.648  0.9870  0.2910  1.4957
 1169TIP3    H224999   3.110   1.040   6.643  0.6090 -0.8793  0.1032
 1170TIP3   OH225000   2.808   0.532   5.439 -0.1042  0.1785 -0.4382
 1170TIP3    H125001   2.785   0.441   5.416  1.8410 -0.7931  1.1879
 1170TIP3    H225002   2.723   0.575   5.450 -1.1139 -1.7534 -0.1133
 1171TIP3   OH225003   0.435   3.601   3.019  0.0293  0.0282 -0.0995
 1171TIP3    H125004   0.449   3.541   2.946  0.4283 -0.2328  0.1888
 1171TIP3    H225005   0.360   3.654   2.992 -0.4822 -0.7540 -0.2587
 1172TIP3   OH225006   4.957   0.056   3.727  0.2424 -0.0652  0.0464
 1172TIP3    H125007   4.996  -0.021   3.686 -0.4360  0.0192 -0.7983
 1172TIP3    H225008   4.865   0.032   3.738 -0.1372  0.8633 -0.8938
 1173TIP3   OH225009   0.832   3.844   4.156 -0.3190 -0.1181  0.1029
 1173TIP3    H125010   0.773   3.779   4.194 -1.6276  0.7887 -0.2881
 1173TIP3    H225011   0.787   3.874   4.077  1.0649  0.0170 -0.6730
 1174TIP3   OH225012   0.189   1.537  16.218 -0.4457  0.0423 -0.2496
 1174TIP3    H125013   0.275   1.520  16.180 -0.7654  0.7459 -1.3326
 1174TIP3    H225014   0.144   1.589  16.152 -1.1383  1.0439  0.9750
 1175TIP3   OH225015   0.685   2.947  11.236 -0.5307 -0.0135 -0.0506
 1175TIP3    H125016   0.745   2.949  11.162  0.5849 -0.1626  0.8357
 1175TIP3    H225017   0.681   3.038  11.266  1.5881 -0.4220  1.6972
 1176TIP3   OH225018   4.844   6.716  15.597 -0.4104  0.8318 -0.4910
 1176TIP3    H125019   4.890   6.643  15.637 -1.2277  0.4818 -0.1581
 1176TIP3    H225020   4.872   6.716  15.506  0.1939  0.5941 -0.3065
 1177TIP3   OH225021   2.836   2.173  12.434 -0.5071  1.2267 -0.2048
 1177TIP3    H125022   2.854   2.212  12.349 -2.3334 -1.3338 -1.9084
 1177TIP3    H225023   2.742   2.155  12.434 -0.1246 -1.4012  1.1140
 1178TIP3   OH225024   0.806   5.667  14.533 -0.1747  0.0931  0.4857
 1178TIP3    H125025   0.866   5.599  14.501 -0.6595 -0.6539  1.1155
 1178TIP3    H225026   0.721   5.624  14.536 -0.8706  1.2820 -0.8728
 1179TIP3   OH225027   4.937   6.429   3.810 -0.9551  0.4223  0.0838
 1179TIP3    H125028   5.028   6.439   3.841 -1.1552  1.9608  0.2555
 1179TIP3    H225029   4.915   6.339   3.831  0.9233 -0.3621 -1.0056
 1180TIP3   OH225030   3.830   2.630   1.080  0.1568 -0.1424 -0.1252
 1180TIP3    H125031   3.904   2.683   1.052  0.6909 -0.7649  0.1086
 1180TIP3    H225032   3.770   2.694   1.122  1.0787  0.1939  0.7250
 1181TIP3   OH225033   4.077   1.573   5.027  0.2549  0.2543 -0.7209
 1181TIP3    H125034   4.003   1.629   5.051  0.1610 -0.3906  0.6214
 1181TIP3    H225035   4.150   1.634   5.015  0.2795  0.6786  1.2068
 1182TIP3   OH225036   5.840   2.257   1.281 -0.1170 -0.0235  0.2838
 1182TIP3    H125037   5.808   2.221   1.364  0.7591 -1.0661  0.1945
 1182TIP3    H225038   5.765   2.255   1.222 -0.5990  0.2016  0.8793
 1183TIP3   OH225039   3.149   5.454   2.410 -0.1563  0.0019  0.4919
 1183TIP3    H125040   3.216   5.469   2.477 -1.0502  0.5228  1.2920
 1183TIP3    H225041   3.069   5.493   2.447 -0.4606  1.1673 -1.2933
 1184TIP3   OH225042   2.699   4.392   5.081  0.0964 -0.1086 -0.7047
 1184TIP3    H125043   2.691   4.378   5.176  0.8479  1.5909 -0.3557
 1184TIP3    H225044   2.790   4.418   5.068 -0.6917  2.5950 -1.4425
 1185TIP3   OH225045   3.205   3.556   2.387  0.6185  0.3975  0.5603
 1185TIP3    H125046   3.212   3.478   2.443 -0.6409  1.0025  1.6026
 1185TIP3    H225047   3.170   3.522   2.304  2.9994 -0.5902 -0.1361
 1186TIP3   OH225048   2.810   4.760   0.732  0.7178  0.1536 -0.0978
 1186TIP3    H125049   2.888   4.815   0.735  1.9072 -1.0004 -3.9830
 1186TIP3    H225050   2.768   4.782   0.649 -0.0679 -3.0117 -0.6625
 1187TIP3   OH225051   2.630   0.603  14.897 -0.1676  0.2097 -0.0677
 1187TIP3    H125052   2.702   0.627  14.839 -1.1503  0.6094 -1.1707
 1187TIP3    H225053   2.652   0.515  14.928  0.8890  0.4156 -0.2026
 1188TIP3   OH225054   1.720   6.320  11.845 -0.1404 -0.3926  0.3519
 1188TIP3    H125055   1.657   6.249  11.829 -1.1806 -0.0715  2.6279
 1188TIP3    H225056   1.679   6.397  11.806 -0.2061 -0.5512  0.1008
 1189TIP3   OH225057   2.015   2.895  12.687  0.7023  0.0509  0.3867
 1189TIP3    H125058   2.011   2.855  12.600  1.9085  1.3722 -0.3108
 1189TIP3    H225059   1.965   2.977  12.679 -0.3255 -0.4487  1.3354
 1190TIP3   OH225060   5.345   5.053   2.990 -0.0928 -0.4334  0.4355
 1190TIP3    H125061   5.331   5.053   2.896 -1.8102  1.5757  0.6165
 1190TIP3    H225062   5.292   4.981   3.023 -1.1590  0.1469  0.0286
 1191TIP3   OH225063   4.741   2.592  14.908 -0.3951 -0.2990 -0.6530
 1191TIP3    H125064   4.805   2.524  14.928 -0.4564 -0.0522  0.4305
 1191TIP3    H225065   4.779   2.640  14.834  1.2919  0.6466  0.7628
 1192TIP3   OH225066   4.921   3.954   5.448  0.3815  0.2258  0.1765
 1192TIP3    H125067   5.016   3.954   5.439  0.5197 -0.6144  1.3887
 1192TIP3    H225068   4.904   3.897   5.524 -1.0990  0.1356 -0.1944
 1193TIP3   OH225069   6.159   2.174  14.204 -0.6851  0.0672  0.4762
 1193TIP3    H125070   6.103   2.249  14.226  0.3039  1.1114 -0.4237
 1193TIP3    H225071   6.236   2.185  14.260 -0.1762  0.1826 -0.2397
 1194TIP3   OH225072   6.098   5.547  14.058 -0.4280 -0.2600  0.8141
 1194TIP3    H125073   6.024   5.557  13.999  0.7923  1.2070 -0.5291
 1194TIP3    H225074   6.119   5.636  14.086  2.1997 -0.3395 -0.6254
 1195TIP3   OH225075   1.884   5.669   0.193 -0.3381  0.2932  0.1711
 1195TIP3    H125076   1.939   5.747   0.198  1.6250 -1.0073 -0.0068
 1195TIP3    H225077   1.881   5.647   0.099 -0.7605  0.0534  0.2346
 1196TIP3   OH225078   1.805   0.113   1.401 -0.2570 -0.0649  0.3629
 1196TIP3    H125079   1.741   0.052   1.364  0.8258 -2.1826  1.7831
 1196TIP3    H225080   1.884   0.060   1.416  0.0612  1.0926  3.6606
 1197TIP3   OH225081   5.110   3.103  16.777 -0.6869  0.2362 -0.7712
 1197TIP3    H125082   5.060   3.044  16.833  0.5729  1.6694  2.0933
 1197TIP3    H225083   5.138   3.049  16.703 -1.2293 -2.1982  0.7076
 1198TIP3   OH225084   3.551   1.567  14.201  0.1365  0.3563 -0.1505
 1198TIP3    H125085   3.622   1.612  14.154  0.5091 -1.7159 -1.7264
 1198TIP3    H225086   3.594   1.527  14.277  0.6437 -0.6549 -0.9458
 1199TIP3   OH225087   6.446   0.004  13.459 -0.1266  0.1112  0.0307
 1199TIP3    H125088   6.402  -0.073  13.423 -1.6466  1.2167 -0.5560
 1199TIP3    H225089   6.486   0.047  13.383 -1.1753  1.0645 -0.0168
 1200TIP3   OH225090   6.714   3.419   5.392  0.0389  0.1096  0.4793
 1200TIP3    H125091   6.773   3.418   5.467  1.1231 -0.3178 -0.3660
 1200TIP3    H225092   6.750   3.355   5.331 -2.3766 -1.6262  0.7477
 1201TIP3   OH225093   5.735   5.053  13.922  0.2889  0.3632 -0.6019
 1201TIP3    H125094   5.726   4.957  13.919  0.7187  0.2019  1.6382
 1201TIP3    H225095   5.652   5.083  13.958  1.6346  0.4057  2.7586
 1202TIP3   OH225096   4.549   1.609   4.994  0.5782  0.0650  0.2792
 1202TIP3    H125097   4.581   1.546   4.929  0.7664 -0.6130  1.0142
 1202TIP3    H225098   4.592   1.584   5.075  0.8301  1.2991  0.5387
 1203TIP3   OH225099   2.731   1.186  13.670 -0.2893 -0.3566  0.5352
 1203TIP3    H125100   2.816   1.209  13.632 -1.1070  0.4396 -0.8766
 1203TIP3    H225101   2.753   1.131  13.745  1.5312  1.0880  1.1259
 1204TIP3   OH225102   2.145   5.090  13.232  0.6458 -0.2083 -0.2605
 1204TIP3    H125103   2.217   5.063  13.289  0.2391  2.3481  1.6468
 1204TIP3    H225104   2.152   5.185  13.227 -2.4348  0.1448 -0.1440
 1205TIP3   OH225105   2.836   2.647   5.975 -0.4877  0.1340 -0.4135
 1205TIP3    H125106   2.886   2.582   6.026  1.9321  1.3847 -1.0284
 1205TIP3    H225107   2.785   2.695   6.040 -0.6103 -0.9285  0.3046
 1206TIP3   OH225108   1.335   5.986   2.257 -0.0750 -0.3417 -0.2812
 1206TIP3    H125109   1.395   5.912   2.256 -0.4373 -0.6776  1.0432
 1206TIP3    H225110   1.384   6.058   2.218 -0.4597 -1.7709 -3.7621
 1207TIP3   OH225111   1.815   5.202  14.874  0.2262  0.1012  0.3180
 1207TIP3    H125112   1.772   5.254  14.806  2.3478  1.1826 -0.2752
 1207TIP3    H225113   1.802   5.252  14.954 -4.1088 -2.1792  1.3388
 1208TIP3   OH225114   1.882   1.144   1.251 -0.1316  0.0473  0.5669
 1208TIP3    H125115   1.796   1.102   1.242 -0.7627  0.8662  2.3419
 1208TIP3    H225116   1.928   1.121   1.170 -0.7764 -3.2560  0.9800
 1209TIP3   OH225117   5.039   2.047   1.043 -0.0724  0.9841  0.6728
 1209TIP3    H125118   5.075   2.122   0.994  1.6292  0.2849  0.7781
 1209TIP3    H225119   5.093   2.041   1.121  0.7064 -1.1062  0.0549
 1210TIP3   OH225120   4.255   1.836   4.237 -0.1006  0.6716  0.8902
 1210TIP3    H125121   4.217   1.910   4.189 -0.8209  0.8384  1.6793
 1210TIP3    H225122   4.290   1.875   4.317  2.1472  0.5761  0.0088
 1211TIP3   OH225123   3.762   6.317   4.201 -0.0868  0.3524 -0.8369
 1211TIP3    H125124   3.691   6.361   4.153  0.2238  0.6454 -1.0354
 1211TIP3    H225125   3.840   6.368   4.179 -0.3612  2.4020  2.3156
 1212TIP3   OH225126   4.744   4.066  16.273  0.4043  0.0011 -0.0784
 1212TIP3    H125127   4.714   4.004  16.206 -0.7756 -1.5044  1.7547
 1212TIP3    H225128   4.806   4.017  16.326  1.8550  1.3896 -0.3772
 1213TIP3   OH225129   6.429   2.038  12.915 -0.6262 -0.0258 -0.2485
 1213TIP3    H125130   6.383   2.121  12.927  0.7333  0.5839  1.0261
 1213TIP3    H225131   6.438   2.002  13.003  1.9810  0.2742 -0.3230
 1214TIP3   OH225132   5.950   6.249  11.595 -0.4405 -0.0210 -0.0185
 1214TIP3    H125133   5.861   6.248  11.558  0.3040  0.6432 -1.9616
 1214TIP3    H225134   5.960   6.337  11.630 -0.2158  0.2486 -0.7355
 1215TIP3   OH225135   4.672   2.645   3.542 -0.1389 -0.2427 -0.1151
 1215TIP3    H125136   4.764   2.623   3.559 -0.2332 -1.7910 -1.4098
 1215TIP3    H225137   4.664   2.735   3.573  1.5807 -0.3698  0.8505
 1216TIP3   OH225138   4.115   4.642   1.838 -0.3409  0.1189  0.5584
 1216TIP3    H125139   4.205   4.610   1.842 -0.2013  0.4991  0.4940
 1216TIP3    H225140   4.062   4.566   1.860  0.0083 -0.0464  0.8382
 1217TIP3   OH225141   3.826   5.852  14.715 -0.8240 -0.6061  0.5779
 1217TIP3    H125142   3.754   5.863  14.778 -0.7872 -0.1915  0.5517
 1217TIP3    H225143   3.792   5.889  14.634 -0.6743 -0.6482  0.4959
 1218TIP3   OH225144   1.038   6.503  11.697 -0.7330 -0.3201 -0.6550
 1218TIP3    H125145   1.024   6.594  11.723 -2.2351 -0.3618 -1.1959
 1218TIP3    H225146   1.047   6.506  11.602  0.1852 -0.6371 -0.5798
 1219TIP3   OH225147   6.595   3.616   5.929 -0.1711  0.2612  0.6964
 1219TIP3    H125148   6.520   3.560   5.947  0.8590 -0.2634  4.0039
 1219TIP3    H225149   6.576   3.698   5.974  0.1337  1.1411 -0.6976
 1220TIP3   OH225150   3.463   1.149  13.062  0.1694  0.1397 -0.2386
 1220TIP3    H125151   3.498   1.237  13.077  0.3905 -0.2839  2.0181
 1220TIP3    H225152   3.401   1.135  13.133  0.5726 -1.7593 -0.1943
 1221TIP3   OH225153   2.480   3.683   4.852  0.1851 -0.6222 -0.3665
 1221TIP3    H125154   2.571   3.714   4.858 -0.0004  0.0476 -0.8204
 1221TIP3    H225155   2.441   3.706   4.936  0.2286 -0.2059 -0.4580
 1222TIP3   OH225156   2.321   0.390   2.462 -0.3462  0.1570  0.3491
 1222TIP3    H125157   2.249   0.442   2.424  0.6596  0.6504 -0.9531
 1222TIP3    H225158   2.399   0.419   2.415  1.1847  1.4128  3.3643
 1223TIP3   OH225159   5.995   2.184   3.705 -0.1861  0.1505 -0.1795
 1223TIP3    H125160   6.043   2.128   3.765 -2.4843 -3.3516 -1.3200
 1223TIP3    H225161   5.923   2.219   3.757  0.8500  1.5887  0.3519
 1224TIP3   OH225162   4.563   3.032   0.515 -0.0419 -0.9665 -0.0415
 1224TIP3    H125163   4.516   2.951   0.534 -1.5649 -0.0796  0.1561
 1224TIP3    H225164   4.534   3.057   0.427 -0.1869 -0.2537  0.1989
 1225TIP3   OH225165   4.911   0.926  13.121 -0.5745  0.1858 -1.1120
 1225TIP3    H125166   4.865   1.007  13.097 -0.5345 -0.4393 -3.5964
 1225TIP3    H225167   4.851   0.882  13.182 -0.1689  2.4535  1.1065
 1226TIP3   OH225168   4.255   1.558   3.368  0.4144  0.0132 -0.3072
 1226TIP3    H125169   4.337   1.595   3.337 -0.7989  0.0646 -3.8757
 1226TIP3    H225170   4.244   1.477   3.318 -1.9809  0.3337 -0.4392
 1227TIP3   OH225171   4.317   5.754  11.617 -0.5228  0.0224  0.0674
 1227TIP3    H125172   4.370   5.745  11.538  0.0952  1.9772  0.1985
 1227TIP3    H225173   4.287   5.665  11.636  1.1315 -0.8443 -1.0918
 1228TIP3   OH225174   5.472   3.788  12.055  0.0987  0.3987  0.2089
 1228TIP3    H125175   5.411   3.791  12.129 -0.0594  0.6183  0.0697
 1228TIP3    H225176   5.474   3.695  12.030  1.0388  0.1112  1.2217
 1229TIP3   OH225177   3.997   1.783  15.778  0.0748 -0.3237  0.2315
 1229TIP3    H125178   3.967   1.848  15.714  1.4023  0.1144  0.0133
 1229TIP3    H225179   3.918   1.738  15.807 -0.7275  0.5796 -0.5190
 1230TIP3   OH225180   4.522   0.563  11.417  0.3709  0.1310  0.2489
 1230TIP3    H125181   4.531   0.468  11.426 -1.0138 -0.1898 -1.3843
 1230TIP3    H225182   4.577   0.585  11.342 -0.5446  0.3656 -0.3690
 1231TIP3   OH225183   4.955   6.485  11.959  0.3066  0.6134 -0.0628
 1231TIP3    H125184   4.946   6.498  11.865  0.1826  1.7517  0.0915
 1231TIP3    H225185   4.879   6.528  11.997  1.8481  2.8031  0.7323
 1232TIP3   OH225186   5.542   2.196   2.800  0.4588 -0.1710  1.0190
 1232TIP3    H125187   5.446   2.201   2.801  0.4853  0.4378  0.9416
 1232TIP3    H225188   5.561   2.104   2.782 -0.1135 -0.1566  0.2871
 1233TIP3   OH225189   0.535   2.455   2.318  0.1560 -0.0275 -0.9870
 1233TIP3    H125190   0.576   2.384   2.267 -2.6700 -1.6997 -1.1447
 1233TIP3    H225191   0.555   2.434   2.409 -0.5471 -1.0139 -1.0414
 1234TIP3   OH225192   2.939   0.568   1.004  0.4172 -1.0449  0.2239
 1234TIP3    H125193   2.988   0.578   1.086 -0.1726  0.6653  0.4222
 1234TIP3    H225194   3.004   0.586   0.936  0.5917 -1.0466  0.3884
 1235TIP3   OH225195   6.640   0.090   0.693  0.0214 -0.3630 -0.1729
 1235TIP3    H125196   6.664   0.086   0.785 -0.4456  0.0940 -0.0289
 1235TIP3    H225197   6.723   0.079   0.646  0.6111  1.6450  0.3190
 1236TIP3   OH225198   4.874   4.531  14.131 -0.1827  0.0654 -0.5583
 1236TIP3    H125199   4.849   4.607  14.183  1.2639  0.7242 -0.7817
 1236TIP3    H225200   4.807   4.465  14.152 -1.9128  1.6049 -0.9405
 1237TIP3   OH225201   2.871   5.927  16.485  0.5849  0.5317  0.1058
 1237TIP3    H125202   2.938   5.973  16.535  2.2760  0.3730 -1.8781
 1237TIP3    H225203   2.857   5.980  16.407 -0.0638 -0.5043 -0.5210
 1238TIP3   OH225204   3.052   1.201   5.780 -0.0329 -0.0615 -0.0493
 1238TIP3    H125205   2.959   1.222   5.786 -0.0972 -0.1760 -0.6530
 1238TIP3    H225206   3.063   1.162   5.694  0.6316  0.2288 -0.1044
 1239TIP3   OH225207   1.173   2.246   5.091 -0.1351 -0.1163  0.4149
 1239TIP3    H125208   1.189   2.282   5.178 -0.6771  0.2519  0.3672
 1239TIP3    H225209   1.212   2.158   5.094  1.8988  0.7286  0.2783
 1240TIP3   OH225210   3.371   3.738   2.948 -0.4379  0.5469  0.4346
 1240TIP3    H125211   3.284   3.718   2.914  0.1736  2.2246 -2.4453
 1240TIP3    H225212   3.412   3.652   2.960 -1.8084 -0.2135 -0.0658
 1241TIP3   OH225213   5.479   6.426   5.034 -0.0288  0.8622  0.3074
 1241TIP3    H125214   5.444   6.450   5.120  0.0813 -1.5276  1.1034
 1241TIP3    H225215   5.497   6.332   5.041 -0.0140  0.5839 -2.3412
 1242TIP3   OH225216   4.976   0.990   2.979  0.4486  0.7165  0.4972
 1242TIP3    H125217   4.923   0.950   3.047  0.4937  0.1661  0.2110
 1242TIP3    H225218   4.914   1.012   2.909  0.7554 -1.1633 -0.4204
 1243TIP3   OH225219   6.054   5.254  15.428  0.1223 -0.8624 -0.2565
 1243TIP3    H125220   6.054   5.320  15.497  1.9620 -0.7967 -0.2904
 1243TIP3    H225221   5.965   5.218  15.430 -0.3979  0.3964  0.9086
 1244TIP3   OH225222   3.191   4.756  12.825  0.0089  0.4022 -0.5749
 1244TIP3    H125223   3.168   4.849  12.813  0.3820  0.2690 -2.6243
 1244TIP3    H225224   3.237   4.732  12.745  2.4141 -0.8554  1.0556
 1245TIP3   OH225225   6.612   6.477  11.805 -0.4112 -0.0930  0.8504
 1245TIP3    H125226   6.537   6.461  11.748 -0.8726 -0.1667  1.4589
 1245TIP3    H225227   6.621   6.396  11.856  1.0194 -0.6673 -0.2388
 1246TIP3   OH225228   2.172   0.143  12.110 -0.4922  0.6607  0.1513
 1246TIP3    H125229   2.169   0.051  12.087 -1.1302  1.0697 -1.5453
 1246TIP3    H225230   2.253   0.175  12.072 -0.3483  0.8334  0.5975
 1247TIP3   OH225231   5.786   0.627  13.169 -0.6429  0.4137 -0.1985
 1247TIP3    H125232   5.795   0.699  13.232 -0.4111  1.9836 -1.9593
 1247TIP3    H225233   5.874   0.588  13.166 -0.7869 -0.0149  0.8167
 1248TIP3   OH225234   0.004   6.454   1.601 -0.1172  0.3965 -0.2394
 1248TIP3    H125235  -0.043   6.371   1.595 -1.4318  0.9512  1.5212
 1248TIP3    H225236  -0.034   6.507   1.530 -1.8746  0.6571  0.8280
 1249TIP3   OH225237   0.494   5.486   2.030  0.6832  0.5994 -0.8063
 1249TIP3    H125238   0.552   5.557   2.001 -1.1577  1.9779 -1.3102
 1249TIP3    H225239   0.406   5.520   2.016 -0.5009  0.7650  4.7841
 1250TIP3   OH225240   6.010   0.113   4.557  0.5126 -0.6952 -0.5938
 1250TIP3    H125241   6.023   0.190   4.501  1.6957 -1.3369 -1.2422
 1250TIP3    H225242   6.060   0.132   4.636 -1.6852  0.4923  0.5821
 1251TIP3   OH225243   0.456   4.085  13.213 -0.5193  0.4258  1.0460
 1251TIP3    H125244   0.474   4.108  13.122 -0.6987  0.2390  0.9611
 1251TIP3    H225245   0.360   4.089  13.221 -0.6670 -1.3358  0.7221
 1252TIP3   OH225246   3.930   6.224   3.140  0.2799 -0.2310 -0.1689
 1252TIP3    H125247   3.888   6.239   3.055  0.2189  0.5796 -0.0038
 1252TIP3    H225248   3.862   6.248   3.204  0.4319 -0.5374  0.1076
 1253TIP3   OH225249   1.236   1.752  12.747 -0.0288 -0.2860 -0.0708
 1253TIP3    H125250   1.296   1.723  12.815 -0.5218  1.2670  1.0689
 1253TIP3    H225251   1.177   1.677  12.734  0.7342 -0.9841  0.4100
 1254TIP3   OH225252   6.116   2.397   5.767  0.8399 -0.3867 -0.0187
 1254TIP3    H125253   6.123   2.336   5.693 -1.4793  0.0495 -0.6856
 1254TIP3    H225254   6.100   2.482   5.727  0.5755  0.0428  0.9668
 1255TIP3   OH225255   6.413   4.984  16.234 -0.2184  0.3630  0.2210
 1255TIP3    H125256   6.336   4.932  16.255  0.5336 -1.7623 -1.8305
 1255TIP3    H225257   6.471   4.974  16.309 -0.9043 -0.1549  0.6851
 1256TIP3   OH225258   0.911   5.369  16.986 -0.1116 -0.3556 -0.1137
 1256TIP3    H125259   0.828   5.417  16.994 -0.5979 -1.0570 -0.8758
 1256TIP3    H225260   0.957   5.388  17.068 -0.9702  0.1397  0.2707
 1257TIP3   OH225261   5.166   0.468   4.018 -0.0461 -0.1665  0.1091
 1257TIP3    H125262   5.212   0.511   3.946 -0.7790  0.6100  0.0923
 1257TIP3    H225263   5.105   0.534   4.051 -0.4966 -0.8736  0.7336
 1258TIP3   OH225264   2.047   5.918   0.703  0.0930 -0.3385 -0.1694
 1258TIP3    H125265   2.044   5.823   0.715 -0.3264 -0.1818  1.0938
 1258TIP3    H225266   1.958   5.942   0.677 -0.3509 -0.0672  1.5079
 1259TIP3   OH225267   1.307   6.738   5.746  0.0970 -0.2082  0.3619
 1259TIP3    H125268   1.390   6.691   5.739  0.4624  0.4897 -0.2011
 1259TIP3    H225269   1.241   6.673   5.724  0.5925 -0.4705 -0.4210
 1260TIP3   OH225270   2.335   6.708  11.441 -0.1564 -0.2855  0.0049
 1260TIP3    H125271   2.240   6.708  11.426  0.0261 -1.0331 -1.3496
 1260TIP3    H225272   2.369   6.646  11.376  1.4452  1.2682 -0.7128
 1261TIP3   OH225273   0.641   4.561   0.709  0.0625  0.2803  0.3017
 1261TIP3    H125274   0.594   4.591   0.786  0.5824  1.1697  0.2885
 1261TIP3    H225275   0.625   4.628   0.643  1.0259  0.4193  0.1837
 1262TIP3   OH225276   3.880   1.355   0.897 -0.1769  0.4246  0.5435
 1262TIP3    H125277   3.961   1.406   0.890 -0.8586  1.4249 -0.2299
 1262TIP3    H225278   3.817   1.402   0.843 -0.9631 -0.9845  0.1879
 1263TIP3   OH225279   4.554   3.142  15.902  0.5871  0.0895 -0.4670
 1263TIP3    H125280   4.547   3.136  15.807 -0.3359  2.0041 -0.5758
 1263TIP3    H225281   4.642   3.176  15.918  1.1892 -1.3634 -0.5305
 1264TIP3   OH225282   1.832   3.014   3.791 -0.4623  0.5952 -0.2543
 1264TIP3    H125283   1.889   3.053   3.858 -0.8113  0.6156  0.0360
 1264TIP3    H225284   1.777   3.087   3.763  0.3921  0.8512 -1.3395
 1265TIP3   OH225285   4.332   4.396  13.629 -0.2442  0.0370  0.3219
 1265TIP3    H125286   4.356   4.304  13.618 -1.1966 -0.3860  1.4943
 1265TIP3    H225287   4.276   4.396  13.707  0.0491  1.6650  0.5566
 1266TIP3   OH225288   3.302   4.276   0.680 -0.3695  0.2169  0.4804
 1266TIP3    H125289   3.391   4.283   0.712  0.4419  1.8024 -1.8073
 1266TIP3    H225290   3.304   4.203   0.617 -0.7201  0.1450  0.5491
 1267TIP3   OH225291   0.611   6.496  13.937 -0.8045 -0.2213  0.3911
 1267TIP3    H125292   0.618   6.511  14.031 -0.1846 -0.2760  0.3570
 1267TIP3    H225293   0.544   6.558  13.908  0.1953  0.9968  0.6027
 1268TIP3   OH225294   1.032   6.236  12.317  0.1277 -0.1231  0.5807
 1268TIP3    H125295   1.034   6.150  12.275 -0.1359 -0.7226  1.7466
 1268TIP3    H225296   0.978   6.290  12.259 -0.4187 -0.9835  0.2654
 1269TIP3   OH225297   1.462   1.855  14.154  0.2890 -0.0055 -0.5771
 1269TIP3    H125298   1.437   1.770  14.189  2.4107 -0.2271  0.6005
 1269TIP3    H225299   1.447   1.917  14.225 -0.2596  0.4338 -1.0681
 1270TIP3   OH225300   6.435   3.235  11.935 -0.2797  0.4756 -0.4251
 1270TIP3    H125301   6.478   3.315  11.966 -2.6908  1.5479  0.4162
 1270TIP3    H225302   6.452   3.170  12.003  1.2262  0.3922 -0.8421
 1271TIP3   OH225303   4.810   5.535   0.837  0.3212 -1.3167  0.7927
 1271TIP3    H125304   4.902   5.560   0.828  0.1202 -1.1923 -1.7945
 1271TIP3    H225305   4.812   5.439   0.838  0.4618 -1.3180  0.4924
 1272TIP3   OH225306   0.486   0.227  11.866 -0.5138 -0.1121 -0.3204
 1272TIP3    H125307   0.508   0.240  11.958  0.1997  1.4610 -0.6984
 1272TIP3    H225308   0.526   0.142  11.844 -2.0145 -1.2884  1.1873
 1273TIP3   OH225309   1.092   4.906  16.057  0.7866  0.0343 -0.7314
 1273TIP3    H125310   1.147   4.875  15.985  2.4285  0.6867  0.1851
 1273TIP3    H225311   1.149   4.963  16.108 -0.7456  0.7047  0.3202
 1274TIP3   OH225312   5.137   6.327   2.504  0.0099  0.0229  0.3709
 1274TIP3    H125313   5.169   6.300   2.418  0.7178  0.7776  0.3811
 1274TIP3    H225314   5.192   6.279   2.566  1.6956  1.8404  0.3939
 1275TIP3   OH225315   4.944   3.651   5.260  0.0932  0.9644 -0.1300
 1275TIP3    H125316   4.982   3.615   5.340  1.0713  1.8092 -0.1888
 1275TIP3    H225317   4.849   3.646   5.274  0.2441  0.7749  0.9335
 1276TIP3   OH225318   5.669   0.793  15.714  0.0280 -0.2265 -0.3460
 1276TIP3    H125319   5.602   0.728  15.691  0.2165 -0.1929 -1.0071
 1276TIP3    H225320   5.677   0.786  15.810  0.0719 -1.2064 -0.4081
 1277TIP3   OH225321   5.760   1.157   5.057 -0.5506 -0.0255 -0.0986
 1277TIP3    H125322   5.820   1.082   5.056  1.0429  1.2018  0.0987
 1277TIP3    H225323   5.674   1.118   5.045  0.2682 -1.8563 -0.4272
 1278TIP3   OH225324   0.863   2.076  14.486  0.3146 -0.2218  0.1444
 1278TIP3    H125325   0.909   2.122  14.556 -0.2363 -1.0453  1.0607
 1278TIP3    H225326   0.908   2.104  14.406 -0.0158  1.9320  0.6524
 1279TIP3   OH225327   6.296   4.362   4.164  0.1659  0.0654  0.1861
 1279TIP3    H125328   6.324   4.406   4.244 -1.2094 -1.7281  1.7614
 1279TIP3    H225329   6.203   4.346   4.178 -0.7629  1.9807 -2.9601
 1280TIP3   OH225330   2.222   2.754  15.621 -0.3507  0.3091  0.1664
 1280TIP3    H125331   2.134   2.785  15.599 -0.1515  1.6416  1.0931
 1280TIP3    H225332   2.269   2.833  15.647  1.3762 -0.2475 -1.0346
 1281TIP3   OH225333   0.843   5.083  14.884 -0.2812 -0.4035 -0.1876
 1281TIP3    H125334   0.820   5.167  14.924 -0.5665 -1.2214  1.4580
 1281TIP3    H225335   0.869   5.105  14.795 -1.5193  1.2861 -0.1774
 1282TIP3   OH225336   2.398   1.624  16.034  0.2649 -0.1817 -0.0985
 1282TIP3    H125337   2.407   1.554  16.099  0.2986 -0.8922 -0.8454
 1282TIP3    H225338   2.325   1.596  15.979 -0.9283  1.2741  0.6680
 1283TIP3   OH225339   4.264   0.397  14.724 -0.2628 -0.3445  0.1558
 1283TIP3    H125340   4.329   0.327  14.717  0.7712  0.6255 -0.2254
 1283TIP3    H225341   4.184   0.352  14.751  0.7834 -1.4692  1.6129
 1284TIP3   OH225342   4.598   5.881  12.805 -0.3001 -0.0670  0.1586
 1284TIP3    H125343   4.674   5.869  12.749  0.3094 -1.5507  1.2485
 1284TIP3    H225344   4.629   5.862  12.893 -1.5353  0.9965  0.8606
 1285TIP3   OH225345   5.178   6.794   4.325 -0.3440 -0.1808 -0.1172
 1285TIP3    H125346   5.261   6.753   4.348  0.1906 -0.3635 -2.1469
 1285TIP3    H225347   5.113   6.726   4.339 -0.1979 -0.0138  1.5553
 1286TIP3   OH225348   3.759   5.809  12.103 -0.2273 -0.0087  0.3331
 1286TIP3    H125349   3.705   5.734  12.129  0.3965 -0.6500 -0.1937
 1286TIP3    H225350   3.738   5.823  12.011 -0.8093  0.8811  0.5854
 1287TIP3   OH225351   6.224   1.874   2.343  0.1003 -0.1714  0.0492
 1287TIP3    H125352   6.247   1.784   2.319 -3.5765 -0.9174 -1.2839
 1287TIP3    H225353   6.138   1.866   2.384  0.1903  2.6698  0.9551
 1288TIP3   OH225354   3.537   4.209   3.588 -0.6916 -0.2467 -0.4621
 1288TIP3    H125355   3.623   4.251   3.586  0.8748 -2.8269  2.7444
 1288TIP3    H225356   3.476   4.281   3.609  1.3100  1.0513  1.3143
 1289TIP3   OH225357   2.373   0.967   2.340  0.1616  0.4061  0.2543
 1289TIP3    H125358   2.351   0.978   2.433  0.3335  0.6336  0.2694
 1289TIP3    H225359   2.461   1.004   2.332 -0.1563  1.0870 -0.1548
 1290TIP3   OH225360   0.002   2.849   1.004 -0.5524 -0.2655  0.2519
 1290TIP3    H125361   0.026   2.772   0.953 -1.7408  0.5931 -1.6916
 1290TIP3    H225362   0.067   2.916   0.981  0.3143 -0.5383  1.7254
 1291TIP3   OH225363   6.580   4.828  16.992  0.7270  0.5391 -0.5223
 1291TIP3    H125364   6.554   4.759  16.931  1.6446 -0.3691  0.0642
 1291TIP3    H225365   6.674   4.838  16.977  0.7509  1.1035 -0.0301
 1292TIP3   OH225366   3.415   4.541   6.774  0.4032  0.5138 -0.3583
 1292TIP3    H125367   3.473   4.563   6.701  0.2931  0.5408 -0.4393
 1292TIP3    H225368   3.466   4.482   6.828  0.0178 -0.6142 -1.1784
 1293TIP3   OH225369   2.587   2.588  15.999 -0.5998 -0.0220 -0.6185
 1293TIP3    H125370   2.511   2.583  16.057 -0.0207  2.6729  0.5267
 1293TIP3    H225371   2.662   2.586  16.057  0.2824 -2.4891 -1.7342
 1294TIP3   OH225372   4.193   4.362  12.238  0.2929  0.5086  0.1621
 1294TIP3    H125373   4.146   4.282  12.263  1.5778 -0.6310 -0.8939
 1294TIP3    H225374   4.274   4.360  12.290  0.9903  0.3551 -0.8934
 1295TIP3   OH225375   5.025   3.570   2.975 -0.0220 -0.1565 -0.2103
 1295TIP3    H125376   4.959   3.543   2.910 -0.8371 -0.2830  0.6452
 1295TIP3    H225377   5.077   3.637   2.930 -2.2160  1.6990 -0.1854
 1296TIP3   OH225378   2.729   5.635  11.493  0.4301  0.0074 -0.5417
 1296TIP3    H125379   2.803   5.577  11.509  1.0734  0.1211 -2.6917
 1296TIP3    H225380   2.721   5.637  11.397 -1.0905  1.5671 -0.4307
 1297TIP3   OH225381   0.675   2.683  15.701 -0.0682 -0.7027 -0.1092
 1297TIP3    H125382   0.636   2.653  15.619  0.0576  0.2467 -0.5274
 1297TIP3    H225383   0.745   2.743  15.674 -0.0151 -0.3946  0.6834
 1298TIP3   OH225384   4.674   1.952  14.962 -0.1358 -0.0719 -0.3342
 1298TIP3    H125385   4.667   2.035  15.009 -0.5534 -1.0381  1.4182
 1298TIP3    H225386   4.759   1.917  14.987 -1.1193 -1.4652  1.3017
 1299TIP3   OH225387   2.575   3.302  16.069 -0.0718  0.3029  0.2164
 1299TIP3    H125388   2.513   3.354  16.018 -0.4835 -0.8308 -0.4722
 1299TIP3    H225389   2.621   3.248  16.005 -0.2652 -0.8085  0.9761
 1300TIP3   OH225390   2.973   6.767   4.775  0.5287 -0.0290  0.4890
 1300TIP3    H125391   2.900   6.709   4.753  0.6395 -0.0619  0.2165
 1300TIP3    H225392   2.943   6.854   4.748  1.2150 -0.2572 -1.1038
 1301TIP3   OH225393   5.761   6.154   4.213  0.1170  0.2915 -0.2391
 1301TIP3    H125394   5.667   6.146   4.196  0.1485 -0.4577 -0.0780
 1301TIP3    H225395   5.771   6.243   4.248 -0.4751  0.5117 -0.6170
 1302TIP3   OH225396   5.064   6.831   1.515  0.3623  0.1641 -0.1291
 1302TIP3    H125397   5.021   6.748   1.493  1.2483 -0.3570  0.0174
 1302TIP3    H225398   5.086   6.870   1.430 -0.1997  0.3340 -0.2002
 1303TIP3   OH225399   3.184   4.678  15.227  0.0905  0.1096 -0.2968
 1303TIP3    H125400   3.114   4.729  15.267  0.1215 -0.7653  0.9485
 1303TIP3    H225401   3.141   4.597  15.197  0.5284 -0.3771  0.3554
 1304TIP3   OH225402   4.744   6.067  11.171  0.6343 -0.0970 -0.2527
 1304TIP3    H125403   4.702   6.153  11.177  1.2393  0.1236  1.1107
 1304TIP3    H225404   4.803   6.075  11.096  0.8283  0.7545 -0.0245
 1305TIP3   OH225405   2.491   5.907   6.518 -0.0517  0.2137 -0.0679
 1305TIP3    H125406   2.578   5.946   6.527 -0.6979  1.3901  1.4164
 1305TIP3    H225407   2.507   5.820   6.480  1.5495  1.3430 -2.2076
 1306TIP3   OH225408   3.064   4.048   2.308  0.0457 -0.0244 -0.1749
 1306TIP3    H125409   3.024   4.009   2.385  0.6101  1.9618  1.1984
 1306TIP3    H225410   3.027   3.999   2.234 -0.7471 -1.7708  1.3047
 1307TIP3   OH225411   4.769   1.746  11.686  0.0347  0.2521  0.0530
 1307TIP3    H125412   4.855   1.765  11.649  0.3422  1.4673  1.2609
 1307TIP3    H225413   4.781   1.665  11.735  0.6098  0.5747  0.4692
 1308TIP3   OH225414   5.534   4.316   0.517 -0.1701 -0.2386 -0.4365
 1308TIP3    H125415   5.611   4.274   0.556  0.8060  0.1189 -1.8900
 1308TIP3    H225416   5.463   4.298   0.579  0.8434 -1.4855  0.4238
 1309TIP3   OH225417   0.120   2.314  16.561  0.4895  0.0876 -0.1877
 1309TIP3    H125418   0.027   2.337  16.570  0.1993 -1.1202  0.1624
 1309TIP3    H225419   0.168   2.390  16.593 -0.3804  0.6499 -0.1886
 1310TIP3   OH225420   6.626   2.272   1.656  0.4318 -0.2097 -0.0650
 1310TIP3    H125421   6.576   2.353   1.672  0.7709  0.4394 -1.9660
 1310TIP3    H225422   6.625   2.262   1.561  1.7918 -1.5692  0.0235
 1311TIP3   OH225423   6.180   5.941  11.866  0.7420 -0.5492 -0.1167
 1311TIP3    H125424   6.110   5.882  11.894  1.5491 -1.1343  0.7148
 1311TIP3    H225425   6.239   5.887  11.815  2.4191 -0.9817  2.0995
 1312TIP3   OH225426   1.060   3.227  16.263  0.4137  0.3919 -0.1701
 1312TIP3    H125427   1.104   3.300  16.307  0.0092  0.4208  0.1926
 1312TIP3    H225428   1.088   3.149  16.311  0.7887  0.3177 -0.5121
 1313TIP3   OH225429   2.923   5.424   0.900  0.5542 -0.1964  0.6016
 1313TIP3    H125430   2.896   5.516   0.910  0.2652 -0.1061 -0.7531
 1313TIP3    H225431   2.841   5.377   0.886  0.7077 -0.6692  1.2467
 1314TIP3   OH225432   1.902   1.829   0.859  0.9875  0.1919 -0.3540
 1314TIP3    H125433   1.860   1.812   0.775 -0.2088  1.4543 -0.0492
 1314TIP3    H225434   1.842   1.793   0.924  0.8935  1.0123  0.0354
 1315TIP3   OH225435   5.880   0.506  10.370 -0.3701  0.4227  0.3949
 1315TIP3    H125436   5.942   0.435  10.355 -0.6618 -0.2365  2.1178
 1315TIP3    H225437   5.796   0.471  10.340 -0.3078  0.4909  0.1373
 1316TIP3   OH225438   0.963   1.373  12.157  0.2286  0.3267 -0.3765
 1316TIP3    H125439   0.928   1.339  12.239  2.5724 -0.6452  0.2979
 1316TIP3    H225440   0.979   1.466  12.174 -0.3234  0.3783 -0.1194
 1317TIP3   OH225441   1.642   6.071   5.180 -0.7665 -0.3698 -0.1129
 1317TIP3    H125442   1.583   5.998   5.200 -0.7837  0.1201  1.7918
 1317TIP3    H225443   1.725   6.046   5.221 -0.4134  0.1301 -0.5172
 1318TIP3   OH225444   1.458   3.896   1.861 -0.5415  0.7090  0.0602
 1318TIP3    H125445   1.445   3.939   1.776  0.2392  1.5534  0.3460
 1318TIP3    H225446   1.375   3.905   1.906 -1.0970 -0.1098 -0.7600
 1319TIP3   OH225447   6.285   4.381  10.491 -0.1667  0.5921  0.0416
 1319TIP3    H125448   6.322   4.468  10.505  1.2304 -0.0818  0.7183
 1319TIP3    H225449   6.358   4.321  10.506 -0.8441 -0.6643 -1.4578
 1320TIP3   OH225450   4.805   4.327  12.759 -0.1503  0.1241  0.8153
 1320TIP3    H125451   4.842   4.259  12.703 -0.1000  1.5446 -0.9672
 1320TIP3    H225452   4.856   4.322  12.840 -1.4412 -3.2167  1.5755
 1321TIP3   OH225453   1.583   1.560  10.883  0.0965  0.3422  0.3095
 1321TIP3    H125454   1.621   1.618  10.818 -2.7910  1.7679 -0.2892
 1321TIP3    H225455   1.575   1.475  10.839  0.2503  0.6908 -0.3917
 1322TIP3   OH225456   4.875   1.523  14.293 -0.6564  0.2926  0.0994
 1322TIP3    H125457   4.895   1.472  14.372 -2.7382 -0.6421  0.0728
 1322TIP3    H225458   4.798   1.575  14.317  1.2327  3.4046  0.0552
 1323TIP3   OH225459   6.458   6.604   4.153  0.6919  0.2984 -0.3426
 1323TIP3    H125460   6.524   6.538   4.135  0.8867  0.7999 -1.5724
 1323TIP3    H225461   6.474   6.672   4.088  0.0978  1.2679  0.4916
 1324TIP3   OH225462   2.263   3.415   0.594 -0.5920  0.4649 -0.3131
 1324TIP3    H125463   2.178   3.460   0.596 -0.9500 -0.1694  2.1400
 1324TIP3    H225464   2.327   3.486   0.594 -1.1362  0.9691 -0.3375
 1325TIP3   OH225465   2.268   0.734  12.761 -0.1620 -0.5815  0.1902
 1325TIP3    H125466   2.300   0.739  12.851  1.5347 -4.6152  0.0425
 1325TIP3    H225467   2.324   0.669  12.719 -1.4863  0.4224 -3.5728
 1326TIP3   OH225468   1.628   2.966   2.736 -0.2524  0.1171  0.1583
 1326TIP3    H125469   1.589   2.888   2.775 -1.1673 -0.4479 -1.7505
 1326TIP3    H225470   1.705   2.932   2.688 -0.2677  0.4828 -0.1285
 1327TIP3   OH225471   6.694   4.781   4.622 -0.9066  0.2934 -0.3515
 1327TIP3    H125472   6.710   4.757   4.713 -1.1425  1.6974  0.0815
 1327TIP3    H225473   6.674   4.874   4.624 -0.9140  0.3625 -1.8483
 1328TIP3   OH225474   6.800   0.485   2.643  0.2627  0.5155 -0.3913
 1328TIP3    H125475   6.846   0.402   2.629 -0.8182 -0.9157  3.3708
 1328TIP3    H225476   6.712   0.468   2.611  0.1065  0.2457  0.1607
 1329TIP3   OH225477   2.681   0.772   0.594  0.0451  0.1824  0.2734
 1329TIP3    H125478   2.604   0.741   0.546 -0.3751  1.6552 -0.0607
 1329TIP3    H225479   2.755   0.742   0.543 -0.3116 -0.8643  0.3493
 1330TIP3   OH225480   6.786   0.224  12.422  0.2368 -0.1000  0.3200
 1330TIP3    H125481   6.790   0.179  12.506  1.1453 -1.8021 -0.5647
 1330TIP3    H225482   6.708   0.189  12.379  0.1911  0.2077  0.1450
 1331TIP3   OH225483   3.844   6.646   1.710  0.4199  0.3068  0.0196
 1331TIP3    H125484   3.905   6.583   1.750  0.1311 -1.0774 -1.5841
 1331TIP3    H225485   3.877   6.732   1.738  0.9241 -0.5108  2.1638
 1332TIP3   OH225486   3.552   1.493  15.533  1.5737  0.7519  0.5388
 1332TIP3    H125487   3.582   1.516  15.445  2.7760  0.4630  0.8578
 1332TIP3    H225488   3.611   1.424  15.561  0.5057  0.0741  1.1621
 1333TIP3   OH225489   4.642   6.455  12.618 -0.0067 -0.2241 -0.4913
 1333TIP3    H125490   4.733   6.433  12.603  1.1185  3.9218 -1.0446
 1333TIP3    H225491   4.597   6.432  12.536  0.8858 -0.7396 -0.8425
 1334TIP3   OH225492   0.379   5.972   3.227 -0.3368  0.1621 -0.5387
 1334TIP3    H125493   0.296   5.988   3.181 -0.8923  0.8828  0.6626
 1334TIP3    H225494   0.396   6.053   3.275  0.5442 -0.3474  0.0329
 1335TIP3   OH225495   0.419   5.493   4.855 -0.4446  0.9347 -0.1595
 1335TIP3    H125496   0.389   5.583   4.841 -0.1484  0.9143 -0.9915
 1335TIP3    H225497   0.506   5.503   4.893 -1.7180  0.9997  2.9977
 1336TIP3   OH225498   5.412   0.981  12.466 -0.0540  0.0580 -0.1400
 1336TIP3    H125499   5.489   0.972  12.410  0.1859  1.6320 -0.1105
 1336TIP3    H225500   5.440   0.948  12.551 -0.1853 -1.6232 -0.7069
 1337TIP3   OH225501   3.734   4.225  13.374 -0.0463 -0.2072  0.7310
 1337TIP3    H125502   3.703   4.295  13.316 -0.3498  0.3207  1.5159
 1337TIP3    H225503   3.658   4.169  13.388  0.2447 -0.8200 -0.0497
 1338TIP3   OH225504   4.314   1.336  17.056 -0.4969 -0.2192  0.1739
 1338TIP3    H125505   4.299   1.248  17.090  0.6212 -0.9372 -1.0846
 1338TIP3    H225506   4.235   1.357  17.006 -0.6804 -0.5954  0.3099
 1339TIP3   OH225507   4.329   2.065   0.070  0.3062 -0.2329 -0.6369
 1339TIP3    H125508   4.241   2.056   0.033  0.7523  0.3152 -1.8891
 1339TIP3    H225509   4.315   2.109   0.154 -0.5122  1.3888 -1.5678
 1340TIP3   OH225510   5.063   1.533  12.416  0.1858 -0.4318  0.1996
 1340TIP3    H125511   5.064   1.627  12.434  0.1603 -0.6693  1.5420
 1340TIP3    H225512   5.067   1.527  12.321  2.9004  0.8659  0.1565
 1341TIP3   OH225513   0.861   0.702  16.844  0.3554  0.2063 -0.4643
 1341TIP3    H125514   0.941   0.702  16.791  0.9680 -0.7626  0.4218
 1341TIP3    H225515   0.853   0.793  16.875  1.8848  0.0322  0.5436
 1342TIP3   OH225516   2.506   3.333  10.670  0.3069 -0.3119 -0.6379
 1342TIP3    H125517   2.558   3.283  10.734  1.6139 -1.4938 -2.5167
 1342TIP3    H225518   2.496   3.420  10.710 -1.3896 -1.7601  2.4022
 1343TIP3   OH225519   3.508   1.222  16.344 -0.2217 -0.0144 -0.6237
 1343TIP3    H125520   3.452   1.253  16.415  0.5953  1.8981 -0.7646
 1343TIP3    H225521   3.516   1.297  16.285  2.3975 -0.2189 -0.6327
 1344TIP3   OH225522   4.991   0.633   4.115  0.6444  0.0731 -0.5504
 1344TIP3    H125523   4.980   0.593   4.202  2.4037  0.4108 -0.1388
 1344TIP3    H225524   4.907   0.675   4.098 -0.2283 -1.2286  0.3338
 1345TIP3   OH225525   3.374   0.687   6.426 -0.0696 -0.1692  0.6704
 1345TIP3    H125526   3.428   0.654   6.354  0.7141  0.9228  0.7360
 1345TIP3    H225527   3.303   0.624   6.433  1.8461 -2.3864  1.4001
 1346TIP3   OH225528   3.271   6.164   3.240 -0.2360  0.1357  0.1419
 1346TIP3    H125529   3.318   6.086   3.210  2.1295  1.4626  0.1062
 1346TIP3    H225530   3.335   6.211   3.294 -1.3410  2.3528 -0.3707
 1347TIP3   OH225531   0.310   0.229   5.633 -0.3923 -0.4786  0.1238
 1347TIP3    H125532   0.214   0.225   5.635 -0.5306  1.3121 -0.6212
 1347TIP3    H225533   0.335   0.223   5.725 -1.1669 -1.7135  0.2711
 1348TIP3   OH225534   4.329   2.964   2.966 -0.5302 -0.0618  0.2146
 1348TIP3    H125535   4.393   3.034   2.951 -1.1849  1.0572  2.3167
 1348TIP3    H225536   4.358   2.922   3.047 -1.9796 -0.0420  0.7666
 1349TIP3   OH225537   6.134   6.207  16.647  0.4382  0.0452 -0.9573
 1349TIP3    H125538   6.097   6.151  16.714  0.2931 -1.2239 -2.0453
 1349TIP3    H225539   6.058   6.250  16.606  0.5606  1.1934 -0.0195
 1350TIP3   OH225540   6.544   2.577  16.338  1.0775 -0.1242 -0.0245
 1350TIP3    H125541   6.614   2.515  16.315  0.8457 -1.1680  1.8784
 1350TIP3    H225542   6.466   2.543  16.295  0.9654 -1.1637  0.9601
 1351TIP3   OH225543   5.933   1.991  14.654 -0.8746  0.0605 -0.5505
 1351TIP3    H125544   5.928   2.013  14.747  1.4317  0.5869 -0.4856
 1351TIP3    H225545   5.909   1.899  14.649 -1.2949  0.1037  0.5129
 1352TIP3   OH225546   4.500   6.662   0.839 -0.2255  0.2719  0.3052
 1352TIP3    H125547   4.436   6.673   0.768  0.1552  1.6734  0.1361
 1352TIP3    H225548   4.564   6.599   0.804 -0.8003 -0.1300 -0.0394
 1353TIP3   OH225549   4.700   4.365  14.247 -0.1919 -0.1762 -0.0235
 1353TIP3    H125550   4.609   4.336  14.243  0.1850 -1.3454 -1.1844
 1353TIP3    H225551   4.717   4.382  14.339 -1.6337  0.2350  0.1792
 1354TIP3   OH225552   5.307   1.882  10.924  0.2502 -0.3439 -0.3893
 1354TIP3    H125553   5.356   1.814  10.877 -0.0321 -1.5875  1.0197
 1354TIP3    H225554   5.333   1.964  10.883  2.7260 -1.0437 -0.3628
 1355TIP3   OH225555   1.022   3.510   5.796  0.4504  0.4099  0.9190
 1355TIP3    H125556   0.931   3.539   5.791  0.6030  0.8131  0.4305
 1355TIP3    H225557   1.057   3.555   5.873  0.5779  1.2361  0.3897
 1356TIP3   OH225558   1.782   5.037   2.892 -0.0047 -0.1548  0.1940
 1356TIP3    H125559   1.712   5.071   2.948  1.3110 -0.0720  1.8726
 1356TIP3    H225560   1.812   4.957   2.936  1.7836  0.4937  0.2576
 1357TIP3   OH225561   6.534   4.980   2.172  0.2329  0.6748  0.1062
 1357TIP3    H125562   6.505   4.905   2.224  0.5399  2.0840  2.4832
 1357TIP3    H225563   6.453   5.018   2.138  0.1566 -1.8230 -3.0174
 1358TIP3   OH225564   6.567   4.198   4.546  0.3805 -0.3246  0.4250
 1358TIP3    H125565   6.607   4.224   4.463 -1.4284 -0.2319 -0.4716
 1358TIP3    H225566   6.532   4.111   4.530 -3.4562  1.1719 -0.3092
 1359TIP3   OH225567   3.363   3.024  11.822 -0.4311 -0.1419  0.1364
 1359TIP3    H125568   3.409   2.940  11.825  1.3441  0.8195  2.8955
 1359TIP3    H225569   3.280   3.007  11.868  0.4863 -0.1205  1.8557
 1360TIP3   OH225570   3.792   5.012   0.179  0.0355 -0.5563 -0.5923
 1360TIP3    H125571   3.704   4.979   0.159 -0.0186 -0.9980  0.2894
 1360TIP3    H225572   3.840   4.935   0.207  0.0830 -0.0074  0.9433
 1361TIP3   OH225573   4.770   1.593  13.924 -0.2787  0.2736  0.5384
 1361TIP3    H125574   4.788   1.662  13.860 -0.3185 -0.6748 -0.5094
 1361TIP3    H225575   4.728   1.639  13.997  0.7406  1.5408  0.3596
 1362TIP3   OH225576   6.801   1.538   2.581 -0.4512 -0.1905  0.1643
 1362TIP3    H125577   6.746   1.459   2.584  2.0360 -2.0192  0.9665
 1362TIP3    H225578   6.828   1.552   2.671  1.6252 -0.3139 -0.4018
 1363TIP3   OH225579   5.191   1.832   1.768  0.5658 -0.5576 -0.1975
 1363TIP3    H125580   5.127   1.800   1.832  1.9147 -0.0794  1.4905
 1363TIP3    H225581   5.146   1.903   1.723 -0.0385 -0.0717  1.1122
 1364TIP3   OH225582   3.510   3.072  14.682 -0.2788 -0.3535 -0.4838
 1364TIP3    H125583   3.603   3.048  14.677 -0.3724 -0.5182 -1.6903
 1364TIP3    H225584   3.509   3.165  14.657 -0.2002  0.2970  1.7576
 1365TIP3   OH225585   1.303   3.299   1.840 -0.5344  0.4071 -0.5091
 1365TIP3    H125586   1.242   3.250   1.895 -0.1662  0.2415 -0.2391
 1365TIP3    H225587   1.389   3.262   1.861 -0.1117  1.8063  0.4523
 1366TIP3   OH225588   4.661   0.967   5.840  1.0637  0.2777  0.3227
 1366TIP3    H125589   4.678   0.896   5.902 -0.7668 -0.1845  0.3607
 1366TIP3    H225590   4.702   0.938   5.758 -0.5297 -1.3861  0.0375
 1367TIP3   OH225591   3.385   6.701   3.351 -0.7109 -0.2144 -0.0614
 1367TIP3    H125592   3.336   6.771   3.395  1.0969  0.6992  0.5676
 1367TIP3    H225593   3.438   6.662   3.420 -0.9436 -1.5664 -0.6212
 1368TIP3   OH225594   6.081   4.676   1.020  0.4255 -0.7221 -0.3115
 1368TIP3    H125595   6.147   4.678   0.951  1.4498  1.2234  0.6461
 1368TIP3    H225596   6.130   4.655   1.100 -0.3552 -0.7088  0.1855
 1369TIP3   OH225597   0.489   5.277   5.241  0.1920 -0.3476  0.3547
 1369TIP3    H125598   0.556   5.345   5.230  1.1792 -1.6042 -2.1782
 1369TIP3    H225599   0.407   5.326   5.252  1.0803  1.2462  0.1990
 1370TIP3   OH225600   3.154   1.708  11.305  0.3010 -0.0426 -0.0638
 1370TIP3    H125601   3.216   1.764  11.350 -0.1755  0.1966  0.3053
 1370TIP3    H225602   3.183   1.619  11.324  0.2955  0.0602  0.4453
 1371TIP3   OH225603   6.524   3.079   2.967 -0.2561 -0.4361 -0.0111
 1371TIP3    H125604   6.525   3.113   2.878  0.4044  0.9676  0.5138
 1371TIP3    H225605   6.493   2.989   2.957 -0.6456 -0.1642 -1.5984
 1372TIP3   OH225606   0.066   1.603   4.567 -0.0841 -0.9221  0.0530
 1372TIP3    H125607   0.154   1.639   4.575  0.0691 -1.0305 -1.0216
 1372TIP3    H225608   0.059   1.540   4.639  0.3482 -0.1836  0.7453
 1373TIP3   OH225609   2.237   2.751   5.744 -0.2564  0.2707  0.6029
 1373TIP3    H125610   2.232   2.727   5.652 -0.5461  0.2451  0.6258
 1373TIP3    H225611   2.259   2.670   5.790 -2.5667 -0.2850  0.8370
 1374TIP3   OH225612   5.357   6.237  12.602 -0.2736 -0.0741  0.2911
 1374TIP3    H125613   5.404   6.154  12.609 -0.6984 -0.2349  1.7135
 1374TIP3    H225614   5.425   6.303  12.587  0.0015 -0.7337 -1.6183
 1375TIP3   OH225615   6.639   3.040  11.720 -0.1779 -0.2835  0.1408
 1375TIP3    H125616   6.703   2.970  11.736  0.8085  0.3265 -0.9729
 1375TIP3    H225617   6.630   3.043  11.625 -1.0003  0.4138  0.2320
 1376TIP3   OH225618   1.617   2.979   6.174  0.4825 -1.2449 -0.7987
 1376TIP3    H125619   1.524   3.004   6.166  0.7562 -0.5500 -2.0711
 1376TIP3    H225620   1.664   3.062   6.177  1.0856 -1.5961 -0.3104
 1377TIP3   OH225621   4.501   0.377   2.506  0.2433  0.1801 -0.3330
 1377TIP3    H125622   4.517   0.285   2.485  2.0491  0.7693 -1.8628
 1377TIP3    H225623   4.406   0.385   2.508 -0.0543 -1.1801 -3.1060
 1378TIP3   OH225624   6.493   0.351   2.206 -0.5514  0.5008 -0.4521
 1378TIP3    H125625   6.461   0.440   2.220 -3.1962 -0.5188  0.9346
 1378TIP3    H225626   6.428   0.311   2.147 -0.5921 -1.0351  0.5592
 1379TIP3   OH225627   1.855   5.277   0.003  0.3099  0.2100 -0.3363
 1379TIP3    H125628   1.783   5.213  -0.000  0.1326  0.3194  0.8400
 1379TIP3    H225629   1.811   5.362  -0.006  0.4946  0.2046 -1.4102
 1380TIP3   OH225630   3.427   4.382  17.038  0.8395 -0.9375 -0.5469
 1380TIP3    H125631   3.518   4.385  17.009  0.8306  0.2316 -0.4829
 1380TIP3    H225632   3.393   4.302  16.999  1.4614 -0.5863 -1.8779
 1381TIP3   OH225633   6.395   4.968   2.775 -0.0268  0.4985  0.0956
 1381TIP3    H125634   6.469   4.984   2.716  0.3851  0.2756  0.5386
 1381TIP3    H225635   6.318   4.987   2.723  0.3271  0.2202 -0.5451
 1382TIP3   OH225636   0.537   1.725   3.242  0.2390 -0.1224 -0.1475
 1382TIP3    H125637   0.556   1.726   3.148  0.9534 -0.9146 -0.0229
 1382TIP3    H225638   0.457   1.778   3.250  0.8179  0.9456 -1.0391
 1383TIP3   OH225639   2.216   1.606   2.228 -0.2188  0.0408 -0.2761
 1383TIP3    H125640   2.231   1.611   2.133  0.5430 -0.0178 -0.1678
 1383TIP3    H225641   2.303   1.616   2.266 -0.3245 -1.3105  0.3680
 1384TIP3   OH225642   5.085   6.274   5.356  0.0917  0.5613 -0.2799
 1384TIP3    H125643   5.030   6.275   5.434 -0.0928  1.0654 -0.4113
 1384TIP3    H225644   5.028   6.306   5.286 -0.1914 -1.2636 -0.9377
 1385TIP3   OH225645   2.036   5.175   3.766 -0.4856 -0.6400  0.0142
 1385TIP3    H125646   2.015   5.123   3.688 -0.0181  0.8853 -1.2010
 1385TIP3    H225647   2.079   5.253   3.731 -1.5647  0.7910  1.6911
 1386TIP3   OH225648   4.797   0.018   2.593  0.5758  0.2845 -0.0070
 1386TIP3    H125649   4.769   0.065   2.515  2.2103  0.7992 -0.3226
 1386TIP3    H225650   4.857   0.078   2.638  0.7599 -0.5458  0.9048
 1387TIP3   OH225651   4.564   4.138   5.329  0.5699 -0.1639 -0.2437
 1387TIP3    H125652   4.511   4.058   5.327 -0.8856  0.5322  3.2356
 1387TIP3    H225653   4.557   4.174   5.241 -1.4480 -2.1825 -0.9976
 1388TIP3   OH225654   1.548   1.974  13.094 -0.5447 -0.5286 -0.0595
 1388TIP3    H125655   1.499   2.019  13.024 -1.1324  2.0672  1.8697
 1388TIP3    H225656   1.482   1.955  13.161  0.5698  0.3996  1.3484
 1389TIP3   OH225657   6.375   6.751  10.964 -0.0531  0.2337 -0.4163
 1389TIP3    H125658   6.403   6.761  10.873 -0.9829 -1.2992 -0.9278
 1389TIP3    H225659   6.303   6.813  10.974 -0.0904  0.2527 -0.7920
 1390TIP3   OH225660   3.661   3.740   3.426 -0.3370  0.3569  0.0676
 1390TIP3    H125661   3.703   3.732   3.340 -1.0613 -1.7110 -0.1724
 1390TIP3    H225662   3.569   3.760   3.406 -0.3683  0.5195  0.3783
 1391TIP3   OH225663   6.011   4.413  13.364 -0.1138 -0.0796 -0.8045
 1391TIP3    H125664   5.963   4.364  13.298  0.9354 -1.6840 -0.4263
 1391TIP3    H225665   6.040   4.492  13.318 -0.5751 -0.5132 -1.8715
 1392TIP3   OH225666   0.597   4.495   2.029  0.3896 -0.5429 -0.5194
 1392TIP3    H125667   0.635   4.488   2.116  1.9677 -0.1675 -1.1479
 1392TIP3    H225668   0.560   4.408   2.012 -1.4185 -0.1551  1.1436
 1393TIP3   OH225669   6.106   2.984  17.003 -0.0206 -0.3202 -0.3097
 1393TIP3    H125670   6.161   3.016  17.075 -0.7804  2.4486 -0.8460
 1393TIP3    H225671   6.165   2.928  16.952  2.0172  1.4870 -0.1358
 1394TIP3   OH225672   6.078   4.344  15.357 -0.2563 -0.1831  0.0730
 1394TIP3    H125673   6.130   4.385  15.426 -0.6130  0.8989 -0.2854
 1394TIP3    H225674   6.099   4.393  15.278  1.4078 -2.4284 -0.9852
 1395TIP3   OH225675   2.551   5.542  10.712  0.0365 -0.1455  0.7326
 1395TIP3    H125676   2.474   5.531  10.656  0.7229 -0.0771 -0.2407
 1395TIP3    H225677   2.603   5.463  10.699 -0.8681 -1.2268  3.0591
 1396TIP3   OH225678   0.422   4.633   5.903 -0.0036  0.5554 -0.2549
 1396TIP3    H125679   0.411   4.653   5.996 -1.4482 -2.0281  0.2373
 1396TIP3    H225680   0.417   4.718   5.859  0.7810  1.8462  2.0118
 1397TIP3   OH225681   1.468   2.522   2.391 -0.2897 -0.0463  0.0415
 1397TIP3    H125682   1.541   2.475   2.431  2.8434  2.2504 -2.4552
 1397TIP3    H225683   1.458   2.600   2.445  0.5816  0.6550 -0.7874
 1398TIP3   OH225684   5.165   1.685   2.163  0.2220 -0.5866  0.1139
 1398TIP3    H125685   5.224   1.670   2.089  0.4866 -1.3806  0.4784
 1398TIP3    H225686   5.207   1.754   2.214  0.6180 -0.8491  0.1442
 1399TIP3   OH225687   4.130   5.695  16.684 -0.4964 -0.5297  0.2115
 1399TIP3    H125688   4.210   5.689  16.735 -0.4505  0.8468  0.3502
 1399TIP3    H225689   4.128   5.786  16.653 -0.8791 -1.1281 -1.6697
 1400TIP3   OH225690   4.996   1.651   6.681 -0.2278  0.2514 -0.8776
 1400TIP3    H125691   4.972   1.743   6.695 -1.7756 -0.2083 -0.3047
 1400TIP3    H225692   5.091   1.650   6.685 -0.2133  1.7520 -0.3652
 1401TIP3   OH225693   2.978   3.594  16.812 -0.2534  0.3894 -0.3583
 1401TIP3    H125694   3.047   3.564  16.871 -2.1869  0.6601  2.2156
 1401TIP3    H225695   2.901   3.543  16.838 -1.6317  1.8121 -1.4778
 1402TIP3   OH225696   3.184   6.266  15.426  0.6750 -0.2056  0.4951
 1402TIP3    H125697   3.141   6.183  15.444  1.4544 -0.6086  0.5151
 1402TIP3    H225698   3.212   6.259  15.335 -2.2696  1.3883 -0.7014
 1403TIP3   OH225699   1.759   2.570  13.107  0.0310  0.7677 -0.3006
 1403TIP3    H125700   1.735   2.502  13.044 -0.2436  0.7699 -0.1983
 1403TIP3    H225701   1.737   2.652  13.063 -0.5947  0.7529 -0.0209
 1404TIP3   OH225702   5.126   5.576   4.866  0.3998  0.0811 -0.0191
 1404TIP3    H125703   5.183   5.500   4.860 -2.4850 -2.1435 -2.8433
 1404TIP3    H225704   5.140   5.623   4.783 -0.8673  0.2144 -0.1778
 1405TIP3   OH225705   6.114   6.554  15.520  0.1734 -0.7233  0.3627
 1405TIP3    H125706   6.137   6.467  15.487  0.3946 -0.6864  0.4164
 1405TIP3    H225707   6.034   6.540  15.570 -1.7131 -0.3471 -2.3775
 1406TIP3   OH225708   3.131   2.746  14.119  0.0892  0.6008  0.7481
 1406TIP3    H125709   3.112   2.666  14.070  1.2038  1.7235 -1.7018
 1406TIP3    H225710   3.046   2.780  14.144 -0.4445 -0.7363  0.8420
 1407TIP3   OH225711   0.528   4.912  16.068  0.0633 -0.2523  0.6254
 1407TIP3    H125712   0.551   4.901  16.160  0.6425 -1.0248  0.3992
 1407TIP3    H225713   0.611   4.903  16.021 -0.1880  0.3938  0.0457
 1408TIP3   OH225714   4.036   5.965  11.712  0.1216 -0.0094  0.8921
 1408TIP3    H125715   4.045   5.872  11.693 -0.7925  0.1807 -0.6409
 1408TIP3    H225716   4.112   5.986  11.766  0.7768 -1.4599  0.5764
 1409TIP3   OH225717   0.413   0.570  12.415 -0.1153 -0.0895  0.2991
 1409TIP3    H125718   0.389   0.530  12.332 -1.0046 -3.0251  1.8263
 1409TIP3    H225719   0.345   0.636  12.431 -0.6253 -0.3516 -0.7193
 1410TIP3   OH225720   4.854   6.771  10.483 -0.0193  0.5621 -0.3126
 1410TIP3    H125721   4.876   6.842  10.544  0.4039 -0.6392  0.9823
 1410TIP3    H225722   4.858   6.812  10.397 -0.5217  2.2877  0.4380
 1411TIP3   OH225723   5.686   4.964  11.055 -0.7277  0.0587  0.2974
 1411TIP3    H125724   5.607   4.912  11.045 -0.1408 -1.1158  1.4927
 1411TIP3    H225725   5.689   4.988  11.148  0.2907  0.1072  0.2732
 1412TIP3   OH225726   6.612   2.748  15.069  0.1089 -0.7623 -0.2392
 1412TIP3    H125727   6.609   2.825  15.127 -1.1375 -0.2932 -0.9018
 1412TIP3    H225728   6.528   2.705  15.082 -0.6955 -0.0260 -2.4931
 1413TIP3   OH225729   3.315   3.576  15.889  0.5962  0.4776 -0.4894
 1413TIP3    H125730   3.246   3.561  15.825  1.1016 -0.5889 -0.8018
 1413TIP3    H225731   3.379   3.631  15.843  2.2550 -2.3947 -1.9160
 1414TIP3   OH225732   1.319   4.286  13.787 -0.4478 -0.2697  0.4464
 1414TIP3    H125733   1.313   4.258  13.695  1.2884  2.2237 -0.5127
 1414TIP3    H225734   1.412   4.282  13.808 -0.7396 -0.0794  1.8833
 1415TIP3   OH225735   1.234   4.631  14.156  0.0490 -0.0965 -0.0353
 1415TIP3    H125736   1.155   4.592  14.193 -0.5154  1.0737  0.0550
 1415TIP3    H225737   1.262   4.570  14.087  0.4441 -1.7225  1.4915
 1416TIP3   OH225738   1.689   5.796  12.369  0.1474  1.3855  0.2785
 1416TIP3    H125739   1.735   5.764  12.291  0.3671  0.5095  0.7620
 1416TIP3    H225740   1.754   5.849  12.415  0.7808  0.0077  1.0518
 1417TIP3   OH225741   5.186   6.327   1.102  0.2117 -0.3258 -0.0543
 1417TIP3    H125742   5.137   6.404   1.074 -0.2357 -0.0414  1.4374
 1417TIP3    H225743   5.182   6.267   1.027 -2.6296 -0.4253  0.0823
 1418TIP3   OH225744   0.081   3.083   2.068 -0.4280 -0.1322  0.3613
 1418TIP3    H125745   0.162   3.118   2.105  0.4736 -2.7782  1.1024
 1418TIP3    H225746   0.019   3.087   2.141 -0.0762 -0.8480  0.7071
 1419TIP3   OH225747   4.202   1.607  13.627  0.0258 -0.3096 -0.4101
 1419TIP3    H125748   4.279   1.658  13.601 -1.0316  0.3751 -2.4177
 1419TIP3    H225749   4.231   1.558  13.704  2.4650 -0.0901 -1.0950
 1420TIP3   OH225750   0.247   3.949  12.379 -0.0073 -0.2826  0.6411
 1420TIP3    H125751   0.247   4.022  12.317 -1.4566 -0.4679  0.4083
 1420TIP3    H225752   0.313   3.889  12.345  1.9228  1.3014  1.3388
 1421TIP3   OH225753   6.808   2.425  11.341 -0.3595 -0.2195  0.0271
 1421TIP3    H125754   6.860   2.366  11.395  0.7376 -0.0773 -0.8341
 1421TIP3    H225755   6.735   2.451  11.398 -0.9005 -2.3873  0.4179
 1422TIP3   OH225756   4.678   2.120  16.420  0.2274  0.0025 -0.3847
 1422TIP3    H125757   4.596   2.117  16.470 -0.1074 -0.5767 -0.9633
 1422TIP3    H225758   4.746   2.101  16.485 -0.1282  0.0653  0.0113
 1423TIP3   OH225759   1.709   2.133  14.335  0.1390 -0.0650 -0.1029
 1423TIP3    H125760   1.666   2.204  14.382 -0.6680  0.3077 -1.3610
 1423TIP3    H225761   1.740   2.173  14.254  1.3473 -0.7285 -0.0056
 1424TIP3   OH225762   3.379   3.531   3.963 -0.1420 -0.6452  0.1654
 1424TIP3    H125763   3.430   3.588   3.906 -1.2821  0.6601  0.3776
 1424TIP3    H225764   3.289   3.537   3.929 -0.9715  0.6170  2.3430
 1425TIP3   OH225765   1.609   4.882  14.154  0.5341  0.2827  0.2411
 1425TIP3    H125766   1.662   4.959  14.132 -0.9967  1.3933  0.2793
 1425TIP3    H225767   1.623   4.822  14.080  0.6208  1.2189 -0.5292
 1426TIP3   OH225768   1.657   0.831  16.197 -0.6306  0.0920 -0.2596
 1426TIP3    H125769   1.567   0.828  16.228  0.3992  1.9462  3.4009
 1426TIP3    H225770   1.654   0.887  16.120 -2.5778  0.1146 -0.2011
 1427TIP3   OH225771   6.478   6.447   5.859 -0.0244  0.1482 -0.4375
 1427TIP3    H125772   6.458   6.506   5.931  0.1572  0.6401 -0.7851
 1427TIP3    H225773   6.498   6.363   5.902  0.4258  0.5240  0.1101
 1428TIP3   OH225774   2.710   0.442  16.860 -0.4623  0.2841 -0.0884
 1428TIP3    H125775   2.782   0.461  16.801 -0.1363  1.8731  0.7684
 1428TIP3    H225776   2.634   0.482  16.819 -0.2846  1.1603  0.4122
 1429TIP3   OH225777   3.241   3.050  13.520 -0.5376  0.0528 -0.5070
 1429TIP3    H125778   3.156   3.041  13.565 -0.0553 -1.2691  0.2163
 1429TIP3    H225779   3.294   3.101  13.580 -1.0062  1.4660 -1.2640
 1430TIP3   OH225780   3.008   0.696   5.558 -0.4510 -0.0122 -0.3217
 1430TIP3    H125781   2.934   0.658   5.511  0.4617 -0.0203 -1.8205
 1430TIP3    H225782   3.062   0.736   5.489  0.7123  0.3876  0.7816
 1431TIP3   OH225783   3.838   6.257  15.690  0.2703 -1.1720 -0.3588
 1431TIP3    H125784   3.757   6.288  15.649  0.3702 -0.1591  0.1763
 1431TIP3    H225785   3.824   6.164  15.705 -0.3486 -1.2443 -1.3133
 1432TIP3   OH225786   0.551   5.995  14.785  0.6828  0.7745 -0.3798
 1432TIP3    H125787   0.638   6.022  14.817  1.1161 -0.6706 -0.2416
 1432TIP3    H225788   0.570   5.923  14.725 -0.5039 -0.9088  1.1661
 1433TIP3   OH225789   1.414   0.359  15.554 -0.2993  0.1326  0.0399
 1433TIP3    H125790   1.406   0.264  15.563  0.4103 -0.2093 -2.3282
 1433TIP3    H225791   1.450   0.388  15.638 -0.9119 -1.6062  0.9632
 1434TIP3   OH225792   4.799   6.574   2.618  0.3528  0.4695 -0.0000
 1434TIP3    H125793   4.804   6.663   2.583  1.6608  0.9613  1.3291
 1434TIP3    H225794   4.708   6.564   2.645  0.2277  1.4870  0.0109
 1435TIP3   OH225795   0.556   4.436   4.517 -0.1870 -0.0568  0.3758
 1435TIP3    H125796   0.637   4.467   4.477 -0.4937 -0.4104 -0.5596
 1435TIP3    H225797   0.575   4.431   4.611  0.8995 -0.2198  0.1617
 1436TIP3   OH225798   0.018   5.502  16.064 -1.0419 -0.2107 -0.0437
 1436TIP3    H125799   0.047   5.534  15.979 -0.0944  1.4806  0.8615
 1436TIP3    H225800   0.075   5.427  16.082  0.2869  0.7750  0.0404
 1437TIP3   OH225801   1.090   3.497   1.770  0.1445  0.1266 -0.4187
 1437TIP3    H125802   1.114   3.406   1.790 -1.6845 -0.2122  0.4756
 1437TIP3    H225803   1.038   3.491   1.690  0.0457  0.3876 -0.3738
 1438TIP3   OH225804   2.066   0.354  15.633 -0.2333 -0.1663  0.4564
 1438TIP3    H125805   2.133   0.287  15.633 -1.5536 -1.5772 -1.0086
 1438TIP3    H225806   2.091   0.413  15.563 -0.0524 -0.1594  0.5255
 1439TIP3   OH225807   2.957   6.127  11.544 -0.2569  0.3662 -0.3919
 1439TIP3    H125808   2.940   6.034  11.553  0.2475  0.4051  1.2672
 1439TIP3    H225809   2.999   6.136  11.459 -1.4454 -0.7352 -1.1250
 1440TIP3   OH225810   1.175   1.542   5.444 -0.5683  0.6468  0.0148
 1440TIP3    H125811   1.127   1.489   5.381 -2.0012  1.9372 -0.0440
 1440TIP3    H225812   1.165   1.632   5.413 -0.4932  1.2207  1.5263
 1441TIP3   OH225813   4.879   1.774  16.810 -0.2334  0.2413 -0.2874
 1441TIP3    H125814   4.787   1.756  16.830 -0.1513 -1.1163 -0.9968
 1441TIP3    H225815   4.895   1.727  16.728  1.3541 -0.3976  0.3481
 1442TIP3   OH225816   3.336   1.989   0.598 -0.1972  0.0803  0.0675
 1442TIP3    H125817   3.365   1.901   0.623 -0.0501 -0.0739 -0.6337
 1442TIP3    H225818   3.397   2.048   0.643  0.7489 -0.2242 -0.7818
 1443TIP3   OH225819   0.521   6.265  10.412 -0.2896 -0.0856 -0.4606
 1443TIP3    H125820   0.433   6.243  10.379 -1.1382  1.5556  0.5880
 1443TIP3    H225821   0.531   6.358  10.392  0.1599  0.3649  1.7059
 1444TIP3   OH225822   6.562   1.618  16.716  0.2515  0.6020 -0.4774
 1444TIP3    H125823   6.553   1.701  16.670 -0.7622 -0.9584 -3.3699
 1444TIP3    H225824   6.654   1.593  16.704  0.4985  1.1805  0.1900
 1445TIP3   OH225825   2.453   6.175  12.896  0.4731  0.1921  0.6726
 1445TIP3    H125826   2.476   6.222  12.816  0.7133  1.6215  1.5450
 1445TIP3    H225827   2.368   6.136  12.877  0.5352  0.4984 -0.2815
 1446TIP3   OH225828   5.671   1.116  16.793  0.2052 -0.1637 -0.5409
 1446TIP3    H125829   5.641   1.026  16.792  1.3059 -0.5804  0.6348
 1446TIP3    H225830   5.626   1.155  16.869  0.3838  0.0264 -0.5331
 1447TIP3   OH225831   5.930   5.361  11.004 -0.1081  0.3002 -0.1959
 1447TIP3    H125832   5.923   5.450  10.969  0.8534  0.1937 -0.7005
 1447TIP3    H225833   5.936   5.372  11.099 -1.8704  0.6442 -0.0775
 1448TIP3   OH225834   3.570   0.730  11.782 -0.2484  0.4293 -0.1083
 1448TIP3    H125835   3.575   0.642  11.819 -0.8067  0.2193 -0.5277
 1448TIP3    H225836   3.513   0.722  11.706  0.1353  1.0429 -0.4800
 1449TIP3   OH225837   3.593   3.164  11.674  0.2023 -0.1050  0.1888
 1449TIP3    H125838   3.539   3.228  11.626  2.2143  0.4809 -1.4503
 1449TIP3    H225839   3.604   3.092  11.612  1.8685  0.1322  0.1601
 1450TIP3   OH225840   3.111   4.972  16.873 -0.0528  0.5468 -0.4923
 1450TIP3    H125841   3.199   5.006  16.856  0.2031 -0.4498 -1.2760
 1450TIP3    H225842   3.096   4.990  16.966  2.6182 -2.7060  0.8238
 1451TIP3   OH225843   6.397   1.948   6.088  0.6704 -0.5559  0.3461
 1451TIP3    H125844   6.341   1.917   6.016  0.3332  0.9337 -0.0630
 1451TIP3    H225845   6.481   1.966   6.046  0.9080 -1.0515  0.6076
 1452TIP3   OH225846   5.840   6.733   4.854  0.6145 -0.6741 -0.0124
 1452TIP3    H125847   5.839   6.829   4.847  0.7335 -0.4432  2.2801
 1452TIP3    H225848   5.820   6.716   4.946 -3.8648 -3.0558 -1.1523
 1453TIP3   OH225849   3.975   2.695  11.902 -0.4531 -0.5911 -0.3452
 1453TIP3    H125850   4.063   2.725  11.880  0.4302 -2.2811  0.5985
 1453TIP3    H225851   3.970   2.704  11.998 -0.9571 -1.3585 -0.2886
 1454TIP3   OH225852   6.062   4.639  12.748  0.2607  0.8860  0.1957
 1454TIP3    H125853   6.017   4.582  12.810 -0.4753  0.6537 -0.5373
 1454TIP3    H225854   6.051   4.727  12.785  1.0410  0.6096  1.1127
 1455TIP3   OH225855   5.073   4.705  13.990 -0.2530 -0.0271  0.2766
 1455TIP3    H125856   5.125   4.641  13.940 -1.1877  0.1281 -0.9395
 1455TIP3    H225857   5.007   4.652  14.034  0.0349 -0.0702  0.6626
 1456TIP3   OH225858   3.550   3.243   4.575  0.0384  0.3600  0.2375
 1456TIP3    H125859   3.600   3.246   4.493  1.1422  0.2823  0.8857
 1456TIP3    H225860   3.579   3.319   4.624  2.1487 -1.4712  2.0654
 1457TIP3   OH225861   1.319   3.327  12.270  0.0159 -0.3645 -0.0831
 1457TIP3    H125862   1.291   3.415  12.247  1.4799 -0.1749 -1.3456
 1457TIP3    H225863   1.354   3.291  12.188 -0.7481 -2.2059  0.3529
 1458TIP3   OH225864   2.190   5.191   5.093 -0.0936  0.4946  0.0619
 1458TIP3    H125865   2.233   5.108   5.072  1.3865  1.4091 -0.6725
 1458TIP3    H225866   2.108   5.188   5.044  0.2757 -0.2373 -0.5304
 1459TIP3   OH225867   0.790   3.277   2.201  0.5977  0.1588 -1.0256
 1459TIP3    H125868   0.752   3.229   2.128  2.0362  0.0191 -1.7267
 1459TIP3    H225869   0.875   3.307   2.168  0.3210  2.0344 -0.1505
 1460TIP3   OH225870   4.022   1.228  12.915  0.1312 -0.6171 -0.1059
 1460TIP3    H125871   3.989   1.175  12.988 -1.2828 -0.7054 -0.7640
 1460TIP3    H225872   3.975   1.311  12.922  0.4590 -0.3882 -0.5356
 1461TIP3   OH225873   4.416   6.403   0.461  0.0391 -0.0544 -0.0506
 1461TIP3    H125874   4.461   6.329   0.503  0.3988  0.3987  0.3807
 1461TIP3    H225875   4.400   6.465   0.533 -0.8760 -0.0060 -0.2788
 1462TIP3   OH225876   2.432   5.488  15.107  0.3207  0.1141 -0.0700
 1462TIP3    H125877   2.454   5.480  15.200  0.1776  2.8018  0.2548
 1462TIP3    H225878   2.341   5.458  15.102  0.5867 -0.8365  0.4868
 1463TIP3   OH225879   6.546   6.501  13.581  0.5079 -0.3369 -0.3804
 1463TIP3    H125880   6.610   6.443  13.540 -0.6927 -1.3672 -0.9024
 1463TIP3    H225881   6.486   6.524  13.509  0.2012  0.4478  0.1212
 1464TIP3   OH225882   6.026   1.342   1.446  0.1472 -0.6084 -0.1988
 1464TIP3    H125883   5.991   1.260   1.482 -0.5475 -1.5646 -2.8020
 1464TIP3    H225884   6.020   1.405   1.518 -3.7299 -1.6158  0.5909
 1465TIP3   OH225885   2.510   3.818  13.900  0.2980 -0.3000 -0.2609
 1465TIP3    H125886   2.568   3.884  13.861 -0.8510  0.6753 -0.3820
 1465TIP3    H225887   2.441   3.806  13.836 -0.1783 -0.6885  0.3173
 1466TIP3   OH225888   3.937   2.454  14.889 -0.0354  0.3048 -0.4552
 1466TIP3    H125889   3.985   2.374  14.870  1.1316  1.1075 -1.0108
 1466TIP3    H225890   3.875   2.430  14.958  0.8659 -0.8641 -0.0352
 1467TIP3   OH225891   6.674   4.446  11.240 -0.5240  0.3915 -0.2028
 1467TIP3    H125892   6.584   4.467  11.264 -0.4059  0.8327 -0.1499
 1467TIP3    H225893   6.680   4.468  11.147 -0.3598  0.7245 -0.1128
 1468TIP3   OH225894   2.705   0.799   1.341 -0.1147  1.0408  1.3161
 1468TIP3    H125895   2.798   0.782   1.324 -0.1154 -0.0305  2.2258
 1468TIP3    H225896   2.697   0.894   1.339  0.7895  1.1115  0.1804
 1469TIP3   OH225897   5.466   3.397   0.800 -0.0662  0.2817 -0.1715
 1469TIP3    H125898   5.391   3.457   0.802 -0.8658 -0.6101 -1.7257
 1469TIP3    H225899   5.428   3.310   0.791  1.1398 -0.1030 -2.2473
 1470TIP3   OH225900   6.071   5.097   2.585  0.6211  0.2705  0.3436
 1470TIP3    H125901   6.030   5.043   2.652  3.1435 -1.9614  0.2250
 1470TIP3    H225902   6.114   5.035   2.526  1.4706  2.3086 -1.3115
 1471TIP3   OH225903   0.553   3.488   2.323  0.6486  0.2314 -0.5086
 1471TIP3    H125904   0.628   3.445   2.364  0.0492 -0.5997 -0.2447
 1471TIP3    H225905   0.542   3.570   2.371  1.6879  0.6041 -0.8868
 1472TIP3   OH225906   5.276   5.479  14.188 -0.1648 -1.1092 -0.2093
 1472TIP3    H125907   5.366   5.501  14.211 -0.0486 -2.2036  0.4154
 1472TIP3    H225908   5.278   5.386  14.167 -1.0320 -1.0043 -0.8498
 1473TIP3   OH225909   1.798   4.051  14.530  0.0073  0.3837  0.1247
 1473TIP3    H125910   1.756   4.128  14.568 -0.2281  0.5221 -0.4056
 1473TIP3    H225911   1.842   4.083  14.452 -1.2498 -0.2303 -0.8835
 1474TIP3   OH225912   3.427   1.155  11.435 -0.5932 -0.1145  0.5030
 1474TIP3    H125913   3.443   1.151  11.530  0.6321 -2.7730  0.2703
 1474TIP3    H225914   3.514   1.151  11.396 -1.1704 -2.8178 -0.7275
 1475TIP3   OH225915   1.686   4.978  15.932  0.7675  0.3166  0.3596
 1475TIP3    H125916   1.617   5.038  15.958 -0.8910 -0.3642 -2.1055
 1475TIP3    H225917   1.703   5.001  15.840  0.7748 -2.2906 -0.3460
 1476TIP3   OH225918   4.758   1.699  11.090  0.0202  0.1732 -0.7554
 1476TIP3    H125919   4.742   1.651  11.172 -1.3953 -1.7922 -2.0981
 1476TIP3    H225920   4.786   1.633  11.028  0.6454  1.5537 -2.0123
 1477TIP3   OH225921   3.898   0.022   0.787 -0.4373 -0.4919 -0.4103
 1477TIP3    H125922   3.846   0.030   0.867 -1.1258  1.2680 -0.9921
 1477TIP3    H225923   3.989   0.028   0.816 -0.7101  1.4743  0.1321
 1478TIP3   OH225924   4.424   2.240   1.439 -0.0161  0.3413 -0.0760
 1478TIP3    H125925   4.351   2.244   1.501  0.1328 -0.8863  0.2152
 1478TIP3    H225926   4.387   2.269   1.356 -1.8252 -3.2414 -0.7524
 1479TIP3   OH225927   5.211   4.286  12.557  0.8115 -0.3581  0.4479
 1479TIP3    H125928   5.118   4.304  12.541  1.1751  2.1126  0.7406
 1479TIP3    H225929   5.255   4.312  12.476  1.5288  1.5164  1.3917
 1480TIP3   OH225930   3.617   6.504  15.287 -0.2336  0.2724 -0.5214
 1480TIP3    H125931   3.527   6.528  15.265 -0.5510 -1.3144 -1.0918
 1480TIP3    H225932   3.667   6.521  15.208 -0.1593  0.5295 -0.4195
 1481TIP3   OH225933   6.394   6.025  11.989 -0.6670  0.4636  0.8171
 1481TIP3    H125934   6.458   6.023  11.918  0.8137  1.0538  2.0873
 1481TIP3    H225935   6.320   5.974  11.956  0.7814 -0.9710 -0.3971
 1482TIP3   OH225936   5.848   3.225  12.108  0.2011 -0.3849 -0.1685
 1482TIP3    H125937   5.837   3.131  12.125  0.1304 -0.0556  1.8170
 1482TIP3    H225938   5.942   3.241  12.121  0.2256 -0.1974 -0.5837
 1483TIP3   OH225939   4.474   1.427  15.856 -0.4621 -0.2179 -0.3132
 1483TIP3    H125940   4.504   1.448  15.768  1.0713 -0.2333  0.1643
 1483TIP3    H225941   4.487   1.333  15.865  2.6440  0.1839  0.9700
 1484TIP3   OH225942   0.461   5.519  11.478  0.3243  0.5794 -0.4882
 1484TIP3    H125943   0.415   5.522  11.394  0.8192  0.1332 -0.7795
 1484TIP3    H225944   0.460   5.610  11.509 -2.1078  0.3696  0.2796
 1485TIP3   OH225945   4.179   3.371  15.902 -0.1127 -0.0256 -0.1974
 1485TIP3    H125946   4.201   3.281  15.877 -0.2023 -0.9216  2.6720
 1485TIP3    H225947   4.249   3.399  15.960  0.0676  1.9374 -1.2445
 1486TIP3   OH225948   6.725   4.430  12.752  0.0887 -0.2140 -0.0386
 1486TIP3    H125949   6.724   4.516  12.794 -0.6628  0.2153 -0.8959
 1486TIP3    H225950   6.675   4.442  12.671  0.8129 -1.2199 -0.6562
 1487TIP3   OH225951   0.556   5.031  10.472  0.7325  0.1429  0.1672
 1487TIP3    H125952   0.536   5.125  10.473  1.2162  0.2448  0.2326
 1487TIP3    H225953   0.643   5.025  10.433  2.0103 -0.0256  2.8449
 1488TIP3   OH225954   3.465   1.035  13.476  0.7148  0.5366  0.0213
 1488TIP3    H125955   3.383   1.019  13.430  0.5785  1.2721 -0.0141
 1488TIP3    H225956   3.445   1.021  13.568  1.1859 -1.7283 -0.1670
 1489TIP3   OH225957   5.126   3.945   4.890 -0.3433  0.0416  0.7132
 1489TIP3    H125958   5.109   4.033   4.924 -0.6794  0.1515  0.2676
 1489TIP3    H225959   5.164   3.898   4.964  0.8504  0.8634  0.6649
 1490TIP3   OH225960   2.497   4.889   4.676 -0.0272 -0.0519  0.0317
 1490TIP3    H125961   2.577   4.900   4.726 -0.6673 -1.9417  1.5515
 1490TIP3    H225962   2.508   4.806   4.630 -0.7176  0.1671 -0.5544
 1491TIP3   OH225963   5.621   1.508  10.965  0.3785  0.1772 -0.0923
 1491TIP3    H125964   5.643   1.464  10.882  0.0613 -0.5523  0.2017
 1491TIP3    H225965   5.551   1.455  11.002 -0.5620  1.4017 -0.0960
 1492TIP3   OH225966   2.308   3.904  11.305  0.0416 -0.5096 -0.2802
 1492TIP3    H125967   2.344   3.968  11.243  0.2128 -1.7193 -1.4612
 1492TIP3    H225968   2.269   3.958  11.374 -0.7371  0.8956 -1.7430
 1493TIP3   OH225969   5.303   5.545   4.585 -0.3781 -0.4021 -0.2804
 1493TIP3    H125970   5.339   5.543   4.497  0.3349  2.5791 -0.1927
 1493TIP3    H225971   5.228   5.604   4.579  1.2045  1.9993  1.4635
 1494TIP3   OH225972   4.775   1.963  11.134 -0.1056  0.1757 -0.4687
 1494TIP3    H125973   4.865   1.966  11.103 -0.9356 -0.1566 -3.1224
 1494TIP3    H225974   4.757   1.870  11.146 -0.5129  0.1314 -1.3519
 1495TIP3   OH225975   3.505   3.046   0.957  0.0308 -0.1668  0.0841
 1495TIP3    H125976   3.447   3.013   0.888 -1.4043 -1.1160  1.6813
 1495TIP3    H225977   3.498   3.141   0.950  0.4279 -0.2161 -1.4665
 1496TIP3   OH225978   0.356   1.003  14.320 -0.3135 -0.3311  0.7650
 1496TIP3    H125979   0.433   1.023  14.373  0.5888  0.3146 -0.7372
 1496TIP3    H225980   0.316   0.928  14.364  0.2760  0.2912  2.4542
 1497TIP3   OH225981   0.074   1.230  13.931  0.0688 -0.1321  0.5894
 1497TIP3    H125982   0.045   1.321  13.925  1.1974  0.3900  2.4084
 1497TIP3    H225983   0.094   1.217  14.023 -0.5140 -2.3990  0.4563
 1498TIP3   OH225984   5.878   1.735  10.843 -0.3307 -0.7845  0.2433
 1498TIP3    H125985   5.795   1.719  10.798  0.1620 -0.5678 -0.7712
 1498TIP3    H225986   5.938   1.759  10.773 -0.7275  4.7843  1.3803
 1499TIP3   OH225987   1.497   3.394  13.791  0.4080  0.6073 -0.1817
 1499TIP3    H125988   1.448   3.314  13.772  2.0860 -0.4702 -0.1613
 1499TIP3    H225989   1.588   3.371  13.775  1.3965  1.3089  3.4658
 1500TIP3   OH225990   2.786   0.062  13.622  0.1889  0.5040 -0.0707
 1500TIP3    H125991   2.693   0.071  13.641  0.3878 -1.4204  2.1557
 1500TIP3    H225992   2.829   0.121  13.684  0.5322  0.1138  0.0638
 1501TIP3   OH225993   1.303   6.155   1.698 -0.0090  0.6493 -0.2641
 1501TIP3    H125994   1.392   6.120   1.705  0.0381  0.7831 -0.2045
 1501TIP3    H225995   1.312   6.237   1.650 -0.1378  0.5124 -0.5264
 1502TIP3   OH225996   4.026   5.986   3.085 -0.1278 -0.1430 -0.2714
 1502TIP3    H125997   3.971   6.064   3.086  0.6856  0.4636 -0.9258
 1502TIP3    H225998   4.115   6.020   3.093  0.1560 -1.1142  0.9651
 1503TIP3   OH225999   6.296   5.477   5.817 -0.9053  0.1439  0.2829
 1503TIP3    H126000   6.306   5.426   5.897 -2.5347  0.9631  1.0436
 1503TIP3    H226001   6.238   5.549   5.841 -4.0595 -1.2831 -2.3196
 1504TIP3   OH226002   6.627   1.724  15.995  0.1294  0.3448  0.1512
 1504TIP3    H126003   6.620   1.814  15.964 -0.4707 -0.1120 -1.1068
 1504TIP3    H226004   6.536   1.693  15.999  0.4273 -0.8012 -1.3248
 1505TIP3   OH226005   5.105   4.690   1.775  0.5666 -0.7793 -0.5352
 1505TIP3    H126006   5.069   4.602   1.760 -0.1301 -0.4578 -0.7471
 1505TIP3    H226007   5.035   4.737   1.820  1.6893 -0.9577  1.4959
 1506TIP3   OH226008   1.330   4.889  16.282  0.1891 -0.2248 -0.3829
 1506TIP3    H126009   1.279   4.968  16.302  0.0240 -0.8509  1.9355
 1506TIP3    H226010   1.264   4.824  16.258  0.4026  0.6341 -3.9558
 1507TIP3   OH226011   4.756   5.062  14.145 -0.5019  0.2376 -0.3251
 1507TIP3    H126012   4.777   5.047  14.053 -0.5452  1.0382 -0.4747
 1507TIP3    H226013   4.664   5.089  14.145 -0.8814 -0.9762  0.0893
 1508TIP3   OH226014   2.744   5.576  14.695  0.2991  0.1535  0.2745
 1508TIP3    H126015   2.734   5.559  14.602 -1.3752 -1.4245  0.6879
 1508TIP3    H226016   2.654   5.580  14.728  0.7090  3.5247  1.4042
 1509TIP3   OH226017   5.953   5.043  16.796 -0.3192  0.4779  0.0316
 1509TIP3    H126018   5.868   5.008  16.825 -0.3095 -0.4665 -1.0042
 1509TIP3    H226019   5.977   4.987  16.722  0.1367  2.1393 -1.1285
 1510TIP3   OH226020   6.025   0.368   0.604  0.1722 -0.4921 -0.1799
 1510TIP3    H126021   6.055   0.453   0.639 -0.9842  0.6725 -1.8607
 1510TIP3    H226022   6.097   0.338   0.549  1.2245 -1.4149  1.6185
 1511TIP3   OH226023   0.498   3.159   4.712  0.1605 -0.1942 -0.1367
 1511TIP3    H126024   0.545   3.089   4.667  2.0631  2.4132 -2.5785
 1511TIP3    H226025   0.405   3.139   4.696  0.6273 -2.3396 -0.3839
 1512TIP3   OH226026   1.847   2.041   1.272  0.6691  0.2177  0.6801
 1512TIP3    H126027   1.919   2.068   1.328  1.8508  2.4285 -1.7051
 1512TIP3    H226028   1.832   2.116   1.213 -1.2284 -1.4886 -1.2046
 1513TIP3   OH226029   6.652   6.725   1.258  0.1352  0.3414 -0.1246
 1513TIP3    H126030   6.646   6.665   1.333  0.1703  0.8262  0.2767
 1513TIP3    H226031   6.691   6.804   1.295  1.4686  0.1152 -0.9466
 1514TIP3   OH226032   6.777   5.924  12.619 -0.0435 -0.6203 -0.0840
 1514TIP3    H126033   6.790   5.872  12.698 -1.5950 -0.8094  0.0809
 1514TIP3    H226034   6.826   5.878  12.551  2.7403  0.4427  1.0375
 1515TIP3   OH226035   2.283   5.795   1.955 -0.1171  0.2827 -0.3182
 1515TIP3    H126036   2.210   5.734   1.971  0.3434 -0.5177 -1.1464
 1515TIP3    H226037   2.348   5.742   1.909  0.7111  1.1660 -0.1846
 1516TIP3   OH226038   5.879   5.941  10.527  0.4665  0.0939 -0.0784
 1516TIP3    H126039   5.922   5.870  10.574  0.3960  1.5586  2.3278
 1516TIP3    H226040   5.788   5.939  10.557  1.0290  2.8000  2.2447
 1517TIP3   OH226041   0.351   3.502   1.893 -0.5498 -0.2300  0.4890
 1517TIP3    H126042   0.402   3.451   1.957 -1.2573 -0.4635  0.8757
 1517TIP3    H226043   0.295   3.437   1.851 -1.3565  0.2046  0.8817
 1518TIP3   OH226044   5.175   6.497  14.162  0.2502 -0.6169 -0.3202
 1518TIP3    H126045   5.105   6.557  14.137  2.4749  1.5273 -1.7596
 1518TIP3    H226046   5.181   6.506  14.257 -0.3389  0.4458 -0.3665
 1519TIP3   OH226047   1.828   2.999  14.227  0.0275  0.1288 -0.3448
 1519TIP3    H126048   1.831   3.088  14.263 -1.5115  0.4516 -0.9280
 1519TIP3    H226049   1.744   2.964  14.258  0.7459 -1.2423  0.1218
 1520TIP3   OH226050   3.820   3.251   5.178  0.1221 -0.3987 -0.2443
 1520TIP3    H126051   3.853   3.161   5.182  1.3977  0.0865  1.5062
 1520TIP3    H226052   3.833   3.284   5.267 -0.3939  1.5027 -0.8463
 1521TIP3   OH226053   2.980   6.108  15.290  0.6286  0.1725  0.2259
 1521TIP3    H126054   2.894   6.082  15.324  0.8853  2.4654  2.8883
 1521TIP3    H226055   3.038   6.035  15.312 -0.0506 -0.1116  1.1082
 1522TIP3   OH226056   5.191   3.059   3.663  0.3507 -0.0332 -0.0710
 1522TIP3    H126057   5.164   3.151   3.658  1.2735  0.2272 -0.8071
 1522TIP3    H226058   5.275   3.057   3.616  0.2230 -1.2977 -0.2869
 1523TIP3   OH226059   0.169   6.725  15.568  0.3311  0.2422  0.3184
 1523TIP3    H126060   0.146   6.803  15.620  1.6228  1.6224 -1.0559
 1523TIP3    H226061   0.213   6.668  15.631 -1.2160  0.2794  1.5141
 1524TIP3   OH226062   3.259   6.453  10.820  0.1336  0.3415  0.1645
 1524TIP3    H126063   3.334   6.434  10.763 -1.5791 -0.2855 -2.0012
 1524TIP3    H226064   3.219   6.368  10.837  1.6303  0.2256  4.0267
 1525TIP3   OH226065   2.404   5.297  10.515  0.9031 -0.0171  0.0754
 1525TIP3    H126066   2.377   5.383  10.483  0.8749 -0.2426 -0.5086
 1525TIP3    H226067   2.324   5.245  10.512  1.4396 -0.8276 -2.1051
 1526TIP3   OH226068   2.843   1.158  12.501 -0.4221  0.5224 -0.0820
 1526TIP3    H126069   2.824   1.073  12.542 -2.7530  0.4922 -1.1177
 1526TIP3    H226070   2.831   1.221  12.571  0.4361  0.1137  0.4631
 1527TIP3   OH226071   5.405   0.353   3.638  0.3019  0.5923  0.4513
 1527TIP3    H126072   5.325   0.308   3.666 -0.7344  2.1741  0.1870
 1527TIP3    H226073   5.476   0.300   3.671 -0.8627 -1.0174  0.4739
 1528TIP3   OH226074   6.467   4.997  11.338 -0.0749  0.5693  0.2965
 1528TIP3    H126075   6.402   4.973  11.273 -1.4111  0.1834  1.7088
 1528TIP3    H226076   6.441   4.950  11.417  2.8757 -0.9171  0.5324
 1529TIP3   OH226077   6.080   1.487  10.702 -0.3094  0.1738 -0.4286
 1529TIP3    H126078   6.058   1.577  10.678 -0.1150  0.2970 -0.1463
 1529TIP3    H226079   6.175   1.484  10.696 -0.2684  0.1662  0.1950
 1530TIP3   OH226080   1.413   3.606   4.982 -0.0437  0.3256 -0.2522
 1530TIP3    H126081   1.334   3.615   4.928  0.1578 -0.0193 -0.6058
 1530TIP3    H226082   1.382   3.563   5.061 -0.3293  0.7744 -0.1150
 1531TIP3   OH226083   2.682   2.318   2.239 -0.1593 -0.3751  0.4885
 1531TIP3    H126084   2.598   2.362   2.254 -0.7367 -0.6371 -1.6626
 1531TIP3    H226085   2.662   2.251   2.173  2.0102  0.5006 -1.1834
 1532TIP3   OH226086   5.534   1.566  14.097  0.5893 -0.2536  0.2297
 1532TIP3    H126087   5.440   1.587  14.103  0.6784  0.0023  0.7853
 1532TIP3    H226088   5.543   1.520  14.014  0.0174 -0.0008  0.0241
 1533TIP3   OH226089   4.665   1.821   3.826  0.2751 -0.1937 -0.2805
 1533TIP3    H126090   4.619   1.884   3.881 -1.0537 -0.2986 -1.2183
 1533TIP3    H226091   4.724   1.874   3.772  0.6273  0.0343  0.3205
 1534TIP3   OH226092   4.999   0.419  13.506  0.0604  0.1575  0.3335
 1534TIP3    H126093   4.955   0.486  13.453 -0.6081  0.4010  1.1571
 1534TIP3    H226094   5.015   0.347  13.446 -0.6369  0.4413 -0.2116
 1535TIP3   OH226095   6.261   1.266   1.701  0.3440  0.0527  0.8485
 1535TIP3    H126096   6.170   1.293   1.707  1.0130  3.2000 -1.1394
 1535TIP3    H226097   6.309   1.331   1.752  1.6808 -0.2125 -0.0250
 1536TIP3   OH226098   2.631   4.326  12.112  0.2704  0.3259  0.4561
 1536TIP3    H126099   2.578   4.360  12.185 -0.5354  1.5882 -0.6571
 1536TIP3    H226100   2.612   4.386  12.040  2.3729  0.1230 -0.3179
 1537TIP3   OH226101   5.772   5.335   1.370 -0.2437  0.4250 -0.1041
 1537TIP3    H126102   5.791   5.309   1.280  0.6980  1.2844 -0.1779
 1537TIP3    H226103   5.685   5.299   1.388 -0.4812  0.3121 -1.3828
 1538TIP3   OH226104   3.061   0.285   2.264 -0.5769  0.0698  0.0948
 1538TIP3    H126105   3.097   0.218   2.323  0.4420 -0.0911 -0.6866
 1538TIP3    H226106   3.106   0.270   2.181 -0.9777  1.1899 -0.3344
 1539TIP3   OH226107   5.467   0.399  11.121  0.1113  0.3148 -0.2938
 1539TIP3    H126108   5.539   0.408  11.183  0.0413  0.5276 -0.2417
 1539TIP3    H226109   5.429   0.487  11.114  1.1685  0.6817 -1.9259
 1540TIP3   OH226110   3.811   2.378   5.312  0.4621 -0.3991  0.2252
 1540TIP3    H126111   3.895   2.343   5.342  1.4966  1.8165  0.0709
 1540TIP3    H226112   3.758   2.384   5.391  0.8517 -0.7097  0.5165
 1541TIP3   OH226113   1.016   6.680  11.942  0.0536  0.2028  0.5379
 1541TIP3    H126114   0.943   6.634  11.984  1.7289 -1.0923  2.2012
 1541TIP3    H226115   1.020   6.764  11.987 -2.0016  1.4648 -1.4077
 1542TIP3   OH226116   5.820   4.498  11.823  0.1906  0.3439  0.2204
 1542TIP3    H126117   5.867   4.418  11.847  0.1760  0.2385 -0.0958
 1542TIP3    H226118   5.737   4.467  11.788 -0.4353  0.5574  1.4695
 1543TIP3   OH226119   1.974   6.670  14.858  0.1792 -0.2776 -0.3840
 1543TIP3    H126120   2.037   6.664  14.930  1.3203 -0.1674 -1.3433
 1543TIP3    H226121   2.016   6.726  14.793 -1.0107 -0.0226 -0.9695
 1544TIP3   OH226122   1.920   5.015  12.827 -0.0614 -0.2808 -0.1984
 1544TIP3    H126123   1.864   4.939  12.813 -0.4058 -0.2230  0.7660
 1544TIP3    H226124   1.878   5.062  12.900  0.3920  0.5874 -0.4882
 1545TIP3   OH226125   0.880   0.856   4.397  0.0236  0.2386 -0.1252
 1545TIP3    H126126   0.856   0.937   4.442  2.5878  1.6989 -1.1817
 1545TIP3    H226127   0.967   0.835   4.431  0.8435 -0.1608 -2.3039
 1546TIP3   OH226128   5.042   3.564  12.650  0.0530 -0.2757  0.1080
 1546TIP3    H126129   4.948   3.578  12.636 -0.0612 -1.1793 -0.0599
 1546TIP3    H226130   5.075   3.650  12.678 -1.0859 -0.2940  1.6475
 1547TIP3   OH226131   4.813   2.484  16.914 -0.3547  0.3938  0.6341
 1547TIP3    H126132   4.771   2.410  16.869 -0.3539  0.6709  0.1688
 1547TIP3    H226133   4.883   2.444  16.966  0.1852  0.1424 -0.2562
 1548TIP3   OH226134   3.818   5.428   0.286  0.1801 -0.1134 -0.6532
 1548TIP3    H126135   3.856   5.485   0.352 -0.3845  0.6172 -0.9544
 1548TIP3    H226136   3.829   5.340   0.322  0.6256  0.2121  0.0290
 1549TIP3   OH226137   3.796   5.100   4.065 -0.0372 -0.1060  0.4499
 1549TIP3    H126138   3.804   5.107   3.970  0.3522 -2.2796  0.2679
 1549TIP3    H226139   3.702   5.098   4.082 -0.1080  0.4468  0.1198
 1550TIP3   OH226140   4.358   1.896  16.297 -0.5307 -0.5323  0.3426
 1550TIP3    H126141   4.426   1.902  16.230 -0.5637  0.3903  0.3792
 1550TIP3    H226142   4.344   1.802  16.309  0.2377 -0.7204 -0.1691
 1551TIP3   OH226143   5.525   4.402  16.197  0.1562 -0.2840  0.1714
 1551TIP3    H126144   5.513   4.473  16.134 -1.6625 -0.8665 -0.1956
 1551TIP3    H226145   5.438   4.388  16.234  0.8623 -1.0927  1.5828
 1552TIP3   OH226146   6.643   5.801  14.017  0.8847  0.5031 -0.1712
 1552TIP3    H126147   6.700   5.763  13.949 -0.9490  0.3039 -1.6826
 1552TIP3    H226148   6.639   5.734  14.085  2.6571  0.6381  0.1008
 1553TIP3   OH226149   1.030   2.059   1.544 -0.2277 -0.0534  0.0514
 1553TIP3    H126150   0.958   2.122   1.550 -1.1513 -0.8601 -1.7352
 1553TIP3    H226151   1.009   1.992   1.609  0.4530  1.1117  1.5411
 1554TIP3   OH226152   4.449   3.272   4.802 -0.1790  0.4291  0.3862
 1554TIP3    H126153   4.445   3.188   4.756 -2.1546  0.8453 -0.2927
 1554TIP3    H226154   4.437   3.249   4.894 -1.2109 -0.0051  0.1504
 1555TIP3   OH226155   6.187   2.225  12.447  0.4510 -0.1895 -0.3027
 1555TIP3    H126156   6.222   2.229  12.358  0.5855  0.0677 -0.2398
 1555TIP3    H226157   6.168   2.316  12.470  0.6216 -0.2314  0.0129
 1556TIP3   OH226158   1.482   4.822   5.792 -0.1154 -0.3137  0.4474
 1556TIP3    H126159   1.536   4.900   5.782  1.7314 -1.5694 -0.0853
 1556TIP3    H226160   1.431   4.837   5.871  0.8072  1.0737  0.8040
 1557TIP3   OH226161   5.998   6.605  11.949 -0.4134  0.4798  0.0333
 1557TIP3    H126162   5.922   6.651  11.985 -0.9692  1.0159 -1.7279
 1557TIP3    H226163   5.981   6.513  11.969 -0.9383  0.7039  0.6714
 1558TIP3   OH226164   6.650   0.166  11.814  0.3364 -0.1619 -0.0886
 1558TIP3    H126165   6.670   0.140  11.903  2.1998  0.4692 -0.2837
 1558TIP3    H226166   6.623   0.086  11.770 -1.6929 -0.3042  1.2691
 1559TIP3   OH226167   6.306   1.237  15.245 -0.3204  0.6866 -0.2201
 1559TIP3    H126168   6.382   1.180  15.232 -0.5374 -0.4481  2.6221
 1559TIP3    H226169   6.342   1.325  15.248  0.3793  0.5219 -2.1045
 1560TIP3   OH226170   2.842   1.610   5.290  0.2443  0.1000 -0.1164
 1560TIP3    H126171   2.850   1.555   5.368 -0.9940 -1.2611 -0.8913
 1560TIP3    H226172   2.750   1.636   5.289  0.9263  2.8336  0.5972
 1561TIP3   OH226173   0.246   1.956  14.991  0.1102 -0.2225  0.0564
 1561TIP3    H126174   0.256   1.886  14.926 -0.2192 -0.7177  0.5352
 1561TIP3    H226175   0.336   1.982  15.012  0.2275 -0.2861 -0.3467
 1562TIP3   OH226176   4.574   4.918  15.129  0.0935 -0.2300 -0.5934
 1562TIP3    H126177   4.545   4.832  15.097  1.3229 -0.3961 -1.3085
 1562TIP3    H226178   4.603   4.964  15.050 -2.0348  1.4894 -0.4707
 1563TIP3   OH226179   4.890   6.403  14.170 -0.1598  0.4493 -0.0414
 1563TIP3    H126180   4.946   6.330  14.195  1.4351  1.8732  0.7455
 1563TIP3    H226181   4.851   6.377  14.086  0.8680 -1.0115 -0.0820
 1564TIP3   OH226182   4.620   2.939   5.695  0.0330 -0.3608 -0.0168
 1564TIP3    H126183   4.689   2.911   5.756 -0.6284 -0.5043  0.6885
 1564TIP3    H226184   4.634   2.885   5.618  0.5407 -0.5858  0.2217
 1565TIP3   OH226185   5.186   6.494   4.915 -0.5015 -0.2899 -0.1207
 1565TIP3    H126186   5.262   6.438   4.898 -1.0560 -0.9513 -0.4395
 1565TIP3    H226187   5.140   6.450   4.987  0.1176  0.8098  0.9892
 1566TIP3   OH226188   2.378   6.124   2.645  0.2055 -0.6247 -0.3177
 1566TIP3    H126189   2.334   6.079   2.717 -0.2222  0.3412  0.0465
 1566TIP3    H226190   2.470   6.128   2.671  0.1433 -0.7468 -0.0790
 1567TIP3   OH226191   1.995   1.286   2.912 -0.0668 -0.1990  0.9047
 1567TIP3    H126192   1.957   1.364   2.871  0.2634  0.0341  1.0411
 1567TIP3    H226193   1.996   1.221   2.841  2.8588  0.9560 -0.2694
 1568TIP3   OH226194   4.382   1.317   5.433 -0.1801 -0.2093  0.0082
 1568TIP3    H126195   4.348   1.243   5.383 -2.3149  1.5821 -1.4051
 1568TIP3    H226196   4.453   1.352   5.380 -0.2720 -0.2611 -0.1484
 1569TIP3   OH226197   5.918   5.492   6.291  0.1854 -0.2560  0.2472
 1569TIP3    H126198   5.835   5.494   6.242  1.0741 -0.8342 -1.3636
 1569TIP3    H226199   5.904   5.428   6.360 -0.5106 -0.8385 -0.4178
 1570TIP3   OH226200   0.128   6.609   6.305  0.3612 -0.1212 -0.0940
 1570TIP3    H126201   0.078   6.528   6.312 -0.3940  0.2613 -0.8745
 1570TIP3    H226202   0.190   6.606   6.378 -0.5621 -0.7793  0.6839
 1571TIP3   OH226203   0.088   6.001  17.061 -0.6445 -0.4076 -0.6860
 1571TIP3    H126204   0.019   5.975  17.121 -0.1466  1.4334  0.7501
 1571TIP3    H226205   0.163   6.022  17.117 -0.1964  1.5187 -1.8975
 1572TIP3   OH226206   2.395   0.889   1.878 -0.6584  0.4669  0.7186
 1572TIP3    H126207   2.484   0.856   1.864 -0.4848  0.4586  1.7845
 1572TIP3    H226208   2.351   0.819   1.926 -0.8144  1.0318  1.4244
 1573TIP3   OH226209   1.645   6.304   4.839 -0.2728 -0.5718 -0.2040
 1573TIP3    H126210   1.655   6.211   4.858 -0.3747 -0.3410  1.0669
 1573TIP3    H226211   1.692   6.317   4.756  0.6312 -1.5514  0.1339
 1574TIP3   OH226212   6.838   6.210  15.426  0.0833 -0.2258  0.0498
 1574TIP3    H126213   6.850   6.305  15.430  0.5682 -0.3194  1.0541
 1574TIP3    H226214   6.800   6.194  15.339  0.9827  0.7744 -0.5473
 1575TIP3   OH226215   5.006   3.377  14.669  0.3634 -0.4460  0.2981
 1575TIP3    H126216   5.050   3.294  14.652  1.4865  0.4432 -1.3906
 1575TIP3    H226217   4.950   3.359  14.745  1.9282 -2.2411  1.1184
 1576TIP3   OH226218   2.935   4.241   5.012  0.4167  0.0090  0.4571
 1576TIP3    H126219   3.000   4.289   4.961 -0.7249  1.3446  0.1977
 1576TIP3    H226220   2.968   4.243   5.102  0.4915  1.0943  0.4108
 1577TIP3   OH226221   1.621   2.832   0.058 -0.0742  0.6074 -0.6597
 1577TIP3    H126222   1.687   2.892   0.093 -1.4968  1.4011  0.8282
 1577TIP3    H226223   1.582   2.879  -0.016  1.9537 -0.4806 -2.5440
 1578TIP3   OH226224   4.416   6.040  11.427  0.2045 -0.0375  0.0941
 1578TIP3    H126225   4.475   6.055  11.501 -2.6395 -3.0675  3.3364
 1578TIP3    H226226   4.455   5.965  11.381  0.2049 -0.4034  0.6793
 1579TIP3   OH226227   3.795   5.253  13.911 -1.0182 -0.4161  0.3717
 1579TIP3    H126228   3.763   5.202  13.985  2.4485 -3.5049  0.0599
 1579TIP3    H226229   3.762   5.207  13.834 -2.0790  0.9742 -0.0521
 1580TIP3   OH226230   6.733   0.536  15.079  0.0591 -0.3260 -0.0351
 1580TIP3    H126231   6.721   0.524  15.173 -0.0802  0.4828  0.0565
 1580TIP3    H226232   6.652   0.503  15.041  0.6305 -1.8548  0.0188
 1581TIP3   OH226233   5.549   1.755  11.084  0.5265  0.1040 -0.0348
 1581TIP3    H126234   5.557   1.666  11.050 -2.6365 -0.3889  0.1188
 1581TIP3    H226235   5.571   1.811  11.010  0.8233 -0.8501 -0.6920
 1582TIP3   OH226236   1.426   1.689  15.074  0.2529  0.0948  0.2749
 1582TIP3    H126237   1.455   1.670  15.163 -0.2007  0.3633  0.4817
 1582TIP3    H226238   1.505   1.716  15.028  0.6477 -0.8906  0.3578
 1583TIP3   OH226239   6.453   0.486   1.507  0.3369  0.4307 -0.4427
 1583TIP3    H126240   6.539   0.445   1.504  0.7521  1.2938 -0.6752
 1583TIP3    H226241   6.445   0.532   1.423 -1.2430 -1.3573 -1.3454
 1584TIP3   OH226242   3.843   1.055   5.363 -0.4971  0.3858 -0.2120
 1584TIP3    H126243   3.919   1.024   5.314 -1.1419 -2.1415  0.2578
 1584TIP3    H226244   3.847   1.150   5.355  2.3683  0.3183 -0.6873
 1585TIP3   OH226245   6.493   0.411  14.403  0.7316 -0.3173  1.0244
 1585TIP3    H126246   6.549   0.334  14.407  0.6868 -0.3801  0.4650
 1585TIP3    H226247   6.434   0.402  14.478  1.6457 -0.1138  1.7726
 1586TIP3   OH226248   4.160   5.159  12.837 -0.1268 -0.2659  1.3127
 1586TIP3    H126249   4.121   5.159  12.749 -0.4107  0.7806  1.4277
 1586TIP3    H226250   4.244   5.115  12.826 -0.1184 -0.0566  0.4923
 1587TIP3   OH226251   2.248   3.347   5.758 -0.1255  0.2036  0.5201
 1587TIP3    H126252   2.257   3.253   5.772  0.4605  0.1309 -0.2827
 1587TIP3    H226253   2.173   3.372   5.813 -0.0009 -0.6377  1.0977
 1588TIP3   OH226254   0.170   5.494  12.561  0.3318 -0.4048  0.1054
 1588TIP3    H126255   0.130   5.438  12.628  1.3595  1.2988  2.2766
 1588TIP3    H226256   0.098   5.513  12.501 -1.1568 -0.5200  1.7432
 1589TIP3   OH226257   3.394   0.296   3.561  0.1874  0.3630 -0.0541
 1589TIP3    H126258   3.436   0.244   3.629 -1.4882 -1.8435 -0.5718
 1589TIP3    H226259   3.459   0.361   3.536  1.0582  0.9370  3.2368
 1590TIP3   OH226260   2.761   5.077  10.571  0.2785 -0.0430 -0.1973
 1590TIP3    H126261   2.799   5.019  10.505  1.3609 -0.8455  1.0735
 1590TIP3    H226262   2.808   5.056  10.652 -2.9817 -1.2844  1.5856
 1591TIP3   OH226263   5.429   0.516  13.653 -0.0977 -0.0733 -0.2330
 1591TIP3    H126264   5.372   0.493  13.726  0.0073 -1.2705 -0.5050
 1591TIP3    H226265   5.452   0.607  13.668 -0.4827 -0.1587  0.9514
 1592TIP3   OH226266   3.534   0.726   3.783 -0.0465 -0.2785 -0.3633
 1592TIP3    H126267   3.622   0.728   3.822 -0.0742 -2.9445  0.0417
 1592TIP3    H226268   3.536   0.795   3.716  1.6201  1.1497  1.0427
 1593TIP3   OH226269   3.763   3.858  15.695  0.5342 -0.9777  0.0142
 1593TIP3    H126270   3.787   3.842  15.786  0.5847 -2.4148 -0.2276
 1593TIP3    H226271   3.669   3.877  15.698  0.1439 -2.7777  0.2141
 1594TIP3   OH226272   1.852   3.854   4.742 -0.3954 -0.2146 -0.2332
 1594TIP3    H126273   1.829   3.763   4.725 -2.2830 -0.1812  1.7118
 1594TIP3    H226274   1.898   3.851   4.827 -1.0731  0.6909  0.1793
 1595TIP3   OH226275   3.217   5.569  11.869 -0.2298 -0.0008  0.1846
 1595TIP3    H126276   3.174   5.540  11.950  1.1019  0.4089  1.0827
 1595TIP3    H226277   3.156   5.631  11.830 -2.1184 -2.2153 -0.5915
 1596TIP3   OH226278   4.668   2.146  13.317 -0.1367 -0.0372 -0.1868
 1596TIP3    H126279   4.669   2.198  13.398 -0.5662 -0.0885 -0.1460
 1596TIP3    H226280   4.701   2.205  13.250 -0.6248  0.2973 -0.1420
 1597TIP3   OH226281   4.711   3.682  12.797  0.5177 -0.1182 -0.1620
 1597TIP3    H126282   4.621   3.683  12.831 -0.0639  0.0861 -1.6118
 1597TIP3    H226283   4.765   3.662  12.873 -0.7273  0.0645  0.8124
 1598TIP3   OH226284   6.823   2.769  12.342 -0.1590 -0.0829 -0.3126
 1598TIP3    H126285   6.742   2.808  12.309 -0.3658  0.3654  0.6742
 1598TIP3    H226286   6.811   2.768  12.437  0.4152 -1.3246 -0.2430
 1599TIP3   OH226287   4.868   6.354   2.418  0.1686  0.0283  0.7869
 1599TIP3    H126288   4.855   6.418   2.487  0.8760  1.5057 -0.3762
 1599TIP3    H226289   4.958   6.324   2.429  0.1779  0.0284  0.7168
 1600TIP3   OH226290   4.009   6.694  11.574  0.3452  0.3798  0.3516
 1600TIP3    H126291   4.078   6.660  11.517  0.6807 -0.1953  1.0832
 1600TIP3    H226292   4.055   6.731  11.649 -0.0478  1.9095 -0.1186
 1601TIP3   OH226293   2.182   1.088  16.690 -0.1530  0.6098 -0.1181
 1601TIP3    H126294   2.218   1.014  16.739 -1.4399  0.3466  0.4574
 1601TIP3    H226295   2.242   1.160  16.708  0.8635 -0.1555 -0.3247
 1602TIP3   OH226296   4.778   0.204   3.943  0.3776 -0.0209  0.1468
 1602TIP3    H126297   4.811   0.240   3.860  1.2630 -0.9767  0.0711
 1602TIP3    H226298   4.853   0.209   4.003 -0.8842  2.9870  1.7192
 1603TIP3   OH226299   0.011   3.641   1.621 -0.2801 -0.3247  1.1359
 1603TIP3    H126300   0.004   3.546   1.629  0.7814 -0.3588  1.8248
 1603TIP3    H226301  -0.006   3.674   1.710 -1.7928  0.2268  0.6772
 1604TIP3   OH226302   2.321   2.070   0.243  0.5127  0.4050  0.3801
 1604TIP3    H126303   2.247   2.063   0.303 -0.1155 -0.9288 -0.5089
 1604TIP3    H226304   2.398   2.060   0.299 -0.0532 -0.7968  0.9866
 1605TIP3   OH226305   4.180   4.734  15.149 -0.4659  0.2528  0.1587
 1605TIP3    H126306   4.187   4.656  15.205 -0.6703  0.9625  1.2108
 1605TIP3    H226307   4.257   4.729  15.092  0.0122 -0.2592  0.8215
 1606TIP3   OH226308   2.299   4.133  13.614 -0.3270 -0.2498  0.2648
 1606TIP3    H126309   2.281   4.092  13.699 -0.5301  0.2669  0.4749
 1606TIP3    H226310   2.292   4.227  13.631  0.5126 -0.1121 -0.1243
 1607TIP3   OH226311   3.292   2.708   0.980 -0.3205 -0.0833  0.4356
 1607TIP3    H126312   3.269   2.777   1.043 -0.5217 -0.3412  0.6444
 1607TIP3    H226313   3.383   2.686   1.001 -0.0305  0.5792 -0.0626
 1608TIP3   OH226314   0.676   1.454  12.382  0.4434 -0.3649 -0.6624
 1608TIP3    H126315   0.746   1.426  12.440 -1.1246  0.1062  1.5889
 1608TIP3    H226316   0.596   1.444  12.434 -0.7559  2.9928 -1.6270
 1609TIP3   OH226317   6.795   4.535   1.407 -0.5109 -0.2214  0.7947
 1609TIP3    H126318   6.730   4.516   1.339 -0.2150 -1.4955  0.8359
 1609TIP3    H226319   6.793   4.458   1.464  2.9417 -1.6631 -0.7384
 1610TIP3   OH226320   0.435   3.571  11.518 -0.5543  0.0037  0.2933
 1610TIP3    H126321   0.452   3.568  11.424 -0.6340  0.0758  0.2757
 1610TIP3    H226322   0.390   3.654  11.531  1.0222  0.8222  0.6649
 1611TIP3   OH226323   2.117   4.118   1.895  0.2447 -0.0910 -0.3380
 1611TIP3    H126324   2.063   4.090   1.969 -2.3986  2.2041 -1.2153
 1611TIP3    H226325   2.187   4.170   1.934 -2.7983  3.7354  0.6627
 1612TIP3   OH226326   3.912   0.952   4.603 -0.0284 -0.0932  0.4682
 1612TIP3    H126327   3.900   1.047   4.608 -1.7650 -0.2790  0.5174
 1612TIP3    H226328   3.883   0.920   4.688 -1.0923 -0.7935 -0.1391
 1613TIP3   OH226329   6.428   1.320   3.122  0.6931  0.1812 -0.2269
 1613TIP3    H126330   6.428   1.414   3.103 -0.4688  0.4717  1.0692
 1613TIP3    H226331   6.481   1.312   3.201 -0.0737 -0.1057  0.2651
 1614TIP3   OH226332   2.141   0.050   2.480 -0.7427  0.2879 -0.1815
 1614TIP3    H126333   2.079  -0.010   2.521 -0.3514 -0.4191 -0.6036
 1614TIP3    H226334   2.126   0.133   2.524 -2.4251  0.2943 -0.6947
 1615TIP3   OH226335   6.117   2.064  12.839 -0.1074 -0.3462  0.0575
 1615TIP3    H126336   6.186   2.000  12.818 -0.5319 -0.5947 -0.6023
 1615TIP3    H226337   6.149   2.146  12.800  0.5115 -0.0958  1.0388
 1616TIP3   OH226338   4.398   6.342  16.300 -0.0567 -0.1131  0.4688
 1616TIP3    H126339   4.426   6.322  16.210  2.9379 -2.9212  1.8014
 1616TIP3    H226340   4.474   6.385  16.339 -1.2896  1.0013  1.7290
 1617TIP3   OH226341   6.336   5.122   4.643  0.4555  0.3327  0.1538
 1617TIP3    H126342   6.259   5.121   4.700  0.8956  1.9414  0.8330
 1617TIP3    H226343   6.321   5.195   4.583  0.5844 -0.5564 -0.9957
 1618TIP3   OH226344   3.846   3.984  16.974  0.3638  0.4286 -0.0257
 1618TIP3    H126345   3.898   3.940  16.906  1.0727  0.5779  0.4097
 1618TIP3    H226346   3.882   3.950  17.056  0.2483  1.0721  0.2919
 1619TIP3   OH226347   5.348   1.137  14.185 -0.2606  0.0805  0.4364
 1619TIP3    H126348   5.263   1.177  14.166 -0.5927  0.7996  3.0044
 1619TIP3    H226349   5.410   1.210  14.180 -0.0614 -0.1017  0.2363
 1620TIP3   OH226350   0.172   5.778   4.175 -0.0310 -0.0813  0.1694
 1620TIP3    H126351   0.194   5.860   4.219  0.5424 -0.3576  0.4083
 1620TIP3    H226352   0.100   5.742   4.225  0.0955 -0.0008  0.4102
 1621TIP3   OH226353   1.979   2.075   2.576 -0.3076  0.0493  0.4626
 1621TIP3    H126354   2.029   2.051   2.655 -0.8434 -2.5884  0.1040
 1621TIP3    H226355   2.030   2.038   2.504 -0.5269  1.2501 -0.3264
 1622TIP3   OH226356   6.355   3.035   0.586 -0.3471  0.1882 -0.6459
 1622TIP3    H126357   6.304   3.111   0.613 -1.1451  0.3294 -2.3798
 1622TIP3    H226358   6.431   3.072   0.540  0.1242 -0.0512 -0.0708
 1623TIP3   OH226359   4.274   5.356   5.575 -0.4796  0.3030 -0.0161
 1623TIP3    H126360   4.316   5.345   5.660  1.0074  0.5492 -0.6988
 1623TIP3    H226361   4.231   5.272   5.558 -0.5478  0.1563  0.8307
 1624TIP3   OH226362   4.618   1.866  13.296 -0.6922  0.0789  0.0244
 1624TIP3    H126363   4.643   1.843  13.386  1.6823  0.1011 -0.5881
 1624TIP3    H226364   4.619   1.962  13.295  0.0427  0.0709 -0.2187
 1625TIP3   OH226365   4.141   5.833  12.595  0.5740 -0.2636 -1.3081
 1625TIP3    H126366   4.226   5.868  12.620  0.4292 -1.6576  1.5265
 1625TIP3    H226367   4.161   5.754  12.545  1.0765 -1.6176  0.8881
 1626TIP3   OH226368   2.220   0.594  13.176  0.1408 -0.2066  0.0765
 1626TIP3    H126369   2.285   0.644  13.225 -0.9981  1.5864 -0.1784
 1626TIP3    H226370   2.168   0.660  13.130 -1.7678 -1.5905  0.1436
 1627TIP3   OH226371   0.409   2.325   4.457 -0.6608  0.1214  0.0348
 1627TIP3    H126372   0.394   2.366   4.542 -0.4461 -0.1467  0.2035
 1627TIP3    H226373   0.337   2.357   4.402  1.0514  2.9781 -0.6922
 1628TIP3   OH226374   1.371   3.783   2.155  0.2344 -0.0592  0.6764
 1628TIP3    H126375   1.320   3.855   2.117  0.1866  0.7765  2.2302
 1628TIP3    H226376   1.362   3.711   2.092  0.6558  1.4076 -1.1475
 1629TIP3   OH226377   4.824   0.149   0.824  0.5618 -0.1210  0.3588
 1629TIP3    H126378   4.914   0.130   0.798  0.6586  1.3148 -0.5009
 1629TIP3    H226379   4.771   0.124   0.749  0.0416 -2.2972  1.3882
 1630TIP3   OH226380   1.604   1.402  11.398 -0.1131  0.7687 -0.0699
 1630TIP3    H126381   1.564   1.376  11.315  1.4455  2.3015 -1.3727
 1630TIP3    H226382   1.695   1.423  11.375  1.1073 -1.1679  2.4831
 1631TIP3   OH226383   6.743   4.210  12.053  0.4881  0.3888  0.3743
 1631TIP3    H126384   6.699   4.145  11.999 -0.6951  0.4881  1.1799
 1631TIP3    H226385   6.689   4.289  12.044  0.3765  0.4616  1.5096
 1632TIP3   OH226386   6.820   6.567  12.212 -0.0665  0.6166 -0.4784
 1632TIP3    H126387   6.726   6.558  12.201 -0.1122 -0.1617  0.3743
 1632TIP3    H226388   6.833   6.658  12.239 -0.4941  0.9210 -1.2840
 1633TIP3   OH226389   4.086   5.328   3.266 -0.3929 -0.1428 -0.0024
 1633TIP3    H126390   3.997   5.302   3.289 -1.3081  0.8576 -2.1458
 1633TIP3    H226391   4.110   5.392   3.332 -1.8771  0.6989 -0.2392
 1634TIP3   OH226392   5.759   2.549   1.315 -0.2139 -0.2171 -0.2665
 1634TIP3    H126393   5.798   2.470   1.278 -0.6348 -0.2058 -0.7384
 1634TIP3    H226394   5.678   2.518   1.357  0.5056 -0.3196  1.1251
 1635TIP3   OH226395   4.786   4.446  11.546 -0.2995  0.1204  0.0901
 1635TIP3    H126396   4.710   4.462  11.490 -2.1785 -0.5881  2.2704
 1635TIP3    H226397   4.795   4.524  11.599 -1.6654 -1.0440  2.1391
 1636TIP3   OH226398   5.589   6.536  14.823  0.0014  0.3547 -0.9657
 1636TIP3    H126399   5.538   6.548  14.743  0.7391 -0.4024 -1.5654
 1636TIP3    H226400   5.657   6.604  14.819 -1.6565  2.2138  0.4635
 1637TIP3   OH226401   5.921   5.959   5.683 -0.0700 -0.9721  0.2979
 1637TIP3    H126402   5.842   5.907   5.668 -0.0030 -2.3268  3.6720
 1637TIP3    H226403   5.992   5.905   5.649 -0.4383 -0.2091 -1.8122
 1638TIP3   OH226404   0.791   5.816   4.124 -0.0487  0.2422 -0.1559
 1638TIP3    H126405   0.793   5.912   4.129 -2.3534  0.3681 -0.4437
 1638TIP3    H226406   0.742   5.797   4.044  0.1534 -1.1805  0.0329
 1639TIP3   OH226407   1.605   4.052   0.082  0.6286  0.3559 -1.0635
 1639TIP3    H126408   1.533   4.010   0.035  0.0570  1.3808 -1.1250
 1639TIP3    H226409   1.684   4.021   0.038  0.3236 -1.6659 -0.3092
 1640TIP3   OH226410   6.753   0.306  13.876 -0.5976  0.7129 -0.2535
 1640TIP3    H126411   6.660   0.295  13.895 -1.4559  3.9355 -1.9393
 1640TIP3    H226412   6.765   0.265  13.790  0.0974 -1.4716  0.8084
 1641TIP3   OH226413   1.981   1.098   5.176  0.3295  0.2346 -0.2986
 1641TIP3    H126414   1.971   1.066   5.086  0.4477 -1.0252  0.1159
 1641TIP3    H226415   1.937   1.182   5.177  0.1604  0.1724 -1.4931
 1642TIP3   OH226416   2.750   5.830  11.958  0.4102  0.0380  0.3128
 1642TIP3    H126417   2.800   5.912  11.957  0.5553 -0.0399  0.7813
 1642TIP3    H226418   2.705   5.831  12.043  0.4517 -0.3901  0.3407
 1643TIP3   OH226419   0.167   3.494  11.745 -0.2298  0.2395  0.0447
 1643TIP3    H126420   0.084   3.448  11.752 -0.0316 -0.0356  0.6027
 1643TIP3    H226421   0.230   3.426  11.719 -0.1354  0.4012 -0.1564
 1644TIP3   OH226422   1.024   1.695  10.543  0.6820 -0.0715 -0.1759
 1644TIP3    H126423   1.031   1.786  10.511 -0.2962 -0.2378 -0.9137
 1644TIP3    H226424   0.934   1.670  10.523  0.7156 -0.9496  0.7399
 1645TIP3   OH226425   0.639   1.340  11.649  0.2273  0.5928  0.2817
 1645TIP3    H126426   0.709   1.399  11.680  0.6986  1.0314 -1.4873
 1645TIP3    H226427   0.657   1.330  11.556 -2.3544  1.0967 -0.3346
 1646TIP3   OH226428   1.270   4.402   3.452  1.0549 -0.2995 -0.3624
 1646TIP3    H126429   1.184   4.360   3.454  0.1330  1.3280 -2.4338
 1646TIP3    H226430   1.323   4.350   3.513 -1.0466 -2.0582  0.1003
 1647TIP3   OH226431   5.188   1.346  16.630  0.0131 -0.6231 -0.2146
 1647TIP3    H126432   5.246   1.403  16.680  0.9395 -0.7528 -1.1241
 1647TIP3    H226433   5.123   1.406  16.593 -0.2338 -0.4327  0.5043
 1648TIP3   OH226434   4.604   6.365   1.594 -0.4816  0.1080  0.3434
 1648TIP3    H126435   4.599   6.347   1.500  1.6641 -0.0111  0.2133
 1648TIP3    H226436   4.605   6.460   1.600 -0.1873  0.1145  0.2070
 1649TIP3   OH226437   0.455   4.116  12.928 -0.2406  0.1946  0.4790
 1649TIP3    H126438   0.388   4.067  12.879  0.0820 -1.2769  1.4496
 1649TIP3    H226439   0.439   4.207  12.904 -2.4120 -0.1240  0.4368
 1650TIP3   OH226440   0.809   0.333   0.117 -0.3733 -0.0367 -0.3019
 1650TIP3    H126441   0.725   0.297   0.091 -0.0912 -0.4873 -0.6047
 1650TIP3    H226442   0.863   0.328   0.038  0.5607 -1.6303  0.3833
 1651TIP3   OH226443   3.109   4.590  13.022  0.3939  1.0357  0.2734
 1651TIP3    H126444   3.134   4.651  12.953 -1.7045  1.3862 -0.2283
 1651TIP3    H226445   3.063   4.519  12.976 -0.1339  0.7643  1.1952
 1652TIP3   OH226446   0.736   4.406   5.204  0.3519  0.1900  0.8065
 1652TIP3    H126447   0.758   4.437   5.116 -1.8647  0.7994  0.4168
 1652TIP3    H226448   0.651   4.364   5.195  0.0024  0.3817  2.6926
 1653TIP3   OH226449   1.992   2.115   0.927  0.3296  0.1604 -0.1968
 1653TIP3    H126450   1.977   2.022   0.943  0.7775 -0.0092 -0.7311
 1653TIP3    H226451   1.909   2.157   0.950 -0.9893 -0.7227 -2.9468
 1654TIP3   OH226452   1.584   0.460   0.009 -0.0042  0.1201 -0.0797
 1654TIP3    H126453   1.532   0.456  -0.071 -0.3187 -1.8033  0.1871
 1654TIP3    H226454   1.672   0.479  -0.021 -0.6301  2.5873 -0.5997
 1655TIP3   OH226455   2.349   6.723   3.857  0.4894 -0.7604 -0.4959
 1655TIP3    H126456   2.390   6.717   3.944 -0.0574 -0.8251 -0.2371
 1655TIP3    H226457   2.255   6.726   3.875  0.4252  1.9335 -0.9457
 1656TIP3   OH226458   6.121   1.337   6.061 -0.3276  0.5767 -0.1693
 1656TIP3    H126459   6.043   1.295   6.098  0.3297 -0.4041  0.1332
 1656TIP3    H226460   6.104   1.338   5.967  0.6080 -2.5720 -0.4780
 1657TIP3   OH226461   2.350   5.663   4.114 -0.4117  0.2583 -0.1311
 1657TIP3    H126462   2.339   5.636   4.205  1.7279  0.0879  0.1255
 1657TIP3    H226463   2.267   5.705   4.092 -0.2559  2.3164  2.6147
 1658TIP3   OH226464   3.757   2.226  14.245  0.1177  1.2576 -0.5143
 1658TIP3    H126465   3.727   2.225  14.336  1.3296 -0.8331 -0.0488
 1658TIP3    H226466   3.800   2.310  14.234  2.2375  0.5725  1.7175
 1659TIP3   OH226467   2.185   2.229   1.993  0.1209 -0.0548  0.2242
 1659TIP3    H126468   2.269   2.270   2.011  1.3656 -1.7219 -1.4392
 1659TIP3    H226469   2.128   2.301   1.967  1.0131  1.0939  1.3227
 1660TIP3   OH226470   6.323   2.604   4.220 -0.6901 -0.5266  0.4559
 1660TIP3    H126471   6.350   2.623   4.310 -0.1995 -1.9101  0.6254
 1660TIP3    H226472   6.370   2.524   4.198 -1.3901 -0.6129 -0.7727
 1661TIP3   OH226473   2.865   2.501  11.732 -0.1408 -0.0509  0.1906
 1661TIP3    H126474   2.945   2.509  11.783 -0.2748  1.3315  0.2257
 1661TIP3    H226475   2.888   2.538  11.646 -0.1243 -1.6788 -0.5489
 1662TIP3   OH226476   1.879   5.660   0.483  0.5557  0.4329 -0.4244
 1662TIP3    H126477   1.930   5.727   0.437  1.8435 -0.5012 -0.4289
 1662TIP3    H226478   1.901   5.672   0.575  2.5090 -1.2724 -0.5908
 1663TIP3   OH226479   4.527   3.149   1.528 -0.0621 -0.3368 -0.0882
 1663TIP3    H126480   4.468   3.120   1.597 -0.4924 -0.5355 -0.5351
 1663TIP3    H226481   4.549   3.070   1.479 -1.0759  0.0304 -1.1872
 1664TIP3   OH226482   4.626   6.441  13.315  0.1951  0.2780  0.1735
 1664TIP3    H126483   4.684   6.369  13.343 -1.1623  0.0347  2.6161
 1664TIP3    H226484   4.586   6.409  13.235  0.9830 -0.9165  0.2228
 1665TIP3   OH226485   6.722   5.186   1.063  0.4032  0.5312  0.2800
 1665TIP3    H126486   6.697   5.103   1.102 -2.5963  0.8778 -0.6779
 1665TIP3    H226487   6.687   5.253   1.122  1.0006  1.1106  0.0019
 1666TIP3   OH226488   5.449   4.221   4.398  0.0927  0.0867 -0.5805
 1666TIP3    H126489   5.514   4.233   4.467 -0.9052  0.6334  0.2832
 1666TIP3    H226490   5.463   4.131   4.367 -0.7419 -0.8819  1.6899
 1667TIP3   OH226491   0.258   3.117   5.023  0.1109  0.1614  0.3588
 1667TIP3    H126492   0.207   3.124   5.103  0.2009  1.8057  0.3198
 1667TIP3    H226493   0.219   3.182   4.964  1.0469  0.1118 -0.3357
 1668TIP3   OH226494   3.675   2.591   1.463  0.0404  0.9434 -0.0112
 1668TIP3    H126495   3.693   2.623   1.551 -0.5639  0.5399  0.2598
 1668TIP3    H226496   3.646   2.500   1.475 -0.9888  1.1844 -0.5302
 1669TIP3   OH226497   3.671   4.746  12.052 -0.1991  0.3560  0.5113
 1669TIP3    H126498   3.668   4.816  11.986 -0.0968 -1.3546 -1.3852
 1669TIP3    H226499   3.746   4.769  12.107  0.7382  0.9964 -0.9649
 1670TIP3   OH226500   1.288   3.855   5.107 -0.1716  0.4903  0.5491
 1670TIP3    H126501   1.246   3.770   5.113  0.4335  0.2460  1.5964
 1670TIP3    H226502   1.324   3.871   5.195  1.2981  0.9903 -0.1016
 1671TIP3   OH226503   6.170   3.804   0.349 -0.1112 -0.1875 -0.4768
 1671TIP3    H126504   6.138   3.822   0.260  1.7312 -0.2555 -1.1868
 1671TIP3    H226505   6.261   3.834   0.348  0.4755 -1.8175  0.8534
 1672TIP3   OH226506   4.805   2.536   1.488  0.2679  0.1547 -0.1224
 1672TIP3    H126507   4.766   2.454   1.456 -0.5667  0.2591  0.5825
 1672TIP3    H226508   4.732   2.582   1.531  0.6006  1.5229 -0.9746
 1673TIP3   OH226509   5.017   3.860   0.270  0.3895 -0.2779 -0.4764
 1673TIP3    H126510   5.100   3.895   0.302  0.7254 -1.7761  0.3556
 1673TIP3    H226511   5.030   3.766   0.266 -1.1863 -0.5166 -0.6174
 1674TIP3   OH226512   6.737   5.972   0.101  0.2506 -0.1432 -0.0996
 1674TIP3    H126513   6.665   6.023   0.140 -0.5695 -1.8156  0.6737
 1674TIP3    H226514   6.807   5.977   0.166  0.7750  1.2484 -0.7254
 1675TIP3   OH226515   5.080   0.707   4.385 -0.2002  0.3567  0.4270
 1675TIP3    H126516   5.015   0.636   4.387  0.4159 -0.3257 -1.4965
 1675TIP3    H226517   5.048   0.767   4.319  0.4262  0.7425  0.4677
 1676TIP3   OH226518   5.220   5.671  17.067 -0.1512 -0.0448 -0.2434
 1676TIP3    H126519   5.170   5.633  16.994  0.5021 -1.9584  0.2536
 1676TIP3    H226520   5.271   5.741  17.026  0.5517 -1.3641 -1.7581
 1677TIP3   OH226521   6.732   2.752   4.646 -0.3640 -0.7235 -0.0201
 1677TIP3    H126522   6.727   2.706   4.562  1.8863 -2.2626  0.5924
 1677TIP3    H226523   6.725   2.844   4.623 -2.3382 -1.2103 -1.5948
 1678TIP3   OH226524   0.249   6.237  11.944  0.0049 -0.4089 -0.2547
 1678TIP3    H126525   0.192   6.257  11.870 -0.7018 -1.4365 -0.0080
 1678TIP3    H226526   0.200   6.268  12.021  0.9210  1.0544 -0.2142
 1679TIP3   OH226527   1.058   5.650  12.649 -0.6611  0.3366  0.1906
 1679TIP3    H126528   1.102   5.707  12.586 -0.9500 -1.8099 -2.1196
 1679TIP3    H226529   1.000   5.708  12.697  0.8409  2.3668 -0.3009
 1680TIP3   OH226530   5.689   6.277   5.991  0.5337  0.3517  0.3279
 1680TIP3    H126531   5.647   6.212   5.935 -1.7047  1.4965  0.5626
 1680TIP3    H226532   5.733   6.337   5.929  1.6464 -0.6846  0.0658
 1681TIP3   OH226533   0.444   5.708  14.226  0.1583 -0.0902 -0.7305
 1681TIP3    H126534   0.526   5.687  14.181 -0.2236  0.1042 -1.5283
 1681TIP3    H226535   0.419   5.627  14.270  1.0637 -0.0001 -0.0219
 1682TIP3   OH226536   2.187   5.567  15.535 -0.6817 -0.1478  0.2599
 1682TIP3    H126537   2.204   5.622  15.611  0.1316  0.9822 -0.6978
 1682TIP3    H226538   2.099   5.594  15.506  1.0866  3.6649 -2.4773
 1683TIP3   OH226539   4.897   4.696  15.175  0.6272 -0.4689 -0.7832
 1683TIP3    H126540   4.976   4.748  15.159 -0.1647  0.4520 -1.9230
 1683TIP3    H226541   4.921   4.607  15.149  1.2141 -0.1536 -1.3457
 1684TIP3   OH226542   4.536   0.497  14.817  0.1880  0.0141 -0.6211
 1684TIP3    H126543   4.582   0.555  14.756 -0.0414  0.3892 -0.4386
 1684TIP3    H226544   4.552   0.409  14.783 -0.4617  0.2563 -1.5894
 1685TIP3   OH226545   2.067   6.004  15.033 -0.0172 -0.7133  0.2392
 1685TIP3    H126546   2.090   6.012  14.941 -0.3359 -0.1269  0.2035
 1685TIP3    H226547   2.135   5.949  15.071  0.1128 -0.9576 -0.3457
 1686TIP3   OH226548   4.425   1.946  12.552  0.4248 -0.3638 -0.3522
 1686TIP3    H126549   4.472   1.898  12.621 -0.2574 -2.5597 -1.3103
 1686TIP3    H226550   4.492   1.967  12.487  1.1330  1.9985  1.0355
 1687TIP3   OH226551   1.867   2.604   0.679  0.1450 -0.1979  0.0726
 1687TIP3    H126552   1.902   2.664   0.613  2.3926 -1.5092 -0.0354
 1687TIP3    H226553   1.884   2.517   0.643 -1.4810 -0.9337  0.9937
 1688TIP3   OH226554   0.681   4.514  10.660  0.6695 -0.5991  0.2575
 1688TIP3    H126555   0.646   4.603  10.667  0.0625 -0.8372  0.3509
 1688TIP3    H226556   0.754   4.512  10.722 -0.5918 -0.7679  1.8152
 1689TIP3   OH226557   4.789   2.385   2.876  0.5789  0.0214 -0.2575
 1689TIP3    H126558   4.806   2.297   2.842  1.7479  1.0075 -2.4437
 1689TIP3    H226559   4.695   2.384   2.896  0.5482 -1.6962 -0.3178
 1690TIP3   OH226560   2.108   3.561  16.028 -0.4465 -0.1205 -0.7448
 1690TIP3    H126561   2.018   3.584  16.003  0.8541  3.1268 -2.9650
 1690TIP3    H226562   2.156   3.557  15.946  1.0547 -4.8107  0.0559
 1691TIP3   OH226563   0.821   4.504   2.314 -0.0392 -0.1560  0.5818
 1691TIP3    H126564   0.833   4.410   2.323  0.7390  0.0588  2.1979
 1691TIP3    H226565   0.877   4.529   2.240  1.8171 -0.6225  1.7637
 1692TIP3   OH226566   1.604   1.675   5.680 -0.3834 -0.3679  0.0316
 1692TIP3    H126567   1.553   1.655   5.602 -0.3875  0.6348 -0.2307
 1692TIP3    H226568   1.599   1.770   5.689 -0.0613 -0.4323  1.0314
 1693TIP3   OH226569   2.424   4.254  15.000  0.3539 -0.1026 -0.3508
 1693TIP3    H126570   2.364   4.273  14.928 -0.4753  0.3062  0.4171
 1693TIP3    H226571   2.511   4.265  14.963 -0.0378 -0.7641 -1.5126
 1694TIP3   OH226572   2.778   1.534  16.035 -0.3062 -0.8455  0.4069
 1694TIP3    H126573   2.786   1.442  16.009 -0.2195 -0.4470 -1.0978
 1694TIP3    H226574   2.767   1.580  15.952  2.0802  0.7708  0.8825
 1695TIP3   OH226575   2.656   0.613   1.089 -0.1616  0.1373 -0.1327
 1695TIP3    H126576   2.749   0.621   1.067 -0.7528 -1.5013 -4.0333
 1695TIP3    H226577   2.653   0.544   1.156  1.4234  0.9724  0.8794
 1696TIP3   OH226578   5.282   2.631  15.746  0.3428  0.4678  0.0286
 1696TIP3    H126579   5.267   2.573  15.821  0.5915 -1.0184 -1.0180
 1696TIP3    H226580   5.377   2.644  15.744  0.1787  2.2843  1.1880
 1697TIP3   OH226581   3.757   6.083   2.914  0.1326 -0.0584 -0.2078
 1697TIP3    H126582   3.747   5.997   2.956  0.0844  0.3310  0.6130
 1697TIP3    H226583   3.673   6.126   2.928  0.0800  0.0447 -0.8177
 1698TIP3   OH226584   2.093   3.662   2.368  0.1511 -0.5956 -0.3851
 1698TIP3    H126585   2.099   3.599   2.296 -0.5096  0.4327 -1.3741
 1698TIP3    H226586   2.110   3.747   2.327 -1.4829  0.1621  0.4127
 1699TIP3   OH226587   3.286   4.732   3.382 -0.0505 -0.0124  0.1962
 1699TIP3    H126588   3.285   4.650   3.334  0.1151  0.6841 -1.0262
 1699TIP3    H226589   3.217   4.722   3.448 -0.6149 -0.8064 -0.4931
 1700TIP3   OH226590   3.252   6.228  12.966 -0.2229  0.3619  0.2593
 1700TIP3    H126591   3.294   6.149  12.932  0.4628  0.9340 -0.2341
 1700TIP3    H226592   3.245   6.213  13.060  0.6697  0.0662  0.2862
 1701TIP3   OH226593   6.461   0.105  11.495 -0.6003 -0.4385  0.4522
 1701TIP3    H126594   6.480   0.079  11.405 -2.4897 -2.3487  0.5142
 1701TIP3    H226595   6.451   0.022  11.542 -0.8510  0.5115  2.1590
 1702TIP3   OH226596   4.329   1.535   5.664  0.0641 -0.2549 -0.0466
 1702TIP3    H126597   4.382   1.570   5.735 -1.1572  0.9273  0.3158
 1702TIP3    H226598   4.387   1.535   5.588  0.9532 -0.2020  0.6199
 1703TIP3   OH226599   6.196   5.740  15.143 -0.0838 -0.5987 -0.0074
 1703TIP3    H126600   6.150   5.699  15.217 -2.6187  1.1433 -0.4807
 1703TIP3    H226601   6.145   5.818  15.124  2.4097  0.7860 -1.5294
 1704TIP3   OH226602   4.587   6.541   3.409 -1.0047  0.2376 -0.1610
 1704TIP3    H126603   4.546   6.513   3.491  1.7781 -1.1473  0.8716
 1704TIP3    H226604   4.519   6.526   3.342 -2.5094 -0.9507  1.5365
 1705TIP3   OH226605   3.064   1.878  13.396  0.0863 -0.2986  0.1823
 1705TIP3    H126606   3.013   1.839  13.325 -2.5380 -0.2526  1.9248
 1705TIP3    H226607   3.115   1.805  13.431 -0.2909 -0.8203 -0.3259
 1706TIP3   OH226608   4.016   1.065  11.738  0.0499  0.0349  0.6567
 1706TIP3    H126609   3.982   0.996  11.794  0.6337 -0.3468  0.5504
 1706TIP3    H226610   4.070   1.119  11.796 -0.1324  0.2026  0.6685
 1707TIP3   OH226611   0.481   6.401   1.739  0.3397  0.3585 -0.2090
 1707TIP3    H126612   0.563   6.417   1.785 -0.4137  1.7219  0.7223
 1707TIP3    H226613   0.422   6.471   1.768 -0.4939  0.6980 -2.4829
 1708TIP3   OH226614   6.324   1.582   0.301  0.6666  0.4486  0.4336
 1708TIP3    H126615   6.317   1.532   0.383  0.9640 -2.0457 -0.9629
 1708TIP3    H226616   6.234   1.593   0.271  0.6321  0.0140  0.3638
 1709TIP3   OH226617   5.436   1.438   0.906  0.1965 -0.2214 -0.6447
 1709TIP3    H126618   5.370   1.500   0.937  0.4810  0.6368 -1.6662
 1709TIP3    H226619   5.388   1.380   0.846  0.2005 -0.1302 -0.7366
 1710TIP3   OH226620   0.236   5.890  14.497  0.1920  0.3230 -0.1903
 1710TIP3    H126621   0.162   5.830  14.483 -1.1209  2.0406 -0.9172
 1710TIP3    H226622   0.248   5.890  14.592 -0.1151 -0.6835 -0.1382
 1711TIP3   OH226623   3.560   2.378  11.441  0.3541  0.5015  0.6399
 1711TIP3    H126624   3.560   2.402  11.534 -0.1191 -2.0703  1.3712
 1711TIP3    H226625   3.652   2.381  11.415  0.5405  0.7610  1.3288
 1712TIP3   OH226626   0.646   4.795  12.641 -0.0925  0.4095  0.3397
 1712TIP3    H126627   0.611   4.706  12.646 -0.0911  0.3686 -0.3905
 1712TIP3    H226628   0.727   4.787  12.591 -0.5810  0.9577 -0.5671
 1713TIP3   OH226629   0.408   6.134   5.243 -0.5946 -0.0580 -0.0733
 1713TIP3    H126630   0.392   6.071   5.314 -1.5835  0.4602  0.1819
 1713TIP3    H226631   0.480   6.096   5.193 -0.4849 -0.8783  0.6851
 1714TIP3   OH226632   0.113   1.108  13.277 -0.0764  0.2117  0.0120
 1714TIP3    H126633   0.088   1.192  13.238  0.3089  0.5452  0.4693
 1714TIP3    H226634   0.058   1.044  13.233 -1.3399  0.8497  0.6038
 1715TIP3   OH226635   0.342   0.291  13.206 -0.0880 -0.6831 -0.2719
 1715TIP3    H126636   0.397   0.244  13.142  0.8085  0.0202 -0.0410
 1715TIP3    H226637   0.376   0.264  13.291  1.6698  1.6546 -0.1078
 1716TIP3   OH226638   1.790   4.266   4.015 -1.2015  0.3431  0.1687
 1716TIP3    H126639   1.826   4.251   4.103 -1.8158 -1.0439  0.2094
 1716TIP3    H226640   1.719   4.203   4.007 -0.3353 -0.4689 -1.8134
 1717TIP3   OH226641   4.970   6.844   4.644  0.0237 -0.3007 -0.1842
 1717TIP3    H126642   5.043   6.905   4.658 -0.1714  0.0703 -0.7740
 1717TIP3    H226643   4.976   6.783   4.718  2.3069 -1.6614 -1.3619
 1718TIP3   OH226644   2.606   0.657   3.953 -0.1456  0.0681 -0.7127
 1718TIP3    H126645   2.539   0.591   3.938  2.0842 -2.3205 -0.8642
 1718TIP3    H226646   2.676   0.635   3.891  2.1474  0.3404  1.5948
 1719TIP3   OH226647   4.182   6.795  16.647  0.3615  0.0462 -0.9034
 1719TIP3    H126648   4.095   6.757  16.631 -0.4344  0.9658  0.8471
 1719TIP3    H226649   4.233   6.771  16.570 -1.8792  0.7761 -2.7548
 1720TIP3   OH226650   0.863   0.066  13.095 -0.1484 -0.9692 -0.4959
 1720TIP3    H126651   0.956   0.080  13.113 -0.5222  2.9562 -0.8778
 1720TIP3    H226652   0.824   0.049  13.181  0.5369  0.1883  0.0559
 1721TIP3   OH226653   6.461   1.653   4.294  0.0775  0.1798 -0.1952
 1721TIP3    H126654   6.544   1.635   4.250 -0.6208  0.0872 -1.5468
 1721TIP3    H226655   6.396   1.603   4.244 -0.7531 -0.0233  1.0402
 1722TIP3   OH226656   0.914   2.422   4.521  0.3802  0.5660 -0.8165
 1722TIP3    H126657   1.008   2.422   4.542  0.1205  0.1778  0.3835
 1722TIP3    H226658   0.877   2.490   4.576 -0.3411 -0.5912  0.1671
 1723TIP3   OH226659   6.437   6.248   0.523 -0.2277  0.0264 -0.1628
 1723TIP3    H126660   6.487   6.254   0.605  1.3041  0.0269 -1.0555
 1723TIP3    H226661   6.413   6.339   0.504 -1.3124 -0.0573  0.6764
 1724TIP3   OH226662   3.420   4.662  13.882 -0.1472  0.5264 -0.0590
 1724TIP3    H126663   3.414   4.566  13.883  0.0754  0.5079 -0.4123
 1724TIP3    H226664   3.351   4.691  13.941  0.1208  0.1276  0.4624
 1725TIP3   OH226665   6.729   4.784   1.573 -0.2099 -0.1223 -0.3028
 1725TIP3    H126666   6.636   4.790   1.594 -0.3124  0.5225 -0.8982
 1725TIP3    H226667   6.770   4.855   1.621 -0.3552  0.9592 -1.7236
 1726TIP3   OH226668   6.070   1.057   1.979  0.0745  0.7381 -0.0449
 1726TIP3    H126669   6.123   0.999   2.034  0.3852  0.7434 -0.3369
 1726TIP3    H226670   6.062   1.010   1.896  1.8992  1.9059 -0.9368
 1727TIP3   OH226671   0.633   6.446  11.480 -0.0303 -0.1600  0.1229
 1727TIP3    H126672   0.545   6.471  11.508  0.1356 -0.2044  0.6912
 1727TIP3    H226673   0.683   6.439  11.561  0.7573  0.8464 -0.2514
 1728TIP3   OH226674   1.178   2.830   0.648  0.1115 -0.2082 -0.4960
 1728TIP3    H126675   1.086   2.808   0.665  0.5054 -0.9250  0.8600
 1728TIP3    H226676   1.193   2.910   0.698  0.3928 -0.4396 -0.2111
 1729TIP3   OH226677   0.065   6.803  12.292 -0.8515  0.1040 -0.0811
 1729TIP3    H126678   0.064   6.823  12.385  0.9085 -0.3596  0.0715
 1729TIP3    H226679   0.126   6.866  12.254 -0.5142 -0.5780 -0.6894
 1730TIP3   OH226680   0.515   1.786   5.368  0.0679  0.1753  0.2668
 1730TIP3    H126681   0.534   1.702   5.327 -0.3382 -0.8592  2.0624
 1730TIP3    H226682   0.506   1.848   5.296 -1.0412 -1.6056 -1.1811
 1731TIP3   OH226683   5.055   1.881  10.435  0.0481  0.2621 -0.7706
 1731TIP3    H126684   5.004   1.805  10.464  2.0205 -1.0400 -0.4494
 1731TIP3    H226685   5.071   1.865  10.342  1.4011 -0.3490 -0.4620
 1732TIP3   OH226686   6.294   2.693  15.588  0.9154  0.2506  0.2737
 1732TIP3    H126687   6.272   2.612  15.635  0.6182  0.1745  0.0027
 1732TIP3    H226688   6.284   2.670  15.495 -0.1287  0.8826  0.2209
 1733TIP3   OH226689   4.078   5.748   5.149  0.3732 -0.2887  0.4061
 1733TIP3    H126690   4.067   5.843   5.144 -0.6969 -0.4396 -0.5701
 1733TIP3    H226691   4.044   5.725   5.236 -0.8294  0.0613  0.0528
 1734TIP3   OH226692   1.558   5.099   3.030  0.0381  0.3283 -0.0831
 1734TIP3    H126693   1.511   5.073   3.109 -0.0965 -2.9125 -1.0763
 1734TIP3    H226694   1.491   5.098   2.961  1.0002 -1.9690 -1.0764
 1735TIP3   OH226695   6.425   1.856   1.616  0.0881 -0.1307  0.5643
 1735TIP3    H126696   6.437   1.918   1.688 -2.1907 -0.8068  1.6197
 1735TIP3    H226697   6.349   1.890   1.568  1.1525 -0.0743 -1.1430
 1736TIP3   OH226698   1.924   0.740  14.423  0.0327  0.3539 -0.2744
 1736TIP3    H126699   1.860   0.762  14.355 -1.0865  1.8159  1.1808
 1736TIP3    H226700   1.992   0.806  14.415 -0.4737  0.9737  0.4858
 1737TIP3   OH226701   1.953   3.993  11.598 -0.1679  0.0463 -0.7391
 1737TIP3    H126702   1.870   4.034  11.622  0.3519  0.6864  0.0200
 1737TIP3    H226703   1.941   3.968  11.506 -2.0618 -2.1179  0.0116
 1738TIP3   OH226704   2.668   6.330  13.325 -0.0111 -0.1881 -0.2055
 1738TIP3    H126705   2.595   6.354  13.268  0.6312  1.0128 -0.5639
 1738TIP3    H226706   2.680   6.236  13.311 -0.0832  0.0139 -1.8075
 1739TIP3   OH226707   1.854   5.060  15.721 -0.0802 -0.0063 -0.0668
 1739TIP3    H126708   1.847   5.111  15.802  0.7969  0.1073 -0.0539
 1739TIP3    H226709   1.934   5.007  15.733  0.7735  0.9226 -1.3610
 1740TIP3   OH226710   4.663   1.690   6.209  0.0909  0.5602  0.1320
 1740TIP3    H126711   4.592   1.728   6.156 -0.2473 -0.8239 -0.4479
 1740TIP3    H226712   4.629   1.692   6.298 -0.7902 -0.2719 -0.1634
 1741TIP3   OH226713   4.301   2.784  13.653 -0.0245 -0.8898  0.0851
 1741TIP3    H126714   4.305   2.777  13.748 -0.2604  1.8613  0.3858
 1741TIP3    H226715   4.389   2.812  13.627 -0.4565  0.2100 -0.2578
 1742TIP3   OH226716   2.033   5.523  13.345 -0.0498 -0.0960 -0.3638
 1742TIP3    H126717   1.992   5.609  13.335  0.2609 -0.0362 -1.2830
 1742TIP3    H226718   2.103   5.536  13.409 -2.6897 -0.6632  2.8751
 1743TIP3   OH226719   3.631   0.932   2.702 -0.2070 -0.3171  0.3012
 1743TIP3    H126720   3.632   1.027   2.719  0.4831 -0.1684 -0.5046
 1743TIP3    H226721   3.723   0.906   2.704 -0.4899 -1.3948  2.6087
 1744TIP3   OH226722   5.464   6.620  14.599 -0.5344  0.0153 -0.1197
 1744TIP3    H126723   5.389   6.588  14.548 -2.2771  2.5047  0.6823
 1744TIP3    H226724   5.477   6.710  14.569  0.7835  0.3254  1.2574
 1745TIP3   OH226725   5.185   2.603   1.114 -0.0310  0.1875 -0.3689
 1745TIP3    H126726   5.135   2.610   1.196  1.1315  0.7917  0.3083
 1745TIP3    H226727   5.155   2.677   1.061  0.0801  0.4900 -0.0094
 1746TIP3   OH226728   4.114   1.024  16.181 -0.2819  0.0924 -0.0460
 1746TIP3    H126729   4.144   1.006  16.270  2.2005 -0.1330 -0.8483
 1746TIP3    H226730   4.068   1.108  16.188  0.9009  0.6824  1.2892
 1747TIP3   OH226731   2.747   4.359   3.240 -0.5599 -0.7383 -0.0619
 1747TIP3    H126732   2.710   4.372   3.153  1.1353 -0.9630 -0.8660
 1747TIP3    H226733   2.682   4.306   3.286 -2.3712  0.9883 -0.5063
 1748TIP3   OH226734   5.801   3.165  16.711 -0.2498 -0.1670 -0.2483
 1748TIP3    H126735   5.891   3.196  16.712  0.4598 -2.0643 -0.8874
 1748TIP3    H226736   5.748   3.245  16.721  1.4308  1.2662 -1.8687
 1749TIP3   OH226737   1.492   3.840  11.129  0.3433 -0.1003 -0.2356
 1749TIP3    H126738   1.419   3.833  11.067  1.1919  0.7430 -1.3723
 1749TIP3    H226739   1.486   3.929  11.164  3.4318  1.8492 -3.8829
 1750TIP3   OH226740   4.881   4.627   1.167  0.6153  0.1880 -0.1257
 1750TIP3    H126741   4.864   4.536   1.192  0.0794  0.8386  2.1245
 1750TIP3    H226742   4.944   4.621   1.095  0.3472 -1.9485 -0.2556
 1751TIP3   OH226743   2.584   2.703  15.447 -0.1038 -0.1036 -0.1608
 1751TIP3    H126744   2.504   2.676  15.492  0.4004 -0.3555  0.5914
 1751TIP3    H226745   2.651   2.705  15.515  0.7244 -0.7180 -0.9267
 1752TIP3   OH226746   4.053   1.329  15.459  0.0679  0.2823  0.3975
 1752TIP3    H126747   4.089   1.311  15.372  1.7061 -1.7964  1.4273
 1752TIP3    H226748   4.117   1.293  15.520 -1.5891  0.6222  2.4661
 1753TIP3   OH226749   6.589   5.976  11.800  0.1365  1.2384  0.5363
 1753TIP3    H126750   6.549   6.019  11.724  0.3391 -1.2016 -1.0563
 1753TIP3    H226751   6.683   5.981  11.784  0.1870  0.9123  0.7170
 1754TIP3   OH226752   1.512   5.832   3.148  0.0344 -0.1781  0.4403
 1754TIP3    H126753   1.540   5.920   3.173  0.1266 -0.2264  0.5082
 1754TIP3    H226754   1.585   5.776   3.173  0.5725 -0.1066 -0.8794
 1755TIP3   OH226755   1.438   2.244   1.140 -0.0861 -0.4832 -0.1353
 1755TIP3    H126756   1.453   2.217   1.230  1.3355 -1.1407 -0.5491
 1755TIP3    H226757   1.488   2.325   1.130 -0.8409 -0.0026 -0.1434
 1756TIP3   OH226758   5.196   6.508   3.824 -0.3556 -0.4085 -0.7886
 1756TIP3    H126759   5.173   6.569   3.755 -1.2063 -0.1845 -0.3153
 1756TIP3    H226760   5.287   6.530   3.847 -0.6204  0.6045 -0.6902
 1757TIP3   OH226761   0.651   0.428   2.198 -0.6007 -0.2990  0.0431
 1757TIP3    H126762   0.577   0.479   2.166 -0.7000 -0.6847 -0.3593
 1757TIP3    H226763   0.727   0.464   2.152 -0.9821 -2.1841 -2.3329
 1758TIP3   OH226764   2.204   5.182  17.130  0.6327  0.2373  0.6946
 1758TIP3    H126765   2.146   5.214  17.061 -0.5345  0.2139  1.6333
 1758TIP3    H226766   2.145   5.149  17.198  1.7430  0.2421  1.6987
 1759TIP3   OH226767   4.295   4.357   1.751 -0.0808  0.2616  0.0950
 1759TIP3    H126768   4.275   4.364   1.845 -1.5913 -0.5235 -0.1301
 1759TIP3    H226769   4.389   4.340   1.748 -0.3063 -1.7412  1.6041
 1760TIP3   OH226770   3.807   3.917   4.807  0.0136 -0.3710  0.1246
 1760TIP3    H126771   3.727   3.874   4.837 -0.2094 -0.7208 -0.9307
 1760TIP3    H226772   3.863   3.845   4.778  0.8158 -0.1437  1.0897
 1761TIP3   OH226773   1.964   4.179  15.386 -0.1052  0.1803 -0.4293
 1761TIP3    H126774   1.935   4.268  15.401 -1.9619 -0.1955 -1.5256
 1761TIP3    H226775   1.894   4.138  15.335  0.5959 -1.9652  0.1882
 1762TIP3   OH226776   1.142   2.694  13.777  0.0551 -0.0678  0.2463
 1762TIP3    H126777   1.146   2.623  13.713 -0.0891  1.2974 -1.3398
 1762TIP3    H226778   1.220   2.682  13.831  0.0284 -1.4114  0.0183
 1763TIP3   OH226779   5.647   1.938   1.202  0.3343  0.6452  0.0322
 1763TIP3    H126780   5.616   1.917   1.113  1.3713 -1.1270  0.0437
 1763TIP3    H226781   5.659   1.853   1.244  0.3702  1.4370  1.7217
 1764TIP3   OH226782   5.648   1.828  10.391 -0.6642  0.3736  0.2401
 1764TIP3    H126783   5.673   1.918  10.414 -0.6299  0.6721 -0.9097
 1764TIP3    H226784   5.728   1.789  10.356 -1.4129  0.9225 -2.2477
 1765TIP3   OH226785   5.658   6.397  12.317  0.6294  0.3946 -0.1572
 1765TIP3    H126786   5.754   6.390  12.315  0.7507  0.3155  2.4023
 1765TIP3    H226787   5.641   6.491  12.329  0.4987  0.2616  0.8613
 1766TIP3   OH226788   3.367   4.121   0.978 -0.4015  0.2888 -0.5825
 1766TIP3    H126789   3.415   4.077   1.049  0.0817  0.8991 -0.5187
 1766TIP3    H226790   3.411   4.092   0.898 -0.8585 -0.2909 -0.6299
 1767TIP3   OH226791   2.067   2.095   4.508  0.2178  0.1810 -0.1418
 1767TIP3    H126792   2.155   2.066   4.530 -0.6283 -1.6510  1.0612
 1767TIP3    H226793   2.055   2.175   4.559  0.8640 -0.0426  0.3740
 1768TIP3   OH226794   5.926   0.305   2.235 -0.6598 -0.4385 -0.2039
 1768TIP3    H126795   5.976   0.267   2.307 -0.7526 -0.1794 -0.0002
 1768TIP3    H226796   5.992   0.330   2.171 -0.6621 -1.7918 -0.7532
 1769TIP3   OH226797   5.608   4.065   5.330  0.5249 -0.2291 -0.0384
 1769TIP3    H126798   5.554   4.003   5.282 -0.2160 -0.2633  0.8140
 1769TIP3    H226799   5.682   4.083   5.271 -1.4640  1.5095 -2.2219
 1770TIP3   OH226800   0.896   2.203   5.075 -0.1132  0.3455 -0.1782
 1770TIP3    H126801   0.990   2.200   5.060 -0.1506 -1.3919 -0.3216
 1770TIP3    H226802   0.885   2.172   5.165 -0.5749 -0.3280 -0.4532
 1771TIP3   OH226803   6.486   4.102  11.324 -0.3081  0.5309 -0.4431
 1771TIP3    H126804   6.560   4.044  11.341  0.0743  0.8353 -1.0267
 1771TIP3    H226805   6.493   4.123  11.231 -0.3713  1.5926 -0.2204
 1772TIP3   OH226806   2.912   4.876   3.610 -0.7128 -0.8391  0.1230
 1772TIP3    H126807   2.850   4.882   3.682 -1.5369 -0.0241 -0.6393
 1772TIP3    H226808   2.862   4.900   3.532  0.6426  0.2305 -0.4674
 1773TIP3   OH226809   5.799   6.212  16.588 -0.0210 -0.3393 -0.0450
 1773TIP3    H126810   5.808   6.132  16.640  3.5875  0.6068  1.0732
 1773TIP3    H226811   5.810   6.183  16.497  0.2698 -1.2373  0.2682
 1774TIP3   OH226812   1.817   3.728  11.950  0.4362  0.4201  0.1014
 1774TIP3    H126813   1.727   3.703  11.969  0.8674 -0.6626  0.7912
 1774TIP3    H226814   1.809   3.795  11.881 -0.7827 -1.6508 -1.9206
 1775TIP3   OH226815   4.200   2.800   4.990  0.1020  0.4141  0.1516
 1775TIP3    H126816   4.143   2.804   5.067  1.5259 -0.9526  1.3274
 1775TIP3    H226817   4.169   2.724   4.941  1.6554 -1.1354  1.4693
 1776TIP3   OH226818   5.647   4.224   5.724  0.5402  0.1054  0.2525
 1776TIP3    H126819   5.740   4.225   5.748  0.6590  1.2614 -0.2149
 1776TIP3    H226820   5.603   4.192   5.803  1.2981 -0.0326  0.6300
 1777TIP3   OH226821   6.730   5.503  15.015 -0.1592  0.1488  0.4895
 1777TIP3    H126822   6.713   5.589  15.054 -0.1925  0.6802 -0.6734
 1777TIP3    H226823   6.757   5.522  14.925 -2.1174 -1.1569 -0.4221
 1778TIP3   OH226824   6.035   1.258   1.155  0.0531  0.4877 -0.2700
 1778TIP3    H126825   5.977   1.211   1.215 -1.4496  0.5115 -1.6510
 1778TIP3    H226826   6.053   1.341   1.199  0.0538 -0.0195  0.7234
 1779TIP3   OH226827   1.785   1.925   3.597 -0.2600 -0.4577  0.4373
 1779TIP3    H126828   1.835   1.847   3.623 -2.4723 -1.0683  3.4725
 1779TIP3    H226829   1.837   1.999   3.629  0.6292 -0.8160 -0.1485
 1780TIP3   OH226830   5.089   4.155  13.669  0.4212 -0.1728 -0.4362
 1780TIP3    H126831   5.004   4.128  13.704  0.5808 -0.7099 -0.4436
 1780TIP3    H226832   5.076   4.245  13.639  0.5146  0.6327  1.7690
 1781TIP3   OH226833   6.566   5.426   1.501 -0.0178  0.0133  0.3991
 1781TIP3    H126834   6.568   5.440   1.596  0.0306 -1.4245  0.6235
 1781TIP3    H226835   6.479   5.457   1.475 -1.2680 -2.4075  1.4205
 1782TIP3   OH226836   1.645   4.300  15.339 -0.1678 -0.2462  0.3898
 1782TIP3    H126837   1.637   4.215  15.295 -0.7375 -0.3773  0.7396
 1782TIP3    H226838   1.648   4.364  15.267  0.0681 -0.5430  0.1321
 1783TIP3   OH226839   2.649   2.958  11.417 -0.1595  0.1124 -0.2732
 1783TIP3    H126840   2.630   2.886  11.477 -0.5350 -1.3943 -2.1120
 1783TIP3    H226841   2.570   2.968  11.365 -0.1888  2.0404  0.0739
 1784TIP3   OH226842   4.819   0.433   2.013  0.5195 -0.3551  0.3329
 1784TIP3    H126843   4.826   0.372   1.939 -0.1684 -0.0104 -0.0281
 1784TIP3    H226844   4.863   0.389   2.085  0.4452 -1.0696 -0.0508
 1785TIP3   OH226845   6.149   4.528  15.137  0.3672 -0.2745  0.1273
 1785TIP3    H126846   6.233   4.569  15.117  0.1918 -0.0064 -0.0826
 1785TIP3    H226847   6.102   4.528  15.053  0.2441 -0.6231  0.1932
 1786TIP3   OH226848   3.631   5.211  14.972 -0.5427 -0.0501 -0.0504
 1786TIP3    H126849   3.645   5.118  14.992  0.3524  0.2163  0.6279
 1786TIP3    H226850   3.646   5.256  15.055  0.8119  0.8691 -0.7485
 1787TIP3   OH226851   2.278   3.216   5.268 -0.8356  0.4616  0.1061
 1787TIP3    H126852   2.288   3.266   5.349 -0.0942  0.1769  0.2020
 1787TIP3    H226853   2.368   3.200   5.239 -1.0056 -1.4053  0.4560
 1788TIP3   OH226854   0.899   5.073   1.115 -0.2669  0.1681  0.5078
 1788TIP3    H126855   0.840   5.148   1.123 -0.1761  0.0871  2.2104
 1788TIP3    H226856   0.940   5.064   1.201  3.3373  1.0539 -0.9203
 1789TIP3   OH226857   2.051   6.444   4.095 -0.0996 -0.0768 -0.0464
 1789TIP3    H126858   2.003   6.522   4.122 -0.1622  0.3054 -1.2279
 1789TIP3    H226859   2.051   6.447   4.000  1.5551 -0.5128 -0.0883
 1790TIP3   OH226860   1.354   4.974  13.176 -0.2353 -0.2639 -0.2433
 1790TIP3    H126861   1.439   5.010  13.153 -0.5599  0.4978 -0.2810
 1790TIP3    H226862   1.331   5.016  13.259 -0.3906 -0.7816 -0.0173
 1791TIP3   OH226863   3.462   2.185   2.942  0.0013 -0.1821 -0.3993
 1791TIP3    H126864   3.402   2.226   2.880 -0.4914  0.3814  0.4355
 1791TIP3    H226865   3.463   2.244   3.018 -0.5267 -1.5734  0.7337
 1792TIP3   OH226866   6.554   6.392  14.509  0.2983 -0.1224 -0.5342
 1792TIP3    H126867   6.485   6.452  14.534 -1.2465 -1.9961 -0.0559
 1792TIP3    H226868   6.621   6.447  14.470 -1.9171  1.6924 -2.0336
 1793TIP3   OH226869   1.246   4.208  13.520  0.2464 -0.4110  0.6767
 1793TIP3    H126870   1.170   4.262  13.543  1.2154  2.3596 -1.9913
 1793TIP3    H226871   1.210   4.139  13.464 -0.3129  1.5854 -1.6023
 1794TIP3   OH226872   1.345   1.569   4.986  0.4430 -0.3271 -0.5598
 1794TIP3    H126873   1.254   1.549   4.963 -0.2624  0.0516  1.7108
 1794TIP3    H226874   1.369   1.501   5.050  0.8679  1.0654  0.8116
 1795TIP3   OH226875   2.378   4.945  11.028 -0.1269  0.3353  0.3875
 1795TIP3    H126876   2.323   4.886  10.978 -1.5328  0.7293  1.4210
 1795TIP3    H226877   2.351   4.932  11.119  0.1037  1.9791  0.7159
 1796TIP3   OH226878   5.751   0.252  12.897 -0.4539 -0.0987 -0.2838
 1796TIP3    H126879   5.735   0.337  12.857  0.5867  0.2788  0.0564
 1796TIP3    H226880   5.845   0.252  12.916 -0.5766 -1.0358  0.3907
 1797TIP3   OH226881   0.076   4.747  15.568 -0.2277 -0.1263  0.2503
 1797TIP3    H126882   0.036   4.744  15.654  0.5764 -0.2479  0.6323
 1797TIP3    H226883   0.044   4.828  15.529  0.7273  0.8014  1.3376
 1798TIP3   OH226884   3.374   0.081   2.289  1.3801  0.0490 -0.6676
 1798TIP3    H126885   3.309   0.035   2.235  0.8250  0.4555 -0.3412
 1798TIP3    H226886   3.376   0.031   2.371  0.0414  1.1541  0.0843
 1799TIP3   OH226887   1.455   5.535  11.980 -0.6734 -0.2179  0.6136
 1799TIP3    H126888   1.389   5.573  11.922 -1.3269 -0.5662  1.1221
 1799TIP3    H226889   1.470   5.447  11.945 -1.0655 -0.4267  0.9774
 1800TIP3   OH226890   4.714   5.213   0.843  0.3440  0.0528 -0.4081
 1800TIP3    H126891   4.640   5.164   0.808  0.2459  0.5829 -0.9514
 1800TIP3    H226892   4.712   5.195   0.937 -1.0610  0.8122 -0.2650
 1801TIP3   OH226893   1.408   1.652  14.343 -0.2032  0.7189  0.0557
 1801TIP3    H126894   1.432   1.560  14.337  0.2994  0.9306 -1.9170
 1801TIP3    H226895   1.337   1.654  14.406 -2.0547 -1.4301 -1.7865
 1802TIP3   OH226896   2.183   1.088  12.848 -0.2458  0.1820 -0.0136
 1802TIP3    H126897   2.201   1.166  12.796 -2.2571  0.7472  0.0348
 1802TIP3    H226898   2.168   1.122  12.937 -1.4355 -0.1820 -0.0540
 1803TIP3   OH226899   0.559   2.459   1.566 -0.7678 -0.4592 -0.1478
 1803TIP3    H126900   0.485   2.434   1.511 -1.2013 -0.0929  0.2600
 1803TIP3    H226901   0.539   2.421   1.652  0.6743 -2.4134 -0.6076
 1804TIP3   OH226902   6.282   2.333  11.130  0.2215  0.6854  0.2532
 1804TIP3    H126903   6.285   2.293  11.043 -0.3784 -0.8847  0.9193
 1804TIP3    H226904   6.362   2.304  11.173  0.2067  0.9195  0.4411
 1805TIP3   OH226905   4.968   4.050  14.138  0.3021 -0.1158  0.4210
 1805TIP3    H126906   4.951   4.140  14.108  0.8232 -0.3322 -0.5532
 1805TIP3    H226907   4.891   4.027  14.189 -0.8716  0.0867 -1.1894
 1806TIP3   OH226908   4.432   0.711  16.553 -0.2120 -0.3581  0.0063
 1806TIP3    H126909   4.505   0.774  16.553  0.4521 -1.1007  1.3830
 1806TIP3    H226910   4.361   0.757  16.597  0.7667 -1.0512  2.4690
 1807TIP3   OH226911   1.134   4.613  13.772  0.1470 -0.6723  0.6501
 1807TIP3    H126912   1.224   4.608  13.804  0.6760  0.9002 -0.4444
 1807TIP3    H226913   1.135   4.562  13.691  0.1717 -0.3042  0.4158
 1808TIP3   OH226914   1.789   4.329  14.832 -0.4175  0.5446  0.4778
 1808TIP3    H126915   1.730   4.290  14.768 -1.2575  1.4646  0.6638
 1808TIP3    H226916   1.853   4.260  14.850  0.6290  0.6393 -2.2767
 1809TIP3   OH226917   3.952   6.236  13.330  0.3674 -0.2394 -0.7465
 1809TIP3    H126918   4.035   6.226  13.376  1.1028  1.4873 -1.6057
 1809TIP3    H226919   3.907   6.152  13.343 -0.1024  0.4405  4.2414
 1810TIP3   OH226920   6.566   6.013  11.280  0.0718  0.7421 -0.0869
 1810TIP3    H126921   6.543   5.920  11.275 -0.2473  0.8567 -1.1291
 1810TIP3    H226922   6.512   6.054  11.212  1.4728  1.4159 -0.8353
 1811TIP3   OH226923   5.013   5.800   2.530  1.0089 -0.1288  0.1643
 1811TIP3    H126924   4.955   5.725   2.514 -0.5553  0.7986  1.2499
 1811TIP3    H226925   5.010   5.813   2.624  2.3382  0.4883  0.1390
 1812TIP3   OH226926   4.628   6.033   5.443 -0.4114  0.2592 -0.0601
 1812TIP3    H126927   4.627   6.001   5.353  1.4457 -0.0809 -0.0133
 1812TIP3    H226928   4.710   5.997   5.480 -0.9945  0.6004  1.6778
 1813TIP3   OH226929   1.864   0.074   2.198 -0.3182 -0.3848  0.0548
 1813TIP3    H126930   1.870  -0.022   2.192  2.0375 -0.3810  1.1010
 1813TIP3    H226931   1.899   0.095   2.284 -1.5980  1.4020  0.1878
 1814TIP3   OH226932   3.436   4.652   2.455 -0.1509  0.0342 -0.0443
 1814TIP3    H126933   3.468   4.742   2.450 -0.1060 -0.0611 -2.3283
 1814TIP3    H226934   3.350   4.660   2.496  0.2616  0.9670  0.6962
 1815TIP3   OH226935   5.240   6.660  11.896  1.1939 -0.5570  0.6089
 1815TIP3    H126936   5.258   6.638  11.805  0.1992 -0.2552  0.3185
 1815TIP3    H226937   5.293   6.738  11.913  0.8627 -0.2062  0.0664
 1816TIP3   OH226938   0.955   3.807  15.053  0.2027  0.8357 -0.3260
 1816TIP3    H126939   0.987   3.848  14.972 -0.4925 -0.7908 -1.4759
 1816TIP3    H226940   0.926   3.880  15.107  0.4576  1.9612 -1.6456
 1817TIP3   OH226941   2.318   1.269   4.098  0.2854 -0.5703 -0.1948
 1817TIP3    H126942   2.389   1.299   4.155 -0.4518  0.0035  0.4337
 1817TIP3    H226943   2.328   1.321   4.019  0.2466 -0.1127  0.0993
 1818TIP3   OH226944   4.380   4.421  10.985 -0.0223 -0.1877  0.4054
 1818TIP3    H126945   4.320   4.492  10.968 -0.6123 -0.2432  2.0452
 1818TIP3    H226946   4.465   4.453  10.955 -0.5065  0.6976 -0.0455
 1819TIP3   OH226947   1.643   5.127  13.770 -0.4379 -0.0696 -0.3829
 1819TIP3    H126948   1.692   5.138  13.688 -0.1048  3.0959  0.1061
 1819TIP3    H226949   1.582   5.201  13.772 -0.2551  0.1282  2.3071
 1820TIP3   OH226950   4.090   1.064   4.040  0.3052  0.7153 -0.0683
 1820TIP3    H126951   4.124   1.004   3.974  3.1232  0.5494  1.3854
 1820TIP3    H226952   4.150   1.138   4.039  1.2467  0.1609  3.0266
 1821TIP3   OH226953   5.568   6.668  12.705 -0.0439 -0.3728  0.0029
 1821TIP3    H126954   5.611   6.751  12.685  0.1664 -0.2627  0.8652
 1821TIP3    H226955   5.539   6.677  12.796 -1.6225 -0.5630 -0.4475
 1822TIP3   OH226956   4.201   0.059   5.417 -0.1375  0.2707  0.1215
 1822TIP3    H126957   4.165  -0.017   5.463 -1.1014  1.0141  0.6134
 1822TIP3    H226958   4.156   0.134   5.455  0.6764  1.0868 -0.4842
 1823TIP3   OH226959   3.794   1.122   2.408  0.0244  0.0406  0.3991
 1823TIP3    H126960   3.705   1.135   2.442 -0.4766 -1.3784 -0.3155
 1823TIP3    H226961   3.850   1.171   2.469 -1.4225  3.2411 -0.6088
 1824TIP3   OH226962   3.523   4.119   6.118  0.0733  0.1262  0.3921
 1824TIP3    H126963   3.530   4.123   6.214 -0.1703  1.6901  0.3816
 1824TIP3    H226964   3.513   4.211   6.092 -0.3108 -0.3208 -1.1035
 1825TIP3   OH226965   5.133   6.159   4.998  0.4427 -0.6501 -0.1126
 1825TIP3    H126966   5.070   6.227   5.023  0.1071 -1.5855  1.7825
 1825TIP3    H226967   5.182   6.198   4.926  0.6734  1.8769  1.2596
 1826TIP3   OH226968   6.588   4.801   3.693 -0.2830  0.3129 -0.3694
 1826TIP3    H126969   6.574   4.870   3.758  0.0744  1.0865 -1.0932
 1826TIP3    H226970   6.503   4.791   3.651 -0.6263 -0.4828  0.4743
 1827TIP3   OH226971   3.033   6.502  14.707  0.4683 -0.1133 -0.3142
 1827TIP3    H126972   3.119   6.497  14.749 -0.0694 -0.6518  0.7596
 1827TIP3    H226973   2.977   6.446  14.761 -0.5152  0.0806 -1.1112
 1828TIP3   OH226974   5.212   1.466  14.252  0.0652 -0.5590  0.2414
 1828TIP3    H126975   5.193   1.379  14.216 -0.0110 -0.6660  0.5292
 1828TIP3    H226976   5.143   1.522  14.218 -0.0424 -0.6718  0.2718
 1829TIP3   OH226977   0.267   3.828  10.694  0.5357 -0.6020  0.1136
 1829TIP3    H126978   0.326   3.902  10.677 -0.5458  0.0077 -1.1703
 1829TIP3    H226979   0.282   3.768  10.621 -0.2207 -0.5603 -0.0848
 1830TIP3   OH226980   2.563   6.257  11.366 -0.3619  0.2092  0.4891
 1830TIP3    H126981   2.572   6.177  11.314 -0.5118  0.1656  0.5298
 1830TIP3    H226982   2.615   6.239  11.445 -0.5038  0.1006  0.5584
 1831TIP3   OH226983   5.950   1.767   1.243 -0.7651  0.1838  0.2552
 1831TIP3    H126984   5.882   1.747   1.307  0.1010 -0.0351  1.1274
 1831TIP3    H226985   5.977   1.856   1.263 -0.9243  0.3452 -0.2237
 1832TIP3   OH226986   0.123   2.208   0.770  0.4491  0.5590 -0.4903
 1832TIP3    H126987   0.066   2.275   0.731 -0.7693 -0.0809  0.1537
 1832TIP3    H226988   0.064   2.137   0.794  1.7752 -1.0073 -1.6343
 1833TIP3   OH226989   0.668   3.151   1.130 -0.0847 -0.2656  0.5026
 1833TIP3    H126990   0.676   3.235   1.176  0.7184 -0.7379  1.2657
 1833TIP3    H226991   0.738   3.097   1.167  0.3525 -0.7979 -1.0212
 1834TIP3   OH226992   3.616   0.451  11.523 -0.0547  0.0398  0.5319
 1834TIP3    H126993   3.580   0.391  11.459 -0.1461 -0.1124  0.7239
 1834TIP3    H226994   3.568   0.533  11.511  0.9289  0.4816 -0.5805
 1835TIP3   OH226995   1.374   5.006  10.973 -0.1669 -0.2268 -0.3657
 1835TIP3    H126996   1.366   4.934  10.910  2.1847 -0.8256 -0.0725
 1835TIP3    H226997   1.348   4.968  11.056  1.8794 -1.0663 -0.0531
 1836TIP3   OH226998   3.930   4.212  16.710  0.1219 -0.1665  0.3467
 1836TIP3    H126999   3.851   4.162  16.693 -1.0572  1.6041  0.2957
 1836TIP3    H227000   3.917   4.295  16.663  1.6492  0.4764  0.9760
 1837TIP3   OH227001   1.322   5.330   3.191  0.5511 -0.3235  0.7107
 1837TIP3    H127002   1.302   5.405   3.133 -0.1285  0.6056  2.0898
 1837TIP3    H227003   1.283   5.354   3.275 -0.1121 -2.4613  1.0763
 1838TIP3   OH227004   5.137   1.184  15.443  0.2424 -0.4168  0.7653
 1838TIP3    H127005   5.151   1.098  15.403  1.3191  0.5113 -0.9925
 1838TIP3    H227006   5.092   1.166  15.525  2.9395 -2.9061  1.8650
 1839TIP3   OH227007   0.317   0.574  12.675 -0.0987 -0.1984 -0.0816
 1839TIP3    H127008   0.243   0.519  12.650 -0.4649  1.0111 -1.9124
 1839TIP3    H227009   0.389   0.545  12.620 -0.2903  1.0582 -1.0578
 1840TIP3   OH227010   6.327   5.527   1.484 -0.4225 -0.7279  0.1970
 1840TIP3    H127011   6.292   5.606   1.442  2.1959  0.6939  0.4266
 1840TIP3    H227012   6.279   5.520   1.566  0.1384  1.4753  0.7986
 1841TIP3   OH227013   6.697   0.013   2.432  0.3183 -0.0159 -0.6794
 1841TIP3    H127014   6.757  -0.044   2.480  0.7301  1.5571  0.8159
 1841TIP3    H227015   6.652   0.063   2.501 -2.3023 -0.7100 -1.7760
 1842TIP3   OH227016   6.011   0.516  11.631 -0.1422 -0.0568 -0.6621
 1842TIP3    H127017   6.039   0.454  11.698 -0.6251  3.0005  2.6973
 1842TIP3    H227018   5.922   0.489  11.608  0.7364 -2.3075 -1.7031
 1843TIP3   OH227019   3.362   1.834  11.440  0.6544  0.0715 -0.5700
 1843TIP3    H127020   3.457   1.827  11.451  0.6696 -0.1637 -0.8246
 1843TIP3    H227021   3.349   1.919  11.399  0.7516  0.1231 -0.4960
 1844TIP3   OH227022   0.944   0.604  14.500  0.8763  0.3916 -0.0760
 1844TIP3    H127023   0.939   0.519  14.542  0.7548  0.2039 -0.4693
 1844TIP3    H227024   1.019   0.598  14.441  2.2085  1.2546  1.4454
 1845TIP3   OH227025   2.278   2.257   5.986 -0.2797 -0.0938 -0.2746
 1845TIP3    H127026   2.333   2.180   6.001  0.8894  0.2610 -2.3374
 1845TIP3    H227027   2.211   2.252   6.053  1.9309 -0.8658  2.0274
 1846TIP3   OH227028   1.906   0.133   5.675  0.1716  0.5506 -0.2639
 1846TIP3    H127029   1.991   0.090   5.667  0.6828  1.6066 -0.6790
 1846TIP3    H227030   1.848   0.082   5.620  0.6658  0.1468 -0.4165
 1847TIP3   OH227031   2.239   1.275   3.682 -0.0308  0.1414  0.4012
 1847TIP3    H127032   2.283   1.192   3.696  1.3667  0.5812 -1.0940
 1847TIP3    H227033   2.241   1.288   3.587 -0.8197  1.5673  0.5489
 1848TIP3   OH227034   3.106   2.374   2.202  0.0303 -0.8288 -0.3159
 1848TIP3    H127035   3.050   2.419   2.265 -0.6144  0.1868 -1.5814
 1848TIP3    H227036   3.186   2.355   2.251  0.2642  1.5442  0.3618
 1849TIP3   OH227037   1.277   6.169  16.995  0.1940  0.6203  0.1924
 1849TIP3    H127038   1.256   6.201  17.083 -0.1325  0.3133  0.2272
 1849TIP3    H227039   1.192   6.155  16.954  0.3445  0.4470 -0.0594
 1850TIP3   OH227040   6.736   2.485  16.598 -0.0064 -0.1517 -0.0054
 1850TIP3    H127041   6.658   2.491  16.543 -0.6261  1.0153  0.9395
 1850TIP3    H227042   6.791   2.558  16.569  0.5479 -0.7052 -0.3689
 1851TIP3   OH227043   0.639   3.149   5.352 -0.0136 -0.1547  0.0327
 1851TIP3    H127044   0.732   3.136   5.336 -0.0037  1.1503 -1.1091
 1851TIP3    H227045   0.596   3.114   5.274 -0.2983  1.4651 -0.5784
 1852TIP3   OH227046   2.158   4.051  15.070  0.1094  0.1564  0.1114
 1852TIP3    H127047   2.177   3.984  15.135  1.1630 -0.7084 -1.0480
 1852TIP3    H227048   2.154   4.133  15.121  0.6030 -0.5244  1.2932
 1853TIP3   OH227049   4.959   0.167   5.962  0.8461 -0.4206 -0.4161
 1853TIP3    H127050   4.983   0.187   5.871 -2.1327  1.9300 -0.8315
 1853TIP3    H227051   4.882   0.111   5.955 -1.1005  1.9714  0.4908
 1854TIP3   OH227052   3.077   6.814  11.620  0.2781 -0.0173  0.2296
 1854TIP3    H127053   3.056   6.812  11.714 -1.8193 -0.2990 -0.1854
 1854TIP3    H227054   3.040   6.896  11.589  1.6403  0.4420 -0.2397
 1855TIP3   OH227055   0.657   5.883   6.134  0.1215  0.0656  0.8256
 1855TIP3    H127056   0.640   5.967   6.091  2.2163  0.9180  1.5578
 1855TIP3    H227057   0.664   5.904   6.227  1.0522 -0.8295  0.9777
 1856TIP3   OH227058   4.701   2.264  16.827  0.0435 -0.0669 -0.6483
 1856TIP3    H127059   4.637   2.230  16.889  0.3890  2.1034  1.0062
 1856TIP3    H227060   4.729   2.187  16.777 -1.2042 -1.6707  0.9961
 1857TIP3   OH227061   4.583   0.994   2.378  0.2437  0.1372  0.4422
 1857TIP3    H127062   4.674   0.977   2.353  0.1599 -0.8853  0.7906
 1857TIP3    H227063   4.558   1.071   2.327  0.9116 -0.3067 -0.5835
 1858TIP3   OH227064   4.728   5.228   3.998 -0.3914  0.8955  1.1539
 1858TIP3    H127065   4.737   5.154   4.058  0.0296  2.1369  2.6841
 1858TIP3    H227066   4.817   5.262   3.987 -0.5335  0.9996  0.2100
 1859TIP3   OH227067   1.364   1.878   2.373 -0.4085  0.0101  0.1192
 1859TIP3    H127068   1.270   1.886   2.361 -0.1974 -0.2105 -1.8847
 1859TIP3    H227069   1.403   1.932   2.304  0.9526  0.3312  1.0821
 1860TIP3   OH227070   1.599   2.390   1.694 -0.2440  0.3611  0.1383
 1860TIP3    H127071   1.596   2.486   1.695 -1.2505  0.3365  0.7960
 1860TIP3    H227072   1.565   2.365   1.609 -0.6154  0.5771  0.2234
 1861TIP3   OH227073   5.952   1.733   0.909 -0.3015 -0.2118  0.1756
 1861TIP3    H127074   5.976   1.738   1.002 -1.8064 -1.1259  0.6528
 1861TIP3    H227075   5.971   1.643   0.885 -1.2954 -0.3908  0.0217
 1862TIP3   OH227076   2.463   0.569   5.988 -0.3653  0.0245 -0.1118
 1862TIP3    H127077   2.433   0.486   6.025 -2.7188  1.1313  0.6461
 1862TIP3    H227078   2.534   0.598   6.047 -1.2869 -0.2239  1.1612
 1863TIP3   OH227079   6.467   3.462  10.840 -0.6067 -0.0347 -0.4738
 1863TIP3    H127080   6.377   3.472  10.808 -1.0039  0.1734  0.6784
 1863TIP3    H227081   6.521   3.472  10.761 -1.6135 -1.0210 -1.3357
 1864TIP3   OH227082   1.869   6.501  12.369 -0.0688 -0.2232  0.4484
 1864TIP3    H127083   1.827   6.456  12.295 -0.7383 -0.3167  0.8720
 1864TIP3    H227084   1.845   6.593  12.357 -0.9384 -0.3563  1.0199
 1865TIP3   OH227085   4.888   2.910  15.256 -0.0862 -0.2078 -0.1296
 1865TIP3    H127086   4.948   2.865  15.315  0.1693  0.5386  0.1977
 1865TIP3    H227087   4.869   2.993  15.300  0.2221  0.4341 -1.1611
 1866TIP3   OH227088   4.945   4.460  13.764 -0.1316 -0.1501 -0.1397
 1866TIP3    H127089   4.870   4.500  13.719  0.3474  0.0454 -0.7820
 1866TIP3    H227090   5.015   4.525  13.756 -0.2949  0.3008  1.7266
 1867TIP3   OH227091   4.459   3.030   0.272 -0.6877  0.1894  0.1996
 1867TIP3    H127092   4.448   3.125   0.278 -1.1909  0.2704 -1.4570
 1867TIP3    H227093   4.491   3.016   0.183 -0.3983 -1.1780  0.5093
 1868TIP3   OH227094   2.549   3.876  12.505  0.6434 -0.2808  0.0611
 1868TIP3    H127095   2.563   3.970  12.499 -0.5681 -0.1512 -1.6825
 1868TIP3    H227096   2.472   3.867  12.561 -1.1957  0.0426 -2.2832
 1869TIP3   OH227097   3.014   0.973  11.993 -0.1397 -0.3236  0.0152
 1869TIP3    H127098   3.077   1.045  12.003  0.6858 -1.3291  3.2096
 1869TIP3    H227099   2.935   1.005  12.036 -0.3155 -0.7350 -0.0073
 1870TIP3   OH227100   6.380   0.198   0.113 -0.3399 -0.0473  0.1962
 1870TIP3    H127101   6.322   0.160   0.179  0.5937 -0.1917  0.9580
 1870TIP3    H227102   6.453   0.233   0.163 -0.2083  0.9584 -0.6702
 1871TIP3   OH227103   0.792   3.402   2.456 -0.2504  0.0092 -0.3523
 1871TIP3    H127104   0.805   3.328   2.397  1.1151  0.6035 -0.8581
 1871TIP3    H227105   0.768   3.362   2.540 -1.0276 -0.9068 -0.9867
 1872TIP3   OH227106   2.918   0.418  15.692  0.5130  0.5920 -0.4708
 1872TIP3    H127107   2.854   0.410  15.621  2.3830 -1.2979 -2.0645
 1872TIP3    H227108   2.875   0.376  15.767 -0.2356 -0.3860 -1.4199
 1873TIP3   OH227109   6.166   6.676  16.301 -0.4355 -0.0770  0.3639
 1873TIP3    H127110   6.181   6.763  16.264  0.4016  0.8872  2.8028
 1873TIP3    H227111   6.074   6.676  16.327 -0.9503 -0.6574 -1.3106
 1874TIP3   OH227112   3.618   5.397  12.296 -0.0799  1.2873 -0.2245
 1874TIP3    H127113   3.606   5.382  12.203 -2.2408  0.2190  0.1672
 1874TIP3    H227114   3.575   5.482  12.312 -0.2304  1.1920 -0.1165
 1875TIP3   OH227115   3.050   4.923   1.107  0.3974 -0.6387  0.0547
 1875TIP3    H127116   3.021   4.964   1.189 -2.2206 -1.5585 -0.3293
 1875TIP3    H227117   3.103   4.848   1.135 -0.2422 -0.7835  0.9057
 1876TIP3   OH227118   4.189   1.309   5.788  0.0603 -0.0113 -1.1121
 1876TIP3    H127119   4.114   1.315   5.847  0.8935  2.0031 -0.1173
 1876TIP3    H227120   4.187   1.391   5.738  2.3602  0.8357  0.0183
 1877TIP3   OH227121   5.764   6.417   1.230  0.1450  0.0399 -0.4230
 1877TIP3    H127122   5.856   6.441   1.238 -0.1888  0.7788  1.9343
 1877TIP3    H227123   5.725   6.488   1.179  0.7333  0.0579 -0.8653
 1878TIP3   OH227124   3.585   3.731  16.358 -0.1904  0.6186  0.1980
 1878TIP3    H127125   3.538   3.727  16.275 -0.3229  2.1771  0.1751
 1878TIP3    H227126   3.541   3.666  16.413  0.2407 -0.8366 -1.0759
 1879TIP3   OH227127   6.352   6.418   4.422 -0.0799  0.1090  0.4121
 1879TIP3    H127128   6.355   6.510   4.398  0.2354 -0.2449 -0.9716
 1879TIP3    H227129   6.400   6.413   4.505  0.1117  1.1449  0.3748
 1880TIP3   OH227130   5.127   5.851  12.848 -0.3621  0.0689  0.3715
 1880TIP3    H127131   5.149   5.787  12.915  1.6504 -0.3988 -0.6665
 1880TIP3    H227132   5.031   5.849  12.843 -0.7165  1.0983  4.0992
 1881TIP3   OH227133   6.762   1.474  14.699  0.0372 -0.0829 -0.1967
 1881TIP3    H127134   6.756   1.381  14.722 -2.2750  0.3774  1.3127
 1881TIP3    H227135   6.694   1.517  14.750  1.2700  2.5456 -0.5701
 1882TIP3   OH227136   4.862   0.047  14.271 -0.1657  0.3118 -0.3847
 1882TIP3    H127137   4.911  -0.030  14.300 -1.0265 -0.1831 -0.2170
 1882TIP3    H227138   4.885   0.056  14.178  1.0874  0.7497 -0.0580
 1883TIP3   OH227139   6.783   5.114   2.229 -0.4396  0.2792 -0.5774
 1883TIP3    H127140   6.705   5.077   2.189 -0.1541  1.2011 -2.0736
 1883TIP3    H227141   6.853   5.098   2.166  0.2820  0.7320  0.0837
 1884TIP3   OH227142   3.131   3.248   3.386  0.4977  0.3658  0.0371
 1884TIP3    H127143   3.129   3.153   3.389 -0.8490  0.3400 -0.9249
 1884TIP3    H227144   3.159   3.275   3.474 -0.0660 -0.8806  0.6134
 1885TIP3   OH227145   2.654   0.436  15.303 -0.1411  0.2835  0.0383
 1885TIP3    H127146   2.702   0.445  15.221 -0.1094 -2.2705 -0.2761
 1885TIP3    H227147   2.565   0.465  15.282  0.0981  0.5539 -0.6365
 1886TIP3   OH227148   2.402   0.554   0.389 -0.1422  0.0876 -0.1833
 1886TIP3    H127149   2.320   0.585   0.425 -0.0145  0.5564 -0.2873
 1886TIP3    H227150   2.406   0.592   0.301 -0.2273 -0.6520 -0.5147
 1887TIP3   OH227151   4.200   2.256   1.619  0.5673  0.2728  0.9192
 1887TIP3    H127152   4.146   2.193   1.666 -0.2231 -0.1184 -0.4640
 1887TIP3    H227153   4.208   2.331   1.679 -0.5249 -0.1395  1.6034
 1888TIP3   OH227154   3.272   2.554   6.168 -0.1195  0.3414  0.0338
 1888TIP3    H127155   3.237   2.642   6.154 -0.4121  0.0622 -1.2070
 1888TIP3    H227156   3.341   2.564   6.232 -0.1438  1.4815 -0.1071
 1889TIP3   OH227157   2.177   0.683   5.743 -0.1034 -0.7846  0.9441
 1889TIP3    H127158   2.246   0.729   5.791  1.3346 -2.9240  1.0620
 1889TIP3    H227159   2.188   0.591   5.767 -0.6551 -1.6801 -1.8474
 1890TIP3   OH227160   6.826   6.734  13.965 -0.1291 -0.0405 -0.0266
 1890TIP3    H127161   6.791   6.645  13.971  4.4473 -2.1154  0.2014
 1890TIP3    H227162   6.827   6.753  13.871  0.0083 -0.8033 -0.1865
 1891TIP3   OH227163   6.305   6.477  16.179 -0.4854  0.0554  0.1201
 1891TIP3    H127164   6.333   6.520  16.098  1.6158  0.7947  1.1534
 1891TIP3    H227165   6.267   6.547  16.232  3.0385  0.8702  1.8492
 1892TIP3   OH227166   3.088   5.312  12.457 -0.1710  0.1111  0.4194
 1892TIP3    H127167   3.010   5.319  12.512 -0.5653 -1.0169  0.0396
 1892TIP3    H227168   3.063   5.249  12.389  0.7854  0.3980 -0.2112
 1893TIP3   OH227169   0.697   0.420  12.256  0.0301 -0.7470 -0.1064
 1893TIP3    H127170   0.749   0.499  12.247 -1.4158  0.2145 -0.4546
 1893TIP3    H227171   0.699   0.400  12.350  0.6135 -0.4482 -0.0535
 1894TIP3   OH227172   4.291   5.261   1.405 -0.2641  0.3180  0.2651
 1894TIP3    H127173   4.243   5.293   1.482 -1.7362  0.5272 -0.6875
 1894TIP3    H227174   4.272   5.167   1.403 -0.0260  0.2690  0.2838
 1895TIP3   OH227175   1.498   0.470   2.283 -0.1379  0.0218 -0.4144
 1895TIP3    H127176   1.423   0.530   2.279  0.6777  1.3850  2.3777
 1895TIP3    H227177   1.548   0.489   2.204 -1.1509  1.3281 -0.7833
 1896TIP3   OH227178   4.026   1.402  12.345  0.2525  0.0696 -0.2730
 1896TIP3    H127179   4.108   1.379  12.303  0.5975  0.7226  0.0206
 1896TIP3    H227180   4.049   1.473  12.406  0.1248 -1.9783  2.3521
 1897TIP3   OH227181   1.984   5.834   1.469  0.1813  0.6399 -0.1995
 1897TIP3    H127182   2.016   5.925   1.475 -0.1375  0.7617 -0.3331
 1897TIP3    H227183   1.892   5.843   1.444  0.3114  0.2582 -0.8198
 1898TIP3   OH227184   3.170   2.347   4.187  0.4072  0.1453 -0.0123
 1898TIP3    H127185   3.170   2.377   4.278  1.2790 -0.2316  0.1226
 1898TIP3    H227186   3.110   2.406   4.142  2.0420  2.1266  0.2353
 1899TIP3   OH227187   2.568   2.230  14.149  0.0505  0.1744  0.5722
 1899TIP3    H127188   2.562   2.259  14.058 -2.2932  1.1348  0.9437
 1899TIP3    H227189   2.611   2.145  14.145  0.3728  0.3902 -1.3782
 1900TIP3   OH227190   1.395   1.873  15.817 -0.1213  0.1393 -0.2784
 1900TIP3    H127191   1.425   1.793  15.860 -2.5195  0.3254  1.9768
 1900TIP3    H227192   1.353   1.843  15.736 -0.0220 -0.7780  0.0024
 1901TIP3   OH227193   5.711   0.298  14.826  0.7177  0.0992  0.5228
 1901TIP3    H127194   5.774   0.226  14.815  0.7037  0.2463 -0.6355
 1901TIP3    H227195   5.765   0.376  14.839  0.7537  0.1019  0.3503
 1902TIP3   OH227196   3.210   2.080   4.168  0.4428 -0.0192  0.2737
 1902TIP3    H127197   3.190   2.173   4.172  0.0354 -0.1368  1.1249
 1902TIP3    H227198   3.289   2.070   4.221  0.8325 -0.0719 -0.3090
 1903TIP3   OH227199   2.427   0.174   2.857 -0.5004 -0.1690  0.2552
 1903TIP3    H127200   2.464   0.254   2.819 -0.0443 -0.7744 -0.6092
 1903TIP3    H227201   2.503   0.118   2.874 -0.5921  0.3334  2.7959
 1904TIP3   OH227202   6.784   4.528  13.722 -0.1410 -0.5029 -0.3052
 1904TIP3    H127203   6.831   4.531  13.638 -1.9464 -1.0845 -1.3914
 1904TIP3    H227204   6.794   4.616  13.758  1.2032 -0.4220 -0.7964
 1905TIP3   OH227205   0.526   5.100  15.488  0.9599 -0.5005 -0.0358
 1905TIP3    H127206   0.491   5.190  15.490 -0.9070 -1.1834  0.7463
 1905TIP3    H227207   0.570   5.093  15.403 -0.4514  0.6048 -0.9110
 1906TIP3   OH227208   5.821   6.508   3.870 -0.1475  0.0432 -0.1282
 1906TIP3    H127209   5.879   6.497   3.945 -0.9726 -3.6136  0.1715
 1906TIP3    H227210   5.754   6.569   3.900 -0.2439 -1.0430  2.0084
 1907TIP3   OH227211   1.522   5.706   5.838 -0.4758 -0.4850  0.3449
 1907TIP3    H127212   1.513   5.701   5.933 -1.0170 -0.5206  0.2956
 1907TIP3    H227213   1.601   5.759   5.825 -0.4239 -0.4368  0.8114
 1908TIP3   OH227214   3.720   2.047   6.639 -0.2628 -0.1874  0.0071
 1908TIP3    H127215   3.658   2.091   6.698  0.3778  1.2833 -0.3711
 1908TIP3    H227216   3.806   2.069   6.674  0.0817 -1.1350 -0.2254
 1909TIP3   OH227217   5.994   5.325  16.489 -0.3059 -0.3732  0.4329
 1909TIP3    H127218   6.026   5.396  16.544 -1.0038 -0.8044  1.4158
 1909TIP3    H227219   6.024   5.245  16.532 -4.0346 -0.9215  2.4245
 1910TIP3   OH227220   3.013   6.507  12.527 -0.3001  0.0364 -0.2192
 1910TIP3    H127221   3.028   6.457  12.447  0.8078  0.6487 -0.4073
 1910TIP3    H227222   3.079   6.473  12.588  1.2291  2.0018 -0.6944
 1911TIP3   OH227223   4.428   0.055   3.716 -0.0016 -0.1046  0.1856
 1911TIP3    H127224   4.479   0.118   3.665 -1.6326  0.4975 -0.7795
 1911TIP3    H227225   4.370   0.013   3.653 -1.2069 -0.2467  1.3259
 1912TIP3   OH227226   1.320   6.790   4.864 -0.6313  0.0906 -0.0958
 1912TIP3    H127227   1.238   6.783   4.815  0.2521 -0.0165 -1.6244
 1912TIP3    H227228   1.321   6.711   4.920 -1.2346 -0.2705 -0.5807
 1913TIP3   OH227229   4.170   5.814   5.909 -0.0012  0.3263 -0.0487
 1913TIP3    H127230   4.081   5.826   5.942 -0.5603  0.0574 -1.3888
 1913TIP3    H227231   4.190   5.722   5.926  0.3385  0.5756  0.9613
 1914TIP3   OH227232   4.959   4.784  16.449 -0.0677  0.1971  0.3621
 1914TIP3    H127233   4.881   4.746  16.489 -0.2682  0.3662  0.1372
 1914TIP3    H227234   4.939   4.877  16.443  0.5136  0.3835  1.1309
 1915TIP3   OH227235   4.962   4.483  14.991 -0.0483 -0.7340 -0.1081
 1915TIP3    H127236   4.981   4.391  15.009 -1.1565 -1.2190 -1.2527
 1915TIP3    H227237   4.868   4.490  15.000  0.0189  0.2718 -0.1292
 1916TIP3   OH227238   2.685   1.031  11.423  0.1055  0.4030 -0.3682
 1916TIP3    H127239   2.694   1.068  11.335 -0.9179 -2.1726 -1.6437
 1916TIP3    H227240   2.591   1.013  11.432  0.5790 -2.3287 -0.1004
 1917TIP3   OH227241   3.868   2.109   2.363 -0.1984 -0.1335 -0.6371
 1917TIP3    H127242   3.888   2.044   2.296  1.0921 -0.8996  0.4302
 1917TIP3    H227243   3.947   2.163   2.370  0.8019 -1.7400  2.0480
 1918TIP3   OH227244   6.445   5.794   3.329  0.2009 -0.3126 -0.0043
 1918TIP3    H127245   6.469   5.839   3.248  1.4423 -3.8486 -1.8178
 1918TIP3    H227246   6.354   5.767   3.315  0.3584 -0.7722 -0.1520
 1919TIP3   OH227247   6.076   4.051   4.157 -0.3136  0.8236 -0.5381
 1919TIP3    H127248   6.082   4.146   4.168  1.5714  0.7621 -0.5994
 1919TIP3    H227249   6.045   4.019   4.242 -0.4603  1.4483 -0.3462
 1920TIP3   OH227250   2.186   0.709  12.257 -0.4675  0.5189  0.6212
 1920TIP3    H127251   2.201   0.784  12.199 -0.9096  0.2023  0.0847
 1920TIP3    H227252   2.100   0.725  12.294 -0.5198  0.3238  0.5820
 1921TIP3   OH227253   1.773   2.595   1.024  0.3631  0.0275 -0.0531
 1921TIP3    H127254   1.759   2.685   1.055  0.2998  0.4143 -1.1348
 1921TIP3    H227255   1.861   2.597   0.987  0.0703 -0.1323 -0.7794
 1922TIP3   OH227256   4.312   6.302  10.926  0.0221 -0.0972 -0.4217
 1922TIP3    H127257   4.218   6.321  10.917  0.3169  0.6905 -2.4687
 1922TIP3    H227258   4.355   6.381  10.892  1.4372 -0.4161  0.5806
 1923TIP3   OH227259   1.623   0.200   2.474  0.0864 -0.2999 -0.0983
 1923TIP3    H127260   1.594   0.120   2.517 -0.6874 -0.1399 -0.3095
 1923TIP3    H227261   1.716   0.186   2.457 -0.0473 -1.1599 -0.1538
 1924TIP3   OH227262   1.305   4.802  10.801 -0.6246 -0.0983  0.3835
 1924TIP3    H127263   1.351   4.750  10.735  0.2037  0.6720  0.3400
 1924TIP3    H227264   1.227   4.750  10.822 -0.4423 -0.7751 -0.5417
 1925TIP3   OH227265   0.434   0.158   3.674 -0.3248 -0.0274  0.2662
 1925TIP3    H127266   0.342   0.150   3.649 -0.6625  2.5785  0.3928
 1925TIP3    H227267   0.431   0.190   3.765  0.6316  1.5966 -0.2435
 1926TIP3   OH227268   2.904   4.905  11.531 -0.1834 -0.0604  0.2236
 1926TIP3    H127269   2.809   4.897  11.538 -0.3665  1.4600 -0.1846
 1926TIP3    H227270   2.923   4.895  11.438  0.0170 -0.1101  0.2693
 1927TIP3   OH227271   3.625   0.354   2.495 -0.6624  0.4257  0.2695
 1927TIP3    H127272   3.602   0.308   2.576  2.4725  0.6877  1.4529
 1927TIP3    H227273   3.633   0.446   2.522  2.6698  0.2165  0.3261
 1928TIP3   OH227274   0.044   4.802  14.125  0.1096  0.3109  0.0386
 1928TIP3    H127275  -0.005   4.808  14.043  0.1967  1.1363  0.0368
 1928TIP3    H227276  -0.022   4.815  14.193  0.0011 -0.5828  0.1216
 1929TIP3   OH227277   0.132   1.126  14.933  0.4041 -0.1180 -0.1771
 1929TIP3    H127278   0.123   1.221  14.921 -0.2717 -0.2930 -1.3046
 1929TIP3    H227279   0.046   1.099  14.965  0.9902 -0.2012  1.3775
 1930TIP3   OH227280   5.982   5.241   0.090 -0.4431 -0.0522  0.6749
 1930TIP3    H127281   6.069   5.278   0.101 -0.4124  0.1080 -0.1005
 1930TIP3    H227282   5.980   5.166   0.150  0.5172 -0.5681  0.0864
 1931TIP3   OH227283   6.202   4.195   0.149 -0.0819  0.3273 -0.0629
 1931TIP3    H127284   6.249   4.148   0.217 -0.5125 -3.1761 -1.9353
 1931TIP3    H227285   6.110   4.192   0.176 -0.0388  0.6499  0.1187
 1932TIP3   OH227286   4.747   5.699  15.332 -0.3753  0.5320 -0.0484
 1932TIP3    H127287   4.810   5.631  15.309  0.2534  0.7514  0.9564
 1932TIP3    H227288   4.665   5.653  15.348  0.1354 -0.0475  0.9879
 1933TIP3   OH227289   5.128   1.552  15.814 -0.5771  0.1385  0.1423
 1933TIP3    H127290   5.131   1.640  15.777  0.6145  0.8008  1.7035
 1933TIP3    H227291   5.185   1.500  15.757  1.8064  1.3018  1.2889
 1934TIP3   OH227292   3.559   1.174   4.932  0.5341 -0.2891 -0.3563
 1934TIP3    H127293   3.486   1.231   4.907  0.6337  1.1135  2.1827
 1934TIP3    H227294   3.636   1.231   4.932  0.5670 -0.1434  2.6283
 1935TIP3   OH227295   5.886   2.436  13.590 -0.0227  0.1650 -0.5060
 1935TIP3    H127296   5.882   2.341  13.584  0.8933  0.1565 -1.2630
 1935TIP3    H227297   5.883   2.455  13.684 -0.8306 -0.5650 -0.3716
 1936TIP3   OH227298   6.700   0.866   5.024  0.0678  0.1925  0.0793
 1936TIP3    H127299   6.749   0.910   5.093  1.3769  0.0260 -0.7111
 1936TIP3    H227300   6.742   0.781   5.014 -0.1963  0.1516 -0.8052
 1937TIP3   OH227301   2.694   6.037   3.221  0.2241  0.0061  0.3247
 1937TIP3    H127302   2.635   6.096   3.268 -0.6199  0.3461 -1.0900
 1937TIP3    H227303   2.639   5.996   3.155  1.4210 -0.2033 -0.5767
 1938TIP3   OH227304   5.400   2.931   2.433  0.0928 -0.4333  0.5009
 1938TIP3    H127305   5.380   2.871   2.505  0.3942 -0.8980  0.2022
 1938TIP3    H227306   5.475   2.892   2.388 -1.5731 -1.4722 -1.5425
 1939TIP3   OH227307   5.835   6.409  12.585 -0.0248  0.5700 -0.4354
 1939TIP3    H127308   5.811   6.332  12.534 -0.2990  0.9710 -0.9315
 1939TIP3    H227309   5.794   6.395  12.671 -0.8982  0.6038 -0.8329
 1940TIP3   OH227310   3.383   4.058  12.374  0.0230 -0.8730 -0.3037
 1940TIP3    H127311   3.428   4.136  12.342 -0.5604 -0.6776 -0.6574
 1940TIP3    H227312   3.295   4.088  12.395  0.5740 -0.8119  2.2618
 1941TIP3   OH227313   0.529   6.222  11.965  0.7090  0.3098 -0.3342
 1941TIP3    H127314   0.436   6.231  11.947  0.4044  2.2331  1.7595
 1941TIP3    H227315   0.568   6.196  11.881 -1.4564  1.2156 -1.6925
 1942TIP3   OH227316   3.598   6.466   1.299  0.0854 -0.3129 -0.0486
 1942TIP3    H127317   3.543   6.418   1.237  1.0267  0.1848 -1.2938
 1942TIP3    H227318   3.605   6.554   1.262  0.5313  0.0438  0.8556
 1943TIP3   OH227319   4.431   4.751  11.085  0.4703  0.9724 -0.4777
 1943TIP3    H127320   4.491   4.822  11.059  0.8765 -0.1572 -2.9705
 1943TIP3    H227321   4.420   4.700  11.005 -0.6488 -1.1937  0.9796
 1944TIP3   OH227322   0.825   4.630   5.809  0.1232  0.6566 -0.4584
 1944TIP3    H127323   0.816   4.609   5.902 -0.4848  0.7064 -0.4995
 1944TIP3    H227324   0.917   4.614   5.789  0.3794  1.1499  0.2761
 1945TIP3   OH227325   4.563   4.647   4.359  1.3034 -0.2479  0.0831
 1945TIP3    H127326   4.586   4.613   4.445 -1.2254  0.1823  1.0226
 1945TIP3    H227327   4.467   4.643   4.356  1.2286  1.1358 -2.1251
 1946TIP3   OH227328   5.813   1.061   2.955  0.1543  0.9924 -0.5889
 1946TIP3    H127329   5.822   0.996   3.025 -0.6297 -0.6274 -1.9180
 1946TIP3    H227330   5.719   1.063   2.937  0.2445  2.0667 -0.9830
 1947TIP3   OH227331   0.529   2.514  14.503 -0.5651 -0.0247 -0.0400
 1947TIP3    H127332   0.581   2.451  14.454  0.6928 -0.1896  1.4033
 1947TIP3    H227333   0.513   2.471  14.587 -0.2352  1.3094  0.7353
 1948TIP3   OH227334   3.961   1.722  13.700  0.2776  0.0332  0.4382
 1948TIP3    H127335   3.922   1.661  13.763 -0.4721 -0.4377 -0.4567
 1948TIP3    H227336   4.053   1.695  13.695  0.2324 -0.2381  0.9699
 1949TIP3   OH227337   5.823   4.380  15.756  0.4260  0.0671  0.2863
 1949TIP3    H127338   5.863   4.304  15.797 -0.1506 -0.8491 -0.8014
 1949TIP3    H227339   5.889   4.413  15.695 -0.5314 -1.7051 -1.8320
 1950TIP3   OH227340   3.861   2.620  13.916  0.1772  0.3403  0.2463
 1950TIP3    H127341   3.845   2.711  13.893 -1.1909  0.0920  0.1637
 1950TIP3    H227342   3.952   2.605  13.890 -0.0563  1.2223 -1.2097
 1951TIP3   OH227343   6.753   5.585   3.990  0.1758  0.1206  0.1490
 1951TIP3    H127344   6.775   5.505   3.942  0.4874  0.4364 -0.2384
 1951TIP3    H227345   6.721   5.645   3.924 -1.5373 -0.1820  0.6448
 1952TIP3   OH227346   1.345   2.877  13.903  0.1314  0.0281 -0.2502
 1952TIP3    H127347   1.374   2.883  13.812  1.3531 -0.9240  0.0506
 1952TIP3    H227348   1.367   2.788  13.930  0.7620  0.6105  1.3038
 1953TIP3   OH227349   0.302   4.325  11.403 -0.2607 -0.0758 -0.0202
 1953TIP3    H127350   0.222   4.347  11.450  0.0675  0.2760  0.3832
 1953TIP3    H227351   0.366   4.389  11.433  0.2833 -0.5964 -0.0436
 1954TIP3   OH227352   2.493   1.356   5.419  0.2146 -0.0813  0.3434
 1954TIP3    H127353   2.425   1.292   5.434 -0.6488  0.5668 -0.6433
 1954TIP3    H227354   2.572   1.316   5.454 -0.6536 -0.8720  1.4561
 1955TIP3   OH227355   5.135   3.562   4.555 -0.2838  0.2899  0.2489
 1955TIP3    H127356   5.185   3.484   4.575  0.2575  0.2587 -1.1331
 1955TIP3    H227357   5.130   3.610   4.637 -0.4139 -1.0650  1.0526
 1956TIP3   OH227358   3.363   6.566  15.208 -0.1593 -0.0080 -0.0671
 1956TIP3    H127359   3.342   6.484  15.163 -0.3335 -0.3961  0.7145
 1956TIP3    H227360   3.302   6.630  15.170  0.1234 -0.1757 -0.8345
 1957TIP3   OH227361   6.114   4.110  12.152  0.3772  0.6468 -0.2624
 1957TIP3    H127362   6.207   4.117  12.133  0.0128  3.3360 -1.4948
 1957TIP3    H227363   6.088   4.026  12.115  1.9946  0.6277 -1.4467
 1958TIP3   OH227364   4.186   6.640  11.175 -0.1450 -0.0709  0.0694
 1958TIP3    H127365   4.105   6.635  11.124  0.1865 -0.3990 -0.4259
 1958TIP3    H227366   4.168   6.586  11.253 -0.8340  0.8462  0.5720
 1959TIP3   OH227367   4.148   1.392  14.415  0.2991  0.2537 -0.0756
 1959TIP3    H127368   4.114   1.389  14.325 -3.0966 -1.1287  1.0899
 1959TIP3    H227369   4.101   1.465  14.456  0.8633  0.0814  0.9162
 1960TIP3   OH227370   0.231   6.023   0.137 -0.2045  0.6021  0.1120
 1960TIP3    H127371   0.175   5.963   0.187 -0.2550  0.3761 -0.2120
 1960TIP3    H227372   0.207   6.110   0.169 -1.2556  0.5660 -0.5097
 1961TIP3   OH227373   3.743   2.520   5.107 -0.1437  0.4182 -0.0191
 1961TIP3    H127374   3.654   2.489   5.092 -0.3820  0.9236  0.3331
 1961TIP3    H227375   3.768   2.484   5.192 -0.6908  1.7671  0.7341
 1962TIP3   OH227376   3.352   2.327   2.297 -0.2483  0.0958  0.0464
 1962TIP3    H127377   3.442   2.293   2.296  0.1775  1.2088 -0.8681
 1962TIP3    H227378   3.362   2.422   2.299 -1.4180  0.2231  0.6698
 1963TIP3   OH227379   0.173   2.916   2.411  0.0883  0.5840 -0.5497
 1963TIP3    H127380   0.221   2.838   2.384  0.4550  0.1817  1.1197
 1963TIP3    H227381   0.133   2.949   2.331 -1.8447 -2.5313 -1.0648
 1964TIP3   OH227382   4.394   4.783   1.200  0.1374  0.1233  0.0624
 1964TIP3    H127383   4.370   4.872   1.230  0.5804  0.4115 -0.4352
 1964TIP3    H227384   4.482   4.793   1.164 -0.2736 -0.2731 -1.0895
 1965TIP3   OH227385   5.812   0.573   5.985  0.1885  0.1487 -0.5127
 1965TIP3    H127386   5.795   0.634   6.056  0.6046 -1.1448  0.7584
 1965TIP3    H227387   5.908   0.569   5.980  0.1811 -0.9583 -0.0442
 1966TIP3   OH227388   1.173   3.984  12.332 -0.3563  0.2643 -0.3102
 1966TIP3    H127389   1.207   4.051  12.391 -1.2073 -1.4127  2.2410
 1966TIP3    H227390   1.251   3.942  12.295  0.2316  0.5414  0.5919
 1967TIP3   OH227391   1.130   5.964  14.747  0.1937  0.5075 -0.3792
 1967TIP3    H127392   1.120   6.020  14.824  1.5547  2.1696 -1.3363
 1967TIP3    H227393   1.218   5.927  14.755 -0.7604 -1.7845  0.3537
 1968TIP3   OH227394   3.645   2.878   5.305 -0.7938 -0.5344  0.1567
 1968TIP3    H127395   3.563   2.832   5.284 -0.6058 -1.6323  1.6520
 1968TIP3    H227396   3.693   2.816   5.361  0.7754  0.3526 -0.1587
 1969TIP3   OH227397   5.243   4.088  15.924 -0.1336  0.6544  0.5571
 1969TIP3    H127398   5.333   4.054  15.923  0.1312  1.3455  0.2084
 1969TIP3    H227399   5.224   4.105  15.832 -0.2049  1.5797  0.7344
 1970TIP3   OH227400   0.028   6.773   1.526  0.5546 -1.0606  0.3944
 1970TIP3    H127401   0.102   6.749   1.470 -0.0507  0.6806 -1.2617
 1970TIP3    H227402   0.060   6.846   1.579  0.4208 -1.2004  0.6730
 1971TIP3   OH227403   3.463   6.745   5.339 -0.1261  0.5858 -0.5225
 1971TIP3    H127404   3.404   6.765   5.411 -1.7063  0.5558 -1.7312
 1971TIP3    H227405   3.408   6.698   5.276  1.3981 -0.1263 -1.3954
 1972TIP3   OH227406   3.834   3.891  13.349 -0.7783 -0.2839 -0.2434
 1972TIP3    H127407   3.755   3.921  13.393 -3.4983 -1.8855 -3.5640
 1972TIP3    H227408   3.816   3.799  13.327  3.3696 -1.7850  1.4833
 1973TIP3   OH227409   3.415   2.333  15.336 -0.5861  0.1938 -0.1768
 1973TIP3    H127410   3.474   2.404  15.311 -2.0125  1.0817 -1.1321
 1973TIP3    H227411   3.359   2.371  15.404 -1.4040  0.0390 -0.7430
 1974TIP3   OH227412   2.478   6.389  11.739  0.3474 -0.7518 -0.0062
 1974TIP3    H127413   2.550   6.450  11.720  0.3782 -0.4740  0.9686
 1974TIP3    H227414   2.510   6.336  11.812 -0.1055 -1.2281 -0.1429
 1975TIP3   OH227415   3.454   4.532   0.114  0.6145  0.3044 -0.3111
 1975TIP3    H127416   3.442   4.494   0.202  2.6349 -0.3544 -0.2601
 1975TIP3    H227417   3.477   4.457   0.059  0.6177  0.9003 -1.1287
 1976TIP3   OH227418   3.786   3.451  11.699 -0.6012 -0.1911  0.1146
 1976TIP3    H127419   3.832   3.486  11.776  0.5167  1.3558 -1.1953
 1976TIP3    H227420   3.808   3.511  11.628 -2.0950 -1.2323 -1.3137
 1977TIP3   OH227421   3.879   6.391   5.265  0.2578 -0.2276  0.0682
 1977TIP3    H127422   3.812   6.458   5.276 -0.7262 -0.9745 -1.1694
 1977TIP3    H227423   3.956   6.440   5.236 -0.2411  0.4457 -0.1521
 1978TIP3   OH227424   1.395   3.043  14.708  0.1737  0.4073 -0.2891
 1978TIP3    H127425   1.353   3.064  14.791  0.0653  0.4919 -0.3662
 1978TIP3    H227426   1.323   3.031  14.646  0.2622  0.5750 -0.4253
 1979TIP3   OH227427   3.476   3.168  13.613 -0.3841 -0.3479  0.0336
 1979TIP3    H127428   3.535   3.243  13.611 -0.2174 -0.4891 -1.5180
 1979TIP3    H227429   3.484   3.133  13.702  1.0446  0.2711  0.1651
 1980TIP3   OH227430   0.178   4.153  12.900  0.1232  0.6413  0.2973
 1980TIP3    H127431   0.132   4.111  12.972  0.6348  1.4196  1.0946
 1980TIP3    H227432   0.148   4.244  12.902 -0.0619  0.6129 -0.6485
 1981TIP3   OH227433   3.036   3.155  13.757  0.2812  0.3063  0.1896
 1981TIP3    H127434   2.977   3.083  13.735  0.2662  1.0092 -2.5113
 1981TIP3    H227435   2.988   3.207  13.821 -2.4936  1.2355 -2.4121
 1982TIP3   OH227436   4.979   0.960   3.475  0.0554  0.2451 -0.0686
 1982TIP3    H127437   4.913   0.901   3.438  0.7588 -1.2247  0.9116
 1982TIP3    H227438   4.962   1.044   3.433 -1.6894 -0.3738 -0.7143
 1983TIP3   OH227439   6.566   2.806  14.140  0.7022  0.4056  0.2423
 1983TIP3    H127440   6.549   2.894  14.106 -0.1416  0.1996  0.0842
 1983TIP3    H227441   6.481   2.777  14.174  1.3534  0.3152  1.8805
 1984TIP3   OH227442   1.227   1.868  16.330 -0.6672  0.1251 -0.1917
 1984TIP3    H127443   1.132   1.871  16.334 -0.7667 -2.0979  0.7845
 1984TIP3    H227444   1.256   1.948  16.373 -2.1094  0.0803  0.9444
 1985TIP3   OH227445   2.366   1.408   3.431  0.8919  0.2929 -0.2034
 1985TIP3    H127446   2.324   1.326   3.404 -1.6133  1.4705 -0.2303
 1985TIP3    H227447   2.452   1.382   3.464  0.6771 -2.1744 -1.3761
 1986TIP3   OH227448   1.544   4.161  12.560 -0.0776 -0.0934 -0.4171
 1986TIP3    H127449   1.555   4.250  12.594 -1.5831 -0.1946  0.3996
 1986TIP3    H227450   1.603   4.108  12.614  1.1342  0.4330 -1.1729
 1987TIP3   OH227451   2.228   5.540  14.204  0.6262  0.2982 -0.1917
 1987TIP3    H127452   2.140   5.529  14.168  0.6213  0.8879 -0.3741
 1987TIP3    H227453   2.248   5.456  14.245  0.6386 -0.4040 -1.5714
 1988TIP3   OH227454   0.880   0.302   1.449  0.2625 -0.2550  0.3855
 1988TIP3    H127455   0.890   0.375   1.388  2.2329 -1.6346 -1.0582
 1988TIP3    H227456   0.834   0.234   1.399 -0.4348 -0.4927  1.3031
 1989TIP3   OH227457   5.726   3.226   2.568 -0.1302  0.0744  0.2254
 1989TIP3    H127458   5.656   3.174   2.607 -0.3097 -0.0166 -0.2148
 1989TIP3    H227459   5.702   3.234   2.475  0.2835  0.2995  0.1330
 1990TIP3   OH227460   4.735   3.592   4.098  0.4852 -0.5294 -0.7647
 1990TIP3    H127461   4.775   3.512   4.064 -0.5970 -0.5554 -2.0256
 1990TIP3    H227462   4.662   3.561   4.151 -0.0804 -0.3815 -1.4484
 1991TIP3   OH227463   2.817   0.109   5.056  0.2192 -0.0578  0.7839
 1991TIP3    H127464   2.876   0.052   5.106  0.9620  0.3208  0.3639
 1991TIP3    H227465   2.729   0.076   5.075  0.5473 -0.4553  1.6535
 1992TIP3   OH227466   0.331   6.406   3.330 -0.5796  0.3072 -0.2737
 1992TIP3    H127467   0.331   6.453   3.247 -0.2017 -0.6164 -0.8092
 1992TIP3    H227468   0.259   6.344   3.324  0.0572 -0.4479 -0.3231
 1993TIP3   OH227469   0.977   1.495  13.621 -1.1030  0.1189  0.1706
 1993TIP3    H127470   1.015   1.452  13.698 -0.5211 -0.3035 -0.3446
 1993TIP3    H227471   1.008   1.586  13.627  0.5745 -0.3677 -0.5873
 1994TIP3   OH227472   5.628   6.221   2.474 -0.0161  0.3785 -0.1357
 1994TIP3    H127473   5.705   6.277   2.466 -0.8297  1.5369 -0.1429
 1994TIP3    H227474   5.636   6.181   2.560  0.9172 -0.0353 -0.4014
 1995TIP3   OH227475   4.714   1.458   3.353  0.1968 -0.4115  0.2133
 1995TIP3    H127476   4.700   1.363   3.353 -0.5994 -0.3007  0.4181
 1995TIP3    H227477   4.784   1.472   3.289 -1.8722 -0.8277 -2.2539
 1996TIP3   OH227478   3.672   6.681  16.248 -0.1206 -0.0404 -0.4179
 1996TIP3    H127479   3.697   6.640  16.165 -1.3069  1.4070 -1.5531
 1996TIP3    H227480   3.716   6.766  16.247  1.4981 -0.7580  1.4364
 1997TIP3   OH227481   5.083   5.200  12.715 -0.5309 -0.1053 -0.0294
 1997TIP3    H127482   5.008   5.252  12.745 -0.4733  0.6398 -1.0946
 1997TIP3    H227483   5.119   5.251  12.642  1.8366  0.2289  1.2941
 1998TIP3   OH227484   1.163   0.855   2.538  0.3143 -0.3042  0.0181
 1998TIP3    H127485   1.111   0.931   2.566  0.0431 -1.0709  1.7050
 1998TIP3    H227486   1.100   0.783   2.535  1.1462 -1.1315  1.5718
 1999TIP3   OH227487   4.188   4.121   1.880 -0.1288  0.0782 -0.2124
 1999TIP3    H127488   4.181   4.212   1.910  1.8624  0.1132  0.3331
 1999TIP3    H227489   4.122   4.112   1.812 -1.1312  1.5963  0.5096
 2000TIP3   OH227490   2.092   1.631  16.911  0.3434 -0.5138 -0.3766
 2000TIP3    H127491   2.177   1.674  16.908  0.0203  0.0789 -1.3084
 2000TIP3    H227492   2.036   1.682  16.853 -1.6686  1.2802  2.8015
 2001TIP3   OH227493   5.173   6.792  16.758  0.3224 -0.6803 -0.3052
 2001TIP3    H127494   5.204   6.712  16.716  0.7378 -0.6711 -0.0208
 2001TIP3    H227495   5.228   6.802  16.835 -0.5829 -0.8270  0.3815
 2002TIP3   OH227496   1.168   3.365  11.491 -0.2364 -0.7213 -0.4307
 2002TIP3    H127497   1.170   3.301  11.562 -1.1553  0.7522  0.9908
 2002TIP3    H227498   1.248   3.416  11.503 -0.1942 -0.7268 -0.6932
 2003TIP3   OH227499   1.666   5.307  16.601  0.7170 -0.6815 -0.5213
 2003TIP3    H127500   1.656   5.293  16.695  0.0512 -0.6849 -0.5879
 2003TIP3    H227501   1.760   5.313  16.588  0.8315 -1.0133  0.0981
 2004TIP3   OH227502   1.138   3.621   4.476  0.5391 -0.0255 -0.4843
 2004TIP3    H127503   1.116   3.668   4.396  0.6542  1.0026  0.0651
 2004TIP3    H227504   1.233   3.627   4.482  0.4294  1.2624  0.5008
 2005TIP3   OH227505   3.367   3.741   6.438  0.1438 -0.0933  0.1134
 2005TIP3    H127506   3.368   3.648   6.461  0.0031 -0.2118 -0.3401
 2005TIP3    H227507   3.289   3.776   6.481 -1.3257 -0.7638 -1.8484
 2006TIP3   OH227508   4.526   4.323  15.736  0.4083 -0.2466  0.4362
 2006TIP3    H127509   4.543   4.349  15.826  0.0601 -3.2732  1.4788
 2006TIP3    H227510   4.612   4.297  15.702  0.2242 -1.1627  0.6470
 2007TIP3   OH227511   3.012   5.898   5.926 -0.3305 -0.0457  0.4848
 2007TIP3    H127512   3.059   5.817   5.908  0.2748 -0.0891  2.0756
 2007TIP3    H227513   3.082   5.961   5.948 -0.8782  0.5623  0.5137
 2008TIP3   OH227514   1.867   2.368   0.534  0.0102 -0.5597 -0.3561
 2008TIP3    H127515   1.806   2.299   0.561 -0.4151  0.6141  1.9257
 2008TIP3    H227516   1.835   2.397   0.449 -0.1928 -2.6695 -1.0644
 2009TIP3   OH227517   6.074   3.385  14.785 -0.0148 -0.0661  0.3083
 2009TIP3    H127518   6.103   3.476  14.785  0.8210 -0.1290 -3.8948
 2009TIP3    H227519   6.155   3.334  14.791  0.0182 -0.3652 -1.7797
 2010TIP3   OH227520   3.907   1.200  13.356 -0.2070  0.3685 -0.1289
 2010TIP3    H127521   3.945   1.161  13.434  0.6039 -1.3295 -1.2993
 2010TIP3    H227522   3.812   1.190  13.368 -0.0525 -1.8425 -0.2331
 2011TIP3   OH227523   5.881   4.460  13.815  0.2633  0.2505 -0.0998
 2011TIP3    H127524   5.821   4.507  13.756 -1.5753  0.4484  1.8177
 2011TIP3    H227525   5.966   4.465  13.771 -1.1081 -0.2409 -3.0731
 2012TIP3   OH227526   4.272   0.724  13.118  0.4397 -0.4787  0.0270
 2012TIP3    H127527   4.249   0.634  13.140  1.0327 -1.1227 -1.7510
 2012TIP3    H227528   4.304   0.762  13.200 -0.1610 -1.7657  0.8856
 2013TIP3   OH227529   3.432   0.422  13.011 -0.2791 -0.0266 -0.4887
 2013TIP3    H127530   3.482   0.341  12.999 -0.9469 -0.5171 -0.0579
 2013TIP3    H227531   3.342   0.398  12.990 -0.6395  0.3595  0.5319
 2014TIP3   OH227532   1.711   1.102  16.924 -0.2890  0.0451  0.1946
 2014TIP3    H127533   1.765   1.154  16.984 -0.2018 -0.9835  1.0331
 2014TIP3    H227534   1.761   1.100  16.843  0.2870  0.2348  0.5364
 2015TIP3   OH227535   5.329   1.631  11.187  0.3075 -0.1691 -0.0911
 2015TIP3    H127536   5.392   1.693  11.150 -1.7199  0.5282 -2.6239
 2015TIP3    H227537   5.245   1.676  11.181 -0.9431 -2.3579  0.0046
 2016TIP3   OH227538   2.751   5.988   6.513 -0.0388  0.1272  0.2037
 2016TIP3    H127539   2.841   5.957   6.510  0.1911  0.8374 -0.4423
 2016TIP3    H227540   2.758   6.083   6.520 -0.7364  0.0875  2.0847
 2017TIP3   OH227541   5.773   0.317  15.582  0.1742 -0.1125 -0.6922
 2017TIP3    H127542   5.701   0.277  15.532  1.1989 -1.3562 -1.2433
 2017TIP3    H227543   5.852   0.276  15.546  1.1192  0.7884  0.2998
 2018TIP3   OH227544   0.452   6.565   3.536  0.0315 -0.1213  0.2780
 2018TIP3    H127545   0.417   6.542   3.450 -0.4286  0.2493  0.3606
 2018TIP3    H227546   0.546   6.550   3.528 -0.2820 -2.7083  0.5549
 2019TIP3   OH227547   1.671   5.849  10.847  0.1590  0.4427 -0.8409
 2019TIP3    H127548   1.622   5.767  10.835  3.4136 -1.7801 -0.3521
 2019TIP3    H227549   1.743   5.843  10.784  0.1597  3.3263 -1.2400
 2020TIP3   OH227550   3.963   4.796   2.853 -0.1016 -0.7750 -0.0618
 2020TIP3    H127551   3.947   4.764   2.765 -2.1749  1.3753 -0.5889
 2020TIP3    H227552   3.921   4.732   2.910  2.3638 -2.8863 -0.4068
 2021TIP3   OH227553   5.666   3.592  11.377  0.0352 -0.0307 -1.1791
 2021TIP3    H127554   5.724   3.669  11.372  0.2937 -0.2067 -0.9276
 2021TIP3    H227555   5.606   3.612  11.449 -0.2344  0.1608 -1.4533
 2022TIP3   OH227556   4.019   6.665  14.688  0.1679 -0.7381 -0.5232
 2022TIP3    H127557   4.089   6.664  14.622 -0.2435 -2.0937 -0.9632
 2022TIP3    H227558   3.958   6.731  14.656  0.0453 -1.2802 -1.4278
 2023TIP3   OH227559   6.353   3.905  15.834 -0.6763  0.2088  0.2251
 2023TIP3    H127560   6.299   3.975  15.871  0.9937  1.0065  1.2831
 2023TIP3    H227561   6.432   3.950  15.805 -0.1482 -1.0644 -0.3526
 2024TIP3   OH227562   5.035   5.444  15.563  0.6967  0.0193 -0.1566
 2024TIP3    H127563   5.000   5.391  15.634 -3.2678  0.1599 -1.7392
 2024TIP3    H227564   4.976   5.428  15.489  1.1087  4.1800 -1.6922
 2025TIP3   OH227565   4.171   5.734   0.665 -0.3880 -0.1935  0.1480
 2025TIP3    H127566   4.249   5.764   0.713 -0.8282  1.7651 -0.2642
 2025TIP3    H227567   4.115   5.697   0.733 -0.5640  1.6072  1.0583
 2026TIP3   OH227568   0.563   0.352  16.610 -0.3109 -0.1216  0.0605
 2026TIP3    H127569   0.632   0.414  16.635 -0.8713  0.3673  0.3899
 2026TIP3    H227570   0.505   0.348  16.685 -0.4949 -0.7505 -0.1114
 2027TIP3   OH227571   3.030   1.960  16.265 -0.2551 -0.1000 -0.0380
 2027TIP3    H127572   2.953   1.914  16.299  0.4313  0.7288  2.9092
 2027TIP3    H227573   3.019   2.050  16.295  1.0088  0.4561 -1.1365
 2028TIP3   OH227574   0.425   2.901  11.618 -0.3551 -0.3456  0.0958
 2028TIP3    H127575   0.411   2.969  11.552 -1.6816  2.1240  2.6842
 2028TIP3    H227576   0.448   2.823  11.567 -3.3702  0.7572 -3.4155
 2029TIP3   OH227577   3.374   6.737  16.144 -0.1000  0.0672 -0.5829
 2029TIP3    H127578   3.422   6.688  16.212 -0.7050  0.6282  0.2649
 2029TIP3    H227579   3.331   6.808  16.192 -2.4813 -0.8953 -1.1801
 2030TIP3   OH227580   1.701   5.232   4.176 -0.0222  0.2774  0.5502
 2030TIP3    H127581   1.713   5.324   4.197  0.0808  0.6486 -1.0487
 2030TIP3    H227582   1.783   5.205   4.136  0.2350 -0.7365  1.7003
 2031TIP3   OH227583   5.131   5.956  15.215  0.3728  0.0598  0.2368
 2031TIP3    H127584   5.090   6.034  15.253  0.1600 -0.0545  0.2427
 2031TIP3    H227585   5.203   5.990  15.163 -0.3451  0.3373 -0.5891
 2032TIP3   OH227586   5.521   4.025   4.219  0.0271 -0.7817 -0.8510
 2032TIP3    H127587   5.605   4.050   4.181 -0.2425 -0.0680 -0.9851
 2032TIP3    H227588   5.456   4.073   4.168 -0.3701 -0.2236  0.1519
 2033TIP3   OH227589   3.467   3.947  14.150  0.5000  0.1898 -0.1567
 2033TIP3    H127590   3.418   3.879  14.197 -0.6539  0.3836 -1.0199
 2033TIP3    H227591   3.437   4.029  14.190  0.9294  0.2568  0.0272
 2034TIP3   OH227592   1.571   0.786  14.598 -0.1375 -0.3110  0.1641
 2034TIP3    H127593   1.560   0.763  14.506 -1.0248 -0.7400  0.3676
 2034TIP3    H227594   1.565   0.702  14.645  0.9260 -0.1804  0.5740
 2035TIP3   OH227595   0.116   3.944  14.527 -0.0387  0.2441  0.0956
 2035TIP3    H127596   0.186   4.002  14.556 -0.3064  0.5884  0.0539
 2035TIP3    H227597   0.087   3.980  14.443  0.7712 -0.7768 -0.6570
 2036TIP3   OH227598   0.372   4.394   1.642 -0.4954  0.0894 -0.1002
 2036TIP3    H127599   0.434   4.466   1.648 -0.2712  0.0088 -1.2419
 2036TIP3    H227600   0.290   4.435   1.614 -0.2737 -0.1259 -1.1095
 2037TIP3   OH227601   0.085   4.919  13.269  0.2305  0.1928 -0.4197
 2037TIP3    H127602   0.156   4.943  13.329  0.3643  0.8924 -0.8464
 2037TIP3    H227603   0.083   4.989  13.204 -1.7387  0.8959  0.3379
 2038TIP3   OH227604   6.181   4.333   1.427  0.2223  0.0640  0.1294
 2038TIP3    H127605   6.198   4.348   1.520 -0.3339  0.1714  0.2233
 2038TIP3    H227606   6.263   4.355   1.383  1.2584 -2.2408  0.7811
 2039TIP3   OH227607   0.941   6.368   5.279  0.2649  1.0787 -0.0915
 2039TIP3    H127608   0.952   6.434   5.347 -0.8322  1.5226 -0.3222
 2039TIP3    H227609   0.863   6.319   5.305  1.7193 -0.9551  0.7142
 2040TIP3   OH227610   4.010   0.649  15.260 -0.3474  0.0492  0.0127
 2040TIP3    H127611   3.995   0.559  15.290  0.4810 -0.0239  0.2340
 2040TIP3    H227612   4.027   0.699  15.340 -1.3903  0.5373 -0.0533
 2041TIP3   OH227613   6.681   4.221  15.299 -0.1005 -0.7519  0.7186
 2041TIP3    H127614   6.591   4.208  15.331 -0.4070  1.9595  1.2599
 2041TIP3    H227615   6.718   4.133  15.294 -1.3608 -1.7109  4.7220
 2042TIP3   OH227616   3.874   6.710   1.025  0.0453  0.2140  0.2562
 2042TIP3    H127617   3.937   6.640   1.035  0.4777  0.4276 -0.8155
 2042TIP3    H227618   3.916   6.787   1.064  1.3630  0.8434 -2.1706
 2043TIP3   OH227619   1.153   1.869   3.942 -0.2208 -0.0191  0.4397
 2043TIP3    H127620   1.099   1.790   3.950  1.5418 -1.2344  1.0204
 2043TIP3    H227621   1.187   1.867   3.853  2.5421 -1.8833  1.3986
 2044TIP3   OH227622   4.393   0.781   0.232 -0.6011 -0.0008 -0.0738
 2044TIP3    H127623   4.455   0.748   0.296  2.5300 -0.1640 -2.9417
 2044TIP3    H227624   4.331   0.709   0.219  1.7967 -2.0325 -0.9418
 2045TIP3   OH227625   6.718   3.622  12.687 -0.3946  0.0380  0.0770
 2045TIP3    H127626   6.632   3.592  12.717 -0.6106 -0.0623 -0.6334
 2045TIP3    H227627   6.706   3.715  12.671 -0.0695  0.2600  1.0254
 2046TIP3   OH227628   0.656   2.071  11.517  0.2296 -0.2047  0.9824
 2046TIP3    H127629   0.597   2.033  11.452 -0.9190  0.9123  1.3444
 2046TIP3    H227630   0.743   2.041  11.490 -0.0970  0.9249 -1.5841
 2047TIP3   OH227631   2.251   5.763  15.731 -0.0879 -0.3703  0.4023
 2047TIP3    H127632   2.262   5.848  15.774  3.2561 -0.8701  0.8496
 2047TIP3    H227633   2.174   5.725  15.772 -0.6792  1.7550  1.4000
 2048TIP3   OH227634   2.661   4.040  15.267  0.2165  0.5205 -0.1244
 2048TIP3    H127635   2.628   4.120  15.307  0.9275  1.2005 -0.8596
 2048TIP3    H227636   2.589   4.008  15.213 -0.2290  0.4016  0.5311
 2049TIP3   OH227637   0.024   5.741   1.222 -0.0651 -0.1010  0.0822
 2049TIP3    H127638  -0.066   5.738   1.188 -0.3773  0.5984  0.8174
 2049TIP3    H227639   0.018   5.702   1.309  0.5048 -0.8004 -0.1867
 2050TIP3   OH227640   5.975   5.170  12.696 -0.6521 -0.1648 -0.1399
 2050TIP3    H127641   6.028   5.123  12.631 -0.3128  0.0419 -0.0162
 2050TIP3    H227642   6.006   5.138  12.780 -2.0115 -1.4176 -0.0932
 2051TIP3   OH227643   6.052   5.565   1.163 -0.2303  0.2613  0.4655
 2051TIP3    H127644   6.123   5.553   1.100 -1.3460 -2.7368 -0.3735
 2051TIP3    H227645   6.095   5.596   1.242  1.6357  0.9932 -0.7696
 2052TIP3   OH227646   3.145   0.390  12.614  0.5961  0.1048  0.8789
 2052TIP3    H127647   3.128   0.407  12.707 -1.5435  1.5368  0.3216
 2052TIP3    H227648   3.240   0.396  12.605  0.7363  1.4516  2.7254
 2053TIP3   OH227649   5.688   3.811  14.374  0.0858  0.1346  0.3406
 2053TIP3    H127650   5.636   3.839  14.299  0.5527  0.3687  0.1014
 2053TIP3    H227651   5.768   3.776  14.336 -0.5177 -1.6429  0.6166
 2054TIP3   OH227652   4.801   4.711   5.672  0.1120 -0.2639  0.1574
 2054TIP3    H127653   4.803   4.675   5.761  0.4074 -0.2311  0.1654
 2054TIP3    H227654   4.821   4.636   5.616 -1.0591 -0.5116  0.0409
 2055TIP3   OH227655   4.103   3.362  11.094 -0.2756 -0.4911 -0.0203
 2055TIP3    H127656   4.028   3.423  11.091 -0.3335 -0.5390  0.4271
 2055TIP3    H227657   4.176   3.413  11.060 -0.4331 -0.3303 -0.1233
 2056TIP3   OH227658   4.238   4.595   5.175 -0.1694  0.2210  0.1883
 2056TIP3    H127659   4.246   4.614   5.269  0.3573  0.4071  0.1103
 2056TIP3    H227660   4.328   4.599   5.142 -0.5011  1.6928 -0.6211
 2057TIP3   OH227661   3.323   5.744   0.516  0.7240 -0.2643 -0.2409
 2057TIP3    H127662   3.326   5.668   0.574 -1.9501  0.6160  1.2150
 2057TIP3    H227663   3.236   5.741   0.477  0.8965  1.5528 -0.8676
 2058TIP3   OH227664   1.481   5.627  14.433  0.0654 -0.2909 -0.7454
 2058TIP3    H127665   1.524   5.551  14.472 -1.2142 -1.1712 -0.9778
 2058TIP3    H227666   1.498   5.620  14.340  3.0067  1.7402 -0.4971
 2059TIP3   OH227667   6.596   4.646  12.336  0.0873 -0.2150  0.7782
 2059TIP3    H127668   6.654   4.691  12.275 -0.1621  2.1099  2.1493
 2059TIP3    H227669   6.516   4.630  12.287 -0.2424  1.9358  0.5377
 2060TIP3   OH227670   3.482   5.659   1.385 -0.1435  0.0563  0.0486
 2060TIP3    H127671   3.458   5.624   1.471 -0.5687  0.8243  0.2519
 2060TIP3    H227672   3.497   5.752   1.400 -2.2251  0.6329 -1.0798
 2061TIP3   OH227673   2.565   5.763  14.203 -0.5135  0.2661 -0.3242
 2061TIP3    H127674   2.576   5.718  14.287 -0.6576 -0.3228 -0.6136
 2061TIP3    H227675   2.591   5.698  14.138  2.1394  1.5506 -0.6549
 2062TIP3   OH227676   0.646   3.824   3.532 -0.3701  0.2319  0.2727
 2062TIP3    H127677   0.556   3.800   3.551 -0.1930 -0.4989  0.2019
 2062TIP3    H227678   0.699   3.757   3.576  0.1298  0.4973  0.0835
 2063TIP3   OH227679   5.736   5.017   4.107 -0.2118  0.3736  0.2831
 2063TIP3    H127680   5.731   4.923   4.090 -0.4161  0.1882  1.3061
 2063TIP3    H227681   5.830   5.034   4.120  0.0614  0.6649 -1.6438
 2064TIP3   OH227682   2.663   6.816  11.784 -0.4589 -0.2829  0.0226
 2064TIP3    H127683   2.570   6.807  11.760  0.3266 -0.2153 -3.7797
 2064TIP3    H227684   2.707   6.747  11.735  1.8994  2.3514 -1.9743
 2065TIP3   OH227685   1.373   5.190   3.654 -0.1671  0.0262  0.2285
 2065TIP3    H127686   1.292   5.185   3.603  0.2154 -0.4502 -0.3436
 2065TIP3    H227687   1.431   5.127   3.612  0.7761  0.9426  0.1371
 2066TIP3   OH227688   0.428   4.310  16.618  0.7009  0.4983  0.0746
 2066TIP3    H127689   0.517   4.337  16.594  0.6903  1.9887  1.5504
 2066TIP3    H227690   0.435   4.280  16.708 -0.5521  2.2578  0.8183
 2067TIP3   OH227691   0.312   5.359   3.067 -0.0632  0.6906  0.5895
 2067TIP3    H127692   0.221   5.385   3.083 -0.0984  1.2628 -0.4297
 2067TIP3    H227693   0.361   5.400   3.138 -0.4248  1.6768  0.2899
 2068TIP3   OH227694   0.326   1.190   2.790 -0.2364  0.5154  0.1896
 2068TIP3    H127695   0.280   1.191   2.706  1.5781  1.0736 -0.8670
 2068TIP3    H227696   0.324   1.099   2.818  1.0275 -0.1417 -1.6297
 2069TIP3   OH227697   6.272   6.772  13.977  0.2641 -0.0684  0.0828
 2069TIP3    H127698   6.344   6.759  13.916  1.7254 -0.4111  1.7949
 2069TIP3    H227699   6.295   6.718  14.053 -1.8262 -0.2192  0.6752
 2070TIP3   OH227700   2.057   6.213  15.852  0.0059  0.0196 -0.1447
 2070TIP3    H127701   2.040   6.123  15.827 -0.5412  0.1290 -0.1757
 2070TIP3    H227702   1.971   6.256  15.850  0.2693  0.5584 -0.2089
 2071TIP3   OH227703   2.047   4.011   6.219 -0.3017  0.7217  0.4477
 2071TIP3    H127704   2.120   3.986   6.276 -0.9987  0.8006  1.4068
 2071TIP3    H227705   1.997   3.931   6.207 -1.3892  1.1506  1.8177
 2072TIP3   OH227706   2.927   2.368  13.166 -0.2217 -0.3497 -0.0126
 2072TIP3    H127707   2.833   2.383  13.177 -0.2613 -0.5831 -0.0223
 2072TIP3    H227708   2.968   2.449  13.195 -0.4544 -0.0315 -0.5481
 2073TIP3   OH227709   2.980   4.887  14.513 -0.8775 -0.0930 -0.0745
 2073TIP3    H127710   2.990   4.801  14.554 -0.1392  0.4186  0.8575
 2073TIP3    H227711   2.980   4.948  14.587  1.3788  0.9275 -0.8576
 2074TIP3   OH227712   6.063   6.456   0.237  0.6111  0.1894 -0.0813
 2074TIP3    H127713   5.979   6.491   0.208 -0.1760 -1.2553  0.3385
 2074TIP3    H227714   6.116   6.533   0.259 -0.6685  1.1084 -0.1499
 2075TIP3   OH227715   0.998   2.024  10.935 -0.7153 -0.1339  0.2212
 2075TIP3    H127716   0.941   2.072  10.994 -0.6812 -2.3657  2.1998
 2075TIP3    H227717   0.959   1.937  10.929  1.8362 -1.4223  0.8055
 2076TIP3   OH227718   1.849   2.366  15.887 -0.5655 -0.0603 -0.3985
 2076TIP3    H127719   1.878   2.274  15.883 -0.4322  0.0005 -1.0636
 2076TIP3    H227720   1.925   2.416  15.856 -1.6969  0.0284 -3.3299
 2077TIP3   OH227721   2.340   1.691   5.504  0.1032  0.4159 -0.0562
 2077TIP3    H127722   2.245   1.683   5.492  0.2673 -0.1328 -1.1202
 2077TIP3    H227723   2.352   1.689   5.599 -0.9873  1.0088  0.1110
 2078TIP3   OH227724   0.759   3.935   5.700 -0.0358  0.3881 -0.0072
 2078TIP3    H127725   0.830   3.997   5.713  0.6653 -0.2722 -0.5469
 2078TIP3    H227726   0.732   3.947   5.609 -1.3404  1.3458  0.4682
 2079TIP3   OH227727   6.108   3.864   2.798 -0.0810 -0.2329  0.0376
 2079TIP3    H127728   6.072   3.824   2.877 -1.8893  0.3439 -0.4573
 2079TIP3    H227729   6.164   3.796   2.760 -0.3129 -1.0147  1.0492
 2080TIP3   OH227730   4.971   3.867   2.081 -0.2064  0.2629 -0.0448
 2080TIP3    H127731   4.978   3.944   2.137 -2.9748  0.4904  0.1167
 2080TIP3    H227732   4.947   3.901   1.995 -2.5560 -0.3884  0.2884
 2081TIP3   OH227733   2.061   3.037   0.295  0.1748  0.3224  0.1263
 2081TIP3    H127734   2.094   3.127   0.293 -0.6457  0.6370  0.3270
 2081TIP3    H227735   2.065   3.012   0.388  0.5482  0.0856  0.0517
 2082TIP3   OH227736   5.451   0.011   3.077  0.3200 -0.4758 -0.4070
 2082TIP3    H127737   5.382   0.057   3.125  1.3599  1.4935 -0.6982
 2082TIP3    H227738   5.439   0.039   2.986  0.6497 -1.2451 -0.6941
 2083TIP3   OH227739   3.182   5.183  15.243 -0.3120 -0.2885 -0.4410
 2083TIP3    H127740   3.175   5.213  15.152 -0.7930  1.7120  0.2129
 2083TIP3    H227741   3.197   5.088  15.235 -2.3172 -0.5343 -2.5599
 2084TIP3   OH227742   5.728   5.668  15.953 -0.0212  0.1465 -0.6900
 2084TIP3    H127743   5.731   5.598  15.888 -0.9358 -1.9320  1.3366
 2084TIP3    H227744   5.634   5.684  15.966  0.1592  0.9970 -0.3740
 2085TIP3   OH227745   2.734   0.648  14.058  0.1274 -0.5083  0.1131
 2085TIP3    H127746   2.807   0.658  13.998  0.1646  1.9963  0.5005
 2085TIP3    H227747   2.685   0.573  14.024  0.4202  0.5102 -2.7520
 2086TIP3   OH227748   0.503   3.522  15.975  0.4696 -0.2152 -0.2451
 2086TIP3    H127749   0.542   3.452  15.922  0.0128 -0.5723 -0.1074
 2086TIP3    H227750   0.467   3.478  16.051  0.3511  0.1965 -0.0593
 2087TIP3   OH227751   3.564   4.382  14.909 -0.3245 -0.6450 -0.5932
 2087TIP3    H127752   3.501   4.454  14.899 -0.7070 -1.1097 -1.6923
 2087TIP3    H227753   3.511   4.302  14.899  0.1849 -1.0689  0.0609
 2088TIP3   OH227754   3.153   4.316   1.844 -0.0257  0.3626  0.7251
 2088TIP3    H127755   3.134   4.272   1.927  2.4881 -1.6600  0.3589
 2088TIP3    H227756   3.242   4.349   1.855 -0.3242  1.6762 -0.5620
 2089TIP3   OH227757   0.808   0.718  16.095  0.5092 -0.1676  0.0315
 2089TIP3    H127758   0.769   0.805  16.082  0.2657 -0.2761  0.0412
 2089TIP3    H227759   0.834   0.691  16.007 -1.3650 -1.0100 -0.3056
 2090TIP3   OH227760   5.072   5.547   0.897 -0.0944  0.5202 -0.2564
 2090TIP3    H127761   5.150   5.560   0.951 -0.6551  1.4608  0.3553
 2090TIP3    H227762   5.073   5.453   0.876 -0.0825  0.0362  1.7509
 2091TIP3   OH227763   1.565   5.105   2.010 -0.4315 -0.7668 -0.3597
 2091TIP3    H127764   1.482   5.077   2.047 -0.9489 -0.9931 -1.6360
 2091TIP3    H227765   1.606   5.158   2.079 -1.7352 -0.4400  0.1874
 2092TIP3   OH227766   3.565   0.015   6.657 -0.1853 -0.0146 -0.0092
 2092TIP3    H127767   3.559  -0.047   6.730 -2.5841  0.0820 -0.0529
 2092TIP3    H227768   3.506   0.086   6.681 -0.3637  0.4222 -1.6549
 2093TIP3   OH227769   3.929   3.768  11.901  0.6677 -0.2446 -0.2942
 2093TIP3    H127770   3.999   3.821  11.941  1.3220 -1.4023  0.1654
 2093TIP3    H227771   3.862   3.831  11.876  1.3731  0.7840  0.3249
 2094TIP3   OH227772   1.658   5.323  14.360  0.3145  0.2517 -0.2950
 2094TIP3    H127773   1.566   5.312  14.380  0.0140  1.4920 -0.8863
 2094TIP3    H227774   1.689   5.235  14.337 -0.8013 -0.1140 -0.4296
 2095TIP3   OH227775   4.159   4.079   1.290 -0.0713 -0.1534  0.0208
 2095TIP3    H127776   4.177   4.005   1.348  1.4195 -0.1926 -0.4673
 2095TIP3    H227777   4.178   4.156   1.343  1.5922 -0.1941 -0.4773
 2096TIP3   OH227778   5.436   6.214  15.479 -0.3673  1.0757  0.0715
 2096TIP3    H127779   5.527   6.229  15.506  0.2502 -1.3787 -0.3466
 2096TIP3    H227780   5.437   6.226  15.384 -0.9157  2.7252  0.2444
 2097TIP3   OH227781   5.052   2.260  16.075 -0.5454 -0.4837  0.4826
 2097TIP3    H127782   5.002   2.283  16.153 -1.0429 -1.0472  0.3455
 2097TIP3    H227783   5.129   2.215  16.108 -0.1786  0.2840  0.6923
 2098TIP3   OH227784   6.415   6.536  15.476 -0.5084 -0.5002  0.5955
 2098TIP3    H127785   6.434   6.443  15.487 -0.5646 -0.2771  3.4338
 2098TIP3    H227786   6.344   6.540  15.413 -0.1150 -2.3261 -0.0054
 2099TIP3   OH227787   2.470   3.822   5.929 -0.1914 -0.1918 -0.8143
 2099TIP3    H127788   2.385   3.837   5.889 -0.5207 -0.4961 -0.2280
 2099TIP3    H227789   2.512   3.909   5.931 -1.8973  0.7112  2.1390
 2100TIP3   OH227790   1.805   2.786   2.036  0.0729 -0.0628 -0.3529
 2100TIP3    H127791   1.866   2.750   1.971  1.0773 -0.3873  0.7146
 2100TIP3    H227792   1.826   2.738   2.116 -1.1060  0.3519  0.2275
 2101TIP3   OH227793   1.171   5.196   6.571 -0.0371 -0.7533 -0.1969
 2101TIP3    H127794   1.191   5.103   6.585  0.5407 -0.8186 -1.3440
 2101TIP3    H227795   1.076   5.198   6.558 -0.2731 -0.9737  1.2814
 2102TIP3   OH227796   4.350   3.108   5.910  0.4455 -0.0314  0.3844
 2102TIP3    H127797   4.294   3.165   5.964  0.0110 -1.2243  1.2207
 2102TIP3    H227798   4.395   3.169   5.852 -1.4923  1.0226 -0.1263
 2103TIP3   OH227799   0.360   2.380  15.375  0.0878 -0.1426 -0.5240
 2103TIP3    H127800   0.333   2.329  15.452  3.2187 -1.7483 -0.3134
 2103TIP3    H227801   0.278   2.409  15.335 -1.7084 -0.9017  2.3093
 2104TIP3   OH227802   2.918   6.395  13.990  0.0390  0.7111  0.2250
 2104TIP3    H127803   2.930   6.387  13.896  1.4331  0.6846  0.3907
 2104TIP3    H227804   2.931   6.306  14.024 -0.5866  0.6938  0.4383
 2105TIP3   OH227805   3.229   5.583  13.936  0.5462  0.4308 -0.2880
 2105TIP3    H127806   3.293   5.555  13.871  0.0681 -0.8447 -0.2360
 2105TIP3    H227807   3.156   5.617  13.885  0.8564  0.9930 -0.3670
 2106TIP3   OH227808   5.572   0.651   0.022 -1.0739  1.0564 -0.3009
 2106TIP3    H127809   5.613   0.734  -0.000 -0.9382  0.8455 -0.8496
 2106TIP3    H227810   5.590   0.594  -0.053 -0.0146  0.1156  0.6292
 2107TIP3   OH227811   5.502   5.643  12.711 -0.3258 -0.8728  0.0435
 2107TIP3    H127812   5.545   5.635  12.796  1.9670 -1.3198 -1.0985
 2107TIP3    H227813   5.549   5.713  12.666 -2.2198  0.1237 -0.4929
 2108TIP3   OH227814   0.881   1.007   5.047 -0.0984  0.4940 -0.5866
 2108TIP3    H127815   0.822   1.082   5.051 -1.6227 -0.6785 -0.2757
 2108TIP3    H227816   0.848   0.954   4.974 -0.5414 -1.0578  0.6871
 2109TIP3   OH227817   1.802   1.894  13.948 -0.0495 -0.2390  0.2053
 2109TIP3    H127818   1.828   1.864  13.861 -0.1358 -2.1768  0.7994
 2109TIP3    H227819   1.863   1.849  14.008 -0.6601  0.2264  1.2040
 2110TIP3   OH227820   5.301   2.184   3.776 -0.2009  0.1867  0.0031
 2110TIP3    H127821   5.321   2.275   3.802 -1.5794  0.3181  0.6468
 2110TIP3    H227822   5.362   2.131   3.828  0.8739  0.7334 -0.6447
 2111TIP3   OH227823   1.769   4.059  11.020 -0.1025 -0.5579  0.4774
 2111TIP3    H127824   1.780   4.084  10.928  0.6262 -0.8567  0.4809
 2111TIP3    H227825   1.696   4.113  11.051 -0.5617 -0.6812 -0.3643
 2112TIP3   OH227826   4.786   4.226   0.096 -0.1518 -0.2495 -0.3527
 2112TIP3    H127827   4.795   4.159   0.164  0.1259 -1.9229 -1.9580
 2112TIP3    H227828   4.729   4.186   0.030 -0.6968  1.4484 -0.9804
 2113TIP3   OH227829   1.821   1.769  15.714  0.5165 -0.1859 -0.5273
 2113TIP3    H127830   1.914   1.778  15.695  0.8359 -0.3888  0.8765
 2113TIP3    H227831   1.781   1.754  15.628  1.7135  0.3066 -1.1985
 2114TIP3   OH227832   1.492   6.763  12.518 -0.6555 -0.9010 -0.7452
 2114TIP3    H127833   1.457   6.755  12.429 -1.9012  1.0835 -0.5046
 2114TIP3    H227834   1.414   6.774  12.572 -0.0818 -4.1228  0.9541
 2115TIP3   OH227835   3.012   6.788   5.185 -0.1744  0.2758 -0.2434
 2115TIP3    H127836   2.994   6.707   5.232 -0.3091  0.7548  0.5451
 2115TIP3    H227837   3.061   6.841   5.247 -0.9452  1.1894 -0.3953
 2116TIP3   OH227838   0.925   0.182   0.680 -0.1040  0.2950  0.1768
 2116TIP3    H127839   0.832   0.177   0.701 -0.3193 -0.8424 -0.9475
 2116TIP3    H227840   0.968   0.189   0.766 -1.1177 -1.1428  0.8504
 2117TIP3   OH227841   2.048   6.777  12.013  0.1636 -0.5727 -0.0700
 2117TIP3    H127842   1.966   6.731  12.031 -0.0042  0.5744  2.4501
 2117TIP3    H227843   2.116   6.711  12.024 -0.2448 -0.8621  0.7332
 2118TIP3   OH227844   4.597   6.540  11.639 -0.0861  0.1070  0.1993
 2118TIP3    H127845   4.641   6.492  11.568  0.2723  0.5708  0.1047
 2118TIP3    H227846   4.639   6.506  11.719 -0.8243 -0.7671  0.2331
 2119TIP3   OH227847   0.654   3.156   0.033 -0.3239 -0.0209  0.5762
 2119TIP3    H127848   0.676   3.223  -0.031 -1.9546  0.6394  0.6767
 2119TIP3    H227849   0.739   3.118   0.057  0.5237  1.2445 -0.2817
 2120TIP3   OH227850   2.444   4.229  14.530 -0.2166 -0.2175 -0.4464
 2120TIP3    H127851   2.526   4.270  14.501 -1.2277  0.5399 -2.3809
 2120TIP3    H227852   2.436   4.151  14.475 -0.8946 -0.1874 -0.3928
 2121TIP3   OH227853   2.722   2.583   4.434  0.0759  0.2047 -0.4958
 2121TIP3    H127854   2.714   2.518   4.364  0.6494 -0.4736  0.0475
 2121TIP3    H227855   2.805   2.562   4.476 -0.0106  0.9372  0.0543
 2122TIP3   OH227856   3.785   1.756  14.610  0.3824  0.7555  0.1310
 2122TIP3    H127857   3.693   1.736  14.628  0.7967 -0.9173  0.5692
 2122TIP3    H227858   3.827   1.756  14.696  1.1325 -0.4469 -0.2092
 2123TIP3   OH227859   5.996   2.481   0.863 -0.0858  0.5513 -0.4557
 2123TIP3    H127860   5.912   2.497   0.906  0.7360 -0.1740  1.5597
 2123TIP3    H227861   5.990   2.391   0.830  0.0546  0.3250  0.1225
 2124TIP3   OH227862   5.848   6.353  12.041  0.1698 -0.0468 -0.6100
 2124TIP3    H127863   5.878   6.358  12.131  0.6942 -0.0883 -0.7790
 2124TIP3    H227864   5.879   6.268  12.010 -0.9310 -0.4983 -0.5038
 2125TIP3   OH227865   4.629   5.137  14.870 -0.0110 -0.4229  0.1165
 2125TIP3    H127866   4.642   5.107  14.780  0.1603  0.3943 -0.1355
 2125TIP3    H227867   4.534   5.148  14.878  0.0366  0.2098 -0.1930
 2126TIP3   OH227868   3.135   1.072  13.675 -0.9616  0.2962  0.3267
 2126TIP3    H127869   3.092   1.099  13.756 -3.0537  1.0784 -0.9640
 2126TIP3    H227870   3.088   1.119  13.606  0.2449 -0.9296 -1.4134
 2127TIP3   OH227871   6.396   3.542  14.329 -0.7625 -0.2702  0.2127
 2127TIP3    H127872   6.484   3.556  14.366 -0.7105 -1.7849  0.7078
 2127TIP3    H227873   6.412   3.531  14.235 -0.2761 -1.6111  0.4338
 2128TIP3   OH227874   1.780   5.035   2.373 -0.1107  0.0744 -0.2206
 2128TIP3    H127875   1.690   5.004   2.375  0.3341 -1.2522 -0.1449
 2128TIP3    H227876   1.825   4.976   2.313  0.7758  0.5464 -0.0375
 2129TIP3   OH227877   1.839   0.850  15.626  0.2480  0.2104  0.3644
 2129TIP3    H127878   1.815   0.931  15.671 -1.1172 -0.4398  0.8422
 2129TIP3    H227879   1.855   0.876  15.536  1.4051  1.2622  0.8380
 2130TIP3   OH227880   3.132   1.368  15.215  0.1185  0.0625 -0.2402
 2130TIP3    H127881   3.209   1.340  15.164  1.1417 -0.2273  1.3983
 2130TIP3    H227882   3.130   1.309  15.290 -2.7222 -1.0275 -1.0450
 2131TIP3   OH227883   1.977   2.861   5.657 -0.2414 -0.1130  0.0398
 2131TIP3    H127884   1.936   2.783   5.619  0.1580 -0.7544  0.9053
 2131TIP3    H227885   2.043   2.827   5.717 -0.2193  0.8958  0.6067
 2132TIP3   OH227886   6.796   1.782   0.891  0.5667 -0.5416 -0.6541
 2132TIP3    H127887   6.796   1.720   0.817  0.5153 -1.5671  0.1789
 2132TIP3    H227888   6.884   1.775   0.928  0.8017  0.4493 -0.9856
 2133TIP3   OH227889   3.637   4.103  14.501 -0.3763  0.1980 -0.1868
 2133TIP3    H127890   3.555   4.151  14.493  0.6136  1.6532 -2.7685
 2133TIP3    H227891   3.697   4.148  14.442  1.6179 -2.2313 -0.1721
 2134TIP3   OH227892   4.672   5.676   3.190  0.2642 -0.4636 -0.1073
 2134TIP3    H127893   4.689   5.744   3.256  1.5385 -0.3522 -0.5175
 2134TIP3    H227894   4.658   5.597   3.241 -0.5238 -0.0473  0.3504
 2135TIP3   OH227895   1.308   1.125  16.580  0.3732 -0.0453  0.0882
 2135TIP3    H127896   1.361   1.048  16.597  1.3479  0.7374  0.7375
 2135TIP3    H227897   1.307   1.134  16.485 -0.1293 -1.0992 -0.0154
 2136TIP3   OH227898   2.741   0.243   5.349  0.7669  0.3306  0.6491
 2136TIP3    H127899   2.777   0.177   5.408  0.9454 -1.1420 -1.0049
 2136TIP3    H227900   2.780   0.222   5.264 -3.3155 -0.9416 -1.1603
 2137TIP3   OH227901   2.679   5.315   2.915  0.0234  0.2326 -0.1179
 2137TIP3    H127902   2.738   5.242   2.932 -1.0730 -1.0260 -1.4564
 2137TIP3    H227903   2.722   5.391   2.955  1.2986 -1.0888  1.1059
 2138TIP3   OH227904   3.142   2.367   4.683  0.1127  0.1506 -0.2787
 2138TIP3    H127905   3.206   2.418   4.633  2.3764 -0.9735  1.2900
 2138TIP3    H227906   3.109   2.302   4.620  1.3682  0.0461 -0.8617
 2139TIP3   OH227907   3.101   5.781  11.719 -0.3318 -0.5100  0.5614
 2139TIP3    H127908   3.010   5.811  11.712 -0.1351  0.2803  1.1974
 2139TIP3    H227909   3.151   5.843  11.666 -0.0495 -0.3341  1.0231
 2140TIP3   OH227910   5.712   5.622  14.224 -0.5899 -0.0347  0.1705
 2140TIP3    H127911   5.643   5.557  14.214 -0.2033 -0.3370 -0.5939
 2140TIP3    H227912   5.793   5.571  14.224 -0.2903  0.4368 -0.3540
 2141TIP3   OH227913   6.166   5.200  14.559  0.0965  0.4817 -0.2408
 2141TIP3    H127914   6.195   5.205  14.468  1.7480  0.0429  0.2242
 2141TIP3    H227915   6.196   5.114  14.589 -0.6159  0.5320  0.6536
 2142TIP3   OH227916   5.034   5.369   3.005  0.1086 -0.0300 -0.3634
 2142TIP3    H127917   4.989   5.427   2.944 -0.2338 -0.0388 -0.1253
 2142TIP3    H227918   4.977   5.292   3.012  0.7218 -0.5455 -0.9371
 2143TIP3   OH227919   2.031   6.147  11.548  0.1868 -0.8276 -0.5046
 2143TIP3    H127920   2.126   6.157  11.543  0.2749 -0.8287  0.8251
 2143TIP3    H227921   2.008   6.101  11.467  1.3359 -0.9606 -0.7780
 2144TIP3   OH227922   4.778   3.584  12.235  0.1882  0.0045  0.9111
 2144TIP3    H127923   4.854   3.527  12.226 -1.2637 -1.7916 -1.1076
 2144TIP3    H227924   4.768   3.597  12.329  0.9397 -2.6157  1.4243
 2145TIP3   OH227925   2.461   2.051   4.841  0.1012  0.8799 -0.1613
 2145TIP3    H127926   2.489   1.965   4.809  2.4056  2.5759 -3.1589
 2145TIP3    H227927   2.449   2.038   4.935  0.5345 -2.6282 -0.4385
 2146TIP3   OH227928   4.410   5.262  11.232  0.1253 -0.0905 -0.3437
 2146TIP3    H127929   4.337   5.216  11.273 -0.4430  2.2750  1.5292
 2146TIP3    H227930   4.487   5.236  11.283  0.1103 -0.3839 -0.4726
 2147TIP3   OH227931   0.826   0.934   5.627 -0.2892  0.1560  0.1042
 2147TIP3    H127932   0.810   0.897   5.714 -2.2925  0.9043  0.1109
 2147TIP3    H227933   0.904   0.988   5.638  1.6773 -2.5529  0.5040
 2148TIP3   OH227934   1.840   4.391  15.721 -0.2074 -0.2859 -0.1498
 2148TIP3    H127935   1.752   4.402  15.758  0.0144 -0.5882  0.4859
 2148TIP3    H227936   1.893   4.458  15.766 -0.1261 -0.0514 -0.5871
 2149TIP3   OH227937   0.829   0.566  10.167 -0.4727  0.2222  0.1077
 2149TIP3    H127938   0.787   0.541  10.249 -1.6006  1.4509 -0.0657
 2149TIP3    H227939   0.886   0.639  10.189  1.8082 -1.5374  0.3701
 2150TIP3   OH227940   4.270   1.821  15.813  0.1413 -0.2588 -0.8819
 2150TIP3    H127941   4.182   1.812  15.777  0.4769 -0.8497 -1.5873
 2150TIP3    H227942   4.258   1.867  15.896 -0.8948 -0.8804 -0.6681
 2151TIP3   OH227943   1.167   6.416  11.026 -0.7429  0.1435  0.7201
 2151TIP3    H127944   1.103   6.430  10.957 -0.0241  1.1561  0.2339
 2151TIP3    H227945   1.246   6.460  10.994 -0.4151  0.6894  2.2111
 2152TIP3   OH227946   2.781   4.301   4.757  0.1960 -0.5780  0.6614
 2152TIP3    H127947   2.734   4.315   4.839  0.4163  3.1195  0.3129
 2152TIP3    H227948   2.811   4.388   4.731  1.4263 -1.8211 -2.6044
 2153TIP3   OH227949   3.439   2.641   0.635  0.0365  0.1962  0.6005
 2153TIP3    H127950   3.534   2.629   0.628  0.3012  0.9223  2.3676
 2153TIP3    H227951   3.402   2.580   0.571  1.6326 -1.5776  1.2726
 2154TIP3   OH227952   6.555   4.558  16.089  0.0978  0.7090 -0.3249
 2154TIP3    H127953   6.568   4.621  16.160  0.0687  2.1580 -1.5649
 2154TIP3    H227954   6.634   4.565  16.036  1.0929 -1.8801  0.5986
 2155TIP3   OH227955   4.231   3.354  15.420  0.3373 -0.7966  0.2803
 2155TIP3    H127956   4.234   3.311  15.335  0.8244 -1.8201  0.7942
 2155TIP3    H227957   4.201   3.286  15.481 -3.3469  0.7740  0.4573
 2156TIP3   OH227958   4.878   3.607  13.480  0.0526 -0.1832  0.3171
 2156TIP3    H127959   4.837   3.555  13.411 -1.4534 -1.6685  2.1892
 2156TIP3    H227960   4.809   3.668  13.508  0.8027  0.7307  0.2044
 2157TIP3   OH227961   5.361   6.521   1.799 -0.1895 -0.2230  0.2532
 2157TIP3    H127962   5.322   6.601   1.764 -0.6623 -0.7068 -0.3662
 2157TIP3    H227963   5.446   6.548   1.833 -0.6538  0.6760  0.7311
 2158TIP3   OH227964   0.923   1.845  15.691 -0.2553 -0.2570 -0.4523
 2158TIP3    H127965   0.935   1.937  15.713 -1.5923  0.3585 -2.0811
 2158TIP3    H227966   0.924   1.843  15.595  0.7519 -2.0938 -0.4398
 2159TIP3   OH227967   0.457   2.069  13.515  0.0202 -0.0222 -0.3175
 2159TIP3    H127968   0.416   1.995  13.560  0.5891  0.3019  0.7814
 2159TIP3    H227969   0.451   2.141  13.578 -0.6754  0.9224 -1.4400
 2160TIP3   OH227970   2.055   5.406   1.362 -0.6233  0.2032  0.1080
 2160TIP3    H127971   2.097   5.456   1.292  0.5488 -3.0641 -1.7519
 2160TIP3    H227972   2.108   5.424   1.440  0.2000  1.1994 -0.6598
 2161TIP3   OH227973   2.450   0.061   6.163  0.1607 -0.9325 -0.1056
 2161TIP3    H127974   2.360   0.044   6.191  0.7341 -2.7119  0.7602
 2161TIP3    H227975   2.456   0.157   6.159 -1.6198 -0.7798  0.3083
 2162TIP3   OH227976   0.689   1.001   0.349 -0.0426 -0.0269  0.3728
 2162TIP3    H127977   0.673   0.907   0.336 -1.3779 -0.1856  2.6877
 2162TIP3    H227978   0.665   1.041   0.265 -2.0536 -1.5150  0.1671
 2163TIP3   OH227979   0.199   5.096   3.979  0.1227 -0.2605  0.4629
 2163TIP3    H127980   0.182   5.057   3.893  0.5779 -0.2677  0.3785
 2163TIP3    H227981   0.115   5.087   4.025 -0.2488  0.1214 -0.1216
 2164TIP3   OH227982   3.003   2.714   1.196  0.2735  0.5690  0.4716
 2164TIP3    H127983   3.074   2.771   1.225 -0.3811  0.8321  1.6137
 2164TIP3    H227984   2.934   2.773   1.168  0.6175  0.3130 -0.9790
 2165TIP3   OH227985   3.795   2.219   5.934 -0.0698  0.4515 -0.3358
 2165TIP3    H127986   3.843   2.271   5.998  0.2700  0.5599 -0.6754
 2165TIP3    H227987   3.852   2.216   5.857  0.7505 -2.0024  0.2876
 2166TIP3   OH227988   6.079   5.970  16.111 -0.2391 -0.2476 -0.2679
 2166TIP3    H127989   6.105   5.897  16.168 -1.5395  1.1596  2.2817
 2166TIP3    H227990   6.161   6.018  16.096 -0.2042  0.6434  2.4232
 2167TIP3   OH227991   0.017   6.570  13.146  0.2095  0.6012  0.0539
 2167TIP3    H127992   0.035   6.663  13.143 -0.5162  0.7352 -0.5271
 2167TIP3    H227993  -0.079   6.564  13.153  0.2106 -0.0961 -0.3935
 2168TIP3   OH227994   5.068   3.354   1.148 -0.3758 -0.0015  0.5986
 2168TIP3    H127995   5.084   3.380   1.057  0.9607  0.5415  0.9649
 2168TIP3    H227996   5.037   3.264   1.142 -1.6602  0.4656 -0.4698
 2169TIP3   OH227997   2.937   4.794   1.336 -0.6188  0.5601 -0.3154
 2169TIP3    H127998   2.854   4.794   1.384 -0.4430 -2.1835  0.1674
 2169TIP3    H227999   2.932   4.717   1.279  1.2254  0.8706 -0.9588
 2170TIP3   OH228000   2.084   2.080   0.055  0.3708 -0.1051  0.3461
 2170TIP3    H128001   2.176   2.092   0.081 -0.2778  1.9386  1.9367
 2170TIP3    H228002   2.038   2.152   0.096 -1.4545  1.1484 -3.4197
 2171TIP3   OH228003   1.363   0.066   1.230 -0.0325  0.0631  0.1977
 2171TIP3    H128004   1.374   0.152   1.190 -0.3932  0.0532  0.0751
 2171TIP3    H228005   1.296   0.079   1.297 -0.5348 -0.2582 -0.2406
 2172TIP3   OH228006   4.933   0.545   5.337  0.1396  0.1047 -0.6986
 2172TIP3    H128007   4.935   0.452   5.311 -1.2146 -0.1226 -0.0833
 2172TIP3    H228008   4.997   0.587   5.281  1.2238 -1.3167 -0.5762
 2173TIP3   OH228009   3.459   2.976   1.367  0.3033  0.1218 -0.0779
 2173TIP3    H128010   3.469   3.017   1.281  1.4968 -1.0466 -0.5155
 2173TIP3    H228011   3.512   2.897   1.363 -1.7446 -1.4016  0.8126
 2174TIP3   OH228012   2.944   4.767  10.996  0.4624  0.4910  0.0666
 2174TIP3    H128013   2.999   4.698  10.958  1.6201  1.2498  0.2943
 2174TIP3    H228014   2.856   4.750  10.962  1.3212  0.8292 -2.5434
 2175TIP3   OH228015   3.510   6.060  13.068 -0.2116 -0.2007  0.1032
 2175TIP3    H128016   3.583   6.114  13.099 -0.5337 -0.7995  2.0728
 2175TIP3    H228017   3.549   6.001  13.003  1.2617 -0.9562  1.5928
 2176TIP3   OH228018   3.456   3.601   3.598 -0.6161  0.0310  0.1917
 2176TIP3    H128019   3.536   3.629   3.554 -1.7523 -0.2161 -2.2165
 2176TIP3    H228020   3.399   3.678   3.594 -1.2249 -0.4248 -0.0136
 2177TIP3   OH228021   5.476   5.895   2.548  0.4714 -0.0448  0.9085
 2177TIP3    H128022   5.549   5.943   2.589 -0.7056  1.5988  1.1630
 2177TIP3    H228023   5.519   5.830   2.493  2.1655  1.1882  0.6733
 2178TIP3   OH228024   4.010   1.929   2.146 -0.5297 -0.3549  0.3247
 2178TIP3    H128025   4.043   1.980   2.071 -1.2356 -0.5986 -0.1579
 2178TIP3    H228026   4.070   1.855   2.152 -0.1131 -0.0212  0.3789
 2179TIP3   OH228027   0.246   0.055  16.732  0.0979 -0.0676  0.0972
 2179TIP3    H128028   0.264   0.138  16.774 -1.0279 -0.8209  2.2183
 2179TIP3    H228029   0.301  -0.008  16.778  2.0076 -0.3825 -2.4109
 2180TIP3   OH228030   6.303   4.642   4.055  0.0740  0.2472 -0.0872
 2180TIP3    H128031   6.304   4.556   4.014  0.6140  0.3089 -0.2217
 2180TIP3    H228032   6.233   4.638   4.120 -0.3956 -0.0451 -0.6063
 2181TIP3   OH228033   2.522   4.161  13.044 -0.3116  0.2503  0.5607
 2181TIP3    H128034   2.505   4.067  13.035  1.0860 -0.0558  0.8172
 2181TIP3    H228035   2.438   4.198  13.069 -0.9717 -0.8807  0.1037
 2182TIP3   OH228036   1.941   3.968   5.635 -0.4622 -0.3206 -0.2351
 2182TIP3    H128037   1.936   3.962   5.731  1.7760 -1.0740 -0.0900
 2182TIP3    H228038   1.939   4.061   5.616 -0.2939 -0.1364  0.6144
 2183TIP3   OH228039   1.547   3.925   2.528 -0.3663 -0.1535 -0.5938
 2183TIP3    H128040   1.613   3.892   2.589 -1.7198 -0.3745  0.8031
 2183TIP3    H228041   1.539   4.018   2.550 -0.9429 -0.2586 -0.3689
 2184TIP3   OH228042   5.953   3.678  14.363  0.6240  0.0571  0.1158
 2184TIP3    H128043   6.028   3.711  14.413  0.2148 -1.5380  1.8803
 2184TIP3    H228044   5.990   3.650  14.279  1.5398  1.6422 -0.0510
 2185TIP3   OH228045   2.347   4.395   0.128  0.2040 -0.1843  0.1844
 2185TIP3    H128046   2.290   4.352   0.065 -0.2536  0.5509  0.0862
 2185TIP3    H228047   2.289   4.452   0.178  1.1676  2.5947 -1.6439
 2186TIP3   OH228048   1.592   3.643  16.334  0.5518 -0.1587  0.1158
 2186TIP3    H128049   1.556   3.732  16.343 -2.0127 -1.0114 -0.7114
 2186TIP3    H228050   1.625   3.621  16.421 -1.1696  0.6767  1.0391
 2187TIP3   OH228051   5.985   2.857  11.866  0.0499 -0.0013 -0.1889
 2187TIP3    H128052   6.017   2.907  11.791 -1.6168  1.0836 -0.2265
 2187TIP3    H228053   6.007   2.911  11.942 -1.1837  0.5470 -0.1834
 2188TIP3   OH228054   0.691   5.497  13.186 -0.7165  0.6771 -0.2826
 2188TIP3    H128055   0.730   5.427  13.134  0.7082 -0.0003  1.5606
 2188TIP3    H228056   0.599   5.499  13.161 -0.8018 -1.8846 -0.3629
 2189TIP3   OH228057   3.304   5.448   4.136  0.6751 -0.5225 -0.2920
 2189TIP3    H128058   3.393   5.473   4.111  1.2536 -0.3586  1.7351
 2189TIP3    H228059   3.311   5.356   4.162 -0.1225 -1.0045 -1.6889
 2190TIP3   OH228060   6.545   2.171   3.046  0.4006  0.3651 -0.0946
 2190TIP3    H128061   6.497   2.180   3.128  0.2327 -0.3845 -0.1028
 2190TIP3    H228062   6.478   2.151   2.981  0.6970 -0.5214 -0.1363
 2191TIP3   OH228063   3.106   3.123  13.290  0.4317 -0.3490 -0.1826
 2191TIP3    H128064   3.135   3.143  13.379  0.7382 -2.2847  0.1808
 2191TIP3    H228065   3.168   3.058  13.258 -0.5588 -0.8052 -1.2514
 2192TIP3   OH228066   3.380   4.576  14.906  1.0909 -0.0011  0.0164
 2192TIP3    H128067   3.388   4.624  14.824 -0.5227  1.0236  0.4122
 2192TIP3    H228068   3.291   4.540  14.905  1.6783 -1.6002  0.4963
 2193TIP3   OH228069   5.444   4.707  13.478 -0.0726  0.7908 -0.0469
 2193TIP3    H128070   5.418   4.701  13.570  0.4434 -1.3502  0.0204
 2193TIP3    H228071   5.421   4.796  13.452 -0.3425  1.4085  2.1098
 2194TIP3   OH228072   2.457   3.946   5.612  0.1173 -0.2032 -0.5483
 2194TIP3    H128073   2.405   3.900   5.678  0.9646 -0.8399 -0.3046
 2194TIP3    H228074   2.494   4.021   5.658  1.6468 -1.2812  0.0458
 2195TIP3   OH228075   4.918   5.515  15.947  0.5127 -0.6312  0.0424
 2195TIP3    H128076   4.961   5.580  15.890  0.8685 -1.0136 -0.1338
 2195TIP3    H228077   4.893   5.444  15.887 -0.5307 -0.3361  0.1197
 2196TIP3   OH228078   6.180   3.798  14.434  0.7760 -0.5602  0.2887
 2196TIP3    H128079   6.183   3.885  14.472  0.0467 -0.6664  0.6078
 2196TIP3    H228080   6.265   3.787  14.391  0.3671  0.8517 -0.9684
 2197TIP3   OH228081   6.685   0.667   5.291  0.0304  0.1007 -0.1736
 2197TIP3    H128082   6.646   0.636   5.209  0.9815  0.4535 -0.7729
 2197TIP3    H228083   6.691   0.588   5.345  0.8707 -0.4565 -1.0504
 2198TIP3   OH228084   2.571   1.691  13.182  0.1210 -0.0362 -0.7583
 2198TIP3    H128085   2.489   1.720  13.140 -1.7938 -2.9545  0.6186
 2198TIP3    H228086   2.557   1.711  13.275  0.5789 -1.3241 -0.3977
 2199TIP3   OH228087   6.449   4.853  15.844  0.1782  0.2930 -0.5849
 2199TIP3    H128088   6.500   4.905  15.907  1.6474 -0.0207 -1.4833
 2199TIP3    H228089   6.421   4.916  15.778 -1.0172  0.5455  0.1258
 2200TIP3   OH228090   0.589   3.667  16.704 -0.0986 -0.1563 -0.1593
 2200TIP3    H128091   0.602   3.628  16.791  0.3358  0.4329  0.0419
 2200TIP3    H228092   0.505   3.631  16.675  1.0220 -2.5446 -0.6836
 2201TIP3   OH228093   5.698   5.502   6.116 -0.2528 -0.3021  0.4521
 2201TIP3    H128094   5.631   5.473   6.054  1.0548 -0.1289 -1.0791
 2201TIP3    H228095   5.667   5.588   6.145 -1.4634 -0.8813  0.9897
 2202TIP3   OH228096   3.276   5.177   4.176  0.0651  0.1090  0.5747
 2202TIP3    H128097   3.340   5.111   4.150  0.1821  0.1286  0.8120
 2202TIP3    H228098   3.193   5.129   4.178  0.0740  0.0819  0.2781
 2203TIP3   OH228099   0.562   5.917  12.632  0.2030  0.5239  0.0596
 2203TIP3    H128100   0.553   5.938  12.725 -1.0576  0.5251 -0.0455
 2203TIP3    H228101   0.491   5.965  12.589  1.0180  0.8486 -0.9700
 2204TIP3   OH228102   2.476   3.337   0.214 -0.1307  0.1545  0.3998
 2204TIP3    H128103   2.495   3.255   0.259  2.3812  0.3428 -0.1561
 2204TIP3    H228104   2.503   3.405   0.275 -0.6447  0.5299  0.2145
 2205TIP3   OH228105   4.477   5.125   0.745  0.1713 -0.0765 -0.0968
 2205TIP3    H128106   4.477   5.220   0.740  2.0126 -0.0866 -1.3641
 2205TIP3    H228107   4.469   5.096   0.653  1.8805 -1.0697  0.0216
 2206TIP3   OH228108   6.614   5.380   3.639 -0.0366 -0.5135 -0.5343
 2206TIP3    H128109   6.566   5.438   3.579  0.9695  0.1665 -0.6977
 2206TIP3    H228110   6.574   5.396   3.724 -0.8277 -0.7710 -0.8449
 2207TIP3   OH228111   5.808   4.549   2.055 -0.5767  0.3737  0.1003
 2207TIP3    H128112   5.818   4.584   1.966 -0.6209 -0.4304 -0.2354
 2207TIP3    H228113   5.783   4.457   2.041  2.9865 -0.8951  0.8761
 2208TIP3   OH228114   2.009   0.381   1.451  0.0397 -0.0436  0.1364
 2208TIP3    H128115   1.990   0.407   1.361 -0.1932 -1.2131 -0.1643
 2208TIP3    H228116   1.925   0.348   1.484 -0.0628  1.0376  1.0313
 2209TIP3   OH228117   1.892   2.111  12.265  0.5450 -0.6153  0.1695
 2209TIP3    H128118   1.962   2.120  12.200  0.2929 -0.4724 -0.0846
 2209TIP3    H228119   1.828   2.053  12.223 -0.4851  0.9095 -0.4612
 2210TIP3   OH228120   1.950   0.640   1.096  0.1836 -0.3485  0.6001
 2210TIP3    H128121   1.881   0.706   1.099 -0.6362 -0.9321 -2.3063
 2210TIP3    H228122   2.031   0.691   1.098 -0.3681  0.5510  1.1039
 2211TIP3   OH228123   0.437   3.228   1.041 -0.2344 -0.2948  0.5523
 2211TIP3    H128124   0.423   3.305   1.096 -0.1730 -0.6214  1.0333
 2211TIP3    H228125   0.515   3.186   1.076 -0.5066 -0.8064  0.5654
 2212TIP3   OH228126   2.549   6.317  16.830 -0.1158 -0.2827  0.1815
 2212TIP3    H128127   2.595   6.266  16.764  0.1234  0.9283 -0.6217
 2212TIP3    H228128   2.523   6.253  16.896  0.7955 -1.3180 -0.4330
 2213TIP3   OH228129   6.702   3.654   3.462  0.2704 -0.0554  0.1785
 2213TIP3    H128130   6.672   3.587   3.401  1.4065  0.8910 -1.5095
 2213TIP3    H228131   6.674   3.737   3.422  0.4379  0.5827  1.3190
 2214TIP3   OH228132   6.232   3.900  10.979  0.0739 -0.1461 -0.3675
 2214TIP3    H128133   6.210   3.863  10.894 -0.3590 -0.0997 -0.2813
 2214TIP3    H228134   6.148   3.902  11.026  0.3924 -0.6379  0.2367
 2215TIP3   OH228135   2.798   1.466  13.678  0.3612 -0.0793  0.3852
 2215TIP3    H128136   2.750   1.386  13.655  0.6792 -0.7714  2.0306
 2215TIP3    H228137   2.857   1.480  13.603  0.0503 -1.1813 -0.0904
 2216TIP3   OH228138   0.268   3.969   1.755  0.4731  0.2283 -0.2139
 2216TIP3    H128139   0.183   3.955   1.796  0.6726  1.4672  0.6700
 2216TIP3    H228140   0.297   3.881   1.729  0.3755 -0.6547  2.3946
 2217TIP3   OH228141   4.621   5.706   0.917  0.5709 -0.0266 -0.6259
 2217TIP3    H128142   4.585   5.660   0.993 -2.6376 -1.2144 -2.6573
 2217TIP3    H228143   4.698   5.654   0.892 -0.5990 -1.9311 -0.4494
 2218TIP3   OH228144   4.049   5.783  15.855 -0.5455 -0.3600  0.0974
 2218TIP3    H128145   4.001   5.799  15.936 -1.0488 -1.1770 -0.0230
 2218TIP3    H228146   4.137   5.758  15.884 -0.5598 -0.0909  0.3718
 2219TIP3   OH228147   2.145   4.619   0.582  0.0122  0.6023  0.0683
 2219TIP3    H128148   2.050   4.630   0.585  0.2095  2.4568  0.5056
 2219TIP3    H228149   2.162   4.541   0.636 -1.2715  0.0154 -0.3462
 2220TIP3   OH228150   1.867   5.723   2.150  0.4013 -0.4213  0.2149
 2220TIP3    H128151   1.916   5.747   2.071  1.8708 -1.8430  0.6439
 2220TIP3    H228152   1.882   5.796   2.210  0.1717  0.1646 -0.4273
 2221TIP3   OH228153   4.741   2.701  11.448  0.9881  0.4592 -0.0379
 2221TIP3    H128154   4.791   2.620  11.438  1.1549  0.5465  0.0715
 2221TIP3    H228155   4.808   2.770  11.445  0.7734  0.6413 -0.8648
 2222TIP3   OH228156   1.847   1.581   4.434 -0.4658 -0.3313  0.4562
 2222TIP3    H128157   1.912   1.646   4.461 -1.6861  1.2510 -0.2489
 2222TIP3    H228158   1.815   1.613   4.349 -1.5206 -1.5422  0.3694
 2223TIP3   OH228159   5.312   2.614   3.409 -0.3128  0.3360 -0.0668
 2223TIP3    H128160   5.241   2.550   3.414  0.3098 -0.3661  0.0170
 2223TIP3    H228161   5.367   2.595   3.485 -0.1964  1.0749  0.0449
 2224TIP3   OH228162   3.512   1.006  14.201 -0.0064  0.0630  0.5564
 2224TIP3    H128163   3.464   1.056  14.136  0.6366 -1.1438 -0.8989
 2224TIP3    H228164   3.578   1.067  14.234  1.3632  0.0020 -1.8518
 2225TIP3   OH228165   0.128   6.677  14.631  0.0499 -0.1880 -0.1945
 2225TIP3    H128166   0.195   6.745  14.625  0.7632 -0.7649  0.9907
 2225TIP3    H228167   0.145   6.633  14.714  0.3879 -2.6107 -1.4503
 2226TIP3   OH228168   2.996   3.787  13.749 -0.0113 -0.4049 -0.5653
 2226TIP3    H128169   3.069   3.726  13.748 -0.1278 -0.6119  0.8382
 2226TIP3    H228170   2.937   3.756  13.681  1.7967  0.5722 -2.6990
 2227TIP3   OH228171   1.945   2.716  14.618  0.9281 -0.7131  0.5046
 2227TIP3    H128172   1.939   2.752  14.529 -0.2308  0.5147  1.0384
 2227TIP3    H228173   2.022   2.660  14.616  3.1998  2.1844 -0.2930
 2228TIP3   OH228174   4.998   1.248  12.246  0.0520 -0.4156  0.2232
 2228TIP3    H128175   5.063   1.195  12.292 -0.5744 -1.4227 -0.0026
 2228TIP3    H228176   4.945   1.288  12.316 -1.5788 -2.7912  0.4691
 2229TIP3   OH228177   3.696   3.692   2.855  0.3049  0.0493  0.0814
 2229TIP3    H128178   3.691   3.688   2.950 -0.8529  1.4565  0.1127
 2229TIP3    H228179   3.699   3.785   2.835 -3.3257  0.0108 -1.3592
 2230TIP3   OH228180   6.226   0.776   0.259  0.7262  0.4464  0.2024
 2230TIP3    H128181   6.239   0.833   0.334 -0.4480 -0.1482  0.8943
 2230TIP3    H228182   6.131   0.761   0.257  0.7097  0.5738 -1.4969
 2231TIP3   OH228183   6.691   1.390   2.307 -0.0791 -0.3257 -0.0883
 2231TIP3    H128184   6.741   1.380   2.226  1.3167  1.4268  0.4895
 2231TIP3    H228185   6.749   1.356   2.375  0.7894  2.4929  0.6955
 2232TIP3   OH228186   2.943   5.128   1.275 -0.4571  0.0505 -0.4473
 2232TIP3    H128187   2.906   5.108   1.361  2.2607 -2.3557  0.3661
 2232TIP3    H228188   2.987   5.212   1.286 -1.7234  0.6799 -0.0838
 2233TIP3   OH228189   5.828   2.921  13.458 -0.4641 -0.0057  0.2372
 2233TIP3    H128190   5.909   2.904  13.507 -0.9924 -1.7540  0.5642
 2233TIP3    H228191   5.838   3.011  13.426  2.4323 -0.7671 -1.3464
 2234TIP3   OH228192   1.688   2.274  11.185 -0.9385  0.5665 -0.0619
 2234TIP3    H128193   1.720   2.268  11.276 -0.8243 -1.4876 -0.1782
 2234TIP3    H228194   1.757   2.320  11.138 -0.0527 -0.1346  0.5192
 2235TIP3   OH228195   1.813   6.102  12.297  0.1670 -0.5495 -0.0084
 2235TIP3    H128196   1.742   6.165  12.311  1.2640  0.8647 -0.5407
 2235TIP3    H228197   1.779   6.043  12.230 -0.8752 -0.5301  0.4669
 2236TIP3   OH228198   5.690   4.577   2.512 -0.0395  0.4905  0.2273
 2236TIP3    H128199   5.700   4.482   2.521 -0.4663  0.5261  1.1983
 2236TIP3    H228200   5.719   4.612   2.596 -0.1397  1.2039 -0.0287
 2237TIP3   OH228201   2.753   2.681  10.707  0.7235 -0.0529  0.4382
 2237TIP3    H128202   2.712   2.731  10.636 -0.2713 -0.3274  0.8147
 2237TIP3    H228203   2.826   2.737  10.736 -0.1357  1.0134  0.5994
 2238TIP3   OH228204   6.254   2.960  10.635  0.1305 -0.6979 -0.4078
 2238TIP3    H128205   6.167   2.953  10.596 -0.6075 -0.8063  1.1523
 2238TIP3    H228206   6.284   3.047  10.611 -0.3701 -0.6899 -1.0368
 2239TIP3   OH228207   2.219   5.799   5.685  0.5304  0.1294  0.0651
 2239TIP3    H128208   2.236   5.822   5.593 -0.0841  0.8547  0.1277
 2239TIP3    H228209   2.284   5.849   5.735  1.2374 -0.6987  0.0016
 2240TIP3   OH228210   6.600   2.175   1.388  0.4168  0.3164  0.5740
 2240TIP3    H128211   6.620   2.081   1.386  1.7615  0.5280  1.9065
 2240TIP3    H228212   6.507   2.179   1.411  0.3368 -0.6936  0.5110
 2241TIP3   OH228213   5.598   3.767   3.697  0.3140  0.3952  0.1672
 2241TIP3    H128214   5.614   3.752   3.604  2.0649 -0.1093  0.5084
 2241TIP3    H228215   5.580   3.861   3.704  0.1698  0.4341 -0.6818
 2242TIP3   OH228216   1.664   4.988   5.443 -0.5547  0.0276  0.4803
 2242TIP3    H128217   1.655   4.923   5.374 -1.1039 -0.6881  1.2086
 2242TIP3    H228218   1.578   5.029   5.449  0.5216  3.1415 -2.1374
 2243TIP3   OH228219   0.123   2.203   2.158  0.2148  0.7992 -0.2620
 2243TIP3    H128220   0.077   2.165   2.084  2.0877  0.3203 -1.2580
 2243TIP3    H228221   0.119   2.136   2.226  1.1361 -0.0871 -1.0460
 2244TIP3   OH228222   0.480   6.668   6.226 -0.4952  0.0008 -0.0276
 2244TIP3    H128223   0.490   6.689   6.319  2.5140  2.9616 -0.8348
 2244TIP3    H228224   0.437   6.745   6.188  2.2505  0.8608 -1.6648
 2245TIP3   OH228225   5.797   6.108  11.288  0.0843 -0.1058  0.3981
 2245TIP3    H128226   5.726   6.156  11.331 -0.5844 -0.4123 -0.3454
 2245TIP3    H228227   5.843   6.175  11.236  1.2770  0.3913  2.0212
 2246TIP3   OH228228   0.108   5.138   1.257 -0.6244  0.6658  0.3015
 2246TIP3    H128229   0.084   5.231   1.251 -2.7220  0.3012  1.7654
 2246TIP3    H228230   0.043   5.101   1.316 -0.3168 -1.9208 -0.8516
 2247TIP3   OH228231   0.853   5.860   4.685  0.5936  0.1361 -0.3546
 2247TIP3    H128232   0.826   5.769   4.676  1.0779 -0.0438 -0.0249
 2247TIP3    H228233   0.826   5.902   4.603 -0.5205 -0.0704 -0.1168
 2248TIP3   OH228234   2.467   3.127  15.168  0.7903 -0.0463  0.0706
 2248TIP3    H128235   2.465   3.220  15.145  0.1424  0.0538  0.4977
 2248TIP3    H228236   2.489   3.083  15.086 -0.2750  0.3891 -0.4725
 2249TIP3   OH228237   1.687   5.407   1.910  0.8999 -0.1697 -0.1975
 2249TIP3    H128238   1.700   5.329   1.857  0.2690  0.3598 -1.1755
 2249TIP3    H228239   1.715   5.382   1.998 -0.2971 -1.8397 -0.2364
 2250TIP3   OH228240   4.416   5.020   3.851 -0.2543 -0.3638 -0.5831
 2250TIP3    H128241   4.422   4.928   3.878 -0.8080  0.0748  1.1894
 2250TIP3    H228242   4.335   5.025   3.799 -0.7368 -0.7236  0.1130
 2251TIP3   OH228243   4.696   1.047   1.751 -0.0716  0.0571 -0.1375
 2251TIP3    H128244   4.702   0.976   1.816 -1.1348  0.1921  0.1206
 2251TIP3    H228245   4.718   1.004   1.668 -0.9691 -0.6651 -0.0274
 2252TIP3   OH228246   4.957   2.451   0.255  0.3061  0.5057  0.3128
 2252TIP3    H128247   4.914   2.512   0.315  1.4613  0.9805  0.6770
 2252TIP3    H228248   5.008   2.507   0.196  1.0654 -0.0747  0.4044
 2253TIP3   OH228249   3.529   4.488   3.263 -0.0071 -0.2486  0.0304
 2253TIP3    H128250   3.559   4.573   3.228 -2.5631  0.8494  0.2751
 2253TIP3    H228251   3.567   4.423   3.203  2.6200  0.9459  0.2513
 2254TIP3   OH228252   2.181   4.895  13.734  0.0425  0.0108 -0.3696
 2254TIP3    H128253   2.218   4.863  13.817  0.0274  0.8346 -0.0372
 2254TIP3    H228254   2.167   4.988  13.748 -0.7439  0.0039 -1.0255
 2255TIP3   OH228255   2.528   5.075  11.866 -0.1359  0.4037 -0.1631
 2255TIP3    H128256   2.509   4.982  11.851  2.4167 -0.1811 -0.1931
 2255TIP3    H228257   2.518   5.086  11.960  0.6292 -0.2063  0.0026
 2256TIP3   OH228258   6.769   2.978  10.819  0.2398  0.3879  0.2698
 2256TIP3    H128259   6.717   3.043  10.867 -0.0484  0.1733  0.2519
 2256TIP3    H228260   6.759   3.003  10.727 -0.5753 -0.1819  0.1928
 2257TIP3   OH228261   0.767   1.708  11.187  0.6045 -0.3479 -0.0151
 2257TIP3    H128262   0.728   1.622  11.174 -1.3209  0.3170  0.9747
 2257TIP3    H228263   0.839   1.692  11.249  1.0328 -1.3935 -0.7527
 2258TIP3   OH228264   5.443   1.324   5.220 -0.4654  0.0172 -0.0139
 2258TIP3    H128265   5.405   1.247   5.177  0.7309 -0.3669 -0.4226
 2258TIP3    H228266   5.484   1.373   5.148 -0.7627  0.7660  0.3212
 2259TIP3   OH228267   6.129   0.011  13.216 -0.3123  0.0289 -0.5517
 2259TIP3    H128268   6.111   0.036  13.126  1.3308 -0.4512 -1.0516
 2259TIP3    H228269   6.070  -0.062  13.233 -0.5926  0.0844 -1.2479
 2260TIP3   OH228270   5.278   5.047  16.315  0.0984 -0.4363  0.1558
 2260TIP3    H128271   5.249   5.107  16.246  1.8616 -0.1027 -0.3482
 2260TIP3    H228272   5.255   4.960  16.283  0.1443 -0.2268 -0.4539
 2261TIP3   OH228273   1.146   0.642   0.198 -0.3514 -0.1913  0.4374
 2261TIP3    H128274   1.135   0.714   0.137  1.6041  1.0458  1.4489
 2261TIP3    H228275   1.057   0.616   0.222 -1.0948  1.1750 -0.7468
 2262TIP3   OH228276   0.206   0.182   2.328 -0.4106 -0.7407  0.4444
 2262TIP3    H128277   0.192   0.243   2.255  0.5387  1.1594  1.7589
 2262TIP3    H228278   0.300   0.164   2.326 -0.3892 -0.7334  1.1346
 2263TIP3   OH228279   5.279   4.858   4.771  0.5854  0.0792  0.7727
 2263TIP3    H128280   5.305   4.797   4.701 -2.1336 -0.0246 -0.2798
 2263TIP3    H228281   5.247   4.935   4.724  1.0004  1.0499  2.0258
 2264TIP3   OH228282   5.250   4.262   4.625  0.4440  0.8679 -0.2744
 2264TIP3    H128283   5.343   4.240   4.624  0.2561 -0.0489 -1.8721
 2264TIP3    H228284   5.209   4.194   4.571 -1.0102  1.8243 -0.4291
 2265TIP3   OH228285   2.237   1.006   4.246 -0.2384 -0.2530 -0.5913
 2265TIP3    H128286   2.257   1.077   4.186  0.1105  1.5852  1.5718
 2265TIP3    H228287   2.316   0.951   4.245  1.4296  1.9472  1.0686
 2266TIP3   OH228288   4.209   6.709  12.358 -0.2512  0.2086  0.1254
 2266TIP3    H128289   4.188   6.714  12.451  0.5782 -0.3912  0.3545
 2266TIP3    H228290   4.305   6.703  12.355 -0.2359  0.7704 -0.7884
 2267TIP3   OH228291   1.283   1.993   5.061 -0.3313 -0.0448  0.6873
 2267TIP3    H128292   1.332   1.914   5.080 -2.1738 -1.2233  0.7629
 2267TIP3    H228293   1.230   1.971   4.985  1.5334  2.2401 -1.4486
 2268TIP3   OH228294   4.708   3.706  14.760  0.1294  0.5523  0.1798
 2268TIP3    H128295   4.770   3.731  14.691 -0.1300  2.7692  0.6884
 2268TIP3    H228296   4.629   3.681  14.712  0.2704  1.1114 -0.3622
 2269TIP3   OH228297   0.843   6.374  15.761 -0.0009 -0.0581  0.0963
 2269TIP3    H128298   0.889   6.295  15.788  0.8686 -0.1259 -1.4690
 2269TIP3    H228299   0.765   6.343  15.715  0.7506 -0.0531 -1.2224
 2270TIP3   OH228300   5.117   0.662  13.994 -0.5666  0.2169  0.0772
 2270TIP3    H128301   5.197   0.613  14.010  0.5434  2.0086  0.3330
 2270TIP3    H228302   5.100   0.652  13.901 -1.6170 -2.3819  0.4747
 2271TIP3   OH228303   5.737   3.321  11.343  0.8525  0.1246  0.2651
 2271TIP3    H128304   5.724   3.413  11.322  1.0755  0.7385  2.5604
 2271TIP3    H228305   5.805   3.292  11.282  0.7316  1.4254 -0.5424
 2272TIP3   OH228306   4.218   4.151  16.421  0.1142 -0.0427 -0.1191
 2272TIP3    H128307   4.197   4.179  16.332  1.5371 -2.8657 -1.4646
 2272TIP3    H228308   4.233   4.233  16.469 -2.9865  1.6647 -1.7665
 2273TIP3   OH228309   0.994   5.378   0.887 -0.5468 -0.1122  0.6428
 2273TIP3    H128310   1.076   5.394   0.842 -0.3478  0.1437  1.0933
 2273TIP3    H228311   0.947   5.317   0.830 -0.1286 -0.1113  0.2930
 2274TIP3   OH228312   1.498   5.735   4.220  0.1310  0.0726  1.1094
 2274TIP3    H128313   1.483   5.703   4.131  2.0941  0.2046  0.6895
 2274TIP3    H228314   1.444   5.678   4.275 -2.4250  1.0495 -0.2482
 2275TIP3   OH228315   0.889   0.423  16.597  0.2538 -0.3454 -0.6155
 2275TIP3    H128316   0.845   0.503  16.626  0.5630 -0.1193 -0.7623
 2275TIP3    H228317   0.864   0.414  16.505 -0.3827 -0.8292 -0.3986
 2276TIP3   OH228318   4.829   3.126   3.628 -0.2912 -0.5667  0.0877
 2276TIP3    H128319   4.810   3.096   3.539 -1.3198 -2.7391  0.9403
 2276TIP3    H228320   4.906   3.181   3.620  0.4320 -1.7753 -1.9912
 2277TIP3   OH228321   3.459   0.032   0.474  0.1828  0.3894  0.3722
 2277TIP3    H128322   3.547   0.034   0.435  0.4317 -1.6299  0.7066
 2277TIP3    H228323   3.446  -0.060   0.499 -2.3969  0.4427 -0.4823
 2278TIP3   OH228324   2.481   6.040  13.579  0.2400  0.1869  0.5279
 2278TIP3    H128325   2.432   6.117  13.552  2.0724  1.0922 -0.3933
 2278TIP3    H228326   2.535   6.071  13.652  1.1134 -0.1678  0.0394
 2279TIP3   OH228327   1.984   5.692  15.782 -0.5476  0.0199 -0.0309
 2279TIP3    H128328   1.889   5.682  15.782 -0.7851  0.5679  4.0051
 2279TIP3    H228329   2.017   5.610  15.819  0.5719 -0.0947 -1.2330
 2280TIP3   OH228330   2.935   3.269  16.827  0.1209  0.4579  0.4101
 2280TIP3    H128331   2.907   3.234  16.742  1.5840  2.1530 -0.8645
 2280TIP3    H228332   2.869   3.335  16.848 -0.2212  0.0666  0.5689
 2281TIP3   OH228333   1.062   6.059  11.398  0.0223  0.0292  0.4356
 2281TIP3    H128334   1.118   6.134  11.377  1.2000 -0.8870  0.1797
 2281TIP3    H228335   1.075   5.998  11.325 -0.1936 -0.8102  1.0782
 2282TIP3   OH228336   3.693   0.768  14.661  0.3819 -0.5789 -0.0189
 2282TIP3    H128337   3.721   0.839  14.719 -0.0648  0.0934 -0.6240
 2282TIP3    H228338   3.597   0.775  14.659  0.3469 -1.0899 -0.2267
 2283TIP3   OH228339   4.431   6.047  10.951 -0.3091 -0.3278 -0.0764
 2283TIP3    H128340   4.402   6.138  10.940 -1.1642 -0.8488 -2.9545
 2283TIP3    H228341   4.523   6.049  10.924 -0.0158 -0.1660  0.8939
 2284TIP3   OH228342   1.816   4.112  15.806  0.3921  0.2822  0.3441
 2284TIP3    H128343   1.748   4.178  15.792  1.2428  1.7810  2.8101
 2284TIP3    H228344   1.882   4.131  15.740  0.4885  1.7428  0.8396
 2285TIP3   OH228345   6.361   5.848   3.711  0.1888 -0.4796 -0.7787
 2285TIP3    H128346   6.412   5.805   3.779 -1.6502  0.6426  1.4254
 2285TIP3    H228347   6.319   5.776   3.664 -0.4289 -1.2408  0.8607
 2286TIP3   OH228348   4.146   1.392   4.613  0.0552 -0.4941 -0.0041
 2286TIP3    H128349   4.106   1.453   4.550 -0.2340 -2.2587 -1.6270
 2286TIP3    H228350   4.227   1.364   4.571 -0.4608 -2.2005  0.0641
 2287TIP3   OH228351   0.086   2.624   4.904 -0.6936  0.1315 -0.0608
 2287TIP3    H128352   0.140   2.556   4.944 -1.0461 -0.6564 -0.9131
 2287TIP3    H228353   0.090   2.607   4.810 -0.8577  1.2399 -0.2846
 2288TIP3   OH228354   2.326   4.437   4.120  0.1310  0.2106 -0.1663
 2288TIP3    H128355   2.377   4.458   4.042 -1.0601 -0.9187 -1.3147
 2288TIP3    H228356   2.286   4.352   4.100 -0.0582 -0.2061  1.7721
 2289TIP3   OH228357   2.448   1.175   2.540  0.2214 -0.0234 -0.2016
 2289TIP3    H128358   2.408   1.222   2.613  0.8756 -0.0745  0.1892
 2289TIP3    H228359   2.485   1.243   2.485 -0.7117  0.0518 -0.7647
 2290TIP3   OH228360   1.096   2.085  12.340 -0.0608  0.0559  0.1044
 2290TIP3    H128361   1.109   2.043  12.255  2.9134  0.9751 -0.0068
 2290TIP3    H228362   1.091   2.012  12.402 -0.4415 -0.5857 -0.6650
 2291TIP3   OH228363   3.047   6.357   4.839 -0.1152 -0.1968 -0.1986
 2291TIP3    H128364   3.042   6.397   4.926 -1.2100 -0.5149 -0.1077
 2291TIP3    H228365   3.088   6.424   4.784 -1.0598  0.6994  0.1673
 2292TIP3   OH228366   5.333   5.250   1.010 -0.0457  0.1650  0.0791
 2292TIP3    H128367   5.307   5.335   1.045 -1.8529  0.5189 -1.9197
 2292TIP3    H228368   5.410   5.269   0.956  1.0646  0.0625  1.5560
 2293TIP3   OH228369   4.914   1.195   4.040 -0.6817  0.0428  0.1512
 2293TIP3    H128370   5.004   1.222   4.023 -0.1024 -0.5547  1.9273
 2293TIP3    H228371   4.894   1.132   3.971  0.1043  0.5144 -0.5176
 2294TIP3   OH228372   3.149   1.866   0.465  0.3075 -0.0374 -0.1606
 2294TIP3    H128373   3.085   1.834   0.528  1.5038 -1.8754  0.1940
 2294TIP3    H228374   3.220   1.901   0.519  0.7012 -0.3078 -0.4984
 2295TIP3   OH228375   6.040   6.728   5.839 -0.0686 -0.0443 -0.5937
 2295TIP3    H128376   5.950   6.700   5.853  0.2296 -0.7927 -0.1381
 2295TIP3    H228377   6.032   6.807   5.784 -1.0205  0.2966  0.0089
 2296TIP3   OH228378   6.104   1.811   1.831 -0.1017 -0.2661  0.0682
 2296TIP3    H128379   6.175   1.868   1.861  0.5646 -0.6645 -0.6915
 2296TIP3    H228380   6.101   1.740   1.895 -1.7530  1.1818  1.7197
 2297TIP3   OH228381   0.344   2.814   2.091  0.2922 -0.3385  0.0935
 2297TIP3    H128382   0.297   2.753   2.034  1.0866 -0.3736 -0.5457
 2297TIP3    H228383   0.327   2.782   2.179  0.1443 -1.0909 -0.1994
 2298TIP3   OH228384   6.734   1.953   3.109  0.1741 -0.4248  0.3251
 2298TIP3    H128385   6.663   2.010   3.136  1.7510  2.1201 -0.5362
 2298TIP3    H228386   6.698   1.902   3.036 -1.0141  0.1309  0.5148
 2299TIP3   OH228387   2.907   6.628  15.865  0.1962 -0.1933 -0.2579
 2299TIP3    H128388   2.876   6.552  15.817  0.6416  0.0973 -1.0239
 2299TIP3    H228389   2.875   6.615  15.954  0.0187 -1.1219 -0.4502
 2300TIP3   OH228390   4.667   6.411  11.900  0.0343 -0.2800  0.0492
 2300TIP3    H128391   4.710   6.328  11.878 -0.0550 -0.2542 -0.2226
 2300TIP3    H228392   4.579   6.384  11.928  0.5977 -0.4466  1.7840
 2301TIP3   OH228393   1.755   1.786   2.480  0.8402  0.0938 -0.1636
 2301TIP3    H128394   1.701   1.812   2.555  2.5550 -1.7147  1.8427
 2301TIP3    H228395   1.786   1.869   2.443 -1.6150  1.0964 -0.1459
 2302TIP3   OH228396   4.415   6.254   5.778  0.3719  0.1102 -0.2509
 2302TIP3    H128397   4.328   6.245   5.816  0.2425  1.0880 -0.2883
 2302TIP3    H228398   4.400   6.291   5.691  0.8828  1.6904  0.2980
 2303TIP3   OH228399   6.789   0.364   0.256 -0.1322  0.3510  0.6022
 2303TIP3    H128400   6.703   0.323   0.263  0.0695  0.1711  2.7707
 2303TIP3    H228401   6.783   0.420   0.179 -2.1387  0.2082  0.6032
 2304TIP3   OH228402   6.399   2.838  11.124 -1.1616  0.5345 -0.2426
 2304TIP3    H128403   6.371   2.826  11.033 -0.0966  0.9487 -0.6362
 2304TIP3    H228404   6.364   2.762  11.170 -0.7584 -0.2627 -1.2283
 2305TIP3   OH228405   1.751   3.272  17.029 -0.5128  0.2814 -0.1892
 2305TIP3    H128406   1.819   3.214  16.994 -0.0104  2.3482 -2.9021
 2305TIP3    H228407   1.775   3.283  17.121  2.3116  0.1623 -0.8114
 2306TIP3   OH228408   1.693   1.300  14.164 -0.2085  0.0708  0.0893
 2306TIP3    H128409   1.676   1.392  14.144 -2.4389 -0.1576  0.5987
 2306TIP3    H228410   1.783   1.286  14.137  1.0525  3.0011  2.2171
 2307TIP3   OH228411   1.563   0.392   3.766 -0.0593  0.5092 -0.4602
 2307TIP3    H128412   1.602   0.468   3.810 -1.0445  2.6302 -3.0110
 2307TIP3    H228413   1.501   0.357   3.831 -0.0810  2.3029  0.5597
 2308TIP3   OH228414   6.787   6.246  11.462  0.4187 -0.2776 -0.0226
 2308TIP3    H128415   6.726   6.311  11.428 -0.6466 -1.4542 -0.4075
 2308TIP3    H228416   6.811   6.193  11.386  3.1010  1.0196 -0.2028
 2309TIP3   OH228417   5.952   6.229  13.645 -0.1781  0.4086 -0.3858
 2309TIP3    H128418   6.045   6.241  13.664  0.2826 -0.9598 -1.5755
 2309TIP3    H228419   5.931   6.143  13.682 -0.7908  0.3821 -0.7766
 2310TIP3   OH228420   6.612   3.042   4.667  0.3051  0.1807  0.0013
 2310TIP3    H128421   6.545   3.057   4.601  1.5207 -0.6475 -1.4842
 2310TIP3    H228422   6.656   3.127   4.677  0.0704  0.3274 -0.2089
 2311TIP3   OH228423   4.704   1.581  14.842 -0.2495 -0.2609  0.4186
 2311TIP3    H128424   4.625   1.599  14.790 -0.4450 -0.7831  0.5388
 2311TIP3    H228425   4.757   1.661  14.832  0.9225 -1.2925 -2.7567
 2312TIP3   OH228426   4.946   5.347   4.666  0.0311  0.0051 -0.0130
 2312TIP3    H128427   4.993   5.367   4.747  2.1353 -0.1446 -1.1264
 2312TIP3    H228428   4.910   5.431   4.638  1.0318  0.4658  0.0409
 2313TIP3   OH228429   5.832   5.647   3.157  0.4365 -0.1330  0.1120
 2313TIP3    H128430   5.897   5.704   3.116  0.2582 -0.1843 -0.2388
 2313TIP3    H228431   5.822   5.682   3.245  0.7652  0.0211  0.0903
 2314TIP3   OH228432   5.042   6.687   2.222  0.2789 -0.0882  0.2853
 2314TIP3    H128433   5.048   6.593   2.205 -0.5015 -0.5832  2.4095
 2314TIP3    H228434   5.104   6.703   2.293  0.3456  0.9963  0.0041
 2315TIP3   OH228435   0.982   3.345  12.202  0.4260  0.2944 -0.1186
 2315TIP3    H128436   0.925   3.417  12.230  0.0047 -0.2953  0.5643
 2315TIP3    H228437   1.067   3.386  12.189  0.9652  0.4307  3.1554
 2316TIP3   OH228438   6.386   2.455  16.626 -0.2530 -0.1457 -0.6113
 2316TIP3    H128439   6.379   2.407  16.543 -0.5180 -1.1626 -0.0165
 2316TIP3    H228440   6.455   2.410  16.674 -0.7505 -0.1634  0.1029
 2317TIP3   OH228441   2.822   0.321   6.156  0.2396 -0.0152 -0.1930
 2317TIP3    H128442   2.914   0.340   6.177  1.1437 -1.7162 -2.2584
 2317TIP3    H228443   2.788   0.278   6.235  1.5595 -0.3884  0.2008
 2318TIP3   OH228444   5.107   0.867   2.716 -0.5393  0.5044 -0.0233
 2318TIP3    H128445   5.192   0.869   2.760 -0.2949  1.6473 -0.5249
 2318TIP3    H228446   5.043   0.860   2.787 -0.0235 -1.0234  0.3278
 2319TIP3   OH228447   1.916   6.521  11.868  0.1888 -0.3921  0.1830
 2319TIP3    H128448   1.863   6.441  11.864  1.9478 -1.5953 -0.1858
 2319TIP3    H228449   1.961   6.516  11.952  0.0862  0.3868  0.2911
 2320TIP3   OH228450   3.180   0.727  10.881  0.0331 -0.4760  0.3390
 2320TIP3    H128451   3.225   0.811  10.877 -1.6481  0.4145 -1.3198
 2320TIP3    H228452   3.250   0.662  10.884  1.4010  0.9208 -0.3107
 2321TIP3   OH228453   1.940   1.615  14.708  0.2693 -0.1972 -0.6064
 2321TIP3    H128454   1.989   1.589  14.630  1.5589 -0.8720  0.4048
 2321TIP3    H228455   1.981   1.697  14.736  1.2445 -1.0464  0.5623
 2322TIP3   OH228456   5.523   2.786  16.479 -0.6380 -0.1713 -0.1641
 2322TIP3    H128457   5.562   2.736  16.407 -2.9394 -1.6958 -0.4664
 2322TIP3    H228458   5.584   2.776  16.552  0.6072 -0.5534 -1.2343
 2323TIP3   OH228459   6.344   5.459  16.465  0.0366  0.3138  0.1152
 2323TIP3    H128460   6.334   5.402  16.541  0.6590 -0.7298 -0.5629
 2323TIP3    H228461   6.426   5.430  16.424 -1.0772 -0.2172 -1.8570
 2324TIP3   OH228462   5.717   2.175  16.344  0.2441 -0.2623  0.2459
 2324TIP3    H128463   5.668   2.123  16.408 -3.0560 -0.0549 -1.8754
 2324TIP3    H228464   5.701   2.265  16.369 -2.2193 -0.1328 -1.4831
 2325TIP3   OH228465   6.095   6.794   4.320  0.5352 -0.4198  1.0610
 2325TIP3    H128466   6.181   6.764   4.351  0.2572 -1.4267  0.9117
 2325TIP3    H228467   6.040   6.795   4.398  0.1926 -1.6464  0.8637
 2326TIP3   OH228468   3.253   1.813   4.391  0.3248 -0.4956 -0.4231
 2326TIP3    H128469   3.240   1.777   4.303 -1.4022  0.0437 -0.4180
 2326TIP3    H228470   3.169   1.802   4.435  1.8587 -3.2088  2.1657
 2327TIP3   OH228471   1.640   3.272  16.001 -0.1153 -0.4178  0.1339
 2327TIP3    H128472   1.714   3.310  15.954 -1.4211 -0.1097 -1.8386
 2327TIP3    H228473   1.642   3.313  16.087  1.6992 -0.0736 -0.0296
 2328TIP3   OH228474   2.032   6.433  11.479 -0.2094  0.5482  0.7029
 2328TIP3    H128475   2.121   6.421  11.511  1.4575 -0.8081 -3.7310
 2328TIP3    H228476   1.986   6.353  11.505  0.4558  0.3372  1.2530
 2329TIP3   OH228477   5.818   0.710  14.482  0.0021  0.1800 -0.5121
 2329TIP3    H128478   5.842   0.635  14.428 -0.0736  0.9647 -1.6754
 2329TIP3    H228479   5.729   0.691  14.511 -0.8032  0.6908 -2.4687
 2330TIP3   OH228480   2.777   2.728   2.327  0.1087  0.2360 -0.4766
 2330TIP3    H128481   2.684   2.729   2.302  0.1808  0.7107 -0.7296
 2330TIP3    H228482   2.817   2.794   2.272  0.2698  1.3093  0.8925
 2331TIP3   OH228483   0.871   2.040  13.757 -0.1660  0.0616 -0.3648
 2331TIP3    H128484   0.842   1.969  13.700 -0.9859  1.7151 -2.1427
 2331TIP3    H228485   0.952   2.072  13.717 -0.8265  1.3392 -0.7419
 2332TIP3   OH228486   0.192   0.307  12.570 -0.3371 -0.4750  0.0741
 2332TIP3    H128487   0.251   0.243  12.530  1.8069  1.1054  0.5464
 2332TIP3    H228488   0.123   0.320  12.506  0.8702 -0.9837 -1.3725
 2333TIP3   OH228489   1.183   6.762  14.988  0.5668 -0.4150 -0.4047
 2333TIP3    H128490   1.090   6.782  14.991  0.5686 -0.4550 -0.0541
 2333TIP3    H228491   1.212   6.797  14.904  0.0526 -1.2308 -0.9354
 2334TIP3   OH228492   3.614   3.302   0.201 -0.9703  0.1130 -0.7729
 2334TIP3    H128493   3.670   3.377   0.182 -1.4727  0.9718  0.9147
 2334TIP3    H228494   3.618   3.293   0.296 -1.8834 -1.2618 -0.8320
 2335TIP3   OH228495   4.944   1.233   3.389 -0.3509  0.1179 -0.5644
 2335TIP3    H128496   4.916   1.242   3.298  0.1513 -0.9054 -0.8358
 2335TIP3    H228497   5.037   1.212   3.384 -0.5625 -1.1317  0.1152
 2336TIP3   OH228498   3.316   0.533  16.520  0.3402  0.2309 -0.0027
 2336TIP3    H128499   3.296   0.613  16.569 -0.4682 -0.6176  1.0865
 2336TIP3    H228500   3.236   0.513  16.472  0.6114  0.1889 -0.4390
 2337TIP3   OH228501   0.258   6.396   1.978 -0.4846 -0.5373  0.4980
 2337TIP3    H128502   0.163   6.386   1.969 -0.5952 -0.2059  1.2001
 2337TIP3    H228503   0.292   6.307   1.971 -0.7975 -0.6030 -0.2533
 2338TIP3   OH228504   6.566   1.950  15.877  0.1357  0.4440  0.4033
 2338TIP3    H128505   6.500   1.978  15.813  1.6251 -0.1350 -1.4650
 2338TIP3    H228506   6.622   2.027  15.889  0.3918  0.2729  0.3119
 2339TIP3   OH228507   5.582   2.412  17.032 -0.2287 -1.0487 -0.6986
 2339TIP3    H128508   5.655   2.351  17.025 -1.0074 -2.2226  0.6607
 2339TIP3    H228509   5.504   2.355  17.034 -1.3387  0.2028 -3.3564
 2340TIP3   OH228510   6.660   1.744   2.911  0.0420  0.0956 -0.3041
 2340TIP3    H128511   6.751   1.716   2.899 -0.0226 -0.0376 -0.4965
 2340TIP3    H228512   6.639   1.791   2.830 -0.5514 -1.2204 -0.9346
 2341TIP3   OH228513   1.758   2.620  13.685  0.2263  0.0821 -0.4663
 2341TIP3    H128514   1.845   2.586  13.661  0.4399 -1.3967  2.0175
 2341TIP3    H228515   1.763   2.714  13.668  2.8808  0.3015  1.0170
 2342TIP3   OH228516   2.066   6.291   5.971 -0.0314 -0.1752 -0.4010
 2342TIP3    H128517   2.004   6.343   6.021 -0.1346  0.9386 -1.6262
 2342TIP3    H228518   2.153   6.321   6.000 -0.0868 -0.1853 -0.2278
 2343TIP3   OH228519   4.304   3.522   2.064 -0.3253 -0.1646  0.0436
 2343TIP3    H128520   4.249   3.446   2.077  0.4977 -0.9350 -0.8308
 2343TIP3    H228521   4.370   3.516   2.133 -0.5017 -0.0161  0.2258
 2344TIP3   OH228522   1.516   4.706  11.417 -0.2718  0.2684  0.0580
 2344TIP3    H128523   1.478   4.692  11.504 -0.4244 -0.0338 -0.0550
 2344TIP3    H228524   1.556   4.793  11.422 -1.3513  0.7815  0.0432
 2345TIP3   OH228525   1.701   5.415   2.419  0.0465 -0.8249 -0.4636
 2345TIP3    H128526   1.633   5.425   2.485 -0.4760 -0.7731 -1.0002
 2345TIP3    H228527   1.674   5.472   2.347  1.3155  0.1740 -0.1816
 2346TIP3   OH228528   6.768   5.466  11.925  0.2663  0.1712 -0.3676
 2346TIP3    H128529   6.706   5.524  11.880  0.0546  0.4925  0.3198
 2346TIP3    H228530   6.844   5.462  11.867  0.9799  2.4617  0.2852
 2347TIP3   OH228531   2.101   1.642   4.005 -0.1328 -0.0843 -0.2506
 2347TIP3    H128532   2.154   1.622   4.083 -0.0721  0.2610 -0.1999
 2347TIP3    H228533   2.100   1.561   3.955 -0.1761 -0.3102  0.1162
 2348TIP3   OH228534   3.989   2.853   1.345 -0.1789 -0.5544 -0.0580
 2348TIP3    H128535   3.927   2.918   1.312 -1.4053 -1.2553  0.7775
 2348TIP3    H228536   4.075   2.896   1.339 -0.7127  0.3892 -1.3583
 2349TIP3   OH228537   3.778   4.681  15.229 -0.6096  0.4017  0.3998
 2349TIP3    H128538   3.717   4.755  15.221 -1.6189 -0.5634 -1.6872
 2349TIP3    H228539   3.790   4.670  15.323 -0.9226  2.7959  0.7900
 2350TIP3   OH228540   3.633   4.002  14.856  0.0057  0.3462 -0.0232
 2350TIP3    H128541   3.585   4.052  14.921  0.3341  2.5996 -1.4009
 2350TIP3    H228542   3.598   4.032  14.772  3.5362  1.9601 -1.1145
 2351TIP3   OH228543   3.483   6.128   1.851 -0.2306  0.0638 -0.1401
 2351TIP3    H128544   3.457   6.048   1.897 -1.4209  0.8507  0.6017
 2351TIP3    H228545   3.402   6.177   1.839  0.6113  1.6493  0.3553
 2352TIP3   OH228546   0.755   6.689   0.126  0.1467  0.1291 -0.1103
 2352TIP3    H128547   0.813   6.762   0.150 -0.6623  0.1426  1.9571
 2352TIP3    H228548   0.804   6.642   0.059  1.8782  1.0319  0.4490
 2353TIP3   OH228549   2.040   0.971  13.743 -0.0228  0.4210 -0.0448
 2353TIP3    H128550   1.977   1.043  13.746 -0.6572  0.0866 -2.8430
 2353TIP3    H228551   2.060   0.961  13.650  1.6729 -1.6543  0.4742
 2354TIP3   OH228552   5.275   6.828   5.436  0.1080 -0.2304  0.2960
 2354TIP3    H128553   5.232   6.843   5.520  0.3369  2.8838 -0.0149
 2354TIP3    H228554   5.264   6.734   5.420 -1.9141 -0.5232  2.6909
 2355TIP3   OH228555   5.141   2.625   3.790  0.3560  0.1568  0.1117
 2355TIP3    H128556   5.140   2.616   3.886  0.4556  3.1247  0.4824
 2355TIP3    H228557   5.234   2.623   3.767  0.3636  0.0334  0.1528
 2356TIP3   OH228558   3.844   1.884   5.285  0.0792 -0.4137  0.1810
 2356TIP3    H128559   3.801   1.930   5.213 -0.9044 -2.1631 -0.4275
 2356TIP3    H228560   3.773   1.838   5.329  0.4521  1.5859  3.1285
 2357TIP3   OH228561   5.893   3.953   3.859 -0.2854  0.7820  0.4086
 2357TIP3    H128562   5.837   4.030   3.869 -1.9846 -0.4373  0.7694
 2357TIP3    H228563   5.980   3.982   3.887 -1.4299  1.8645  3.1651
 2358TIP3   OH228564   2.437   3.294   1.944 -0.0912  0.0806  0.3114
 2358TIP3    H128565   2.365   3.282   1.882  0.2973 -1.5372  0.1107
 2358TIP3    H228566   2.510   3.327   1.890  0.0541 -0.7089  0.0047
 2359TIP3   OH228567   0.044   2.769  12.865 -0.1818 -0.3057  0.7620
 2359TIP3    H128568  -0.013   2.762  12.942  0.4096 -0.6862  1.1720
 2359TIP3    H228569   0.057   2.863  12.854 -0.1117 -0.2545  1.2509
 2360TIP3   OH228570   4.640   3.791  14.407  0.2897 -0.0631  0.1266
 2360TIP3    H128571   4.662   3.859  14.471  0.8133  1.3269 -1.4703
 2360TIP3    H228572   4.711   3.793  14.344  0.3371 -2.1706  0.0444
 2361TIP3   OH228573   4.802   6.407   3.231  0.0718  0.5832 -0.6362
 2361TIP3    H128574   4.799   6.484   3.175  0.9448  1.9850  1.1109
 2361TIP3    H228575   4.811   6.443   3.320  0.9508 -1.5409  0.2066
 2362TIP3   OH228576   6.171   0.868   4.317  0.5281 -0.2711  0.1671
 2362TIP3    H128577   6.185   0.780   4.282  0.1338  0.1130 -1.0181
 2362TIP3    H228578   6.156   0.922   4.240 -2.6547  0.2287  0.9774
 2363TIP3   OH228579   4.478   5.119   2.239  0.0575  0.5999  0.0617
 2363TIP3    H128580   4.444   5.207   2.253 -0.2182  0.7590 -1.4988
 2363TIP3    H228581   4.569   5.124   2.268  1.1132  2.3803 -3.0724
 2364TIP3   OH228582   3.437   6.044  13.564  0.1437  0.4223  0.1551
 2364TIP3    H128583   3.484   6.062  13.645  0.2727 -1.2032  0.4756
 2364TIP3    H228584   3.348   6.076  13.581  0.0909 -0.1699  1.0594
 2365TIP3   OH228585   0.105   3.127  14.062  0.7570  0.2253  0.7733
 2365TIP3    H128586   0.113   3.178  13.982 -3.3673  2.9796  1.8467
 2365TIP3    H228587   0.157   3.174  14.127  1.3982 -0.1292  0.5276
 2366TIP3   OH228588   6.455   2.281  16.096  0.1597 -0.3297  0.0340
 2366TIP3    H128589   6.417   2.202  16.134  1.4553 -0.2910  1.5194
 2366TIP3    H228590   6.385   2.318  16.043 -1.1811 -1.3336  1.0299
 2367TIP3   OH228591   6.246   2.946  16.274  0.9142 -0.0998 -0.1710
 2367TIP3    H128592   6.151   2.949  16.284  0.7852  0.5156 -1.3547
 2367TIP3    H228593   6.270   2.855  16.291  0.0832 -0.3105 -0.1214
 2368TIP3   OH228594   0.034   5.469   2.995  0.0214  0.2935 -0.0945
 2368TIP3    H128595   0.080   5.514   2.924 -0.7680 -0.1712 -0.9171
 2368TIP3    H228596  -0.054   5.505   2.993 -0.4505 -0.8526 -0.3741
 2369TIP3   OH228597   3.649   2.003   0.628 -0.2665  0.2777 -0.4728
 2369TIP3    H128598   3.711   1.951   0.577 -0.1974  0.7795 -0.9077
 2369TIP3    H228599   3.685   2.004   0.716 -0.3774 -0.5851 -0.4122
 2370TIP3   OH228600   3.704   0.118  15.949  0.6985  0.1694  0.0033
 2370TIP3    H128601   3.793   0.084  15.944  1.3667  1.6545  1.2871
 2370TIP3    H228602   3.687   0.131  16.042 -0.3471  1.1846 -0.2954
 2371TIP3   OH228603   1.231   4.087   4.971 -0.1212  0.5157  0.3626
 2371TIP3    H128604   1.243   4.000   5.010  1.9736 -0.7614 -2.7459
 2371TIP3    H228605   1.137   4.092   4.954 -0.1169 -1.8780 -0.8037
 2372TIP3   OH228606   6.127   3.243   1.175 -0.1785  0.0302  0.5402
 2372TIP3    H128607   6.105   3.155   1.143 -0.7316  0.4685 -0.2990
 2372TIP3    H228608   6.175   3.227   1.256 -0.0155 -1.0575  0.2423
 2373TIP3   OH228609   4.406   2.918  16.591  0.3936 -0.3321 -0.0178
 2373TIP3    H128610   4.451   2.850  16.542  0.1048 -0.4062 -0.1844
 2373TIP3    H228611   4.318   2.922  16.553  0.2581 -0.1908  0.2982
 2374TIP3   OH228612   1.010   2.935   3.143 -0.1971 -0.3159 -0.2378
 2374TIP3    H128613   1.032   2.970   3.057 -1.2465 -1.1920 -0.8817
 2374TIP3    H228614   1.030   2.842   3.137 -0.9294 -0.5118  0.2385
 2375TIP3   OH228615   5.620   0.347   2.613 -0.0081 -0.7343 -0.1662
 2375TIP3    H128616   5.668   0.373   2.692  0.6588 -0.1058 -0.7675
 2375TIP3    H228617   5.603   0.253   2.626  0.3400 -0.7061  0.5923
 2376TIP3   OH228618   1.752   4.429  11.993 -0.5883 -0.0194  0.1776
 2376TIP3    H128619   1.800   4.491  11.939  0.2233 -0.0045  0.8984
 2376TIP3    H228620   1.772   4.344  11.955  0.0952 -0.0218  0.5286
 2377TIP3   OH228621   1.236   1.242  10.885 -0.5203  0.7194  0.1524
 2377TIP3    H128622   1.157   1.293  10.865 -1.1107  0.9827  2.7803
 2377TIP3    H228623   1.203   1.161  10.924  0.4844 -0.2362 -0.9408
 2378TIP3   OH228624   6.703   0.709  15.489  0.3236  0.4322  0.4917
 2378TIP3    H128625   6.684   0.679  15.577 -1.7816 -0.8136 -0.3274
 2378TIP3    H228626   6.682   0.635  15.432  2.0968  1.0267 -1.0488
 2379TIP3   OH228627   3.408   2.906   2.759  0.2099  0.0795  0.2526
 2379TIP3    H128628   3.414   2.849   2.682 -0.8477  1.3118 -0.8141
 2379TIP3    H228629   3.498   2.936   2.773  0.3767  0.1096 -0.7523
 2380TIP3   OH228630   0.965   5.148  16.816 -0.6383 -0.2482  0.1284
 2380TIP3    H128631   0.911   5.216  16.857 -1.1040 -0.7120  0.3053
 2380TIP3    H228632   1.055   5.172  16.839 -0.8455 -0.0991  0.8194
 2381TIP3   OH228633   1.557   5.786  16.634  0.2549  0.4516  0.1623
 2381TIP3    H128634   1.500   5.732  16.689  0.5365  0.3781  0.3912
 2381TIP3    H228635   1.642   5.742  16.639  0.3652  0.6398 -0.0560
 2382TIP3   OH228636   0.596   3.398   5.704 -0.4283 -0.8839  0.1746
 2382TIP3    H128637   0.560   3.434   5.786  0.4560  0.3328  0.0446
 2382TIP3    H228638   0.613   3.474   5.650 -0.6099 -1.6595 -1.0020
 2383TIP3   OH228639   2.844   4.740  12.647 -0.2094  0.5167 -0.0420
 2383TIP3    H128640   2.849   4.835  12.649  1.9128  0.5114 -1.9599
 2383TIP3    H228641   2.906   4.713  12.579  0.3499 -2.3137  1.4199
 2384TIP3   OH228642   4.080   2.437   4.630  0.6143  0.1815 -0.0913
 2384TIP3    H128643   4.159   2.384   4.633  0.2017 -0.3948  0.9639
 2384TIP3    H228644   4.108   2.525   4.657  1.2093  0.4267 -1.4123
 2385TIP3   OH228645   4.332   4.089  11.651 -0.4242  0.0570 -0.3210
 2385TIP3    H128646   4.291   4.013  11.609  0.0073 -0.5311  0.2919
 2385TIP3    H228647   4.277   4.107  11.727  1.3562 -1.8938  1.5807
 2386TIP3   OH228648   1.195   0.695  15.550  0.3176  0.0768  0.0370
 2386TIP3    H128649   1.105   0.665  15.537  0.1033  0.6520  0.1837
 2386TIP3    H228650   1.201   0.776  15.500  0.9581 -0.3036 -0.5300
 2387TIP3   OH228651   1.716   2.927  11.964 -0.7208 -0.1449  0.4039
 2387TIP3    H128652   1.674   2.848  11.999 -1.2070  0.2371  0.7091
 2387TIP3    H228653   1.688   2.931  11.873 -0.2988 -0.5837  0.2502
 2388TIP3   OH228654   0.319   5.848  14.033 -0.2490  0.2586 -0.4097
 2388TIP3    H128655   0.372   5.798  14.095 -0.3772  0.8030  0.1500
 2388TIP3    H228656   0.247   5.789  14.010  0.5131 -0.4440 -1.0835
 2389TIP3   OH228657   6.636   2.430   1.218 -0.6350 -0.1579  0.7099
 2389TIP3    H128658   6.567   2.495   1.231 -0.3134  0.4050 -0.3298
 2389TIP3    H228659   6.630   2.373   1.295 -1.9216  0.1828  0.8773
 2390TIP3   OH228660   1.747   2.224  12.756 -0.0157  0.1921  0.1151
 2390TIP3    H128661   1.705   2.139  12.747  0.5346 -0.0816  0.1291
 2390TIP3    H228662   1.803   2.232  12.679  0.9141 -0.0157  0.7603
 2391TIP3   OH228663   5.642   0.488  16.944  0.3073  0.7029 -0.3083
 2391TIP3    H128664   5.647   0.399  16.981 -1.5013  0.1819 -1.2005
 2391TIP3    H228665   5.558   0.490  16.898  0.1693  2.9949 -0.0648
 2392TIP3   OH228666   1.910   3.887   5.907  0.2147 -0.1794 -0.6272
 2392TIP3    H128667   1.932   3.888   6.000 -1.1882  2.1396 -0.2529
 2392TIP3    H228668   1.955   3.809   5.873  2.4756  0.0512  1.5470
 2393TIP3   OH228669   5.772   3.082   5.974 -0.0149  0.0062  0.9117
 2393TIP3    H128670   5.776   3.161   6.029 -1.0062  1.9415 -1.5979
 2393TIP3    H228671   5.697   3.033   6.008  0.9107 -0.2109  2.8236
 2394TIP3   OH228672   0.649   2.412   5.405  0.1094 -0.1426  0.3896
 2394TIP3    H128673   0.624   2.485   5.462  1.3572  0.6204  0.0023
 2394TIP3    H228674   0.601   2.337   5.439  0.4104  0.4093  2.1344
 2395TIP3   OH228675   5.213   3.054   0.513  0.1255  0.0528 -0.1374
 2395TIP3    H128676   5.297   3.078   0.472 -0.2000  1.9738  0.2412
 2395TIP3    H228677   5.223   3.080   0.605 -0.8494  0.2267 -0.0735
 2396TIP3   OH228678   2.160   5.290   4.636  0.0636  0.6057  0.3078
 2396TIP3    H128679   2.088   5.323   4.581  0.7032  0.9901 -0.3170
 2396TIP3    H228680   2.146   5.331   4.721  0.7004  2.3573 -0.3800
 2397TIP3   OH228681   6.553   2.587  11.247  0.0463  0.0843 -0.3018
 2397TIP3    H128682   6.460   2.601  11.264  0.4641  2.1701  0.5228
 2397TIP3    H228683   6.560   2.592  11.151 -0.5764  0.6422 -0.3280
 2398TIP3   OH228684   5.804   2.136   1.529  0.1750  0.0341 -0.3469
 2398TIP3    H128685   5.757   2.171   1.604  2.5262  2.8678 -0.0495
 2398TIP3    H228686   5.890   2.112   1.563  0.3067 -1.4256 -1.5966
 2399TIP3   OH228687   3.700   4.947  15.324 -0.0169 -0.0210 -0.2342
 2399TIP3    H128688   3.682   5.024  15.270  1.1831 -0.4346 -1.2746
 2399TIP3    H228689   3.760   4.979  15.392 -0.4111  0.1872  0.0244
 2400TIP3   OH228690   5.769   3.456  14.461  0.2292 -0.2634  0.5558
 2400TIP3    H128691   5.826   3.526  14.429  0.8456 -1.0069 -0.0233
 2400TIP3    H228692   5.732   3.490  14.542  0.2564  0.8570  0.1189
 2401TIP3   OH228693   3.727   3.073   2.435 -0.2939 -0.7457 -0.2124
 2401TIP3    H128694   3.786   3.053   2.508 -1.1766  0.5675  0.9057
 2401TIP3    H228695   3.675   3.147   2.466 -1.0472 -0.4830 -1.9993
 2402TIP3   OH228696   0.661   0.784  13.477 -0.1385 -1.0674 -0.4191
 2402TIP3    H128697   0.730   0.805  13.539  0.3716  1.6699 -1.7343
 2402TIP3    H228698   0.606   0.720  13.522  0.7418  0.0287  2.4381
 2403TIP3   OH228699   0.487   0.568  16.084  0.2972 -0.0322 -0.4194
 2403TIP3    H128700   0.557   0.622  16.047  0.4363  1.2176  1.5094
 2403TIP3    H228701   0.533   0.494  16.124  0.4180  0.1223 -0.2671
 2404TIP3   OH228702   3.562   1.816  12.515  0.6535  0.3203 -0.0802
 2404TIP3    H128703   3.566   1.762  12.593 -1.3415 -2.1763 -1.5252
 2404TIP3    H228704   3.615   1.893  12.535 -0.5468  0.2888  4.0334
 2405TIP3   OH228705   5.442   0.930  11.133 -0.3734  0.1254  0.4218
 2405TIP3    H128706   5.379   1.000  11.120 -1.3326 -0.8884 -0.6115
 2405TIP3    H228707   5.486   0.952  11.215 -0.5664  1.9757  0.0642
 2406TIP3   OH228708   2.268   4.174   4.374 -0.2904 -0.2146 -0.0953
 2406TIP3    H128709   2.252   4.268   4.372  0.2207 -0.1133  0.3445
 2406TIP3    H228710   2.181   4.134   4.363 -0.4617  0.3031 -0.6519
 2407TIP3   OH228711   0.344   2.863   0.094 -0.5177  0.0218 -0.1425
 2407TIP3    H128712   0.273   2.869   0.158 -0.8211 -0.5885 -0.4083
 2407TIP3    H228713   0.348   2.770   0.071  1.7730 -0.3371  1.3982
 2408TIP3   OH228714   0.764   5.552   4.099 -0.0362 -0.5746  0.3296
 2408TIP3    H128715   0.776   5.639   4.135  2.4070 -0.0555 -1.4207
 2408TIP3    H228716   0.694   5.562   4.034 -0.4179 -0.1527  0.7996
 2409TIP3   OH228717   1.830   6.364   2.890 -0.1281  0.0262 -0.3034
 2409TIP3    H128718   1.757   6.302   2.901  0.4223 -0.5946 -0.0939
 2409TIP3    H228719   1.873   6.337   2.809  0.5990 -0.3843  0.2049
 2410TIP3   OH228720   6.538   3.549  16.641 -0.0189 -0.3840  0.1836
 2410TIP3    H128721   6.530   3.598  16.560 -0.5894  0.8387  0.9529
 2410TIP3    H228722   6.466   3.486  16.639 -0.8187  0.5111  0.3084
 2411TIP3   OH228723   2.921   1.671  14.440  0.0334 -0.3216 -0.0038
 2411TIP3    H128724   2.837   1.692  14.482 -0.6443 -1.8481 -0.5060
 2411TIP3    H228725   2.914   1.710  14.353 -0.4240 -0.9513 -0.2591
 2412TIP3   OH228726   4.562   0.357   2.770 -0.9595  0.0989  0.1345
 2412TIP3    H128727   4.593   0.383   2.683  0.0190  1.1945  0.7767
 2412TIP3    H228728   4.482   0.308   2.753 -2.0369  2.2050 -1.2838
 2413TIP3   OH228729   6.554   4.082  12.834 -0.5174  0.5694 -0.2456
 2413TIP3    H128730   6.503   4.159  12.858  0.9323  1.2226  0.8968
 2413TIP3    H228731   6.640   4.097  12.873 -0.4452 -2.0421  0.8153
 2414TIP3   OH228732   5.284   2.889   1.303 -0.4966  0.1011 -0.1289
 2414TIP3    H128733   5.305   2.930   1.387 -2.1816  2.0722 -0.5841
 2414TIP3    H228734   5.192   2.864   1.311  0.5051 -4.2662  0.2784
 2415TIP3   OH228735   1.929   0.469  16.100 -0.2859 -0.6977  0.1399
 2415TIP3    H128736   1.971   0.555  16.100 -0.2658 -0.7045  0.5883
 2415TIP3    H228737   1.975   0.419  16.033 -1.1762  0.0620 -1.0707
 2416TIP3   OH228738   3.115   4.385   2.431 -0.1634  0.0597 -0.4467
 2416TIP3    H128739   3.196   4.351   2.394 -1.0609 -1.0964 -1.4069
 2416TIP3    H228740   3.144   4.456   2.489  1.4187  0.7847 -2.0037
 2417TIP3   OH228741   1.445   3.906   2.919  0.6414 -0.1440 -0.5974
 2417TIP3    H128742   1.354   3.884   2.900  0.7475  1.1715 -2.9606
 2417TIP3    H228743   1.492   3.822   2.910 -0.3186 -0.8679  0.8391
 2418TIP3   OH228744   3.339   0.078   4.826 -0.3652  0.0854  0.0002
 2418TIP3    H128745   3.288   0.142   4.876 -1.6868 -0.5478 -0.5029
 2418TIP3    H228746   3.325  -0.005   4.873 -0.8395 -0.3324 -0.8703
 2419TIP3   OH228747   1.730   0.792  15.331  0.2155  0.5049 -0.3990
 2419TIP3    H128748   1.697   0.838  15.254 -1.3309 -2.4129 -1.6584
 2419TIP3    H228749   1.820   0.823  15.341  0.6481  0.6578 -3.7091
 2420TIP3   OH228750   2.937   1.622  16.999  0.0779 -0.4339  0.1506
 2420TIP3    H128751   2.982   1.706  16.984  2.0559 -1.1473  1.7135
 2420TIP3    H228752   2.896   1.602  16.915  0.3355  1.6489 -0.5317
 2421TIP3   OH228753   4.125   2.123  13.844 -0.2134 -0.8681 -0.6621
 2421TIP3    H128754   4.095   2.090  13.760 -1.8005 -0.2549 -0.3590
 2421TIP3    H228755   4.102   2.216  13.843  2.2281 -0.1927 -0.6371
 2422TIP3   OH228756   1.385   3.966  13.873  0.1306  0.2674 -0.5411
 2422TIP3    H128757   1.397   3.872  13.864 -1.3610  0.0309 -0.3096
 2422TIP3    H228758   1.409   4.002  13.788 -0.6982 -0.4866 -1.1067
 2423TIP3   OH228759   5.742   0.191   4.389 -0.2610 -1.0283 -0.2241
 2423TIP3    H128760   5.728   0.222   4.299  0.9140  1.4559  0.3688
 2423TIP3    H228761   5.820   0.238   4.419 -0.2545 -2.2790  1.8998
 2424TIP3   OH228762   1.049   4.682   2.938 -0.3505 -0.1591 -0.5064
 2424TIP3    H128763   1.044   4.777   2.923 -2.0630 -0.1272 -0.0163
 2424TIP3    H228764   0.974   4.647   2.889 -0.3604 -1.1336  0.1933
 2425TIP3   OH228765   3.548   1.338   3.211 -0.8577  0.2556 -0.0305
 2425TIP3    H128766   3.576   1.248   3.191 -1.1122  0.5357 -1.7854
 2425TIP3    H228767   3.594   1.359   3.293  0.6838 -0.8091 -0.5619
 2426TIP3   OH228768   4.880   1.881  17.142  0.1793 -0.3577 -0.4933
 2426TIP3    H128769   4.858   1.969  17.173 -0.6970  0.4788 -3.2336
 2426TIP3    H228770   4.927   1.895  17.061 -0.6952 -2.4271 -1.4376
 2427TIP3   OH228771   1.676   4.927   1.159  0.7275 -0.0157  0.3320
 2427TIP3    H128772   1.619   4.934   1.236 -1.2712  0.6363 -1.1114
 2427TIP3    H228773   1.673   4.834   1.135  0.1555  0.0355  0.1952
 2428TIP3   OH228774   3.093   3.467   3.819 -0.1363  0.3096 -0.4227
 2428TIP3    H128775   3.143   3.391   3.848  0.5133  0.5301 -0.9206
 2428TIP3    H228776   3.060   3.507   3.899 -1.2923 -1.0270 -0.2114
 2429TIP3   OH228777   1.487   0.541   5.652  0.3798 -0.1640  0.2200
 2429TIP3    H128778   1.423   0.483   5.612  0.9655 -0.4100 -0.3670
 2429TIP3    H228779   1.441   0.579   5.727 -0.4816 -0.2611 -0.2482
 2430TIP3   OH228780   1.721   0.136   6.216  0.1506  0.3486  0.5335
 2430TIP3    H128781   1.805   0.113   6.257  1.2254  1.5162 -0.9272
 2430TIP3    H228782   1.737   0.130   6.122 -1.7244 -0.4122  0.2194
 2431TIP3   OH228783   4.763   1.412  12.340  0.2399 -0.0140  0.4124
 2431TIP3    H128784   4.712   1.364  12.274 -2.1203  0.8634  1.4918
 2431TIP3    H228785   4.794   1.490  12.294  0.9223 -0.7163 -0.3517
 2432TIP3   OH228786   6.126   5.062   5.183  0.0199  0.3319  0.0907
 2432TIP3    H128787   6.102   5.115   5.259 -1.2715  0.1524 -0.1721
 2432TIP3    H228788   6.065   4.988   5.185  0.2507  0.1035 -0.8854
 2433TIP3   OH228789   2.960   4.400   1.668 -0.3890  0.4246  0.4272
 2433TIP3    H128790   3.020   4.395   1.742 -2.2259  1.4972  2.0814
 2433TIP3    H228791   2.964   4.313   1.628  0.8439 -0.0993  1.6099
 2434TIP3   OH228792   0.035   1.810   2.185 -0.0225  0.3426  0.2396
 2434TIP3    H128793  -0.011   1.755   2.249  0.3575  1.3835  1.4443
 2434TIP3    H228794   0.080   1.748   2.128 -2.7862 -0.7401 -0.9565
 2435TIP3   OH228795   6.144   6.272  15.536  0.2188 -0.0279 -0.3573
 2435TIP3    H128796   6.108   6.247  15.621  0.9192  0.5929  0.1415
 2435TIP3    H228797   6.075   6.253  15.473 -0.4477 -0.1395  0.4016
 2436TIP3   OH228798   2.348   6.192  14.344 -0.0626  0.4856 -0.1030
 2436TIP3    H128799   2.365   6.258  14.410 -0.5392  0.2422  0.2734
 2436TIP3    H228800   2.409   6.212  14.273 -0.7872  1.8527 -0.3761
 2437TIP3   OH228801   5.996   3.880  11.832 -0.3628  0.1603  0.5066
 2437TIP3    H128802   6.001   3.964  11.786 -0.7239 -0.2167 -0.2454
 2437TIP3    H228803   5.951   3.822  11.771 -0.3617 -0.5114  1.1263
 2438TIP3   OH228804   5.607   4.524  14.321  0.3650  0.4358 -0.8098
 2438TIP3    H128805   5.525   4.475  14.325  0.2569  0.6958  2.6514
 2438TIP3    H228806   5.644   4.501  14.235 -4.2150  1.9799 -3.5526
 2439TIP3   OH228807   2.140   4.679  11.305 -0.3697 -0.3678 -0.5369
 2439TIP3    H128808   2.076   4.608  11.304 -0.3243 -0.3984 -1.7521
 2439TIP3    H228809   2.089   4.758  11.288 -0.4936 -0.0033  1.2509
 2440TIP3   OH228810   0.431   4.008   3.766  1.1047 -0.4991 -0.2684
 2440TIP3    H128811   0.436   3.921   3.728  0.2491 -0.7922  0.2681
 2440TIP3    H228812   0.345   4.012   3.807  0.3989  1.2216 -1.7553
 2441TIP3   OH228813   1.433   0.239   1.513 -0.0471  0.4346 -0.5198
 2441TIP3    H128814   1.429   0.334   1.524 -0.1924  0.4384 -0.6147
 2441TIP3    H228815   1.345   0.213   1.489 -0.1105  0.2204 -0.0747
 2442TIP3   OH228816   2.552   4.904  15.869  0.5225 -0.0294  0.1140
 2442TIP3    H128817   2.577   4.832  15.811  1.5345  0.8279 -0.5436
 2442TIP3    H228818   2.493   4.958  15.816  1.1832  0.5769 -0.0115
 2443TIP3   OH228819   1.774   4.965   3.895  0.0935  0.3706 -0.0304
 2443TIP3    H128820   1.781   4.882   3.849 -0.7398 -0.1079  0.6925
 2443TIP3    H228821   1.749   4.942   3.984 -0.5373  1.4107  0.0778
 2444TIP3   OH228822   4.091   5.000  11.165  0.2146  0.2793 -0.0377
 2444TIP3    H128823   4.131   5.064  11.223 -1.3163  2.8139 -1.5996
 2444TIP3    H228824   4.110   5.033  11.077 -0.1267 -1.7787 -0.9341
 2445TIP3   OH228825   2.485   4.457   0.537 -0.3528  0.0508 -0.4768
 2445TIP3    H128826   2.433   4.488   0.611  0.1078  0.3913 -0.2960
 2445TIP3    H228827   2.566   4.507   0.541  1.4056 -2.6582  1.1525
 2446TIP3   OH228828   6.583   2.794   1.139  0.4923  0.0200  0.1618
 2446TIP3    H128829   6.661   2.799   1.084 -0.3171 -0.4961 -1.0738
 2446TIP3    H228830   6.560   2.701   1.140 -0.8207  0.3184 -0.5462
 2447TIP3   OH228831   4.039   2.503   3.421 -0.0165 -0.3534  0.1541
 2447TIP3    H128832   3.969   2.553   3.464 -1.0190 -1.6675  0.1065
 2447TIP3    H228833   4.043   2.538   3.332 -1.4867 -1.0744 -0.2270
 2448TIP3   OH228834   0.265   4.640  14.147  0.1109 -0.8269 -0.0848
 2448TIP3    H128835   0.186   4.681  14.111  1.0868  0.0122 -1.3427
 2448TIP3    H228836   0.286   4.570  14.086  1.0011 -0.2783 -0.4283
 2449TIP3   OH228837   4.603   6.526   5.164  0.0258 -0.2313  0.3879
 2449TIP3    H128838   4.558   6.608   5.186 -1.0147 -0.7930  0.4140
 2449TIP3    H228839   4.532   6.463   5.149  0.8048 -1.3355  1.1769
 2450TIP3   OH228840   2.449   5.918   4.473 -0.6848 -0.5898  0.1760
 2450TIP3    H128841   2.384   5.979   4.439 -0.0341 -1.3542 -2.7317
 2450TIP3    H228842   2.492   5.883   4.395  1.8883 -1.5789  1.9018
 2451TIP3   OH228843   6.756   5.387  16.551  0.1150 -0.4239  0.2325
 2451TIP3    H128844   6.692   5.344  16.495  0.2556 -0.2913 -0.0362
 2451TIP3    H228845   6.841   5.357  16.518  0.2866  1.3118 -1.0500
 2452TIP3   OH228846   4.361   0.447   1.970 -0.2590 -0.5072 -0.4364
 2452TIP3    H128847   4.359   0.512   2.039  2.1549 -0.1117 -0.6713
 2452TIP3    H228848   4.373   0.363   2.015 -1.7727 -0.6446 -0.2366
 2453TIP3   OH228849   0.730   1.424   2.859  0.3671  0.2215  0.1771
 2453TIP3    H128850   0.744   1.519   2.865  0.7977  0.1829 -0.1801
 2453TIP3    H228851   0.701   1.411   2.769 -1.1573  0.1933  0.6454
 2454TIP3   OH228852   5.056   1.301   0.379 -0.1913  0.4638 -0.7580
 2454TIP3    H128853   5.068   1.389   0.414  0.8120 -0.3234  1.0285
 2454TIP3    H228854   4.964   1.280   0.397  0.2297  0.1749  1.3578
 2455TIP3   OH228855   1.663   5.941   3.647  0.1074 -0.3423  0.1327
 2455TIP3    H128856   1.718   5.892   3.585 -1.7734 -1.2330 -0.9156
 2455TIP3    H228857   1.665   6.031   3.615 -2.2586 -1.0595 -2.4662
 2456TIP3   OH228858   3.411   2.712  12.490 -0.0841 -0.7387  0.0630
 2456TIP3    H128859   3.376   2.757  12.413  2.5691 -1.5834 -1.7699
 2456TIP3    H228860   3.486   2.764  12.517 -0.5819 -0.8320  1.7119
 2457TIP3   OH228861   1.747   2.904   4.293 -0.1841  0.4844 -0.1382
 2457TIP3    H128862   1.752   2.862   4.207 -0.1767  0.4689 -0.1301
 2457TIP3    H228863   1.833   2.890   4.331 -0.0147  0.9424 -0.3397
 2458TIP3   OH228864   6.630   0.197  15.154 -0.0587  0.1438 -0.0455
 2458TIP3    H128865   6.572   0.239  15.218 -0.9004 -0.3158 -0.4967
 2458TIP3    H228866   6.675   0.270  15.111 -1.0365  0.5746 -0.3821
 2459TIP3   OH228867   4.324   3.842  14.515  0.3350  0.2139 -0.8934
 2459TIP3    H128868   4.234   3.873  14.516  0.7561  1.5442  1.0970
 2459TIP3    H228869   4.321   3.762  14.463 -1.8296  0.6361 -1.5205
 2460TIP3   OH228870   5.159   2.641  13.811 -0.1191  0.2761 -0.0420
 2460TIP3    H128871   5.117   2.707  13.867 -0.2798  0.7727 -0.7343
 2460TIP3    H228872   5.181   2.570  13.871 -0.3074  0.7845  0.6533
 2461TIP3   OH228873   3.291   0.720  15.905 -0.0002 -0.5902 -0.0080
 2461TIP3    H128874   3.204   0.711  15.867 -0.3574 -1.0477  0.8798
 2461TIP3    H228875   3.319   0.631  15.925 -0.0163 -0.3516  1.1711
 2462TIP3   OH228876   3.274   2.139  11.867  0.0893  0.1914  0.4422
 2462TIP3    H128877   3.311   2.190  11.940 -0.8310  0.4826  0.7131
 2462TIP3    H228878   3.341   2.072  11.849  1.6786  1.9302 -0.4479
 2463TIP3   OH228879   5.638   6.321   1.464 -0.0370  0.4390  0.2169
 2463TIP3    H128880   5.681   6.372   1.395 -0.2639  2.2371  1.3309
 2463TIP3    H228881   5.544   6.332   1.447 -0.0877  0.5281  0.5394
 2464TIP3   OH228882   3.592   1.609   1.409  0.6146 -0.2280 -0.4660
 2464TIP3    H128883   3.622   1.678   1.350 -0.3525  0.8761  0.2922
 2464TIP3    H228884   3.671   1.566   1.439  1.3241  1.2625 -0.1129
 2465TIP3   OH228885   6.768   3.914  15.581  0.5452  0.5954  0.1796
 2465TIP3    H128886   6.696   3.873  15.534 -0.1656  1.5355  0.3915
 2465TIP3    H228887   6.833   3.845  15.593 -0.8371 -0.6260  1.0362
 2466TIP3   OH228888   4.517   4.203  11.936  0.6580  0.1459 -0.1880
 2466TIP3    H128889   4.448   4.270  11.939  0.0502 -0.4852  0.3558
 2466TIP3    H228890   4.558   4.215  11.851 -0.1725  0.4927 -0.5551
 2467TIP3   OH228891   4.034   4.349  17.028 -0.3957  0.1039 -0.2531
 2467TIP3    H128892   4.067   4.396  16.952 -0.3866  0.6267  0.0716
 2467TIP3    H228893   3.943   4.330  17.007 -0.1761 -0.4563 -0.7293
 2468TIP3   OH228894   2.725   4.180   1.913  0.0715 -0.6425  0.0300
 2468TIP3    H128895   2.691   4.174   1.823  0.6564 -2.5724 -0.1159
 2468TIP3    H228896   2.663   4.129   1.965  0.3278 -0.4505  0.5230
 2469TIP3   OH228897   4.376   3.120  16.363 -0.2295 -0.3586  0.3143
 2469TIP3    H128898   4.424   3.082  16.436  0.5428 -0.3571 -0.1760
 2469TIP3    H228899   4.348   3.045  16.311  2.3277 -0.3329 -1.3072
 2470TIP3   OH228900   1.639   1.104  16.508  0.1000  0.3219 -0.4902
 2470TIP3    H128901   1.612   1.056  16.587 -1.9795  1.6875 -0.3234
 2470TIP3    H228902   1.696   1.042  16.462 -0.2274 -1.2453  1.0866
 2471TIP3   OH228903   6.429   6.684   1.632 -0.7147 -0.1719 -0.4052
 2471TIP3    H128904   6.486   6.761   1.642 -2.0336  0.6484  1.6067
 2471TIP3    H228905   6.433   6.640   1.717 -1.6324 -1.1347 -0.8325
 2472TIP3   OH228906   5.361   4.330  12.306 -0.2632 -0.0866  0.5371
 2472TIP3    H128907   5.434   4.268  12.311 -1.6860 -1.8803  0.2532
 2472TIP3    H228908   5.361   4.359  12.214  0.0695 -0.1097  0.5271
 2473TIP3   OH228909   3.006   3.224   4.914 -0.1107  0.3889 -0.0164
 2473TIP3    H128910   2.922   3.266   4.930  0.2085  1.0586 -0.0736
 2473TIP3    H228911   3.070   3.295   4.918  0.7907 -0.4243  2.5857
 2474TIP3   OH228912   1.741   6.159  14.284  0.1608 -0.7255  0.3233
 2474TIP3    H128913   1.712   6.071  14.259  0.4085 -0.8724  0.5504
 2474TIP3    H228914   1.675   6.189  14.347  0.6986 -1.2106  1.1322
 2475TIP3   OH228915   0.578   6.322   4.902  0.1227  0.2437  0.3859
 2475TIP3    H128916   0.659   6.327   4.953 -0.8214 -0.5877  2.0605
 2475TIP3    H228917   0.542   6.410   4.903  2.1177  1.2440 -2.4433
 2476TIP3   OH228918   2.618   1.443   4.454 -0.0257  0.1126 -0.5044
 2476TIP3    H128919   2.588   1.432   4.364  0.0231 -1.2109 -0.3841
 2476TIP3    H228920   2.708   1.409   4.454 -0.5070 -1.2791  0.3079
 2477TIP3   OH228921   4.650   4.618   2.016 -0.4465  0.1095  0.4256
 2477TIP3    H128922   4.648   4.669   1.936  0.6642  2.6473  1.8880
 2477TIP3    H228923   4.720   4.554   2.002 -0.9250 -0.1558 -0.9329
 2478TIP3   OH228924   5.314   1.906  14.569  0.6322 -0.2386 -0.1023
 2478TIP3    H128925   5.388   1.911  14.629 -0.1557 -0.3002  0.9101
 2478TIP3    H228926   5.268   1.826  14.594  0.4222 -0.3903 -0.9535
 2479TIP3   OH228927   1.894   1.038  12.398 -0.0174 -0.8558 -0.4638
 2479TIP3    H128928   1.989   1.031  12.385 -0.0843 -0.1007 -1.3690
 2479TIP3    H228929   1.885   1.089  12.478  0.3316 -0.2622 -0.8013
 2480TIP3   OH228930   4.594   4.954   0.483  0.1732 -0.4669  0.0170
 2480TIP3    H128931   4.650   4.943   0.559 -1.2059 -0.4048  1.0733
 2480TIP3    H228932   4.651   4.934   0.408  1.6685 -0.0703  1.0141
 2481TIP3   OH228933   1.313   6.353   5.148 -0.0263  0.0329 -0.2660
 2481TIP3    H128934   1.293   6.293   5.220  1.0936 -0.0521 -0.0140
 2481TIP3    H228935   1.229   6.366   5.104 -0.6740 -0.1486  0.8759
 2482TIP3   OH228936   6.457   0.292   0.628  0.7821  0.4750 -0.4646
 2482TIP3    H128937   6.466   0.356   0.699 -0.0909  0.9046 -0.7367
 2482TIP3    H228938   6.522   0.225   0.649  1.2764  1.1346  0.1617
 2483TIP3   OH228939   4.409   4.937   0.912  0.2272  0.5784 -0.8674
 2483TIP3    H128940   4.471   4.927   0.984 -1.0469 -0.6874  0.1049
 2483TIP3    H228941   4.434   5.020   0.871  0.0042  2.2489  2.0391
 2484TIP3   OH228942   4.526   4.510   3.948  0.1659 -0.0646 -0.4999
 2484TIP3    H128943   4.617   4.502   3.919  0.1985  0.5578 -0.5824
 2484TIP3    H228944   4.477   4.524   3.867  0.0510  0.0328 -0.4125
 2485TIP3   OH228945   1.905   1.743  13.345 -0.0857  0.8185  0.4125
 2485TIP3    H128946   1.948   1.812  13.294  1.3498  0.1750  0.7165
 2485TIP3    H228947   1.872   1.682  13.279  0.0517  0.9756  0.1958
 2486TIP3   OH228948   5.823   3.699   3.973  0.5653 -0.8116  0.6037
 2486TIP3    H128949   5.785   3.634   3.915  1.5908  0.4020 -1.5440
 2486TIP3    H228950   5.860   3.765   3.915  1.3524  0.6749  2.6551
 2487TIP3   OH228951   0.437   5.681   3.678 -0.4153  0.0596 -0.2210
 2487TIP3    H128952   0.474   5.758   3.636  0.0057  0.8941  1.5729
 2487TIP3    H228953   0.356   5.712   3.718 -0.9708 -0.7858 -0.6513
 2488TIP3   OH228954   1.949   3.412  11.994  0.4564  0.1193  0.0583
 2488TIP3    H128955   1.940   3.344  11.928  0.9243  1.0237 -0.9801
 2488TIP3    H228956   1.891   3.482  11.964 -0.0694  0.1695  1.1444
 2489TIP3   OH228957   1.129   2.026  12.838  0.2023  0.0539 -0.5950
 2489TIP3    H128958   1.064   1.979  12.890  1.0040  0.9064  1.2828
 2489TIP3    H228959   1.078   2.090  12.788 -0.5965 -0.7722 -0.8543
 2490TIP3   OH228960   5.133   3.290  11.995  0.1347 -0.0637 -0.1332
 2490TIP3    H128961   5.207   3.320  11.943 -0.6001  0.6130 -0.8169
 2490TIP3    H228962   5.059   3.292  11.935 -0.5238 -0.3251  0.6502
 2491TIP3   OH228963   5.897   5.735  16.204 -0.6531 -0.1063 -1.0419
 2491TIP3    H128964   5.881   5.676  16.277  0.5938 -0.0756 -0.7122
 2491TIP3    H228965   5.862   5.689  16.128  0.8096 -1.5888 -0.8825
 2492TIP3   OH228966   6.824   3.854   0.254  0.4048  0.2746 -0.2769
 2492TIP3    H128967   6.777   3.776   0.224  4.5871 -2.1166 -1.3294
 2492TIP3    H228968   6.808   3.855   0.349 -0.7457 -1.0734 -0.4134
 2493TIP3   OH228969   2.337   1.570  13.376  0.2489  0.1060  0.1252
 2493TIP3    H128970   2.288   1.645  13.344 -0.4811 -0.6870 -0.6560
 2493TIP3    H228971   2.375   1.600  13.459 -0.0723  1.3081 -0.1477
 2494TIP3   OH228972   4.456   2.152   5.775 -0.0367  0.7548  0.0340
 2494TIP3    H128973   4.525   2.218   5.780  0.3141  0.4415 -0.7013
 2494TIP3    H228974   4.501   2.070   5.755 -0.6989  0.7151 -1.4075
 2495TIP3   OH228975   5.425   5.391   1.679  0.2936 -0.0905  0.0536
 2495TIP3    H128976   5.440   5.303   1.645  1.2468  0.2843 -0.5388
 2495TIP3    H228977   5.349   5.382   1.737 -1.6284 -0.6821 -2.4021
 2496TIP3   OH228978   3.665   2.909   0.627 -0.4664 -0.3663  0.3172
 2496TIP3    H128979   3.629   2.865   0.704 -1.2756 -0.7709 -0.2677
 2496TIP3    H228980   3.618   2.992   0.623  1.2103  0.7045  1.5415
 2497TIP3   OH228981   4.098   1.945   1.409 -0.6829 -0.0244 -0.2181
 2497TIP3    H128982   4.052   2.021   1.376  1.1618  1.7307  1.0156
 2497TIP3    H228983   4.061   1.929   1.496 -1.1327 -0.6192 -0.5123
 2498TIP3   OH228984   6.227   0.351  14.108  0.2385 -0.1123  0.0239
 2498TIP3    H128985   6.196   0.261  14.112 -0.1551 -0.0317 -0.8559
 2498TIP3    H228986   6.315   0.344  14.070  0.5137 -0.1761  0.6533
 2499TIP3   OH228987   4.065   2.075   0.050  0.2234  0.2694 -0.3515
 2499TIP3    H128988   4.034   1.993   0.089 -0.3695  0.0964 -1.1458
 2499TIP3    H228989   3.987   2.129   0.043  0.3453  0.3703 -1.0854
 2500TIP3   OH228990   1.087   6.763   5.141 -0.7156  0.5518  0.1884
 2500TIP3    H128991   1.146   6.781   5.214 -0.2496  0.0424 -0.0537
 2500TIP3    H228992   1.061   6.849   5.109  0.6195  0.8062 -0.2706
 2501TIP3   OH228993   6.101   2.653   4.386 -0.1174 -0.1831 -0.3213
 2501TIP3    H128994   6.091   2.581   4.450 -1.8726 -1.0256 -1.4571
 2501TIP3    H228995   6.163   2.619   4.322 -0.9767 -0.7540 -0.8799
 2502TIP3   OH228996   6.325   6.599  11.364  0.2659 -0.6980  0.5536
 2502TIP3    H128997   6.233   6.582  11.344 -0.1743 -0.2428  2.0572
 2502TIP3    H228998   6.371   6.522  11.332 -0.1305  0.4558 -3.2948
 2503TIP3   OH228999   2.190   4.843  14.912 -0.0689 -0.4435 -0.1683
 2503TIP3    H129000   2.152   4.931  14.900  1.7546  0.4374  0.1261
 2503TIP3    H229001   2.233   4.824  14.828  1.5787  0.0284  0.5303
 2504TIP3   OH229002   3.896   3.420   3.426  0.1775 -0.1269 -0.2417
 2504TIP3    H129003   3.814   3.397   3.383 -0.6364  2.4654 -0.2401
 2504TIP3    H229004   3.871   3.455   3.511  1.1686  1.4475 -0.5453
 2505TIP3   OH229005   0.418   5.793  11.542 -0.0476 -0.2175  0.0592
 2505TIP3    H129006   0.360   5.812  11.616 -0.8944 -1.5039 -0.2526
 2505TIP3    H229007   0.389   5.853  11.473 -0.0605  0.1224  0.3523
 2506TIP3   OH229008   5.300   2.907   5.438 -0.1098 -0.0957 -0.3972
 2506TIP3    H129009   5.264   2.993   5.415  0.4827  0.1238 -0.5079
 2506TIP3    H229010   5.223   2.850   5.446 -0.4454  0.2436 -1.1506
 2507TIP3   OH229011   4.736   6.693  13.655 -0.0533  0.3927 -0.1158
 2507TIP3    H129012   4.775   6.768  13.611 -1.0854  1.4721  0.7386
 2507TIP3    H229013   4.764   6.702  13.747  0.2444 -0.5737 -0.0977
 2508TIP3   OH229014   2.654   5.775  12.773  0.2507 -0.1499 -0.3102
 2508TIP3    H129015   2.705   5.822  12.707 -1.0809  0.8885 -0.6298
 2508TIP3    H229016   2.594   5.840  12.809  0.2386 -0.9514  1.2139
 2509TIP3   OH229017   0.567   5.070  13.237 -0.2290 -0.0238 -0.3886
 2509TIP3    H129018   0.629   5.007  13.202 -0.3185  0.3078 -1.1599
 2509TIP3    H229019   0.498   5.017  13.277 -0.3480 -0.4255 -1.1113
 2510TIP3   OH229020   6.641   5.942   1.026 -0.1751  0.3300  0.6787
 2510TIP3    H129021   6.642   5.849   1.052  0.6147 -0.1163 -0.8053
 2510TIP3    H229022   6.605   5.942   0.938  0.1612  1.3999  0.5253
 2511TIP3   OH229023   1.133   0.453   4.422 -0.0303 -0.2413 -0.7291
 2511TIP3    H129024   1.078   0.463   4.499  0.0603  2.5092 -0.9222
 2511TIP3    H229025   1.206   0.513   4.437  0.0696  0.2365 -2.8742
 2512TIP3   OH229026   2.742   3.777  15.161  0.1662  0.0708 -0.1610
 2512TIP3    H129027   2.719   3.869  15.173  3.0131  1.0821 -1.6203
 2512TIP3    H229028   2.688   3.748  15.088  0.5073  1.1609 -0.8720
 2513TIP3   OH229029   1.419   3.264  15.284 -0.2590 -0.4688 -0.6237
 2513TIP3    H129030   1.355   3.333  15.299  1.2798  0.5463  1.9841
 2513TIP3    H229031   1.376   3.184  15.313 -0.5911  0.0912  0.4607
 2514TIP3   OH229032   0.626   1.032   3.040 -0.6941  0.0684  0.0198
 2514TIP3    H129033   0.696   1.009   3.101 -0.1435  1.6168  0.0351
 2514TIP3    H229034   0.672   1.048   2.957 -1.2140 -0.3254 -0.3441
 2515TIP3   OH229035   1.730   3.314  13.684 -0.6299  0.1983 -0.1724
 2515TIP3    H129036   1.818   3.334  13.653 -1.0542  0.2195 -1.3885
 2515TIP3    H229037   1.736   3.223  13.715  0.0641  0.5418  0.7358
 2516TIP3   OH229038   4.655   6.742  10.760 -0.2640  0.1366  0.3959
 2516TIP3    H129039   4.572   6.770  10.722 -0.2675 -0.9790 -0.4842
 2516TIP3    H229040   4.711   6.724  10.684  0.3790 -0.2649  0.9567
 2517TIP3   OH229041   0.379   1.451  16.903 -0.2887  0.0973  0.8777
 2517TIP3    H129042   0.398   1.506  16.979 -0.3575 -0.6759  1.4643
 2517TIP3    H229043   0.338   1.511  16.840 -1.5952  0.4595  2.0213
 2518TIP3   OH229044   0.750   6.584  14.691  0.0843  0.0782 -0.3141
 2518TIP3    H129045   0.842   6.603  14.708 -0.3889  0.4300  2.2394
 2518TIP3    H229046   0.731   6.508  14.746 -0.9955 -0.4908 -1.4118
 2519TIP3   OH229047   6.825   2.710  14.668 -0.0868  0.0922  0.1544
 2519TIP3    H129048   6.743   2.760  14.665 -1.3793 -1.9486 -0.3462
 2519TIP3    H229049   6.880   2.753  14.603 -0.9556  1.1954  0.1075
 2520TIP3   OH229050   2.575   3.430  12.502  0.1442  0.0810 -0.1520
 2520TIP3    H129051   2.496   3.401  12.548  0.2379 -0.6988 -0.4641
 2520TIP3    H229052   2.562   3.402  12.411  0.2202  1.0868 -0.4878
 2521TIP3   OH229053   1.369   1.307  12.839  0.0343 -0.7237  0.1028
 2521TIP3    H129054   1.313   1.270  12.906 -0.0237 -0.3387  0.2687
 2521TIP3    H229055   1.381   1.236  12.776  0.6524 -1.3041  0.8625
 2522TIP3   OH229056   5.506   1.093   3.985 -0.1381  0.2149 -0.1395
 2522TIP3    H129057   5.412   1.104   3.975  0.2388  1.5533 -3.9285
 2522TIP3    H229058   5.538   1.180   4.010  0.2619  0.2462 -0.7438
 2523TIP3   OH229059   5.266   2.682  11.521 -0.1238 -0.3844 -0.2926
 2523TIP3    H129060   5.251   2.771  11.488 -0.2432 -0.9212 -1.8041
 2523TIP3    H229061   5.347   2.688  11.571 -0.1717  0.5933 -0.3094
 2524TIP3   OH229062   2.269   0.969   1.001  0.3114  0.5134 -0.2565
 2524TIP3    H129063   2.280   1.019   1.082 -0.6621 -0.6784  0.6421
 2524TIP3    H229064   2.341   0.907   1.001  1.6039  1.9106 -1.4440
 2525TIP3   OH229065   5.116   5.109  15.059  0.0111 -0.1072  0.1790
 2525TIP3    H129066   5.046   5.082  15.000 -1.4098  1.0066  1.2673
 2525TIP3    H229067   5.168   5.031  15.073 -0.6383 -0.8100 -1.1779
 2526TIP3   OH229068   3.844   5.547   2.385  0.5220 -0.2757  0.3323
 2526TIP3    H129069   3.887   5.473   2.428  1.1529 -0.2136 -0.1731
 2526TIP3    H229070   3.909   5.617   2.388  0.6813 -0.3470 -0.9251
 2527TIP3   OH229071   2.796   0.953   5.727  0.5205  0.4143 -0.0082
 2527TIP3    H129072   2.875   0.983   5.681 -0.2846  1.1021 -0.9853
 2527TIP3    H229073   2.784   0.863   5.699 -0.7137  1.2183 -2.2901
 2528TIP3   OH229074   1.791   1.739  14.312  0.3406  0.4972 -0.3029
 2528TIP3    H129075   1.764   1.688  14.389  1.1238 -0.6330 -0.7529
 2528TIP3    H229076   1.734   1.816  14.314 -0.3000  0.0283  0.8772
 2529TIP3   OH229077   2.969   1.498   4.189 -0.5896  0.4892  0.1229
 2529TIP3    H129078   2.899   1.435   4.171  0.2437 -0.2811 -0.5123
 2529TIP3    H229079   2.945   1.538   4.272 -1.0113 -0.8661  0.6755
 2530TIP3   OH229080   1.763   3.712   3.432 -0.8996 -0.4038 -0.0976
 2530TIP3    H129081   1.836   3.709   3.493 -1.1475 -0.5497  0.1943
 2530TIP3    H229082   1.774   3.795   3.385 -1.7714  0.6518  1.4790
 2531TIP3   OH229083   6.148   4.655  14.461 -0.1246  0.6094 -0.2623
 2531TIP3    H129084   6.117   4.588  14.522  0.6749  2.9238  2.9884
 2531TIP3    H229085   6.088   4.729  14.474 -0.0996  1.1214 -2.5988
 2532TIP3   OH229086   2.628   0.001   2.911 -0.0456  0.3486 -0.1279
 2532TIP3    H129087   2.626  -0.021   2.818  0.9178 -1.0327  0.1425
 2532TIP3    H229088   2.646  -0.083   2.955 -0.5793  0.9583  1.3043
 2533TIP3   OH229089   6.626   4.801   3.163  0.2196  0.1539 -0.2295
 2533TIP3    H129090   6.668   4.838   3.086  2.3524  0.1688  0.8621
 2533TIP3    H229091   6.606   4.877   3.218 -0.4547  0.0745 -0.3609
 2534TIP3   OH229092   0.811   2.030  16.550  0.4612 -0.0984  0.0115
 2534TIP3    H129093   0.743   1.963  16.546 -0.7271  1.1112 -1.1859
 2534TIP3    H229094   0.819   2.050  16.643 -0.1027 -0.9686  0.2625
 2535TIP3   OH229095   3.790   0.958  16.810  0.3260  0.2564 -0.4335
 2535TIP3    H129096   3.842   0.993  16.738  1.3417  0.6485  0.4790
 2535TIP3    H229097   3.854   0.928  16.874 -0.5361  1.1404  0.9031
 2536TIP3   OH229098   2.878   6.331  11.688  0.1236 -0.1140 -0.4536
 2536TIP3    H129099   2.957   6.365  11.731  0.9797 -1.5121 -0.8593
 2536TIP3    H229100   2.904   6.246  11.654 -1.6224 -0.6909 -0.4469
 2537TIP3   OH229101   6.584   4.604  16.826 -0.2452  0.0381  0.2285
 2537TIP3    H129102   6.662   4.552  16.848 -1.5522 -2.6817 -1.0547
 2537TIP3    H229103   6.549   4.562  16.748 -2.4785  1.8004  0.1946
 2538TIP3   OH229104   4.817   4.413   1.945  0.9476 -0.0580  0.2752
 2538TIP3    H129105   4.773   4.345   1.894  1.7252 -0.3757  0.0024
 2538TIP3    H229106   4.892   4.368   1.984  1.2153  0.5404  0.4637
 2539TIP3   OH229107   1.077   1.407   4.113  0.2706  0.1796  0.1147
 2539TIP3    H129108   1.154   1.384   4.060  0.4500  0.5237  0.2265
 2539TIP3    H229109   1.045   1.488   4.074 -1.1166 -0.8861 -1.0915
 2540TIP3   OH229110   2.457   0.394  12.872 -0.2087  0.2085 -0.7824
 2540TIP3    H129111   2.482   0.487  12.873  1.6193 -0.2498 -0.5460
 2540TIP3    H229112   2.364   0.394  12.893  0.3130  1.8322  1.9598
 2541TIP3   OH229113   2.151   2.826   5.199  0.2539 -0.4726 -0.6561
 2541TIP3    H129114   2.203   2.841   5.278 -0.8870  0.2437 -0.0190
 2541TIP3    H229115   2.213   2.785   5.138  1.7014  0.7723 -0.1154
 2542TIP3   OH229116   6.549   1.801  15.572  0.7997 -0.0622  0.1889
 2542TIP3    H129117   6.533   1.740  15.644  0.3223  0.1615  0.2718
 2542TIP3    H229118   6.494   1.877  15.591 -0.2072 -0.4610 -1.0013
 2543TIP3   OH229119   4.667   5.722  10.769  0.4273 -0.0822  0.1836
 2543TIP3    H129120   4.745   5.737  10.822  0.0461 -0.3568  0.8372
 2543TIP3    H229121   4.603   5.685  10.830 -0.1732  0.0194 -0.3671
 2544TIP3   OH229122   1.708   5.708   4.385 -0.5693  0.2378  0.2542
 2544TIP3    H129123   1.665   5.720   4.300 -0.3318  3.3512  0.4674
 2544TIP3    H229124   1.640   5.727   4.449 -0.1099  0.4013  0.6993
 2545TIP3   OH229125   0.546   0.267  12.872  0.5181 -0.0509 -0.0078
 2545TIP3    H129126   0.575   0.346  12.916  0.4238  0.1213 -0.2526
 2545TIP3    H229127   0.624   0.235  12.826 -0.1052  1.4994 -2.3013
 2546TIP3   OH229128   0.687   1.851  12.598 -0.1741 -0.4411  0.1627
 2546TIP3    H129129   0.671   1.940  12.568 -0.8731 -0.1977  1.2092
 2546TIP3    H229130   0.772   1.855  12.643  0.4062 -0.5962 -0.8872
 2547TIP3   OH229131   5.741   0.697  16.570 -0.1478 -0.4976 -0.0140
 2547TIP3    H129132   5.736   0.761  16.499 -2.0257  0.0091  0.5242
 2547TIP3    H229133   5.652   0.663  16.578  0.3138 -1.4655  1.2674
 2548TIP3   OH229134   4.100   2.276  11.060  0.0602  0.4668  0.3882
 2548TIP3    H129135   4.126   2.228  10.981 -1.3530  1.3033 -0.6391
 2548TIP3    H229136   4.182   2.308  11.097  0.7881 -0.2963 -0.5095
 2549TIP3   OH229137   5.603   5.259  16.900  0.0923 -0.5200  0.3487
 2549TIP3    H129138   5.537   5.328  16.911  1.1801  1.2282 -2.7361
 2549TIP3    H229139   5.677   5.288  16.952  0.0211 -0.1215  0.2292
 2550TIP3   OH229140   3.232   5.056  16.421  0.0212  0.0441  0.0703
 2550TIP3    H129141   3.217   5.075  16.328  1.1247 -0.4673 -0.2207
 2550TIP3    H229142   3.219   5.140  16.465 -1.2047  0.1510 -0.4454
 2551TIP3   OH229143   2.002   4.168   5.105  0.0566  0.3780  0.0573
 2551TIP3    H129144   1.966   4.161   5.194  0.3882  0.2470  0.1841
 2551TIP3    H229145   1.941   4.224   5.059 -1.2289 -1.1888 -0.2174
 2552TIP3   OH229146   1.042   5.224  15.361 -0.0096  0.1451 -0.1030
 2552TIP3    H129147   1.013   5.305  15.401 -1.5898 -0.0251 -0.8470
 2552TIP3    H229148   1.081   5.251  15.278  0.4265  0.2185  0.1211
 2553TIP3   OH229149   5.944   2.205   2.959 -0.1757 -0.2612 -0.1622
 2553TIP3    H129150   6.025   2.218   3.009 -0.1824 -0.6077 -0.0544
 2553TIP3    H229151   5.973   2.163   2.878 -0.2370 -0.2933 -0.1675
 2554TIP3   OH229152   4.227   4.715   0.020  0.2303 -0.0309 -0.2199
 2554TIP3    H129153   4.263   4.662   0.091 -1.9470  0.3646  1.2896
 2554TIP3    H229154   4.271   4.683  -0.059  0.6318 -2.4994  0.9228
 2555TIP3   OH229155   0.585   2.705  16.457 -0.2247 -0.7524 -0.1201
 2555TIP3    H129156   0.661   2.674  16.409  0.3227 -1.2986  1.0692
 2555TIP3    H229157   0.605   2.796  16.477  0.4263 -1.0643  0.7333
 2556TIP3   OH229158   6.135   5.780   5.651  1.0967 -0.0969  0.2688
 2556TIP3    H129159   6.120   5.739   5.737  2.8034 -1.2240  0.0669
 2556TIP3    H229160   6.123   5.709   5.588 -1.6624  1.0396 -0.6354
 2557TIP3   OH229161   1.856   6.500   0.006  0.4500  0.1637 -0.5862
 2557TIP3    H129162   1.871   6.580  -0.045 -3.8045  0.5071 -1.6978
 2557TIP3    H229163   1.920   6.438  -0.028  1.4605  2.0310 -2.3751
 2558TIP3   OH229164   5.095   2.450  13.616 -0.3929 -0.1641 -0.0819
 2558TIP3    H129165   5.096   2.525  13.676  0.0927  0.2940 -0.6607
 2558TIP3    H229166   5.147   2.478  13.541 -0.4106 -0.9973 -0.4107
 2559TIP3   OH229167   1.814   6.491  14.978  0.4794  0.8567 -0.0743
 2559TIP3    H129168   1.728   6.532  14.986  0.4240  0.9273 -0.9271
 2559TIP3    H229169   1.863   6.549  14.919  0.6275  0.0656 -0.7387
 2560TIP3   OH229170   2.764   0.271  13.360  0.0191 -0.3841  0.4492
 2560TIP3    H129171   2.765   0.313  13.445  3.0088 -1.1025  0.8740
 2560TIP3    H229172   2.693   0.207  13.365 -0.9693  0.7770  1.7352
 2561TIP3   OH229173   4.735   3.821   2.759 -0.4345  0.4102  0.1452
 2561TIP3    H129174   4.677   3.867   2.699 -0.3208  0.6929  0.2501
 2561TIP3    H229175   4.678   3.759   2.805 -0.5120  0.1517 -0.2901
 2562TIP3   OH229176   1.223   1.158  13.010 -0.3522 -0.2825  0.3761
 2562TIP3    H129177   1.174   1.093  12.959 -0.2549 -1.2084  1.4189
 2562TIP3    H229178   1.178   1.161  13.094  0.2039  0.3327  0.6549
 2563TIP3   OH229179   3.863   6.003  13.445  0.1640 -0.4513  0.1823
 2563TIP3    H129180   3.807   5.926  13.454  1.3500 -1.4032 -0.3044
 2563TIP3    H229181   3.826   6.067  13.507 -0.3244 -1.7112  1.2459
 2564TIP3   OH229182   0.550   5.180   0.284  0.5387 -0.5854  0.1930
 2564TIP3    H129183   0.597   5.115   0.335  0.7187 -0.3538  0.3273
 2564TIP3    H229184   0.568   5.263   0.329  0.1450 -0.4716  0.1454
 2565TIP3   OH229185   1.939   5.233   5.298  0.1211  0.7610 -0.0403
 2565TIP3    H129186   2.016   5.186   5.269  0.5432  2.0284 -1.0889
 2565TIP3    H229187   1.867   5.195   5.248  0.4186  1.0340 -0.6877
 2566TIP3   OH229188   2.011   4.067  12.669  0.6542 -0.6078  0.0320
 2566TIP3    H129189   2.060   3.992  12.705 -1.5894 -2.5608 -0.7047
 2566TIP3    H229190   2.049   4.081  12.582  1.5658 -0.3616  0.4501
 2567TIP3   OH229191   4.688   0.458  14.037 -0.1925 -0.4029  0.3716
 2567TIP3    H129192   4.752   0.473  14.107 -0.4633  1.8319  0.2368
 2567TIP3    H229193   4.609   0.430  14.083 -0.8388  2.5054  1.2533
 2568TIP3   OH229194   6.290   0.477   0.245 -0.2902  0.6119 -0.1923
 2568TIP3    H129195   6.308   0.460   0.152  0.6455 -1.1126  0.2607
 2568TIP3    H229196   6.286   0.573   0.251  0.6550  0.8018 -1.8431
 2569TIP3   OH229197   2.186   4.892   2.852 -0.1241 -0.0241 -0.1085
 2569TIP3    H129198   2.127   4.905   2.778 -1.6059 -1.3920  0.7581
 2569TIP3    H229199   2.271   4.921   2.820 -0.9707  0.6637 -1.8961
 2570TIP3   OH229200   6.663   5.974   3.049 -0.1130 -0.7582  0.9112
 2570TIP3    H129201   6.576   5.952   3.082 -1.0062 -0.5355 -1.1685
 2570TIP3    H229202   6.674   6.067   3.072 -0.6202 -0.6586  0.7590
 2571TIP3   OH229203   4.582   6.454   6.012  0.6589 -0.5383  0.3889
 2571TIP3    H129204   4.508   6.515   6.011  1.1353  0.0541 -0.3115
 2571TIP3    H229205   4.629   6.474   6.093  0.9025  0.1622  0.0856
 2572TIP3   OH229206   6.194   1.943  12.491  0.0185  0.1505 -0.2802
 2572TIP3    H129207   6.189   1.910  12.402  0.1130 -0.9281  0.1087
 2572TIP3    H229208   6.173   2.036  12.483 -2.1705 -0.3568 -1.1594
 2573TIP3   OH229209   6.781   6.608   0.832  0.0854  0.1578  0.1500
 2573TIP3    H129210   6.825   6.690   0.853  0.2336  0.1457 -0.1063
 2573TIP3    H229211   6.800   6.551   0.907 -0.4416  0.5188  0.5582
 2574TIP3   OH229212   3.779   5.134  13.127  0.1418 -0.0898  0.4855
 2574TIP3    H129213   3.706   5.073  13.118  0.4079 -1.3561  4.6689
 2574TIP3    H229214   3.852   5.092  13.083 -0.9046 -0.1855 -1.2393
 2575TIP3   OH229215   6.426   4.124   1.311  0.7340 -0.2495 -0.4794
 2575TIP3    H129216   6.335   4.096   1.302  0.5037  0.4160 -0.3326
 2575TIP3    H229217   6.445   4.116   1.404  0.4246  0.7620 -0.3162
 2576TIP3   OH229218   2.696   5.709  16.494 -0.3257 -0.6532  0.3228
 2576TIP3    H129219   2.626   5.699  16.559  1.8543 -1.6585  2.6703
 2576TIP3    H229220   2.721   5.801  16.501 -1.8833 -0.0663 -1.1432
 2577TIP3   OH229221   4.079   6.482  17.049  0.0778 -0.7900 -0.2674
 2577TIP3    H129222   4.099   6.509  16.959  0.1773  1.7733  0.4222
 2577TIP3    H229223   4.027   6.555  17.084 -0.4769 -1.9984  1.5761
 2578TIP3   OH229224   5.511   5.402   3.827 -0.2874 -1.1806 -0.2093
 2578TIP3    H129225   5.487   5.405   3.920 -0.8539 -1.3198 -0.3498
 2578TIP3    H229226   5.452   5.338   3.789 -1.5535  0.4285 -1.0994
 2579TIP3   OH229227   4.540   0.284  11.301  0.3398  0.3628 -0.5838
 2579TIP3    H129228   4.619   0.237  11.273 -0.3835 -0.7562 -0.8163
 2579TIP3    H229229   4.507   0.324  11.221  0.0623 -0.1068 -0.7069
 2580TIP3   OH229230   3.031   2.162  13.052  0.0639 -0.1053 -0.3967
 2580TIP3    H129231   3.123   2.164  13.078 -0.2159 -0.9729  0.7126
 2580TIP3    H229232   2.999   2.250  13.073  1.0957  0.9284 -2.7175
 2581TIP3   OH229233   6.527   1.624  11.328 -0.3065  0.6450 -0.0140
 2581TIP3    H129234   6.514   1.529  11.326 -0.5952  0.6930 -1.0898
 2581TIP3    H229235   6.438   1.660  11.333 -0.2818  0.8680 -0.9507
 2582TIP3   OH229236   6.062   1.663  14.481  0.2394  0.1412 -0.2738
 2582TIP3    H129237   6.071   1.698  14.392  1.2140  2.2366  0.5823
 2582TIP3    H229238   5.971   1.633  14.485 -0.3178  1.5502 -1.4706
 2583TIP3   OH229239   0.780   4.551  13.379 -0.5654  0.4668 -0.2628
 2583TIP3    H129240   0.780   4.551  13.475  0.1745 -0.1013 -0.2599
 2583TIP3    H229241   0.872   4.552  13.355 -0.7349 -0.2929 -0.9662
 2584TIP3   OH229242   4.793   4.779  14.890 -0.2421  0.0682 -0.1763
 2584TIP3    H129243   4.813   4.871  14.911 -1.2897  0.1312  0.6646
 2584TIP3    H229244   4.805   4.733  14.973 -0.2071 -0.4722 -0.4781
 2585TIP3   OH229245   1.047   0.337   3.959  0.0681 -0.4847  0.0905
 2585TIP3    H129246   1.050   0.395   4.035 -0.5173 -0.7164  0.2949
 2585TIP3    H229247   1.051   0.396   3.884 -0.4587 -0.1790  0.2967
 2586TIP3   OH229248   3.507   0.043   5.729 -0.2016 -0.0453 -0.3193
 2586TIP3    H129249   3.448   0.118   5.727  0.5582  0.6235 -2.7820
 2586TIP3    H229250   3.591   0.079   5.759 -0.7369 -0.8005  2.2936
 2587TIP3   OH229251   4.850   0.896   0.788 -0.2500  0.0130 -0.2792
 2587TIP3    H129252   4.780   0.925   0.847 -0.0118 -1.4163  0.7657
 2587TIP3    H229253   4.887   0.976   0.753 -0.9930  0.8776  0.8344
 2588TIP3   OH229254   2.401   5.154  14.691 -0.3972 -0.2286 -0.6792
 2588TIP3    H129255   2.371   5.115  14.773 -2.4733  1.0600 -0.7458
 2588TIP3    H229256   2.494   5.170  14.705 -0.8984  0.9441  1.9004
 2589TIP3   OH229257   2.828   5.253   5.878 -0.2482 -0.2085 -0.2403
 2589TIP3    H129258   2.884   5.177   5.883 -0.1970 -0.1939 -0.6141
 2589TIP3    H229259   2.877   5.323   5.921  0.2949 -0.0295 -1.1273
 2590TIP3   OH229260   2.230   0.148   4.856  0.2263  0.0659 -0.3168
 2590TIP3    H129261   2.227   0.132   4.951  2.0431 -0.0749 -0.2355
 2590TIP3    H229262   2.254   0.241   4.849  0.3013  0.0217 -0.6335
 2591TIP3   OH229263   3.039   2.534  12.696  0.0407  0.1802 -0.0728
 2591TIP3    H129264   3.036   2.442  12.667  0.0165  0.4684 -1.0114
 2591TIP3    H229265   2.971   2.540  12.762 -0.4068 -0.3194 -0.4802
 2592TIP3   OH229266   3.213   4.134  14.139  0.7334  0.4315  0.3092
 2592TIP3    H129267   3.145   4.066  14.139  0.5728  0.5624 -0.9825
 2592TIP3    H229268   3.196   4.184  14.059  0.4931  2.3587  1.4903
 2593TIP3   OH229269   0.699   1.990   1.381  0.7084 -0.0062 -0.3148
 2593TIP3    H129270   0.719   2.012   1.472 -0.7737 -0.3854  0.1252
 2593TIP3    H229271   0.666   2.072   1.343 -2.1270 -0.6522  0.5420
 2594TIP3   OH229272   2.500   0.259   1.521 -0.2592  0.0732  0.1618
 2594TIP3    H129273   2.512   0.195   1.592 -2.8183  1.6489  2.2100
 2594TIP3    H229274   2.458   0.334   1.563  0.4762  2.2139 -2.5854
 2595TIP3   OH229275   0.863   6.557   1.603 -0.3796 -0.0050  0.4055
 2595TIP3    H129276   0.888   6.509   1.524 -0.7830 -1.0512  0.8895
 2595TIP3    H229277   0.919   6.521   1.672  0.2727  1.1993  0.5294
 2596TIP3   OH229278   4.047   1.501  15.755 -0.1640  0.4351 -0.2988
 2596TIP3    H129279   4.063   1.578  15.702  0.3838  2.0695  2.0832
 2596TIP3    H229280   4.125   1.493  15.810 -1.4356 -0.0339  1.5414
 2597TIP3   OH229281   3.231   3.384   5.165  0.8048  0.3892  0.5074
 2597TIP3    H129282   3.143   3.361   5.194  0.0975  0.5978 -1.3457
 2597TIP3    H229283   3.285   3.310   5.193 -0.5798 -1.3716 -1.1777
 2598TIP3   OH229284   0.747   1.547  15.618  0.1316  0.1133 -0.5750
 2598TIP3    H129285   0.798   1.512  15.691 -0.1967 -1.6708 -1.1577
 2598TIP3    H229286   0.811   1.564  15.550  0.1366 -0.6459 -0.7616
 2599TIP3   OH229287   0.094   3.210  16.857 -0.0385 -0.7953  0.1162
 2599TIP3    H129288   0.055   3.297  16.848  0.6585 -0.3565  1.0894
 2599TIP3    H229289   0.073   3.184  16.947  2.0099 -0.4762  0.7221
 2600TIP3   OH229290   0.434   1.386  13.234 -0.6684 -0.5197  0.4065
 2600TIP3    H129291   0.472   1.440  13.304 -0.4979 -0.6660  0.4282
 2600TIP3    H229292   0.470   1.298  13.249  0.7476 -0.2030 -0.8851
 2601TIP3   OH229293   3.112   3.525  12.241  0.2294 -0.2245  0.0378
 2601TIP3    H129294   3.035   3.511  12.296  0.7327  0.2433  0.8861
 2601TIP3    H229295   3.085   3.592  12.179 -0.1154 -0.2026  0.2098
 2602TIP3   OH229296   4.438   0.830  14.642 -0.4149  0.2214 -0.1519
 2602TIP3    H129297   4.355   0.789  14.665  1.0056 -2.2007  1.1334
 2602TIP3    H229298   4.415   0.899  14.580 -3.0560 -2.4813 -2.4775
 2603TIP3   OH229299   2.271   4.848  16.667  0.0356 -0.0771  0.1229
 2603TIP3    H129300   2.189   4.819  16.707 -0.6970  0.2484 -1.1025
 2603TIP3    H229301   2.302   4.918  16.724 -0.5968 -0.1270  0.5413
 2604TIP3   OH229302   0.310   2.826  14.234 -0.4088 -0.3784  0.6744
 2604TIP3    H129303   0.312   2.825  14.138 -0.6943  2.0249  0.5816
 2604TIP3    H229304   0.272   2.910  14.256  0.2900 -0.5904  2.9257
 2605TIP3   OH229305   5.870   5.839  16.855  0.0894  0.2978 -0.6932
 2605TIP3    H129306   5.904   5.758  16.894 -1.7756 -0.9143 -1.4528
 2605TIP3    H229307   5.943   5.901  16.862  0.8322 -0.7422  1.9657
 2606TIP3   OH229308   2.405   2.283  14.360 -0.6862 -0.3876  0.2623
 2606TIP3    H129309   2.464   2.342  14.407  0.5596 -1.2926 -0.1011
 2606TIP3    H229310   2.439   2.281  14.271  1.6834 -4.4332  1.0119
 2607TIP3   OH229311   1.285   5.106  13.414  0.6258 -0.4410  0.2389
 2607TIP3    H129312   1.355   5.167  13.389 -0.3686  0.0067 -1.6615
 2607TIP3    H229313   1.231   5.156  13.474 -1.2332  1.4256 -2.6900
 2608TIP3   OH229314   1.437   4.387   4.926  0.0515  0.2457 -0.4306
 2608TIP3    H129315   1.488   4.465   4.950 -0.3457  0.3087  0.2346
 2608TIP3    H229316   1.495   4.337   4.869  0.9444  0.2103  0.4893
 2609TIP3   OH229317   0.669   5.945   4.463  0.6479 -0.3704  0.5431
 2609TIP3    H129318   0.588   5.955   4.512 -0.8542 -4.7000 -0.6357
 2609TIP3    H229319   0.646   5.966   4.373  0.4575 -2.5472  0.0328
 2610TIP3   OH229320   6.765   5.782  15.080 -0.0545 -0.4039  0.2413
 2610TIP3    H129321   6.670   5.782  15.087 -0.0429  0.3688  0.5515
 2610TIP3    H229322   6.794   5.836  15.154  0.6332 -0.8156  0.2824
 2611TIP3   OH229323   3.966   0.755  13.158 -0.1571  0.2506  0.1868
 2611TIP3    H129324   4.028   0.721  13.094 -1.6794 -1.1395 -0.6616
 2611TIP3    H229325   3.901   0.685  13.168 -1.5524  1.5840  1.0662
 2612TIP3   OH229326   2.216   5.909  14.379  0.4790  0.3978  1.0976
 2612TIP3    H129327   2.269   5.922  14.300  0.3590 -0.0570  0.9442
 2612TIP3    H229328   2.179   5.822  14.370  0.6651  0.2399  1.7779
 2613TIP3   OH229329   5.831   1.175  14.257  0.4240  0.7186  0.4650
 2613TIP3    H129330   5.761   1.237  14.275 -0.6394  0.1803 -1.5189
 2613TIP3    H229331   5.817   1.104  14.320 -0.6563  0.7545  0.2818
 2614TIP3   OH229332   3.824   1.656   6.047 -0.0008  0.0232 -0.3585
 2614TIP3    H129333   3.865   1.573   6.074 -0.2491  0.0304  0.0614
 2614TIP3    H229334   3.769   1.632   5.973  0.9492  0.0621 -1.0961
 2615TIP3   OH229335   0.051   1.177  15.222 -0.0876 -0.3479 -0.2524
 2615TIP3    H129336  -0.017   1.227  15.269  0.5875 -0.1695  0.5531
 2615TIP3    H229337   0.091   1.122  15.290  2.1511  1.2425 -0.1710
 2616TIP3   OH229338   5.161   2.828  14.623  0.1547 -0.1936 -0.1375
 2616TIP3    H129339   5.220   2.787  14.686 -0.3100 -1.6687 -0.6137
 2616TIP3    H229340   5.110   2.890  14.675  0.8064 -0.2966  0.6460
 2617TIP3   OH229341   1.522   4.397   1.838 -0.0088  0.0763  0.5337
 2617TIP3    H129342   1.458   4.463   1.813 -2.3544 -2.6139 -1.1864
 2617TIP3    H229343   1.592   4.406   1.773 -0.1486  1.0049  0.4916
 2618TIP3   OH229344   3.542   1.727   0.373 -0.1029  0.4917 -0.0454
 2618TIP3    H129345   3.513   1.759   0.458 -3.1970  1.1956 -1.2283
 2618TIP3    H229346   3.587   1.802   0.334 -0.3893  0.8054  0.2193
 2619TIP3   OH229347   4.262   5.533   5.116  0.3014 -0.4762 -0.6518
 2619TIP3    H129348   4.182   5.584   5.127 -1.2640 -2.6834 -1.1080
 2619TIP3    H229349   4.262   5.472   5.190  2.2562  0.2403  0.0278
 2620TIP3   OH229350   3.944   2.300  13.657  0.0853  0.0507  0.3123
 2620TIP3    H129351   3.901   2.294  13.742 -1.9407 -0.1649 -0.6612
 2620TIP3    H229352   3.945   2.211  13.623  2.3315 -0.1300  0.7357
 2621TIP3   OH229353   5.365   3.273   2.766 -0.2313 -0.1248  0.1013
 2621TIP3    H129354   5.321   3.194   2.796 -0.3727 -0.1973 -0.2831
 2621TIP3    H229355   5.457   3.249   2.760 -0.4559 -0.7518 -1.4962
 2622TIP3   OH229356   5.605   5.416   5.789 -0.0731  0.0475 -0.3441
 2622TIP3    H129357   5.657   5.387   5.713  0.4355  0.0049  0.0122
 2622TIP3    H229358   5.602   5.339   5.846 -0.3279  0.1260 -0.2503
 2623TIP3   OH229359   0.548   1.141   1.618  0.0504 -0.3114  0.0669
 2623TIP3    H129360   0.508   1.090   1.688  0.2602  1.4281  1.5034
 2623TIP3    H229361   0.481   1.143   1.549 -0.4365 -1.4250  0.4767
 2624TIP3   OH229362   3.772   6.372  10.909 -0.4285  0.2525 -0.1826
 2624TIP3    H129363   3.796   6.286  10.945  1.0094  0.4441 -0.6378
 2624TIP3    H229364   3.743   6.422  10.986 -2.4590 -0.9935 -0.0836
 2625TIP3   OH229365   5.858   0.302  16.439  0.3792 -0.4203 -0.0993
 2625TIP3    H129366   5.929   0.247  16.473  0.8314  0.6542  0.7386
 2625TIP3    H229367   5.885   0.391  16.458 -1.0671  0.0299 -0.0392
 2626TIP3   OH229368   5.551   2.989  13.381 -0.6506  0.0429 -0.2617
 2626TIP3    H129369   5.611   2.943  13.323 -0.3122  0.0836  0.0490
 2626TIP3    H229370   5.530   3.070  13.334 -0.6401 -0.0793 -0.4743
 2627TIP3   OH229371   3.518   2.463   3.769 -0.1254  0.3753  0.0489
 2627TIP3    H129372   3.533   2.369   3.762 -1.8086 -0.0236  1.1510
 2627TIP3    H229373   3.520   2.481   3.863 -2.5361  0.8940  0.0674
 2628TIP3   OH229374   2.046   5.831  11.590 -0.4062  0.3839  0.1510
 2628TIP3    H129375   1.954   5.857  11.584  0.1089  2.4303  0.2457
 2628TIP3    H229376   2.076   5.867  11.673  1.1592  2.3036 -1.1296
 2629TIP3   OH229377   0.174   4.589   1.243  0.8774  0.1472  0.1174
 2629TIP3    H129378   0.223   4.666   1.269 -0.4047  1.2526 -0.6112
 2629TIP3    H229379   0.108   4.577   1.311  0.5872  0.1529 -0.1597
 2630TIP3   OH229380   2.298   2.572  10.791  0.2058 -0.4724  0.0608
 2630TIP3    H129381   2.287   2.666  10.778  0.9395 -0.3985 -0.0983
 2630TIP3    H229382   2.389   2.563  10.822  0.5610 -1.2322 -1.1417
 2631TIP3   OH229383   1.257   1.627  17.025 -0.2357  0.7350  0.4881
 2631TIP3    H129384   1.294   1.668  16.946 -0.4508  1.6764  0.8601
 2631TIP3    H229385   1.167   1.605  17.001  0.4981 -1.5393 -0.4145
 2632TIP3   OH229386   5.068   6.652   5.217 -0.0217 -0.5685 -0.0943
 2632TIP3    H129387   4.979   6.648   5.254 -1.2286  0.4145 -2.6427
 2632TIP3    H229388   5.071   6.736   5.172  2.1604 -0.6993 -0.2820
 2633TIP3   OH229389   4.532   6.361  15.298 -0.0641 -0.0359  0.4072
 2633TIP3    H129390   4.522   6.412  15.378 -0.7303  0.6659 -0.1076
 2633TIP3    H229391   4.617   6.387  15.263 -0.3227  0.6100  0.2401
 2634TIP3   OH229392   3.001   5.907   6.612  0.1189 -0.6380 -0.5399
 2634TIP3    H129393   3.038   5.961   6.681 -1.2812  0.0533 -0.2926
 2634TIP3    H229394   3.008   5.960   6.533  2.3092 -1.6756 -1.1301
 2635TIP3   OH229395   0.585   1.821   0.315 -0.5902  0.0232  0.0333
 2635TIP3    H129396   0.673   1.840   0.348 -0.7438  0.7639  0.0274
 2635TIP3    H229397   0.599   1.762   0.241 -0.1372 -0.2841  0.3561
 2636TIP3   OH229398   5.208   1.469  11.708  0.1262  0.2441 -0.2891
 2636TIP3    H129399   5.239   1.522  11.635 -1.1097  0.5580 -0.6073
 2636TIP3    H229400   5.235   1.379  11.685  1.0513  0.5335 -0.3893
 2637TIP3   OH229401   4.807   0.454   5.558  0.5017 -0.0281  0.8224
 2637TIP3    H129402   4.853   0.502   5.627 -0.7367  0.8059  1.1050
 2637TIP3    H229403   4.851   0.480   5.477  1.3456 -0.2569  1.2022
 2638TIP3   OH229404   6.131   0.138  14.930 -0.0706 -0.1875  0.3141
 2638TIP3    H129405   6.222   0.165  14.920  0.0264 -0.5495  0.2035
 2638TIP3    H229406   6.084   0.188  14.864  0.0758 -0.1402  0.2455
 2639TIP3   OH229407   1.111   0.291  14.829  0.1095 -0.0126 -0.4559
 2639TIP3    H129408   1.111   0.210  14.777  1.1233  1.0361 -2.1766
 2639TIP3    H229409   1.130   0.360  14.766  0.4974  1.4463  1.1889
 2640TIP3   OH229410   3.042   2.454   1.290 -0.2144 -0.8194 -0.1656
 2640TIP3    H129411   3.010   2.447   1.380 -0.4616  1.2716 -0.0467
 2640TIP3    H229412   3.047   2.548   1.273  0.4775 -1.1567 -2.1205
 2641TIP3   OH229413   6.512   5.082   4.212 -0.2054 -0.2287 -0.0734
 2641TIP3    H129414   6.425   5.093   4.251 -0.0490  0.3458  0.1220
 2641TIP3    H229415   6.501   5.011   4.149 -1.6196  1.8482 -2.3519
 2642TIP3   OH229416   1.026   6.066   0.076 -0.1418 -0.3608 -0.2825
 2642TIP3    H129417   1.081   5.994   0.046  0.4900  0.4420 -1.0776
 2642TIP3    H229418   0.942   6.024   0.097  0.2126 -1.3265 -0.7351
 2643TIP3   OH229419   5.667   1.608   5.515 -0.4797 -0.4281  0.1879
 2643TIP3    H129420   5.584   1.616   5.563 -0.4692  0.4233  0.0889
 2643TIP3    H229421   5.734   1.637   5.578 -0.4100  0.1846 -0.1530
 2644TIP3   OH229422   4.705   0.324  15.820  0.5806  0.4161  0.3406
 2644TIP3    H129423   4.706   0.251  15.882  2.4299  0.5933  0.5763
 2644TIP3    H229424   4.640   0.385  15.855  1.9672  0.7746  2.4875
 2645TIP3   OH229425   0.361   0.421  15.890 -0.6133 -0.2563 -0.8722
 2645TIP3    H129426   0.384   0.446  15.979 -0.0652 -1.4035 -0.6754
 2645TIP3    H229427   0.370   0.326  15.888  2.1821 -0.1167 -2.8730
 2646TIP3   OH229428   5.457   5.917  11.381  0.3749  0.0088 -0.3012
 2646TIP3    H129429   5.498   5.985  11.327 -1.0097 -0.5739 -2.1906
 2646TIP3    H229430   5.363   5.931  11.370  0.0498 -0.7792  1.1885
 2647TIP3   OH229431   6.348   2.773  10.840 -0.2432 -0.5942 -0.1829
 2647TIP3    H129432   6.338   2.844  10.777 -0.6030  1.3358  1.9317
 2647TIP3    H229433   6.259   2.741  10.853 -0.3424 -0.1436  0.2637
 2648TIP3   OH229434   1.394   3.698   0.126  0.1576 -0.2738 -0.1959
 2648TIP3    H129435   1.444   3.675   0.048 -0.4390 -0.2564 -0.5913
 2648TIP3    H229436   1.345   3.619   0.147 -0.3242 -0.0164 -0.3370
 2649TIP3   OH229437   1.814   0.642  12.683  0.3749 -0.2832  0.5081
 2649TIP3    H129438   1.777   0.731  12.681  0.8110 -0.1114  0.0301
 2649TIP3    H229439   1.858   0.636  12.768  0.7061  0.1030  0.3634
 2650TIP3   OH229440   1.344   3.763   0.892  0.1945  0.2030 -0.1759
 2650TIP3    H129441   1.397   3.683   0.890  0.7861  0.2305  4.0197
 2650TIP3    H229442   1.255   3.732   0.909  0.4407  0.3435  1.5561
 2651TIP3   OH229443   0.039   6.719   3.282  0.0635 -0.5035 -0.1331
 2651TIP3    H129444  -0.046   6.757   3.261  0.4512 -0.6428 -2.2513
 2651TIP3    H229445   0.023   6.625   3.288  0.2677 -0.7308 -2.2102
 2652TIP3   OH229446   4.942   2.399  14.997 -0.5280 -0.0734  0.0850
 2652TIP3    H129447   4.979   2.312  14.984  2.6019  1.0522  0.5562
 2652TIP3    H229448   5.011   2.449  15.040 -1.9143  2.8831 -0.7792
 2653TIP3   OH229449   0.274   6.007   6.524  0.3794  0.2321 -0.3576
 2653TIP3    H129450   0.263   6.040   6.435 -0.0658 -0.8244 -0.7081
 2653TIP3    H229451   0.347   6.058   6.559  0.4116  0.8241 -1.2376
 2654TIP3   OH229452   3.798   3.689  12.886 -0.9035 -0.4277 -0.1665
 2654TIP3    H129453   3.782   3.783  12.892  0.3311 -0.1875 -0.3242
 2654TIP3    H229454   3.725   3.649  12.933 -1.3955  0.6091 -0.0142
 2655TIP3   OH229455   2.231   0.093   4.398 -0.0162  0.1019  0.6573
 2655TIP3    H129456   2.213   0.007   4.436  0.8397 -0.6912 -0.6392
 2655TIP3    H229457   2.201   0.086   4.308 -0.8012  1.5082  0.7716
 2656TIP3   OH229458   2.788   5.221  16.498  0.1949 -0.0129  0.5645
 2656TIP3    H129459   2.865   5.235  16.442  0.7422 -3.6733  0.1400
 2656TIP3    H229460   2.783   5.299  16.552  2.4702  1.6340 -1.3824
 2657TIP3   OH229461   2.612   2.580  11.975 -0.9456  0.2266 -0.0458
 2657TIP3    H129462   2.584   2.553  11.888  0.5707 -1.0633 -0.1704
 2657TIP3    H229463   2.681   2.519  11.998  0.4602  2.1220  1.0123
 2658TIP3   OH229464   2.986   5.921   1.124 -0.3900  0.7794  0.0079
 2658TIP3    H129465   2.984   5.862   1.050 -0.0793  0.2598  0.4100
 2658TIP3    H229466   2.940   5.874   1.194  1.6649  0.1150  0.9781
 2659TIP3   OH229467   6.177   1.017   3.347  0.1031 -0.4691 -0.5177
 2659TIP3    H129468   6.159   1.103   3.386 -0.1196 -0.2659 -1.0521
 2659TIP3    H229469   6.214   1.038   3.261 -0.1789 -0.9121 -0.7489
 2660TIP3   OH229470   3.809   6.771  11.235 -0.2380 -0.3147  0.1859
 2660TIP3    H129471   3.900   6.751  11.212 -0.5179  0.0726 -1.3908
 2660TIP3    H229472   3.761   6.692  11.213 -0.2068 -0.8185  1.7859
 2661TIP3   OH229473   2.669   3.386  12.849  0.6763  0.0837 -0.3011
 2661TIP3    H129474   2.720   3.306  12.842  0.2194 -0.2847  0.4351
 2661TIP3    H229475   2.580   3.360  12.823  0.6254  0.4637 -0.5149
 2662TIP3   OH229476   6.490   4.008  11.640  0.4405  0.1468 -0.3270
 2662TIP3    H129477   6.511   3.949  11.567 -1.3093  1.2262 -1.7753
 2662TIP3    H229478   6.404   3.978  11.671  1.3493 -0.5880  1.6743
 2663TIP3   OH229479   6.622   6.615  10.876  0.2692  0.1222 -0.1611
 2663TIP3    H129480   6.566   6.544  10.907  0.1011 -1.2356 -3.1574
 2663TIP3    H229481   6.568   6.661  10.811  2.0091 -0.2611 -1.9865
 2664TIP3   OH229482   0.234   4.134   5.261 -0.2501  0.2267 -0.2163
 2664TIP3    H129483   0.161   4.096   5.212  0.4001 -0.5345 -0.6122
 2664TIP3    H229484   0.203   4.136   5.352 -1.1437  0.8715 -0.5198
 2665TIP3   OH229485   0.875   5.091   4.040  0.5143 -0.2319 -0.2784
 2665TIP3    H129486   0.813   5.025   4.009  2.7902 -1.5508 -2.4723
 2665TIP3    H229487   0.911   5.055   4.121  1.8409 -1.8902 -1.5256
 2666TIP3   OH229488   1.091   5.633  16.340 -0.0582  0.0352  0.4122
 2666TIP3    H129489   0.998   5.653  16.349 -0.8455 -1.7321 -2.3675
 2666TIP3    H229490   1.097   5.539  16.355  1.5978  0.3589  2.0921
 2667TIP3   OH229491   3.823   0.400   4.986 -0.1092 -0.4563  0.4086
 2667TIP3    H129492   3.853   0.386   4.896 -0.9169  1.2073 -0.1678
 2667TIP3    H229493   3.901   0.430   5.033 -0.2022  1.1382 -0.3931
 2668TIP3   OH229494   2.508   4.771   2.410  0.5573 -0.0293 -0.6727
 2668TIP3    H129495   2.413   4.771   2.397  0.0306  2.7033  1.9259
 2668TIP3    H229496   2.536   4.857   2.380  2.0972 -0.5093 -0.6830
 2669TIP3   OH229497   2.732   4.003  16.607 -0.0055  0.4022  0.0210
 2669TIP3    H129498   2.714   4.049  16.689  1.8786  1.0076  0.1389
 2669TIP3    H229499   2.827   4.008  16.596 -0.0359 -1.0945 -1.3816
 2670TIP3   OH229500   5.192   5.233   4.853  0.1425 -0.0229  0.3770
 2670TIP3    H129501   5.188   5.231   4.758 -0.1520 -0.6418  0.3970
 2670TIP3    H229502   5.283   5.253   4.873 -0.1326  1.7844 -0.0358
 2671TIP3   OH229503   1.572   4.473  16.098 -0.0765  0.1358 -0.1908
 2671TIP3    H129504   1.551   4.562  16.068 -0.3838  0.4255  0.8468
 2671TIP3    H229505   1.546   4.417  16.025  0.2412  0.8997 -0.9179
 2672TIP3   OH229506   5.533   5.164   4.795 -0.7586  0.4416 -0.3434
 2672TIP3    H129507   5.470   5.104   4.755 -0.3349  0.8378 -1.6602
 2672TIP3    H229508   5.591   5.107   4.846 -1.6262 -0.0239  0.1372
 2673TIP3   OH229509   1.127   4.240   4.423  0.0819 -0.3921  0.1560
 2673TIP3    H129510   1.159   4.284   4.502 -0.9174 -1.1660  1.0064
 2673TIP3    H229511   1.036   4.269   4.415  1.1025  2.7296 -2.8875
 2674TIP3   OH229512   0.249   0.549  14.535 -0.3138 -0.4146  0.2112
 2674TIP3    H129513   0.324   0.551  14.594 -0.7543  3.9276  0.9389
 2674TIP3    H229514   0.287   0.537  14.448  0.9202 -1.0454  0.8166
 2675TIP3   OH229515   3.025   3.835   3.089 -0.2042  0.2994 -0.0236
 2675TIP3    H129516   2.950   3.860   3.035 -1.7470  1.0799  2.3260
 2675TIP3    H229517   3.097   3.829   3.027 -1.8902  0.9095 -2.1967
 2676TIP3   OH229518   0.444   4.159   3.154  0.1289 -0.1123 -0.1393
 2676TIP3    H129519   0.459   4.254   3.152  2.0891 -0.3040  1.4768
 2676TIP3    H229520   0.436   4.138   3.247  0.3792 -1.6082 -0.4232
 2677TIP3   OH229521   4.202   4.828  13.427  0.1016  0.0004 -0.9055
 2677TIP3    H129522   4.261   4.779  13.485 -1.0423 -1.5921 -1.0116
 2677TIP3    H229523   4.208   4.918  13.457  1.5527 -0.3500 -0.0446
 2678TIP3   OH229524   5.199   1.061   1.444 -0.5995 -0.0913  0.4112
 2678TIP3    H129525   5.107   1.080   1.429 -0.2920  0.7715 -0.4588
 2678TIP3    H229526   5.238   1.063   1.356  0.1923 -0.7381  0.7410
 2679TIP3   OH229527   5.891   5.034  11.672 -0.4613 -0.0585 -0.3532
 2679TIP3    H129528   5.861   4.993  11.753  0.0862 -0.1587 -0.1994
 2679TIP3    H229529   5.887   4.964  11.607  1.0112 -0.5293  0.0308
 2680TIP3   OH229530   2.495   1.068   6.701  0.3953 -0.4681  0.6076
 2680TIP3    H129531   2.513   1.145   6.756  3.6545  1.8044 -3.1113
 2680TIP3    H229532   2.549   0.999   6.738  1.9517  0.7856  0.7849
 2681TIP3   OH229533   1.516   0.962   2.969  0.4631  0.2017  0.1385
 2681TIP3    H129534   1.534   0.925   3.056 -0.1303  0.0872  0.2130
 2681TIP3    H229535   1.502   1.056   2.985  2.1513  0.5336 -0.0725
 2682TIP3   OH229536   3.233   1.446  11.866  1.0997 -0.0241  0.2773
 2682TIP3    H129537   3.185   1.379  11.916  0.3163  0.3294  0.0109
 2682TIP3    H229538   3.181   1.525  11.876  1.6630  0.3821  0.0210
 2683TIP3   OH229539   2.391   2.880   3.929 -0.0043 -0.1128 -0.0482
 2683TIP3    H129540   2.329   2.947   3.959  0.9421  0.0561  1.6844
 2683TIP3    H229541   2.438   2.855   4.008 -0.1660 -2.6954 -0.6860
 2684TIP3   OH229542   2.513   1.356  13.715 -0.2622 -0.0211 -0.3003
 2684TIP3    H129543   2.422   1.347  13.688  0.2453  0.2307 -2.2371
 2684TIP3    H229544   2.553   1.271  13.695 -0.8865 -1.7163  4.4414
 2685TIP3   OH229545   2.836   5.850  11.630  0.0822 -0.1728  0.2018
 2685TIP3    H129546   2.801   5.777  11.579 -2.2791  0.3676  0.9310
 2685TIP3    H229547   2.769   5.868  11.696  1.5084  1.3659  1.3310
 2686TIP3   OH229548   5.272   3.698   1.111  0.5400  0.2951 -0.0536
 2686TIP3    H129549   5.177   3.709   1.121  0.1970 -2.4821  0.5668
 2686TIP3    H229550   5.298   3.646   1.187  2.4391  0.3095 -0.6447
 2687TIP3   OH229551   0.817   6.512  17.078  0.7937  0.0905 -0.3435
 2687TIP3    H129552   0.830   6.566  16.999 -0.4168 -1.7204 -1.8648
 2687TIP3    H229553   0.884   6.444  17.072  1.2063  0.3809  0.6654
 2688TIP3   OH229554   1.086   5.479  11.930 -0.1358  0.1358  0.7228
 2688TIP3    H129555   1.027   5.452  11.860  1.9925 -2.5049 -0.2325
 2688TIP3    H229556   1.034   5.468  12.010 -1.4261 -0.5536 -0.1662
 2689TIP3   OH229557   3.712   5.474  11.447 -0.2355  1.1185  0.3432
 2689TIP3    H129558   3.743   5.563  11.465  0.2121  0.9862  0.2389
 2689TIP3    H229559   3.745   5.454  11.359 -0.3712  0.8674  0.3481
 2690TIP3   OH229560   5.540   1.186   2.237  0.0944 -0.0850  0.1788
 2690TIP3    H129561   5.602   1.145   2.297 -1.6448 -0.0998  2.1058
 2690TIP3    H229562   5.592   1.250   2.189  1.8010 -0.8540  0.9086
 2691TIP3   OH229563   0.178   1.131   4.817 -0.6751  0.5953 -0.6021
 2691TIP3    H129564   0.257   1.076   4.814 -1.5932 -0.8144  0.0132
 2691TIP3    H229565   0.162   1.145   4.910 -1.3042  0.6358 -0.7124
 2692TIP3   OH229566   4.400   1.331   1.230  0.3589 -0.8342  0.6572
 2692TIP3    H129567   4.418   1.424   1.218  0.0251 -0.6901  1.2185
 2692TIP3    H229568   4.333   1.312   1.164  0.0924 -0.5663  0.8477
 2693TIP3   OH229569   0.710   5.992   6.388  0.1867 -0.1279 -0.3278
 2693TIP3    H129570   0.759   6.060   6.342  1.2662 -1.5522 -1.3773
 2693TIP3    H229571   0.754   5.985   6.473  0.3032  0.2260 -0.3558
 2694TIP3   OH229572   3.973   2.444  12.834  0.4122  0.6109 -0.1921
 2694TIP3    H129573   3.978   2.359  12.791  0.3002  0.5283 -0.0418
 2694TIP3    H229574   3.927   2.427  12.916 -0.2414  0.9455 -0.4876
 2695TIP3   OH229575   1.483   2.074   0.903 -0.1907  0.7232  0.0469
 2695TIP3    H129576   1.517   2.140   0.964  1.7373  0.3364 -0.5416
 2695TIP3    H229577   1.472   1.996   0.957  1.2806  0.4534  0.0193
 2696TIP3   OH229578   5.420   1.178   4.555 -0.5620 -0.0132  0.0965
 2696TIP3    H129579   5.427   1.194   4.461  0.4183  1.6101  0.4041
 2696TIP3    H229580   5.433   1.083   4.564 -0.1232 -0.1191 -1.3584
 2697TIP3   OH229581   1.401   4.944   3.247  0.2328 -0.1216  0.8055
 2697TIP3    H129582   1.331   4.934   3.182  0.5515 -0.2707  0.4761
 2697TIP3    H229583   1.357   4.940   3.331 -0.3056  1.0237  0.5898
 2698TIP3   OH229584   0.223   4.808  15.909  0.0923 -0.1925  0.1341
 2698TIP3    H129585   0.281   4.732  15.897 -3.0251 -2.5862 -1.2018
 2698TIP3    H229586   0.250   4.869  15.840  1.0331 -1.2271 -0.4622
 2699TIP3   OH229587   5.088   1.253  14.118  0.1089 -0.3959  0.4701
 2699TIP3    H129588   5.037   1.175  14.140 -1.4681 -0.3451 -2.4406
 2699TIP3    H229589   5.025   1.311  14.075  2.1768  0.5361 -1.5138
 2700TIP3   OH229590   4.119   2.079   2.631 -0.3981 -0.1488 -0.8912
 2700TIP3    H129591   4.195   2.109   2.682 -1.1239  0.9240 -0.3943
 2700TIP3    H229592   4.050   2.142   2.653 -1.9300 -2.0379 -0.0467
 2701TIP3   OH229593   4.306   6.587   0.043 -0.1363  0.6249  0.3328
 2701TIP3    H129594   4.240   6.560  -0.021 -0.1496 -0.0926  0.6465
 2701TIP3    H229595   4.388   6.587  -0.007 -0.2525  0.7719  0.1374
 2702TIP3   OH229596   4.293   0.314   1.238 -0.2229 -0.2288  0.2559
 2702TIP3    H129597   4.257   0.300   1.150 -1.7218  2.2473  0.3874
 2702TIP3    H229598   4.384   0.339   1.222  0.1462 -1.8116 -0.3946
 2703TIP3   OH229599   2.706   6.737   3.303  0.0858  0.0022 -0.2825
 2703TIP3    H129600   2.779   6.716   3.245  1.5681  0.6535  1.2485
 2703TIP3    H229601   2.647   6.661   3.297  0.1581  0.0598 -2.5832
 2704TIP3   OH229602   1.302   3.062   2.981 -0.0218  0.1350 -0.1713
 2704TIP3    H129603   1.281   3.017   3.063 -1.6200  0.2512 -0.4844
 2704TIP3    H229604   1.389   3.030   2.957 -1.5369 -3.9030 -1.0466
 2705TIP3   OH229605   0.123   3.726  14.931  0.2447 -1.4038 -0.4426
 2705TIP3    H129606   0.194   3.702  14.872  3.0718  3.2954  0.5799
 2705TIP3    H229607   0.117   3.821  14.925 -3.8046 -1.2425  2.0613
 2706TIP3   OH229608   0.800   3.448  10.908 -0.2688 -0.4312  0.5321
 2706TIP3    H129609   0.796   3.368  10.856  0.4135  0.7282 -1.4315
 2706TIP3    H229610   0.734   3.506  10.869  2.2777  1.5718 -1.1608
 2707TIP3   OH229611   5.915   4.024  14.298  0.1687 -0.1558  1.0027
 2707TIP3    H129612   5.947   3.958  14.360 -0.8000 -1.7978 -0.1754
 2707TIP3    H229613   5.831   4.051  14.333 -1.1669 -2.2900 -0.3152
 2708TIP3   OH229614   0.494   5.256  14.168 -0.0615  0.0643  0.3474
 2708TIP3    H129615   0.469   5.168  14.197  0.9817 -0.5942 -0.6842
 2708TIP3    H229616   0.560   5.242  14.100  0.5896  1.6590  0.5871
 2709TIP3   OH229617   3.290   4.904  11.088  0.2419  0.1916  0.3935
 2709TIP3    H129618   3.234   4.959  11.033 -1.1209  0.1296  1.6370
 2709TIP3    H229619   3.305   4.957  11.167 -0.0273 -0.6943  1.0592
 2710TIP3   OH229620   2.482   2.232   5.720 -0.0692  0.2851  0.3309
 2710TIP3    H129621   2.557   2.191   5.763  0.7021 -0.4625 -1.6265
 2710TIP3    H229622   2.413   2.231   5.786  1.0595 -0.7701  1.5497
 2711TIP3   OH229623   0.472   4.782  14.105 -0.6382 -0.1555 -0.2039
 2711TIP3    H129624   0.403   4.720  14.128 -2.4182  0.9138 -2.3068
 2711TIP3    H229625   0.437   4.830  14.030  1.9022  1.3299 -0.5429
 2712TIP3   OH229626   3.199   0.217   0.647  0.2595  0.0648 -0.1557
 2712TIP3    H129627   3.262   0.160   0.690 -1.4287  0.4713  3.2488
 2712TIP3    H229628   3.129   0.158   0.617  0.9180 -0.1107 -1.3835
 2713TIP3   OH229629   1.987   1.495   1.961  0.6414 -0.5079 -0.5567
 2713TIP3    H129630   1.964   1.573   2.013 -2.0060 -2.2008  1.0350
 2713TIP3    H229631   1.918   1.489   1.896 -1.0801 -3.1443  1.3303
 2714TIP3   OH229632   6.345   1.520   3.395  0.0213 -0.0311 -0.4377
 2714TIP3    H129633   6.332   1.538   3.488  0.2642 -1.3409 -0.1166
 2714TIP3    H229634   6.439   1.530   3.382 -0.1243  1.0284 -0.7661
 2715TIP3   OH229635   0.387   6.626  11.245 -0.6507 -1.0554 -1.2619
 2715TIP3    H129636   0.408   6.543  11.200 -1.2172 -0.8913 -1.8497
 2715TIP3    H229637   0.418   6.693  11.185  4.1164 -0.6835  1.1261
 2716TIP3   OH229638   5.315   4.245   5.871  0.3536  0.4194  0.3213
 2716TIP3    H129639   5.291   4.323   5.821 -0.5722  0.7141  1.1919
 2716TIP3    H229640   5.290   4.172   5.815  1.2561  0.7195 -0.5165
 2717TIP3   OH229641   6.701   0.675  16.855  0.6242  0.5983 -0.1276
 2717TIP3    H129642   6.634   0.713  16.912  1.2409  0.0494  1.0061
 2717TIP3    H229643   6.690   0.720  16.772  0.2685  2.0635  0.6745
 2718TIP3   OH229644   2.303   0.511   4.106 -0.2154 -0.1115 -0.2800
 2718TIP3    H129645   2.355   0.590   4.119 -0.1704 -0.1064 -0.4849
 2718TIP3    H229646   2.340   0.471   4.028 -0.0071 -0.5246  0.0295
 2719TIP3   OH229647   1.284   2.225   0.779  0.1415  0.2278 -0.1709
 2719TIP3    H129648   1.357   2.183   0.825 -0.6757 -0.3773  0.5939
 2719TIP3    H229649   1.321   2.250   0.694  0.7691 -1.7021 -0.5132
 2720TIP3   OH229650   1.424   1.418   2.296 -0.2156  0.3676  0.1730
 2720TIP3    H129651   1.474   1.497   2.318 -2.1476  1.1753  2.0286
 2720TIP3    H229652   1.453   1.353   2.360  0.3976 -0.0374 -0.4991
 2721TIP3   OH229653   5.974   5.901  11.325  0.0595  0.2809  0.2856
 2721TIP3    H129654   5.920   5.978  11.309  0.8781  0.8821  0.3593
 2721TIP3    H229655   6.031   5.926  11.398  0.8509 -0.1166 -0.1833
 2722TIP3   OH229656   2.247   0.757  11.471 -0.1527 -0.3455  0.1708
 2722TIP3    H129657   2.198   0.810  11.408 -0.1759 -1.7636 -1.0649
 2722TIP3    H229658   2.183   0.695  11.505  0.1989 -0.5333  0.4926
 2723TIP3   OH229659   4.226   3.842  13.105 -0.0402 -0.1944  0.2839
 2723TIP3    H129660   4.216   3.892  13.024  0.8497  0.6433  0.6622
 2723TIP3    H229661   4.153   3.870  13.160 -0.2514 -0.2386  0.0244
 2724TIP3   OH229662   2.150   2.773  13.230 -0.4132  0.5590 -0.7449
 2724TIP3    H129663   2.145   2.850  13.174 -0.6626  0.5646 -0.7179
 2724TIP3    H229664   2.194   2.707  13.176  1.9907  1.4140  0.0321
 2725TIP3   OH229665   4.667   2.310   0.343  0.2486 -0.0667 -0.1099
 2725TIP3    H129666   4.699   2.329   0.254  0.5486  1.6564  0.3367
 2725TIP3    H229667   4.578   2.344   0.344  0.6096  0.8795  0.5562
 2726TIP3   OH229668   4.571   4.015  13.926  0.7472  0.0766  0.0797
 2726TIP3    H129669   4.598   3.937  13.878 -2.8235 -0.3904 -1.5132
 2726TIP3    H229670   4.533   3.982  14.008 -0.9429  0.0177 -0.6797
 2727TIP3   OH229671   1.744   6.528  11.448 -0.0523 -0.2581 -0.2267
 2727TIP3    H129672   1.827   6.570  11.472 -0.7057 -0.0555  1.9271
 2727TIP3    H229673   1.754   6.437  11.477 -0.3652 -0.3724 -0.4759
 2728TIP3   OH229674   3.298   3.118   4.771  0.5232 -0.5236  0.3482
 2728TIP3    H129675   3.354   3.183   4.728 -2.2458 -0.3714 -3.5479
 2728TIP3    H229676   3.218   3.165   4.792 -0.1794 -1.8935  0.8554
 2729TIP3   OH229677   1.185   2.967  14.552  0.1745  0.1101  0.1898
 2729TIP3    H129678   1.105   2.915  14.548  0.3756 -0.1203 -1.5396
 2729TIP3    H229679   1.161   3.051  14.514  0.1477  0.9234  1.9312
 2730TIP3   OH229680   2.838   4.911  11.892  0.3456 -0.1244  0.0803
 2730TIP3    H129681   2.752   4.869  11.893 -0.2268  1.0005  0.9249
 2730TIP3    H229682   2.822   4.997  11.853  0.6899  0.8116  1.8713
 2731TIP3   OH229683   0.619   1.445  11.087  0.4921  0.2199  0.3864
 2731TIP3    H129684   0.573   1.361  11.078  0.5938  0.4214 -3.1860
 2731TIP3    H229685   0.711   1.421  11.093  0.4368  0.0576  0.6368
 2732TIP3   OH229686   3.997   5.364   4.736  0.3026  0.3566  0.5771
 2732TIP3    H129687   4.076   5.405   4.772  0.8147 -0.9595  1.0119
 2732TIP3    H229688   3.966   5.306   4.806 -0.6442  0.3080  0.1354
 2733TIP3   OH229689   4.984   0.381  15.761  0.0534  0.7956 -0.4861
 2733TIP3    H129690   4.893   0.366  15.737  0.3185  1.0590 -1.7315
 2733TIP3    H229691   4.980   0.428  15.845 -0.9070 -0.4545  0.1930
 2734TIP3   OH229692   5.441   0.482   5.535  0.8919 -0.5360  0.1761
 2734TIP3    H129693   5.452   0.461   5.628 -1.3462  1.7854  1.0871
 2734TIP3    H229694   5.406   0.402   5.496 -0.6248 -0.7857  1.9134
 2735TIP3   OH229695   3.863   0.501   4.545 -0.1631  0.0077 -0.0358
 2735TIP3    H129696   3.868   0.588   4.506 -0.4908 -0.6561 -1.6625
 2735TIP3    H229697   3.783   0.463   4.509  0.0806 -1.0378  0.4829
 2736TIP3   OH229698   6.239   0.684  13.091  0.0163  0.0970  0.2407
 2736TIP3    H129699   6.202   0.768  13.119  0.9697  0.7825 -0.4683
 2736TIP3    H229700   6.166   0.637  13.051 -0.5204  0.6057  0.6129
 2737TIP3   OH229701   4.549   4.495  11.250 -0.4280 -0.3442 -0.3953
 2737TIP3    H129702   4.484   4.491  11.180 -0.2778  0.5788 -0.6031
 2737TIP3    H229703   4.534   4.416  11.301 -2.5869  0.4796  0.3531
 2738TIP3   OH229704   6.296   3.893   5.352 -0.5782 -0.2291 -0.1681
 2738TIP3    H129705   6.334   3.828   5.411 -2.4663 -1.3747 -0.1086
 2738TIP3    H229706   6.233   3.843   5.299 -1.5664  1.4261 -0.6190
 2739TIP3   OH229707   0.362   0.853  13.468  0.2102  0.4717  0.3583
 2739TIP3    H129708   0.269   0.842  13.448  0.6644 -2.9403 -0.6138
 2739TIP3    H229709   0.406   0.800  13.402  2.8700  1.7478  0.9869
 2740TIP3   OH229710   1.180   1.110  15.708 -0.3886 -0.5462  0.3684
 2740TIP3    H129711   1.122   1.034  15.699  0.3725 -1.1185  0.1477
 2740TIP3    H229712   1.242   1.101  15.635  1.2086 -1.0654  1.7291
 2741TIP3   OH229713   3.317   6.084  15.213  0.6944 -0.1099  0.3640
 2741TIP3    H129714   3.265   6.007  15.189  0.7644 -0.7439  2.0944
 2741TIP3    H229715   3.382   6.092  15.143 -1.1055  0.1327 -1.3471
 2742TIP3   OH229716   4.193   3.016   1.303  0.0711  0.3261 -0.0842
 2742TIP3    H129717   4.270   3.059   1.268 -0.5232 -0.0363 -1.9586
 2742TIP3    H229718   4.124   3.082   1.299 -0.8408 -0.6104 -2.9578
 2743TIP3   OH229719   2.431   4.677  14.129 -0.2939 -0.0290 -0.8189
 2743TIP3    H129720   2.363   4.726  14.084  0.4673  0.7562 -1.1577
 2743TIP3    H229721   2.428   4.708  14.219 -0.5726 -0.2122 -0.7634
 2744TIP3   OH229722   4.929   0.912   2.502 -0.2762  0.3030  0.1646
 2744TIP3    H129723   4.943   0.873   2.416  0.0920  1.1318 -0.1595
 2744TIP3    H229724   5.002   0.880   2.555  1.8194  2.9096 -0.9374
 2745TIP3   OH229725   4.926   0.840  13.996 -0.2711 -0.1998 -0.2269
 2745TIP3    H129726   5.015   0.812  14.017 -0.1289 -0.9179 -1.6776
 2745TIP3    H229727   4.912   0.919  14.050  1.3302  0.0799 -0.1855
 2746TIP3   OH229728   1.922   5.751  15.143  0.6431 -0.2154  0.1946
 2746TIP3    H129729   1.955   5.662  15.137  1.5417  0.1702 -1.0338
 2746TIP3    H229730   1.974   5.800  15.079 -0.0119  1.1308  0.6607
 2747TIP3   OH229731   3.150   6.722  15.100 -0.0233  0.3484 -0.4036
 2747TIP3    H129732   3.195   6.740  15.018  0.0619 -0.2806 -0.5001
 2747TIP3    H229733   3.095   6.646  15.081 -0.0246  0.2168  0.1068
 2748TIP3   OH229734   5.006   3.210  11.451  0.0130 -0.0829  0.2478
 2748TIP3    H129735   4.960   3.281  11.497  0.2925  1.1428 -1.2658
 2748TIP3    H229736   5.098   3.236  11.453  0.1929 -0.7058  0.1655
 2749TIP3   OH229737   2.350   5.703   0.660  0.2087  0.3809 -0.0152
 2749TIP3    H129738   2.345   5.619   0.616 -1.3031 -0.0309  0.8707
 2749TIP3    H229739   2.320   5.686   0.749  0.6385  1.7133  0.4223
 2750TIP3   OH229740   0.418   6.643   5.878  0.6070  0.2635 -0.0475
 2750TIP3    H129741   0.334   6.599   5.889  0.8643  0.2724  2.6310
 2750TIP3    H229742   0.403   6.709   5.810 -1.5594  0.2658  0.3829
 2751TIP3   OH229743   2.518   5.829  11.481 -0.6662 -0.1935  0.2942
 2751TIP3    H129744   2.590   5.767  11.470 -1.5066 -1.0147 -0.9885
 2751TIP3    H229745   2.518   5.850  11.574  1.2529 -0.0938  0.3119
 2752TIP3   OH229746   4.658   0.934   3.300 -0.0714  0.1664 -0.0118
 2752TIP3    H129747   4.626   1.016   3.262  1.7401  1.1889  0.5458
 2752TIP3    H229748   4.683   0.881   3.225  0.3040  0.8052 -0.3532
 2753TIP3   OH229749   4.560   2.794  13.094  0.3545 -0.4911 -0.5979
 2753TIP3    H129750   4.582   2.841  13.014 -0.0821 -3.1492 -2.4093
 2753TIP3    H229751   4.470   2.819  13.112 -0.3737 -1.6501 -2.3802
 2754TIP3   OH229752   3.826   1.721  14.336 -0.7502 -0.2099  0.0782
 2754TIP3    H129753   3.785   1.776  14.404 -2.4964 -0.8610 -0.3984
 2754TIP3    H229754   3.776   1.740  14.257  0.8648  0.0597 -0.9016
 2755TIP3   OH229755   4.735   5.924  10.599  0.2456 -0.3978  0.5197
 2755TIP3    H129756   4.713   5.876  10.519 -0.5963  0.0919  0.4399
 2755TIP3    H229757   4.740   5.857  10.666 -0.8061 -0.6243  0.3881
 2756TIP3   OH229758   3.685   0.674   2.839  0.3433  0.3419  0.1818
 2756TIP3    H129759   3.662   0.757   2.880  0.1056  2.0078 -3.0227
 2756TIP3    H229760   3.609   0.618   2.853 -1.7340  2.4533 -1.8554
 2757TIP3   OH229761   2.699   5.405  13.792  0.5110 -0.1620  0.1977
 2757TIP3    H129762   2.697   5.499  13.811 -0.2476 -0.1637  0.1745
 2757TIP3    H229763   2.647   5.365  13.862  1.6341 -0.6823  0.7605
 2758TIP3   OH229764   3.228   0.427  13.306  0.1091  0.6932 -0.3417
 2758TIP3    H129765   3.251   0.343  13.268  2.2523 -0.3168  2.7696
 2758TIP3    H229766   3.134   0.420  13.326  0.1220 -0.7159 -0.6826
 2759TIP3   OH229767   3.002   2.368  15.646 -0.8237 -0.2924  0.1211
 2759TIP3    H129768   3.016   2.398  15.736 -0.7361 -0.4694  0.1674
 2759TIP3    H229769   3.051   2.431  15.593 -0.5053 -0.4417  0.2297
 2760TIP3   OH229770   0.653   1.518   5.527  0.1000  0.1892 -0.6663
 2760TIP3    H129771   0.574   1.512   5.474 -1.7431  3.4310  1.3855
 2760TIP3    H229772   0.716   1.565   5.472 -0.3820  0.0357 -1.3528
 2761TIP3   OH229773   2.489   0.984  14.376 -0.3806 -0.2996 -0.2420
 2761TIP3    H129774   2.574   1.028  14.380 -1.6453  2.2611  2.8666
 2761TIP3    H229775   2.434   1.043  14.324 -1.1422 -0.0507  0.8170
 2762TIP3   OH229776   5.508   2.192   1.121  0.0764 -0.0547 -0.1740
 2762TIP3    H129777   5.592   2.166   1.085 -0.1582 -0.1514 -0.6634
 2762TIP3    H229778   5.458   2.224   1.045  0.1116  1.1659  0.2938
 2763TIP3   OH229779   4.664   1.597  14.434  0.3564 -0.3142 -0.3739
 2763TIP3    H129780   4.626   1.612  14.520  1.1472 -0.9278  0.0890
 2763TIP3    H229781   4.589   1.578  14.378 -0.0109 -1.8573  0.5978
 2764TIP3   OH229782   6.159   3.177   1.729  0.4903  0.2059  0.4198
 2764TIP3    H129783   6.095   3.244   1.705  0.4935  0.6413  1.5459
 2764TIP3    H229784   6.235   3.196   1.673  0.4322  1.0500  0.6172
 2765TIP3   OH229785   2.913   0.180   1.586 -0.4106  0.3643  0.2786
 2765TIP3    H129786   2.980   0.248   1.578  0.3261 -0.1664  1.6352
 2765TIP3    H229787   2.856   0.193   1.510  2.5851 -0.6809 -2.3493
 2766TIP3   OH229788   4.819   4.502   4.471 -0.4324 -0.1900 -0.5863
 2766TIP3    H129789   4.754   4.484   4.539 -0.9364  0.0822 -0.9920
 2766TIP3    H229790   4.899   4.526   4.519 -0.4388 -1.1660 -0.0758
 2767TIP3   OH229791   5.368   4.319  13.204  0.3049  0.5899  0.5894
 2767TIP3    H129792   5.348   4.411  13.185  0.2712  1.0863  2.7416
 2767TIP3    H229793   5.288   4.272  13.181  0.1105  1.1717  0.0316
 2768TIP3   OH229794   0.854   4.001  14.707 -0.3632 -0.0109  0.1932
 2768TIP3    H129795   0.858   4.055  14.628  0.3933  0.4131  0.5187
 2768TIP3    H229796   0.933   3.948  14.704 -2.6864 -3.8449 -2.0096
 2769TIP3   OH229797   1.316   0.598  15.776 -0.1660 -0.9018 -0.0314
 2769TIP3    H129798   1.287   0.634  15.692  0.9727 -0.9790 -0.4772
 2769TIP3    H229799   1.402   0.562  15.758  1.1735  1.2063  1.7195
 2770TIP3   OH229800   2.482   4.709   5.984 -0.1356  0.1571  0.5644
 2770TIP3    H129801   2.531   4.648   6.039  0.5564  1.6852  1.7258
 2770TIP3    H229802   2.403   4.730   6.034 -0.3856  0.1897  0.1634
 2771TIP3   OH229803   5.021   0.081  16.516  0.2039 -0.6359  0.1058
 2771TIP3    H129804   4.997   0.154  16.459  1.2261  1.6300  2.3943
 2771TIP3    H229805   4.958   0.085  16.588  2.1118  0.0274  1.8427
 2772TIP3   OH229806   5.128   4.751  15.675  0.4717 -0.0289 -0.4938
 2772TIP3    H129807   5.060   4.742  15.608  0.0301  0.2044 -0.0874
 2772TIP3    H229808   5.129   4.665  15.719  1.1748 -0.3787 -1.1735
 2773TIP3   OH229809   1.409   0.991  11.722 -0.0212 -0.2718 -0.1410
 2773TIP3    H129810   1.372   0.927  11.660  2.0178 -0.4745 -1.2286
 2773TIP3    H229811   1.351   1.067  11.716 -0.8732 -0.9624 -0.9503
 2774TIP3   OH229812   6.069   1.566  12.310 -0.2839  0.1913 -0.3402
 2774TIP3    H129813   6.100   1.629  12.245 -0.8279 -1.0824 -1.9034
 2774TIP3    H229814   5.974   1.575  12.308 -0.3587 -0.6133 -0.5186
 2775TIP3   OH229815   3.024   0.158  15.489 -0.7612  0.0531 -0.1935
 2775TIP3    H129816   3.056   0.118  15.409 -1.2812  1.1590 -0.9719
 2775TIP3    H229817   3.030   0.088  15.555  1.4453 -0.3188 -0.7134
 2776TIP3   OH229818   6.822   6.188   0.391 -0.3032  0.0209  0.2742
 2776TIP3    H129819   6.818   6.236   0.473 -1.8059 -0.1825  0.3484
 2776TIP3    H229820   6.732   6.160   0.375  0.2092 -1.1581 -0.7239
 2777TIP3   OH229821   0.674   6.738  10.824 -0.1736 -0.6401 -0.6877
 2777TIP3    H129822   0.639   6.826  10.816  0.6250 -0.4113 -2.0423
 2777TIP3    H229823   0.751   6.738  10.767  1.3560 -1.4549  1.2514
 2778TIP3   OH229824   1.653   1.240   0.576  0.8765 -0.2782 -0.4556
 2778TIP3    H129825   1.641   1.204   0.664 -1.4892 -0.1798 -0.6579
 2778TIP3    H229826   1.680   1.165   0.522 -0.6824 -1.0616 -0.2082
 2779TIP3   OH229827   3.112   6.440  12.245 -0.3044  0.5068 -0.4588
 2779TIP3    H129828   3.149   6.528  12.240 -1.4473  1.0545  0.3358
 2779TIP3    H229829   3.026   6.449  12.204 -1.1674  0.2051  1.2083
 2780TIP3   OH229830   5.866   3.334  12.832 -0.1471  0.0251  0.1960
 2780TIP3    H129831   5.833   3.245  12.819 -2.6878  0.8390  0.4957
 2780TIP3    H229832   5.944   3.323  12.887 -0.7088 -1.9910  0.6744
 2781TIP3   OH229833   6.185   1.176  10.935  0.4279  0.3394 -0.2317
 2781TIP3    H129834   6.127   1.252  10.933  1.8786  1.5634  1.5495
 2781TIP3    H229835   6.198   1.155  10.843 -1.2261  1.2553 -0.7326
 2782TIP3   OH229836   4.240   2.580   4.229  0.4598 -0.4885  0.2988
 2782TIP3    H129837   4.187   2.512   4.270 -0.3761 -0.0757 -0.0795
 2782TIP3    H229838   4.261   2.641   4.300 -0.4830 -0.0913  0.2492
 2783TIP3   OH229839   4.631   5.009   1.814 -0.1184  0.4218 -0.1326
 2783TIP3    H129840   4.665   5.075   1.753 -0.8925 -0.1508 -1.2038
 2783TIP3    H229841   4.699   5.002   1.882  2.0239 -0.7835 -2.2555
 2784TIP3   OH229842   2.254   4.941  13.464  0.3685 -0.1361  0.6618
 2784TIP3    H129843   2.276   5.028  13.497 -0.3508  0.1516  0.4010
 2784TIP3    H229844   2.226   4.892  13.542 -0.4479  0.2602  0.6207
 2785TIP3   OH229845   5.106   2.303  12.569  0.0465 -0.2641 -0.6682
 2785TIP3    H129846   5.034   2.253  12.531  1.2292 -0.6676 -2.4855
 2785TIP3    H229847   5.179   2.241  12.572  0.0182 -0.3107  2.5050
 2786TIP3   OH229848   0.391   1.200   1.392 -0.0024  0.7385 -0.3593
 2786TIP3    H129849   0.463   1.174   1.335  0.7687  0.2447  0.8023
 2786TIP3    H229850   0.353   1.276   1.350  2.1278  1.9231 -0.2692
 2787TIP3   OH229851   2.887   3.182  14.481  0.2560  0.0564  0.1177
 2787TIP3    H129852   2.836   3.184  14.400  0.0953  0.6193  0.2236
 2787TIP3    H229853   2.944   3.106  14.472  0.1052  0.0018 -0.4394
 2788TIP3   OH229854   5.966   0.626  13.585 -0.0531 -0.0048 -0.1994
 2788TIP3    H129855   5.885   0.622  13.535 -0.1130 -0.0239 -0.0997
 2788TIP3    H229856   5.998   0.536  13.588  0.8412  0.2155 -1.6811
 2789TIP3   OH229857   2.428   3.558  13.707 -0.0732 -0.7298 -0.4982
 2789TIP3    H129858   2.523   3.567  13.709  0.2571 -3.3348 -0.5419
 2789TIP3    H229859   2.400   3.565  13.798  0.3013 -0.9645 -0.3654
 2790TIP3   OH229860   1.276   6.756  11.839  0.5999  0.3244  0.3509
 2790TIP3    H129861   1.189   6.718  11.852  0.8998 -0.7376 -0.5643
 2790TIP3    H229862   1.260   6.841  11.798 -0.0586  0.9371  1.7985
 2791TIP3   OH229863   4.765   2.155   1.089  0.3144 -0.4904  0.1239
 2791TIP3    H129864   4.715   2.108   1.156 -1.0044 -0.3254 -0.7026
 2791TIP3    H229865   4.853   2.117   1.094  0.3319 -0.3211  2.0816
 2792TIP3   OH229866   2.343   4.790   5.602  0.2496 -0.0832 -0.6574
 2792TIP3    H129867   2.412   4.856   5.596 -0.1533  0.2662 -1.6109
 2792TIP3    H229868   2.282   4.825   5.667  1.1779 -0.6151  0.5413
 2793TIP3   OH229869   3.884   0.962   0.323  0.0270 -0.1710 -0.0513
 2793TIP3    H129870   3.813   0.906   0.353 -0.5003  0.4678 -0.0818
 2793TIP3    H229871   3.885   1.035   0.385  1.5069 -0.7979  0.7166
 2794TIP3   OH229872   0.189   0.972   1.411  0.0434  0.6342  0.5464
 2794TIP3    H129873   0.266   1.014   1.449 -1.3063  2.5993  1.2708
 2794TIP3    H229874   0.142   1.043   1.367  0.0091 -1.0069 -2.3429
 2795TIP3   OH229875   2.357   4.244   1.997 -0.2466 -0.6396 -0.0127
 2795TIP3    H129876   2.377   4.333   1.968  1.4678 -1.3559 -1.1565
 2795TIP3    H229877   2.355   4.249   2.093  0.0634  0.5644 -0.0598
 2796TIP3   OH229878   3.136   5.268   3.684  0.0518 -0.0932  0.3189
 2796TIP3    H129879   3.137   5.332   3.755 -0.6609  0.3523 -0.0671
 2796TIP3    H229880   3.078   5.305   3.618  1.1811 -0.2171 -0.7795
 2797TIP3   OH229881   4.166   5.930   1.493 -0.5260 -0.0979  0.2285
 2797TIP3    H129882   4.178   5.905   1.585 -0.6067  0.2008  0.3190
 2797TIP3    H229883   4.108   5.862   1.458  0.5807 -0.9775  0.0463
 2798TIP3   OH229884   5.194   4.843  12.934  0.5670 -0.4607  0.2020
 2798TIP3    H129885   5.219   4.927  12.896  0.6048  0.0169  1.2603
 2798TIP3    H229886   5.218   4.850  13.026 -0.7244 -1.0968  0.6090
 2799TIP3   OH229887   0.865   3.237  10.707  0.7115 -0.1032 -0.1849
 2799TIP3    H129888   0.830   3.237  10.618  0.0294 -1.0748  0.0658
 2799TIP3    H229889   0.948   3.190  10.700  1.0870  0.5918 -0.4564
 2800TIP3   OH229890   4.782   0.093  14.846 -0.0941 -0.4260  0.3099
 2800TIP3    H129891   4.863   0.051  14.875  0.8952  0.6631 -0.7388
 2800TIP3    H229892   4.744   0.031  14.783  0.3392 -0.5931  0.2097
 2801TIP3   OH229893   5.959   6.549  14.038 -0.1467  0.0224  0.5820
 2801TIP3    H129894   5.950   6.576  14.130  2.5035  2.3655  0.3068
 2801TIP3    H229895   6.049   6.515  14.033 -0.7289 -1.3877 -0.8871
 2802TIP3   OH229896   3.785   2.995   3.356  0.1950 -0.0852  0.2347
 2802TIP3    H129897   3.823   2.939   3.288  0.8953  1.6415 -0.8869
 2802TIP3    H229898   3.860   3.037   3.397 -0.2437 -0.8360  1.8982
 2803TIP3   OH229899   0.459   3.417  15.356  0.6798 -0.3511  0.5564
 2803TIP3    H129900   0.409   3.498  15.341 -0.7807 -1.4403 -0.8743
 2803TIP3    H229901   0.397   3.359  15.400  1.4128 -1.0044  0.7415
 2804TIP3   OH229902   4.362   6.790  11.327 -0.0912 -0.3696  0.5291
 2804TIP3    H129903   4.417   6.714  11.347  1.7649  0.3799 -1.3852
 2804TIP3    H229904   4.297   6.756  11.265 -0.4498 -0.7863  1.1227
 2805TIP3   OH229905   5.093   0.928   5.956  0.3677  0.3080 -0.7344
 2805TIP3    H129906   5.014   0.886   5.990  0.2707  1.2751  0.3141
 2805TIP3    H229907   5.164   0.894   6.012  0.3144  1.3580 -0.0055
 2806TIP3   OH229908   4.136   4.265  15.623  0.3671  0.0012 -0.1256
 2806TIP3    H129909   4.076   4.191  15.639 -0.5878  0.6998 -0.3657
 2806TIP3    H229910   4.095   4.338  15.668  1.7266  0.2305  0.7973
 2807TIP3   OH229911   0.770   6.272  12.110 -0.1912 -0.1312 -0.0889
 2807TIP3    H129912   0.821   6.239  12.035  2.5367  0.3183  1.4385
 2807TIP3    H229913   0.688   6.222  12.106  1.0414 -2.2518 -1.7015
 2808TIP3   OH229914   0.205   4.027   5.694  0.6104  0.0103  0.0911
 2808TIP3    H129915   0.248   3.946   5.664  0.4278  0.2162 -0.7351
 2808TIP3    H229916   0.141   4.047   5.626  0.2588  0.5447  0.5746
 2809TIP3   OH229917   2.988   3.570   2.579  0.3717  0.1627  0.3507
 2809TIP3    H129918   3.059   3.574   2.514  0.0148 -0.0523 -0.0544
 2809TIP3    H229919   3.004   3.489   2.627 -0.9314 -1.1403 -1.3027
 2810TIP3   OH229920   2.815   1.527   4.710 -0.8670 -0.1538 -0.2683
 2810TIP3    H129921   2.747   1.486   4.764 -0.4051 -0.2266  0.2651
 2810TIP3    H229922   2.790   1.504   4.620 -0.9740 -1.0811 -0.0199
 2811TIP3   OH229923   4.283   4.338  16.592 -0.0258  0.0204 -0.2097
 2811TIP3    H129924   4.195   4.339  16.628  0.4728  1.3747  1.0331
 2811TIP3    H229925   4.323   4.259  16.629 -0.6386 -0.4915 -0.6259
 2812TIP3   OH229926   5.279   3.468   1.459 -0.1626 -0.0352  0.7797
 2812TIP3    H129927   5.184   3.476   1.453 -0.2501 -1.3585  0.1096
 2812TIP3    H229928   5.310   3.558   1.464 -1.3524  0.4891 -0.5342
 2813TIP3   OH229929   4.163   5.179  11.382  0.8341 -0.3196 -0.6345
 2813TIP3    H129930   4.084   5.137  11.416  0.5816 -0.8060 -1.7842
 2813TIP3    H229931   4.136   5.267  11.358  0.7711 -0.3067 -0.5155
 2814TIP3   OH229932   2.735   4.447  15.202  0.1958 -0.0535 -0.4514
 2814TIP3    H129933   2.780   4.422  15.121 -0.7472 -0.4034 -0.8785
 2814TIP3    H229934   2.651   4.484  15.172 -0.2363 -0.3511  0.3730
 2815TIP3   OH229935   4.791   0.864  15.564 -0.0181  0.5072 -0.4728
 2815TIP3    H129936   4.739   0.935  15.527  0.2074  0.9361  0.0126
 2815TIP3    H229937   4.881   0.898  15.565  0.0634  0.2905 -0.0652
 2816TIP3   OH229938   0.665   1.403  16.873  0.0815 -0.2054  0.2914
 2816TIP3    H129939   0.693   1.443  16.791 -0.8624  0.0858  0.1050
 2816TIP3    H229940   0.571   1.418  16.877 -0.0662 -1.1697  0.9030
 2817TIP3   OH229941   6.459   1.353   0.124 -0.0441 -0.1052  0.3511
 2817TIP3    H129942   6.488   1.288   0.188 -0.4255 -0.7869 -0.1497
 2817TIP3    H229943   6.381   1.392   0.163 -0.7088 -1.0374  0.0092
 2818TIP3   OH229944   0.441   0.839  17.099 -0.3145  0.1733 -0.1007
 2818TIP3    H129945   0.461   0.929  17.124  1.7293 -0.4285  0.6254
 2818TIP3    H229946   0.429   0.792  17.181  1.2946 -0.7355 -0.3343
 2819TIP3   OH229947   3.427   2.062  10.473 -0.2601 -0.2510  0.5683
 2819TIP3    H129948   3.493   2.068  10.404 -0.7270 -0.7480  0.0648
 2819TIP3    H229949   3.442   2.139  10.527  1.0784 -0.6348  0.7868
 2820TIP3   OH229950   3.025   1.968  12.635 -0.2207  0.3707 -0.5013
 2820TIP3    H129951   3.085   1.916  12.688 -1.1423 -0.3093 -0.1055
 2820TIP3    H229952   3.082   2.031  12.590  0.7603 -0.1190  0.0147
 2821TIP3   OH229953   2.197   5.769   4.986 -0.3247  0.3091 -0.0935
 2821TIP3    H129954   2.225   5.795   4.898 -1.2905 -0.3555 -0.6158
 2821TIP3    H229955   2.106   5.741   4.975  0.2521 -2.0450  0.6459
 2822TIP3   OH229956   0.572   3.128   5.610  1.1688 -0.4658  0.1605
 2822TIP3    H129957   0.571   3.128   5.515 -1.7868 -0.6133  0.0955
 2822TIP3    H229958   0.589   3.219   5.635 -1.1010  0.2638 -0.6542
 2823TIP3   OH229959   3.782   6.202   4.440 -0.2177 -0.1333  0.0001
 2823TIP3    H129960   3.877   6.200   4.457  0.1779 -0.3223 -2.0001
 2823TIP3    H229961   3.774   6.247   4.356 -1.9098 -0.3236  0.0351
 2824TIP3   OH229962   4.757   6.468  10.726 -0.2483 -0.8331 -0.6035
 2824TIP3    H129963   4.811   6.465  10.646 -0.0155 -0.3416 -0.4654
 2824TIP3    H229964   4.673   6.429  10.699  0.1131 -1.4449 -0.8656
 2825TIP3   OH229965   0.169   0.492   5.595  0.3743 -0.2172  0.1211
 2825TIP3    H129966   0.243   0.521   5.647 -0.2515  0.6750  0.5316
 2825TIP3    H229967   0.099   0.475   5.659  0.3822 -1.6164 -0.2007
 2826TIP3   OH229968   1.766   2.479   5.079  0.2572 -0.4325 -0.3312
 2826TIP3    H129969   1.772   2.390   5.114 -0.0772 -0.7035 -0.9523
 2826TIP3    H229970   1.783   2.469   4.985  1.4501  0.3254 -0.2114
 2827TIP3   OH229971   3.833   0.408  11.653  0.3145  0.0664 -0.0761
 2827TIP3    H129972   3.744   0.420  11.619 -0.8570 -1.4026  2.2458
 2827TIP3    H229973   3.870   0.496  11.655 -1.6080  0.9146  0.2302
 2828TIP3   OH229974   1.958   4.998   0.117  0.7871 -0.1126  0.7365
 2828TIP3    H129975   2.003   4.955   0.045 -0.7017 -1.6538  0.6709
 2828TIP3    H229976   2.026   5.016   0.181  2.0303  0.6887 -0.7422
 2829TIP3   OH229977   5.922   5.738   1.671  0.0198 -0.2449  0.4496
 2829TIP3    H129978   5.890   5.759   1.759  1.1635  3.3047  0.1392
 2829TIP3    H229979   5.846   5.700   1.627 -1.5015  0.8176  2.0191
 2830TIP3   OH229980   2.857   5.524  14.393  0.1401 -0.2151 -0.1116
 2830TIP3    H129981   2.899   5.593  14.342 -0.0399 -0.0884 -0.0891
 2830TIP3    H229982   2.892   5.443  14.357 -0.0237 -0.1280 -0.4679
 2831TIP3   OH229983   1.685   6.375   0.660  0.7277 -0.1962  0.5738
 2831TIP3    H129984   1.593   6.403   0.667  0.4611 -0.6143 -0.9026
 2831TIP3    H229985   1.735   6.453   0.686 -0.0252  1.0632 -1.4867
 2832TIP3   OH229986   6.500   5.100  13.083 -0.2409 -0.6338  0.2742
 2832TIP3    H129987   6.521   5.192  13.070  1.3271 -1.2111 -1.7127
 2832TIP3    H229988   6.408   5.093  13.059 -0.2487  0.3179 -0.0286
 2833TIP3   OH229989   0.340   5.997  16.777  0.3175 -0.0042 -0.4901
 2833TIP3    H129990   0.380   5.946  16.847  0.8635  0.5104 -0.4185
 2833TIP3    H229991   0.330   6.085  16.813  0.6738  0.2843 -1.0779
 2834TIP3   OH229992   2.540   3.918   0.199  0.2034 -0.2117  0.1506
 2834TIP3    H129993   2.557   3.991   0.139 -1.3538  0.2987  0.2701
 2834TIP3    H229994   2.601   3.850   0.172 -0.9702 -0.3175 -2.5775
 2835TIP3   OH229995   0.116   4.438   2.589 -0.2711 -0.0106  0.0793
 2835TIP3    H129996   0.176   4.363   2.601 -0.9439 -0.2986  1.9817
 2835TIP3    H229997   0.168   4.503   2.542  1.7257 -0.1009  1.9950
 2836TIP3   OH229998   3.287   3.742  14.172 -0.3133  0.5922  0.4554
 2836TIP3    H129999   3.211   3.753  14.229 -0.5842  2.1730 -0.1591
 2836TIP3    H230000   3.251   3.746  14.083  0.2920 -0.3035  0.1569
 2837TIP3   OH230001   0.700   2.157   3.877 -0.4849 -0.1556  0.0772
 2837TIP3    H130002   0.691   2.062   3.863 -0.0744 -0.3047  0.7712
 2837TIP3    H230003   0.620   2.181   3.924 -0.0714 -0.3818  0.9262
 2838TIP3   OH230004   4.828   4.398   1.441  0.2475  0.7911  0.1955
 2838TIP3    H130005   4.759   4.454   1.407  0.9348  2.3418  1.2319
 2838TIP3    H230006   4.870   4.360   1.364 -0.6503  1.1809 -0.4933
 2839TIP3   OH230007   0.110   0.259   6.006 -0.0271 -0.3460 -0.1724
 2839TIP3    H130008   0.086   0.322   5.938  1.0268 -1.7717 -1.9602
 2839TIP3    H230009   0.038   0.263   6.069 -1.7977  0.0123 -2.1078
 2840TIP3   OH230010   6.059   1.018  12.946  0.1626  0.7670  0.1746
 2840TIP3    H130011   6.089   1.016  13.036  0.0515 -0.5311  0.1969
 2840TIP3    H230012   6.132   0.983  12.895  0.1898  1.3987 -0.2307
 2841TIP3   OH230013   2.326   4.390  14.353  0.2922  0.0197 -0.6008
 2841TIP3    H130014   2.361   4.344  14.429  1.1041 -0.7042 -1.3841
 2841TIP3    H230015   2.346   4.482  14.368 -1.8836  0.2664  1.2871
 2842TIP3   OH230016   1.175   3.354  13.144  0.1453 -0.0726 -0.1647
 2842TIP3    H130017   1.271   3.348  13.143  0.1040 -0.7876  0.0639
 2842TIP3    H230018   1.152   3.381  13.055  0.3829 -2.8220 -1.1502
 2843TIP3   OH230019   2.942   6.325   5.675  0.0039 -0.5471 -0.2409
 2843TIP3    H130020   2.901   6.386   5.614 -1.1845 -0.3589  0.7012
 2843TIP3    H230021   3.036   6.342   5.667 -0.3002  1.6391  0.2094
 2844TIP3   OH230022   5.186   4.900   5.279 -0.6402 -0.5062 -0.2740
 2844TIP3    H130023   5.220   4.929   5.194  3.1424  0.4990  1.3632
 2844TIP3    H230024   5.234   4.820   5.298 -0.3545  0.0349  1.4832
 2845TIP3   OH230025   0.433   1.816  14.414 -0.3590 -0.2176  0.1664
 2845TIP3    H130026   0.414   1.731  14.453  0.2880 -0.2587  0.4132
 2845TIP3    H230027   0.523   1.835  14.441  0.8536 -1.0966 -2.8501
 2846TIP3   OH230028   1.400   3.525   4.321 -0.8620 -0.1170  0.4597
 2846TIP3    H130029   1.420   3.585   4.393  0.8691  0.3789 -0.3875
 2846TIP3    H230030   1.334   3.571   4.270  0.5205  1.1738 -0.2418
 2847TIP3   OH230031   5.927   6.784   3.335 -0.3888  0.0124  0.1159
 2847TIP3    H130032   5.900   6.768   3.425  2.3166 -0.1203  1.0050
 2847TIP3    H230033   5.956   6.875   3.334 -3.0413  0.9443 -1.4365
 2848TIP3   OH230034   3.207   2.297  13.690  1.2317 -0.1120  0.2099
 2848TIP3    H130035   3.299   2.276  13.678  1.1864 -2.6958  3.1720
 2848TIP3    H230036   3.161   2.215  13.677 -0.2962  0.4588  1.6033
 2849TIP3   OH230037   5.479   2.765  10.996 -0.1021 -0.6494 -0.0684
 2849TIP3    H130038   5.409   2.829  10.981 -0.4044 -0.2387  2.5671
 2849TIP3    H230039   5.434   2.681  11.000 -0.3116 -0.5153  0.5296
 2850TIP3   OH230040   0.400   2.728  16.080  0.3355 -0.0190 -0.3012
 2850TIP3    H130041   0.367   2.742  16.169  0.1250 -2.1797  0.0013
 2850TIP3    H230042   0.378   2.809  16.033 -0.4704  0.7446  1.3238
 2851TIP3   OH230043   1.008   2.663  11.480 -0.0351 -0.3183  0.2438
 2851TIP3    H130044   1.028   2.749  11.517  0.0192 -0.4067  0.4225
 2851TIP3    H230045   0.989   2.608  11.556 -0.4081 -0.3786  0.1084
 2852TIP3   OH230046   5.492   1.128   1.271  0.4898 -0.5787  0.0318
 2852TIP3    H130047   5.563   1.183   1.236  0.6170 -0.9577 -0.3175
 2852TIP3    H230048   5.526   1.039   1.264 -0.3013 -0.8273 -0.8120
 2853TIP3   OH230049   1.499   6.214  10.576  0.1192 -0.3845  0.3274
 2853TIP3    H130050   1.416   6.204  10.530  0.1941 -0.3722  0.1885
 2853TIP3    H230051   1.541   6.289  10.534  0.8174 -1.2346 -0.5522
 2854TIP3   OH230052   0.182   3.690  12.978 -0.9200 -0.3228 -0.5742
 2854TIP3    H130053   0.121   3.624  13.011  0.8226 -1.5048  0.4808
 2854TIP3    H230054   0.236   3.643  12.914  0.2203  0.1016  0.0460
 2855TIP3   OH230055   4.565   6.830  15.744  0.8436  0.5843 -0.0135
 2855TIP3    H130056   4.499   6.773  15.784  1.6004  0.4923  1.1312
 2855TIP3    H230057   4.519   6.870  15.670 -0.3917  0.2532  0.5426
 2856TIP3   OH230058   3.153   4.948  14.283  0.0987  0.3597  0.4378
 2856TIP3    H130059   3.236   4.901  14.287 -1.1331 -2.0307 -0.5279
 2856TIP3    H230060   3.101   4.913  14.356  0.3192  2.8093  1.8967
 2857TIP3   OH230061   5.552   0.246   0.650 -1.0488 -0.3751  0.3333
 2857TIP3    H130062   5.501   0.165   0.641  0.6428 -1.4249 -0.2398
 2857TIP3    H230063   5.540   0.272   0.742 -1.7649 -1.1444  0.4726
 2858TIP3   OH230064   1.046   5.655   3.179 -0.5956  0.4279 -0.0263
 2858TIP3    H130065   1.021   5.683   3.091 -1.2401 -0.4983 -0.1596
 2858TIP3    H230066   1.120   5.710   3.202 -1.9827  2.4524 -0.1282
 2859TIP3   OH230067   3.183   6.095  16.560 -0.2284 -0.0840 -0.1977
 2859TIP3    H130068   3.164   6.004  16.542  0.0592 -0.0034 -0.9286
 2859TIP3    H230069   3.232   6.126  16.483  0.4531  0.4404  0.4245
 2860TIP3   OH230070   2.371   2.276  15.716  0.3232  0.4174  0.1035
 2860TIP3    H130071   2.439   2.313  15.773  2.2072 -1.4733 -0.7497
 2860TIP3    H230072   2.349   2.192  15.757  2.1739 -1.2820 -2.0985
 2861TIP3   OH230073   1.083   0.579  16.250  0.6411  0.3749 -0.1021
 2861TIP3    H130074   1.156   0.566  16.191 -0.0123 -0.9326 -0.6545
 2861TIP3    H230075   1.116   0.552  16.336  0.1518 -2.5668 -0.7519
 2862TIP3   OH230076   3.133   0.941   4.068 -0.1945  0.0003 -0.0542
 2862TIP3    H130077   3.124   1.036   4.069 -0.3767 -0.0118  1.0759
 2862TIP3    H230078   3.044   0.908   4.083  0.1758 -0.2876  1.7941
 2863TIP3   OH230079   2.854   6.148   2.899 -0.2624  0.3524 -0.3210
 2863TIP3    H130080   2.778   6.091   2.908  0.5221 -0.4183  2.0106
 2863TIP3    H230081   2.906   6.107   2.830 -1.6805  0.6347 -1.6194
 2864TIP3   OH230082   4.253   0.007  11.581 -0.3407 -0.4538 -0.1025
 2864TIP3    H130083   4.302   0.017  11.499 -0.9035  0.5813 -0.3319
 2864TIP3    H230084   4.312  -0.043  11.638  0.5982 -0.0484 -0.6854
 2865TIP3   OH230085   5.603   1.944   0.004 -0.1265  0.3041 -0.3225
 2865TIP3    H130086   5.534   1.891   0.044 -0.3953  1.5616  0.9975
 2865TIP3    H230087   5.684   1.896   0.022 -0.4367 -0.0321  0.2153
 2866TIP3   OH230088   2.688   4.385   1.587  0.0702  0.2064  0.9273
 2866TIP3    H130089   2.762   4.378   1.647  1.3834  1.3984 -0.4695
 2866TIP3    H230090   2.642   4.465   1.615  0.4934  0.5801  0.5758
 2867TIP3   OH230091   0.642   2.561   5.628  0.6446 -0.1488 -0.0593
 2867TIP3    H130092   0.731   2.529   5.646  0.7791 -0.3149 -0.9603
 2867TIP3    H230093   0.653   2.655   5.613  1.2098 -0.5923 -3.2097
 2868TIP3   OH230094   0.915   4.536  12.976  0.0762 -0.6398  0.2308
 2868TIP3    H130095   1.001   4.566  12.948 -0.0514 -1.4517 -1.1117
 2868TIP3    H230096   0.870   4.616  13.004  1.3241 -0.2374  1.2163
 2869TIP3   OH230097   3.513   2.234   0.650 -0.1127 -0.1025 -0.0253
 2869TIP3    H130098   3.577   2.163   0.645 -0.2709 -0.3443  1.2181
 2869TIP3    H230099   3.529   2.285   0.570  0.5126 -1.0917 -0.5593
 2870TIP3   OH230100   5.631   0.669   3.192  0.6828 -0.0990  0.1705
 2870TIP3    H130101   5.644   0.590   3.244  2.0864 -0.3486 -0.5154
 2870TIP3    H230102   5.552   0.709   3.229 -0.6694 -2.3329 -0.1652
 2871TIP3   OH230103   3.773   0.091   3.412  0.2411 -0.9048 -0.4241
 2871TIP3    H130104   3.730   0.050   3.487  1.4564  0.0054  0.8353
 2871TIP3    H230105   3.705   0.141   3.369 -0.6193 -1.9340 -0.2912
 2872TIP3   OH230106   5.547   0.926  11.607 -0.4660  0.2155  0.3168
 2872TIP3    H130107   5.541   1.011  11.651  2.1544 -1.5479  4.6654
 2872TIP3    H230108   5.490   0.868  11.658  2.8409 -1.9843  1.8624
 2873TIP3   OH230109   1.690   3.653  14.456 -0.1950 -0.2152 -0.0752
 2873TIP3    H130110   1.769   3.699  14.427 -0.4233  0.1545 -0.1189
 2873TIP3    H230111   1.623   3.721  14.460 -0.5081 -0.5248 -0.0232
 2874TIP3   OH230112   6.284   3.427  11.700  0.1912 -0.5809  0.1911
 2874TIP3    H130113   6.372   3.390  11.698  0.7146  0.6172  0.3734
 2874TIP3    H230114   6.232   3.363  11.748  0.7330 -1.7520 -0.7245
 2875TIP3   OH230115   1.558   0.344  14.371  0.0480 -0.5345  0.3829
 2875TIP3    H130116   1.508   0.313  14.295  0.1463 -0.6877  0.3806
 2875TIP3    H230117   1.560   0.439  14.361  2.0996 -0.6672 -1.1112
 2876TIP3   OH230118   3.150   2.790   2.074  0.3758 -0.3111 -0.7508
 2876TIP3    H130119   3.109   2.769   1.990  0.3163  0.0027 -0.8005
 2876TIP3    H230120   3.183   2.879   2.063 -1.7003  0.6612  0.3363
 2877TIP3   OH230121   4.480   2.768   4.758  0.0625 -0.0963  0.5495
 2877TIP3    H130122   4.561   2.812   4.733 -0.6662  1.5691  0.9728
 2877TIP3    H230123   4.439   2.743   4.675  0.2762  0.4496  0.2730
 2878TIP3   OH230124   0.173   2.044   3.995  0.3558  0.1710  0.4512
 2878TIP3    H130125   0.207   1.955   3.994  0.3059  0.1499  0.5850
 2878TIP3    H230126   0.099   2.040   4.057 -0.5632 -0.0339 -0.6337
 2879TIP3   OH230127   6.772   6.664   5.150 -0.2102 -0.5872  0.5554
 2879TIP3    H130128   6.710   6.608   5.102  1.0586 -2.0368  0.5262
 2879TIP3    H230129   6.782   6.741   5.095 -0.9541 -0.9417 -0.0993
 2880TIP3   OH230130   6.455   3.820  16.131  0.3253  0.3937  0.2929
 2880TIP3    H130131   6.550   3.818  16.147  0.5740 -2.0712 -1.0607
 2880TIP3    H230132   6.446   3.855  16.043  0.0595 -0.4279 -0.0080
 2881TIP3   OH230133   1.572   0.370   0.863 -0.4385  0.0572  0.2187
 2881TIP3    H130134   1.481   0.338   0.866 -0.5240  0.2627 -0.1962
 2881TIP3    H230135   1.571   0.448   0.918 -0.8162  0.8071 -0.8168
 2882TIP3   OH230136   6.283   1.544   2.653  0.4692  0.1065 -0.4297
 2882TIP3    H130137   6.311   1.460   2.616  0.8052  0.6713 -1.5276
 2882TIP3    H230138   6.286   1.604   2.578 -0.6016  0.9000  0.1456
 2883TIP3   OH230139   0.407   3.596  10.644 -0.5819 -0.6740  0.1761
 2883TIP3    H130140   0.361   3.588  10.561 -1.0134  0.0683  0.3417
 2883TIP3    H230141   0.343   3.571  10.710 -0.7115  0.1911  0.3928
 2884TIP3   OH230142   0.649   5.430   0.113 -0.2019 -0.5136  0.4755
 2884TIP3    H130143   0.708   5.505   0.105  0.2706 -0.8320  0.9041
 2884TIP3    H230144   0.705   5.354   0.099 -0.3765 -0.8481  1.4941
 2885TIP3   OH230145   5.006   5.751   3.856  0.5660  0.3857 -0.2288
 2885TIP3    H130146   4.985   5.735   3.765  1.2471  0.9057 -0.4867
 2885TIP3    H230147   5.003   5.847   3.865 -1.5613  0.2852  0.8024
 2886TIP3   OH230148   4.051   3.039  11.014  0.0661 -0.5205  0.6187
 2886TIP3    H130149   4.034   3.133  11.010  0.0361 -0.5335  0.4057
 2886TIP3    H230150   3.983   3.000  10.958  1.3684 -0.5030 -1.0589
 2887TIP3   OH230151   5.946   3.505   4.670 -0.0993 -0.0138 -0.3718
 2887TIP3    H130152   5.936   3.492   4.765 -1.9070 -1.7771 -0.7379
 2887TIP3    H230153   5.885   3.443   4.631  1.0997  0.1896 -2.7387
 2888TIP3   OH230154   0.302   4.231   1.405 -0.6380  0.3276 -0.3825
 2888TIP3    H130155   0.244   4.170   1.451  1.8034 -2.2004 -0.3255
 2888TIP3    H230156   0.348   4.278   1.475 -2.0636  1.8507 -0.4216
 2889TIP3   OH230157   3.013   1.773   1.221  0.1945  0.0651 -0.0132
 2889TIP3    H130158   2.928   1.816   1.232 -0.2936 -0.4953 -1.3049
 2889TIP3    H230159   3.036   1.740   1.308 -1.3871 -0.6086  0.1816
 2890TIP3   OH230160   5.657   4.702   3.888  0.0526  0.3144  0.1694
 2890TIP3    H130161   5.601   4.757   3.834  0.0430 -0.1180 -0.2684
 2890TIP3    H230162   5.745   4.737   3.875  0.0708  0.1141 -0.2508
 2891TIP3   OH230163   6.340   5.748   3.999 -0.0495 -0.2727  0.2010
 2891TIP3    H130164   6.374   5.726   4.086  0.2922 -0.7352 -0.0395
 2891TIP3    H230165   6.245   5.755   4.011  0.1746  2.1753  1.1292
 2892TIP3   OH230166   3.731   5.748   2.712 -0.2302  0.1811  0.3441
 2892TIP3    H130167   3.705   5.658   2.692 -3.1060  0.7512  1.1493
 2892TIP3    H230168   3.675   5.775   2.784  1.1624  2.3622  0.7217
 2893TIP3   OH230169   0.607   5.313   5.579 -0.4061 -0.0050  0.0164
 2893TIP3    H130170   0.644   5.371   5.645 -1.6211  1.8387 -0.8056
 2893TIP3    H230171   0.682   5.269   5.540  0.4615  0.1670  1.4343
 2894TIP3   OH230172   6.785   1.813   4.017 -0.2617 -0.2387 -0.1826
 2894TIP3    H130173   6.875   1.813   3.986 -0.3344  1.3071 -0.4821
 2894TIP3    H230174   6.783   1.882   4.083 -1.3273  0.0657 -0.5171
 2895TIP3   OH230175   2.350   2.593   6.724  0.4139  0.4230 -0.0333
 2895TIP3    H130176   2.285   2.583   6.793 -0.5815  2.0932 -0.6705
 2895TIP3    H230177   2.425   2.542   6.754  0.2547  1.5788  2.5926
 2896TIP3   OH230178   0.999   6.490  13.328  0.9555 -0.0298  0.1923
 2896TIP3    H130179   0.947   6.513  13.405 -0.3314 -0.2542 -0.5857
 2896TIP3    H230180   1.080   6.452  13.364 -1.2361 -3.9851  1.5181
 2897TIP3   OH230181   4.210   2.241   4.309 -0.4159  0.3720  0.7884
 2897TIP3    H130182   4.212   2.208   4.399  0.6548 -0.6957  0.3866
 2897TIP3    H230183   4.288   2.204   4.268 -2.6744 -2.1355 -1.6211
 2898TIP3   OH230184   0.055   3.669   4.042 -0.0064  0.2251 -0.1999
 2898TIP3    H130185   0.064   3.713   4.127  2.5157  0.4580 -0.5298
 2898TIP3    H230186   0.126   3.605   4.041 -1.0980 -1.0270 -1.4353
 2899TIP3   OH230187   6.707   4.272  14.711  0.7535  0.3537 -0.3047
 2899TIP3    H130188   6.655   4.287  14.633 -0.3245  2.4923  0.7496
 2899TIP3    H230189   6.726   4.178  14.710 -1.8070 -0.2180 -1.5345
 2900TIP3   OH230190   4.128   1.656   5.949  0.0448  0.1790  0.4415
 2900TIP3    H130191   4.113   1.705   6.031 -0.2495  1.6787 -0.4730
 2900TIP3    H230192   4.206   1.697   5.912 -0.5553  0.3700 -0.6352
 2901TIP3   OH230193   3.395   1.873  15.982 -0.4515 -0.5475 -0.2299
 2901TIP3    H130194   3.433   1.785  15.985 -1.0101 -0.8034 -0.4175
 2901TIP3    H230195   3.312   1.865  16.029 -0.2423  0.0215  0.2509
 2902TIP3   OH230196   5.198   6.452  15.374 -0.0423 -0.0297  0.0709
 2902TIP3    H130197   5.206   6.406  15.457  1.0337  0.2469  0.1339
 2902TIP3    H230198   5.286   6.486  15.356  0.3650 -2.0582 -2.3384
 2903TIP3   OH230199   0.072   4.020  11.847 -0.7923 -0.8385  0.0286
 2903TIP3    H130200   0.028   3.948  11.803 -1.1252 -0.4934 -0.2132
 2903TIP3    H230201   0.079   3.993  11.938 -0.6667 -1.2901 -0.1121
 2904TIP3   OH230202   3.063   5.907   2.786  0.9666 -0.0155  0.3693
 2904TIP3    H130203   3.015   5.945   2.712  1.3683  0.7541  0.4988
 2904TIP3    H230204   3.147   5.953   2.787  0.8018  0.2976  1.5550
 2905TIP3   OH230205   4.930   2.018  13.366 -0.3318  0.0869  0.5072
 2905TIP3    H130206   4.992   1.949  13.388  1.8603  2.0469  0.8525
 2905TIP3    H230207   4.899   1.996  13.278 -0.0785 -1.5506  0.8113
 2906TIP3   OH230208   2.044   0.970  14.458 -0.4338  0.1222 -0.2796
 2906TIP3    H130209   2.109   0.966  14.528 -1.2454  0.2088  0.5065
 2906TIP3    H230210   1.965   1.005  14.501 -0.8605  0.4611 -1.3082
 2907TIP3   OH230211   4.641   5.651   0.232  0.0728  0.1778 -0.1954
 2907TIP3    H130212   4.664   5.690   0.148  2.0856 -1.2870 -0.3987
 2907TIP3    H230213   4.679   5.709   0.298  1.9147 -0.6573 -0.4580
 2908TIP3   OH230214   3.119   6.151  11.293  0.5318 -0.1918  0.3943
 2908TIP3    H130215   3.060   6.226  11.294 -1.2640 -1.4420 -1.5926
 2908TIP3    H230216   3.180   6.169  11.221  2.3742  0.8518  2.1051
 2909TIP3   OH230217   0.287   2.445   4.975  0.0219  0.4717 -0.3690
 2909TIP3    H130218   0.345   2.417   5.046 -0.0729 -0.1058 -0.5162
 2909TIP3    H230219   0.225   2.373   4.964 -0.2236  0.7373 -0.7578
 2910TIP3   OH230220   4.833   0.656   3.471 -0.2485  0.7610 -0.5802
 2910TIP3    H130221   4.843   0.657   3.566  0.3781  0.5855 -0.6382
 2910TIP3    H230222   4.739   0.646   3.457 -0.3463  0.7820  0.0187
 2911TIP3   OH230223   5.791   2.206   2.641 -0.6953  0.8661 -0.2650
 2911TIP3    H130224   5.733   2.189   2.716  0.6900  3.5503  1.6024
 2911TIP3    H230225   5.741   2.177   2.565 -1.6161 -3.4926  1.6812
 2912TIP3   OH230226   2.278   2.653  12.966  0.1684  0.4832 -0.4644
 2912TIP3    H130227   2.360   2.604  12.957 -0.4413 -0.7157  0.1453
 2912TIP3    H230228   2.259   2.684  12.878  2.1879  2.3663 -0.3197
 2913TIP3   OH230229   4.431   4.187   1.412 -0.3136  0.2457 -0.0978
 2913TIP3    H130230   4.503   4.246   1.385  1.2800  0.1032  3.3609
 2913TIP3    H230231   4.353   4.243   1.410  0.5928  1.5758 -0.0178
 2914TIP3   OH230232   3.335   6.739  14.107  0.7503  0.4736  0.2830
 2914TIP3    H130233   3.396   6.670  14.133  0.0688  0.2909  1.4772
 2914TIP3    H230234   3.258   6.691  14.073  0.2327  0.6263  1.2149
 2915TIP3   OH230235   0.492   3.019   2.859 -0.2779 -0.1795 -0.3348
 2915TIP3    H130236   0.518   2.994   2.770 -1.3165 -0.0910 -0.6749
 2915TIP3    H230237   0.547   2.965   2.916  1.4099  0.7761 -0.9926
 2916TIP3   OH230238   5.555   2.067   1.423 -0.1885 -0.7295 -0.1339
 2916TIP3    H130239   5.577   2.060   1.330  1.4724  0.5695  0.1199
 2916TIP3    H230240   5.638   2.086   1.466 -1.1127 -0.1869  1.4975
 2917TIP3   OH230241   4.619   5.420  12.040 -0.2863  0.5495  0.0279
 2917TIP3    H130242   4.524   5.429  12.051 -0.7358 -1.6747 -1.3518
 2917TIP3    H230243   4.633   5.325  12.031  1.8034  0.9576 -1.9629
 2918TIP3   OH230244   2.624   6.484  14.272  0.3723  0.3242  0.1809
 2918TIP3    H130245   2.695   6.435  14.314 -0.5898 -0.6626  0.6907
 2918TIP3    H230246   2.584   6.421  14.213  0.1029  0.9711 -0.3286
 2919TIP3   OH230247   2.488   1.968   4.428 -0.1938  0.0039 -0.5080
 2919TIP3    H130248   2.516   2.051   4.466 -0.5834  0.1845 -0.6075
 2919TIP3    H230249   2.531   1.964   4.342  0.3164 -0.1878 -0.2447
 2920TIP3   OH230250   4.140   0.932   4.467 -0.3260 -0.5443  0.5247
 2920TIP3    H130251   4.066   0.937   4.528 -0.8773 -1.5421 -0.0494
 2920TIP3    H230252   4.217   0.933   4.523 -0.7908 -0.2894  1.1752
 2921TIP3   OH230253   0.914   3.458   5.484  0.5102  0.1363 -0.1006
 2921TIP3    H130254   0.899   3.413   5.401  1.7178 -1.9485  0.7515
 2921TIP3    H230255   0.952   3.542   5.458 -2.4205  1.1117 -1.7546
 2922TIP3   OH230256   3.210   4.293  12.140 -0.1501 -1.0307 -0.3290
 2922TIP3    H130257   3.156   4.250  12.206 -0.7325 -2.3095 -1.5945
 2922TIP3    H230258   3.183   4.254  12.057  2.4357 -1.4268 -1.0647
 2923TIP3   OH230259   6.835   1.806   5.554 -0.0922 -0.1374 -0.1623
 2923TIP3    H130260   6.909   1.766   5.508  0.5104 -1.6962  2.0186
 2923TIP3    H230261   6.771   1.736   5.562  0.1093 -0.1246  1.9131
 2924TIP3   OH230262   0.726   5.808   6.788 -0.2988  0.1522 -0.2957
 2924TIP3    H130263   0.796   5.744   6.785 -0.5931 -0.2608  0.9789
 2924TIP3    H230264   0.763   5.887   6.749  1.0585  0.1049  0.8107
 2925TIP3   OH230265   1.992   3.448  16.721 -0.1691  0.0579 -0.1370
 2925TIP3    H130266   2.057   3.505  16.679 -0.0303  0.0520  0.0684
 2925TIP3    H230267   2.004   3.363  16.679 -0.2978  0.1499 -0.3625
 2926TIP3   OH230268   0.714   3.012  10.792 -0.0392  0.0527  0.5455
 2926TIP3    H130269   0.684   2.965  10.715 -1.5412  0.3131  0.9418
 2926TIP3    H230270   0.716   3.104  10.766 -0.2076  0.1040  0.7085
 2927TIP3   OH230271   3.847   3.434   4.688 -0.2284 -0.3140  0.4477
 2927TIP3    H130272   3.914   3.422   4.620 -1.2048  0.5015 -0.7022
 2927TIP3    H230273   3.862   3.363   4.750  0.3538 -1.4094 -0.9036
 2928TIP3   OH230274   5.844   2.959   0.163 -0.3293  0.5130  0.0229
 2928TIP3    H130275   5.814   2.922   0.080  0.7453 -0.6241  0.1041
 2928TIP3    H230276   5.778   2.933   0.227  0.2256 -1.0489  0.0118
 2929TIP3   OH230277   5.720   4.243   2.067  0.0749  0.0299  0.2233
 2929TIP3    H130278   5.737   4.211   2.155  0.9819  1.6558  0.6868
 2929TIP3    H230279   5.773   4.187   2.010  1.7908  0.7739  1.0268
 2930TIP3   OH230280   4.606   4.235  15.255 -0.3943 -0.4446  0.2112
 2930TIP3    H130281   4.537   4.225  15.321  0.3868 -1.2858  0.9446
 2930TIP3    H230282   4.639   4.146  15.243 -1.0221 -0.4439 -1.9178
 2931TIP3   OH230283   1.854   3.016  13.060 -0.4130 -0.2902 -0.8052
 2931TIP3    H130284   1.855   3.019  13.155  2.1340 -1.4548 -0.7104
 2931TIP3    H230285   1.790   2.949  13.038  0.2500 -1.2642  0.1869
 2932TIP3   OH230286   6.662   2.242  15.910 -0.2756  0.4831  0.2827
 2932TIP3    H130287   6.735   2.295  15.944 -1.3225  2.4947 -0.4365
 2932TIP3    H230288   6.589   2.260  15.969 -0.4944 -0.7284  0.4128
 2933TIP3   OH230289   0.955   0.832   6.840 -0.3804 -0.0752  0.4394
 2933TIP3    H130290   0.865   0.799   6.850 -0.5051  0.3482  0.7386
 2933TIP3    H230291   0.944   0.923   6.814 -0.0348 -0.2292 -0.2850
 2934TIP3   OH230292   4.585   1.152   3.114 -0.1714  0.4577 -0.3920
 2934TIP3    H130293   4.671   1.194   3.121  0.1491 -0.1893 -0.3498
 2934TIP3    H230294   4.525   1.213   3.158  0.8711 -0.8267  3.2100
 2935TIP3   OH230295   0.682   1.452   4.963 -0.1864  0.4824  0.8257
 2935TIP3    H130296   0.664   1.541   4.993  0.6211  0.8460  0.2463
 2935TIP3    H230297   0.597   1.419   4.935 -0.4806  1.0975  0.9701
 2936TIP3   OH230298   4.111   1.022  12.217  0.0382 -0.1313  0.0464
 2936TIP3    H130299   4.202   0.993  12.219 -0.3508 -1.4198  1.5807
 2936TIP3    H230300   4.100   1.064  12.132  1.7171 -1.1265 -0.6936
 2937TIP3   OH230301   0.974   1.582   0.760 -0.1675  0.1321 -0.5796
 2937TIP3    H130302   0.939   1.501   0.797 -1.9621  1.3904  0.6581
 2937TIP3    H230303   0.928   1.593   0.677  1.1289 -0.7737 -1.4765
 2938TIP3   OH230304   4.877   0.546  13.314  0.1357 -0.0732 -0.5409
 2938TIP3    H130305   4.829   0.467  13.289 -1.2098 -0.1347  1.9385
 2938TIP3    H230306   4.826   0.617  13.275  0.1624 -0.3112 -1.0249
 2939TIP3   OH230307   0.421   2.242  14.148  0.3867 -0.1697 -0.2837
 2939TIP3    H130308   0.408   2.329  14.185  0.4187 -1.0484  1.9464
 2939TIP3    H230309   0.418   2.183  14.223 -0.8155 -2.2408 -1.8303
 2940TIP3   OH230310   3.701   3.288   2.722  0.4591  0.0722  1.0239
 2940TIP3    H130311   3.625   3.345   2.733 -0.6618 -1.0934 -0.3428
 2940TIP3    H230312   3.775   3.348   2.711 -0.3993  1.2326  1.4423
 2941TIP3   OH230313   3.558   5.499  14.329  0.1410  0.6223  0.4503
 2941TIP3    H130314   3.625   5.447  14.372  1.7553  1.3309 -1.1043
 2941TIP3    H230315   3.549   5.461  14.241 -1.7496  0.3487  0.7073
 2942TIP3   OH230316   3.699   0.298  15.237 -0.0957 -0.7862  0.3395
 2942TIP3    H130317   3.750   0.359  15.290 -0.1939 -0.1385 -0.2993
 2942TIP3    H230318   3.623   0.277  15.292  1.3651 -2.6510  1.7707
 2943TIP3   OH230319   4.235   4.321   3.729  0.1553  0.1541  0.3277
 2943TIP3    H130320   4.247   4.342   3.636 -0.8729  0.1266  0.1805
 2943TIP3    H230321   4.249   4.226   3.734  0.3627  0.1780  0.2372
 2944TIP3   OH230322   1.552   3.669  12.017  0.1889 -0.6601 -0.2765
 2944TIP3    H130323   1.459   3.690  12.007 -0.0977 -2.1482 -0.9011
 2944TIP3    H230324   1.553   3.584  12.061  1.2559 -0.8954 -0.7330
 2945TIP3   OH230325   2.402   6.205  16.220  0.0894  0.3330 -0.2619
 2945TIP3    H130326   2.321   6.154  16.222  0.0371  0.3064 -1.6715
 2945TIP3    H230327   2.413   6.227  16.127  1.1343  1.2424  0.0673
 2946TIP3   OH230328   6.209   1.903   5.294  0.1549 -0.4613 -0.2443
 2946TIP3    H130329   6.208   1.808   5.304 -0.9455 -0.3736  0.6656
 2946TIP3    H230330   6.150   1.935   5.362  0.0029  0.8404 -0.9537
 2947TIP3   OH230331   2.311   5.547  10.568  0.3786  0.1817 -0.0876
 2947TIP3    H130332   2.322   5.631  10.612  2.3836  0.7239 -1.4696
 2947TIP3    H230333   2.217   5.540  10.553 -0.1844  0.7592  2.6125
 2948TIP3   OH230334   3.187   6.099  13.636 -1.1197  0.6216  0.2956
 2948TIP3    H130335   3.108   6.144  13.606 -1.2142  0.6715  0.6193
 2948TIP3    H230336   3.156   6.028  13.691 -0.9957  4.1059  5.5859
 2949TIP3   OH230337   3.259   1.632  17.129 -0.4581  0.2003 -0.4668
 2949TIP3    H130338   3.280   1.652  17.220  0.1316  1.1642 -0.8072
 2949TIP3    H230339   3.210   1.708  17.098  0.7388  0.6148 -1.4124
 2950TIP3   OH230340   6.434   3.792  11.493  0.0835  0.1145 -0.8515
 2950TIP3    H130341   6.517   3.763  11.455  1.0370  0.5660  0.8099
 2950TIP3    H230342   6.427   3.745  11.576 -1.8408 -0.6646 -1.3963
 2951TIP3   OH230343   1.475   3.643  11.334 -0.6837  0.4257 -0.1214
 2951TIP3    H130344   1.489   3.700  11.259 -0.0034 -0.6083 -0.8006
 2951TIP3    H230345   1.425   3.569  11.299 -0.0089 -0.2623  0.3486
 2952TIP3   OH230346   6.377   6.623  14.572  0.4646  0.0874 -0.0936
 2952TIP3    H130347   6.298   6.614  14.625  1.8460 -0.4971  2.0015
 2952TIP3    H230348   6.364   6.704  14.522 -2.0684 -0.8012 -1.0216
 2953TIP3   OH230349   1.864   5.554   5.814 -0.0069  0.3572 -0.2669
 2953TIP3    H130350   1.797   5.590   5.757  0.1334 -0.4798 -0.9922
 2953TIP3    H230351   1.819   5.532   5.895 -0.4130  0.6749 -0.4095
 2954TIP3   OH230352   3.253   5.689  15.146  0.1616  0.8211  0.4120
 2954TIP3    H130353   3.334   5.727  15.181  0.3650  0.8850 -0.1156
 2954TIP3    H230354   3.253   5.599  15.179  0.9030  0.5435 -0.2935
 2955TIP3   OH230355   3.446   5.205   4.495 -0.1792 -0.4409  0.4185
 2955TIP3    H130356   3.387   5.131   4.510 -1.3663  0.0535 -1.5536
 2955TIP3    H230357   3.529   5.165   4.470 -0.6818 -1.1201 -0.1905
 2956TIP3   OH230358   6.339   0.998  12.936 -0.1929 -0.1433 -0.6903
 2956TIP3    H130359   6.410   1.023  12.878 -0.9476  0.2195 -1.4946
 2956TIP3    H230360   6.348   1.056  13.012 -0.6387  1.1288 -1.5673
 2957TIP3   OH230361   0.089   3.288  15.331  0.2201 -0.2061 -0.3019
 2957TIP3    H130362   0.026   3.218  15.347 -0.9604  1.1958  1.5723
 2957TIP3    H230363   0.169   3.259  15.375  0.2003 -1.0045 -0.7803
 2958TIP3   OH230364   2.982   4.283   3.939  0.2205 -0.0968 -0.4403
 2958TIP3    H130365   2.991   4.342   3.864 -0.4765 -0.2461 -0.6498
 2958TIP3    H230366   2.955   4.340   4.011 -1.2329 -0.2501 -0.8321
 2959TIP3   OH230367   5.897   2.156   4.879 -0.3482  0.3085 -0.1518
 2959TIP3    H130368   5.923   2.202   4.959 -1.8924 -3.4103  2.8173
 2959TIP3    H230369   5.973   2.104   4.856 -1.2746 -2.1257  1.8572
 2960TIP3   OH230370   1.528   6.093  12.561 -0.3186  0.4690  0.4762
 2960TIP3    H130371   1.456   6.107  12.499  0.5421 -0.0720 -0.6809
 2960TIP3    H230372   1.596   6.153  12.533  0.3311 -0.2577  0.4572
 2961TIP3   OH230373   6.621   1.652   2.243 -0.8230  0.2976  0.3329
 2961TIP3    H130374   6.611   1.708   2.320 -0.8267 -0.4760  0.9043
 2961TIP3    H230375   6.647   1.567   2.278  0.3139  0.2331 -0.6059
 2962TIP3   OH230376   6.199   5.973   2.566  0.2364 -0.2089 -0.0120
 2962TIP3    H130377   6.162   6.051   2.524  2.2123  0.4142 -0.6668
 2962TIP3    H230378   6.191   5.904   2.500  0.0185 -0.1520 -0.0463
 2963TIP3   OH230379   2.252   0.690  17.131  0.6695  0.2784  0.2362
 2963TIP3    H130380   2.240   0.623  17.199  0.8905 -0.0105 -0.0054
 2963TIP3    H230381   2.251   0.773  17.179  1.9118  0.0266  0.7412
 2964TIP3   OH230382   2.946   2.246  14.017 -0.8624  0.3667 -0.2692
 2964TIP3    H130383   2.913   2.286  13.937  0.0487  3.0562  0.5716
 2964TIP3    H230384   3.019   2.192  13.989 -1.9889 -0.5930 -1.4600
 2965TIP3   OH230385   6.246   3.152   1.397  0.3382  0.0446  0.0255
 2965TIP3    H130386   6.172   3.100   1.431 -0.6753  1.6160  0.3379
 2965TIP3    H230387   6.309   3.153   1.469 -0.0215 -0.0354  0.3459
 2966TIP3   OH230388   1.764   0.862   4.865 -0.0812  0.0527 -0.0370
 2966TIP3    H130389   1.860   0.858   4.869 -0.0671  0.0894 -0.3510
 2966TIP3    H230390   1.736   0.825   4.949  0.2525  2.2998  1.1461
 2967TIP3   OH230391   4.177   3.445  12.219 -0.2091  0.8212  0.3020
 2967TIP3    H130392   4.162   3.376  12.153  1.1680 -1.2396  1.9878
 2967TIP3    H230393   4.225   3.513  12.172 -2.0053  0.9119 -1.5477
 2968TIP3   OH230394   3.758   1.049  12.920  0.2615 -0.6628  0.2640
 2968TIP3    H130395   3.726   0.973  12.969  0.9821 -1.1302  0.0239
 2968TIP3    H230396   3.837   1.076  12.966 -0.2929  0.2981  0.6741
 2969TIP3   OH230397   2.596   2.204  16.795  0.0535  0.2654  0.0054
 2969TIP3    H130398   2.556   2.201  16.882  0.7396 -0.0402  0.3180
 2969TIP3    H230399   2.584   2.116  16.760 -0.5653  0.4925 -0.3781
 2970TIP3   OH230400   4.046   3.598   1.532 -0.3106  0.1488 -0.0815
 2970TIP3    H130401   4.126   3.547   1.546 -0.7522 -0.2394  1.2025
 2970TIP3    H230402   3.976   3.543   1.569 -1.1506  0.5545 -1.0306
 2971TIP3   OH230403   6.321   5.625   1.057  0.3246  0.8601 -0.4982
 2971TIP3    H130404   6.288   5.715   1.051 -0.1882  0.6352 -1.1832
 2971TIP3    H230405   6.314   5.591   0.968 -0.1573 -0.0958 -0.1151
 2972TIP3   OH230406   4.368   3.780  14.792 -0.1632 -0.2473  0.0490
 2972TIP3    H130407   4.381   3.872  14.817 -0.6743  0.0516 -0.7581
 2972TIP3    H230408   4.348   3.783  14.698  1.5699 -1.3286 -0.3912
 2973TIP3   OH230409   0.976   5.233   2.456  0.2372  0.2801 -0.2539
 2973TIP3    H130410   0.929   5.201   2.379  0.8973 -0.3995 -0.3822
 2973TIP3    H230411   0.911   5.285   2.504 -0.3708  0.1399 -0.9128
 2974TIP3   OH230412   3.145   5.883  14.438 -0.2360 -0.0341  0.2564
 2974TIP3    H130413   3.158   5.937  14.516 -0.4104  0.8289 -0.2981
 2974TIP3    H230414   3.214   5.817  14.443  0.5807  0.8158  0.4673
 2975TIP3   OH230415   4.643   0.415   5.229  0.5028 -0.1118 -0.2253
 2975TIP3    H130416   4.621   0.340   5.285 -0.0343 -0.7998 -1.3189
 2975TIP3    H230417   4.618   0.387   5.141  0.8151  1.1536 -0.7372
 2976TIP3   OH230418   6.567   0.095  13.712  0.2739 -0.0885 -0.0030
 2976TIP3    H130419   6.597   0.146  13.637  0.7682 -0.3618  0.0080
 2976TIP3    H230420   6.645   0.050  13.743  0.2751  0.7089  1.2209
 2977TIP3   OH230421   6.432   1.863  13.842 -0.1936 -0.0028  0.2759
 2977TIP3    H130422   6.503   1.922  13.866  1.6256 -1.7788 -0.4050
 2977TIP3    H230423   6.442   1.787  13.900 -0.7699 -0.8101 -0.6384
 2978TIP3   OH230424   1.539   4.850   3.664  0.2641 -0.1657 -0.3064
 2978TIP3    H130425   1.581   4.919   3.612 -2.5776  1.0674 -1.1154
 2978TIP3    H230426   1.613   4.798   3.696  2.3608  1.1643 -2.5365
 2979TIP3   OH230427   0.737   4.837   4.188  0.0972 -0.9635 -0.5898
 2979TIP3    H130428   0.729   4.776   4.115  1.3113  0.9982 -2.5089
 2979TIP3    H230429   0.669   4.902   4.173  0.0071 -0.8260  0.3516
 2980TIP3   OH230430   5.097   3.379  11.701 -0.2881  0.2454 -0.3755
 2980TIP3    H130431   5.152   3.310  11.665 -2.3558 -0.5119 -2.3114
 2980TIP3    H230432   5.159   3.444  11.735  1.7284 -1.6309 -0.2328
 2981TIP3   OH230433   0.154   1.451  11.346 -0.0094 -0.6037  0.0708
 2981TIP3    H130434   0.200   1.368  11.334  0.3418 -0.6017  1.2564
 2981TIP3    H230435   0.075   1.428  11.395 -0.0267 -0.2792  0.1968
 2982TIP3   OH230436   6.655   2.624  17.104 -0.1791 -0.4153 -0.1358
 2982TIP3    H130437   6.632   2.699  17.158  1.3271 -2.1762  3.2286
 2982TIP3    H230438   6.736   2.650  17.059 -1.3679  1.0178 -1.5395
 2983TIP3   OH230439   5.011   3.555  16.410 -0.2979 -0.2881 -1.0311
 2983TIP3    H130440   5.054   3.581  16.492 -2.8498  1.5803 -0.1585
 2983TIP3    H230441   5.003   3.636  16.360 -0.2459 -1.1206 -2.4345
 2984TIP3   OH230442   3.274   4.432  15.476 -0.0592  0.4495 -0.6097
 2984TIP3    H130443   3.281   4.347  15.520 -0.8089  0.7002  0.0275
 2984TIP3    H230444   3.240   4.491  15.544 -3.0226  0.4703 -1.9501
 2985TIP3   OH230445   4.257   3.460   2.406 -0.0003 -0.1189 -0.0327
 2985TIP3    H130446   4.339   3.473   2.360  0.3447 -1.7362  0.0530
 2985TIP3    H230447   4.221   3.548   2.419  2.7097  0.8382  1.7632
 2986TIP3   OH230448   3.171   0.087  12.282 -0.1395 -0.1480 -0.5804
 2986TIP3    H130449   3.218   0.162  12.246 -1.3144  1.4802  1.0349
 2986TIP3    H230450   3.087   0.087  12.236  0.1531 -0.9463 -1.1101
 2987TIP3   OH230451   3.499   4.118   0.529 -0.3731 -0.2161  0.0248
 2987TIP3    H130452   3.476   4.031   0.560 -0.7106  0.2195  1.0555
 2987TIP3    H230453   3.462   4.123   0.441 -1.6831 -0.5886  0.5286
 2988TIP3   OH230454   5.515   6.332  13.717 -0.5839  0.4393  0.6265
 2988TIP3    H130455   5.578   6.318  13.788 -0.3635  0.8181  0.5088
 2988TIP3    H230456   5.511   6.427  13.707  1.0608  0.3794 -1.3437
 2989TIP3   OH230457   1.468   0.857   0.845 -0.5601 -0.1860 -0.1707
 2989TIP3    H130458   1.424   0.936   0.876 -0.8012 -0.2250 -0.4071
 2989TIP3    H230459   1.445   0.789   0.908 -2.2515 -0.6211 -1.1972
 2990TIP3   OH230460   2.475   4.719  15.639  0.3162  0.1718  0.5142
 2990TIP3    H130461   2.466   4.639  15.691  1.4517 -0.6079 -0.4300
 2990TIP3    H230462   2.398   4.721  15.582 -0.8064  0.8987  1.9770
 2991TIP3   OH230463   1.865   3.382   0.114 -0.2982  0.0305  0.5714
 2991TIP3    H130464   1.882   3.406   0.205 -0.8430 -0.5657  0.8384
 2991TIP3    H230465   1.843   3.464   0.071  1.4584  0.5590  0.6122
 2992TIP3   OH230466   2.044   4.568  15.795  0.4356 -0.3156 -0.2581
 2992TIP3    H130467   1.995   4.647  15.820  0.0875 -0.8916  0.9177
 2992TIP3    H230468   2.124   4.572  15.847  0.3693 -0.7894 -0.1169
 2993TIP3   OH230469   0.548   0.137  10.816  0.2070 -0.4048 -0.2101
 2993TIP3    H130470   0.604   0.184  10.878  1.1740  0.4142 -1.6253
 2993TIP3    H230471   0.548   0.193  10.738 -1.5395 -1.0461 -0.7134
 2994TIP3   OH230472   3.034   5.629  16.281 -0.6620  0.1793  0.0039
 2994TIP3    H130473   3.068   5.572  16.213 -1.5251  1.1002 -1.2331
 2994TIP3    H230474   2.939   5.620  16.275 -0.7512 -0.1810  1.5034
 2995TIP3   OH230475   1.126   6.091   3.980  0.5492 -0.1591 -0.5638
 2995TIP3    H130476   1.142   5.997   3.995  0.3734 -0.2046 -0.6599
 2995TIP3    H230477   1.189   6.135   4.036 -1.3560 -0.3019  1.8996
 2996TIP3   OH230478   0.827   1.136   1.611 -0.2942 -0.3421 -0.3111
 2996TIP3    H130479   0.743   1.180   1.628  0.4727  1.3951 -0.7479
 2996TIP3    H230480   0.802   1.049   1.580 -1.9607  0.2270 -0.7225
 2997TIP3   OH230481   5.513   6.133   5.059 -0.2240 -0.1055 -0.3190
 2997TIP3    H130482   5.440   6.080   5.091  0.6729 -0.6843  0.8780
 2997TIP3    H230483   5.542   6.088   4.980 -0.2065 -0.7736  0.0539
 2998TIP3   OH230484   2.056   6.641   2.158 -0.7944  0.2111  0.1449
 2998TIP3    H130485   2.022   6.577   2.220  0.3768 -1.0118 -0.4259
 2998TIP3    H230486   1.988   6.646   2.090 -0.9238 -0.3595  0.2301
 2999TIP3   OH230487   5.511   4.218  13.638 -0.2039 -0.4878 -0.0538
 2999TIP3    H130488   5.553   4.269  13.707  0.0349  0.8334 -1.1342
 2999TIP3    H230489   5.571   4.225  13.563 -2.1253  1.2792 -1.5678
 3000TIP3   OH230490   1.849   4.714   4.920 -0.2890  0.2907 -0.4593
 3000TIP3    H130491   1.932   4.736   4.878 -0.4604 -0.8541 -1.4753
 3000TIP3    H230492   1.868   4.635   4.970 -0.4201  0.8891  0.5660
 3001TIP3   OH230493   0.637   0.922   4.931  0.1673 -0.2343  0.5657
 3001TIP3    H130494   0.542   0.935   4.931 -0.3124 -2.9085  1.8291
 3001TIP3    H230495   0.651   0.849   4.871  1.2391 -0.6955  1.3297
 3002TIP3   OH230496   4.080   1.237   3.420 -0.3122  0.3228 -0.1724
 3002TIP3    H130497   4.121   1.168   3.368  0.2695  0.5205  0.0211
 3002TIP3    H230498   4.063   1.308   3.357  3.0767  1.7780  0.3596
 3003TIP3   OH230499   5.306   4.369  13.499 -0.0616 -0.1901  0.0849
 3003TIP3    H130500   5.360   4.356  13.421 -0.9070  1.5459 -0.8732
 3003TIP3    H230501   5.351   4.321  13.568  0.7152 -1.8001 -1.4599
 3004TIP3   OH230502   6.076   3.093  16.582  0.3561 -0.0696  0.0248
 3004TIP3    H130503   6.149   3.069  16.640 -1.2007 -0.7424  1.8071
 3004TIP3    H230504   6.046   3.010  16.545 -0.1726  0.0766  0.1208
 3005TIP3   OH230505   4.985   6.324   2.879 -0.0929  0.1104  0.3716
 3005TIP3    H130506   4.949   6.335   2.791 -3.0429  0.1117  1.4680
 3005TIP3    H230507   4.986   6.229   2.894 -0.4375  0.1453  0.6371
 3006TIP3   OH230508   2.358   5.087   3.121  0.4375 -0.1725 -0.5043
 3006TIP3    H130509   2.317   5.066   3.205 -2.5216  0.9215 -1.5505
 3006TIP3    H230510   2.427   5.021   3.112  0.3948 -0.7750  2.4092
 3007TIP3   OH230511   3.060   0.373  13.854  0.3292 -0.0725  0.1748
 3007TIP3    H130512   2.986   0.323  13.889 -0.5396  1.1229  0.1075
 3007TIP3    H230513   3.129   0.363  13.919 -0.6760  0.6681  1.3954
 3008TIP3   OH230514   2.629   1.180  15.581  0.0933 -0.3046 -0.4562
 3008TIP3    H130515   2.619   1.246  15.512 -0.2103 -0.7352 -0.8328
 3008TIP3    H230516   2.687   1.220  15.645 -1.1018  0.8475 -0.0451
 3009TIP3   OH230517   0.166   6.739   4.823  0.8011 -0.8010 -0.2165
 3009TIP3    H130518   0.242   6.792   4.849  0.4009 -0.3337  0.0063
 3009TIP3    H230519   0.176   6.657   4.872  1.1772 -0.7523 -0.2095
 3010TIP3   OH230520   5.096   4.106   2.906  0.0283  0.3886 -0.0268
 3010TIP3    H130521   5.027   4.102   2.973  0.4195  0.3019  0.3717
 3010TIP3    H230522   5.107   4.015   2.878 -1.4538  0.6274 -1.5779
 3011TIP3   OH230523   4.986   4.813  16.772 -0.2129 -0.6745  0.4229
 3011TIP3    H130524   5.003   4.748  16.704 -2.4412 -0.4831 -0.4034
 3011TIP3    H230525   4.923   4.770  16.830 -0.6399  0.2475  0.6521
 3012TIP3   OH230526   2.104   0.765  14.153  0.8324  0.8361  0.2521
 3012TIP3    H130527   2.198   0.749  14.155  1.1697  2.6288  1.4465
 3012TIP3    H230528   2.066   0.688  14.196  1.8420  0.5465  0.6614
 3013TIP3   OH230529   2.670   1.796  10.704 -1.0655 -0.2291  0.5633
 3013TIP3    H130530   2.718   1.726  10.748 -0.3751  0.6382  1.2286
 3013TIP3    H230531   2.579   1.768  10.705 -0.6939 -1.5037  0.0539
 3014TIP3   OH230532   5.181   1.609  13.131  0.0440  1.0399 -0.4405
 3014TIP3    H130533   5.263   1.562  13.120 -0.6934 -0.2200 -0.7810
 3014TIP3    H230534   5.207   1.695  13.162  1.4854  0.6482 -0.4762
 3015TIP3   OH230535   2.690   4.445   3.889 -0.7437 -0.2421 -0.5700
 3015TIP3    H130536   2.748   4.387   3.840  1.2165  0.5448  0.6789
 3015TIP3    H230537   2.749   4.510   3.928 -2.6110  1.2614 -0.1030
 3016TIP3   OH230538   1.539   5.384  14.994 -0.4925  0.1784  0.2025
 3016TIP3    H130539   1.529   5.479  14.991  0.1912  0.2532 -1.9710
 3016TIP3    H230540   1.627   5.370  15.030 -0.2694  0.4167 -0.2416
 3017TIP3   OH230541   3.480   3.016   5.544 -0.0180 -0.5712  0.5900
 3017TIP3    H130542   3.475   2.934   5.594  0.7708 -1.6222 -0.9583
 3017TIP3    H230543   3.459   2.991   5.454  0.0947  0.9660  0.1006
 3018TIP3   OH230544   5.787   5.346   3.044 -0.1180 -0.9453 -0.7104
 3018TIP3    H130545   5.717   5.284   3.021 -0.2454 -0.7247 -0.9188
 3018TIP3    H230546   5.745   5.409   3.103  0.3467 -1.8337  0.6115
 3019TIP3   OH230547   5.361   3.918  15.414 -0.0734 -0.6923  0.1307
 3019TIP3    H130548   5.375   3.833  15.455  1.0107 -0.5846  0.0152
 3019TIP3    H230549   5.359   3.980  15.487  0.3496 -0.6805  0.1367
 3020TIP3   OH230550   4.662   1.527  16.435 -0.1201  0.1105  0.5059
 3020TIP3    H130551   4.605   1.585  16.485 -0.1311  1.2597 -0.7556
 3020TIP3    H230552   4.602   1.466  16.391 -0.1538 -0.4807  1.3588
 3021TIP3   OH230553   2.354   1.504  14.668  0.0427  0.5165 -0.2824
 3021TIP3    H130554   2.361   1.564  14.743  1.1188 -1.5731  1.4003
 3021TIP3    H230555   2.423   1.439  14.683 -0.8026 -0.9162 -2.2278
 3022TIP3   OH230556   2.594   0.883   3.252  0.7766 -0.2693 -0.3861
 3022TIP3    H130557   2.544   0.965   3.248  1.2745  0.0375 -0.3593
 3022TIP3    H230558   2.529   0.815   3.236 -0.0143 -0.0142  1.4846
 3023TIP3   OH230559   5.970   0.488   5.320  0.5445 -0.1395  0.2062
 3023TIP3    H130560   6.001   0.553   5.384 -3.5900  2.5494 -0.1324
 3023TIP3    H230561   5.913   0.430   5.371 -1.2365  0.8300 -0.6050
 3024TIP3   OH230562   4.225   0.878  11.266  0.1726  0.3917 -0.5449
 3024TIP3    H130563   4.174   0.938  11.321  2.3090 -0.2249  2.3523
 3024TIP3    H230564   4.214   0.792  11.307  0.6688 -0.4112 -2.0155
 3025TIP3   OH230565   0.441   0.191  13.443 -0.0295  0.3723  0.1299
 3025TIP3    H130566   0.472   0.256  13.506  3.0832  1.1173 -1.9380
 3025TIP3    H230567   0.489   0.112  13.465 -0.6804 -0.0420  0.0863
 3026TIP3   OH230568   4.158   2.046   1.926  0.1025  0.1217  0.2614
 3026TIP3    H130569   4.229   1.989   1.897  1.1471  1.7245 -0.4350
 3026TIP3    H230570   4.108   2.065   1.846 -0.1994  0.2495  0.4773
 3027TIP3   OH230571   2.041   1.591   5.496  0.2454  0.0593 -0.3801
 3027TIP3    H130572   2.077   1.502   5.496 -1.0655 -0.5462 -2.1712
 3027TIP3    H230573   1.988   1.595   5.575 -0.3786 -1.0810 -0.7166
 3028TIP3   OH230574   5.493   6.680   2.376  0.0955 -0.2358 -0.3065
 3028TIP3    H130575   5.476   6.656   2.285  1.0803 -0.6413 -0.3872
 3028TIP3    H230576   5.586   6.661   2.390 -0.0571 -0.2461  0.8036
 3029TIP3   OH230577   4.397   5.257   3.197 -0.4312 -0.6643 -0.0930
 3029TIP3    H130578   4.338   5.193   3.238 -1.8827 -0.4355 -1.7265
 3029TIP3    H230579   4.357   5.276   3.112  1.1365  0.7811 -0.5630
 3030TIP3   OH230580   0.278   3.859   1.020  0.5641 -0.2203 -0.1529
 3030TIP3    H130581   0.291   3.940   1.069 -0.9593 -0.1631  0.1807
 3030TIP3    H230582   0.282   3.886   0.928  0.0355  0.2441 -0.0447
 3031TIP3   OH230583   3.151   1.087  11.646 -0.0007 -0.1262  0.4362
 3031TIP3    H130584   3.168   0.994  11.631  1.8674  0.2687 -0.2246
 3031TIP3    H230585   3.222   1.115  11.704  0.9445  1.3712 -1.3189
 3032TIP3   OH230586   5.745   2.998   5.508 -0.2510  0.1302 -0.7730
 3032TIP3    H130587   5.673   3.039   5.461 -0.8071 -0.7716 -0.7274
 3032TIP3    H230588   5.764   2.918   5.459 -1.2329 -1.1392  0.8234
 3033TIP3   OH230589   3.224   3.324  11.908  0.4199 -0.5656  0.2353
 3033TIP3    H130590   3.209   3.230  11.894  0.0393 -0.4920  0.1350
 3033TIP3    H230591   3.139   3.358  11.936  0.6321 -0.3050  0.5741
 3034TIP3   OH230592   5.297   2.370  16.953 -0.6844  0.4267 -0.2957
 3034TIP3    H130593   5.215   2.326  16.972 -0.4007 -0.2104 -0.5142
 3034TIP3    H230594   5.360   2.299  16.938 -0.0782  0.9001 -0.0609
 3035TIP3   OH230595   5.029   3.308   3.632  0.4562  0.5149 -0.3652
 3035TIP3    H130596   5.072   3.390   3.654  1.7958 -0.1475 -0.4489
 3035TIP3    H230597   5.049   3.294   3.540  2.2429 -1.0465  0.2089
 3036TIP3   OH230598   0.128   0.187  12.825  0.3408 -0.1738  0.5854
 3036TIP3    H130599   0.161   0.252  12.763  2.0792 -0.2049  1.4160
 3036TIP3    H230600   0.037   0.172  12.798  0.3006  1.6220 -0.4065
 3037TIP3   OH230601   2.207   0.603   2.954  0.0738  0.3040 -0.1363
 3037TIP3    H130602   2.120   0.637   2.974  0.3409  0.1176  1.4644
 3037TIP3    H230603   2.265   0.679   2.965  0.2536  0.1410  0.0591
 3038TIP3   OH230604   3.004   3.271   1.961  0.1841  0.3805  0.2177
 3038TIP3    H130605   2.980   3.332   1.892 -2.0985 -0.1743  0.4625
 3038TIP3    H230606   2.980   3.185   1.927  1.3328 -0.1875  0.7551
 3039TIP3   OH230607   4.816   0.467  15.320  0.4343  0.3166  0.6954
 3039TIP3    H130608   4.833   0.453  15.227 -0.3188  1.3923  0.3649
 3039TIP3    H230609   4.739   0.525  15.321  0.5204  0.4331  1.9840
 3040TIP3   OH230610   2.593   3.860  13.595  0.4082  0.1036  0.0798
 3040TIP3    H130611   2.497   3.860  13.604  0.4386 -1.3365  0.8629
 3040TIP3    H230612   2.617   3.767  13.605  1.8455  0.3878 -0.5946
 3041TIP3   OH230613   0.013   4.882  14.991  0.3347 -0.7889 -0.3329
 3041TIP3    H130614  -0.082   4.889  14.979  0.1887 -1.2801  0.4989
 3041TIP3    H230615   0.027   4.795  15.027  0.7285  0.4149  2.7920
 3042TIP3   OH230616   4.153   0.821   3.886  0.1476 -0.3388  0.0605
 3042TIP3    H130617   4.083   0.759   3.905  1.5984 -1.8192  0.8639
 3042TIP3    H230618   4.214   0.772   3.831  0.9837  0.6300  0.0922
 3043TIP3   OH230619   3.086   4.946   4.259 -0.3014  0.6433 -0.0836
 3043TIP3    H130620   3.029   5.009   4.302 -0.3826 -0.9814  2.3711
 3043TIP3    H230621   3.026   4.888   4.211 -0.4511  0.8305 -0.1220
 3044TIP3   OH230622   6.791   0.605  12.782  0.2509 -0.2370 -0.0970
 3044TIP3    H130623   6.774   0.637  12.694 -0.8930  1.4870  0.6847
 3044TIP3    H230624   6.870   0.651  12.810  0.0416  0.0046  0.1139
 3045TIP3   OH230625   1.771   0.387   2.909  0.5210  0.1254 -0.9129
 3045TIP3    H130626   1.700   0.392   2.845 -0.4646 -0.3384  0.1154
 3045TIP3    H230627   1.831   0.322   2.872 -0.0752 -0.2062 -1.3330
 3046TIP3   OH230628   6.740   5.180  14.184 -0.4329 -0.4779  0.5746
 3046TIP3    H130629   6.698   5.118  14.243 -1.5874 -0.9322 -0.6918
 3046TIP3    H230630   6.669   5.216  14.131  0.5928 -0.2829 -0.7217
 3047TIP3   OH230631   5.405   0.921   0.428 -0.8598  0.1150  0.7448
 3047TIP3    H130632   5.375   0.840   0.386  0.9044 -0.7101  0.9817
 3047TIP3    H230633   5.490   0.898   0.465  0.2489  2.4107 -0.2050
 3048TIP3   OH230634   6.026   1.699  12.552  0.0027 -0.2815 -0.3269
 3048TIP3    H130635   6.041   1.789  12.523  1.1538  0.2855  1.7892
 3048TIP3    H230636   6.052   1.645  12.478  0.7439  1.1010 -1.1115
 3049TIP3   OH230637   1.956   6.521   5.429 -0.2964  0.6259 -0.1227
 3049TIP3    H130638   2.033   6.558   5.472 -0.1892  0.5811 -0.2748
 3049TIP3    H230639   1.889   6.518   5.497  0.4084 -1.1465  0.5731
 3050TIP3   OH230640   3.461   4.928  12.747 -0.1594 -0.0116  0.1673
 3050TIP3    H130641   3.443   4.838  12.719  0.3114 -0.2405  0.5904
 3050TIP3    H230642   3.385   4.952  12.801 -0.7746  0.2130 -0.7739
 3051TIP3   OH230643   6.351   1.997  14.625 -0.0347  0.2383  0.9198
 3051TIP3    H130644   6.377   2.087  14.609 -0.4591  0.4255  1.2723
 3051TIP3    H230645   6.270   1.987  14.575 -0.5930  0.3941  1.7678
 3052TIP3   OH230646   1.353   6.105   6.267  0.5681 -0.3745  0.6819
 3052TIP3    H130647   1.262   6.084   6.245 -0.4124  2.5487  1.3819
 3052TIP3    H230648   1.401   6.091   6.186 -1.7158  3.6218 -1.7393
 3053TIP3   OH230649   3.267   3.415   3.211 -0.0616 -0.2461 -0.3834
 3053TIP3    H130650   3.256   3.492   3.268  1.9049  1.3584 -2.0260
 3053TIP3    H230651   3.259   3.341   3.271  1.8472  1.3302  2.0524
 3054TIP3   OH230652   2.612   0.134  13.964  0.1937  0.3556  0.1088
 3054TIP3    H130653   2.546   0.089  14.016 -0.1373  0.0531 -0.5644
 3054TIP3    H230654   2.581   0.224  13.959 -1.0629 -0.1276 -1.5890
 3055TIP3   OH230655   2.002   4.329   3.507 -0.2481 -0.3849 -0.3402
 3055TIP3    H130656   1.942   4.394   3.470  0.3892  0.4113 -0.0302
 3055TIP3    H230657   2.016   4.266   3.436 -2.6334 -1.4963  0.0638
 3056TIP3   OH230658   5.358   3.154   3.348  0.8082 -0.1787  0.7721
 3056TIP3    H130659   5.265   3.145   3.326  1.6292 -0.2961 -3.4018
 3056TIP3    H230660   5.360   3.223   3.415 -2.3078 -0.9919  1.8771
 3057TIP3   OH230661   5.915   3.464  13.372  0.1843 -0.4810  0.5330
 3057TIP3    H130662   5.862   3.521  13.315  2.3990  0.2957 -0.9196
 3057TIP3    H230663   5.918   3.511  13.456  2.3777  2.0248 -0.7665
 3058TIP3   OH230664   5.768   2.746   2.515  0.2821 -0.3524 -0.7496
 3058TIP3    H130665   5.701   2.764   2.581  0.0040  0.9068 -1.3502
 3058TIP3    H230666   5.718   2.737   2.433  0.7181 -0.8621 -0.9632
 3059TIP3   OH230667   4.885   4.881  12.973  0.4830 -0.3660  0.6777
 3059TIP3    H130668   4.980   4.877  12.967  0.3840 -1.8103 -0.2379
 3059TIP3    H230669   4.853   4.837  12.895 -0.9476 -0.0884  1.0649
 3060TIP3   OH230670   1.117   5.962  15.950 -0.2368  0.5678  0.0688
 3060TIP3    H130671   1.132   5.908  16.028  0.2135  1.0051  0.2898
 3060TIP3    H230672   1.172   5.924  15.882  0.9426  1.3946  0.5256
 3061TIP3   OH230673   1.105   3.006   4.890 -0.5606  0.0209 -0.5471
 3061TIP3    H130674   1.185   3.011   4.943 -0.1164 -0.3060 -1.1720
 3061TIP3    H230675   1.114   3.079   4.828  0.0748 -1.0138 -1.7141
 3062TIP3   OH230676   1.444   2.214  13.401  0.1060  0.4291  0.2038
 3062TIP3    H130677   1.351   2.192  13.404 -0.1561  1.5442  0.7034
 3062TIP3    H230678   1.451   2.282  13.334  0.6054  0.1720 -0.0111
 3063TIP3   OH230679   0.992   4.183   6.492  0.1063 -0.4158  0.1049
 3063TIP3    H130680   1.061   4.203   6.429  0.0555  1.0956  0.4923
 3063TIP3    H230681   0.923   4.141   6.440  0.2414  0.4185 -0.7736
 3064TIP3   OH230682   5.769   4.325   2.583  0.1070 -0.1441  0.0535
 3064TIP3    H130683   5.727   4.299   2.665  1.2472 -1.2202  0.3361
 3064TIP3    H230684   5.740   4.258   2.520  1.7954 -1.2607  0.3953
 3065TIP3   OH230685   5.952   0.487  15.084 -0.0134  0.0873 -0.4337
 3065TIP3    H130686   6.007   0.467  15.159 -0.1790  0.2168 -0.2741
 3065TIP3    H230687   6.000   0.556  15.037 -0.5822  1.0579  0.3546
 3066TIP3   OH230688   1.318   0.237   0.867 -0.1558 -0.1378  0.4264
 3066TIP3    H130689   1.229   0.274   0.872 -0.1089  0.2199 -1.0514
 3066TIP3    H230690   1.309   0.163   0.808  0.8550  0.9893 -1.2202
 3067TIP3   OH230691   1.491   5.535   4.022  0.0054  0.4217  0.0372
 3067TIP3    H130692   1.500   5.441   4.036 -0.2219  0.0234 -2.1199
 3067TIP3    H230693   1.411   5.544   3.970 -1.0787  2.0327  1.8142
 3068TIP3   OH230694   1.760   0.374   0.654 -0.1127  0.4944  0.1668
 3068TIP3    H130695   1.681   0.356   0.705  0.5037  0.4843  1.1588
 3068TIP3    H230696   1.806   0.441   0.704  0.5190  0.4813 -0.3784
 3069TIP3   OH230697   0.665   5.558  15.144 -0.2367 -0.1223 -0.1798
 3069TIP3    H130698   0.718   5.539  15.066  0.4885  0.6058  0.1184
 3069TIP3    H230699   0.624   5.643  15.126 -1.4690 -0.7620 -0.4802
 3070TIP3   OH230700   1.037   6.792  11.581 -0.1972 -0.3829  1.1690
 3070TIP3    H130701   1.083   6.798  11.497 -0.0388  1.7350  1.3435
 3070TIP3    H230702   0.949   6.764  11.558 -0.3174  0.7082  0.1789
 3071TIP3   OH230703   3.945   5.112  12.342 -0.0700  0.3639  0.1908
 3071TIP3    H130704   3.867   5.061  12.364 -0.9391 -0.2563 -3.5963
 3071TIP3    H230705   4.016   5.048  12.345 -0.6463 -0.4265 -1.3759
 3072TIP3   OH230706   0.282   5.454   1.180 -0.4915  0.5013  0.1534
 3072TIP3    H130707   0.187   5.457   1.195 -0.3598 -1.2930  1.5874
 3072TIP3    H230708   0.321   5.487   1.261  0.1546  1.1893 -0.4106
 3073TIP3   OH230709   0.741   6.256   2.569  0.7540 -0.1628 -0.4118
 3073TIP3    H130710   0.784   6.172   2.552  0.4758 -0.7596  1.6701
 3073TIP3    H230711   0.651   6.234   2.591  0.1990  0.8507 -1.5139
 3074TIP3   OH230712   2.015   2.784  14.244  0.5119 -0.8080 -1.0959
 3074TIP3    H130713   2.012   2.776  14.149 -0.7926 -0.1131 -1.1352
 3074TIP3    H230714   1.945   2.846  14.265 -0.4228 -2.3181  0.4605
 3075TIP3   OH230715   5.287   0.941  11.793 -0.7694 -0.7918 -0.1156
 3075TIP3    H130716   5.267   0.939  11.886  1.5302 -0.9671  0.4456
 3075TIP3    H230717   5.225   1.003  11.755 -0.5069  0.7741  1.8862
 3076TIP3   OH230718   0.533   3.488  12.816 -0.1598  0.4478  0.5347
 3076TIP3    H130719   0.573   3.574  12.829  3.8240 -0.9885 -0.8210
 3076TIP3    H230720   0.511   3.486  12.723  1.9483 -0.7172  0.0104
 3077TIP3   OH230721   2.713   0.377   2.044  0.6112 -0.0943 -0.3215
 3077TIP3    H130722   2.748   0.288   2.044  2.1463  0.4494 -1.8313
 3077TIP3    H230723   2.686   0.393   1.954 -1.6348  0.2968  0.3427
 3078TIP3   OH230724   0.852   6.837  11.233 -0.8613 -0.1629  0.1150
 3078TIP3    H130725   0.779   6.780  11.257 -0.0607 -1.1772  0.2317
 3078TIP3    H230726   0.812   6.906  11.180 -2.0401 -0.1488  0.9813
 3079TIP3   OH230727   5.655   0.294  11.939 -0.3553 -0.8133  0.4945
 3079TIP3    H130728   5.723   0.349  11.977 -0.1440  1.2038 -2.4435
 3079TIP3    H230729   5.587   0.290  12.006  0.5372  1.3103  1.6264
 3080TIP3   OH230730   2.501   5.248   0.624 -0.0427 -0.3657  0.2682
 3080TIP3    H130731   2.488   5.277   0.534  1.6493  1.3464  0.5140
 3080TIP3    H230732   2.548   5.165   0.616 -1.6796 -1.2602 -0.4191
 3081TIP3   OH230733   2.525   4.212   3.334  0.4761 -0.0310 -0.2796
 3081TIP3    H130734   2.496   4.121   3.323  2.7194 -0.6682 -1.4340
 3081TIP3    H230735   2.485   4.258   3.261  0.6353 -0.4416 -0.6333
 3082TIP3   OH230736   2.977   1.810   0.691 -0.0711 -0.4227 -0.0857
 3082TIP3    H130737   3.016   1.723   0.699  1.3917  0.2918  1.0635
 3082TIP3    H230738   2.958   1.835   0.782  0.0870  0.6966 -0.3537
 3083TIP3   OH230739   3.562   1.735   4.746 -0.0146 -0.0231  0.1185
 3083TIP3    H130740   3.583   1.778   4.829 -2.2194 -1.1063  1.3310
 3083TIP3    H230741   3.500   1.794   4.704  2.6769  1.6121 -1.9435
 3084TIP3   OH230742   0.101   0.878  13.788  0.3675 -0.2928  0.1895
 3084TIP3    H130743   0.064   0.834  13.711  0.5474 -1.1937  0.6015
 3084TIP3    H230744   0.049   0.846  13.861  0.7838 -0.1511  0.5535
 3085TIP3   OH230745   5.406   1.113  14.465  0.3083  0.2147  0.6280
 3085TIP3    H130746   5.329   1.170  14.461  0.3108  0.3865  2.2615
 3085TIP3    H230747   5.421   1.086  14.375 -1.0424  1.0111  0.1389
 3086TIP3   OH230748   2.845   0.176  11.139  0.2726 -0.1967  0.0127
 3086TIP3    H130749   2.752   0.178  11.162  0.4581  0.0986  0.7459
 3086TIP3    H230750   2.884   0.250  11.185  0.7749  0.0408 -0.7574
 3087TIP3   OH230751   1.221   3.246  16.632 -0.3061 -0.1644  0.0371
 3087TIP3    H130752   1.166   3.300  16.688 -0.9665 -0.1809 -0.5808
 3087TIP3    H230753   1.167   3.170  16.612 -0.7226  0.6014 -1.9524
 3088TIP3   OH230754   4.163   1.164   0.311 -0.5201 -0.2786 -0.3571
 3088TIP3    H130755   4.173   1.086   0.366 -0.3040 -1.1166 -1.5616
 3088TIP3    H230756   4.193   1.137   0.224 -1.7681  0.7390 -1.1348
 3089TIP3   OH230757   4.521   0.790   3.921  0.7527  0.0530 -0.6195
 3089TIP3    H130758   4.587   0.745   3.974  0.6859  1.5648  0.8402
 3089TIP3    H230759   4.467   0.837   3.985 -1.3480 -0.5892 -1.8200
 3090TIP3   OH230760   5.414   4.318   1.416  0.2817  0.5307  0.0752
 3090TIP3    H130761   5.440   4.262   1.343  0.7119 -2.3546  2.2636
 3090TIP3    H230762   5.497   4.339   1.460 -0.1102  0.6678  0.7625
 3091TIP3   OH230763   2.429   0.598   1.791 -0.0567  0.0170  0.1945
 3091TIP3    H130764   2.395   0.538   1.724  0.4770 -0.8063  0.6439
 3091TIP3    H230765   2.487   0.657   1.743 -0.7658  0.3347 -0.2928
 3092TIP3   OH230766   5.222   3.736   1.504 -0.0025 -0.1303  0.4300
 3092TIP3    H130767   5.165   3.793   1.452 -0.1269 -1.2409 -0.6893
 3092TIP3    H230768   5.174   3.724   1.586  0.4558  2.1039  1.0938
 3093TIP3   OH230769   3.209   4.699   1.164 -0.2513 -0.7265 -0.3773
 3093TIP3    H130770   3.157   4.660   1.234 -0.9251  1.1873  0.2435
 3093TIP3    H230771   3.282   4.638   1.152 -1.9689 -2.9284 -0.5015
 3094TIP3   OH230772   6.640   1.059  17.055  0.1049  0.3075 -0.0579
 3094TIP3    H130773   6.715   1.000  17.054  0.2943  0.5194  0.9600
 3094TIP3    H230774   6.640   1.097  17.143 -1.0594  0.4835 -0.1173
 3095TIP3   OH230775   1.926   5.353  16.593 -0.4990 -0.2549  0.2416
 3095TIP3    H130776   1.967   5.374  16.509 -0.3133 -0.6577  0.2284
 3095TIP3    H230777   1.997   5.359  16.657 -0.6206 -0.0354  0.3541
 3096TIP3   OH230778   0.256   1.819   2.738 -0.5705 -0.6321 -0.1597
 3096TIP3    H130779   0.246   1.777   2.823 -1.6670  0.2707  0.1800
 3096TIP3    H230780   0.169   1.853   2.718  0.0191  0.4481 -0.9671
 3097TIP3   OH230781   6.176   4.832   3.774  0.2858 -0.2303 -0.0879
 3097TIP3    H130782   6.160   4.803   3.684 -0.8568 -2.3560  0.7174
 3097TIP3    H230783   6.221   4.758   3.815  1.3434  0.9421  0.9693
 3098TIP3   OH230784   0.829   3.564  12.265 -0.4476 -0.2938  0.1189
 3098TIP3    H130785   0.888   3.630  12.301  1.4215 -0.9612 -1.5296
 3098TIP3    H230786   0.775   3.611  12.201  0.1321 -0.1349 -0.2632
 3099TIP3   OH230787   5.111   6.752   1.965  0.0254  0.1876 -0.2280
 3099TIP3    H130788   5.035   6.808   1.945  0.1899  0.7818  0.7273
 3099TIP3    H230789   5.078   6.691   2.031  0.3569  0.4140  0.1509
 3100TIP3   OH230790   4.392   0.477  15.406 -0.0061 -0.5893 -0.0557
 3100TIP3    H130791   4.433   0.438  15.484 -1.1972 -0.6521  0.5722
 3100TIP3    H230792   4.464   0.518  15.359  0.7055 -0.3079  1.2295
 3101TIP3   OH230793   5.550   0.619  15.476  0.4791 -0.5038 -0.0173
 3101TIP3    H130794   5.496   0.688  15.436  0.1586 -0.6283  0.1946
 3101TIP3    H230795   5.505   0.599  15.558  1.6117  0.3908  0.8669
 3102TIP3   OH230796   1.222   5.770  16.153 -0.0211 -0.0354 -0.4703
 3102TIP3    H130797   1.189   5.721  16.229 -2.2028  0.4886 -1.0190
 3102TIP3    H230798   1.303   5.810  16.183 -0.0593 -1.0705  1.1050
 3103TIP3   OH230799   2.395   4.996   4.358 -0.2294 -0.1802  0.3992
 3103TIP3    H130800   2.483   5.032   4.372 -0.1953 -0.1908  0.2206
 3103TIP3    H230801   2.366   5.037   4.276  0.2609 -1.4280 -0.4232
 3104TIP3   OH230802   6.074   1.493   2.304  0.5688 -0.2852 -0.2041
 3104TIP3    H130803   5.987   1.503   2.343  0.6763  1.2540 -0.2840
 3104TIP3    H230804   6.057   1.455   2.218 -0.3545  2.3030 -1.2822
 3105TIP3   OH230805   4.389   3.450   0.890 -0.2090 -0.3346  0.5858
 3105TIP3    H130806   4.393   3.543   0.869 -1.0370 -0.4457 -0.1583
 3105TIP3    H230807   4.363   3.408   0.807  0.4002 -1.2506  0.8463
 3106TIP3   OH230808   5.189   0.621   0.955  0.0694 -1.0219  0.2241
 3106TIP3    H130809   5.119   0.661   1.006  0.2912 -1.8184  1.1751
 3106TIP3    H230810   5.151   0.610   0.868 -0.4174  0.0671  0.2758
 3107TIP3   OH230811   1.886   2.868   3.582  0.1421  0.1514  0.2434
 3107TIP3    H130812   1.907   2.925   3.656  0.2814 -0.0366  0.3490
 3107TIP3    H230813   1.835   2.924   3.523 -2.4954 -0.4678  1.7885
 3108TIP3   OH230814   5.672   1.652  10.647  0.0262  0.3730 -0.8188
 3108TIP3    H130815   5.683   1.702  10.566 -0.4939  0.4949 -0.8220
 3108TIP3    H230816   5.711   1.567  10.628  0.6122  0.6625 -0.9280
 3109TIP3   OH230817   5.478   3.221   0.112  0.1358 -0.3025  0.5179
 3109TIP3    H130818   5.495   3.183   0.026 -0.7210 -1.2054  0.7298
 3109TIP3    H230819   5.478   3.315   0.097 -0.9907 -0.4703 -0.6720
 3110TIP3   OH230820   3.037   1.678   1.924  0.5588  0.6007 -0.0868
 3110TIP3    H130821   3.014   1.763   1.961 -1.0144  0.2667 -0.2573
 3110TIP3    H230822   2.973   1.663   1.855  0.9708 -0.6161 -0.2270
 3111TIP3   OH230823   5.059   5.978   3.767 -0.2751 -0.0011  0.0544
 3111TIP3    H130824   5.111   6.042   3.815 -1.2508  0.6034  0.3294
 3111TIP3    H230825   5.072   6.001   3.675 -1.6129  1.4557  0.1698
 3112TIP3   OH230826   0.720   3.243  11.857  0.3672 -0.0787 -0.5072
 3112TIP3    H130827   0.813   3.234  11.874  0.2036 -0.4164  0.2282
 3112TIP3    H230828   0.715   3.302  11.782  1.1436  0.4243 -0.1713
 3113TIP3   OH230829   0.401   6.607  12.321  0.4170 -0.1282  0.0246
 3113TIP3    H130830   0.465   6.541  12.293  0.9381  0.2293  0.3467
 3113TIP3    H230831   0.339   6.613  12.248  0.6551 -0.6087 -0.2188
 3114TIP3   OH230832   3.369   3.802   5.691 -0.2645 -0.2491 -0.2068
 3114TIP3    H130833   3.410   3.887   5.675 -2.7053  1.0796  0.1335
 3114TIP3    H230834   3.338   3.774   5.605 -2.4732  0.9314  0.1331
 3115TIP3   OH230835   0.281   0.443   2.995 -0.1557  0.3802 -0.5119
 3115TIP3    H130836   0.210   0.485   2.945  0.7720  2.9446  0.1498
 3115TIP3    H230837   0.350   0.509   2.997  3.4148 -2.8782 -3.2974
 3116TIP3   OH230838   5.505   5.990  12.631  0.9309  0.0548 -0.4481
 3116TIP3    H130839   5.529   5.986  12.723  0.9162  2.9608 -0.2278
 3116TIP3    H230840   5.565   5.929  12.588  1.5839 -0.6349  1.3627
 3117TIP3   OH230841   1.236   2.490   2.267  0.6854 -0.1072  0.2515
 3117TIP3    H130842   1.176   2.469   2.338  1.0458 -0.1011  0.5594
 3117TIP3    H230843   1.323   2.479   2.305  0.9259 -2.0942 -0.7465
 3118TIP3   OH230844   0.769   0.138  14.885  0.0401  0.3532 -0.4694
 3118TIP3    H130845   0.813   0.080  14.947  0.7356  1.3821  0.0382
 3118TIP3    H230846   0.801   0.112  14.799  0.3584  0.0009 -0.2446
 3119TIP3   OH230847   4.710   1.487   5.665 -0.1150 -0.2331  0.5109
 3119TIP3    H130848   4.649   1.546   5.710  0.5682  1.3086 -0.5003
 3119TIP3    H230849   4.697   1.402   5.707 -2.5351  0.1743  0.7113
 3120TIP3   OH230850   0.722   1.715  12.329  0.2398 -0.1053  0.6308
 3120TIP3    H130851   0.717   1.620  12.341 -3.3442  0.1393  2.3958
 3120TIP3    H230852   0.678   1.751  12.405 -1.5376  2.8371 -1.5665
 3121TIP3   OH230853   6.287   2.816  12.686 -0.0784 -0.7429 -0.5870
 3121TIP3    H130854   6.250   2.773  12.763 -1.4817 -1.0109 -1.3693
 3121TIP3    H230855   6.211   2.852  12.640  0.4959 -2.1275 -2.7936
 3122TIP3   OH230856   5.850   4.334  10.956 -0.3693  0.1087  0.6035
 3122TIP3    H130857   5.823   4.257  11.006 -0.7163 -0.6171 -0.6696
 3122TIP3    H230858   5.839   4.309  10.865 -0.0111  1.5045  0.1509
 3123TIP3   OH230859   5.877   0.246   0.104  0.1096 -0.6908 -0.0315
 3123TIP3    H130860   5.928   0.319   0.068 -1.2913  0.0345 -0.6067
 3123TIP3    H230861   5.924   0.220   0.183  3.6835 -2.6991 -2.4885
 3124TIP3   OH230862   2.081   4.749  12.609 -0.4355  1.0267 -0.6467
 3124TIP3    H130863   2.164   4.702  12.607 -0.5570  0.8262 -1.2997
 3124TIP3    H230864   2.019   4.686  12.645  0.2445  2.1392  2.8834
 3125TIP3   OH230865   1.979   0.151   3.123 -0.4149  0.2594  0.0104
 3125TIP3    H130866   2.070   0.122   3.127 -0.3510  0.4762  0.1396
 3125TIP3    H230867   1.958   0.154   3.029 -0.4996 -0.4433  0.0066
 3126TIP3   OH230868   0.738   4.854  13.192 -0.7308  0.0314  0.2803
 3126TIP3    H130869   0.833   4.866  13.196 -0.8100  0.5130  0.8061
 3126TIP3    H230870   0.722   4.774  13.243 -0.6093 -0.0761  0.1519
 3127TIP3   OH230871   5.619   3.851  10.790 -0.4642  0.6577  0.4582
 3127TIP3    H130872   5.684   3.861  10.720 -0.0797 -1.1238  0.5006
 3127TIP3    H230873   5.585   3.939  10.804 -2.0908  0.8843 -3.4372
 3128TIP3   OH230874   2.153   3.788   4.437  0.5765 -0.3264  0.0137
 3128TIP3    H130875   2.062   3.764   4.450  0.1908  1.7338  1.7302
 3128TIP3    H230876   2.203   3.722   4.485  0.0677 -1.8100 -1.4395
 3129TIP3   OH230877   5.962   4.889   4.950  0.6714 -0.1912  0.1933
 3129TIP3    H130878   6.050   4.858   4.931  1.2378  1.0499  0.6980
 3129TIP3    H230879   5.935   4.838   5.028  0.8281 -0.7469 -0.1106
 3130TIP3   OH230880   4.567   2.552   4.244 -0.0265 -0.2199  0.5441
 3130TIP3    H130881   4.552   2.629   4.188 -1.1966 -0.2271  0.8326
 3130TIP3    H230882   4.645   2.511   4.207 -0.7437 -0.1995 -1.0596
 3131TIP3   OH230883   2.120   6.494  12.141  0.7233  0.8851  0.3660
 3131TIP3    H130884   2.168   6.485  12.223  1.7497 -0.9637 -0.3932
 3131TIP3    H230885   2.031   6.464  12.161  1.3048 -0.8092  0.5252
 3132TIP3   OH230886   2.104   2.409  16.799 -0.5782 -0.0913  0.3285
 3132TIP3    H130887   2.168   2.392  16.730 -1.3939 -1.4739 -0.1184
 3132TIP3    H230888   2.156   2.422  16.878  0.2634 -0.9773 -0.0657
 3133TIP3   OH230889   5.582   5.663   4.869 -0.4578 -0.5455  0.0369
 3133TIP3    H130890   5.579   5.752   4.833  1.2485 -0.7105 -0.6171
 3133TIP3    H230891   5.610   5.675   4.960 -0.7364 -0.3794  0.1006
 3134TIP3   OH230892   3.946   2.324   2.668  0.4826 -0.2874  0.3693
 3134TIP3    H130893   3.881   2.392   2.652 -0.6359 -1.1940  0.8458
 3134TIP3    H230894   4.009   2.332   2.596 -0.5975  0.1216 -0.5556
 3135TIP3   OH230895   2.815   0.593   1.704 -0.5284  0.6663  0.2368
 3135TIP3    H130896   2.844   0.506   1.733 -0.6215 -0.6133 -3.0957
 3135TIP3    H230897   2.867   0.611   1.626 -1.0883  3.2995  0.3972
 3136TIP3   OH230898   4.653   1.329  14.666 -0.5562 -0.6243  0.2568
 3136TIP3    H130899   4.598   1.350  14.742 -2.2355 -0.4984 -0.9303
 3136TIP3    H230900   4.591   1.323  14.593  1.0728 -0.0533 -1.2469
 3137TIP3   OH230901   1.718   6.383  13.318  0.0725 -0.5187  0.0547
 3137TIP3    H130902   1.655   6.322  13.282 -1.4070  0.5105  0.8016
 3137TIP3    H230903   1.775   6.406  13.244 -0.6664 -1.1633 -0.7302
 3138TIP3   OH230904   1.081   2.057  16.507  0.1756  0.2405  0.6387
 3138TIP3    H130905   1.089   2.149  16.482  0.6940 -0.2296 -1.0190
 3138TIP3    H230906   0.987   2.041  16.511 -0.0244 -0.0626 -2.8025
 3139TIP3   OH230907   3.989   2.681  14.332  0.3681 -0.3623 -0.0647
 3139TIP3    H130908   3.991   2.629  14.413 -1.7745  1.2148  1.1200
 3139TIP3    H230909   3.906   2.655  14.290  1.3817 -1.0513 -1.7370
 3140TIP3   OH230910   0.212   6.320   5.403  0.6371  0.3200 -0.1106
 3140TIP3    H130911   0.282   6.363   5.452  0.2024  0.1499  0.6757
 3140TIP3    H230912   0.239   6.327   5.312  0.2250  2.9726 -0.1080
 3141TIP3   OH230913   2.206   4.494  14.955  0.8757  0.3851  0.1268
 3141TIP3    H130914   2.168   4.528  15.037 -0.9002  1.0649 -0.9077
 3141TIP3    H230915   2.138   4.437  14.919  3.0845 -2.9727  0.8968
 3142TIP3   OH230916   1.042   5.183  12.871  0.0109 -0.0861  0.2216
 3142TIP3    H130917   1.021   5.222  12.786  0.2795  1.8085  0.9684
 3142TIP3    H230918   1.133   5.210  12.888 -0.1433 -0.1750  1.2429
 3143TIP3   OH230919   6.597   1.898  16.661  0.2598 -0.1166  0.3758
 3143TIP3    H130920   6.502   1.901  16.652  0.2326  0.9185  0.8360
 3143TIP3    H230921   6.627   1.983  16.628  1.1041 -0.7661 -0.5736
 3144TIP3   OH230922   2.400   4.640  14.421 -0.6004  0.2115 -0.3334
 3144TIP3    H130923   2.341   4.672  14.489 -1.0217 -0.4526 -0.3739
 3144TIP3    H230924   2.488   4.649  14.458 -0.7139  1.2694 -0.3001
 3145TIP3   OH230925   6.151   6.634  12.327  0.2859  0.0469  0.2860
 3145TIP3    H130926   6.175   6.572  12.258  1.1103 -0.7713  1.2890
 3145TIP3    H230927   6.232   6.680  12.348  0.0726  0.1840  0.8259
 3146TIP3   OH230928   0.160   0.766  12.796  0.2993 -0.7840 -0.4767
 3146TIP3    H130929   0.219   0.709  12.747 -1.7443 -2.4242 -1.2194
 3146TIP3    H230930   0.155   0.846  12.744  0.7656 -1.1878 -1.1562
 3147TIP3   OH230931   4.491   0.680   2.979 -0.0475  0.3901  0.2984
 3147TIP3    H130932   4.519   0.677   2.888 -1.2598  0.5272 -0.0904
 3147TIP3    H230933   4.497   0.589   3.009 -1.1417  0.0816 -0.3909
 3148TIP3   OH230934   6.777   4.162   2.442 -0.7499  0.0448 -0.3825
 3148TIP3    H130935   6.819   4.216   2.375 -0.0629  0.4371  0.3550
 3148TIP3    H230936   6.848   4.134   2.499 -1.2269 -0.9095 -0.2445
 3149TIP3   OH230937   3.479   3.519  16.504  0.1777 -0.1200 -0.2562
 3149TIP3    H130938   3.384   3.521  16.516  0.3371  0.9793  1.1727
 3149TIP3    H230939   3.503   3.426  16.514 -0.7989 -0.5247 -1.4353
 3150TIP3   OH230940   3.278   5.019   4.861  0.1425  0.7149 -0.0732
 3150TIP3    H130941   3.293   5.005   4.955  2.6924  1.6842 -0.2697
 3150TIP3    H230942   3.290   5.113   4.848 -1.6378  0.8296 -1.1820
 3151TIP3   OH230943   1.884   5.654  12.704  0.2660  0.1456 -0.1734
 3151TIP3    H130944   1.867   5.561  12.687  2.6388 -0.2885 -0.6319
 3151TIP3    H230945   1.817   5.680  12.767  0.5869 -2.3984  1.3823
 3152TIP3   OH230946   0.120   5.446   5.545  0.0776  0.0583  0.6548
 3152TIP3    H130947   0.132   5.539   5.564 -2.3494  0.2093  1.8720
 3152TIP3    H230948   0.069   5.413   5.618 -0.4919 -1.8600 -0.5369
 3153TIP3   OH230949   3.375   6.534   3.047 -0.1327  0.9090 -0.4209
 3153TIP3    H130950   3.379   6.614   3.098  0.7314  0.8824 -0.4219
 3153TIP3    H230951   3.368   6.564   2.956  1.3072  1.0307 -0.5208
 3154TIP3   OH230952   3.722   6.820  14.830 -0.6669 -0.1224  1.1692
 3154TIP3    H130953   3.704   6.867  14.912  0.0127 -2.0531  2.4869
 3154TIP3    H230954   3.671   6.739  14.836  2.4709 -2.2414  1.6571
 3155TIP3   OH230955   5.006   4.807  11.589  0.3435  0.4473  0.0105
 3155TIP3    H130956   5.026   4.716  11.567 -0.1457 -0.0527  1.5240
 3155TIP3    H230957   5.050   4.858  11.521  0.6996 -0.9086 -0.8142
 3156TIP3   OH230958   6.713   1.874   1.152  0.1838 -0.0077  0.8772
 3156TIP3    H130959   6.782   1.853   1.215  0.6599 -0.0000  0.3690
 3156TIP3    H230960   6.746   1.839   1.069  0.1084  1.0319  0.3939
 3157TIP3   OH230961   3.245   1.898  14.390 -0.1350  0.5365  0.1072
 3157TIP3    H130962   3.262   1.805  14.372  0.5913  0.9165 -1.3583
 3157TIP3    H230963   3.156   1.900  14.425 -0.3869 -0.6539 -0.4234
 3158TIP3   OH230964   4.848   3.189   2.970 -0.3834 -0.3025 -0.0082
 3158TIP3    H130965   4.943   3.175   2.973 -0.4619 -0.8367  0.1134
 3158TIP3    H230966   4.826   3.214   3.060 -0.0752  1.7956 -0.4836
 3159TIP3   OH230967   1.607   6.697  16.136 -0.2430  0.5020 -0.6999
 3159TIP3    H130968   1.613   6.712  16.042 -0.9696 -1.5247 -1.1162
 3159TIP3    H230969   1.695   6.716  16.169  0.3451  0.0641 -1.9673
 3160TIP3   OH230970   5.274   4.446  14.992  0.2755  0.0469 -0.0275
 3160TIP3    H130971   5.256   4.448  15.086 -0.1667 -1.3850 -0.0626
 3160TIP3    H230972   5.241   4.361  14.963  0.2158  0.5594 -1.5253
 3161TIP3   OH230973   3.719   6.560  15.990 -0.4872  0.4792 -0.0060
 3161TIP3    H130974   3.628   6.541  16.011 -0.2409 -2.1909 -0.9667
 3161TIP3    H230975   3.716   6.600  15.903 -0.7836  0.7960  0.1519
 3162TIP3   OH230976   3.954   5.734  16.126  0.2516 -0.1383 -0.3704
 3162TIP3    H130977   4.001   5.698  16.201 -0.3703  1.5663  0.8986
 3162TIP3    H230978   3.862   5.714  16.143 -0.0380  1.3940  0.0351
 3163TIP3   OH230979   1.059   0.937  12.931  0.2728 -0.0758 -0.0415
 3163TIP3    H130980   0.971   0.967  12.910  0.6280  0.5537 -0.6833
 3163TIP3    H230981   1.078   0.870  12.866  0.0156 -0.6979  0.5171
 3164TIP3   OH230982   0.416   4.010  14.799 -0.0308  0.1609 -0.3791
 3164TIP3    H130983   0.490   4.069  14.784  0.0761 -0.3097 -1.8892
 3164TIP3    H230984   0.341   4.057  14.763 -0.3296  0.2793  0.3859
 3165TIP3   OH230985   5.117   4.496  12.032 -0.3253 -0.1269 -0.5005
 3165TIP3    H130986   5.196   4.456  12.069 -0.3879 -0.3019 -0.5551
 3165TIP3    H230987   5.049   4.431  12.046 -1.2451  1.3351  2.6523
 3166TIP3   OH230988   5.152   0.780   1.283  0.0524 -0.4563 -0.2800
 3166TIP3    H130989   5.136   0.686   1.278  0.6519 -0.5217 -1.3339
 3166TIP3    H230990   5.117   0.815   1.201  0.9207  0.0615 -0.4441
 3167TIP3   OH230991   2.849   5.404   4.272 -0.5840  0.1422 -0.3678
 3167TIP3    H130992   2.933   5.406   4.317 -0.6885 -1.9669  0.0267
 3167TIP3    H230993   2.787   5.440   4.335 -0.5240 -1.6149  0.7613
 3168TIP3   OH230994   5.852   2.517  13.850  0.1999  0.2504  0.0317
 3168TIP3    H130995   5.849   2.462  13.929 -0.9576 -0.3319 -0.4001
 3168TIP3    H230996   5.765   2.555  13.844  0.8057  1.6949 -0.0122
 3169TIP3   OH230997   3.654   4.609  16.221  0.1411  0.5790  0.2725
 3169TIP3    H130998   3.679   4.641  16.307  1.3648  0.5241 -0.0349
 3169TIP3    H230999   3.629   4.687  16.172 -1.4898  0.5032  0.9516
 3170TIP3   OH231000   5.073   4.696   3.958  0.1433 -0.0605  0.1287
 3170TIP3    H131001   5.049   4.649   4.038  0.6789  1.5705  1.2945
 3170TIP3    H231002   5.066   4.788   3.981  1.0625  0.4545 -1.4954
 3171TIP3   OH231003   5.240   4.386  15.274 -0.2341  0.3154 -0.3582
 3171TIP3    H131004   5.261   4.381  15.367 -2.3565  0.6571  0.1912
 3171TIP3    H231005   5.237   4.295  15.245  1.1493  0.2341 -0.2867
 3172TIP3   OH231006   3.429   0.517  13.533 -0.4754 -0.0089 -0.2105
 3172TIP3    H131007   3.488   0.535  13.459 -0.1948 -1.1080 -0.2689
 3172TIP3    H231008   3.381   0.439  13.506 -2.2990  1.1089 -0.3455
 3173TIP3   OH231009   6.742   6.377   2.867  0.7612  0.2547 -0.5830
 3173TIP3    H131010   6.652   6.343   2.872  1.2073 -1.0304 -0.7654
 3173TIP3    H231011   6.744   6.429   2.787  0.2069  0.1683 -0.6552
 3174TIP3   OH231012   2.478   4.428  12.320  0.3848  0.3131 -0.2582
 3174TIP3    H131013   2.491   4.521  12.298 -1.0642  0.4763 -0.5493
 3174TIP3    H231014   2.438   4.430  12.406 -2.3284  0.1645 -1.4094
 3175TIP3   OH231015   3.641   2.898  12.573  0.0706  0.2427  0.0513
 3175TIP3    H131016   3.658   2.942  12.490  1.1330 -0.8067 -0.3239
 3175TIP3    H231017   3.625   2.969  12.635 -0.8753  1.0346 -1.0593
 3176TIP3   OH231018   4.635   4.807   1.100  0.2806  0.1301  0.1804
 3176TIP3    H131019   4.640   4.717   1.068  0.4001 -1.1285  3.3641
 3176TIP3    H231020   4.720   4.845   1.079  0.9647 -1.1700  0.4996
 3177TIP3   OH231021   3.234   1.221   0.614  0.3228 -0.3613 -0.2064
 3177TIP3    H131022   3.285   1.145   0.586  2.0523 -0.7270  3.2736
 3177TIP3    H231023   3.187   1.190   0.692 -1.2124  1.4324 -0.3460
 3178TIP3   OH231024   3.434   2.494   4.063 -0.1485  0.1716 -0.1479
 3178TIP3    H131025   3.479   2.410   4.062  0.0832  0.2850  0.2063
 3178TIP3    H231026   3.344   2.473   4.087  0.0753  0.0854  0.6760
 3179TIP3   OH231027   2.015   4.057  15.612 -0.1448 -0.0750 -0.1481
 3179TIP3    H131028   2.015   4.114  15.535  0.5646 -1.0170 -0.8789
 3179TIP3    H231029   2.034   3.970  15.577  0.9919 -0.3948  1.1680
 3180TIP3   OH231030   1.347   6.728   1.004  0.3038 -0.5321  0.3159
 3180TIP3    H131031   1.380   6.793   1.066 -1.4025 -1.1436  1.9587
 3180TIP3    H231032   1.313   6.780   0.931  1.7104  0.2408  0.1854
 3181TIP3   OH231033   2.907   5.619   1.240 -0.3342 -0.5497  0.1139
 3181TIP3    H131034   2.905   5.618   1.144  0.3868  1.6385  0.0060
 3181TIP3    H231035   2.816   5.607   1.265 -0.9318  1.2005 -0.9855
 3182TIP3   OH231036   4.888   3.628  14.978  0.1900 -0.6121  0.2213
 3182TIP3    H131037   4.916   3.709  15.021 -0.1521 -1.2510  1.6865
 3182TIP3    H231038   4.823   3.657  14.914 -0.3862  0.2313  1.1593
 3183TIP3   OH231039   0.403   5.266   3.733 -0.0637  0.3979 -0.1867
 3183TIP3    H131040   0.344   5.200   3.697  0.4534  0.5667 -1.3698
 3183TIP3    H231041   0.442   5.224   3.810 -0.5064 -0.3009 -0.3401
 3184TIP3   OH231042   0.594   2.913   4.657  0.1416  0.0885  0.1823
 3184TIP3    H131043   0.608   2.895   4.564  3.7305  0.1023  0.5715
 3184TIP3    H231044   0.679   2.897   4.697 -0.9957  1.1689  3.3280
 3185TIP3   OH231045   1.429   1.091  12.367  0.5906 -0.1812  0.3135
 3185TIP3    H131046   1.361   1.139  12.320  0.3382 -1.2541 -0.4793
 3185TIP3    H231047   1.423   1.002  12.332  0.2276 -1.1116  2.5460
 3186TIP3   OH231048   4.465   1.441   6.413 -0.4023 -0.2875 -0.8550
 3186TIP3    H131049   4.489   1.349   6.422 -0.9778 -0.2620  1.5423
 3186TIP3    H231050   4.539   1.489   6.449 -1.1593  0.0572  0.2928
 3187TIP3   OH231051   0.498   0.494   6.378  0.9126  0.3768  0.7748
 3187TIP3    H131052   0.554   0.523   6.450  0.4597 -0.9075  1.6778
 3187TIP3    H231053   0.550   0.510   6.299  2.5453 -0.7170  1.5819
 3188TIP3   OH231054   4.083   2.453   0.511  0.1877  0.4379 -0.4926
 3188TIP3    H131055   4.102   2.492   0.426  0.8595 -0.9474 -1.0051
 3188TIP3    H231056   4.065   2.361   0.492  1.9052 -0.2757  0.9881
 3189TIP3   OH231057   5.100   5.649   1.317 -0.4028  0.0328  0.3112
 3189TIP3    H131058   5.159   5.644   1.392 -0.5701  2.0878  0.6465
 3189TIP3    H231059   5.020   5.605   1.346  0.1115 -0.6404  0.7239
 3190TIP3   OH231060   3.036   1.414  15.719 -0.1734  0.7541  0.6929
 3190TIP3    H131061   3.086   1.465  15.655 -1.1696 -0.2675 -0.9889
 3190TIP3    H231062   3.069   1.443  15.804  0.9807  2.4112 -0.2564
 3191TIP3   OH231063   6.824   4.678   2.652  0.3192  0.4396 -0.6027
 3191TIP3    H131064   6.892   4.720   2.705  2.1226  0.3080 -2.6610
 3191TIP3    H231065   6.872   4.640   2.578 -1.9746 -0.0792 -1.9109
 3192TIP3   OH231066   3.557   3.522  15.308  0.0613 -0.5605  0.8712
 3192TIP3    H131067   3.648   3.541  15.330  0.3821 -1.0836  0.0573
 3192TIP3    H231068   3.534   3.587  15.242 -0.1645 -0.4310  1.0737
 3193TIP3   OH231069   0.927   0.124   2.826 -0.2316 -0.5098  0.6182
 3193TIP3    H131070   0.873   0.185   2.876 -0.8111 -0.7430  0.2982
 3193TIP3    H231071   0.869   0.095   2.755  0.7569  0.2711 -0.5360
 3194TIP3   OH231072   6.594   0.443   1.150 -0.0228  0.3354  0.2263
 3194TIP3    H131073   6.538   0.372   1.119  0.3695  0.1771 -0.1247
 3194TIP3    H231074   6.535   0.501   1.200  0.0972 -1.5698  2.7780
 3195TIP3   OH231075   3.762   1.182   4.061  0.0955  0.1706 -0.0339
 3195TIP3    H131076   3.810   1.213   4.138 -0.1897  0.0131  0.2119
 3195TIP3    H231077   3.826   1.134   4.010  0.9017  2.2355 -1.0938
 3196TIP3   OH231078   6.334   5.845   1.636 -0.0707 -0.0900  0.2634
 3196TIP3    H131079   6.286   5.864   1.555 -1.6746 -2.3162  0.6090
 3196TIP3    H231080   6.425   5.837   1.608  0.0375  2.9425 -0.6290
 3197TIP3   OH231081   1.907   0.743   3.715  0.0009  0.1184 -0.0520
 3197TIP3    H131082   1.990   0.696   3.707 -0.3590 -0.5292 -0.0049
 3197TIP3    H231083   1.885   0.737   3.808 -0.7514 -0.8492 -0.2813
 3198TIP3   OH231084   1.267   5.547  12.175  0.0482  0.2659 -0.0802
 3198TIP3    H131085   1.332   5.530  12.107 -0.2538 -2.7409  0.2764
 3198TIP3    H231086   1.189   5.500  12.146 -0.3587 -0.3903  1.9116
 3199TIP3   OH231087   2.446   4.580  12.973 -0.9957  0.3491  0.2696
 3199TIP3    H131088   2.500   4.568  12.895 -0.4488 -0.5748  0.7732
 3199TIP3    H231089   2.364   4.617  12.940 -0.1387  1.5930 -0.5277
 3200TIP3   OH231090   5.434   1.444  14.560  0.0150  0.0890 -0.1304
 3200TIP3    H131091   5.358   1.487  14.599  0.2775  0.3670  0.0814
 3200TIP3    H231092   5.399   1.394  14.487 -0.4753 -0.3811  0.4179
 3201TIP3   OH231093   5.532   1.703  16.633  0.3003  0.1947 -0.1040
 3201TIP3    H131094   5.454   1.750  16.661 -0.6309 -0.7518 -1.0060
 3201TIP3    H231095   5.605   1.757  16.664 -0.6025 -0.4235  3.4763
 3202TIP3   OH231096   0.770   0.195  11.994 -0.2075  0.2841 -0.2173
 3202TIP3    H131097   0.850   0.238  12.023 -0.7284  2.1464 -1.3739
 3202TIP3    H231098   0.776   0.106  12.029  1.4648  0.9413  1.3087
 3203TIP3   OH231099   4.987   5.561  15.297  0.3904  0.4118 -0.2263
 3203TIP3    H131100   5.023   5.549  15.210 -1.3060  1.1352 -1.0746
 3203TIP3    H231101   5.023   5.643  15.328 -1.3359  1.7454 -1.5593
 3204TIP3   OH231102   0.474   6.349  11.176 -0.4444  0.6506  0.2750
 3204TIP3    H131103   0.480   6.319  11.267 -1.3167  0.0734  0.1617
 3204TIP3    H231104   0.515   6.279  11.125 -3.6818 -1.1723 -0.1148
 3205TIP3   OH231105   2.656   2.427  12.596 -0.1100 -0.3306  0.4651
 3205TIP3    H131106   2.643   2.363  12.666  0.0821 -0.9434 -0.0526
 3205TIP3    H231107   2.651   2.512  12.640 -1.0772 -0.6701  1.0532
 3206TIP3   OH231108   0.637   3.428   3.319 -0.3655 -0.5977  0.4191
 3206TIP3    H131109   0.715   3.372   3.314 -0.0128 -0.0324 -0.7106
 3206TIP3    H231110   0.671   3.517   3.317 -1.0042 -0.3424  0.7300
 3207TIP3   OH231111   2.208   6.557  10.866  0.0249 -0.5715 -0.5505
 3207TIP3    H131112   2.286   6.584  10.816  0.8018 -2.7377 -0.6245
 3207TIP3    H231113   2.134   6.582  10.811  0.8138 -1.5869 -2.1453
 3208TIP3   OH231114   3.853   1.199   4.691  0.1809 -0.1484  0.0529
 3208TIP3    H131115   3.850   1.291   4.663  0.7964 -0.1733 -0.1215
 3208TIP3    H231116   3.879   1.204   4.783  2.0432 -0.1948 -0.4308
 3209TIP3   OH231117   4.807   2.138   3.871 -0.0521  0.5332 -0.0814
 3209TIP3    H131118   4.818   2.065   3.932  0.7871 -2.3148 -3.3240
 3209TIP3    H231119   4.896   2.162   3.846 -0.3976  0.1694 -1.7350
 3210TIP3   OH231120   4.037   4.351  13.947  0.3714 -0.3902  0.3819
 3210TIP3    H131121   3.997   4.381  13.865 -2.4014  0.4744  1.9179
 3210TIP3    H231122   4.043   4.256  13.937 -1.4620 -0.4846 -0.2751
 3211TIP3   OH231123   1.053   4.534  15.828 -0.1357  0.0732 -0.1161
 3211TIP3    H131124   1.144   4.550  15.803 -0.2554 -0.5243 -0.9883
 3211TIP3    H231125   1.007   4.615  15.807  0.0094  0.0232 -0.6403
 3212TIP3   OH231126   3.595   4.915  13.093  0.4011 -0.3130 -0.3961
 3212TIP3    H131127   3.551   4.902  13.177 -0.8377  1.2989 -0.7408
 3212TIP3    H231128   3.523   4.924  13.030  1.1259  2.4419 -0.9775
 3213TIP3   OH231129   3.194   1.253  11.315 -0.2991 -0.2934  0.6206
 3213TIP3    H131130   3.202   1.325  11.253 -1.9220  0.1917  0.9082
 3213TIP3    H231131   3.279   1.210  11.315 -0.7532 -1.5714 -3.4680
 3214TIP3   OH231132   4.727   2.877   1.073 -0.0168  0.3042  0.0184
 3214TIP3    H131133   4.816   2.874   1.036  1.0849  2.0284  2.2669
 3214TIP3    H231134   4.672   2.907   1.000  1.4108  0.2130 -1.1569
 3215TIP3   OH231135   0.714   3.205   2.649 -0.4184  0.7535  0.1244
 3215TIP3    H131136   0.735   3.233   2.738 -1.8281  0.7428  0.4864
 3215TIP3    H231137   0.737   3.112   2.647 -0.2419  0.7875  0.4228
 3216TIP3   OH231138   4.863   5.572   2.521  0.5355  0.0149  0.3290
 3216TIP3    H131139   4.909   5.494   2.492  2.0327  0.5313  1.2132
 3216TIP3    H231140   4.770   5.549   2.515  0.9402 -1.8066  0.5530
 3217TIP3   OH231141   4.735   0.309  11.575  0.1677  0.5484 -0.2844
 3217TIP3    H131142   4.700   0.283  11.490 -0.7688  0.4321  0.1296
 3217TIP3    H231143   4.829   0.292  11.568 -0.2750 -2.5817 -0.2176
 3218TIP3   OH231144   0.781   0.340  15.284  0.2174  0.0347  0.0036
 3218TIP3    H131145   0.870   0.305  15.282  0.0777 -0.2966 -1.4438
 3218TIP3    H231146   0.755   0.334  15.375  1.4376 -0.4742  0.3370
 3219TIP3   OH231147   4.937   6.215  16.672  0.3297  0.5293 -0.0086
 3219TIP3    H131148   5.009   6.270  16.704 -0.5865  1.1448  1.0809
 3219TIP3    H231149   4.964   6.187  16.585  1.3455  1.7426 -0.0990
 3220TIP3   OH231150   6.506   6.250   5.091 -0.0788  0.3715  0.1469
 3220TIP3    H131151   6.587   6.205   5.066 -0.7566 -0.1506 -1.1926
 3220TIP3    H231152   6.479   6.207   5.172  1.0459  0.6456  0.6920
 3221TIP3   OH231153   2.855   5.015   0.481 -0.0821  0.4148 -0.0458
 3221TIP3    H131154   2.782   5.063   0.443 -0.6363 -0.6040 -0.3205
 3221TIP3    H231155   2.894   5.075   0.545 -1.8052  0.6231  0.8623
 3222TIP3   OH231156   5.661   2.119   3.690 -0.1527  0.0080  0.3694
 3222TIP3    H131157   5.679   2.073   3.607  2.3078 -0.7256  1.2113
 3222TIP3    H231158   5.674   2.211   3.670  1.6185 -0.2586  0.1575
 3223TIP3   OH231159   1.066   0.008   0.481 -0.3048  0.1039  0.0440
 3223TIP3    H131160   1.138   0.067   0.460 -0.5439  0.4640  0.2348
 3223TIP3    H231161   1.010   0.058   0.539  1.1391 -1.3546  2.9155
 3224TIP3   OH231162   1.245   0.017   2.643  0.3254 -0.0471  0.0681
 3224TIP3    H131163   1.280  -0.065   2.608  0.5877  0.6284 -1.3551
 3224TIP3    H231164   1.322   0.066   2.671  0.5816  1.1027 -2.3140
 3225TIP3   OH231165   3.934   6.194   1.068  0.2211 -0.3916  0.3090
 3225TIP3    H131166   3.951   6.283   1.099 -0.7485  0.5954 -1.7992
 3225TIP3    H231167   3.842   6.178   1.090 -0.0465 -0.2465 -0.6445
 3226TIP3   OH231168   0.398   0.953   0.558  0.5496 -0.2933 -0.2284
 3226TIP3    H131169   0.332   0.887   0.578 -1.4879  2.0444  1.3905
 3226TIP3    H231170   0.361   1.002   0.484 -0.2413  1.7543  1.4090
 3227TIP3   OH231171   6.789   6.446  16.301  0.6395 -0.7399 -0.2699
 3227TIP3    H131172   6.749   6.387  16.365 -2.0946 -0.6517 -1.7379
 3227TIP3    H231173   6.837   6.510  16.353 -1.7283 -0.4861  1.7320
 3228TIP3   OH231174   4.560   1.400   5.259 -0.5193 -0.0701  0.3129
 3228TIP3    H131175   4.603   1.484   5.245  2.2238 -1.3827  0.2393
 3228TIP3    H231176   4.505   1.389   5.181 -0.0958  1.1652 -0.1906
 3229TIP3   OH231177   4.951   5.590   0.037  0.1215  0.7297  0.2401
 3229TIP3    H131178   4.970   5.544   0.119  1.3477  5.1000  2.7439
 3229TIP3    H231179   5.036   5.615   0.003 -0.5001  2.0011 -0.4385
 3230TIP3   OH231180   5.801   0.138   4.995  0.5234 -0.6364  0.6082
 3230TIP3    H131181   5.707   0.148   5.009  0.3077 -0.9334 -0.5120
 3230TIP3    H231182   5.823   0.054   5.035  0.7690  0.3899  2.8059
 3231TIP3   OH231183   0.347   2.864   4.837  0.2378  0.6066  0.0638
 3231TIP3    H131184   0.364   2.797   4.904  0.0263 -0.1208 -0.5940
 3231TIP3    H231185   0.429   2.873   4.790  0.1886  0.6031 -0.0234
 3232TIP3   OH231186   3.331   3.569  14.725  1.3896 -0.0347  0.2307
 3232TIP3    H131187   3.272   3.505  14.685  1.6355 -0.8962  1.2139
 3232TIP3    H231188   3.343   3.636  14.658  0.2158 -0.4350 -0.4059
 3233TIP3   OH231189   5.423   5.349  11.716  0.2928  0.0533 -0.1603
 3233TIP3    H131190   5.353   5.368  11.654  1.0239 -1.4243 -1.5003
 3233TIP3    H231191   5.410   5.257  11.740  0.7712  0.2470  0.9031
 3234TIP3   OH231192   0.615   0.763  15.798 -0.1828 -0.2347  0.1976
 3234TIP3    H131193   0.592   0.816  15.875 -2.5052 -0.5266 -0.2185
 3234TIP3    H231194   0.575   0.809  15.724  1.0724 -0.5522 -0.7096
 3235TIP3   OH231195   5.079   4.224  12.196 -0.6896 -0.0455  0.4141
 3235TIP3    H131196   5.040   4.241  12.110 -1.5197 -0.3530  0.7216
 3235TIP3    H231197   5.153   4.166  12.177  0.7797  1.9911 -0.3829
 3236TIP3   OH231198   4.362   3.654   1.830 -0.0166  0.5748 -0.1589
 3236TIP3    H131199   4.321   3.625   1.911 -0.2185 -1.7051 -1.0169
 3236TIP3    H231200   4.374   3.748   1.841 -0.8915  0.4592  2.1199
 3237TIP3   OH231201   1.129   0.760  12.726  0.2539 -0.4184  0.1596
 3237TIP3    H131202   1.170   0.741  12.641 -0.2144  1.4537 -0.5168
 3237TIP3    H231203   1.203   0.762  12.787  0.9992  1.1122 -0.7309
 3238TIP3   OH231204   1.788   5.996  16.799  0.6139 -0.2881  0.7499
 3238TIP3    H131205   1.717   6.021  16.858  0.4879 -0.1645  0.5439
 3238TIP3    H231206   1.758   5.915  16.758  1.8114 -1.9333  2.8442
 3239TIP3   OH231207   5.803   2.832   1.837 -0.1143  0.1029 -0.0268
 3239TIP3    H131208   5.883   2.816   1.787 -0.2709  1.4491 -0.7294
 3239TIP3    H231209   5.801   2.926   1.851 -0.5860 -0.1217  1.6941
 3240TIP3   OH231210   2.841   2.626  15.079 -0.4321 -0.1223 -0.5153
 3240TIP3    H131211   2.784   2.688  15.124  1.2124  0.4566  0.8738
 3240TIP3    H231212   2.921   2.675  15.060 -0.6208 -0.6906 -3.1083
 3241TIP3   OH231213   1.970   5.170   3.199 -0.0024 -0.3084  0.5729
 3241TIP3    H131214   2.031   5.177   3.126 -0.0055  0.0648  0.6062
 3241TIP3    H231215   1.955   5.260   3.227 -0.9010 -0.3620  0.2888
 3242TIP3   OH231216   0.182   0.851  11.759  0.4416  0.4988  0.5723
 3242TIP3    H131217   0.146   0.938  11.740  0.0371  0.4424  1.0488
 3242TIP3    H231218   0.187   0.808  11.674 -0.7600  0.4611  0.5116
 3243TIP3   OH231219   2.021   1.934  11.726 -0.1125  0.4353 -0.5029
 3243TIP3    H131220   2.063   1.977  11.801  0.4153 -0.7779 -0.0763
 3243TIP3    H231221   2.084   1.866  11.700 -1.1767 -0.4668 -0.7773
 3244TIP3   OH231222   1.550   2.413  16.230 -0.3226 -0.7945  0.2410
 3244TIP3    H131223   1.510   2.498  16.210 -1.0954 -1.3789 -0.7909
 3244TIP3    H231224   1.495   2.375  16.298 -0.9576 -1.1517 -0.4506
 3245TIP3   OH231225   0.354   5.336  13.885  0.3539  0.1247  0.1592
 3245TIP3    H131226   0.294   5.302  13.951  0.1508  0.6993  0.2724
 3245TIP3    H231227   0.425   5.272  13.883  1.1453  0.8475  2.0573
 3246TIP3   OH231228   1.920   5.618  15.454  0.4234 -0.4170  0.6162
 3246TIP3    H131229   1.951   5.588  15.369  1.0434  0.1274  0.6423
 3246TIP3    H231230   1.861   5.548  15.484  0.1452 -0.5809 -0.2809
 3247TIP3   OH231231   4.874   0.200   3.506 -0.0428 -0.2107 -0.2585
 3247TIP3    H131232   4.920   0.161   3.580 -0.0398  0.7541  0.2709
 3247TIP3    H231233   4.781   0.193   3.529 -0.0791 -0.5661 -0.5063
 3248TIP3   OH231234   4.624   0.158  14.035  0.4770 -0.3206  0.0389
 3248TIP3    H131235   4.536   0.138  14.068 -0.2109  1.9707 -0.2124
 3248TIP3    H231236   4.612   0.168  13.940  1.3632 -1.6321 -0.2229
 3249TIP3   OH231237   3.737   3.225  11.134 -0.1037  0.1477  0.1511
 3249TIP3    H131238   3.681   3.300  11.155 -1.2978 -1.1167  1.7705
 3249TIP3    H231239   3.764   3.240  11.043 -0.1398  2.6123  0.4806
 3250TIP3   OH231240   3.228   4.552  14.253 -0.2654 -0.6434  0.2851
 3250TIP3    H131241   3.139   4.548  14.288  0.0981 -0.4997  1.2394
 3250TIP3    H231242   3.241   4.468  14.210  0.2373 -1.9996  2.8796
 3251TIP3   OH231243   5.415   6.626   2.858 -0.0098 -0.0983  0.3434
 3251TIP3    H131244   5.365   6.621   2.777  0.3151 -0.5879  0.1630
 3251TIP3    H231245   5.399   6.714   2.891  0.4086  0.3644 -0.6189
 3252TIP3   OH231246   1.670   4.348  13.168  0.2122  0.4072 -0.0375
 3252TIP3    H131247   1.655   4.385  13.081 -1.3186  0.9189  0.4049
 3252TIP3    H231248   1.621   4.266  13.169  1.9973 -0.7246 -0.3471
 3253TIP3   OH231249   2.700   2.218   1.515 -0.1989  0.0559 -0.3016
 3253TIP3    H131250   2.733   2.129   1.507  1.4498  0.6921 -1.2432
 3253TIP3    H231251   2.728   2.261   1.434 -2.7953  0.9019 -0.8397
 3254TIP3   OH231252   3.654   2.318  14.486  0.0978 -0.3767 -0.1787
 3254TIP3    H131253   3.568   2.315  14.446  0.5085  0.6314 -1.1959
 3254TIP3    H231254   3.637   2.342  14.577 -0.6674  0.6235 -0.5620
 3255TIP3   OH231255   5.328   4.068   4.015  0.7243  0.1577 -0.5521
 3255TIP3    H131256   5.395   4.043   3.951  1.9647 -0.5727  0.9685
 3255TIP3    H231257   5.251   4.019   3.988  0.9167  0.5934 -2.0282
 3256TIP3   OH231258   5.712   2.906   6.472 -0.1880 -0.3753 -0.2223
 3256TIP3    H131259   5.719   2.847   6.547 -1.6089  0.0947  0.3180
 3256TIP3    H231260   5.650   2.863   6.413 -1.0501  0.4280  0.0679
 3257TIP3   OH231261   3.477   6.354   4.026  0.3701  0.4417  1.2768
 3257TIP3    H131262   3.391   6.368   3.987  0.6779 -2.1293 -0.6204
 3257TIP3    H231263   3.462   6.360   4.120 -1.9622 -0.1195  1.0009
 3258TIP3   OH231264   1.498   1.639   1.773  0.1555 -0.2119 -0.4762
 3258TIP3    H131265   1.509   1.624   1.867  2.6917  0.4218 -0.6087
 3258TIP3    H231266   1.526   1.729   1.760  0.4324 -0.4885 -1.9182
 3259TIP3   OH231267   1.131   3.841  16.752  0.3703  0.2891 -0.1855
 3259TIP3    H131268   1.126   3.788  16.831  1.6222  0.0674 -0.2265
 3259TIP3    H231269   1.114   3.779  16.680  0.0213  0.3210 -0.1280
 3260TIP3   OH231270   5.161   6.226   1.525 -0.7877  0.1974 -0.0343
 3260TIP3    H131271   5.253   6.203   1.510 -0.6658 -0.0908  1.0822
 3260TIP3    H231272   5.160   6.267   1.612 -1.4423  1.9154 -0.8092
 3261TIP3   OH231273   0.149   2.428  13.359 -0.0547 -0.4585 -0.3932
 3261TIP3    H131274   0.180   2.411  13.270 -0.3299 -0.9681 -0.3951
 3261TIP3    H231275   0.217   2.390  13.415 -1.5232 -3.3720 -0.3845
 3262TIP3   OH231276   0.304   1.458   2.934 -0.7369  0.4014  0.6046
 3262TIP3    H131277   0.261   1.373   2.921 -0.8050  0.3713  1.0138
 3262TIP3    H231278   0.391   1.436   2.967 -0.5554  0.4760  0.1849
 3263TIP3   OH231279   1.237   4.932   2.936 -0.6454 -0.2057  0.4221
 3263TIP3    H131280   1.312   4.874   2.917 -2.0860 -1.6443 -1.2795
 3263TIP3    H231281   1.250   5.007   2.878 -0.9001 -0.8126 -0.4325
 3264TIP3   OH231282   3.199   4.374   6.705  0.1169 -0.2145 -0.1216
 3264TIP3    H131283   3.242   4.317   6.642  0.5688  0.7879 -0.7375
 3264TIP3    H231284   3.268   4.433   6.735 -0.8914  1.7471 -1.4917
 3265TIP3   OH231285   4.412   6.410  16.000 -0.1014 -0.6361 -0.5499
 3265TIP3    H131286   4.337   6.442  15.949 -0.5582  1.3373  1.1708
 3265TIP3    H231287   4.487   6.460  15.966 -0.5564  1.3453  1.1492
 3266TIP3   OH231288   5.398   0.922   4.524 -0.6458 -0.4244 -0.0397
 3266TIP3    H131289   5.422   0.829   4.512  0.9089  0.0411 -0.9032
 3266TIP3    H231290   5.360   0.948   4.440  0.2533  0.0733 -0.3056
 3267TIP3   OH231291   4.297   4.379  15.914 -0.0928  0.4324  0.2177
 3267TIP3    H131292   4.223   4.422  15.958 -1.2803 -0.7065 -0.5865
 3267TIP3    H231293   4.370   4.387  15.976 -1.5039 -0.4946  2.1079
 3268TIP3   OH231294   4.077   1.418   1.130 -0.1244  0.2815  0.6725
 3268TIP3    H131295   4.078   1.399   1.224 -0.4119 -2.1229  0.2443
 3268TIP3    H231296   3.999   1.373   1.098 -0.2160  1.3508 -0.6938
 3269TIP3   OH231297   3.150   2.887  14.796 -0.4658 -0.1019 -0.1184
 3269TIP3    H131298   3.114   2.804  14.766  2.0544 -1.6743  0.8916
 3269TIP3    H231299   3.203   2.919  14.723 -2.2150  1.2297 -0.8875
 3270TIP3   OH231300   5.975   3.049   0.931  0.4001  0.1008  0.5558
 3270TIP3    H131301   5.896   3.071   0.882  0.0565 -0.9353  0.6317
 3270TIP3    H231302   6.031   3.004   0.868  1.4699  1.8752  0.1618
 3271TIP3   OH231303   3.079   0.088   2.482  0.4426  0.4322  0.0774
 3271TIP3    H131304   3.038   0.086   2.568 -2.8923  0.1435 -1.3348
 3271TIP3    H231305   3.015   0.047   2.424  2.4796  0.7024 -2.5795
 3272TIP3   OH231306   6.234   0.960   0.460  0.3601  0.2380  1.2492
 3272TIP3    H131307   6.247   0.908   0.539 -2.2012 -1.1382  0.8832
 3272TIP3    H231308   6.157   1.013   0.478  1.1608  1.7408  0.4933
 3273TIP3   OH231309   0.359   3.477   2.689  0.4640 -0.3766  0.5957
 3273TIP3    H131310   0.388   3.407   2.747  0.2594 -0.2560  0.8475
 3273TIP3    H231311   0.314   3.432   2.618 -0.5722 -0.4610  1.2775
 3274TIP3   OH231312   2.223   3.973   1.221 -0.1711  0.3172 -0.0999
 3274TIP3    H131313   2.176   3.897   1.253 -0.6595  1.0990  1.1077
 3274TIP3    H231314   2.155   4.041   1.212  0.3215  0.7415 -0.7252
 3275TIP3   OH231315   6.785   5.993  16.499  0.0308 -0.1976  0.8696
 3275TIP3    H131316   6.709   6.001  16.442 -0.1306 -2.0803  0.7523
 3275TIP3    H231317   6.832   5.917  16.465  1.2689  0.1587  1.7394
 3276TIP3   OH231318   6.452   2.984  12.475 -0.4538 -0.1468  0.6436
 3276TIP3    H131319   6.513   3.008  12.544 -0.9893 -1.5996  1.6681
 3276TIP3    H231320   6.504   2.928  12.416 -0.1681  0.5930  0.1679
 3277TIP3   OH231321   3.384   5.779  13.044  0.4795  0.1236 -0.2731
 3277TIP3    H131322   3.354   5.773  13.135  1.4603 -1.0578 -0.0087
 3277TIP3    H231323   3.433   5.861  13.041  2.0665 -0.7297  0.7921
 3278TIP3   OH231324   3.230   0.257  16.719  0.3334 -0.2634  0.0035
 3278TIP3    H131325   3.272   0.287  16.639  1.2372 -0.9775  0.1932
 3278TIP3    H231326   3.302   0.239  16.780 -0.3000 -0.3887  0.7419
 3279TIP3   OH231327   1.189   0.828  11.946 -0.1872  0.4229 -0.5056
 3279TIP3    H131328   1.219   0.882  12.019  0.3021 -1.2247  0.5605
 3279TIP3    H231329   1.266   0.780  11.918 -0.3921  0.9717 -2.0880
 3280TIP3   OH231330   1.327   2.573   0.249  0.4065 -0.2272  0.0100
 3280TIP3    H131331   1.244   2.569   0.201 -0.1135 -0.4436  0.9025
 3280TIP3    H231332   1.394   2.564   0.181 -0.2973 -0.1617 -0.7152
 3281TIP3   OH231333   4.703   1.622   2.465 -0.1759 -0.4731 -0.3398
 3281TIP3    H131334   4.736   1.612   2.376  0.4960  1.2271 -0.3209
 3281TIP3    H231335   4.702   1.533   2.501  2.6510 -0.8282 -0.9626
 3282TIP3   OH231336   2.611   6.117  14.903 -0.2738  0.4212  0.2870
 3282TIP3    H131337   2.640   6.072  14.982  0.5524  1.3043  0.5185
 3282TIP3    H231338   2.692   6.153  14.865 -0.5990 -0.3444 -1.1975
 3283TIP3   OH231339   0.116   1.940   1.760 -0.3467  0.3966 -0.9293
 3283TIP3    H131340   0.122   1.959   1.854  2.2748 -1.3049 -0.6524
 3283TIP3    H231341   0.045   1.876   1.754 -0.3797  0.3326 -0.0661
 3284TIP3   OH231342   4.204   6.222  13.470 -0.3150 -0.1908 -0.0249
 3284TIP3    H131343   4.181   6.243  13.560  0.7160  1.3154 -0.0711
 3284TIP3    H231344   4.292   6.259  13.458 -0.6735  0.2164 -1.8185
 3285TIP3   OH231345   6.510   3.699  10.520  0.8805  0.1250 -0.8368
 3285TIP3    H131346   6.569   3.772  10.538 -0.1035  1.2043 -1.8325
 3285TIP3    H231347   6.431   3.739  10.484 -0.2979 -1.3077 -0.0158
 3286TIP3   OH231348   0.414   2.187   1.283  0.7251  0.5224  0.4387
 3286TIP3    H131349   0.439   2.276   1.256  1.9524 -0.0723 -0.5015
 3286TIP3    H231350   0.335   2.199   1.336  1.4253  2.2596  1.1604
 3287TIP3   OH231351   6.302   4.845   5.499  0.0112 -0.4280  0.6074
 3287TIP3    H131352   6.270   4.865   5.411 -1.0782  0.1465  1.1190
 3287TIP3    H231353   6.236   4.882   5.558  1.4057  0.4069  1.6987
 3288TIP3   OH231354   1.162   3.612   0.727  0.0359  0.5193  0.2839
 3288TIP3    H131355   1.073   3.578   0.736  0.0448  0.4574  0.1420
 3288TIP3    H231356   1.151   3.705   0.706 -0.0610  0.0142 -2.1945
 3289TIP3   OH231357   3.080   5.736   2.036 -0.1388  0.4825 -0.1594
 3289TIP3    H131358   3.025   5.757   1.960 -0.9758 -0.7402  0.0939
 3289TIP3    H231359   3.087   5.641   2.035  1.9137  0.5975 -0.1211
 3290TIP3   OH231360   3.847   4.491   3.749  0.1511 -0.5563  0.4123
 3290TIP3    H131361   3.898   4.413   3.770 -1.0966 -1.6688 -0.5671
 3290TIP3    H231362   3.815   4.476   3.660 -0.6770  0.7571  0.4640
 3291TIP3   OH231363   0.779   5.747  14.026 -0.4191 -0.4072 -0.1005
 3291TIP3    H131364   0.797   5.661  14.064 -1.0472 -0.1757  0.7689
 3291TIP3    H231365   0.705   5.733  13.967 -0.7505 -0.4154  0.3067
 3292TIP3   OH231366   5.058   3.125   4.809  0.7617  0.3267 -0.0374
 3292TIP3    H131367   5.006   3.114   4.729  2.1590  1.3934 -1.1401
 3292TIP3    H231368   5.036   3.049   4.862 -1.3010  0.3377 -0.7954
 3293TIP3   OH231369   5.906   1.004  15.090 -0.7465 -0.1045  0.0617
 3293TIP3    H131370   5.833   0.951  15.122 -0.8662 -2.0223 -2.9290
 3293TIP3    H231371   5.984   0.961  15.126 -0.9523  0.6432  1.4873
 3294TIP3   OH231372   0.322   6.789  15.053 -0.0394 -0.2374 -0.6161
 3294TIP3    H131373   0.285   6.762  15.137 -0.1684  0.5326 -0.4170
 3294TIP3    H231374   0.332   6.708  15.003  0.4196 -0.7517  0.2943
 3295TIP3   OH231375   0.247   6.315  14.047  0.6352 -0.3368  0.3134
 3295TIP3    H131376   0.157   6.293  14.023 -0.2672  1.5156  1.7929
 3295TIP3    H231377   0.280   6.236  14.090 -0.1632 -1.1260 -0.4606
 3296TIP3   OH231378   4.222   1.921   5.673 -0.1057  0.1305  0.3081
 3296TIP3    H131379   4.279   1.858   5.718  2.4750  0.8214 -1.7328
 3296TIP3    H231380   4.176   1.870   5.607  1.7270  0.2526 -1.1191
 3297TIP3   OH231381   1.253   6.270  13.058 -0.2889 -0.1684  0.1378
 3297TIP3    H131382   1.291   6.185  13.082  0.3702 -0.7492 -2.5726
 3297TIP3    H231383   1.161   6.264  13.085 -0.3065 -1.8731 -0.1687
 3298TIP3   OH231384   5.162   4.357  15.898 -0.4017 -0.0238 -0.4196
 3298TIP3    H131385   5.160   4.401  15.983  0.8645  0.0669 -0.4187
 3298TIP3    H231386   5.184   4.267  15.918  0.8419  0.2008 -0.7054
 3299TIP3   OH231387   3.347   0.435   1.444 -0.3663 -0.3733  0.6176
 3299TIP3    H131388   3.434   0.471   1.456  0.7924 -2.4279 -0.9931
 3299TIP3    H231389   3.291   0.512   1.432  1.2396  0.9808  1.4687
 3300TIP3   OH231390   3.824   4.579  15.467  0.4509 -0.2836  0.2808
 3300TIP3    H131391   3.884   4.519  15.423 -0.1263  0.5190 -1.7209
 3300TIP3    H231392   3.752   4.524  15.496  1.2349 -0.9605  1.0209
 3301TIP3   OH231393   5.560   3.410  16.119  0.2305 -0.3602 -0.1660
 3301TIP3    H131394   5.627   3.348  16.091  1.3637  0.2799  0.9983
 3301TIP3    H231395   5.536   3.380  16.207 -2.4693 -1.7194 -1.2634
 3302TIP3   OH231396   4.256   6.728  10.671 -0.5297 -0.5020 -0.2668
 3302TIP3    H131397   4.325   6.793  10.661 -0.8174 -0.1808 -0.1959
 3302TIP3    H231398   4.295   6.646  10.640 -0.0711 -0.3555 -0.0811
 3303TIP3   OH231399   6.042   4.316   2.606  0.1236 -0.3092  0.0123
 3303TIP3    H131400   5.947   4.325   2.599 -0.1672 -1.8890  1.4375
 3303TIP3    H231401   6.055   4.255   2.678  2.3156  2.6739  2.3894
 3304TIP3   OH231402   2.574   3.884  11.752  0.5144 -0.6843 -0.1465
 3304TIP3    H131403   2.481   3.885  11.731  0.6853  1.0536 -1.0644
 3304TIP3    H231404   2.581   3.937  11.831  0.8118  0.0191 -0.6341
 3305TIP3   OH231405   6.297   1.614  16.997  0.6131 -0.6049  0.1881
 3305TIP3    H131406   6.350   1.535  16.982  1.0377 -0.2103 -0.4531
 3305TIP3    H231407   6.308   1.665  16.917 -1.9853 -1.1927 -0.6308
 3306TIP3   OH231408   2.408   5.767  14.866 -0.2023 -0.2134  0.4211
 3306TIP3    H131409   2.373   5.685  14.832 -0.1431  0.5453 -1.6028
 3306TIP3    H231410   2.357   5.835  14.821  0.1060  0.8759  1.6462
 3307TIP3   OH231411   6.019   6.736  13.845 -0.2711  0.6065  0.2830
 3307TIP3    H131412   6.105   6.764  13.877  0.4507 -0.5339 -0.5879
 3307TIP3    H231413   5.985   6.679  13.915 -0.1610  0.7579  0.4605
 3308TIP3   OH231414   4.115   1.304   4.214 -0.4215  0.1061 -0.1538
 3308TIP3    H131415   4.081   1.393   4.212 -0.9636 -0.1138 -0.9024
 3308TIP3    H231416   4.038   1.248   4.209  0.0307 -0.4077 -3.1222
 3309TIP3   OH231417   0.032   5.740   2.367 -0.0351 -0.6266  0.5030
 3309TIP3    H131418   0.078   5.809   2.414 -2.0245  1.2524 -0.1638
 3309TIP3    H231419   0.012   5.674   2.434  0.0226  0.4644  1.6200
 3310TIP3   OH231420   0.224   3.364  12.013 -0.0801  0.2740  0.7854
 3310TIP3    H131421   0.169   3.405  11.947  1.4258  0.6667 -0.2836
 3310TIP3    H231422   0.261   3.437  12.063  1.1308  0.1660  0.0932
 3311TIP3   OH231423   0.392   0.529  14.304 -0.2140 -0.1085  0.0662
 3311TIP3    H131424   0.328   0.514  14.234 -1.0811  0.2601  0.7599
 3311TIP3    H231425   0.476   0.506  14.264 -0.8116 -1.0180 -0.7419
 3312TIP3   OH231426   3.511   0.540  10.963 -0.1447  0.0156 -0.1623
 3312TIP3    H131427   3.500   0.574  10.874  0.8523 -1.0800 -0.7363
 3312TIP3    H231428   3.552   0.454  10.950 -1.5083 -0.9031  1.2703
 3313TIP3   OH231429   1.368   4.550  13.935  0.0252  0.0730 -0.2708
 3313TIP3    H131430   1.462   4.562  13.944  0.0285  1.0552 -1.4187
 3313TIP3    H231431   1.357   4.457  13.913  0.5322 -0.5723  1.8877
 3314TIP3   OH231432   4.522   2.649   3.300  0.1369 -0.5317 -0.4123
 3314TIP3    H131433   4.525   2.555   3.282 -0.4341 -0.8130  0.8862
 3314TIP3    H231434   4.585   2.662   3.371 -0.4911 -0.1097  0.0830
 3315TIP3   OH231435   6.608   5.123  15.389 -0.0206  0.3272 -0.1864
 3315TIP3    H131436   6.619   5.202  15.335  1.0018  1.4451  1.5692
 3315TIP3    H231437   6.520   5.131  15.425  0.3731  1.1081  0.6283
 3316TIP3   OH231438   1.166   2.292  13.726  0.0650 -0.7467 -0.2424
 3316TIP3    H131439   1.189   2.334  13.643 -0.3142 -1.1292 -0.5433
 3316TIP3    H231440   1.157   2.199  13.704 -1.2399 -0.6859 -0.0352
 3317TIP3   OH231441   0.623   0.520  13.289 -0.0173  0.3366 -0.5458
 3317TIP3    H131442   0.688   0.504  13.357 -0.4981 -0.1427 -0.1994
 3317TIP3    H231443   0.539   0.521  13.334 -0.4774 -1.2991 -1.2963
 3318TIP3   OH231444   4.647   3.518   3.404  0.0950  0.2221 -0.0053
 3318TIP3    H131445   4.698   3.589   3.366 -1.3028  1.0742 -0.3562
 3318TIP3    H231446   4.583   3.562   3.460  0.2288 -0.8579  1.0371
 3319TIP3   OH231447   6.429   4.584   1.755 -0.4194 -0.1055  0.3344
 3319TIP3    H131448   6.514   4.542   1.741 -0.5426 -0.0776 -0.5131
 3319TIP3    H231449   6.365   4.516   1.734 -0.6145  0.2882 -0.3746
 3320TIP3   OH231450   0.918   3.500  13.820 -0.1265 -0.0284 -0.3909
 3320TIP3    H131451   0.933   3.438  13.891 -3.7146 -1.0727 -0.3396
 3320TIP3    H231452   0.875   3.575  13.862 -1.5759 -0.3249 -1.2534
 3321TIP3   OH231453   4.506   0.885  13.389  0.5268 -0.5321  0.4332
 3321TIP3    H131454   4.504   0.904  13.295 -0.4515 -3.1707 -0.1552
 3321TIP3    H231455   4.568   0.948  13.424  1.0892  0.4005 -2.0032
 3322TIP3   OH231456   3.856   5.510   4.511  0.2974 -0.4917 -0.3089
 3322TIP3    H131457   3.916   5.470   4.574  0.1437 -0.5517 -0.2004
 3322TIP3    H231458   3.771   5.471   4.531 -0.0803  0.6968  0.5289
 3323TIP3   OH231459   1.943   5.601   1.613  0.7857 -0.2525  1.0224
 3323TIP3    H131460   1.977   5.627   1.699  0.1322  0.3528  1.1128
 3323TIP3    H231461   1.954   5.680   1.559  0.3373 -0.3297  0.8166
 3324TIP3   OH231462   6.507   4.751   1.147 -0.1745 -0.4964  0.0758
 3324TIP3    H131463   6.470   4.755   1.236 -1.1906 -1.3984 -0.2823
 3324TIP3    H231464   6.542   4.839   1.132 -2.1689  0.4445  0.4884
 3325TIP3   OH231465   1.423   0.730   2.842 -0.2838  0.5081  0.4637
 3325TIP3    H131466   1.435   0.752   2.749  0.4467  0.4534  0.5425
 3325TIP3    H231467   1.443   0.811   2.889 -1.4770  0.7789  0.5371
 3326TIP3   OH231468   5.533   6.280  14.012  0.1229  0.2707  0.2120
 3326TIP3    H131469   5.445   6.314  13.993 -0.0285  0.0474  0.5052
 3326TIP3    H231470   5.590   6.355  13.999 -0.3662  1.0943  2.2764
 3327TIP3   OH231471   5.460   4.071  14.448 -0.5239 -0.1177 -0.5213
 3327TIP3    H131472   5.411   4.118  14.381  0.4922  0.9190 -0.5558
 3327TIP3    H231473   5.395   4.050  14.515 -1.4506 -0.7169 -1.5673
 3328TIP3   OH231474   6.519   6.069  12.685 -0.3683  0.0142  0.3674
 3328TIP3    H131475   6.610   6.037  12.682 -0.0752  0.7741  0.8290
 3328TIP3    H231476   6.519   6.132  12.757 -0.6215  1.9809 -1.2819
 3329TIP3   OH231477   1.459   1.479   0.320  0.1861  0.2294 -0.2807
 3329TIP3    H131478   1.388   1.478   0.256 -1.0687  0.6852  1.0407
 3329TIP3    H231479   1.539   1.477   0.268 -0.7794  0.8626 -1.8479
 3330TIP3   OH231480   3.941   6.373  12.925 -0.1898  0.5130  0.5193
 3330TIP3    H131481   3.947   6.424  13.006  0.7906  0.9394  0.1971
 3330TIP3    H231482   3.895   6.430  12.864  1.4107  1.2912 -0.0174
 3331TIP3   OH231483   0.916   5.731  14.782 -0.3389 -0.1723 -0.2380
 3331TIP3    H131484   0.890   5.697  14.697  1.4331 -1.0591 -0.4780
 3331TIP3    H231485   1.012   5.734  14.779 -0.2894  1.4556  1.1026
 3332TIP3   OH231486   1.486   4.207  16.953  0.0911 -0.2416  0.4366
 3332TIP3    H131487   1.447   4.198  16.866  1.7570  0.1092 -0.3742
 3332TIP3    H231488   1.481   4.119  16.991 -0.4238 -0.4478 -0.0881
 3333TIP3   OH231489   0.453   5.175  12.867 -0.1336  0.2819  0.3451
 3333TIP3    H131490   0.469   5.248  12.809 -0.0540 -0.8767 -1.1560
 3333TIP3    H231491   0.411   5.213  12.944  0.7206  1.9926 -0.0087
 3334TIP3   OH231492   5.863   4.010  11.546  0.0749  0.1256 -0.2434
 3334TIP3    H131493   5.785   3.987  11.596 -0.2912 -0.9438 -1.2589
 3334TIP3    H231494   5.869   3.942  11.479  0.8171  1.2428 -1.3508
 3335TIP3   OH231495   3.165   6.713   4.950  0.0516  0.5527 -0.2487
 3335TIP3    H131496   3.121   6.759   4.878  2.0110  1.0352 -1.2206
 3335TIP3    H231497   3.109   6.727   5.026 -1.8199  0.4966 -1.5402
 3336TIP3   OH231498   4.256   2.657  15.405 -0.0918 -0.0131 -0.4159
 3336TIP3    H131499   4.338   2.610  15.389  0.2969 -0.3741  2.2218
 3336TIP3    H231500   4.199   2.630  15.333  1.7786 -0.4782 -1.8022
 3337TIP3   OH231501   2.621   5.954  13.317 -0.2306 -0.3019  0.0774
 3337TIP3    H131502   2.595   5.985  13.230  0.7149  0.8481  0.1717
 3337TIP3    H231503   2.539   5.945  13.365 -0.7343 -0.5510 -0.8040
 3338TIP3   OH231504   0.643   3.392   5.005  0.2727 -0.2426  0.6891
 3338TIP3    H131505   0.729   3.411   4.966 -0.2119  0.1156 -0.2300
 3338TIP3    H231506   0.625   3.302   4.979  0.2625 -0.2367  0.6760
 3339TIP3   OH231507   1.016   2.767  16.203 -0.4475 -0.1005  0.6034
 3339TIP3    H131508   1.062   2.808  16.130 -0.8996  0.6441  0.7268
 3339TIP3    H231509   1.085   2.730  16.258 -0.1146 -1.0335 -0.3956
 3340TIP3   OH231510   5.136   2.298   5.366 -0.6686  0.1344 -0.0452
 3340TIP3    H131511   5.052   2.342   5.350 -1.0116 -0.2912  0.5682
 3340TIP3    H231512   5.115   2.226   5.425 -0.0950 -0.8155 -0.9511
 3341TIP3   OH231513   5.810   3.509  12.607 -0.6637 -0.4990 -0.4477
 3341TIP3    H131514   5.886   3.560  12.580 -1.4258 -0.1489 -2.0385
 3341TIP3    H231515   5.838   3.465  12.687  0.9771  0.1433 -0.6326
 3342TIP3   OH231516   4.551   5.510  15.315  0.0073  0.0254  0.3380
 3342TIP3    H131517   4.596   5.469  15.389  0.2369  0.0518  0.2116
 3342TIP3    H231518   4.500   5.439  15.276  1.8656 -0.6076 -1.0327
 3343TIP3   OH231519   4.373   5.662  16.327  0.3039  0.4876 -0.4228
 3343TIP3    H131520   4.451   5.624  16.286  0.3356  0.5254 -0.3982
 3343TIP3    H231521   4.403   5.689  16.414 -0.2584 -1.5013  0.4382
 3344TIP3   OH231522   2.105   3.981  14.170 -0.3090  0.0583  0.2116
 3344TIP3    H131523   2.036   4.024  14.222 -2.8453 -3.4031  0.0516
 3344TIP3    H231524   2.137   3.911  14.227  2.6610  1.0943 -0.0362
 3345TIP3   OH231525   6.570   1.861   5.099 -0.4674  0.0660 -0.3745
 3345TIP3    H131526   6.509   1.934   5.105 -1.1740 -0.4370 -1.1856
 3345TIP3    H231527   6.551   1.808   5.177 -1.3159 -0.2674 -0.8008
 3346TIP3   OH231528   0.855   1.173   2.020  0.3538  0.2886  0.1862
 3346TIP3    H131529   0.761   1.192   2.020  0.0666 -0.8897 -1.5209
 3346TIP3    H231530   0.864   1.097   1.962  2.3238  0.1568  0.6040
 3347TIP3   OH231531   1.769   4.182  11.865  0.6176  0.2338  0.0852
 3347TIP3    H131532   1.712   4.141  11.930  0.1399  1.3855  0.4030
 3347TIP3    H231533   1.754   4.130  11.785 -1.9394  1.3084 -0.2313
 3348TIP3   OH231534   0.349   2.720  15.597  0.0768  0.4592  0.5207
 3348TIP3    H131535   0.349   2.645  15.657  2.4751 -0.0717 -0.0274
 3348TIP3    H231536   0.441   2.737  15.580 -0.4714  1.8562 -1.4717
 3349TIP3   OH231537   0.016   4.552   2.926 -0.1192  0.1697 -0.0821
 3349TIP3    H131538   0.104   4.524   2.903 -0.9903 -0.8140 -2.4298
 3349TIP3    H231539   0.016   4.555   3.022  3.1394  2.5510 -0.0017
 3350TIP3   OH231540   3.785   1.117  16.203 -0.2306  0.2014  0.5500
 3350TIP3    H131541   3.784   1.209  16.229  1.9011  0.4468 -0.0754
 3350TIP3    H231542   3.777   1.119  16.108  1.2140 -0.1401  0.3975
 3351TIP3   OH231543   0.285   2.429   2.148 -0.4269 -0.0235 -0.7882
 3351TIP3    H131544   0.234   2.356   2.183 -0.9775  0.3156 -0.8700
 3351TIP3    H231545   0.371   2.421   2.189 -0.8816  0.0276  0.1911
 3352TIP3   OH231546   2.960   4.202  14.610  0.3856  0.2055 -0.4470
 3352TIP3    H131547   2.888   4.145  14.583  0.9657 -0.0467 -1.5156
 3352TIP3    H231548   3.022   4.199  14.537  2.3054 -0.9499  1.1046
 3353TIP3   OH231549   1.444   5.192   6.361 -0.0503  0.1104 -0.2523
 3353TIP3    H131550   1.417   5.139   6.286  1.9857  0.5261 -1.3574
 3353TIP3    H231551   1.378   5.262   6.365 -2.0561 -1.6910  0.4656
 3354TIP3   OH231552   5.791   2.504  15.345  0.6175  0.0357 -0.1620
 3354TIP3    H131553   5.827   2.587  15.313  2.0255 -0.5911 -0.2818
 3354TIP3    H231554   5.780   2.517  15.439 -0.9627  0.9646 -0.4364
 3355TIP3   OH231555   3.131   0.359  15.190  0.3766 -0.3410  0.2361
 3355TIP3    H131556   3.097   0.406  15.266 -1.9454  1.1413 -1.5867
 3355TIP3    H231557   3.114   0.267  15.210  0.6647 -0.0759  1.8704
 3356TIP3   OH231558   5.021   6.255  17.009  0.4206  0.2965 -0.2195
 3356TIP3    H131559   5.080   6.328  16.989  3.1007 -1.6773  0.0021
 3356TIP3    H231560   5.022   6.249  17.104 -0.8528  0.7446 -0.1595
 3357TIP3   OH231561   0.118   4.019  14.272 -0.0496  0.3380  0.7689
 3357TIP3    H131562   0.084   4.086  14.213  0.5561 -0.8111 -0.9741
 3357TIP3    H231563   0.205   3.998  14.237  0.1310 -0.7389  1.7831
 3358TIP3   OH231564   5.961   0.672   0.469 -0.6747 -0.3262  0.2815
 3358TIP3    H131565   5.939   0.617   0.394 -0.3642  1.5423 -1.2551
 3358TIP3    H231566   6.028   0.622   0.516 -0.0649 -1.0727 -1.2985
 3359TIP3   OH231567   6.442   1.787   5.798 -0.7773 -0.3857  0.2652
 3359TIP3    H131568   6.513   1.829   5.846 -1.6187 -0.7531  1.8926
 3359TIP3    H231569   6.440   1.698   5.832  0.3703 -1.5473 -2.4555
 3360TIP3   OH231570   1.008   1.367  14.714 -0.1232  1.1239  0.1852
 3360TIP3    H131571   0.973   1.290  14.670  1.4021  0.1308  0.6524
 3360TIP3    H231572   0.937   1.398  14.770 -1.1599  0.8049 -0.8995
 3361TIP3   OH231573   6.043   4.323  12.325 -0.3583 -0.3399 -0.5874
 3361TIP3    H131574   6.008   4.306  12.412  2.3088  0.6381  0.8088
 3361TIP3    H231575   6.058   4.236  12.287 -0.3543 -0.8207  0.4838
 3362TIP3   OH231576   2.159   5.422   0.730 -0.3157  0.0071  0.8609
 3362TIP3    H131577   2.215   5.427   0.653 -1.4627  1.5476  0.0699
 3362TIP3    H231578   2.099   5.349   0.712 -1.2846  1.0239 -0.2672
 3363TIP3   OH231579   0.451   4.228   2.074 -0.0364 -0.5863  0.1466
 3363TIP3    H131580   0.447   4.207   1.981 -0.9851 -1.3163  0.3254
 3363TIP3    H231581   0.395   4.162   2.116 -1.6019  1.1442  0.9699
 3364TIP3   OH231582   5.479   2.491  16.537 -0.3533 -0.5201 -0.2975
 3364TIP3    H131583   5.470   2.583  16.565  0.5093 -0.0543 -1.5019
 3364TIP3    H231584   5.395   2.471  16.495 -0.0552  0.1625 -1.2512
 3365TIP3   OH231585   4.475   5.848  13.740 -0.0523  0.4200 -0.2277
 3365TIP3    H131586   4.396   5.899  13.725 -0.6393 -0.2863  0.3814
 3365TIP3    H231587   4.544   5.913  13.754 -0.3727  1.0528 -1.4261
 3366TIP3   OH231588   1.246   2.406   2.557  0.1384  0.4908 -0.5731
 3366TIP3    H131589   1.297   2.329   2.532  0.5210 -0.2093  2.0604
 3366TIP3    H231590   1.310   2.476   2.566  0.3937  0.1113  0.7772
 3367TIP3   OH231591   2.075   2.210   1.338  0.5336 -0.5615  0.5167
 3367TIP3    H131592   2.137   2.208   1.265 -0.0400 -0.0825  0.0007
 3367TIP3    H231593   2.051   2.302   1.346 -0.0285 -0.7270  0.7754
 3368TIP3   OH231594   2.566   3.554  16.293  0.2870  0.3564 -0.1320
 3368TIP3    H131595   2.628   3.626  16.302 -1.1160  1.8080 -1.5447
 3368TIP3    H231596   2.566   3.534  16.199 -2.4874  1.4783 -0.4587
 3369TIP3   OH231597   6.541   0.697   6.148  0.4885  0.3110  0.0286
 3369TIP3    H131598   6.471   0.670   6.088 -0.5276 -0.1203  1.3490
 3369TIP3    H231599   6.606   0.740   6.092 -1.2270  1.5034 -1.1480
 3370TIP3   OH231600   0.929   6.810  15.047 -0.5656  0.2206  0.1864
 3370TIP3    H131601   0.972   6.811  15.133  1.9419 -0.8518 -0.9394
 3370TIP3    H231602   0.862   6.743  15.054  0.1653 -0.4442  1.0986
 3371TIP3   OH231603   3.619   1.022   0.778 -0.5898 -0.0048 -0.4741
 3371TIP3    H131604   3.663   0.948   0.737  0.0646  1.0185 -1.6658
 3371TIP3    H231605   3.574   1.067   0.707 -0.0728  1.3663  0.0302
 3372TIP3   OH231606   4.686   2.202  11.265 -0.2215  0.1998 -0.7929
 3372TIP3    H131607   4.631   2.250  11.203 -0.6770 -0.0709 -0.6007
 3372TIP3    H231608   4.713   2.123  11.218 -1.3184 -0.4557 -0.3370
 3373TIP3   OH231609   5.960   2.675   6.081 -0.1756  0.1906  0.3459
 3373TIP3    H131610   5.960   2.591   6.035 -0.0488  0.4916 -0.2137
 3373TIP3    H231611   5.867   2.693   6.095 -0.2519  0.4073 -0.3828
 3374TIP3   OH231612   0.811   6.379  16.641  0.4084 -0.6389  0.3263
 3374TIP3    H131613   0.789   6.472  16.638  0.5724 -0.6230 -1.0812
 3374TIP3    H231614   0.904   6.377  16.664 -0.0776 -0.5702  2.5311
 3375TIP3   OH231615   1.835   6.380  15.914  0.2791  0.5858  0.6005
 3375TIP3    H131616   1.878   6.390  15.999 -1.2755  1.7887  1.2969
 3375TIP3    H231617   1.853   6.462  15.868 -1.1128  1.0732  0.8684
 3376TIP3   OH231618   6.382   2.099   0.311  0.4686 -0.9947 -0.1966
 3376TIP3    H131619   6.380   2.153   0.390  0.4705 -0.3583 -0.6282
 3376TIP3    H231620   6.404   2.011   0.343  2.4393 -0.3695  0.3220
 3377TIP3   OH231621   2.433   3.222   6.329  0.1770 -0.3862  0.2053
 3377TIP3    H131622   2.431   3.145   6.386  0.0278 -1.1166 -0.7460
 3377TIP3    H231623   2.504   3.275   6.363 -0.7691 -0.1394  1.8773
 3378TIP3   OH231624   2.539   2.861   1.822  0.0172 -0.0152 -0.2058
 3378TIP3    H131625   2.556   2.947   1.861 -1.1483 -0.3191  1.0726
 3378TIP3    H231626   2.444   2.851   1.828  0.1787 -1.5897  0.1293
 3379TIP3   OH231627   2.850   4.181   4.275 -0.6441 -0.6681 -0.5716
 3379TIP3    H131628   2.854   4.086   4.268  0.4171 -0.8911  1.9494
 3379TIP3    H231629   2.806   4.197   4.358  0.5289  0.9934 -0.2116
 3380TIP3   OH231630   3.918   5.320   0.620  0.6182 -0.3945  0.3659
 3380TIP3    H131631   3.950   5.393   0.566 -1.1099  0.1756  0.0460
 3380TIP3    H231632   3.890   5.254   0.556  2.6788 -1.6162  0.6550
 3381TIP3   OH231633   5.260   5.745  14.467 -0.0240  0.4634 -0.2583
 3381TIP3    H131634   5.348   5.728  14.434  1.5825  2.9096  2.2836
 3381TIP3    H231635   5.244   5.676  14.531  1.1007  1.2332  0.9118
 3382TIP3   OH231636   4.795   0.404   0.208  0.1618  0.0998  0.6352
 3382TIP3    H131637   4.891   0.404   0.207  0.1986 -1.6760  0.6701
 3382TIP3    H231638   4.771   0.319   0.172 -1.4648  1.3171 -1.3389
 3383TIP3   OH231639   2.441   0.659  15.506 -0.3400 -0.0500 -0.5504
 3383TIP3    H131640   2.496   0.728  15.545  1.3409 -0.2872 -2.3325
 3383TIP3    H231641   2.483   0.577  15.532  0.5443 -0.2236 -2.3371
 3384TIP3   OH231642   4.714   4.692  11.330  0.0600  0.2793 -0.4140
 3384TIP3    H131643   4.646   4.625  11.320 -0.2777  0.5810 -0.1478
 3384TIP3    H231644   4.745   4.708  11.241 -0.0133 -0.0644 -0.5043
 3385TIP3   OH231645   4.801   2.945  12.484 -0.3080 -0.0117  0.1446
 3385TIP3    H131646   4.730   2.888  12.455  0.9542 -1.8101  0.4708
 3385TIP3    H231647   4.810   2.928  12.577  0.3643  0.4121  0.1679
 3386TIP3   OH231648   0.789   4.349   0.623  0.8615  0.0526 -0.7363
 3386TIP3    H131649   0.748   4.434   0.638  2.2512  1.2008 -2.9535
 3386TIP3    H231650   0.739   4.288   0.677 -1.2511  1.9989 -0.3686
 3387TIP3   OH231651   3.575   3.106  14.244 -0.1392  0.4862  0.7736
 3387TIP3    H131652   3.572   3.010  14.243 -0.2021  0.4883 -0.0691
 3387TIP3    H231653   3.556   3.129  14.335  1.7931 -0.3560  1.4651
 3388TIP3   OH231654   4.797   1.854   4.930 -0.7113 -0.0529  0.4946
 3388TIP3    H131655   4.800   1.824   5.021  1.0335 -1.8419 -0.0901
 3388TIP3    H231656   4.746   1.935   4.933  2.1761  1.8671  3.5830
 3389TIP3   OH231657   6.390   4.375  14.216  0.0553  0.3497  0.2358
 3389TIP3    H131658   6.460   4.324  14.175  0.7424  0.2853  1.4407
 3389TIP3    H231659   6.352   4.426  14.144  1.3182  0.3616 -0.4544
 3390TIP3   OH231660   1.197   5.631  13.745 -0.1383 -0.0208 -0.0376
 3390TIP3    H131661   1.173   5.676  13.826 -1.6900  1.2558 -1.1336
 3390TIP3    H231662   1.121   5.577  13.724  0.1175 -0.1060 -0.7818
 3391TIP3   OH231663   4.889   5.816   4.394 -0.1540 -0.2528  0.3409
 3391TIP3    H131664   4.803   5.783   4.421  0.6607 -1.3227  1.7232
 3391TIP3    H231665   4.898   5.786   4.303 -1.3595  0.1603  0.0645
 3392TIP3   OH231666   5.788   2.213  16.757 -0.3554 -0.2675 -0.1447
 3392TIP3    H131667   5.882   2.201  16.743 -0.4154  0.3528 -1.1635
 3392TIP3    H231668   5.779   2.225  16.851  0.7270  0.8412 -0.1590
 3393TIP3   OH231669   5.019   6.839   0.344 -0.0851  0.0600 -0.0170
 3393TIP3    H131670   5.062   6.920   0.370  0.1197 -1.0556  3.6542
 3393TIP3    H231671   4.935   6.866   0.308 -0.1206  1.9048  1.3200
 3394TIP3   OH231672   5.245   5.124  15.546 -0.1000  0.0192 -0.0296
 3394TIP3    H131673   5.170   5.076  15.511 -0.5691  1.1096 -0.5366
 3394TIP3    H231674   5.209   5.181  15.613  0.2361  0.6799 -0.4011
 3395TIP3   OH231675   1.675   0.265  16.910  0.0462 -1.1916 -0.6299
 3395TIP3    H131676   1.693   0.359  16.919 -3.1889 -0.3857 -1.2079
 3395TIP3    H231677   1.751   0.230  16.864  1.3459  1.1324 -0.3752
 3396TIP3   OH231678   1.955   0.745  10.586  0.3066  0.2167  0.4494
 3396TIP3    H131679   1.927   0.827  10.628 -1.3150  1.2058 -2.2990
 3396TIP3    H231680   1.906   0.677  10.631 -0.5818  1.1065  0.8821
 3397TIP3   OH231681   6.617   6.425  13.150 -0.2990  0.6454  0.1854
 3397TIP3    H131682   6.593   6.421  13.243 -0.8257  0.9560  0.0679
 3397TIP3    H231683   6.644   6.336  13.129  0.7807  0.7871  0.8805
 3398TIP3   OH231684   1.480   4.633   0.508  0.5483 -0.0758  0.3179
 3398TIP3    H131685   1.553   4.615   0.448  0.9786 -0.6964  1.0063
 3398TIP3    H231686   1.516   4.617   0.595 -0.1483  0.5487  0.7316
 3399TIP3   OH231687   4.513   1.049  12.393  0.1130  0.5970  0.2788
 3399TIP3    H131688   4.524   1.133  12.350 -0.6555  1.1204  1.0830
 3399TIP3    H231689   4.602   1.023  12.417  0.3634  1.1251 -0.0539
 3400TIP3   OH231690   4.986   4.502  15.738  0.0787  0.2288  0.7187
 3400TIP3    H131691   4.971   4.549  15.820  0.9907 -0.9132  1.5765
 3400TIP3    H231692   5.032   4.422  15.764 -0.4711 -0.6240 -0.8074
 3401TIP3   OH231693   5.942   1.203  11.372  0.2900  0.0701  0.0507
 3401TIP3    H131694   5.874   1.259  11.408 -1.0821  0.0235 -2.3073
 3401TIP3    H231695   5.927   1.117  11.412 -1.2478 -0.0098 -0.6529
 3402TIP3   OH231696   0.483   4.315  11.863 -0.4301  0.0287 -0.1319
 3402TIP3    H131697   0.572   4.339  11.886 -0.3973 -1.2399  1.1353
 3402TIP3    H231698   0.487   4.222  11.841 -1.7299 -0.5380  1.7846
 3403TIP3   OH231699   0.105   0.397   1.750 -0.0973 -0.0233  0.2760
 3403TIP3    H131700   0.104   0.436   1.662 -0.5491 -2.0820 -0.6916
 3403TIP3    H231701   0.195   0.410   1.781 -0.0146  1.0055 -0.3466
 3404TIP3   OH231702   4.712   3.128   1.750  0.0859 -0.0311  0.1594
 3404TIP3    H131703   4.631   3.134   1.700  0.1740  0.2894  0.0597
 3404TIP3    H231704   4.782   3.149   1.688  0.1154  1.5535  0.6908
 3405TIP3   OH231705   3.141   5.011  12.676 -0.1754  0.7341  0.1824
 3405TIP3    H131706   3.063   5.032  12.624 -0.1024  0.6011  0.0182
 3405TIP3    H231707   3.209   4.994  12.611  0.1488  1.4404  0.3381
 3406TIP3   OH231708   2.673   2.439  13.115 -0.1504  0.1326 -0.3379
 3406TIP3    H131709   2.688   2.351  13.081  1.3356 -0.1004  0.8093
 3406TIP3    H231710   2.609   2.477  13.055 -0.7383 -1.6687 -0.9313
 3407TIP3   OH231711   2.996   3.831  11.803  0.4341 -0.1939 -0.2978
 3407TIP3    H131712   2.934   3.885  11.753  0.0341  0.1886  0.5897
 3407TIP3    H231713   3.026   3.766  11.740 -0.3631  0.0223 -0.9347
 3408TIP3   OH231714   1.038   3.215   1.260  0.2081  0.2874  0.7827
 3408TIP3    H131715   1.039   3.179   1.348 -0.5020  0.0504  0.7008
 3408TIP3    H231716   1.129   3.209   1.231  0.1680 -1.2325  0.8658
 3409TIP3   OH231717   6.409   0.846   5.050 -0.2048  0.3297 -0.0921
 3409TIP3    H131718   6.502   0.830   5.061  0.3549  2.8909 -0.5825
 3409TIP3    H231719   6.402   0.896   4.968 -2.0732 -0.2129 -0.3304
 3410TIP3   OH231720   0.180   3.408  15.073  0.1582  0.0095  0.6654
 3410TIP3    H131721   0.261   3.457  15.069 -0.9062  1.7698 -0.9721
 3410TIP3    H231722   0.136   3.440  15.152  0.0822  0.7106  0.3458
 3411TIP3   OH231723   1.145   5.510  14.745  0.4882  0.3831  0.1171
 3411TIP3    H131724   1.088   5.523  14.669  1.2104  0.2299 -0.4621
 3411TIP3    H231725   1.214   5.575  14.734  0.8029  0.1021  0.4418
 3412TIP3   OH231726   4.324   3.867   1.516  0.0023  0.0145  0.0082
 3412TIP3    H131727   4.243   3.832   1.554 -0.9044 -0.7676 -2.4665
 3412TIP3    H231728   4.390   3.799   1.534 -0.3563 -0.2539  0.3186
 3413TIP3   OH231729   6.794   3.431  16.760  0.4470 -0.6517 -0.4516
 3413TIP3    H131730   6.856   3.500  16.737  1.1116 -0.1476  2.4277
 3413TIP3    H231731   6.708   3.468  16.740  0.8694  0.4964 -0.2183
 3414TIP3   OH231732   5.944   1.935   2.422 -0.2002  0.0096 -0.6366
 3414TIP3    H131733   5.881   1.990   2.469  0.3783  2.2168 -2.2539
 3414TIP3    H231734   5.903   1.918   2.338 -0.8583 -3.1643  0.2210
 3415TIP3   OH231735   2.701   0.711   3.563  0.0283  0.3508 -0.1346
 3415TIP3    H131736   2.714   0.642   3.628  2.0464  0.9706  0.2003
 3415TIP3    H231737   2.642   0.673   3.498 -2.8606  0.0239  2.4773
 3416TIP3   OH231738   5.411   6.776  16.886 -0.6030  0.0101 -0.2812
 3416TIP3    H131739   5.482   6.839  16.895  1.0850 -1.8494  0.2882
 3416TIP3    H231740   5.456   6.691  16.878 -2.7692 -1.4240  1.6042
 3417TIP3   OH231741   4.405   3.616   4.183  0.0032 -0.2760  0.6270
 3417TIP3    H131742   4.355   3.666   4.118 -0.8025 -1.4330  0.3192
 3417TIP3    H231743   4.392   3.663   4.265 -1.9507 -0.7517  0.6328
 3418TIP3   OH231744   2.336   3.840   2.037  0.1395 -0.6264  0.8999
 3418TIP3    H131745   2.361   3.751   2.011 -0.9230 -1.2329  1.8353
 3418TIP3    H231746   2.263   3.862   1.978  1.6064  0.4136 -0.6070
 3419TIP3   OH231747   3.446   6.023  11.399 -0.1109  0.3757  0.0119
 3419TIP3    H131748   3.388   6.098  11.400 -1.9332 -0.9681  0.8859
 3419TIP3    H231749   3.397   5.954  11.443  2.6109 -0.5315  1.8667
 3420TIP3   OH231750   0.315   0.599  16.766 -0.3404 -0.4434  0.3849
 3420TIP3    H131751   0.394   0.646  16.740  0.3424 -1.6005  0.2851
 3420TIP3    H231752   0.254   0.611  16.693 -0.7535  1.5003  0.9977
 3421TIP3   OH231753   1.239   1.800   1.504 -0.2015  0.3193  0.0039
 3421TIP3    H131754   1.230   1.739   1.431  0.2001  1.1182 -0.7331
 3421TIP3    H231755   1.177   1.768   1.570  1.6628 -2.3074  0.6767
 3422TIP3   OH231756   4.662   4.496  13.380 -0.3109  0.4326 -0.2051
 3422TIP3    H131757   4.707   4.434  13.437 -0.5826  1.4689  1.1970
 3422TIP3    H231758   4.669   4.580  13.425 -2.6739  0.8529 -0.4590
 3423TIP3   OH231759   6.356   1.665  16.022 -0.1383 -0.6250 -0.4032
 3423TIP3    H131760   6.388   1.677  16.112 -0.3931 -0.2892 -0.3527
 3423TIP3    H231761   6.267   1.630  16.033 -0.4280  0.0540 -0.5034
 3424TIP3   OH231762   0.534   6.343  16.379  0.7241  0.1997 -0.1871
 3424TIP3    H131763   0.576   6.276  16.434  0.9804  1.2266  0.9159
 3424TIP3    H231764   0.478   6.391  16.439  0.4888  0.9327 -0.9823
 3425TIP3   OH231765   3.672   5.074  13.748 -0.1078 -0.3376 -0.1759
 3425TIP3    H131766   3.662   5.090  13.654  0.2779 -0.2701 -0.2070
 3425TIP3    H231767   3.641   4.985  13.761  2.4687 -1.4250 -0.8373
 3426TIP3   OH231768   1.302   5.247  12.981 -0.2414 -0.1233  0.8659
 3426TIP3    H131769   1.294   5.342  12.990 -1.0561 -0.1447  0.4579
 3426TIP3    H231770   1.387   5.234  12.940  0.2860  0.3708  1.7647
 3427TIP3   OH231771   0.869   2.525  11.646 -0.0077  0.4121  0.5194
 3427TIP3    H131772   0.855   2.433  11.669 -1.2482  0.3709 -0.3101
 3427TIP3    H231773   0.802   2.573  11.695 -1.1548  0.5586 -1.1244
 3428TIP3   OH231774   2.013   3.152   0.851  0.3174 -0.2006 -0.0820
 3428TIP3    H131775   1.951   3.079   0.848  0.7370 -0.5424 -2.5235
 3428TIP3    H231776   2.086   3.119   0.903 -1.1638 -0.0323  2.2452
 3429TIP3   OH231777   2.992   5.834   1.781  0.1282 -0.0676 -0.2265
 3429TIP3    H131778   2.900   5.859   1.789  0.0587  0.0788 -1.3201
 3429TIP3    H231779   3.040   5.907   1.818 -0.1980 -0.2717  0.6210
 3430TIP3   OH231780   0.816   4.905  13.465  0.3363 -0.3547  0.1785
 3430TIP3    H131781   0.863   4.876  13.544  1.1236 -0.6984 -0.3974
 3430TIP3    H231782   0.727   4.872  13.476  0.7057 -1.2931  0.4539
 3431TIP3   OH231783   0.219   3.777   2.915  0.2953  1.0368  0.1075
 3431TIP3    H131784   0.274   3.855   2.920  0.7202  0.6947  0.9596
 3431TIP3    H231785   0.246   3.734   2.834  0.9907  1.0960  0.3020
 3432TIP3   OH231786   2.261   5.780   1.306  0.1999  0.6448 -0.1594
 3432TIP3    H131787   2.212   5.849   1.352  0.9711  0.0919  1.5826
 3432TIP3    H231788   2.194   5.718   1.278 -0.4076  1.5802 -0.8604
 3433TIP3   OH231789   1.235   5.625   1.032 -0.3855 -0.3545 -0.0469
 3433TIP3    H131790   1.221   5.548   1.086 -1.3318 -0.0546  0.1496
 3433TIP3    H231791   1.297   5.679   1.082 -0.7395 -0.3867  0.4222
 3434TIP3   OH231792   6.804   1.208   3.630 -0.3802  0.1433  0.5422
 3434TIP3    H131793   6.805   1.136   3.567  2.6807  0.2496  0.3101
 3434TIP3    H231794   6.722   1.198   3.677 -1.7116 -1.3187 -1.9078
 3435TIP3   OH231795   2.808   3.903   2.967  0.4248  0.4504  0.1199
 3435TIP3    H131796   2.856   3.918   2.886  0.6861 -1.9345 -0.2305
 3435TIP3    H231797   2.716   3.915   2.943  0.4233 -1.2004 -0.8220
 3436TIP3   OH231798   0.005   6.597  10.739 -0.1429  0.4646  0.0047
 3436TIP3    H131799   0.009   6.539  10.663  2.7722  0.6127 -0.0840
 3436TIP3    H231800  -0.080   6.580  10.779  0.6122 -4.1296  0.1739
 3437TIP3   OH231801   1.314   4.901  15.225 -0.2688  0.4903 -0.4756
 3437TIP3    H131802   1.321   4.996  15.221  0.7092  0.4391 -0.2813
 3437TIP3    H231803   1.249   4.884  15.293  1.6642  0.9930  1.6020
 3438TIP3   OH231804   5.436   2.602  10.240  0.1650 -0.5979  0.0644
 3438TIP3    H131805   5.530   2.606  10.225 -0.1228 -1.2607 -2.4901
 3438TIP3    H231806   5.405   2.691  10.222 -0.0016 -1.0771 -2.3821
 3439TIP3   OH231807   2.472   1.951   3.671 -0.2764  0.0474 -0.2087
 3439TIP3    H131808   2.463   1.953   3.576 -2.4341  0.7478 -0.0396
 3439TIP3    H231809   2.507   1.864   3.690 -0.8196 -0.4958 -1.5648
 3440TIP3   OH231810   0.013   4.638  12.125 -0.3203  0.2438  0.5634
 3440TIP3    H131811   0.050   4.607  12.042  1.2466 -0.4228  1.4787
 3440TIP3    H231812  -0.011   4.729  12.108 -1.5912 -0.3449 -1.0964
 3441TIP3   OH231813   5.767   6.797  15.526  0.2415 -0.5568  0.5184
 3441TIP3    H131814   5.804   6.780  15.439  0.5785 -1.6644  0.8686
 3441TIP3    H231815   5.775   6.714  15.573  0.5256  0.1563  1.7875
 3442TIP3   OH231816   6.169   6.015   3.401  0.2581  0.4548  0.1247
 3442TIP3    H131817   6.178   5.981   3.312  0.5276 -2.5480  1.1790
 3442TIP3    H231818   6.249   5.988   3.446 -0.4371  0.7598  1.6310
 3443TIP3   OH231819   5.448   1.425  12.599  0.0851 -0.1793 -0.3748
 3443TIP3    H131820   5.432   1.366  12.525 -1.2119  0.9680 -1.0593
 3443TIP3    H231821   5.403   1.506  12.575  0.1360  0.4221  1.4212
 3444TIP3   OH231822   4.470   6.278   2.647  0.1754  0.4717 -0.2272
 3444TIP3    H131823   4.392   6.254   2.597 -0.7427  0.9286  0.9236
 3444TIP3    H231824   4.506   6.194   2.677  0.1140  0.2585 -0.7473
 3445TIP3   OH231825   4.945   0.976   4.208 -0.2249  0.3218 -0.0747
 3445TIP3    H131826   4.945   1.066   4.175  1.3049  0.5195  0.3791
 3445TIP3    H231827   4.863   0.969   4.257 -0.1323  1.6484  0.3230
 3446TIP3   OH231828   4.416   1.591  17.064  0.0698 -0.3565 -0.5872
 3446TIP3    H131829   4.503   1.578  17.100 -0.7321 -1.4438  1.0629
 3446TIP3    H231830   4.366   1.514  17.091 -2.1118  1.3820  0.8333
 3447TIP3   OH231831   0.320   1.462  15.713  0.5277  0.4348  0.8084
 3447TIP3    H131832   0.359   1.391  15.662  0.7157 -0.0268  1.5779
 3447TIP3    H231833   0.252   1.420  15.766 -0.6660  1.1406 -0.1099
 3448TIP3   OH231834   0.845   1.847  15.978  0.1643 -0.0981 -0.3073
 3448TIP3    H131835   0.773   1.799  16.020  0.1612 -0.5092 -0.7819
 3448TIP3    H231836   0.834   1.830  15.885 -0.5684  1.8083 -0.6279
 3449TIP3   OH231837   0.197   4.308   3.081 -0.0175  0.2481  0.7511
 3449TIP3    H131838   0.235   4.233   3.127  0.5754  1.5993  2.6310
 3449TIP3    H231839   0.263   4.334   3.017  0.4216  0.0433  1.1160
 3450TIP3   OH231840   1.761   0.540  11.855  0.4271  0.1205  0.1360
 3450TIP3    H131841   1.686   0.560  11.800 -0.9530 -1.6496  1.2735
 3450TIP3    H231842   1.759   0.607  11.923  1.5284  1.6885 -1.2919
 3451TIP3   OH231843   1.251   2.105  14.082 -0.1549 -0.3952  0.4448
 3451TIP3    H131844   1.323   2.071  14.136  0.6317 -0.8436 -0.8248
 3451TIP3    H231845   1.267   2.199  14.077 -0.3116 -0.3339  1.1059
 3452TIP3   OH231846   3.430   5.506  13.696  0.3946 -0.8863 -0.5723
 3452TIP3    H131847   3.487   5.564  13.747 -2.1311  1.3611 -0.0803
 3452TIP3    H231848   3.448   5.419  13.730  0.6776  0.2230  2.4081
 3453TIP3   OH231849   1.030   1.160   3.264 -0.0156  0.0319  0.1308
 3453TIP3    H131850   0.994   1.241   3.228  1.0723 -0.3721 -2.0408
 3453TIP3    H231851   1.101   1.188   3.321 -0.2082  0.6208  0.0885
 3454TIP3   OH231852   6.369   2.926  12.075 -0.6225  0.1911 -0.2725
 3454TIP3    H131853   6.355   2.915  11.981  0.2441 -0.8869 -0.2946
 3454TIP3    H231854   6.320   3.005  12.097 -0.1584  0.9436 -1.7809
 3455TIP3   OH231855   0.553   1.109   5.374  0.3646  0.1387 -0.8888
 3455TIP3    H131856   0.638   1.147   5.395  0.3437 -0.4923  0.4441
 3455TIP3    H231857   0.574   1.033   5.319  0.5933  0.4657 -1.2587
 3456TIP3   OH231858   6.202   4.152   0.902 -0.0517  0.1243  0.8675
 3456TIP3    H131859   6.194   4.073   0.955 -3.0682 -0.3066 -0.0273
 3456TIP3    H231860   6.221   4.222   0.965  0.5435 -0.9720  1.9427
 3457TIP3   OH231861   4.880   2.225  15.261  0.4082 -0.3678  0.3865
 3457TIP3    H131862   4.801   2.268  15.229  0.1584 -0.4010  0.9647
 3457TIP3    H231863   4.881   2.242  15.355  2.2090  1.4913  0.1065
 3458TIP3   OH231864   4.397   3.912   1.872  0.2350 -0.0569 -0.0094
 3458TIP3    H131865   4.432   3.943   1.955  0.4838 -1.7151  0.5380
 3458TIP3    H231866   4.340   3.983   1.842  0.3211  0.6616  1.4506
 3459TIP3   OH231867   4.192   0.238  16.107 -0.5316  0.1117 -0.4368
 3459TIP3    H131868   4.277   0.230  16.063  1.1682 -1.3773  2.7133
 3459TIP3    H231869   4.199   0.319  16.158  0.0052 -1.0642  1.4949
 3460TIP3   OH231870   3.060   1.028  10.931 -0.2600  0.4758 -0.2956
 3460TIP3    H131871   3.047   1.058  10.841 -0.3032  0.6260 -0.2396
 3460TIP3    H231872   3.155   1.032  10.944  0.1655 -2.5757 -1.3990
 3461TIP3   OH231873   3.476   3.069  13.919  0.6405 -0.7172  0.0693
 3461TIP3    H131874   3.513   3.034  14.000  0.2432 -1.0619  0.1024
 3461TIP3    H231875   3.407   3.007  13.895  1.4377 -1.1994 -1.0898
 3462TIP3   OH231876   5.249   1.513  14.976  0.7429  0.4813  0.1024
 3462TIP3    H131877   5.330   1.464  14.989  0.2907 -0.0359  1.0916
 3462TIP3    H231878   5.191   1.481  15.045  0.6554  2.9024  1.2466
 3463TIP3   OH231879   0.015   6.148  16.847 -0.0356  0.7940  0.3751
 3463TIP3    H131880  -0.049   6.080  16.827  0.5079  0.3141  0.2591
 3463TIP3    H231881   0.050   6.125  16.933 -1.5953  2.2720  1.4732
 3464TIP3   OH231882   4.300   3.883   0.882  0.3270 -0.4457 -0.3105
 3464TIP3    H131883   4.290   3.953   0.946  0.3110 -0.6234 -0.1165
 3464TIP3    H231884   4.228   3.896   0.821 -1.3996 -1.9361  1.2831
 3465TIP3   OH231885   6.637   1.542   3.326 -0.5106  0.1456 -0.5389
 3465TIP3    H131886   6.662   1.610   3.264  1.3139  0.7561  0.7764
 3465TIP3    H231887   6.688   1.561   3.405 -1.1041 -1.8606  0.4039
 3466TIP3   OH231888   2.962   3.175   3.643  0.3899  0.3832 -0.1740
 3466TIP3    H131889   3.045   3.217   3.622  0.1866  0.3842 -0.9968
 3466TIP3    H231890   2.965   3.091   3.598  0.1093  0.2202  0.1083
 3467TIP3   OH231891   2.899   3.725   4.011 -0.5628  0.2471  0.0135
 3467TIP3    H131892   2.917   3.738   3.918  0.6225  0.3704  0.2540
 3467TIP3    H231893   2.805   3.704   4.014 -0.5042 -0.2731 -1.2492
 3468TIP3   OH231894   0.620   5.994   5.178 -0.3779 -0.0190 -0.6108
 3468TIP3    H131895   0.683   5.978   5.108 -1.0281 -3.8538 -0.5286
 3468TIP3    H231896   0.649   5.938   5.250 -2.6815 -0.2904  0.1840
 3469TIP3   OH231897   4.276   5.288  11.863 -0.2214  0.4550  0.8863
 3469TIP3    H131898   4.301   5.258  11.950  0.8328 -0.4553  0.3073
 3469TIP3    H231899   4.269   5.207  11.811 -1.2861  0.9415  0.2358
 3470TIP3   OH231900   1.349   0.243  12.326 -0.0682  0.1036  0.2306
 3470TIP3    H131901   1.295   0.244  12.405 -0.4528  1.1795 -0.0406
 3470TIP3    H231902   1.392   0.328  12.325  0.3960 -0.1351 -0.4098
 3471TIP3   OH231903   0.097   1.997  16.888  0.0429 -0.0370  0.3024
 3471TIP3    H131904   0.063   1.961  16.971  0.1404 -1.6869 -0.3279
 3471TIP3    H231905   0.076   1.930  16.823  0.0463  1.1974 -1.0126
 3472TIP3   OH231906   3.796   6.491  11.164  0.4343 -0.2275  0.9069
 3472TIP3    H131907   3.737   6.419  11.186  1.9295 -0.7913  3.4338
 3472TIP3    H231908   3.858   6.494  11.236  1.3606  2.6458  0.1175
 3473TIP3   OH231909   3.569   0.358  16.338 -0.5508  0.0479 -0.1755
 3473TIP3    H131910   3.585   0.432  16.280 -0.5511 -0.2735 -0.5931
 3473TIP3    H231911   3.592   0.390  16.425 -0.9089  0.6510 -0.3007
 3474TIP3   OH231912   3.967   0.041  16.032 -0.1997  0.7560 -0.1898
 3474TIP3    H131913   4.043   0.070  16.082  0.5412  2.7980 -2.3302
 3474TIP3    H231914   3.995  -0.040  15.990  0.4588  0.9615 -0.1571
 3475TIP3   OH231915   5.972   5.572  11.822  0.1929 -0.3749 -0.5933
 3475TIP3    H131916   5.969   5.641  11.889 -0.2519 -2.8678  2.1405
 3475TIP3    H231917   5.888   5.580  11.777  0.5375  1.4188 -1.0091
 3476TIP3   OH231918   6.430   6.041  16.642  0.4333  0.5778  0.4717
 3476TIP3    H131919   6.423   5.950  16.614  3.0963  0.4674 -0.1591
 3476TIP3    H231920   6.390   6.044  16.729  0.1401 -1.1327  0.4208
 3477TIP3   OH231921   4.910   2.338   2.038 -0.0684 -0.0665  0.0560
 3477TIP3    H131922   4.980   2.351   1.974  0.7400 -1.4715  0.6202
 3477TIP3    H231923   4.830   2.361   1.991  0.1537 -3.6553 -2.4398
 3478TIP3   OH231924   6.734   5.954   5.919 -0.6651  0.3364  0.0422
 3478TIP3    H131925   6.646   5.926   5.945 -0.3244  0.7175  1.7099
 3478TIP3    H231926   6.783   5.956   6.001  0.8308  0.4121 -0.8284
 3479TIP3   OH231927   5.580   0.241   3.813 -0.4574 -0.2102 -0.5907
 3479TIP3    H131928   5.608   0.250   3.904  0.6984 -1.7781 -0.7584
 3479TIP3    H231929   5.661   0.231   3.763 -1.1542 -2.0913 -1.4399
 3480TIP3   OH231930   5.397   6.052  15.688 -0.3739  0.5813 -0.0292
 3480TIP3    H131931   5.395   6.068  15.593  0.5254  0.0872 -0.1511
 3480TIP3    H231932   5.430   6.133  15.725 -0.6075  0.7345 -0.1543
 3481TIP3   OH231933   1.917   1.741  16.739  0.5315 -0.3091 -0.1750
 3481TIP3    H131934   1.887   1.828  16.763 -0.6665 -1.3715  2.6446
 3481TIP3    H231935   1.837   1.687  16.741  1.6643 -2.0439  1.3744
 3482TIP3   OH231936   6.319   5.090   2.047 -0.4591 -0.0945 -0.1124
 3482TIP3    H131937   6.270   5.154   1.996 -0.6064  0.6899  0.9913
 3482TIP3    H231938   6.281   5.006   2.023 -1.8187  0.4304  0.1430
 3483TIP3   OH231939   1.245   6.819   4.261  0.3477  0.4127  0.0410
 3483TIP3    H131940   1.309   6.749   4.245  0.5806  0.4200  0.9117
 3483TIP3    H231941   1.160   6.779   4.242  0.5362  0.1325 -0.2262
 3484TIP3   OH231942   3.683   0.885   4.192  0.2763  0.2204 -0.3725
 3484TIP3    H131943   3.774   0.900   4.221  0.4264  1.4435 -1.3980
 3484TIP3    H231944   3.632   0.945   4.246  0.0944 -0.2368 -0.0248
 3485TIP3   OH231945   2.463   2.140   3.135 -0.1061  0.2118 -0.0852
 3485TIP3    H131946   2.493   2.219   3.181 -0.0428  0.7452 -1.0165
 3485TIP3    H231947   2.400   2.100   3.195 -0.6338  1.3276  0.1286
 3486TIP3   OH231948   2.182   3.709  14.644  0.2387 -0.5170  0.1685
 3486TIP3    H131949   2.115   3.774  14.664 -0.3444 -1.3733  1.1016
 3486TIP3    H231950   2.186   3.654  14.723  1.4005 -1.0274 -0.2200
 3487TIP3   OH231951   3.186   0.250   0.018  0.3608 -0.1280  0.2180
 3487TIP3    H131952   3.280   0.257   0.033  0.0959  0.3376  1.7790
 3487TIP3    H231953   3.148   0.237   0.105 -0.9510 -1.1845 -0.4768
 3488TIP3   OH231954   3.097   3.948   4.367 -0.3105  0.5479  0.0574
 3488TIP3    H131955   3.111   4.026   4.420 -0.4335  1.0846 -0.6920
 3488TIP3    H231956   3.167   3.949   4.302  0.3718 -0.5868  0.7392
 3489TIP3   OH231957   4.906   4.264  11.986  0.1360  0.3306  0.1260
 3489TIP3    H131958   4.816   4.295  11.991  0.6511  2.0959 -0.8198
 3489TIP3    H231959   4.902   4.188  11.927 -0.6241  0.9038 -0.5845
 3490TIP3   OH231960   2.500   6.226   3.538  0.0883 -0.2049 -0.1507
 3490TIP3    H131961   2.526   6.315   3.513 -0.5665  0.7614  2.2477
 3490TIP3    H231962   2.404   6.229   3.542  0.0946 -0.7259  0.7795
 3491TIP3   OH231963   4.131   2.953  16.564 -0.2672 -0.0664 -0.3297
 3491TIP3    H131964   4.089   2.979  16.481 -0.2573  0.0657 -0.2930
 3491TIP3    H231965   4.124   2.857  16.565 -1.7756  0.0228  0.3075
 3492TIP3   OH231966   1.127   3.854  11.649 -0.3987 -0.2401  0.0095
 3492TIP3    H131967   1.143   3.948  11.649 -0.6737 -0.1829  1.0356
 3492TIP3    H231968   1.203   3.816  11.604 -0.9835  0.5550 -1.7607
 3493TIP3   OH231969   6.568   3.652   1.587  0.4593  0.6637  0.2990
 3493TIP3    H131970   6.552   3.613   1.502  0.3909  1.7997 -0.2312
 3493TIP3    H231971   6.661   3.678   1.584 -0.2788  3.5729 -0.7054
 3494TIP3   OH231972   5.132   1.712   2.607  0.4702  0.2536  0.3131
 3494TIP3    H131973   5.108   1.623   2.631  1.6522 -0.3866 -0.7545
 3494TIP3    H231974   5.099   1.723   2.518  2.5314 -0.0508 -0.5357
 3495TIP3   OH231975   1.824   2.412  16.197 -0.0290 -0.3085  0.1050
 3495TIP3    H131976   1.868   2.392  16.114 -0.2562 -2.4973  0.4445
 3495TIP3    H231977   1.731   2.420  16.174  0.0940  0.7922 -0.0769
 3496TIP3   OH231978   0.584   5.021  11.293  0.1770  0.6046 -0.1435
 3496TIP3    H131979   0.610   5.113  11.285  0.7089  0.4578 -0.0871
 3496TIP3    H231980   0.502   5.016  11.243  0.4664  0.9713 -0.6733
 3497TIP3   OH231981   6.632   4.941  16.392 -0.3959 -0.1882 -0.2577
 3497TIP3    H131982   6.724   4.918  16.401 -0.5102 -0.7757 -0.5499
 3497TIP3    H231983   6.602   4.956  16.482  0.3615  1.5461 -0.2719
 3498TIP3   OH231984   1.355   1.090  14.812  0.3432  0.1802  0.5841
 3498TIP3    H131985   1.445   1.058  14.805  0.3013  0.1169  0.3141
 3498TIP3    H231986   1.305   1.014  14.843  0.5029  0.4158  1.4286
 3499TIP3   OH231987   2.689   5.312   4.605  0.2082  0.5319  0.0732
 3499TIP3    H131988   2.670   5.390   4.657 -0.5574  0.1039  0.4492
 3499TIP3    H231989   2.617   5.252   4.624  0.5109 -0.0666 -0.6195
 3500TIP3   OH231990   1.241   4.142   0.495  0.2940 -0.2616 -0.2268
 3500TIP3    H131991   1.318   4.136   0.552 -0.4323 -3.3005  0.6607
 3500TIP3    H231992   1.178   4.194   0.545 -0.0018 -2.1282  1.5164
 3501TIP3   OH231993   2.985   0.588  12.953 -0.9018 -0.3065  0.0672
 3501TIP3    H131994   2.896   0.588  12.917 -0.3924 -3.5913 -1.5510
 3501TIP3    H231995   3.028   0.661  12.909 -2.4731  0.6325  0.0033
 3502TIP3   OH231996   3.200   5.987   5.301  0.0014  0.1323 -0.1538
 3502TIP3    H131997   3.262   6.059   5.291 -2.2115  2.4810  1.5413
 3502TIP3    H231998   3.188   5.952   5.213  1.1077  1.9081 -1.0571
 3503TIP3   OH231999   3.730   6.641   5.504 -0.1827  0.0015 -0.6156
 3503TIP3    H132000   3.727   6.557   5.551  0.5118 -0.7465 -1.8502
 3503TIP3    H232001   3.648   6.685   5.527 -1.0589 -1.4915 -0.7615
 3504TIP3   OH232002   5.549   1.137  10.613  0.0393  0.7179 -0.3177
 3504TIP3    H132003   5.511   1.124  10.700 -0.0305  0.9989 -0.3038
 3504TIP3    H232004   5.487   1.096  10.553 -0.7129  1.8733 -0.3670
 3505TIP3   OH232005   5.659   3.182   2.980  0.1289  0.0789  0.4905
 3505TIP3    H132006   5.630   3.237   3.053 -0.4724  1.5862 -0.8190
 3505TIP3    H232007   5.688   3.245   2.914 -2.3226 -1.0360 -1.8290
 3506TIP3   OH232008   2.998   5.367   0.459 -0.7057 -0.7382 -0.3682
 3506TIP3    H132009   2.989   5.303   0.530 -0.7589 -1.2673 -0.8456
 3506TIP3    H232010   3.089   5.357   0.429 -0.6503 -0.4392 -0.3032
 3507TIP3   OH232011   1.506   0.695   6.460 -0.2893  0.3346 -0.7843
 3507TIP3    H132012   1.595   0.659   6.459 -0.5679 -0.8314  2.3487
 3507TIP3    H232013   1.514   0.777   6.508 -0.8493  0.2813 -0.5900
 3508TIP3   OH232014   4.198   6.574   3.939  0.8831  0.0506  0.0836
 3508TIP3    H132015   4.206   6.659   3.983  0.6247  0.5100 -0.7176
 3508TIP3    H232016   4.286   6.554   3.908  0.9156  0.1119  0.1373
 3509TIP3   OH232017   5.081   3.991   3.917  0.6623  0.0015  0.5560
 3509TIP3    H132018   5.057   3.967   3.827  1.5193 -0.3913  0.4141
 3509TIP3    H232019   5.014   3.951   3.972 -0.5171  1.1879  0.0383
 3510TIP3   OH232020   1.190   5.953  12.033 -0.1802  0.2551 -0.3101
 3510TIP3    H132021   1.132   5.990  12.099  0.6148  2.0657 -0.5875
 3510TIP3    H232022   1.275   5.946  12.076 -0.0489 -0.1893 -0.6308
 3511TIP3   OH232023   3.174   3.668  11.268  0.2373 -0.4069 -0.1611
 3511TIP3    H132024   3.169   3.608  11.342  0.6373 -1.0329 -0.6273
 3511TIP3    H232025   3.167   3.611  11.191 -1.2745  0.3280 -0.6052
 3512TIP3   OH232026   0.011   2.512  16.870 -0.1601  0.1255  0.0320
 3512TIP3    H132027  -0.001   2.607  16.877 -1.3230 -0.0285  0.3798
 3512TIP3    H232028  -0.020   2.491  16.782 -2.3719 -0.2374  0.8331
 3513TIP3   OH232029   3.268   4.584  11.110  0.0108  0.3198  0.2812
 3513TIP3    H132030   3.294   4.549  11.025 -2.8461  0.2387 -0.6529
 3513TIP3    H232031   3.270   4.679  11.098  0.3364  0.3252  0.3711
 3514TIP3   OH232032   3.111   6.060   1.865 -0.0748  0.0671 -0.0482
 3514TIP3    H132033   3.141   6.106   1.944  0.7104 -1.6354  0.7028
 3514TIP3    H232034   3.191   6.029   1.823 -0.5884 -0.8110 -0.3979
 3515TIP3   OH232035   1.568   0.587   3.191 -0.3886 -0.2985 -0.1551
 3515TIP3    H132036   1.574   0.574   3.286 -0.4309  0.5885 -0.0185
 3515TIP3    H232037   1.658   0.584   3.160 -0.4055 -0.9716 -0.1445
 3516TIP3   OH232038   0.238   6.790   6.106 -0.4111 -0.4194 -0.3528
 3516TIP3    H132039   0.165   6.835   6.062 -1.5529 -0.1405  1.7189
 3516TIP3    H232040   0.196   6.733   6.170  1.1737 -1.6145 -0.3199
 3517TIP3   OH232041   1.068   4.957   5.610 -0.9590 -0.0011 -0.4789
 3517TIP3    H132042   1.063   4.899   5.686 -2.1634  1.3236  0.4873
 3517TIP3    H232043   1.137   5.019   5.633 -1.6840  0.7197 -0.2212
 3518TIP3   OH232044   5.486   3.669   1.615  0.4315  0.3817  0.2315
 3518TIP3    H132045   5.512   3.664   1.523  0.6850 -0.1113  0.3252
 3518TIP3    H232046   5.403   3.717   1.614  0.9413  1.2852 -0.1500
 3519TIP3   OH232047   1.345   5.696   6.458  0.0723  0.2378 -0.4866
 3519TIP3    H132048   1.431   5.701   6.417  0.7922 -1.8461  0.6323
 3519TIP3    H232049   1.359   5.733   6.546 -0.6119  1.4067 -0.8408
 3520TIP3   OH232050   6.356   3.559  15.500 -0.5094 -0.0650  0.6262
 3520TIP3    H132051   6.313   3.483  15.538 -0.8833  0.0168  0.3690
 3520TIP3    H232052   6.285   3.613  15.467 -0.2704  0.5964  1.1747
 3521TIP3   OH232053   2.171   5.980   3.815 -0.0777 -0.4492  0.9684
 3521TIP3    H132054   2.226   6.058   3.817 -0.9235  0.1484  1.6352
 3521TIP3    H232055   2.222   5.916   3.766  1.5411 -0.1762  2.2081
 3522TIP3   OH232056   0.119   2.902  15.245  0.0882  0.1496 -0.0081
 3522TIP3    H132057   0.075   2.823  15.212 -1.7335  0.0118  2.4576
 3522TIP3    H232058   0.193   2.869  15.295  0.8590  0.1770 -1.1078
 3523TIP3   OH232059   0.626   5.208  16.578 -0.5840 -0.0185  0.0678
 3523TIP3    H132060   0.561   5.267  16.616 -0.6338 -1.5072  2.5282
 3523TIP3    H232061   0.633   5.137  16.642  2.1061 -0.8406 -1.0324
 3524TIP3   OH232062   3.100   0.115   1.763 -0.1559  0.1204 -0.6418
 3524TIP3    H132063   3.032   0.131   1.697  0.3052  0.5672 -1.0110
 3524TIP3    H232064   3.168   0.068   1.715  1.2885  2.5620 -1.1370
 3525TIP3   OH232065   0.393   2.284  12.918 -0.3423 -0.6095 -0.3155
 3525TIP3    H132066   0.457   2.216  12.897 -0.2428 -1.2935  1.9064
 3525TIP3    H232067   0.371   2.324  12.834  1.5710 -1.6271 -1.3589
 3526TIP3   OH232068   5.344   0.231   5.434 -0.2549 -0.4910 -0.9963
 3526TIP3    H132069   5.263   0.281   5.447  0.3531  0.5081 -0.9966
 3526TIP3    H232070   5.316   0.139   5.440 -1.4027 -0.1655 -1.0962
 3527TIP3   OH232071   6.213   6.153   1.058 -0.2725  0.2249  0.2279
 3527TIP3    H132072   6.144   6.168   0.994 -2.4005 -2.3826  1.7014
 3527TIP3    H232073   6.239   6.241   1.087  0.5677  1.4938 -3.7964
 3528TIP3   OH232074   4.523   6.019   2.976 -0.6002 -0.4698  0.3897
 3528TIP3    H132075   4.446   6.015   2.920 -1.1255 -2.2466  1.1684
 3528TIP3    H232076   4.507   5.954   3.044  2.4049 -2.3462 -0.4955
 3529TIP3   OH232077   3.340   4.439   3.598  0.5222  0.4963 -0.6951
 3529TIP3    H132078   3.288   4.376   3.550  0.5039  0.2498 -0.3538
 3529TIP3    H232079   3.308   4.524   3.569  1.1693  0.3690 -1.8445
 3530TIP3   OH232080   6.603   0.945  15.506 -0.1879  0.5872  0.0470
 3530TIP3    H132081   6.658   0.867  15.494 -0.5067  0.5742 -1.5918
 3530TIP3    H232082   6.555   0.928  15.587  0.3260 -0.5565  0.1387
 3531TIP3   OH232083   6.388   1.611  13.612  0.2167  0.3209 -0.3070
 3531TIP3    H132084   6.430   1.696  13.598 -0.9877  1.4085  2.1034
 3531TIP3    H232085   6.452   1.548  13.579  2.7689  1.9974  1.0022
 3532TIP3   OH232086   0.726   3.458  15.410 -0.3912 -0.0014 -0.2398
 3532TIP3    H132087   0.723   3.549  15.382  1.4330 -0.3040 -1.5322
 3532TIP3    H232088   0.636   3.426  15.397 -1.0217  1.5409  0.1051
 3533TIP3   OH232089   1.637   6.538   4.620 -0.2174 -0.0727  0.4026
 3533TIP3    H132090   1.731   6.538   4.636 -0.3315 -0.1149  1.0893
 3533TIP3    H232091   1.602   6.605   4.679 -0.5827  0.1663 -0.0740
 3534TIP3   OH232092   5.981   5.265   6.130  0.0055  0.5355 -0.1203
 3534TIP3    H132093   5.930   5.221   6.198  0.2631  0.2483 -0.1096
 3534TIP3    H232094   5.987   5.356   6.159  1.9701  0.0046  1.3879
 3535TIP3   OH232095   2.966   1.981   3.315  0.1471  0.1336  0.1568
 3535TIP3    H132096   2.911   2.055   3.339 -0.0317  0.1019 -0.1575
 3535TIP3    H232097   2.910   1.904   3.326 -0.2582  0.1916 -1.3096
 3536TIP3   OH232098   6.491   3.940   0.688 -0.1479  0.5186 -0.4093
 3536TIP3    H132099   6.411   3.981   0.720 -0.6585  0.4947 -1.6260
 3536TIP3    H232100   6.475   3.846   0.698  0.0544  0.5329  0.0906
 3537TIP3   OH232101   6.634   1.580   5.515  0.0114 -0.2668  0.1564
 3537TIP3    H132102   6.707   1.552   5.571  0.0701  1.3214  0.9306
 3537TIP3    H232103   6.638   1.522   5.439  0.2388 -2.1513  1.5493
 3538TIP3   OH232104   0.579   5.432  13.648 -0.0446  0.1522 -0.2458
 3538TIP3    H132105   0.550   5.345  13.623 -0.7013  0.5551 -0.9175
 3538TIP3    H232106   0.625   5.419  13.731  0.5911 -0.9459 -0.7473
 3539TIP3   OH232107   3.711   4.382   5.378 -0.2790 -0.0677  0.1215
 3539TIP3    H132108   3.710   4.465   5.427  0.6869 -0.4200  0.7868
 3539TIP3    H232109   3.739   4.407   5.290 -0.3894  0.3674  0.2038
 3540TIP3   OH232110   1.164   3.827   5.675  0.2416  0.3737 -0.6567
 3540TIP3    H132111   1.079   3.849   5.713  0.0417 -1.1619 -0.1877
 3540TIP3    H232112   1.223   3.894   5.709 -0.4568  0.5393  0.2592
 3541TIP3   OH232113   6.488   0.900  15.745  0.2864 -0.3343 -0.2006
 3541TIP3    H132114   6.416   0.850  15.706 -0.1585  2.1113 -2.9641
 3541TIP3    H232115   6.445   0.959  15.807  0.0028  0.2428 -0.9166
 3542TIP3   OH232116   5.270   1.758   6.659 -0.0929  0.1381 -0.1633
 3542TIP3    H132117   5.274   1.670   6.621  0.4108  0.5271 -1.0531
 3542TIP3    H232118   5.338   1.758   6.726 -0.1353 -0.1778 -0.1221
 3543TIP3   OH232119   1.074   5.181  10.605 -0.5177  0.1624  0.2725
 3543TIP3    H132120   1.150   5.123  10.612 -0.0001  0.8189  0.2004
 3543TIP3    H232121   1.067   5.222  10.691 -0.9657 -0.1056  0.3659
 3544TIP3   OH232122   5.918   1.113  13.685 -0.2924  0.3478 -0.5392
 3544TIP3    H132123   5.878   1.188  13.728 -0.2780  0.2221 -0.3041
 3544TIP3    H232124   5.973   1.073  13.753  0.0668  0.4001 -0.7986
 3545TIP3   OH232125   3.014   4.823   1.862  0.1410  0.3748  0.7356
 3545TIP3    H132126   2.972   4.768   1.797  2.0618 -1.5663  0.9945
 3545TIP3    H232127   2.942   4.865   1.909 -1.5979 -3.2734  1.6557
 3546TIP3   OH232128   4.457   2.438  15.992 -0.3944 -0.4050 -0.5865
 3546TIP3    H132129   4.467   2.356  15.944 -0.3009  0.8199 -2.7556
 3546TIP3    H232130   4.364   2.459  15.986 -0.2276  0.2317 -1.0941
 3547TIP3   OH232131   2.715   2.199  13.011  0.2042  0.1528 -0.2461
 3547TIP3    H132132   2.773   2.126  13.034 -0.1440  0.1798  0.8082
 3547TIP3    H232133   2.650   2.160  12.953  0.3011 -0.2693 -0.0761
 3548TIP3   OH232134   6.423   1.463   4.765 -0.1036 -0.0813 -0.3577
 3548TIP3    H132135   6.493   1.452   4.700  1.7527  1.0668  1.3187
 3548TIP3    H232136   6.405   1.557   4.765 -0.1030 -0.0754  0.7469
 3549TIP3   OH232137   4.901   4.009   1.854  0.4638 -0.5421 -0.6859
 3549TIP3    H132138   4.817   4.048   1.880  1.1966 -0.4709  1.8448
 3549TIP3    H232139   4.876   3.927   1.810 -0.9502 -0.9604  0.7761
 3550TIP3   OH232140   1.733   4.235  13.574  0.1819 -0.6047 -0.3216
 3550TIP3    H132141   1.818   4.275  13.595 -0.1723 -1.1650  2.7062
 3550TIP3    H232142   1.749   4.187  13.493  1.7446  2.1660 -1.8030
 3551TIP3   OH232143   1.437   3.058  16.090  0.5293 -0.4729 -0.4016
 3551TIP3    H132144   1.412   2.979  16.042  1.0063 -0.2852 -0.9669
 3551TIP3    H232145   1.517   3.033  16.136  0.3930 -0.4760 -0.1674
 3552TIP3   OH232146   1.283   1.180   2.336 -0.7586  1.2040 -0.5852
 3552TIP3    H132147   1.315   1.178   2.246 -1.3384 -1.8099 -0.8253
 3552TIP3    H232148   1.362   1.189   2.389 -0.2211  1.0400 -1.3471
 3553TIP3   OH232149   1.767   5.017  13.978  0.1896 -0.4959  0.1258
 3553TIP3    H132150   1.690   5.047  13.930  1.9587  0.6292 -2.2640
 3553TIP3    H232151   1.828   5.090  13.974  1.6897 -1.6124  1.2454
 3554TIP3   OH232152   1.671   6.102  17.076  0.8715  0.2088  0.2324
 3554TIP3    H132153   1.646   6.190  17.105 -2.6147 -0.8521  0.8083
 3554TIP3    H232154   1.607   6.078  17.009  1.7147 -1.9177  0.0937
 3555TIP3   OH232155   6.718   4.395   3.881 -0.1362  0.2408 -0.0884
 3555TIP3    H132156   6.794   4.370   3.829  0.5172  0.9700  0.4861
 3555TIP3    H232157   6.737   4.360   3.969 -1.2430 -1.0170 -0.3176
 3556TIP3   OH232158   6.714   1.048   2.697  0.1502  0.6316 -0.1740
 3556TIP3    H132159   6.684   0.960   2.718 -2.1528  1.5088  0.5005
 3556TIP3    H232160   6.738   1.086   2.781  0.3214  0.9327 -0.3550
 3557TIP3   OH232161   5.075   6.252  15.177  0.2984  0.3128  0.2667
 3557TIP3    H132162   5.116   6.283  15.258 -1.5611  1.5332  0.7932
 3557TIP3    H232163   4.985   6.282  15.183  0.2603  1.0426 -2.5815
 3558TIP3   OH232164   5.750   3.028  15.307  0.4027 -0.0768 -0.4374
 3558TIP3    H132165   5.780   3.119  15.304  0.2403  0.0236  0.6791
 3558TIP3    H232166   5.788   2.988  15.228  2.6621  0.2816  0.3900
 3559TIP3   OH232167   4.071   2.851   1.761 -0.0603 -0.1551 -0.4220
 3559TIP3    H132168   4.052   2.930   1.710 -2.8621 -0.5532 -0.1837
 3559TIP3    H232169   4.087   2.783   1.696  0.5179  0.2195 -0.6723
 3560TIP3   OH232170   4.581   4.032  11.048 -0.3079  0.1222 -0.4095
 3560TIP3    H132171   4.603   4.041  11.141 -0.2495 -1.3329 -0.2575
 3560TIP3    H232172   4.492   3.997  11.047  0.0365 -0.7808 -0.8646
 3561TIP3   OH232173   2.995   4.674  11.685 -0.7242 -0.2347  0.0469
 3561TIP3    H132174   2.957   4.761  11.670 -0.7132  0.6382  4.0500
 3561TIP3    H232175   3.090   4.689  11.686 -0.7409 -0.1142  1.3505
 3562TIP3   OH232176   1.309   4.627  15.739  0.1139 -0.2034 -0.0536
 3562TIP3    H132177   1.312   4.722  15.728  0.2734 -0.1281  0.6353
 3562TIP3    H232178   1.355   4.593  15.662  0.4986  0.2931 -0.0471
 3563TIP3   OH232179   1.916   0.231  12.635 -0.1206 -0.2101 -0.4182
 3563TIP3    H132180   1.857   0.284  12.689  1.6897  1.3840  0.1253
 3563TIP3    H232181   1.898   0.261  12.545 -1.4971 -1.1827 -0.4922
 3564TIP3   OH232182   5.310   3.081   4.667 -0.2697  0.0140 -0.4757
 3564TIP3    H132183   5.388   3.114   4.710  1.4993 -2.2163 -1.7735
 3564TIP3    H232184   5.238   3.112   4.722  1.6118  0.5100  1.8834
 3565TIP3   OH232185   6.497   5.620  12.125  0.0810  0.0985 -0.0505
 3565TIP3    H132186   6.550   5.699  12.116 -0.1665  0.0517 -2.6079
 3565TIP3    H232187   6.408   5.653  12.140  0.1502  0.2878 -0.0505
 3566TIP3   OH232188   4.462   5.332  10.692  0.2418 -0.1710  0.2571
 3566TIP3    H132189   4.456   5.394  10.620  0.5953 -0.2537  0.1536
 3566TIP3    H232190   4.371   5.306  10.709  0.0542  0.6324  0.5350
 3567TIP3   OH232191   5.197   2.136   5.145  0.3875 -0.2431 -0.2843
 3567TIP3    H132192   5.166   2.208   5.201 -0.7298 -0.0097 -1.1630
 3567TIP3    H232193   5.139   2.139   5.069  1.3548 -1.0761 -1.0733
 3568TIP3   OH232194   6.402   1.153  14.033 -0.0972  0.4710 -0.2580
 3568TIP3    H132195   6.417   1.061  14.014 -2.8818  0.1915 -1.6745
 3568TIP3    H232196   6.376   1.154  14.126 -1.2112 -0.3941 -0.5352
 3569TIP3   OH232197   2.244   3.260   2.985 -0.2418  0.3628 -0.2049
 3569TIP3    H132198   2.298   3.294   3.056  0.3106 -0.9619  0.0389
 3569TIP3    H232199   2.306   3.239   2.915 -0.3891 -1.2497  0.1109
 3570TIP3   OH232200   5.322   2.151  11.406  0.2667 -0.5401 -0.2028
 3570TIP3    H132201   5.377   2.150  11.328 -1.8576  3.9495 -2.1112
 3570TIP3    H232202   5.382   2.167  11.478  1.8707 -0.2404 -1.5616
 3571TIP3   OH232203   4.327   4.918  16.447 -0.1936  0.1872  0.1549
 3571TIP3    H132204   4.400   4.891  16.503 -0.5357 -1.2311 -0.0258
 3571TIP3    H232205   4.250   4.881  16.490 -0.6497  0.5684 -0.3288
 3572TIP3   OH232206   0.394   1.621   2.555  0.1208 -0.4395 -0.1144
 3572TIP3    H132207   0.437   1.546   2.595  0.7644 -0.0913 -0.1339
 3572TIP3    H232208   0.384   1.684   2.626 -0.0828 -0.3986 -0.1785
 3573TIP3   OH232209   3.066   2.282   2.591 -0.5848  0.7316 -0.2694
 3573TIP3    H132210   2.996   2.220   2.608  0.0085 -0.5129 -2.0480
 3573TIP3    H232211   3.022   2.365   2.573 -1.4829  0.4103  0.4298
 3574TIP3   OH232212   6.659   0.535   3.798 -0.2038  0.3616 -0.1746
 3574TIP3    H132213   6.707   0.590   3.860  1.3230  1.7319 -2.4104
 3574TIP3    H232214   6.700   0.448   3.807  0.3272  0.6622  0.4012
 3575TIP3   OH232215   3.336   2.003   5.815 -0.1066 -0.0482  0.3508
 3575TIP3    H132216   3.252   1.965   5.840 -0.1412  0.8418  1.6720
 3575TIP3    H232217   3.395   1.928   5.809 -0.4535 -0.4550  1.6958
 3576TIP3   OH232218   1.862   1.050   1.548  0.1159  0.2582  0.3158
 3576TIP3    H132219   1.911   1.055   1.466 -0.4551 -3.6798 -0.4573
 3576TIP3    H232220   1.924   1.077   1.616  1.7333  0.1567 -1.0774
 3577TIP3   OH232221   2.582   1.839  11.491  0.2160 -0.0534  0.1778
 3577TIP3    H132222   2.591   1.752  11.453 -1.0312 -0.1246  0.0121
 3577TIP3    H232223   2.538   1.824  11.575  2.8754  0.1032  1.7122
 3578TIP3   OH232224   6.377   6.525  15.900  0.1250 -0.1435 -0.6809
 3578TIP3    H132225   6.364   6.606  15.851  1.0285  0.8379  0.6599
 3578TIP3    H232226   6.449   6.482  15.855  0.9652  0.7639 -0.2256
 3579TIP3   OH232227   5.215   6.356  15.663 -0.0013 -0.0852 -0.3834
 3579TIP3    H132228   5.207   6.317  15.750 -3.2090  0.6241 -0.2302
 3579TIP3    H232229   5.267   6.294  15.613 -0.1044 -1.6923  1.3983
 3580TIP3   OH232230   5.465   6.061  13.423  0.4373  0.4010 -0.2369
 3580TIP3    H132231   5.424   6.148  13.425  0.5116  0.4214  0.7358
 3580TIP3    H232232   5.430   6.016  13.500 -1.3736 -1.2638 -1.9348
 3581TIP3   OH232233   1.075   1.748  13.743  0.5810 -0.4727 -0.2446
 3581TIP3    H132234   1.019   1.723  13.816 -0.8452 -0.0939 -1.1595
 3581TIP3    H232235   1.147   1.795  13.784 -1.2014  1.5206  0.8213
 3582TIP3   OH232236   6.333   5.711  11.758 -0.0238 -0.1586 -0.5692
 3582TIP3    H132237   6.428   5.717  11.753 -0.0606  0.5575 -0.5735
 3582TIP3    H232238   6.316   5.627  11.801  0.7153  1.0323  2.2962
 3583TIP3   OH232239   4.224   4.567  11.440 -0.5651 -0.4730  0.9319
 3583TIP3    H132240   4.204   4.645  11.390 -1.2998 -1.1223  0.1684
 3583TIP3    H232241   4.220   4.496  11.376 -2.4418 -1.4436  2.0273
 3584TIP3   OH232242   3.045   4.794   0.486 -0.1482  0.4837  0.6406
 3584TIP3    H132243   2.996   4.875   0.470 -0.6032  0.2025  0.5964
 3584TIP3    H232244   3.025   4.771   0.576 -0.8156 -0.1081  0.3540
 3585TIP3   OH232245   5.474   0.387   5.785 -0.5052  0.3635  0.2465
 3585TIP3    H132246   5.393   0.335   5.781 -0.6029  0.2141  2.6674
 3585TIP3    H232247   5.468   0.434   5.868  2.2811 -0.3269  0.9490
 3586TIP3   OH232248   5.494   5.665  11.517 -0.6445  0.3345 -0.3398
 3586TIP3    H132249   5.547   5.731  11.473 -1.4284 -0.6222 -2.8526
 3586TIP3    H232250   5.414   5.712  11.541 -0.2628  0.8276  0.0153
 3587TIP3   OH232251   1.879   4.027   3.557 -0.4445  0.3996 -0.5466
 3587TIP3    H132252   1.940   4.098   3.578 -0.0394  0.0870 -0.6540
 3587TIP3    H232253   1.852   4.043   3.467  0.5803 -0.2446 -0.9874
 3588TIP3   OH232254   3.048   6.089   3.885 -0.2742 -0.0818  0.5973
 3588TIP3    H132255   2.979   6.030   3.913 -0.7484  0.7963  1.3548
 3588TIP3    H232256   3.126   6.059   3.931 -0.4280 -0.3539  0.6776
 3589TIP3   OH232257   5.444   5.365   6.045 -0.0871  0.2582 -0.1930
 3589TIP3    H132258   5.380   5.407   6.102 -0.3392  1.1965 -1.1306
 3589TIP3    H232259   5.395   5.295   6.001 -0.8261  1.6522 -1.7176
 3590TIP3   OH232260   0.338   1.067   0.285  0.4608  0.1990  0.4713
 3590TIP3    H132261   0.251   1.035   0.262  0.9267 -1.4346  0.8679
 3590TIP3    H232262   0.389   1.056   0.204  0.5534  0.2332  0.5252
 3591TIP3   OH232263   5.879   4.266   3.450  0.2973 -0.0757 -0.2962
 3591TIP3    H132264   5.965   4.225   3.455 -0.0267 -0.5702  2.3402
 3591TIP3    H232265   5.886   4.326   3.375  2.3257 -1.3722 -1.2348
 3592TIP3   OH232266   6.742   2.814   1.670  0.0692  0.4243  0.1037
 3592TIP3    H132267   6.800   2.846   1.602 -2.5494 -0.0376 -2.5338
 3592TIP3    H232268   6.782   2.733   1.700  1.4089  0.7823 -0.6474
 3593TIP3   OH232269   2.775   3.891   0.756  0.0558  0.5782  0.3445
 3593TIP3    H132270   2.756   3.798   0.743 -0.4558  0.8215 -0.7940
 3593TIP3    H232271   2.747   3.909   0.846  0.8358 -0.5148  0.8265
 3594TIP3   OH232272   6.299   3.019  13.097 -0.0885  0.3779  0.1665
 3594TIP3    H132273   6.249   3.099  13.081  0.1270  0.1003 -2.3440
 3594TIP3    H232274   6.238   2.948  13.078 -0.3092 -0.1044  2.4826
 3595TIP3   OH232275   4.777   3.051  12.128  0.5008  0.6443  0.2996
 3595TIP3    H132276   4.856   2.999  12.144 -0.6127 -2.1610 -2.2253
 3595TIP3    H232277   4.784   3.076  12.035 -0.0831  3.2781  0.8833
 3596TIP3   OH232278   1.406   0.753  13.348  0.4180 -0.0104 -0.4252
 3596TIP3    H132279   1.382   0.665  13.319 -1.5202  0.4486 -0.3291
 3596TIP3    H232280   1.359   0.765  13.431  1.9783  0.5201  0.4191
 3597TIP3   OH232281   2.480   0.823   1.066 -0.2913  0.2287 -0.4687
 3597TIP3    H132282   2.531   0.773   1.130 -0.7350 -0.2672 -0.4927
 3597TIP3    H232283   2.532   0.820   0.986 -0.3373 -0.2435 -0.4832
 3598TIP3   OH232284   1.944   1.283  17.122  0.6055 -0.3539  0.5214
 3598TIP3    H132285   1.929   1.375  17.102  0.2830 -0.4176  0.4555
 3598TIP3    H232286   1.948   1.279  17.217  1.2691 -0.1769  0.5009
 3599TIP3   OH232287   1.062   2.275   1.970 -0.1495 -0.0700  0.0878
 3599TIP3    H132288   0.986   2.217   1.973 -1.6568  1.5395 -2.7243
 3599TIP3    H232289   1.030   2.358   2.006  0.6868  0.2322  0.1604
 3600TIP3   OH232290   3.483   5.374  14.804 -0.3824  0.0431 -0.1609
 3600TIP3    H132291   3.472   5.312  14.876  0.3782  0.6080  0.4711
 3600TIP3    H232292   3.450   5.457  14.838 -4.8933 -0.6366 -2.2244
 3601TIP3   OH232293   3.896   2.812  16.372  0.2050 -0.1078  0.3211
 3601TIP3    H132294   3.879   2.813  16.466  0.0437  0.5743  0.2855
 3601TIP3    H232295   3.815   2.845  16.332 -0.0024 -1.0811 -0.1067
 3602TIP3   OH232296   4.082   6.063  14.684  0.0215 -0.1894 -0.0472
 3602TIP3    H132297   4.015   5.995  14.670 -0.5334  0.5300 -1.0061
 3602TIP3    H232298   4.164   6.019  14.664 -0.1880 -0.9722  0.7390
 3603TIP3   OH232299   5.557   5.756   2.130 -0.0865  0.2848  0.2438
 3603TIP3    H132300   5.523   5.699   2.199  1.0434 -0.3687  0.2809
 3603TIP3    H232301   5.614   5.818   2.176  0.7936 -0.2499 -0.1150
 3604TIP3   OH232302   1.844   4.415   6.214  0.0313  0.6748  0.1569
 3604TIP3    H132303   1.922   4.463   6.188 -0.3038  1.7382  1.0582
 3604TIP3    H232304   1.866   4.378   6.300 -0.5257  1.1731  0.5208
 3605TIP3   OH232305   0.138   0.171  10.997 -0.0429 -0.5578 -0.1821
 3605TIP3    H132306   0.066   0.164  10.935 -0.5920 -0.1521  0.4051
 3605TIP3    H232307   0.168   0.080  11.008  1.2338 -0.4694 -2.3657
 3606TIP3   OH232308   5.945   0.515  17.093 -0.1090  0.2957  0.0176
 3606TIP3    H132309   5.916   0.574  17.023 -1.3805 -1.0446 -0.6592
 3606TIP3    H232310   5.916   0.429  17.064  0.5139 -0.4814  1.6036
 3607TIP3   OH232311   4.740   1.492   4.386 -0.3344 -0.7173 -0.0846
 3607TIP3    H132312   4.766   1.417   4.333  2.8325 -0.1190  0.4401
 3607TIP3    H232313   4.764   1.569   4.334  0.2455 -0.1180  1.0245
 3608TIP3   OH232314   4.403   1.996  14.909  0.2718 -0.1941  0.1611
 3608TIP3    H132315   4.431   2.016  14.998  0.4477 -0.9126  0.2765
 3608TIP3    H232316   4.485   1.984  14.860  0.1776  0.2427 -0.1157
 3609TIP3   OH232317   6.540   1.444  13.453 -0.1301  0.1280  0.2022
 3609TIP3    H132318   6.623   1.411  13.488 -0.1163 -0.5290 -0.4305
 3609TIP3    H232319   6.566   1.503  13.381 -0.1834  0.8125  0.7347
 3610TIP3   OH232320   4.159   0.806  14.762 -0.0426 -0.7005 -0.1533
 3610TIP3    H132321   4.071   0.772  14.748 -0.0744 -1.3327  1.3758
 3610TIP3    H232322   4.187   0.767  14.845  2.3886 -2.0228 -1.4647
 3611TIP3   OH232323   1.257   2.670  16.700 -0.4329 -0.4802 -0.6518
 3611TIP3    H132324   1.276   2.738  16.764  1.7640 -0.6632 -1.0127
 3611TIP3    H232325   1.342   2.630  16.682 -1.7148 -3.7916  0.0245
 3612TIP3   OH232326   5.182   1.474   3.207  0.1412 -0.0050  0.3027
 3612TIP3    H132327   5.219   1.416   3.141  0.6769 -1.3738  1.7570
 3612TIP3    H232328   5.240   1.551   3.205 -0.3985  0.4082 -1.4202
 3613TIP3   OH232329   3.912   0.898   2.692 -0.4878 -0.0976 -0.1977
 3613TIP3    H132330   3.974   0.826   2.708 -1.8877 -1.2510  0.3167
 3613TIP3    H232331   3.924   0.919   2.600  0.0367 -0.9306 -0.3389
 3614TIP3   OH232332   5.606   4.943  12.690 -0.0264 -0.0391  0.5269
 3614TIP3    H132333   5.668   4.913  12.623  2.0303 -0.0110  2.3029
 3614TIP3    H232334   5.617   5.038  12.693 -2.4894  0.3826 -1.2542
 3615TIP3   OH232335   2.970   4.645   2.626 -0.1226  0.2177 -0.0443
 3615TIP3    H132336   2.929   4.623   2.710 -0.6617 -0.1239 -0.3953
 3615TIP3    H232337   3.063   4.650   2.647 -0.1747 -0.5484  0.4392
 3616TIP3   OH232338   2.898   0.126  15.825 -0.4760  0.2885 -0.1294
 3616TIP3    H132339   2.898   0.102  15.733  2.5589  2.5095 -0.8997
 3616TIP3    H232340   2.979   0.087  15.860  0.8816  3.1583  0.2850
 3617TIP3   OH232341   2.894   1.613  11.323 -0.2511 -0.3561  0.0664
 3617TIP3    H132342   2.956   1.670  11.369 -1.6567  1.4952 -0.2187
 3617TIP3    H232343   2.898   1.644  11.232  1.0443 -2.6647 -0.7682
 3618TIP3   OH232344   1.522   5.063  10.256  0.5890 -0.2657  0.2859
 3618TIP3    H132345   1.583   5.051  10.329  1.1063 -1.4461 -0.3068
 3618TIP3    H232346   1.475   4.980  10.250 -1.7439  0.8859  1.2514
 3619TIP3   OH232347   0.731   6.037   1.891 -0.1783 -0.5948  0.1073
 3619TIP3    H132348   0.676   5.987   1.951  0.4898 -2.0498 -0.4661
 3619TIP3    H232349   0.821   6.018   1.919  0.1580 -1.5897 -1.5564
 3620TIP3   OH232350   5.530   3.052   3.817 -0.3752  0.5509 -0.4428
 3620TIP3    H132351   5.618   3.091   3.817  0.1826 -0.5680  1.2968
 3620TIP3    H232352   5.513   3.031   3.725  1.1993  0.7542 -0.8120
 3621TIP3   OH232353   2.888   6.057  12.377 -0.4521 -0.0847  0.8841
 3621TIP3    H132354   2.897   6.125  12.311  2.1613 -0.9076  0.2572
 3621TIP3    H232355   2.901   6.102  12.460  0.4930  0.3148  0.5272
 3622TIP3   OH232356   5.932   3.406   1.945 -0.2748 -0.0599 -0.5625
 3622TIP3    H132357   5.967   3.491   1.920 -2.0260  0.7963 -0.2388
 3622TIP3    H232358   5.933   3.355   1.864 -0.8013  0.8426 -1.1528
 3623TIP3   OH232359   1.544   5.512  15.301 -0.4220  0.8405  0.1829
 3623TIP3    H132360   1.602   5.519  15.377  0.5151  0.7967 -0.5112
 3623TIP3    H232361   1.512   5.422  15.303  0.6439  0.4376 -0.2048
 3624TIP3   OH232362   3.313   2.982   5.869 -0.0464 -0.6268 -0.2802
 3624TIP3    H132363   3.243   2.916   5.866  0.0824 -0.8004  0.3452
 3624TIP3    H232364   3.391   2.933   5.895 -0.1918 -0.0570  1.3911
 3625TIP3   OH232365   0.314   0.927   2.821  0.1498 -0.7462 -0.1519
 3625TIP3    H132366   0.244   0.862   2.831  0.3454 -1.1469 -1.2218
 3625TIP3    H232367   0.395   0.877   2.829  0.3096 -0.8995 -2.2485
 3626TIP3   OH232368   6.167   4.037   3.907 -0.0817  0.0671  0.5396
 3626TIP3    H132369   6.241   3.979   3.923 -1.4417 -1.6563  0.9078
 3626TIP3    H232370   6.131   4.054   3.993  1.0208  2.5807  0.5848
 3627TIP3   OH232371   0.880   4.918   0.686 -0.6649  0.4080 -0.2113
 3627TIP3    H132372   0.895   4.839   0.737  0.6373  0.7614 -0.0191
 3627TIP3    H232373   0.953   4.921   0.624 -0.3379  1.8028  0.2180
 3628TIP3   OH232374   3.764   5.920   0.349  0.2669  0.3660 -0.4203
 3628TIP3    H132375   3.680   5.873   0.354  0.4591  0.1214  0.7011
 3628TIP3    H232376   3.811   5.893   0.427  1.0788  1.1281 -0.6350
 3629TIP3   OH232377   3.975   2.713   5.214  0.2808 -0.2322 -0.1771
 3629TIP3    H132378   3.929   2.687   5.294 -3.2442  1.8318 -1.3510
 3629TIP3    H232379   3.947   2.650   5.148  1.2390 -0.4605 -0.3921
 3630TIP3   OH232380   2.455   0.604  12.420  0.5022 -0.4174 -0.1553
 3630TIP3    H132381   2.381   0.645  12.376  1.4007  1.3664 -0.1030
 3630TIP3    H232382   2.509   0.569  12.349  0.6782  0.1907 -0.3218
 3631TIP3   OH232383   2.876   2.902   5.233  0.0137 -0.0533 -0.0279
 3631TIP3    H132384   2.883   2.816   5.191  0.9037 -0.0307  0.0701
 3631TIP3    H232385   2.916   2.891   5.319  0.7937  0.6478 -0.2911
 3632TIP3   OH232386   2.575   3.350  15.504  0.0374  0.1527 -0.0034
 3632TIP3    H132387   2.606   3.429  15.460  0.5308 -0.5783 -1.0089
 3632TIP3    H232388   2.481   3.364  15.515  0.2280  1.1625  0.4620
 3633TIP3   OH232389   2.653   3.242  13.250  0.4301 -0.0468 -0.0531
 3633TIP3    H132390   2.699   3.290  13.319 -1.2648  0.8220  0.5360
 3633TIP3    H232391   2.652   3.303  13.176  1.6411 -0.7148 -0.6587
 3634TIP3   OH232392   1.443   3.290  13.147 -0.1960  0.2918  0.5176
 3634TIP3    H132393   1.528   3.318  13.180 -0.1533 -0.0438  0.7001
 3634TIP3    H232394   1.462   3.245  13.065  0.0102 -1.3439  1.4105
 3635TIP3   OH232395   2.564   6.819  12.646  0.1493  0.0298  0.5118
 3635TIP3    H132396   2.567   6.725  12.662 -0.0555 -0.2044 -0.7136
 3635TIP3    H232397   2.585   6.858  12.731  0.9752 -1.1242  0.8719
 3636TIP3   OH232398   5.969   0.246   0.863  0.4324 -0.6716  0.6364
 3636TIP3    H132399   5.952   0.160   0.824 -0.6872  0.9388 -2.7708
 3636TIP3    H232400   6.019   0.293   0.797 -0.2516  1.8151  1.7689
 3637TIP3   OH232401   3.602   6.674  13.122  0.0008 -0.5792 -0.0935
 3637TIP3    H132402   3.569   6.684  13.033  1.3680 -1.6802 -0.7597
 3637TIP3    H232403   3.543   6.727  13.176 -1.5744 -0.8631 -1.4717
 3638TIP3   OH232404   6.008   4.127   0.331 -0.2636 -0.3164  0.2342
 3638TIP3    H132405   6.047   4.119   0.418  0.6907  1.4250  0.0124
 3638TIP3    H232406   5.925   4.079   0.337 -1.4504  1.8485  2.8919
 3639TIP3   OH232407   2.673   5.998  14.114  0.5219  0.0705  0.2906
 3639TIP3    H132408   2.750   5.966  14.160  0.7502  0.3892  0.1266
 3639TIP3    H232409   2.612   5.924  14.116  1.2070 -0.5265 -0.4552
 3640TIP3   OH232410   3.235   2.994  16.687 -0.9083 -0.3201  0.0995
 3640TIP3    H132411   3.208   3.075  16.645  1.4650  0.8323  0.5918
 3640TIP3    H232412   3.230   2.928  16.618  0.5221  1.0131 -1.3880
 3641TIP3   OH232413   6.340   3.352  16.595 -0.1828 -0.6791 -0.3493
 3641TIP3    H132414   6.324   3.275  16.650 -0.1695 -1.4446 -1.3924
 3641TIP3    H232415   6.337   3.319  16.505  2.9213 -0.1037 -0.7847
 3642TIP3   OH232416   1.653   1.487   5.096 -0.5345 -0.1733 -0.2298
 3642TIP3    H132417   1.648   1.536   5.014 -1.6063 -0.5460 -0.4012
 3642TIP3    H232418   1.564   1.458   5.112 -0.1392 -1.0251  0.5087
 3643TIP3   OH232419   2.480   1.408   1.979  0.1048 -0.5107 -0.2618
 3643TIP3    H132420   2.393   1.369   1.994 -0.3851  0.3057 -0.8843
 3643TIP3    H232421   2.521   1.348   1.916  0.6214 -1.7509  1.1976
 3644TIP3   OH232422   0.507   0.248   3.098 -0.6898  0.0049 -0.1307
 3644TIP3    H132423   0.474   0.209   3.179  0.2868 -0.7511 -0.0807
 3644TIP3    H232424   0.438   0.309   3.071 -0.3443  1.5493  2.1670
 3645TIP3   OH232425   3.091   3.394   0.881 -0.5213  0.6056 -0.4567
 3645TIP3    H132426   3.005   3.393   0.924  0.1518 -0.1407  0.9058
 3645TIP3    H232427   3.117   3.302   0.877  0.4361  0.8624 -0.4031
 3646TIP3   OH232428   3.259   2.328   2.844 -0.0189 -0.1028  0.0564
 3646TIP3    H132429   3.247   2.351   2.752  0.5093 -0.4010 -0.0894
 3646TIP3    H232430   3.173   2.342   2.884 -0.1604  0.3728 -0.4066
 3647TIP3   OH232431   1.207   3.068  14.052 -0.1088  0.1944 -0.5149
 3647TIP3    H132432   1.241   3.009  13.985 -1.0413 -1.7106  0.6246
 3647TIP3    H232433   1.129   3.024  14.086 -0.3430  1.6741  0.9911
 3648TIP3   OH232434   1.301   5.313   1.968 -0.3439 -0.0400  0.0941
 3648TIP3    H132435   1.214   5.300   2.005 -0.3728 -3.0118 -0.7773
 3648TIP3    H232436   1.286   5.321   1.874  0.2057  1.7691  0.1114
 3649TIP3   OH232437   6.820   0.790  11.023 -0.2201  0.0193 -0.2080
 3649TIP3    H132438   6.751   0.834  11.073 -0.5978 -0.4895 -0.2826
 3649TIP3    H232439   6.800   0.809  10.932  1.0600  1.8413 -0.1667
 3650TIP3   OH232440   2.325   0.066  12.568 -0.4147 -0.6527 -0.5282
 3650TIP3    H132441   2.419   0.054  12.581 -0.4651 -0.9346 -0.4218
 3650TIP3    H232442   2.312   0.050  12.474 -0.6686 -2.7129 -0.1732
 3651TIP3   OH232443   6.831   4.873   0.687  0.1056  0.3350  0.0657
 3651TIP3    H132444   6.826   4.874   0.783  1.1817  0.6337  0.1311
 3651TIP3    H232445   6.894   4.941   0.666 -1.3245  1.4044 -0.9641
 3652TIP3   OH232446   4.902   4.491   2.912  0.4790 -0.1624 -0.4019
 3652TIP3    H132447   4.859   4.571   2.940 -0.9026 -0.3909 -1.7468
 3652TIP3    H232448   4.976   4.521   2.859 -0.8734  0.2824 -2.1296
 3653TIP3   OH232449   1.319   0.970   4.050 -0.5174 -0.4512  0.3541
 3653TIP3    H132450   1.372   0.908   4.100 -1.4684 -0.9382  0.7932
 3653TIP3    H232451   1.289   1.033   4.116  0.0659  0.2035 -0.0080
 3654TIP3   OH232452   3.614   1.700  12.745 -0.5136  0.2110 -0.0888
 3654TIP3    H132453   3.672   1.632  12.711  0.3234  1.0388 -0.3636
 3654TIP3    H232454   3.661   1.736  12.820 -1.1872  0.1358  0.3732
 3655TIP3   OH232455   6.002   0.801   4.513  0.2889  0.5515  0.2173
 3655TIP3    H132456   5.921   0.839   4.478  0.7949  0.9497 -0.5580
 3655TIP3    H232457   6.070   0.835   4.456  0.8281 -1.1781 -0.2173
 3656TIP3   OH232458   2.199   5.736  13.117 -0.0929  0.4312  0.2747
 3656TIP3    H132459   2.137   5.697  13.055  0.2524  0.2354  0.0507
 3656TIP3    H232460   2.145   5.762  13.192 -0.2219 -1.1845  0.7656
 3657TIP3   OH232461   4.338   4.714   4.875  0.4692  0.3493  0.4930
 3657TIP3    H132462   4.421   4.732   4.920  0.0496  1.6288  0.7979
 3657TIP3    H232463   4.351   4.746   4.786  0.4534  0.1281  0.4104
 3658TIP3   OH232464   1.660   5.049   3.521 -0.0686  0.2929  0.1553
 3658TIP3    H132465   1.749   5.081   3.532 -0.8583  2.2417  1.3967
 3658TIP3    H232466   1.628   5.093   3.442 -0.0005 -0.2796 -0.1980
 3659TIP3   OH232467   6.566   0.548   1.886  0.1658 -0.1183  0.1314
 3659TIP3    H132468   6.579   0.626   1.939 -1.6815  1.0881 -1.0529
 3659TIP3    H232469   6.573   0.579   1.796 -0.2036 -1.3903 -0.3635
 3660TIP3   OH232470   0.532   5.840  15.074 -0.4802  0.8411 -0.8895
 3660TIP3    H132471   0.616   5.885  15.083 -0.2572  0.2113  0.5255
 3660TIP3    H232472   0.469   5.909  15.052  0.4172  1.2955 -2.1333
 3661TIP3   OH232473   3.281   2.109  15.734  0.3448 -0.0858  0.0090
 3661TIP3    H132474   3.240   2.115  15.647  0.9673  1.5666 -0.2186
 3661TIP3    H232475   3.342   2.036  15.727 -0.7798 -1.0093 -0.4164
 3662TIP3   OH232476   5.099   6.339   0.122  0.7721 -0.1342  0.0445
 3662TIP3    H132477   5.070   6.279   0.190 -0.7729 -0.8210 -1.1561
 3662TIP3    H232478   5.065   6.424   0.148 -0.1939 -0.4769 -0.0685
 3663TIP3   OH232479   1.679   5.697   2.889 -0.0992  0.0582 -0.5964
 3663TIP3    H132480   1.594   5.654   2.901 -0.2460  0.6240  0.5118
 3663TIP3    H232481   1.742   5.640   2.933  0.0975 -0.3271 -1.3599
 3664TIP3   OH232482   3.314   4.878   2.699 -0.2701 -0.4532 -1.3583
 3664TIP3    H132483   3.338   4.910   2.786 -0.1531  1.7397 -2.1319
 3664TIP3    H232484   3.286   4.788   2.713  2.1419 -1.0138  0.5660
 3665TIP3   OH232485   5.691   2.240  15.256 -0.0758 -0.4453 -0.4186
 3665TIP3    H132486   5.718   2.331  15.271 -0.1843 -0.3222 -0.9377
 3665TIP3    H232487   5.620   2.225  15.320 -1.1121  0.3391 -1.3373
 3666TIP3   OH232488   1.064   2.841   0.345  0.5261 -0.0532  0.4989
 3666TIP3    H132489   1.115   2.799   0.415 -0.6973 -0.0060  1.4487
 3666TIP3    H232490   1.020   2.768   0.301  0.3849  0.0116  0.5314
 3667TIP3   OH232491   0.270   6.466  12.778  0.3529  0.1180 -0.4430
 3667TIP3    H132492   0.191   6.413  12.779  0.8193 -0.6283  1.5127
 3667TIP3    H232493   0.239   6.556  12.785 -0.3623 -0.2258  1.6236
 3668TIP3   OH232494   2.295   6.187   1.311 -0.0906  0.1431  0.2781
 3668TIP3    H132495   2.382   6.146   1.319  0.3533  0.7624 -1.1068
 3668TIP3    H232496   2.304   6.248   1.238 -1.1023  1.7890  1.4648
 3669TIP3   OH232497   3.081   2.284   3.732  0.2702 -0.0858  0.6198
 3669TIP3    H132498   3.097   2.258   3.642  2.2094  2.3172  0.1550
 3669TIP3    H232499   2.988   2.267   3.746  0.3407 -2.3588 -1.1263
 3670TIP3   OH232500   0.549   0.223   4.336 -0.4370  0.4275  0.0320
 3670TIP3    H132501   0.638   0.209   4.367 -1.4475 -3.0322  1.9225
 3670TIP3    H232502   0.557   0.231   4.241  1.8127 -0.7205  0.0630
 3671TIP3   OH232503   5.837   1.489   3.880  0.0476 -0.1795 -0.4001
 3671TIP3    H132504   5.773   1.556   3.903 -0.6849 -0.8664 -0.3813
 3671TIP3    H232505   5.886   1.473   3.961 -0.2648 -0.1917 -0.2138
 3672TIP3   OH232506   5.950   3.016  13.180  0.4375  0.0704 -0.1488
 3672TIP3    H132507   5.992   3.086  13.131 -1.2031  0.9720 -0.3438
 3672TIP3    H232508   5.899   3.060  13.248 -2.6031 -0.6449 -1.7577
 3673TIP3   OH232509   5.464   2.509  12.044 -0.0481  0.1046  0.2002
 3673TIP3    H132510   5.500   2.575  11.986  1.7882  0.4540  1.6584
 3673TIP3    H232511   5.468   2.548  12.132  0.9505 -1.8095  1.0894
 3674TIP3   OH232512   2.911   5.159  14.354 -0.1453 -0.3571 -0.4693
 3674TIP3    H132513   2.918   5.063  14.347 -0.1645 -0.2433 -2.7314
 3674TIP3    H232514   2.901   5.175  14.448  3.8560 -2.2882  0.4997
 3675TIP3   OH232515   3.187   0.741   3.652 -0.3062  0.1171  0.3386
 3675TIP3    H132516   3.247   0.698   3.591 -0.7823  0.5833 -0.4649
 3675TIP3    H232517   3.154   0.670   3.707 -0.3642 -0.4109 -0.3630
 3676TIP3   OH232518   4.819   4.152   4.419  0.3989  0.1025  0.2295
 3676TIP3    H132519   4.767   4.107   4.485 -2.6581  0.2171 -1.8653
 3676TIP3    H232520   4.756   4.209   4.374  2.2860  0.0877 -2.7029
 3677TIP3   OH232521   3.415   0.191  15.594 -0.0709 -0.5040 -0.1990
 3677TIP3    H132522   3.430   0.172  15.687 -0.2982 -0.8077 -0.2214
 3677TIP3    H232523   3.331   0.237  15.592 -0.6310 -1.5102 -0.3581
 3678TIP3   OH232524   3.593   0.541   1.777  0.3289  0.2947 -0.3261
 3678TIP3    H132525   3.506   0.577   1.765  0.1328  0.6802  1.9034
 3678TIP3    H232526   3.646   0.614   1.808  1.2999 -0.0718 -1.0751
 3679TIP3   OH232527   3.272   1.717   1.112  0.4122  0.4731 -0.0460
 3679TIP3    H132528   3.332   1.753   1.177  1.1280  0.0145 -0.4344
 3679TIP3    H232529   3.185   1.744   1.142  0.6544 -0.2941  1.4841
 3680TIP3   OH232530   2.169   1.564   4.276  0.1169 -0.4524  0.1910
 3680TIP3    H132531   2.243   1.625   4.267  0.3252 -0.9410 -2.1185
 3680TIP3    H232532   2.210   1.479   4.287 -0.1323 -0.5404  0.4367
 3681TIP3   OH232533   4.699   3.667   5.013  0.0701  0.3015 -0.3025
 3681TIP3    H132534   4.611   3.659   5.050  0.6239  0.0098  1.0131
 3681TIP3    H232535   4.745   3.589   5.044  0.6037  0.0982 -1.5568
 3682TIP3   OH232536   2.189   6.658   0.527  0.0200 -0.2141 -0.7634
 3682TIP3    H132537   2.135   6.580   0.516  0.7126 -1.0807  1.3979
 3682TIP3    H232538   2.238   6.642   0.608  0.9225  2.0452 -0.7837
 3683TIP3   OH232539   5.215   0.854   4.834  0.3136 -0.1135 -0.0720
 3683TIP3    H132540   5.136   0.892   4.796 -0.2934 -1.0602  0.2148
 3683TIP3    H232541   5.189   0.828   4.922  1.1474  0.2043  0.2825
 3684TIP3   OH232542   5.508   4.356  12.680  0.0983 -0.2700 -0.4230
 3684TIP3    H132543   5.421   4.341  12.643  0.7334 -2.9434 -1.0404
 3684TIP3    H232544   5.499   4.335  12.773  0.0340 -0.3727 -0.4525
 3685TIP3   OH232545   1.914   5.119  16.021 -0.3009  0.1197 -0.3860
 3685TIP3    H132546   1.979   5.088  16.084 -0.0768  0.0918 -0.6292
 3685TIP3    H232547   1.849   5.049  16.017  0.9403 -0.9916 -2.0140
 3686TIP3   OH232548   1.337   5.269  15.580  0.0608 -0.1908 -0.1630
 3686TIP3    H132549   1.389   5.327  15.636  2.2714  0.0220 -2.2706
 3686TIP3    H232550   1.247   5.301  15.588  0.6298  1.0866  1.6360
 3687TIP3   OH232551   3.395   5.934   3.142  1.0754 -0.1605 -0.1300
 3687TIP3    H132552   3.328   5.866   3.148  2.5162 -1.6382 -0.0259
 3687TIP3    H232553   3.441   5.916   3.060  1.4468  0.7463 -0.1404
 3688TIP3   OH232554   4.981   5.421   1.481  0.6055 -0.3259 -0.5578
 3688TIP3    H132555   5.037   5.347   1.461  0.2142 -0.4431 -1.2305
 3688TIP3    H232556   4.935   5.394   1.561  0.1325 -1.0013 -1.0454
 3689TIP3   OH232557   0.902   2.514   5.687 -0.1355  0.0282 -0.2147
 3689TIP3    H132558   0.983   2.549   5.651 -0.0746  0.5275  0.3920
 3689TIP3    H232559   0.929   2.470   5.767 -0.3101 -0.8150 -0.6100
 3690TIP3   OH232560   0.155   0.519   2.387  0.7766 -0.2914  1.0271
 3690TIP3    H132561   0.119   0.602   2.421  0.2078 -0.3984  0.6995
 3690TIP3    H232562   0.148   0.528   2.292  0.7559 -0.7040  0.9917
 3691TIP3   OH232563   0.271   4.014  13.942 -0.0901  0.3420 -0.2767
 3691TIP3    H132564   0.316   3.976  14.017 -0.5129 -1.0592 -0.7051
 3691TIP3    H232565   0.262   4.107  13.964 -0.8898 -0.1641  1.7461
 3692TIP3   OH232566   0.853   5.965  16.106 -0.1715 -0.0543  0.3951
 3692TIP3    H132567   0.856   5.874  16.078  0.6230  0.4474 -1.2665
 3692TIP3    H232568   0.878   6.015  16.028  1.8074  1.4611  1.9077
 3693TIP3   OH232569   6.616   3.001  16.884 -0.3238 -0.3891  0.7005
 3693TIP3    H132570   6.624   3.087  16.926  1.0615 -0.9850  1.7398
 3693TIP3    H232571   6.533   3.005  16.838 -0.3574  1.4634  0.8379
 3694TIP3   OH232572   6.270   2.681   1.428 -0.2020  0.2269 -0.1955
 3694TIP3    H132573   6.189   2.632   1.438  0.0833 -0.4632 -1.1518
 3694TIP3    H232574   6.242   2.771   1.408 -0.7161  0.0033 -0.4788
 3695TIP3   OH232575   4.803   5.240   5.118 -0.7771  0.3955  0.2807
 3695TIP3    H132576   4.862   5.167   5.097 -1.5243 -0.1266 -0.0324
 3695TIP3    H232577   4.746   5.206   5.187 -0.5146  1.0060  0.8163
 3696TIP3   OH232578   4.496   6.149  14.790  0.4593 -0.0294 -0.0513
 3696TIP3    H132579   4.438   6.190  14.727 -0.4422  1.4330  1.6479
 3696TIP3    H232580   4.476   6.192  14.873  1.2008 -2.2277  1.3677
 3697TIP3   OH232581   1.233   4.478  10.964  0.1018 -0.1497  0.5286
 3697TIP3    H132582   1.295   4.470  10.892 -0.0457  1.0443  0.2511
 3697TIP3    H232583   1.183   4.557  10.945  0.6667  0.7218  2.4202
 3698TIP3   OH232584   1.706   2.837  16.609 -0.3667 -0.4347  0.3215
 3698TIP3    H132585   1.785   2.865  16.563  0.3860 -1.1207  1.1610
 3698TIP3    H232586   1.682   2.754  16.568 -0.5641 -0.2966  0.1592
 3699TIP3   OH232587   1.070   3.761  14.320  0.3369  0.1848 -0.3375
 3699TIP3    H132588   1.021   3.843  14.313  0.3028  0.3550  1.3738
 3699TIP3    H232589   1.093   3.738  14.230 -0.6920  1.4350 -0.9449
 3700TIP3   OH232590   2.750   3.614  15.771 -0.3273 -0.2526  0.2967
 3700TIP3    H132591   2.757   3.651  15.859 -1.8555 -0.1170  0.3842
 3700TIP3    H232592   2.696   3.677  15.722  0.4655 -0.3442 -0.7370
 3701TIP3   OH232593   3.086   1.433  16.637  0.2508 -0.3819 -0.3316
 3701TIP3    H132594   3.116   1.521  16.660  1.0238 -0.9047  0.7685
 3701TIP3    H232595   3.043   1.401  16.717 -2.1274 -0.1681 -1.4390
 3702TIP3   OH232596   2.050   1.827   2.309  0.1138 -0.0452 -0.2689
 3702TIP3    H132597   2.102   1.756   2.273 -1.0761 -0.6616 -0.7926
 3702TIP3    H232598   2.004   1.788   2.383 -1.1425 -0.0471 -1.0290
 3703TIP3   OH232599   4.103   3.286   1.304  0.0803 -0.3043 -0.4843
 3703TIP3    H132600   4.133   3.358   1.249 -0.4536  0.1806 -0.1463
 3703TIP3    H232601   4.175   3.270   1.365 -0.3482  0.8686  0.3454
 3704TIP3   OH232602   6.183   2.602   5.085 -0.0408  0.2301  0.3273
 3704TIP3    H132603   6.264   2.556   5.109 -0.9565 -1.1491  0.8740
 3704TIP3    H232604   6.159   2.652   5.163  0.1665  0.4770  0.2343
 3705TIP3   OH232605   3.712   4.328  12.862 -0.3203 -0.5495 -0.2250
 3705TIP3    H132606   3.757   4.245  12.842  2.1998  0.9049 -1.0759
 3705TIP3    H232607   3.782   4.393  12.862 -2.1766  1.5652  0.7579
 3706TIP3   OH232608   5.300   2.530   0.142 -0.1345 -0.3693  0.1249
 3706TIP3    H132609   5.316   2.485   0.224 -0.9933  0.1857  0.6170
 3706TIP3    H232610   5.221   2.582   0.158 -0.9791 -1.1024 -1.3795
 3707TIP3   OH232611   2.979   2.440  14.783  0.2252  0.6083 -0.4098
 3707TIP3    H132612   3.061   2.403  14.749  0.3348  1.3225 -0.9446
 3707TIP3    H232613   2.961   2.389  14.862 -1.6074 -3.2295 -2.9550
 3708TIP3   OH232614   5.871   4.391   5.402 -0.1170  0.8927 -0.2608
 3708TIP3    H132615   5.791   4.442   5.412  0.2761  1.5434 -0.3841
 3708TIP3    H232616   5.847   4.320   5.342 -0.6145  1.0383 -0.2386
 3709TIP3   OH232617   2.378   5.423   0.064 -0.0253  0.7202 -0.6165
 3709TIP3    H132618   2.317   5.414  -0.010  0.8481 -0.5544 -1.2048
 3709TIP3    H232619   2.323   5.454   0.136 -1.4226 -0.5507 -1.0799
 3710TIP3   OH232620   0.853   6.820  10.630 -0.7219  0.3802 -0.3178
 3710TIP3    H132621   0.935   6.773  10.644 -0.7424  0.4809  0.1617
 3710TIP3    H232622   0.880   6.908  10.602 -0.6516  0.5252  0.1847
 3711TIP3   OH232623   6.658   4.454   2.518 -0.2946 -0.0295 -0.9532
 3711TIP3    H132624   6.595   4.526   2.516  2.7689  2.9362 -3.1427
 3711TIP3    H232625   6.618   4.385   2.465 -1.6629  1.8192 -2.4529
 3712TIP3   OH232626   1.196   1.761   3.682  0.2166 -0.1038  0.8585
 3712TIP3    H132627   1.221   1.684   3.631  1.7445  0.7383  0.2549
 3712TIP3    H232628   1.146   1.815   3.621  1.7025  0.7182  0.3047
 3713TIP3   OH232629   5.818   5.500  12.764  0.6363 -0.6066  0.1047
 3713TIP3    H132630   5.869   5.574  12.731  0.3810 -1.0851 -1.4467
 3713TIP3    H232631   5.739   5.499  12.710  0.6828 -2.0486  0.0108
 3714TIP3   OH232632   1.940   3.666  13.134 -0.1168 -0.8870 -0.6937
 3714TIP3    H132633   1.921   3.635  13.046  1.4939 -0.9282 -1.0579
 3714TIP3    H232634   1.962   3.587  13.183 -2.5202 -1.0771  0.2291
 3715TIP3   OH232635   3.502   5.792  12.530  0.3995 -0.2324  0.2026
 3715TIP3    H132636   3.580   5.844  12.508  0.0044  0.1354 -0.3505
 3715TIP3    H232637   3.537   5.713  12.571  1.1961 -0.9514 -1.7045
 3716TIP3   OH232638   6.270   5.235  12.584  0.0763 -0.6295  0.3028
 3716TIP3    H132639   6.241   5.225  12.675  0.1690  0.2367  0.4400
 3716TIP3    H232640   6.349   5.182  12.578  2.0582  1.9156  1.7254
 3717TIP3   OH232641   3.786   2.239   0.369 -0.2623 -0.0773  0.3346
 3717TIP3    H132642   3.804   2.256   0.276 -1.7888 -1.3597 -0.2349
 3717TIP3    H232643   3.824   2.154   0.386  0.2770  0.2854  0.9893
 3718TIP3   OH232644   3.344   3.776   2.308  0.5824  0.1037 -0.1475
 3718TIP3    H132645   3.289   3.713   2.354  1.6203  0.7770  2.1414
 3718TIP3    H232646   3.297   3.793   2.226 -1.6245 -0.7543  0.8635
 3719TIP3   OH232647   3.156   6.079  11.763 -0.1249  0.9455  0.1023
 3719TIP3    H132648   3.150   6.094  11.668 -0.0918  0.9505  0.1011
 3719TIP3    H232649   3.246   6.048  11.776 -0.2658  0.5168  0.0752
 3720TIP3   OH232650   2.656   2.789   0.239  0.7814 -0.1519  0.3459
 3720TIP3    H132651   2.709   2.727   0.290  1.9041  1.5439  1.3448
 3720TIP3    H232652   2.572   2.792   0.284  0.4632 -1.4234 -0.1188
 3721TIP3   OH232653   6.377   4.727  11.582 -0.2472 -0.2889  0.1747
 3721TIP3    H132654   6.338   4.688  11.661 -0.8382 -1.0646 -0.4803
 3721TIP3    H232655   6.470   4.704  11.588 -0.4186 -0.9849  0.2793
 3722TIP3   OH232656   0.840   3.431   3.958 -0.0354 -0.0466 -0.0220
 3722TIP3    H132657   0.844   3.337   3.970  0.1801 -0.0365 -0.0042
 3722TIP3    H232658   0.929   3.456   3.932  0.2838  0.3399  1.3515
 3723TIP3   OH232659   3.189   1.972  14.807 -0.3916 -0.7690  0.3844
 3723TIP3    H132660   3.279   1.941  14.818 -0.4272 -0.8601  0.4215
 3723TIP3    H232661   3.198   2.062  14.775 -0.2918 -1.1463 -0.6685
 3724TIP3   OH232662   2.128   0.968   2.594 -0.0241 -0.0893  0.8347
 3724TIP3    H132663   2.208   0.917   2.604 -0.0599 -0.3914 -0.3799
 3724TIP3    H232664   2.158   1.056   2.571 -0.0381 -0.2011  0.3853
 3725TIP3   OH232665   3.002   3.906  11.386 -0.0136 -0.3777 -0.4903
 3725TIP3    H132666   3.022   3.952  11.468  1.4280 -0.8549 -0.5439
 3725TIP3    H232667   3.088   3.877  11.353 -0.7704 -2.1460 -1.0247
 3726TIP3   OH232668   2.338   2.489  13.356  0.1379 -0.1294  0.3810
 3726TIP3    H132669   2.391   2.560  13.319  1.2642 -0.6349  0.9594
 3726TIP3    H232670   2.260   2.485  13.300  2.1549 -1.4678 -2.5884
 3727TIP3   OH232671   1.680   4.825   4.604 -0.5340 -0.7312  1.0409
 3727TIP3    H132672   1.684   4.760   4.534  1.1098  1.2808 -0.9263
 3727TIP3    H232673   1.600   4.874   4.587 -0.0830 -0.1773  0.4403
 3728TIP3   OH232674   1.434   5.613  16.822  0.3498 -0.3775 -0.5655
 3728TIP3    H132675   1.345   5.576  16.817  0.5588 -1.0065  0.1929
 3728TIP3    H232676   1.491   5.538  16.838  0.5971  0.3506  2.8454
 3729TIP3   OH232677   3.594   2.152  15.454 -0.1585  0.0760  0.6534
 3729TIP3    H132678   3.577   2.170  15.546  1.0500  0.7614  0.7679
 3729TIP3    H232679   3.546   2.220  15.407  0.0452  0.3443  0.8318
 3730TIP3   OH232680   6.361   6.101  13.612 -0.2433  0.4855 -0.0271
 3730TIP3    H132681   6.380   6.049  13.691 -0.1198  1.1784  0.4020
 3730TIP3    H232682   6.404   6.052  13.542  0.3070  0.2668  0.4451
 3731TIP3   OH232683   1.834   5.281  15.378  0.1865 -0.0220  0.0647
 3731TIP3    H132684   1.808   5.288  15.470 -0.5781 -0.0844 -0.1411
 3731TIP3    H232685   1.853   5.188  15.365  0.9960  0.0983  0.3379
 3732TIP3   OH232686   4.721   5.296  10.679  0.2598  0.3179  0.1768
 3732TIP3    H132687   4.789   5.308  10.746  1.7259  0.8711 -1.3412
 3732TIP3    H232688   4.640   5.323  10.722  1.4066  2.3327  1.2347
 3733TIP3   OH232689   0.903   5.163  16.524 -0.2029  0.2294  0.1691
 3733TIP3    H132690   0.901   5.142  16.618 -1.3482 -0.9305 -0.0933
 3733TIP3    H232691   0.830   5.222  16.511  0.1974  0.7069  0.0678
 3734TIP3   OH232692   6.386   3.556  15.151  0.5825  0.0522  0.1393
 3734TIP3    H132693   6.421   3.479  15.106  1.3401  0.7743 -0.5321
 3734TIP3    H232694   6.460   3.616  15.157  0.2371  0.3676  1.4913
 3735TIP3   OH232695   1.733   6.503  10.717  0.6552  0.1110  0.1762
 3735TIP3    H132696   1.753   6.547  10.799 -0.0781  1.8934 -0.5589
 3735TIP3    H232697   1.755   6.411  10.733 -1.8264 -0.1161  3.1966
 3736TIP3   OH232698   5.381   1.896  15.770 -0.5425 -0.0593 -0.2788
 3736TIP3    H132699   5.461   1.852  15.742 -0.9754  0.6908 -3.0253
 3736TIP3    H232700   5.315   1.826  15.774 -0.1860 -0.3783  0.1246
 3737TIP3   OH232701   6.611   4.416   2.218 -0.5433  0.3157 -0.2726
 3737TIP3    H132702   6.576   4.327   2.229 -0.7974  0.4640  0.1328
 3737TIP3    H232703   6.657   4.413   2.134  2.3595 -1.1636  1.2040
 3738TIP3   OH232704   5.929   1.484  11.213  0.0369 -0.4964  0.3681
 3738TIP3    H132705   5.862   1.536  11.257  1.2211  1.2699  0.1888
 3738TIP3    H232706   5.902   1.485  11.121  0.2209  0.0835  0.3173
 3739TIP3   OH232707   1.764   3.959   4.510 -0.3249 -1.0684  0.3643
 3739TIP3    H132708   1.786   3.949   4.603  1.0215 -2.2203 -0.0481
 3739TIP3    H232709   1.735   3.872   4.483 -1.4756 -0.5524 -0.1261
 3740TIP3   OH232710   0.349   2.307   0.891  0.5554 -0.0848 -0.5157
 3740TIP3    H132711   0.278   2.271   0.839  1.6734  0.2123 -2.3408
 3740TIP3    H232712   0.384   2.232   0.938 -1.8809  0.0162  1.6694
 3741TIP3   OH232713   0.162   2.189   4.680  0.0789  0.1591  0.0951
 3741TIP3    H132714   0.088   2.131   4.661 -1.1716  1.1829  1.5384
 3741TIP3    H232715   0.235   2.151   4.632 -1.5687 -0.3907 -2.1711
 3742TIP3   OH232716   4.430   1.300   5.038 -0.5652  0.2925 -0.1984
 3742TIP3    H132717   4.390   1.213   5.042  0.4237 -0.1901 -0.4491
 3742TIP3    H232718   4.470   1.304   4.951  1.3280  0.1008  0.6207
 3743TIP3   OH232719   1.030   0.099   4.456 -0.1087  0.3855  0.4859
 3743TIP3    H132720   1.051   0.172   4.514 -1.4200  3.3181 -2.3894
 3743TIP3    H232721   1.113   0.078   4.413  0.0865  0.9063  0.6002
 3744TIP3   OH232722   0.511   5.679  14.792 -0.2587 -0.1508  0.6409
 3744TIP3    H132723   0.533   5.737  14.865 -2.7148  1.5354  0.1623
 3744TIP3    H232724   0.536   5.729  14.714  0.0086 -0.8507  0.2789
 3745TIP3   OH232725   2.091   5.565   3.092 -0.2945 -0.6506 -0.1263
 3745TIP3    H132726   2.121   5.489   3.043 -1.8194 -0.8073 -0.9049
 3745TIP3    H232727   2.146   5.637   3.061 -0.1352 -1.0704 -0.8459
 3746TIP3   OH232728   1.251   1.828   5.652 -0.3161  0.5234  0.2821
 3746TIP3    H132729   1.187   1.761   5.674  0.4562  0.0576  1.2159
 3746TIP3    H232730   1.243   1.839   5.557 -1.2198 -0.0870  0.2737
 3747TIP3   OH232731   4.203   6.152  14.064 -0.3305  0.0143  0.4542
 3747TIP3    H132732   4.185   6.062  14.036  1.6897  0.1340 -1.5178
 3747TIP3    H232733   4.289   6.147  14.106  0.2473  1.1135 -0.5259
 3748TIP3   OH232734   1.609   3.737  13.354  0.0326 -0.1232 -0.1392
 3748TIP3    H132735   1.545   3.784  13.302  0.0415 -0.3042 -0.3161
 3748TIP3    H232736   1.682   3.799  13.364 -0.3133  0.2102  0.3664
 3749TIP3   OH232737   2.575   1.335  11.344  0.0702  0.1265 -0.0813
 3749TIP3    H132738   2.487   1.311  11.375 -0.9120  1.5101 -1.6394
 3749TIP3    H232739   2.594   1.271  11.276  0.3971 -0.3174  0.4164
 3750TIP3   OH232740   5.520   0.917   4.223 -0.0536 -0.3691  0.0680
 3750TIP3    H132741   5.526   0.822   4.213  0.6931 -0.2231 -1.0633
 3750TIP3    H232742   5.468   0.946   4.149 -1.2449  0.0163  1.0292
 3751TIP3   OH232743   2.558   1.927  15.841  0.0544  0.0397  0.1436
 3751TIP3    H132744   2.594   1.973  15.917  0.3569  1.0289 -0.5688
 3751TIP3    H232745   2.624   1.861  15.819 -0.1941 -0.4768  0.9391
 3752TIP3   OH232746   1.383   3.385   3.732 -0.2119  0.3469  0.3567
 3752TIP3    H132747   1.422   3.400   3.819 -0.1688 -0.6060  0.5142
 3752TIP3    H232748   1.336   3.302   3.741 -1.4059  0.9514 -0.1423
 3753TIP3   OH232749   2.557   1.307  14.600  0.1331 -0.3733 -0.4805
 3753TIP3    H132750   2.643   1.339  14.574 -0.3364 -0.3995 -2.2114
 3753TIP3    H232751   2.506   1.306  14.519 -0.9804 -2.0178  0.1780
 3754TIP3   OH232752   2.161   0.265  13.432  0.0671  0.0786 -0.1483
 3754TIP3    H132753   2.122   0.184  13.463  0.1124 -0.0139 -0.3288
 3754TIP3    H232754   2.166   0.255  13.337  0.8900 -0.0808 -0.1010
 3755TIP3   OH232755   4.783   2.884   3.826  0.4137 -0.2549  0.1779
 3755TIP3    H132756   4.817   2.914   3.741 -2.2540 -2.0046 -1.6570
 3755TIP3    H232757   4.693   2.915   3.828  0.5887  0.2685  2.7439
 3756TIP3   OH232758   4.562   4.563  11.781  0.3946 -0.3167 -0.3245
 3756TIP3    H132759   4.537   4.479  11.741  1.1126  0.0282 -1.5730
 3756TIP3    H232760   4.564   4.625  11.708  1.1393  0.4936  0.3553
 3757TIP3   OH232761   2.575   3.486  12.001 -0.3326 -0.1555  0.3389
 3757TIP3    H132762   2.495   3.538  11.993 -0.2461 -0.1097 -0.3136
 3757TIP3    H232763   2.554   3.404  11.956  1.0126  1.0655 -2.7629
 3758TIP3   OH232764   3.204   4.491  16.926  0.6746 -0.9463  0.0858
 3758TIP3    H132765   3.285   4.446  16.949  1.4246 -0.0875 -0.8222
 3758TIP3    H232766   3.208   4.574  16.975  0.6222 -0.6497 -0.4088
 3759TIP3   OH232767   3.282   2.457  15.544  0.7431 -0.5985 -0.3173
 3759TIP3    H132768   3.314   2.435  15.632 -1.8131 -1.5765  0.4660
 3759TIP3    H232769   3.251   2.547  15.552  0.8349 -0.5653 -0.3281
 3760TIP3   OH232770   5.405   6.308  14.486 -0.1446  0.1834  0.2475
 3760TIP3    H132771   5.380   6.326  14.577 -0.6697 -1.2499  0.4015
 3760TIP3    H232772   5.344   6.359  14.434 -1.5124 -0.9543  0.6748
 3761TIP3   OH232773   1.623   0.926  15.124 -0.1251 -0.2690  0.2504
 3761TIP3    H132774   1.674   0.975  15.059 -0.8294  0.1888  0.0284
 3761TIP3    H232775   1.548   0.983  15.142 -0.8596 -1.1788  0.1351
 3762TIP3   OH232776   1.344   1.336   0.095 -0.5967 -0.3223 -0.5558
 3762TIP3    H132777   1.254   1.353   0.068 -0.4440  0.5528 -0.5427
 3762TIP3    H232778   1.395   1.336   0.014 -0.5887 -0.7447 -0.5564
 3763TIP3   OH232779   0.034   0.248   0.762 -0.1807  0.1896  0.4494
 3763TIP3    H132780  -0.013   0.307   0.702 -1.6859 -0.1726  1.2109
 3763TIP3    H232781   0.055   0.171   0.709  0.5365  0.8107 -0.1840
 3764TIP3   OH232782   0.228   3.713  15.854 -0.4295 -0.3007  0.1340
 3764TIP3    H132783   0.321   3.725  15.877 -0.7556  2.3004  0.4332
 3764TIP3    H232784   0.230   3.663  15.773  1.3531  0.8134 -0.5862
 3765TIP3   OH232785   0.582   2.468  13.027 -0.0875  0.1680  0.0476
 3765TIP3    H132786   0.660   2.433  12.983  1.0837  2.6092  0.0575
 3765TIP3    H232787   0.512   2.409  13.000  1.5810 -1.5895 -0.6782
 3766TIP3   OH232788   1.655   0.114   1.679 -0.3392  0.6090  0.4323
 3766TIP3    H132789   1.650   0.058   1.601  1.7464  0.0115  0.6728
 3766TIP3    H232790   1.578   0.170   1.673 -0.6414  0.0574 -1.6581
 3767TIP3   OH232791   4.741   6.516   2.220  0.3342 -0.4337  0.4032
 3767TIP3    H132792   4.750   6.472   2.305  0.0675 -0.7069  0.2922
 3767TIP3    H232793   4.648   6.538   2.214  0.2458 -0.9022 -0.0524
 3768TIP3   OH232794   1.523   5.297  12.183 -0.4233 -0.3738 -0.1384
 3768TIP3    H132795   1.585   5.334  12.120  1.2591 -3.0259 -0.2070
 3768TIP3    H232796   1.525   5.358  12.257  0.1658  1.0240 -1.2588
 3769TIP3   OH232797   1.497   0.209   0.545 -0.5582  0.6206  0.2614
 3769TIP3    H132798   1.510   0.303   0.548  0.2473  0.5331 -0.2456
 3769TIP3    H232799   1.570   0.173   0.596  0.1267  0.2055 -0.9735
 3770TIP3   OH232800   4.528   4.777  13.259 -0.3579 -0.4508 -0.7237
 3770TIP3    H132801   4.618   4.808  13.245  0.8873  0.1795  5.5377
 3770TIP3    H232802   4.537   4.683  13.275  0.0652  0.0888  3.1868
 3771TIP3   OH232803   4.514   4.089   2.471 -0.1985  0.2157 -0.4278
 3771TIP3    H132804   4.588   4.093   2.410  2.2384  1.1889  2.3427
 3771TIP3    H232805   4.512   3.997   2.499 -0.2846  0.1130 -0.7591
 3772TIP3   OH232806   3.065   5.896  12.671 -0.5986 -0.2755 -0.2289
 3772TIP3    H132807   3.133   5.846  12.716 -1.0004 -0.7992 -0.1931
 3772TIP3    H232808   3.106   5.980  12.651 -0.4299  0.0043  1.1874
 3773TIP3   OH232809   6.410   3.040   4.336 -0.3267  0.1694 -0.3505
 3773TIP3    H132810   6.374   3.086   4.411 -0.9877 -1.8841  0.6722
 3773TIP3    H232811   6.488   3.089   4.312 -0.9854  1.7656  0.6645
 3774TIP3   OH232812   2.503   3.778   3.546 -0.3363 -0.6524 -0.2759
 3774TIP3    H132813   2.430   3.840   3.541 -0.1877 -0.4752 -0.2734
 3774TIP3    H232814   2.564   3.818   3.607 -0.1537 -0.7130 -0.4164
 3775TIP3   OH232815   6.155   1.301  15.526 -0.3086  0.2026 -0.3328
 3775TIP3    H132816   6.250   1.305  15.541 -0.6025 -2.6684  4.4661
 3775TIP3    H232817   6.118   1.365  15.587 -1.4594 -0.9100  0.1946
 3776TIP3   OH232818   1.190   2.645  12.698 -0.4168 -0.7530 -0.3854
 3776TIP3    H132819   1.160   2.644  12.789  2.1540  0.6707  0.5531
 3776TIP3    H232820   1.122   2.694  12.651  0.0112  1.9158  1.5562
 3777TIP3   OH232821   4.354   1.191   4.628  0.7775  0.3036  0.1672
 3777TIP3    H132822   4.421   1.212   4.693  0.7130  0.7940  0.0796
 3777TIP3    H232823   4.272   1.192   4.677  0.4631  2.7468 -0.2783
 3778TIP3   OH232824   3.001   6.142  14.100 -0.0401 -0.3275 -0.0264
 3778TIP3    H132825   3.047   6.080  14.044  0.7654 -0.9925  1.3386
 3778TIP3    H232826   2.973   6.091  14.176 -0.3166  0.7312  0.6115
 3779TIP3   OH232827   6.002   1.045  17.026 -0.0895 -0.6278 -0.2008
 3779TIP3    H132828   5.913   1.053  17.060 -0.0625  2.1122 -0.5147
 3779TIP3    H232829   5.991   1.041  16.931  0.1037  1.0666 -0.3288
 3780TIP3   OH232830   0.143   3.115  13.598 -0.0629 -0.1517 -0.0427
 3780TIP3    H132831   0.114   3.023  13.594  1.5123 -0.6481 -0.7318
 3780TIP3    H232832   0.074   3.163  13.551  0.7953 -1.4981 -2.9474
 3781TIP3   OH232833   6.732   2.604  13.608 -0.7075  0.0768  0.6707
 3781TIP3    H132834   6.797   2.611  13.678  1.0830  1.9268 -1.0358
 3781TIP3    H232835   6.737   2.512  13.580  0.2573 -0.1177  1.4167
 3782TIP3   OH232836   5.052   1.332   5.174 -0.2266 -0.1584 -0.7161
 3782TIP3    H132837   5.024   1.402   5.233  0.2998  0.1322 -0.8000
 3782TIP3    H232838   5.066   1.376   5.090  0.4269 -0.3010 -0.6878
 3783TIP3   OH232839   6.558   4.278  11.516  0.1974 -0.3464  0.3271
 3783TIP3    H132840   6.617   4.218  11.561 -0.1769  0.2505  1.7020
 3783TIP3    H232841   6.543   4.239  11.430  0.5692 -1.8037  0.9009
 3784TIP3   OH232842   3.770   6.384   4.951 -0.0741  0.5371 -0.3406
 3784TIP3    H132843   3.763   6.336   4.869  0.8613 -0.3948  0.1042
 3784TIP3    H232844   3.861   6.413   4.955  0.0529  0.0784  0.6059
 3785TIP3   OH232845   2.563   1.418   4.157 -0.3687 -0.6582 -0.4454
 3785TIP3    H132846   2.560   1.500   4.108  0.1115 -0.2730  0.1557
 3785TIP3    H232847   2.625   1.364   4.108 -0.4947 -0.5695 -0.7039
 3786TIP3   OH232848   2.929   4.067  12.793  0.6816  0.6595 -0.3644
 3786TIP3    H132849   2.875   3.991  12.773  2.7354 -1.1032  0.3746
 3786TIP3    H232850   2.954   4.101  12.707  0.6087 -0.1607 -0.7261
 3787TIP3   OH232851   6.137   1.700  16.660 -0.2472 -0.0441 -0.2015
 3787TIP3    H132852   6.055   1.652  16.642 -0.2949  0.4214 -1.2851
 3787TIP3    H232853   6.206   1.638  16.637 -0.3087  0.4472 -1.8140
 3788TIP3   OH232854   0.920   2.015  11.421  0.6660 -0.3901 -0.3768
 3788TIP3    H132855   0.948   2.068  11.345  3.2059 -0.6896  0.2437
 3788TIP3    H232856   0.972   2.050  11.494  0.5848 -2.1371  0.5569
 3789TIP3   OH232857   0.513   3.236   4.025  0.1230  0.2569 -0.0230
 3789TIP3    H132858   0.451   3.165   4.040  0.5407 -0.3855 -1.1558
 3789TIP3    H232859   0.527   3.236   3.930  1.0730  1.0435  0.0957
 3790TIP3   OH232860   4.349   3.684  15.201 -0.2201 -0.4255  0.3483
 3790TIP3    H132861   4.300   3.660  15.122 -1.2810  1.3498  0.3885
 3790TIP3    H232862   4.431   3.721  15.168 -0.6146  0.2107  0.0500
 3791TIP3   OH232863   6.441   2.504   3.583  0.1402  0.1745  0.1051
 3791TIP3    H132864   6.503   2.451   3.634  0.7622 -0.7659 -1.5679
 3791TIP3    H232865   6.393   2.553   3.649  1.1872 -0.6895  1.5855
 3792TIP3   OH232866   1.950   1.260   4.105  0.3098 -0.2511 -0.0294
 3792TIP3    H132867   1.889   1.333   4.113 -0.2869 -0.5913 -1.1866
 3792TIP3    H232868   2.013   1.273   4.175 -2.6014 -1.3883  3.0738
 3793TIP3   OH232869   1.476   0.708   3.873 -0.0351 -0.0601  0.1923
 3793TIP3    H132870   1.548   0.647   3.889  1.6422  1.3939 -1.2950
 3793TIP3    H232871   1.486   0.775   3.941  0.8841  0.8177 -0.7592
 3794TIP3   OH232872   1.170   0.598  14.333 -0.3768 -0.2993  0.0073
 3794TIP3    H132873   1.229   0.667  14.304  1.6157 -1.6117  0.7095
 3794TIP3    H232874   1.170   0.535  14.260  0.1822 -0.9205  0.5237
 3795TIP3   OH232875   0.962   5.237  12.592  0.4700  0.2319  0.3037
 3795TIP3    H132876   0.955   5.317  12.540  1.5495  0.2485  0.1506
 3795TIP3    H232877   0.977   5.168  12.527 -0.6199 -0.1306  0.4214
 3796TIP3   OH232878   1.353   3.430   2.329 -0.7393  0.1408 -0.3696
 3796TIP3    H132879   1.376   3.424   2.421  2.5636  1.5607 -0.9696
 3796TIP3    H232880   1.303   3.512   2.322 -0.0570  0.6044  0.0394
 3797TIP3   OH232881   1.994   6.653   4.279 -0.6421  0.2979  0.6332
 3797TIP3    H132882   1.961   6.741   4.262  0.9132  0.8694  0.3997
 3797TIP3    H232883   1.920   6.606   4.317 -1.8074  1.3915 -0.2134
 3798TIP3   OH232884   4.924   1.045  14.171  0.2124 -0.4848 -0.2013
 3798TIP3    H132885   4.836   1.063  14.204  1.1496  3.4978  0.7076
 3798TIP3    H232886   4.966   0.996  14.241 -0.3913  0.3724  0.8058
 3799TIP3   OH232887   5.031   4.719   3.209 -0.2703 -0.0653 -0.1268
 3799TIP3    H132888   5.032   4.778   3.284 -0.1356 -1.3557  0.9285
 3799TIP3    H232889   4.991   4.770   3.139  0.1816  1.3803  0.6374
 3800TIP3   OH232890   3.911   2.516   1.888 -0.0371 -0.0482 -0.4185
 3800TIP3    H132891   3.962   2.502   1.968 -0.6113 -1.1910 -0.2390
 3800TIP3    H232892   3.863   2.597   1.904  0.4242  0.1337  0.0777
 3801TIP3   OH232893   5.006   1.855  11.576  0.3157 -0.0045  0.4348
 3801TIP3    H132894   5.011   1.937  11.527 -0.3581 -1.3983 -2.1312
 3801TIP3    H232895   5.093   1.815  11.566 -0.0518 -0.6396 -0.2928
 3802TIP3   OH232896   1.242   4.787   5.451 -0.1021  0.7290 -0.3626
 3802TIP3    H132897   1.169   4.733   5.422  1.2873 -1.2133 -0.4726
 3802TIP3    H232898   1.202   4.858   5.501 -2.0502 -0.1776 -0.5568
 3803TIP3   OH232899   0.054   4.599  15.073  0.0559 -0.0794  0.0953
 3803TIP3    H132900   0.072   4.514  15.033 -0.7637  0.4622 -1.5040
 3803TIP3    H232901  -0.031   4.587  15.116  0.1619 -0.1979  0.2725
 3804TIP3   OH232902   1.869   0.687  13.715  0.0682  0.4398  0.1771
 3804TIP3    H132903   1.868   0.749  13.788  1.2609  1.0130 -0.2659
 3804TIP3    H232904   1.811   0.725  13.650  1.9306  1.9191 -0.7059
 3805TIP3   OH232905   5.912   5.346   2.320 -0.5143 -0.2004  0.0017
 3805TIP3    H132906   5.923   5.301   2.236 -1.1396  0.5581 -0.5005
 3805TIP3    H232907   5.885   5.277   2.381 -3.1002 -0.2762 -1.1226
 3806TIP3   OH232908   5.089   1.789  15.708 -0.1589 -0.4927  0.6248
 3806TIP3    H132909   5.093   1.832  15.622 -0.3766  0.5531  1.1197
 3806TIP3    H232910   5.009   1.822  15.748  0.9478  0.6291  2.0313
 3807TIP3   OH232911   2.184   4.098  16.275 -0.4738  0.2799 -0.3627
 3807TIP3    H132912   2.121   4.158  16.235 -0.4249  0.1858 -0.5824
 3807TIP3    H232913   2.177   4.018  16.222 -0.4221  0.1496 -0.1720
 3808TIP3   OH232914   5.421   4.014   4.830  0.2184 -0.3111 -0.4055
 3808TIP3    H132915   5.350   4.017   4.894  1.9998 -0.2661  1.7019
 3808TIP3    H232916   5.441   3.921   4.821  1.1966 -0.2222  0.6130
 3809TIP3   OH232917   3.004   5.677  16.550 -0.1260  0.3054  0.1854
 3809TIP3    H132918   2.998   5.630  16.467  0.2520 -0.8259  0.7719
 3809TIP3    H232919   2.969   5.764  16.531 -1.3725 -0.3724 -0.8187
 3810TIP3   OH232920   4.851   1.794  13.772 -0.4909 -0.2780 -0.6478
 3810TIP3    H132921   4.799   1.875  13.776  0.1137  0.1778 -1.4980
 3810TIP3    H232922   4.837   1.762  13.683 -1.0814 -1.3741 -0.1768
 3811TIP3   OH232923   2.947   3.472  11.910  0.1325 -0.9739 -0.2841
 3811TIP3    H132924   2.965   3.536  11.979 -0.0820 -0.3413 -0.8068
 3811TIP3    H232925   2.871   3.506  11.865  0.7319 -0.9743 -1.3202
 3812TIP3   OH232926   2.032   6.747   0.199  0.1576 -0.0087  0.0516
 3812TIP3    H132927   2.126   6.733   0.202 -0.0836 -1.8133  0.3043
 3812TIP3    H232928   2.015   6.812   0.267  1.2995  1.0552 -0.6355
 3813TIP3   OH232929   2.937   0.781  15.603 -0.2905  0.2259 -0.0234
 3813TIP3    H132930   2.867   0.725  15.567  0.8231 -0.6198 -0.9666
 3813TIP3    H232931   2.970   0.829  15.527  0.7611 -0.0639  0.2399
 3814TIP3   OH232932   4.396   1.358  14.524 -0.0428 -0.5775 -0.1279
 3814TIP3    H132933   4.422   1.430  14.467 -1.3654  1.4706  1.7049
 3814TIP3    H232934   4.301   1.357  14.520 -0.1677 -0.5400  1.7584
 3815TIP3   OH232935   4.461   4.656  15.164 -0.1851 -0.0833 -0.4490
 3815TIP3    H132936   4.502   4.580  15.207 -1.6798  0.1828  1.5885
 3815TIP3    H232937   4.492   4.731  15.215 -1.2353  0.3489 -0.4402
 3816TIP3   OH232938   6.527   6.825   1.025  0.4631  1.0602 -0.1184
 3816TIP3    H132939   6.533   6.742   0.978  0.3031  1.0834 -0.1804
 3816TIP3    H232940   6.580   6.811   1.104 -1.7857 -0.0980  1.3120
 3817TIP3   OH232941   4.109   3.722  14.780 -0.1286 -0.0827  0.1276
 3817TIP3    H132942   4.086   3.802  14.734 -0.0161  1.2914  2.2982
 3817TIP3    H232943   4.202   3.732  14.801  0.5295 -1.9263 -1.6451
 3818TIP3   OH232944   2.928   3.214  11.662 -0.5109  0.7519 -0.1667
 3818TIP3    H132945   2.978   3.135  11.640 -4.4311 -1.6026 -1.5734
 3818TIP3    H232946   2.918   3.260  11.579 -0.7543  1.1445  0.0775
 3819TIP3   OH232947   4.112   1.680   1.667 -0.0189 -0.5880 -0.6463
 3819TIP3    H132948   4.142   1.589   1.664  0.7396 -0.3085 -2.4811
 3819TIP3    H232949   4.051   1.682   1.742  0.9135 -2.2788  0.2266
 3820TIP3   OH232950   5.108   0.974   0.863 -0.3710 -0.8948 -0.6418
 3820TIP3    H132951   5.100   0.955   0.769 -0.7951  1.2792 -1.1044
 3820TIP3    H232952   5.040   0.921   0.904 -0.5926 -1.4131 -1.6357
 3821TIP3   OH232953   0.233   2.245   3.797  0.3019  0.2405  0.1359
 3821TIP3    H132954   0.325   2.272   3.790  0.5327 -0.9303 -3.4595
 3821TIP3    H232955   0.233   2.178   3.865  2.0004  0.6651  0.6018
 3822TIP3   OH232956   0.021   3.537  12.257 -0.3912 -0.6018  0.1586
 3822TIP3    H132957   0.083   3.576  12.318  0.1480  1.8387 -1.7579
 3822TIP3    H232958  -0.064   3.546  12.300  0.2412 -1.4531  1.6461
 3823TIP3   OH232959   1.045   4.416   5.167  0.1312 -0.0131  0.2499
 3823TIP3    H132960   1.016   4.502   5.134 -0.2820  0.2762  1.3330
 3823TIP3    H232961   0.988   4.398   5.242  0.8746 -0.7710  0.6532
 3824TIP3   OH232962   1.695   2.483   6.271  0.1349  0.0509  0.3172
 3824TIP3    H132963   1.787   2.458   6.264  0.0962  0.3234 -1.8216
 3824TIP3    H232964   1.677   2.481   6.365  2.9122  2.1513  1.0290
 3825TIP3   OH232965   2.223   3.867   3.823  0.1053  0.4748 -0.3142
 3825TIP3    H132966   2.304   3.895   3.780  0.3047  2.3475  1.1080
 3825TIP3    H232967   2.251   3.799   3.884  0.3536  0.0444 -0.9068
 3826TIP3   OH232968   4.080   5.124  15.914 -0.0380  0.2954 -0.0144
 3826TIP3    H132969   4.078   5.084  16.001 -0.4970 -0.2775 -0.2840
 3826TIP3    H232970   4.065   5.217  15.930  3.3976  0.8369  0.8774
 3827TIP3   OH232971   1.048   1.673  15.388  0.2776  0.1280 -0.7733
 3827TIP3    H132972   1.122   1.683  15.447  0.7185  0.5590 -1.3866
 3827TIP3    H232973   1.053   1.581  15.359 -1.0986 -0.6833  1.3456
 3828TIP3   OH232974   4.119   3.693   2.223  0.1676 -0.1106 -0.6228
 3828TIP3    H132975   4.106   3.606   2.184  2.3580 -0.9095  0.2874
 3828TIP3    H232976   4.206   3.719   2.195  0.4497  0.7744  0.9974
 3829TIP3   OH232977   6.678   3.467   4.512  0.4277  0.4877 -0.1705
 3829TIP3    H132978   6.756   3.444   4.461 -0.1537 -0.8154 -0.5119
 3829TIP3    H232979   6.694   3.431   4.599 -0.3853 -1.0816 -0.6407
 3830TIP3   OH232980   0.096   0.149  15.207 -0.1639 -0.5728  0.0892
 3830TIP3    H132981   0.045   0.081  15.253  4.0597 -1.0568  4.9856
 3830TIP3    H232982   0.145   0.101  15.141  0.1462 -1.7105  1.0964
 3831TIP3   OH232983   5.750   2.228  15.521  0.0029 -0.3751 -0.2805
 3831TIP3    H132984   5.789   2.158  15.469 -1.8087 -1.9391  0.3038
 3831TIP3    H232985   5.659   2.200  15.533 -0.5651  1.6944  0.7085
 3832TIP3   OH232986   4.659   3.231   4.384 -0.0971  0.5513 -0.5676
 3832TIP3    H132987   4.711   3.281   4.322  0.1750 -0.0672 -0.8437
 3832TIP3    H232988   4.663   3.141   4.353 -0.2879  0.2939  0.1190
 3833TIP3   OH232989   4.952   2.731   3.403 -0.0784  0.3352 -0.1836
 3833TIP3    H132990   4.940   2.672   3.477 -2.8161  0.6989 -0.2279
 3833TIP3    H232991   4.974   2.815   3.441 -1.9817  0.6469  0.3250
 3834TIP3   OH232992   1.644   1.274  12.270 -0.3489  0.6298  0.0083
 3834TIP3    H132993   1.597   1.345  12.226 -1.9227  0.5117  1.3660
 3834TIP3    H232994   1.580   1.202  12.273 -0.2662  0.5732  2.2276
 3835TIP3   OH232995   1.306   0.646   5.850  0.2295  0.4575 -0.0363
 3835TIP3    H132996   1.318   0.700   5.928 -2.0641  0.8727  0.0829
 3835TIP3    H232997   1.241   0.693   5.798  0.1590 -0.8654 -1.2122
 3836TIP3   OH232998   5.214   2.500  16.612  0.6239  0.2503  0.3776
 3836TIP3    H132999   5.180   2.413  16.630  1.8002 -0.7655 -1.9430
 3836TIP3    H233000   5.267   2.521  16.689 -0.4870 -0.6098  1.4103
 3837TIP3   OH233001   4.123   0.642  16.585  1.4199 -0.0504 -0.7454
 3837TIP3    H133002   4.062   0.586  16.538  1.3439  0.0970 -0.8216
 3837TIP3    H233003   4.184   0.582  16.627  0.4234 -0.2690  0.4462
 3838TIP3   OH233004   5.849   2.824   5.821  0.0779 -0.4732 -0.4849
 3838TIP3    H133005   5.915   2.846   5.756  0.6343 -1.1072 -0.1462
 3838TIP3    H233006   5.899   2.798   5.899 -0.5488 -1.3492 -0.3500
 3839TIP3   OH233007   5.654   0.233   6.611 -0.4212 -0.0778 -0.4896
 3839TIP3    H133008   5.650   0.137   6.617  1.2900 -0.1871 -0.6598
 3839TIP3    H233009   5.581   0.256   6.554 -1.2786 -1.2132  0.0974
 3840TIP3   OH233010   5.003   3.394  16.196 -0.2877 -0.4033 -0.1988
 3840TIP3    H133011   5.038   3.446  16.269  1.5692  0.9168 -1.9290
 3840TIP3    H233012   5.015   3.304  16.224  1.1316  0.0596  0.8419
 3841TIP3   OH233013   1.845   2.486  16.569 -0.0672  0.4072  0.0600
 3841TIP3    H133014   1.763   2.534  16.554 -0.3435  0.2131  0.9183
 3841TIP3    H233015   1.885   2.530  16.644  1.0929  1.0954 -0.9294
 3842TIP3   OH233016   5.272   0.840   3.712 -0.0374 -0.0699  0.0626
 3842TIP3    H133017   5.179   0.821   3.722 -0.5714  0.9720 -2.3649
 3842TIP3    H233018   5.294   0.811   3.623  1.9457 -0.1737  0.5263
 3843TIP3   OH233019   6.311   0.791  15.592  0.0323  0.1115 -0.4626
 3843TIP3    H133020   6.229   0.796  15.640  0.0313  1.3958 -0.5644
 3843TIP3    H233021   6.312   0.869  15.537  0.9229 -0.3323 -1.1113
 3844TIP3   OH233022   5.401   6.773   1.460  0.2186  0.1316 -0.2343
 3844TIP3    H133023   5.341   6.707   1.427 -0.4220  1.1627 -1.2132
 3844TIP3    H233024   5.355   6.811   1.535  1.2894 -1.5954  1.3844
 3845TIP3   OH233025   0.434   1.583  13.486  0.4288 -0.1331 -0.1657
 3845TIP3    H133026   0.499   1.650  13.466  0.5377 -0.3369 -0.5084
 3845TIP3    H233027   0.399   1.608  13.571  0.2087  0.5606 -0.4537
 3846TIP3   OH233028   5.432   3.543  12.868 -0.4864 -0.1020 -0.2319
 3846TIP3    H133029   5.499   3.494  12.820  1.1546  1.9067 -0.1364
 3846TIP3    H233030   5.349   3.504  12.840  0.5194 -0.5695 -2.8682
 3847TIP3   OH233031   3.558   3.976  12.105  0.1487 -0.4779 -0.1779
 3847TIP3    H133032   3.551   3.992  12.011 -1.5828 -0.6326 -0.0988
 3847TIP3    H233033   3.618   3.901  12.111  1.3621  0.3655 -1.0397
 3848TIP3   OH233034   1.915   1.332  13.317  0.3334  0.0308  0.5901
 3848TIP3    H133035   1.951   1.416  13.345 -2.2312  2.3908 -2.5609
 3848TIP3    H233036   1.962   1.311  13.237  0.7545 -1.5063  1.1948
 3849TIP3   OH233037   1.945   6.441   0.277  0.1156  0.5407 -0.3986
 3849TIP3    H133038   1.851   6.451   0.291  0.7499  2.4567  4.5002
 3849TIP3    H233039   1.968   6.513   0.218 -1.5061 -0.8420 -2.9143
 3850TIP3   OH233040   0.861   4.756   3.602 -0.5615  0.2090 -0.0795
 3850TIP3    H133041   0.876   4.701   3.525 -0.5216 -0.7419  0.5901
 3850TIP3    H233042   0.928   4.728   3.665 -0.0880  1.5251  0.0249
 3851TIP3   OH233043   3.091   1.250   1.229 -0.0640 -0.1158 -0.7178
 3851TIP3    H133044   3.108   1.160   1.201 -1.2589  0.0442 -2.0753
 3851TIP3    H233045   3.146   1.304   1.172  1.3565  0.0121  0.7069
 3852TIP3   OH233046   3.474   2.362   2.560 -0.8509 -0.2371 -0.0382
 3852TIP3    H133047   3.560   2.368   2.519 -0.0237 -0.3715  1.6003
 3852TIP3    H233048   3.457   2.269   2.569 -1.1722 -0.2112 -0.3552
 3853TIP3   OH233049   2.548   5.936  12.986 -0.1074  0.3013  0.6532
 3853TIP3    H133050   2.469   5.990  12.985  0.3583  0.9963  0.4042
 3853TIP3    H233051   2.620   5.998  12.997  0.6014 -0.0319 -1.4974
 3854TIP3   OH233052   3.506   2.635   1.760 -0.2867 -0.7896  0.3659
 3854TIP3    H133053   3.491   2.629   1.854  1.0740 -0.6066  0.6122
 3854TIP3    H233054   3.596   2.668   1.752 -0.8419  0.5123 -0.9961
 3855TIP3   OH233055   3.208   2.254   0.490  0.4259 -0.3898  0.2196
 3855TIP3    H133056   3.251   2.182   0.536 -0.9124 -0.4274  1.4886
 3855TIP3    H233057   3.280   2.315   0.469  1.2574 -1.0021  1.1984
 3856TIP3   OH233058   4.913   6.471  13.179 -0.1184  0.3088 -0.4403
 3856TIP3    H133059   4.999   6.471  13.136  1.5572 -1.1666  2.5673
 3856TIP3    H233060   4.859   6.529  13.125  1.9967 -0.5926 -3.8386
 3857TIP3   OH233061   2.551   0.214  14.583  0.3256 -0.4220 -0.1218
 3857TIP3    H133062   2.635   0.236  14.625  0.3069  0.8077 -0.6678
 3857TIP3    H233063   2.560   0.248  14.494 -0.8781  0.0488 -0.0849
 3858TIP3   OH233064   5.948   5.719   5.382  0.3839 -0.1139 -0.2000
 3858TIP3    H133065   5.966   5.642   5.330 -1.6518  0.5334 -2.0200
 3858TIP3    H233066   6.023   5.776   5.368  0.2935 -0.3366 -1.7493
 3859TIP3   OH233067   2.162   1.415   5.706  0.2068 -0.0658  0.0365
 3859TIP3    H133068   2.092   1.385   5.764 -2.6490  1.5395 -2.3271
 3859TIP3    H233069   2.151   1.365   5.626  2.8323 -0.8401  0.0526
 3860TIP3   OH233070   1.174   2.403  11.032  0.1360  0.2993 -0.2414
 3860TIP3    H133071   1.147   2.445  11.114 -0.8251 -1.2175  0.2416
 3860TIP3    H233072   1.254   2.450  11.007  1.9787 -0.8304  2.9345
 3861TIP3   OH233073   6.671   0.174  12.983 -1.0369  0.0950  0.0316
 3861TIP3    H133074   6.590   0.145  12.941 -0.2416 -0.2928 -1.2863
 3861TIP3    H233075   6.660   0.268  12.995 -2.6722 -0.3038  2.1609
 3862TIP3   OH233076   2.594   3.786  10.997 -0.3537  0.7587 -0.0040
 3862TIP3    H133077   2.529   3.809  11.063 -2.0775 -0.6433 -1.1159
 3862TIP3    H233078   2.563   3.826  10.916  1.3841  1.9082 -0.1715
 3863TIP3   OH233079   5.300   6.016   4.627  0.3337 -0.7211 -0.5273
 3863TIP3    H133080   5.336   6.012   4.538 -0.6969 -1.4771 -0.9362
 3863TIP3    H233081   5.370   5.983   4.683  1.2025  0.2923 -0.9718
 3864TIP3   OH233082   0.341   1.508  12.739 -0.2613  0.3266  0.0521
 3864TIP3    H133083   0.317   1.531  12.829 -1.2099 -0.9753  0.1686
 3864TIP3    H233084   0.362   1.591  12.697  1.6883  0.8170  1.8797
 3865TIP3   OH233085   3.781   0.503  14.334 -0.0293  0.3300 -0.0631
 3865TIP3    H133086   3.725   0.580  14.342 -0.9502 -0.3438  0.0177
 3865TIP3    H233087   3.863   0.537  14.299 -0.3828  1.3675  0.0935
 3866TIP3   OH233088   2.458   6.706   4.584 -0.1996  0.2364  0.1221
 3866TIP3    H133089   2.370   6.739   4.600  0.0431  1.2961 -0.6359
 3866TIP3    H233090   2.446   6.613   4.565 -0.9682 -0.0045  1.6576
 3867TIP3   OH233091   1.231   5.819  14.324  0.1161  0.1879  0.3493
 3867TIP3    H133092   1.225   5.724  14.320 -1.2331  0.2710 -0.2573
 3867TIP3    H233093   1.173   5.845  14.395 -0.1615  0.5933 -0.0139
 3868TIP3   OH233094   3.654   0.686  15.774 -0.7945 -0.4269 -0.0072
 3868TIP3    H133095   3.621   0.752  15.836  2.4750  1.0299  0.3943
 3868TIP3    H233096   3.739   0.660  15.810 -0.0262 -1.6113 -2.4698
 3869TIP3   OH233097   0.518   2.437   1.853  0.6259 -0.3594  0.2782
 3869TIP3    H133098   0.471   2.359   1.882 -0.9662  0.6705  0.6363
 3869TIP3    H233099   0.597   2.440   1.909  0.4086 -1.3863  0.6531
 3870TIP3   OH233100   4.954   3.803  13.841 -0.4861 -0.4369  1.1868
 3870TIP3    H133101   4.865   3.769  13.849 -0.1892 -1.2927  0.8639
 3870TIP3    H233102   5.002   3.763  13.914  0.0565 -1.3389  0.3495
 3871TIP3   OH233103   0.655   4.860   5.057  0.4633 -1.4831 -0.7577
 3871TIP3    H133104   0.700   4.921   5.115 -1.4868 -1.1256  0.4917
 3871TIP3    H233105   0.611   4.799   5.117 -2.6357 -0.3767 -1.7168
 3872TIP3   OH233106   1.519   5.171  16.259 -0.2743  0.0867  0.1405
 3872TIP3    H133107   1.472   5.131  16.333  1.5332 -1.2170  0.6341
 3872TIP3    H233108   1.610   5.172  16.286  0.5428 -0.9949 -2.3318
 3873TIP3   OH233109   0.122   6.554  11.327 -0.1208  0.9027 -0.0601
 3873TIP3    H133110   0.081   6.508  11.254 -0.3932  1.5045 -0.2998
 3873TIP3    H233111   0.203   6.590  11.290  0.2753  0.3105  0.2248
 3874TIP3   OH233112   2.959   4.274  11.987  0.3982  0.0851 -0.6346
 3874TIP3    H133113   2.882   4.331  11.990  0.5576  0.2577  1.2148
 3874TIP3    H233114   2.968   4.251  11.894  0.1682  2.8539 -1.4290
 3875TIP3   OH233115   0.045   5.022  15.476 -0.6472  0.4741  0.2395
 3875TIP3    H133116   0.096   5.103  15.464  1.1842 -0.3813  1.6765
 3875TIP3    H233117  -0.045   5.052  15.486 -0.0919  2.3021  0.1977
 3876TIP3   OH233118   4.378   4.010  12.262 -0.7005 -0.2674  0.3135
 3876TIP3    H133119   4.335   4.044  12.340 -0.0505 -3.0010  1.9743
 3876TIP3    H233120   4.471   4.017  12.280 -0.5312 -0.5420 -0.4080
 3877TIP3   OH233121   4.812   1.716   0.616 -0.1711  0.3229  0.7001
 3877TIP3    H133122   4.841   1.676   0.698 -0.5744 -0.7086  0.3612
 3877TIP3    H233123   4.739   1.662   0.587  0.3692  0.2652 -0.6624
 3878TIP3   OH233124   1.525   5.488   4.558 -0.2845 -0.0669 -0.2938
 3878TIP3    H133125   1.589   5.424   4.528  0.1837  0.0637  0.4115
 3878TIP3    H233126   1.532   5.486   4.654 -2.0279 -0.7770 -0.1446
 3879TIP3   OH233127   6.818   0.773  15.010  0.9526 -0.4440  0.4567
 3879TIP3    H133128   6.816   0.824  15.091  0.0191 -0.0926  0.2274
 3879TIP3    H233129   6.788   0.686  15.036 -2.9297  0.5498 -0.0469
 3880TIP3   OH233130   4.205   3.840  17.057  0.1746 -0.0404  0.7985
 3880TIP3    H133131   4.261   3.839  16.979 -1.5258  1.0042 -0.4972
 3880TIP3    H233132   4.200   3.748  17.084  4.0731 -0.0335  2.2388
 3881TIP3   OH233133   2.305   0.568  14.446  0.0722  0.1064 -0.1625
 3881TIP3    H133134   2.305   0.638  14.380 -0.6463 -0.9044 -1.2786
 3881TIP3    H233135   2.363   0.601  14.515  1.0603  1.1132 -1.4047
 3882TIP3   OH233136   5.724   1.310   1.315  0.4637  1.0468  0.5874
 3882TIP3    H133137   5.773   1.379   1.360 -0.3489  1.2763  1.1362
 3882TIP3    H233138   5.777   1.231   1.328  0.8569  1.3553  0.8881
 3883TIP3   OH233139   0.910   4.001  13.161 -0.5366 -0.4168  0.3817
 3883TIP3    H133140   0.942   3.924  13.114 -0.0251  0.4398 -0.7232
 3883TIP3    H233141   0.886   4.063  13.092 -0.7449  0.4872  1.2462
 3884TIP3   OH233142   0.818   3.394  13.143  0.0346  0.8285  0.0579
 3884TIP3    H133143   0.769   3.312  13.146  0.0293  0.8409  0.3144
 3884TIP3    H233144   0.887   3.383  13.209  1.2450  0.2635 -1.2558
 3885TIP3   OH233145   5.691   1.432   4.637  0.1023 -0.0141 -0.4836
 3885TIP3    H133146   5.646   1.505   4.680  2.5572  0.9363  0.6863
 3885TIP3    H233147   5.696   1.364   4.704  0.9296  0.1408 -0.3771
 3886TIP3   OH233148   0.672   3.383  16.471  0.0568  0.9901 -0.0728
 3886TIP3    H133149   0.576   3.376  16.479  0.1987 -2.1932 -0.1836
 3886TIP3    H233150   0.690   3.366  16.378  0.7899  1.0808  0.0468
 3887TIP3   OH233151   5.255   4.608   1.537  0.1221  0.4514  0.5096
 3887TIP3    H133152   5.285   4.536   1.593  0.3381  0.3722  0.2924
 3887TIP3    H233153   5.196   4.659   1.593 -0.9292 -0.5220  0.3345
 3888TIP3   OH233154   6.623   1.970  10.172  0.2232  0.2974 -0.1109
 3888TIP3    H133155   6.598   2.055  10.135  0.2752  0.4964  0.3050
 3888TIP3    H233156   6.678   1.991  10.247 -0.4660 -0.0783  0.5185
 3889TIP3   OH233157   5.458   1.196   0.489  0.0815 -0.1794  0.1277
 3889TIP3    H133158   5.436   1.109   0.456  0.6369 -0.3916  0.2979
 3889TIP3    H233159   5.381   1.223   0.539 -1.0620  0.4344 -1.8396
 3890TIP3   OH233160   5.309   0.849   6.116  0.1084  0.5990  0.0110
 3890TIP3    H133161   5.401   0.848   6.091 -0.0357  0.5104 -0.5251
 3890TIP3    H233162   5.307   0.803   6.200  0.4689  0.0297 -0.2847
 3891TIP3   OH233163   0.335   5.959  10.743  0.0330  0.7172 -0.0193
 3891TIP3    H133164   0.294   6.018  10.680  0.2032 -0.8728 -1.6887
 3891TIP3    H233165   0.424   5.947  10.711  0.9057  1.7290  1.8816
 3892TIP3   OH233166   0.239   1.146  12.421  0.0270 -0.1117  0.6581
 3892TIP3    H133167   0.193   1.083  12.476  2.4759 -1.7700  0.9581
 3892TIP3    H233168   0.256   1.100  12.340 -0.8506  1.2888 -0.3776
 3893TIP3   OH233169   4.209   0.616  16.854 -0.2481 -0.0721 -0.0139
 3893TIP3    H133170   4.168   0.700  16.874 -0.3569 -0.4397  1.3573
 3893TIP3    H233171   4.138   0.552  16.862 -0.2223 -0.2996 -1.2812
 3894TIP3   OH233172   6.021   6.561  14.987  0.0262  0.3022 -0.0026
 3894TIP3    H133173   5.956   6.535  14.921  1.8180 -1.4012 -1.2140
 3894TIP3    H233174   5.983   6.638  15.029 -2.9001 -0.7804 -0.4135
 3895TIP3   OH233175   5.817   6.028  13.813  0.0080  0.1897 -0.1473
 3895TIP3    H133176   5.781   5.939  13.807 -0.7943  0.5741 -1.3493
 3895TIP3    H233177   5.782   6.063  13.895  1.3700 -1.0163  1.0119
 3896TIP3   OH233178   3.232   6.821   3.577  0.0813  0.1386  0.0188
 3896TIP3    H133179   3.224   6.894   3.516  2.3884 -1.2026 -2.0567
 3896TIP3    H233180   3.232   6.863   3.664 -1.2049  2.3073 -0.9468
 3897TIP3   OH233181   0.564   5.165  13.526  0.3560  0.3690  0.1197
 3897TIP3    H133182   0.537   5.119  13.447 -0.4238  1.7358 -0.4474
 3897TIP3    H233183   0.611   5.099  13.577  0.5572 -0.6389 -1.3019
 3898TIP3   OH233184   3.263   6.706   6.823 -0.8020 -0.1416  0.2686
 3898TIP3    H133185   3.247   6.792   6.784 -1.2367  0.0214  0.7918
 3898TIP3    H233186   3.222   6.644   6.762  0.9678 -0.1522 -1.0086
 3899TIP3   OH233187   5.060   3.881   1.338 -0.4760  0.9521 -0.1063
 3899TIP3    H133188   4.972   3.898   1.373 -0.7877  1.0433 -0.9152
 3899TIP3    H233189   5.045   3.825   1.262  0.2368  0.3286  0.1971
 3900TIP3   OH233190   4.505   5.530   1.814  0.0903  0.3586  0.3517
 3900TIP3    H133191   4.478   5.438   1.812  0.9438 -0.0057  2.5865
 3900TIP3    H233192   4.451   5.570   1.882  1.0613  1.0213  0.7628
 3901TIP3   OH233193   1.687   1.402   4.176  0.1299  0.2863  0.3971
 3901TIP3    H133194   1.650   1.384   4.090  0.3531 -0.7575  0.5050
 3901TIP3    H233195   1.721   1.491   4.169  0.2712  0.1657 -0.6434
 3902TIP3   OH233196   5.776   3.439   1.634  0.1415  0.0245  0.5488
 3902TIP3    H133197   5.730   3.365   1.595  0.4762  0.1125 -0.0353
 3902TIP3    H233198   5.732   3.454   1.717 -0.7777  0.0142  0.0735
 3903TIP3   OH233199   3.451   6.000  12.704  0.6292  0.2850 -0.0975
 3903TIP3    H133200   3.520   5.975  12.764  2.3565  1.7339 -1.3543
 3903TIP3    H233201   3.476   5.962  12.620 -1.4349 -1.2352 -0.1053
 3904TIP3   OH233202   5.208   1.097  13.833  0.0768  0.0048  0.1973
 3904TIP3    H133203   5.184   1.175  13.883 -0.6424  0.1859 -0.4069
 3904TIP3    H233204   5.298   1.078  13.860 -0.3632 -0.0583  1.7328
 3905TIP3   OH233205   1.021   4.131  12.835 -0.2361 -0.0281 -0.2024
 3905TIP3    H133206   1.115   4.120  12.848 -0.5720 -2.1578  0.8772
 3905TIP3    H233207   1.005   4.092  12.749 -0.0913  0.6891 -0.5599
 3906TIP3   OH233208   1.374   4.001   0.771 -0.3803  0.2002 -0.6739
 3906TIP3    H133209   1.366   3.905   0.769 -0.9704  0.2482 -2.1821
 3906TIP3    H233210   1.286   4.032   0.790 -0.2208  0.4523 -0.3411
 3907TIP3   OH233211   2.201   2.219   1.058  0.7332  0.4230 -0.0122
 3907TIP3    H133212   2.136   2.211   0.988 -0.5071 -0.1363  1.1504
 3907TIP3    H233213   2.284   2.193   1.017  0.2118  1.0082 -1.4975
 3908TIP3   OH233214   5.765   1.996   3.103 -0.3299 -0.2689  0.2575
 3908TIP3    H133215   5.845   2.047   3.117 -0.3075  0.4206 -1.8645
 3908TIP3    H233216   5.778   1.915   3.152  0.7220  0.7363  1.6942
 3909TIP3   OH233217   1.553   4.619  12.838 -0.2904 -0.1479  0.2176
 3909TIP3    H133218   1.541   4.643  12.930 -2.4053 -1.2428  0.2733
 3909TIP3    H233219   1.501   4.683  12.789 -2.0404 -1.5861  0.0696
 3910TIP3   OH233220   5.328   2.022   4.639  0.1919  0.1627  0.2232
 3910TIP3    H133221   5.412   1.983   4.614  0.0581 -1.7552  2.4905
 3910TIP3    H233222   5.318   2.096   4.579  3.8720  0.9847  0.3736
 3911TIP3   OH233223   1.538   2.185   1.869 -0.7427 -0.4551 -0.7471
 3911TIP3    H133224   1.508   2.173   1.959  0.2627 -0.2983 -0.3689
 3911TIP3    H233225   1.463   2.221   1.822 -0.7413  1.3394  0.4988
 3912TIP3   OH233226   6.206   5.318   3.294  0.4447  0.0316 -0.3805
 3912TIP3    H133227   6.143   5.388   3.310 -0.1203  0.5009 -3.9357
 3912TIP3    H233228   6.164   5.240   3.331 -1.1349  0.7578 -0.5609
 3913TIP3   OH233229   5.598   2.124   2.469  0.5018  0.5143  0.0020
 3913TIP3    H133230   5.579   2.042   2.514 -0.7838  0.0145 -1.3636
 3913TIP3    H233231   5.567   2.110   2.379  1.2913  2.1067 -0.5572
 3914TIP3   OH233232   3.927   4.172   0.449  0.5845  0.2577 -0.6687
 3914TIP3    H133233   3.986   4.247   0.462  0.4416  0.4339 -1.0226
 3914TIP3    H233234   3.882   4.192   0.367 -1.6009  1.2341  0.7001
 3915TIP3   OH233235   1.875   4.415   0.818 -0.3637 -0.1808  0.0551
 3915TIP3    H133236   1.810   4.353   0.850 -1.8495  0.5755 -1.3291
 3915TIP3    H233237   1.948   4.360   0.789 -0.9154 -1.1480  0.4335
 3916TIP3   OH233238   4.141   0.177   1.587  0.3338  0.0358  0.2712
 3916TIP3    H133239   4.087   0.107   1.551 -1.4791  0.4517  2.0356
 3916TIP3    H233240   4.162   0.232   1.511  0.6598 -1.6317 -0.9107
 3917TIP3   OH233241   1.280   6.369  13.691  0.9553  0.1478 -0.2695
 3917TIP3    H133242   1.282   6.342  13.783  0.0710  0.2278 -0.2155
 3917TIP3    H233243   1.207   6.319  13.654  1.6103 -0.2374 -1.0416
 3918TIP3   OH233244   1.321   5.858   0.284 -0.7812  0.0105 -0.0062
 3918TIP3    H133245   1.347   5.807   0.360  0.4520  0.7063  0.0557
 3918TIP3    H233246   1.400   5.864   0.230 -1.3006  0.5956 -0.7313
 3919TIP3   OH233247   6.399   1.676   1.026 -0.2426  0.2839  0.0483
 3919TIP3    H133248   6.417   1.759   0.981  0.1194  0.8533  1.2206
 3919TIP3    H233249   6.305   1.679   1.045 -0.5691 -0.3076 -1.3104
 3920TIP3   OH233250   3.830   2.739   6.122  0.1696  0.4574  0.1346
 3920TIP3    H133251   3.858   2.829   6.137 -2.0347  1.6977 -2.3722
 3920TIP3    H233252   3.831   2.699   6.209  1.1099  2.9072  1.3428
 3921TIP3   OH233253   4.311   0.131  14.115 -0.2196 -0.4738  0.0572
 3921TIP3    H133254   4.307   0.184  14.035 -0.6829 -1.1023 -0.3472
 3921TIP3    H233255   4.233   0.155  14.165 -1.7456 -2.4078 -1.2085
 3922TIP3   OH233256   6.210   0.104  10.879 -0.1907 -0.0166 -0.3212
 3922TIP3    H133257   6.204   0.139  10.968  1.2831 -1.5804  0.4605
 3922TIP3    H233258   6.134   0.140  10.834  0.1528  2.4994  0.9452
 3923TIP3   OH233259   0.251   3.233  12.744  0.9701 -0.3885 -0.3204
 3923TIP3    H133260   0.196   3.298  12.701 -0.3591 -0.2177  1.4954
 3923TIP3    H233261   0.193   3.158  12.759  1.7907 -1.0091 -0.1712
 3924TIP3   OH233262   1.241   2.770  15.250 -0.0517 -0.3098  0.1359
 3924TIP3    H133263   1.154   2.740  15.227  0.7582 -2.0570 -0.7921
 3924TIP3    H233264   1.292   2.763  15.169  1.2490 -0.4733  0.9356
 3925TIP3   OH233265   3.139   2.094   2.348  0.0592 -0.1641  0.0792
 3925TIP3    H133266   3.053   2.107   2.388  0.4131 -0.7727  1.0847
 3925TIP3    H233267   3.144   2.160   2.279 -1.5067 -0.5984 -0.5040
 3926TIP3   OH233268   2.242   3.936   4.827 -0.1719 -0.2426  0.4669
 3926TIP3    H133269   2.318   3.943   4.885 -1.1064  1.2944  1.6122
 3926TIP3    H233270   2.261   3.997   4.756  0.2632 -0.8957  0.0219
 3927TIP3   OH233271   3.322   0.773  15.596 -0.3460 -0.2383 -0.4927
 3927TIP3    H133272   3.293   0.720  15.670 -1.0268  1.4694  0.5137
 3927TIP3    H233273   3.292   0.726  15.519 -2.1795 -0.6240  0.4108
 3928TIP3   OH233274   6.027   0.721  10.065 -0.8188 -0.1366  0.1364
 3928TIP3    H133275   5.945   0.763  10.089 -1.2004 -1.4800  1.2912
 3928TIP3    H233276   6.074   0.788  10.014 -1.8495  1.2705  0.9654
 3929TIP3   OH233277   5.806   3.293   4.501  0.0954  0.0656  0.3521
 3929TIP3    H133278   5.766   3.211   4.474  0.0593  0.4494 -0.8044
 3929TIP3    H233279   5.773   3.358   4.439 -0.7502  1.1843  1.8926
 3930TIP3   OH233280   2.609   2.015   1.781 -0.4484  0.0948  0.4689
 3930TIP3    H133281   2.687   1.990   1.731 -0.0800 -1.0693  1.5522
 3930TIP3    H233282   2.578   1.933   1.820 -2.0862  0.5748  0.2700
 3931TIP3   OH233283   5.760   1.547  17.044  0.0467  0.2383 -0.4071
 3931TIP3    H133284   5.689   1.584  16.990  1.0100  1.2168 -1.0386
 3931TIP3    H233285   5.776   1.613  17.111 -0.9304 -0.8409  0.9499
 3932TIP3   OH233286   1.040   0.228   4.979  0.2727 -0.3854 -0.6440
 3932TIP3    H133287   1.015   0.234   5.072  1.0650 -2.3663 -0.2509
 3932TIP3    H233288   1.122   0.276   4.973  1.5123 -2.2718  0.2700
 3933TIP3   OH233289   1.344   1.690   6.015 -0.3361 -0.0394 -0.3996
 3933TIP3    H133290   1.294   1.678   6.096 -0.4828 -1.8503 -0.7111
 3933TIP3    H233291   1.287   1.743   5.959 -0.2106  1.2783  0.6642
 3934TIP3   OH233292   0.619   4.699   3.188  0.1363 -0.2351 -0.2660
 3934TIP3    H133293   0.669   4.624   3.158 -1.7291 -1.2365 -1.0285
 3934TIP3    H233294   0.571   4.667   3.265  1.3056  0.9730  1.0374
 3935TIP3   OH233295   1.046   4.943  12.086  0.4939  0.3638 -0.0106
 3935TIP3    H133296   0.962   4.916  12.049  0.3947  0.6998 -0.0282
 3935TIP3    H233297   1.048   4.902  12.173  0.5038  0.0000 -0.1782
 3936TIP3   OH233298   0.753   6.487   0.599 -0.0127  0.2225 -0.1210
 3936TIP3    H133299   0.728   6.578   0.584 -2.1333 -0.2113  0.4280
 3936TIP3    H233300   0.670   6.440   0.605  1.0257 -1.7822 -0.5117
 3937TIP3   OH233301   4.172   3.397  15.062  0.0737 -0.1763  0.2035
 3937TIP3    H133302   4.248   3.451  15.042  0.2834 -0.4194  0.3262
 3937TIP3    H233303   4.097   3.456  15.056 -0.2290 -0.7083 -3.7216
 3938TIP3   OH233304   2.617   1.895   0.135  0.1316  0.3406 -0.3104
 3938TIP3    H133305   2.614   1.880   0.230  1.7416  0.8559 -0.1336
 3938TIP3    H233306   2.654   1.983   0.126  1.2786 -0.2190 -1.4153
 3939TIP3   OH233307   1.832   4.974  14.313  0.1998 -0.2911 -0.0011
 3939TIP3    H133308   1.765   4.920  14.270  1.6226 -2.8836  0.8328
 3939TIP3    H233309   1.798   4.986  14.402 -0.5048  0.9413 -0.4243
 3940TIP3   OH233310   4.070   5.715  13.425 -0.0205  0.3779  0.0326
 3940TIP3    H133311   4.130   5.778  13.385 -0.4380  1.1779  0.6342
 3940TIP3    H233312   4.127   5.655  13.473  0.4261 -0.0838 -1.0360
 3941TIP3   OH233313   6.237   4.910  15.032 -0.5522  0.1272  0.5403
 3941TIP3    H133314   6.308   4.971  15.051 -0.7579  0.1119  1.3626
 3941TIP3    H233315   6.212   4.931  14.942  1.9429 -1.3176 -0.5948
 3942TIP3   OH233316   1.150   0.877   4.511 -0.5749  0.2168  0.1895
 3942TIP3    H133317   1.210   0.931   4.460  1.5927  1.0086  3.2999
 3942TIP3    H233318   1.105   0.938   4.569 -0.2026 -0.9251  1.7751
 3943TIP3   OH233319   0.906   4.256  14.162 -0.3791 -0.0010 -0.2435
 3943TIP3    H133320   0.973   4.263  14.094 -0.9440  0.0486 -0.8028
 3943TIP3    H233321   0.824   4.246  14.114 -0.6247 -1.5488  0.4326
 3944TIP3   OH233322   4.510   1.644   3.309 -0.2516  0.3311 -0.1317
 3944TIP3    H133323   4.531   1.710   3.242 -0.3651  0.0577 -0.4371
 3944TIP3    H233324   4.593   1.597   3.323  0.2922  1.6373  1.3280
 3945TIP3   OH233325   0.574   5.708  11.735 -0.2418  0.6381 -0.6258
 3945TIP3    H133326   0.532   5.743  11.813  2.0486  2.6807 -0.1502
 3945TIP3    H233327   0.520   5.740  11.662 -2.4505 -1.3662  0.0091
 3946TIP3   OH233328   4.184   2.772  11.324 -0.0983 -0.0057 -0.5297
 3946TIP3    H133329   4.101   2.814  11.303  0.8560  2.3785  0.1279
 3946TIP3    H233330   4.211   2.730  11.243 -3.0951 -3.1805 -0.1293
 3947TIP3   OH233331   3.368   0.589   0.984  0.4792  0.2349  0.4133
 3947TIP3    H133332   3.379   0.510   0.931  0.3808 -0.6663  1.6901
 3947TIP3    H233333   3.408   0.567   1.068  2.0248  2.1715  0.2541
 3948TIP3   OH233334   2.468   2.370  14.997 -0.5092 -0.1547 -0.1862
 3948TIP3    H133335   2.510   2.408  14.920  1.0185 -0.5999  0.4000
 3948TIP3    H233336   2.537   2.366  15.063 -1.7612  0.1796  1.2131
 3949TIP3   OH233337   2.130   4.735   1.884 -0.0696 -0.1999 -0.0212
 3949TIP3    H133338   2.106   4.755   1.975 -0.4931 -0.0674 -0.1564
 3949TIP3    H233339   2.120   4.640   1.878  1.0393 -0.3549  0.3677
 3950TIP3   OH233340   3.963   1.585  15.489  0.2242  0.0203  0.4759
 3950TIP3    H133341   3.994   1.495  15.492  1.2861  0.3045 -1.0307
 3950TIP3    H233342   3.923   1.595  15.403 -0.2166  0.8858  0.7632
 3951TIP3   OH233343   5.620   5.795  11.892  0.0506 -0.1976 -0.1987
 3951TIP3    H133344   5.529   5.784  11.922  0.0058 -0.6934 -0.5200
 3951TIP3    H233345   5.672   5.786  11.972 -0.2635  1.5896  0.2606
 3952TIP3   OH233346   5.563   3.161   1.955 -0.0489 -0.2244 -0.3004
 3952TIP3    H133347   5.514   3.104   2.015  0.0231  0.4115  0.3778
 3952TIP3    H233348   5.510   3.162   1.875 -2.0117  1.6698  0.9207
 3953TIP3   OH233349   5.159   5.753  15.426 -0.3044 -0.3672  0.0838
 3953TIP3    H133350   5.166   5.827  15.365 -1.0014 -2.0721 -2.2026
 3953TIP3    H233351   5.113   5.790  15.502  0.6139  1.8599 -0.3543
 3954TIP3   OH233352   3.513   2.685  16.847  0.6419  0.0925  0.0149
 3954TIP3    H133353   3.603   2.670  16.875  0.1160  0.2278  1.8870
 3954TIP3    H233354   3.513   2.775  16.816  1.1120  0.1442  0.1521
 3955TIP3   OH233355   4.170   1.297   3.669  0.4712  0.0158 -0.1401
 3955TIP3    H133356   4.144   1.216   3.715 -0.4990  0.6483  0.4704
 3955TIP3    H233357   4.146   1.281   3.578 -0.3958 -0.1376  0.0973
 3956TIP3   OH233358   0.066   0.223   2.583  0.0712  0.1907  0.6526
 3956TIP3    H133359   0.134   0.187   2.640  1.6048  1.9697  0.0911
 3956TIP3    H233360   0.091   0.193   2.495 -0.4501  0.0485  0.5504
 3957TIP3   OH233361   2.259   1.718   1.924  0.0555  0.1403 -0.0615
 3957TIP3    H133362   2.218   1.675   1.849  1.0652  0.5311 -0.8661
 3957TIP3    H233363   2.212   1.801   1.932 -2.5707 -1.3808  2.1109
 3958TIP3   OH233364   6.226   1.659  12.053 -0.0130 -0.5279 -0.2039
 3958TIP3    H133365   6.276   1.726  12.100  0.4520 -1.3354  0.4852
 3958TIP3    H233366   6.278   1.579  12.064 -0.7216 -1.0686 -0.7306
 3959TIP3   OH233367   6.087   0.785  14.430 -0.3642 -0.4112  0.4616
 3959TIP3    H133368   6.005   0.735  14.428 -0.6145 -0.0051  0.0598
 3959TIP3    H233369   6.059   0.875  14.449 -0.5164  0.5674 -3.4665
 3960TIP3   OH233370   1.397   6.161   4.703 -0.1638  0.3448 -0.5068
 3960TIP3    H133371   1.424   6.097   4.637 -0.2000  1.0838 -1.2554
 3960TIP3    H233372   1.447   6.240   4.682  0.4547  0.3327  0.8852
 3961TIP3   OH233373   2.831   2.792  15.934  0.4011 -0.2646 -0.9708
 3961TIP3    H133374   2.893   2.833  15.874 -2.4892  1.2153 -3.2068
 3961TIP3    H233375   2.811   2.707  15.894 -1.1997  0.5348 -1.9241
 3962TIP3   OH233376   5.327   3.939   2.406 -0.1617 -0.1068 -0.0998
 3962TIP3    H133377   5.257   3.907   2.348 -0.6572  1.7176 -0.5752
 3962TIP3    H233378   5.404   3.890   2.379 -1.1447 -1.8871  0.1640
 3963TIP3   OH233379   0.340   2.673   1.684  0.1801 -0.4511  0.1379
 3963TIP3    H133380   0.335   2.595   1.629 -0.5073 -0.8566  0.7780
 3963TIP3    H233381   0.353   2.640   1.773  1.6245  0.2123  0.2058
 3964TIP3   OH233382   5.816   1.056   3.586  0.1803  0.3637 -0.1837
 3964TIP3    H133383   5.830   1.126   3.523 -0.5325  0.4088 -0.2970
 3964TIP3    H233384   5.808   1.101   3.670  0.5174  0.3509 -0.1426
 3965TIP3   OH233385   2.063   6.815   5.325 -0.6069  0.0868  0.4612
 3965TIP3    H133386   2.000   6.772   5.266 -0.9857 -1.2558  1.7829
 3965TIP3    H233387   2.017   6.891   5.358 -0.6542  0.4445 -0.3916
 3966TIP3   OH233388   0.705   4.410   1.053 -0.5223  0.4740  0.6280
 3966TIP3    H133389   0.643   4.342   1.025  0.4214  0.7100 -2.2926
 3966TIP3    H233390   0.672   4.490   1.013  0.6586  0.9514  0.5848
 3967TIP3   OH233391   6.437   6.308  11.374  0.0967  0.0368 -0.0039
 3967TIP3    H133392   6.390   6.256  11.309  0.5443  0.4451 -0.6707
 3967TIP3    H233393   6.432   6.257  11.455 -1.5037  0.0860 -0.0522
 3968TIP3   OH233394   2.698   5.155  14.724  0.3590 -0.2342 -0.0559
 3968TIP3    H133395   2.786   5.194  14.716  0.3900 -0.0353  1.0770
 3968TIP3    H233396   2.714   5.065  14.750  0.2266 -0.1031  0.4889
 3969TIP3   OH233397   4.105   2.950  14.356 -0.5766 -0.8031  0.0014
 3969TIP3    H133398   4.075   2.861  14.338 -1.5126 -0.1808 -1.8582
 3969TIP3    H233399   4.169   2.968  14.287 -0.5982  0.0556  0.1909
 3970TIP3   OH233400   6.379   0.110  17.019  0.5831 -0.2372  0.0303
 3970TIP3    H133401   6.385   0.128  17.113  0.7649  0.6205 -0.1426
 3970TIP3    H233402   6.425   0.182  16.977 -0.8584  0.2592 -0.7878
 3971TIP3   OH233403   4.596   6.780   1.077  0.4239  0.8458  0.5509
 3971TIP3    H133404   4.575   6.710   1.015  0.8361 -0.3801  1.7397
 3971TIP3    H233405   4.613   6.857   1.023  1.1329 -0.2741 -0.8651
 3972TIP3   OH233406   0.243   6.093   1.098 -0.0067  0.0005  0.4904
 3972TIP3    H133407   0.319   6.040   1.123 -0.3277 -0.5777  0.2656
 3972TIP3    H233408   0.280   6.179   1.078  0.3899  0.1813  1.8905
 3973TIP3   OH233409   0.443   5.616  13.967 -0.4385 -0.1760  0.1007
 3973TIP3    H133410   0.450   5.525  13.937  1.2822 -0.8591  2.3418
 3973TIP3    H233411   0.374   5.614  14.033  1.2196 -0.4473  1.9102
 3974TIP3   OH233412   2.281   5.384   3.687  0.4822 -0.2046  0.0851
 3974TIP3    H133413   2.357   5.427   3.648  1.8813 -3.2728 -0.8790
 3974TIP3    H233414   2.309   5.362   3.776 -1.0865  2.7484  1.4597
 3975TIP3   OH233415   2.877   2.626  11.500 -0.1380 -0.7484  0.1332
 3975TIP3    H133416   2.847   2.604  11.412 -0.3836 -0.2859  0.0972
 3975TIP3    H233417   2.923   2.709  11.489  1.8562 -1.7916  0.0536
 3976TIP3   OH233418   2.985   5.471   5.760 -0.6306  0.3658  0.0495
 3976TIP3    H133419   2.960   5.461   5.851 -0.3511 -0.2856  0.0596
 3976TIP3    H233420   2.908   5.507   5.717 -1.0915 -0.2485  0.3552
 3977TIP3   OH233421   0.594   5.967   1.665 -0.0226 -0.2483  0.1443
 3977TIP3    H133422   0.658   5.989   1.734 -0.2293 -0.5527  0.4388
 3977TIP3    H233423   0.603   6.037   1.601 -0.3472  0.4536  0.8380
 3978TIP3   OH233424   5.689   4.545  12.098 -0.7946 -0.0562  0.0256
 3978TIP3    H133425   5.676   4.464  12.048 -0.8183  0.7744 -1.3583
 3978TIP3    H233426   5.712   4.515  12.186 -2.8332 -1.5687  0.1132
 3979TIP3   OH233427   0.403   2.377  12.659 -0.4798  0.1068  0.2335
 3979TIP3    H133428   0.373   2.413  12.575  0.9969  1.1743  0.1187
 3979TIP3    H233429   0.494   2.406  12.666 -0.2815 -0.7855  1.7703
 3980TIP3   OH233430   6.394   6.387  16.589  0.1506  0.4369  0.3727
 3980TIP3    H133431   6.466   6.447  16.609  0.3609  0.5466 -0.6760
 3980TIP3    H233432   6.326   6.442  16.550 -0.9833  0.5262  2.3548
 3981TIP3   OH233433   0.261   4.728  14.405 -0.0437  0.0067  0.0844
 3981TIP3    H133434   0.343   4.711  14.452  0.8967  0.3376 -1.3556
 3981TIP3    H233435   0.275   4.690  14.318 -0.6320  1.7926 -0.8491
 3982TIP3   OH233436   2.997   6.394  13.239  0.3825 -0.1642 -0.3185
 3982TIP3    H133437   2.927   6.440  13.194  0.5582  0.9072  0.4668
 3982TIP3    H233438   2.972   6.395  13.331  1.1752 -0.1927 -0.0894
 3983TIP3   OH233439   6.693   3.269  13.928  0.0739 -0.2120 -0.9706
 3983TIP3    H133440   6.764   3.273  13.992 -0.2419 -0.7531 -0.5821
 3983TIP3    H233441   6.737   3.276  13.843  0.3855  2.0627 -0.6921
 3984TIP3   OH233442   0.546   5.044   3.421 -0.7317  0.5529 -0.0005
 3984TIP3    H133443   0.636   5.051   3.453 -0.1720 -1.2060 -1.0008
 3984TIP3    H233444   0.547   4.964   3.367 -2.2150  1.9408 -2.2234
 3985TIP3   OH233445   4.976   0.116   2.969 -0.0595  0.2550 -0.5291
 3985TIP3    H133446   4.968   0.024   2.942  0.7238 -0.4306  1.4008
 3985TIP3    H233447   4.922   0.123   3.048  0.1650  1.3671 -0.4565
 3986TIP3   OH233448   6.321   0.184  13.764 -0.3243 -0.2044  0.5453
 3986TIP3    H133449   6.250   0.120  13.760 -0.4940  0.0317 -0.3560
 3986TIP3    H233450   6.398   0.136  13.736 -0.4707 -0.0021 -0.2324
 3987TIP3   OH233451   6.727   6.288  12.200  0.2285  0.0831 -0.3516
 3987TIP3    H133452   6.764   6.375  12.213  1.5066 -0.2038 -1.8083
 3987TIP3    H233453   6.802   6.232  12.180 -0.6651 -1.1818 -0.2995
 3988TIP3   OH233454   1.473   0.209  12.732 -0.5398 -0.2296 -0.6512
 3988TIP3    H133455   1.563   0.240  12.739  0.2661 -2.4569 -0.4407
 3988TIP3    H233456   1.458   0.199  12.638 -0.5696  0.1333 -0.6856
 3989TIP3   OH233457   1.574   5.739   0.735  0.3753 -0.0787  0.9485
 3989TIP3    H133458   1.609   5.667   0.787 -0.9421  0.0902  2.1575
 3989TIP3    H233459   1.524   5.791   0.798  1.2613  1.8877  0.1019
 3990TIP3   OH233460   2.873   0.192  12.633  0.2987 -0.5730  0.6019
 3990TIP3    H133461   2.887   0.256  12.563  0.3444 -1.5686 -0.3197
 3990TIP3    H233462   2.919   0.113  12.604  0.0397 -1.1101  1.5999
 3991TIP3   OH233463   6.642   2.402  15.597  0.3291  0.3662 -0.0606
 3991TIP3    H133464   6.563   2.369  15.640  0.9482 -0.0720  0.7913
 3991TIP3    H233465   6.682   2.324  15.558  0.9867  0.3401  0.6171
 3992TIP3   OH233466   1.804   6.658  12.099  0.7099  0.5773 -0.3457
 3992TIP3    H133467   1.784   6.565  12.094  0.4967  0.6240 -0.3572
 3992TIP3    H233468   1.753   6.691  12.173 -0.6225  1.0422 -1.4403
 3993TIP3   OH233469   3.423   2.631   5.929  0.3835  0.3997  0.0610
 3993TIP3    H133470   3.511   2.611   5.961  0.5568  0.8335 -0.1321
 3993TIP3    H233471   3.370   2.641   6.008  0.7440  1.1743  0.2146
 3994TIP3   OH233472   4.658   4.615   4.910  0.9738  0.2797 -0.2327
 3994TIP3    H133473   4.713   4.693   4.912 -1.1626  1.9209 -1.0746
 3994TIP3    H233474   4.719   4.542   4.916  3.3059  1.9269 -2.0853
 3995TIP3   OH233475   5.027   5.742   2.826 -0.1841  0.6377  0.0636
 3995TIP3    H133476   4.988   5.785   2.902  0.5385  0.9779  0.2500
 3995TIP3    H233477   5.121   5.760   2.834  0.0447 -0.3681 -0.2416
 3996TIP3   OH233478   0.942   6.004  12.160 -0.1565 -0.0627 -0.7855
 3996TIP3    H133479   0.914   5.979  12.072  0.1551  0.1775 -0.9553
 3996TIP3    H233480   0.861   6.016  12.209 -0.3258 -1.8010 -0.5820
 3997TIP3   OH233481   1.198   2.734   4.801  0.6109  0.2163 -0.0154
 3997TIP3    H133482   1.167   2.812   4.848 -1.2324 -0.1247 -0.5830
 3997TIP3    H233483   1.198   2.665   4.866  1.7376  0.5574  0.3631
 3998TIP3   OH233484   1.792   0.612   3.491  0.7088 -0.0025 -0.0478
 3998TIP3    H133485   1.829   0.621   3.578 -0.9113  0.5671  0.6289
 3998TIP3    H233486   1.713   0.559   3.503 -0.3769  1.3467 -0.8830
 3999TIP3   OH233487   1.079   3.897   0.962 -0.1870 -0.5188  0.0490
 3999TIP3    H133488   1.044   3.966   1.019  0.0779 -0.2230 -0.1437
 3999TIP3    H233489   1.040   3.913   0.877 -0.8390 -1.1594  0.2171
 4000TIP3   OH233490   1.543   4.734  15.979 -0.4238  0.3838  0.0235
 4000TIP3    H133491   1.587   4.814  16.006  0.1228 -0.0510  0.4317
 4000TIP3    H233492   1.455   4.763  15.954  0.6426  1.5728 -2.7259
 4001TIP3   OH233493   1.297   2.025  17.080  0.3000  0.1153  0.2850
 4001TIP3    H133494   1.329   1.949  17.032  1.2745 -0.1179  1.2820
 4001TIP3    H233495   1.213   1.996  17.117 -0.8601  0.5384 -1.8236
 4002TIP3   OH233496   2.817   3.878  15.501 -0.1808 -0.0057 -0.3139
 4002TIP3    H133497   2.855   3.887  15.588  1.0420 -1.9344 -0.5785
 4002TIP3    H233498   2.737   3.828  15.515  0.1452 -0.5348 -0.2972
 4003TIP3   OH233499   6.017   4.316   4.212  0.1811  0.7778 -0.7012
 4003TIP3    H133500   5.977   4.315   4.299  0.7918 -0.7598 -0.4236
 4003TIP3    H233501   5.947   4.349   4.155 -1.5079 -1.6588 -0.2026
 4004TIP3   OH233502   4.929   1.099  13.836 -0.2588  0.3664  0.2428
 4004TIP3    H133503   4.941   1.185  13.796 -0.0569 -0.3803 -1.3804
 4004TIP3    H233504   5.017   1.063  13.843 -0.4952 -0.6630 -1.3980
 4005TIP3   OH233505   2.033   6.832   0.891 -0.7578 -0.1034  0.3033
 4005TIP3    H133506   1.959   6.805   0.836 -0.8422 -0.8605  0.7800
 4005TIP3    H233507   2.094   6.873   0.830 -2.0026  1.4911  0.0326
 4006TIP3   OH233508   5.707   4.155   4.525  0.4324 -0.0124  0.0028
 4006TIP3    H133509   5.679   4.209   4.598  0.9353  0.2416  0.0114
 4006TIP3    H233510   5.790   4.193   4.497  0.8514 -0.8496  0.0800
 4007TIP3   OH233511   1.240   4.481   0.885 -0.3233  0.0323  0.0836
 4007TIP3    H133512   1.331   4.503   0.865 -0.3488 -0.1502 -0.2430
 4007TIP3    H233513   1.189   4.540   0.830 -0.4147  0.6361  0.8011
 4008TIP3   OH233514   6.055   0.949   2.770 -0.6734  0.1424  0.3592
 4008TIP3    H133515   6.116   1.014   2.733 -0.1772 -0.1635  0.6296
 4008TIP3    H233516   5.976   1.000   2.791 -1.5283  0.1084 -2.3639
 4009TIP3   OH233517   0.791   4.207  12.480 -0.3460  0.3595 -0.2340
 4009TIP3    H133518   0.824   4.235  12.565 -1.1491 -0.0395  0.2158
 4009TIP3    H233519   0.701   4.179  12.497 -0.9770  1.5290 -1.4429
 4010TIP3   OH233520   1.063   0.401  12.359 -0.7909  0.1273 -0.4607
 4010TIP3    H133521   1.096   0.478  12.406  0.1793 -0.5160 -0.0734
 4010TIP3    H233522   1.060   0.332  12.426  1.1815 -0.9774 -1.4272
 4011TIP3   OH233523   0.935   4.178   1.366 -0.5966  0.3518  0.3823
 4011TIP3    H133524   0.991   4.163   1.442  1.2340 -0.2196 -1.0069
 4011TIP3    H233525   0.857   4.125   1.383 -1.5564  2.4435  3.1243
 4012TIP3   OH233526   3.171   3.785  15.755 -0.9550  0.5626  0.0714
 4012TIP3    H133527   3.218   3.787  15.672 -0.9435 -1.0937  0.0053
 4012TIP3    H233528   3.231   3.826  15.818 -1.1354  2.2312 -0.7759
 4013TIP3   OH233529   3.519   5.882  16.315 -0.7707  0.0032 -0.0508
 4013TIP3    H133530   3.604   5.925  16.319 -0.1905 -1.1764  1.3889
 4013TIP3    H233531   3.473   5.925  16.243  0.8182  1.0565 -0.4799
 4014TIP3   OH233532   5.298   3.592   5.897  0.1973 -0.2286  0.4059
 4014TIP3    H133533   5.266   3.674   5.933 -0.0645 -0.6076  1.0364
 4014TIP3    H233534   5.382   3.577   5.941  1.1003  0.5669 -0.9613
 4015TIP3   OH233535   1.335   5.826   2.942 -0.6650 -0.3369 -0.2472
 4015TIP3    H133536   1.401   5.830   3.012 -0.5666  1.5508 -0.3831
 4015TIP3    H233537   1.380   5.781   2.870 -0.3400 -1.1646  0.4527
 4016TIP3   OH233538   1.338   4.324  12.928 -0.4265  0.1111 -0.6462
 4016TIP3    H133539   1.312   4.339  12.837  0.0605  0.5208 -0.7229
 4016TIP3    H233540   1.432   4.345  12.930 -0.4638  0.2454 -0.0204
 4017TIP3   OH233541   2.782   0.773  11.590  0.1485  0.6313  0.0008
 4017TIP3    H133542   2.708   0.785  11.650  0.1398  0.6211 -0.0082
 4017TIP3    H233543   2.851   0.828  11.626 -0.3344  1.7887 -0.7870
 4018TIP3   OH233544   6.505   2.953  13.590 -0.1126  0.2241 -0.2497
 4018TIP3    H133545   6.504   3.048  13.583  0.0558  0.3259  0.8314
 4018TIP3    H233546   6.444   2.933  13.662 -0.1660 -0.4837 -0.4777
 4019TIP3   OH233547   5.903   1.542  13.495  0.1496  0.2199  0.4758
 4019TIP3    H133548   5.996   1.517  13.495  0.4641  1.2249  2.2748
 4019TIP3    H233549   5.901   1.623  13.444  0.3124  0.3676  0.7027
 4020TIP3   OH233550   6.817   0.614   0.885 -0.3252 -0.1054 -0.0414
 4020TIP3    H133551   6.904   0.602   0.847 -1.0546 -0.8857 -1.5232
 4020TIP3    H233552   6.790   0.701   0.857  0.1101  0.3093  0.7642
 4021TIP3   OH233553   3.945   1.630   0.320  0.1554  0.1177 -0.6166
 4021TIP3    H133554   3.887   1.580   0.376  1.2373  0.7135  1.1114
 4021TIP3    H233555   4.019   1.571   0.303  0.8712  0.6634  0.4550
 4022TIP3   OH233556   0.195   0.514  14.997 -0.1989  0.1385  0.4675
 4022TIP3    H133557   0.102   0.530  14.983 -0.0007 -0.1306 -1.4594
 4022TIP3    H233558   0.209   0.424  14.968  1.0371  0.9161 -1.5477
 4023TIP3   OH233559   2.187   0.091  11.775  0.1295  0.0783 -0.6485
 4023TIP3    H133560   2.112   0.150  11.766 -0.2795 -0.4291 -0.6794
 4023TIP3    H233561   2.171   0.044  11.857  2.0685  2.2156  1.0992
 4024TIP3   OH233562   0.361   2.195  11.155 -0.0452 -0.5959 -0.5195
 4024TIP3    H133563   0.290   2.225  11.098  0.5560  2.5498  0.2084
 4024TIP3    H233564   0.317   2.159  11.232 -0.8646  0.5126 -0.4531
 4025TIP3   OH233565   5.896   5.410  16.879 -0.3559 -0.1052 -0.5459
 4025TIP3    H133566   5.960   5.340  16.898 -0.2619 -0.7869 -3.0307
 4025TIP3    H233567   5.870   5.442  16.965  1.5650 -1.4271  0.6141
 4026TIP3   OH233568   5.682   4.517   4.515  0.3916  0.8037  0.1122
 4026TIP3    H133569   5.678   4.586   4.581  2.6125 -0.5429  1.7756
 4026TIP3    H233570   5.773   4.518   4.485  0.3588 -1.1278 -0.1309
 4027TIP3   OH233571   0.039   3.539  15.924  0.4885 -0.3980  0.1756
 4027TIP3    H133572   0.105   3.609  15.923  0.2638 -0.1886  0.0978
 4027TIP3    H233573  -0.025   3.568  15.989  0.0182 -0.1884 -0.3803
 4028TIP3   OH233574   5.015   3.317   5.154 -0.2167  0.6359  0.1582
 4028TIP3    H133575   5.090   3.330   5.212  1.1421 -0.4418 -1.2649
 4028TIP3    H233576   5.010   3.398   5.102  0.7590  0.2628 -0.5600
 4029TIP3   OH233577   6.241   0.319   4.272  0.0336  0.1581  0.2130
 4029TIP3    H133578   6.274   0.272   4.195 -1.1136 -1.1915  0.4970
 4029TIP3    H233579   6.155   0.280   4.289 -1.7544  3.4822 -0.4749
 4030TIP3   OH233580   4.677   2.999  16.426 -0.1500  0.3537 -0.2149
 4030TIP3    H133581   4.751   3.021  16.370  1.7055 -1.4762  1.3441
 4030TIP3    H233582   4.667   3.074  16.484  2.7764 -0.6115  1.7496
 4031TIP3   OH233583   5.397   5.955  10.971  0.4043 -0.0339 -1.0485
 4031TIP3    H133584   5.393   5.893  10.898  2.1743 -0.9744 -0.4106
 4031TIP3    H233585   5.306   5.964  11.000  0.0744 -2.4630 -1.0953
 4032TIP3   OH233586   6.732   0.828  15.886 -0.7748  0.5987 -0.9760
 4032TIP3    H133587   6.680   0.841  15.807 -1.1261  0.6038 -0.7447
 4032TIP3    H233588   6.673   0.782  15.946  0.0008 -0.8854 -1.2948
 4033TIP3   OH233589   1.913   2.392   3.692  0.3739  0.5793 -0.3386
 4033TIP3    H133590   1.843   2.404   3.756 -0.8848 -0.0286 -1.5327
 4033TIP3    H233591   1.920   2.297   3.682  2.6871  0.5315  1.0903
 4034TIP3   OH233592   3.494   3.248  15.786 -0.4816  0.2997 -0.3212
 4034TIP3    H133593   3.584   3.280  15.778  0.5159 -2.2870 -0.4916
 4034TIP3    H233594   3.461   3.286  15.868  1.3698  0.0013  0.6033
 4035TIP3   OH233595   1.919   4.981   4.260  0.4901 -0.3037 -0.5024
 4035TIP3    H133596   1.899   4.891   4.233  2.1620 -1.1996  0.9988
 4035TIP3    H233597   1.898   4.983   4.354  0.3360  0.9317 -0.5458
 4036TIP3   OH233598   5.840   3.800  13.848 -0.0604  0.1954 -0.5539
 4036TIP3    H133599   5.771   3.776  13.910 -0.1401  0.8107 -0.3910
 4036TIP3    H233600   5.821   3.891  13.825  1.1154  0.6261  0.0721
 4037TIP3   OH233601   0.316   5.079   3.020  0.1298 -0.0283  0.1222
 4037TIP3    H133602   0.298   5.173   3.031 -1.2309 -0.1604 -0.6091
 4037TIP3    H233603   0.401   5.065   3.061  0.8314  1.7249 -0.6063
 4038TIP3   OH233604   4.131   2.374  11.799  0.1297  0.1326 -0.4696
 4038TIP3    H133605   4.224   2.353  11.808 -0.2145 -0.8386  1.1853
 4038TIP3    H233606   4.124   2.418  11.714  1.7780 -1.5794 -1.5390
 4039TIP3   OH233607   1.048   1.467   2.663  0.1045  0.4261  0.6630
 4039TIP3    H133608   1.019   1.530   2.597  2.2132  0.3233 -0.4279
 4039TIP3    H233609   1.026   1.507   2.747 -1.5012  1.1244 -0.0530
 4040TIP3   OH233610   0.847   5.069   5.906 -0.0749 -0.0801 -0.1028
 4040TIP3    H133611   0.915   5.005   5.887 -0.2923 -0.4985  0.4972
 4040TIP3    H233612   0.788   5.064   5.831  0.2162 -0.1682 -0.3269
 4041TIP3   OH233613   6.049   1.886  12.188 -1.0597 -0.2207 -1.4656
 4041TIP3    H133614   5.991   1.961  12.200  1.5020  2.0846 -2.3496
 4041TIP3    H233615   6.062   1.882  12.093  1.7959  0.7726 -1.2106
 4042TIP3   OH233616   3.178   4.162  14.423 -0.3306  0.8197  0.4620
 4042TIP3    H133617   3.175   4.075  14.464  0.7741  0.2746 -0.5571
 4042TIP3    H233618   3.203   4.144  14.332 -0.7898  2.1617  0.0499
 4043TIP3   OH233619   5.189   5.994   0.173 -0.5549  0.4438 -0.3694
 4043TIP3    H133620   5.104   6.032   0.195  0.5676  2.5937  0.5954
 4043TIP3    H233621   5.202   5.926   0.239 -1.2122  0.6066 -0.0567
 4044TIP3   OH233622   1.445   1.731  16.386  0.1354  0.0839  0.0267
 4044TIP3    H133623   1.358   1.766  16.369 -0.4569 -1.9084 -1.3970
 4044TIP3    H233624   1.504   1.786  16.334 -0.4972  0.3560 -0.4134
 4045TIP3   OH233625   0.346   6.550  15.735 -0.3622 -0.5000 -0.4228
 4045TIP3    H133626   0.295   6.478  15.699 -1.1565 -0.6521  0.9332
 4045TIP3    H233627   0.317   6.557  15.826  0.7363  0.6032 -0.1271
 4046TIP3   OH233628   1.973   6.196  11.833  0.0286 -0.0797 -0.3159
 4046TIP3    H133629   1.960   6.210  11.739 -1.2911  2.6455  0.1990
 4046TIP3    H233630   1.886   6.205  11.871  0.7887  0.5722  1.3692
 4047TIP3   OH233631   1.688   1.178   6.585 -0.2750  0.2132 -0.0854
 4047TIP3    H133632   1.643   1.094   6.584  0.9624 -0.4729 -0.2858
 4047TIP3    H233633   1.701   1.199   6.492 -3.1436  2.1106 -0.1987
 4048TIP3   OH233634   1.140   2.018  13.621 -0.3844  0.6062 -0.3243
 4048TIP3    H133635   1.095   1.948  13.668  0.9603  0.0920  0.2343
 4048TIP3    H233636   1.232   1.990  13.617  0.0182  1.9193 -0.8711
 4049TIP3   OH233637   3.152   1.453  11.542  0.1204 -0.4457 -0.4595
 4049TIP3    H133638   3.094   1.472  11.615  0.8268 -4.2785  1.3758
 4049TIP3    H233639   3.227   1.511  11.555 -1.2061  1.2945 -0.1943
 4050TIP3   OH233640   2.622   4.610   1.735  0.5739 -0.1718 -0.6883
 4050TIP3    H133641   2.536   4.647   1.756 -0.3385 -2.5797  0.2880
 4050TIP3    H233642   2.673   4.621   1.816  0.9218  0.5365 -0.9988
 4051TIP3   OH233643   5.530   4.661   5.880  0.3675 -0.7101  0.5995
 4051TIP3    H133644   5.608   4.712   5.901 -1.1388  1.5180  1.1221
 4051TIP3    H233645   5.461   4.698   5.936 -1.6344 -0.9246 -1.5574
 4052TIP3   OH233646   4.076   5.227  15.541 -0.4632  0.1670  0.0648
 4052TIP3    H133647   4.171   5.234  15.549 -0.2350 -2.6065  0.4961
 4052TIP3    H233648   4.042   5.262  15.624  0.2134  0.4102  0.2414
 4053TIP3   OH233649   4.808   2.700   0.300  0.2474 -0.1817 -0.2792
 4053TIP3    H133650   4.830   2.792   0.315  1.1582 -0.2165 -1.3217
 4053TIP3    H233651   4.733   2.703   0.240 -1.1363 -0.1130  1.3647
 4054TIP3   OH233652   5.940   2.293  14.960  0.3400 -0.4665  0.1161
 4054TIP3    H133653   5.931   2.353  14.886  0.0058  0.0147  0.5427
 4054TIP3    H233654   6.030   2.259  14.952  0.4841 -0.0237 -0.2090
 4055TIP3   OH233655   5.475   0.546   4.845  0.6025  0.3983  0.1427
 4055TIP3    H133656   5.564   0.577   4.828  0.3483  1.7680  1.1478
 4055TIP3    H233657   5.438   0.611   4.903 -0.5450 -0.9799  1.0144
 4056TIP3   OH233658   4.425   0.949  15.696  0.3597 -0.1978 -0.6194
 4056TIP3    H133659   4.507   0.923  15.653  1.0115 -1.1210  1.1016
 4056TIP3    H233660   4.378   0.867  15.710 -0.0537  0.1359 -0.0192
 4057TIP3   OH233661   0.321   1.725  12.068  0.0837 -0.8073 -0.1839
 4057TIP3    H133662   0.288   1.715  11.978 -0.8726  0.5670 -0.0213
 4057TIP3    H233663   0.413   1.752  12.057 -0.5618  1.3522 -0.8633
 4058TIP3   OH233664   1.806   1.657   4.145 -0.2490 -0.5505 -0.2332
 4058TIP3    H133665   1.769   1.723   4.087 -0.3297 -0.0160  0.4066
 4058TIP3    H233666   1.896   1.647   4.117  0.0110  0.4635  0.1891
 4059TIP3   OH233667   6.662   1.153  14.688  0.2824  0.0216 -0.1564
 4059TIP3    H133668   6.693   1.067  14.718  0.8998 -0.1049 -1.1244
 4059TIP3    H233669   6.580   1.134  14.642  0.2015  0.0034 -0.0047
 4060TIP3   OH233670   6.819   5.337   3.350  0.4850 -0.1590  0.2371
 4060TIP3    H133671   6.830   5.400   3.421 -0.7819 -1.7870  1.9624
 4060TIP3    H233672   6.762   5.381   3.287  2.1773  1.5679 -0.1791
 4061TIP3   OH233673   3.821   6.399  14.654 -0.0383  0.1869  0.1783
 4061TIP3    H133674   3.875   6.478  14.664 -0.1884  0.2312  0.6427
 4061TIP3    H233675   3.845   6.344  14.728  0.1668 -0.2682 -0.2250
 4062TIP3   OH233676   4.302   1.559   3.630  0.0046  0.4390 -0.5339
 4062TIP3    H133677   4.280   1.570   3.538 -1.5359 -0.2842 -0.2902
 4062TIP3    H233678   4.256   1.479   3.656  1.3998 -0.0491  0.5692
 4063TIP3   OH233679   3.084   5.188   3.034 -0.2776  0.0787  0.1770
 4063TIP3    H133680   3.094   5.279   3.062  1.8600  0.3511 -1.3287
 4063TIP3    H233681   3.169   5.147   3.052 -0.6866 -1.2084 -0.6690
 4064TIP3   OH233682   5.015   2.130  15.813  0.0752  0.5496 -0.5474
 4064TIP3    H133683   4.944   2.066  15.814  2.0726 -1.7904  0.4676
 4064TIP3    H233684   5.013   2.169  15.900  0.4272  0.0205 -0.3007
 4065TIP3   OH233685   5.229   3.620  11.073 -0.6124 -0.1809 -0.0923
 4065TIP3    H133686   5.212   3.527  11.059  1.6399 -0.6239 -0.3069
 4065TIP3    H233687   5.146   3.663  11.053 -2.2424 -2.2523  1.7383
 4066TIP3   OH233688   1.099   6.737   4.708  0.4669 -0.7043 -0.1230
 4066TIP3    H133689   1.110   6.656   4.657  0.3174  0.8859 -2.9032
 4066TIP3    H233690   1.147   6.803   4.658 -1.1628  1.3434  0.8752
 4067TIP3   OH233691   5.620   5.016  13.240  0.0732 -0.4300  0.6648
 4067TIP3    H133692   5.628   5.075  13.165 -1.1260  0.5934  1.3154
 4067TIP3    H233693   5.536   4.972  13.227 -0.1848 -0.1814  1.4438
 4068TIP3   OH233694   2.097   4.502   2.144  0.3733 -0.1335 -0.4573
 4068TIP3    H133695   2.073   4.594   2.152 -0.5288 -0.2730 -1.4601
 4068TIP3    H233696   2.174   4.492   2.201 -1.4643  0.4840  2.3330
 4069TIP3   OH233697   5.728   3.150   0.877  0.1454  0.2670 -0.7463
 4069TIP3    H133698   5.665   3.088   0.840  1.3360 -2.1881  1.0466
 4069TIP3    H233699   5.694   3.170   0.964  1.3582 -0.4776 -0.0623
 4070TIP3   OH233700   5.683   5.780  12.558 -0.0772  0.1591  0.0658
 4070TIP3    H133701   5.769   5.815  12.536 -0.2132  0.4545 -0.0097
 4070TIP3    H233702   5.666   5.713  12.492 -0.2497  0.6639 -0.4142
 4071TIP3   OH233703   5.427   0.259   4.858 -0.1469  0.3567 -0.1495
 4071TIP3    H133704   5.513   0.221   4.837 -1.3753 -1.5436 -2.1735
 4071TIP3    H233705   5.434   0.350   4.830  0.5212 -0.3753 -2.6120
 4072TIP3   OH233706   3.453   2.057   1.782  0.2395 -0.9768  0.1576
 4072TIP3    H133707   3.413   1.970   1.785 -2.2452 -0.0030 -1.1399
 4072TIP3    H233708   3.404   2.108   1.847  1.7833 -0.5329  1.0350
 4073TIP3   OH233709   4.321   1.455  11.965  0.1828 -0.0177 -0.1814
 4073TIP3    H133710   4.237   1.497  11.947  0.3230 -0.6311 -2.6132
 4073TIP3    H233711   4.320   1.438  12.059 -1.3814  2.1235  0.2509
 4074TIP3   OH233712   2.218   0.129  14.448  0.2539  0.8181  0.3766
 4074TIP3    H133713   2.256   0.199  14.396 -0.3795  1.1765  0.3832
 4074TIP3    H233714   2.282   0.058  14.445 -0.4297  0.2196 -2.2121
 4075TIP3   OH233715   2.149   4.553  16.982  0.1758 -0.5228  0.3106
 4075TIP3    H133716   2.153   4.562  16.887  0.6779  0.6397  0.4140
 4075TIP3    H233717   2.142   4.459  16.997  1.5397 -0.8618 -0.8481
 4076TIP3   OH233718   0.700   3.596   2.933 -0.5317  0.1795 -0.3898
 4076TIP3    H133719   0.638   3.583   3.004 -1.2688  1.0040 -0.8652
 4076TIP3    H233720   0.786   3.589   2.975 -0.8585 -2.5875 -0.0127
 4077TIP3   OH233721   0.508   6.789   0.032  0.1113  0.2603  0.4214
 4077TIP3    H133722   0.447   6.723  -0.002 -0.9524  1.5528 -0.2954
 4077TIP3    H233723   0.590   6.742   0.044 -0.7764 -1.3373  0.5429
 4078TIP3   OH233724   3.396   3.521  14.379 -0.0898 -0.2471  0.3655
 4078TIP3    H133725   3.444   3.518  14.296 -0.1069  0.6714  0.3125
 4078TIP3    H233726   3.304   3.535  14.353  0.1841  2.4212  0.5604
 4079TIP3   OH233727   1.574   6.473  10.415  0.3264 -0.2140  0.1496
 4079TIP3    H133728   1.505   6.506  10.357 -0.7381 -1.6404  0.5409
 4079TIP3    H233729   1.647   6.535  10.404 -0.2583  0.1820 -1.8216
 4080TIP3   OH233730   2.798   4.018   0.266 -0.0600 -0.1634 -0.1722
 4080TIP3    H133731   2.741   3.986   0.336  0.2554  0.6335  0.4579
 4080TIP3    H233732   2.787   3.954   0.195  0.3209 -1.4989  0.9329
 4081TIP3   OH233733   4.034   6.381  10.865 -0.4669  0.0397 -0.5167
 4081TIP3    H133734   3.941   6.392  10.846 -0.6614 -0.9345 -0.1734
 4081TIP3    H233735   4.055   6.294  10.832  0.0749 -0.1638  0.3271
 4082TIP3   OH233736   5.532   4.871   3.708  0.5016  0.2052  0.4138
 4082TIP3    H133737   5.481   4.891   3.629 -0.6060  1.1951  1.3270
 4082TIP3    H233738   5.472   4.893   3.780  1.1233 -1.6134  1.5344
 4083TIP3   OH233739   2.338   6.289  13.508  0.1955 -0.4607  0.0547
 4083TIP3    H133740   2.293   6.266  13.427  1.5677 -1.5352 -0.4338
 4083TIP3    H233741   2.352   6.384  13.501  0.0095 -0.4873 -0.8097
 4084TIP3   OH233742   5.264   4.779   3.069 -0.7070 -0.3833 -0.1836
 4084TIP3    H133743   5.324   4.795   3.142  0.2466 -2.1089 -0.5262
 4084TIP3    H233744   5.192   4.728   3.108 -1.4217  0.7503  0.0088
 4085TIP3   OH233745   2.904   3.875   6.531  0.5824 -0.0585 -0.1061
 4085TIP3    H133746   2.857   3.812   6.476  0.7517 -0.4066  0.1417
 4085TIP3    H233747   2.894   3.840   6.620 -0.6139  1.0637  0.2272
 4086TIP3   OH233748   2.176   4.083  16.556  0.3717  0.0141  0.3156
 4086TIP3    H133749   2.091   4.039  16.555 -0.3696  1.4215 -0.1539
 4086TIP3    H233750   2.194   4.103  16.464  0.3916  1.2353  0.5728
 4087TIP3   OH233751   5.270   2.397  10.148 -0.2490  0.4696 -0.6045
 4087TIP3    H133752   5.194   2.456  10.142 -0.3252  0.3098 -1.1916
 4087TIP3    H233753   5.342   2.454  10.175 -0.4872  0.6921 -0.4279
 4088TIP3   OH233754   5.043   4.395  10.428  0.5910  0.1749 -0.0300
 4088TIP3    H133755   5.043   4.398  10.332 -2.5047 -0.8540 -0.1617
 4088TIP3    H233756   5.068   4.305  10.449  0.6585  0.2247  0.0987
 4089TIP3   OH233757   2.906   0.989   2.854  0.0537  1.0770 -0.0182
 4089TIP3    H133758   2.921   1.002   2.948 -1.1207  1.5292  0.1240
 4089TIP3    H233759   2.983   0.941   2.824  0.8710  1.7223  0.9910
 4090TIP3   OH233760   3.410   4.521  15.269  0.1933 -0.1443  0.0972
 4090TIP3    H133761   3.352   4.487  15.338  0.8105 -0.8041  0.3036
 4090TIP3    H233762   3.361   4.593  15.230 -0.6084 -0.4437  0.5266
 4091TIP3   OH233763   3.699   2.781  13.612  0.5894 -0.1141  0.0098
 4091TIP3    H133764   3.741   2.784  13.526 -0.6615  3.6952 -0.6478
 4091TIP3    H233765   3.609   2.754  13.593  0.6950 -0.7646  0.3866
 4092TIP3   OH233766   1.140   5.761   2.169 -0.7662  0.5931  0.3562
 4092TIP3    H133767   1.200   5.829   2.200  0.0691 -0.0174  0.1302
 4092TIP3    H233768   1.148   5.765   2.073 -0.3029 -0.1606  0.3525
 4093TIP3   OH233769   1.306   6.846   0.731  0.2511  0.6933  0.1233
 4093TIP3    H133770   1.270   6.776   0.678 -1.6990  1.5350  0.2586
 4093TIP3    H233771   1.355   6.900   0.670 -0.7928  0.8736 -0.5792
 4094TIP3   OH233772   4.491   3.395   4.534  0.2241  0.1850  0.1927
 4094TIP3    H133773   4.558   3.340   4.493  2.3155  2.6745 -0.0306
 4094TIP3    H233774   4.488   3.366   4.625 -0.1366 -1.5045 -0.3305
 4095TIP3   OH233775   2.589   2.438   5.919  0.2816  0.3503 -0.6363
 4095TIP3    H133776   2.651   2.416   5.988  1.8032  5.0228 -0.1474
 4095TIP3    H233777   2.535   2.508   5.957 -2.1096 -0.2730 -2.6622
 4096TIP3   OH233778   5.160   4.310   4.304 -0.4392  0.3563  0.1249
 4096TIP3    H133779   5.226   4.287   4.370  1.1933  0.2875 -1.4534
 4096TIP3    H233780   5.123   4.226   4.277 -0.7658  0.3468  0.5853
 4097TIP3   OH233781   3.914   6.012   2.389  0.5514  0.6385  0.0762
 4097TIP3    H133782   3.885   6.102   2.403  0.9725  0.6281  1.1189
 4097TIP3    H233783   3.897   5.968   2.472 -0.4086 -0.4694 -0.6694
 4098TIP3   OH233784   4.097   6.457  11.398  0.1085 -0.5284  0.3048
 4098TIP3    H133785   4.026   6.403  11.435 -0.1691  0.1600  0.8042
 4098TIP3    H233786   4.175   6.402  11.406 -0.1750 -0.8794  0.7593
 4099TIP3   OH233787   4.204   3.197   5.157  0.5444 -0.2867 -0.1576
 4099TIP3    H133788   4.142   3.126   5.174 -1.0387  0.4629 -2.2940
 4099TIP3    H233789   4.168   3.273   5.203 -0.5324  0.2892 -1.8474
 4100TIP3   OH233790   1.311   2.612  12.225 -0.1505  0.0805  0.0989
 4100TIP3    H133791   1.217   2.624  12.235 -0.2811 -0.3009 -0.5715
 4100TIP3    H233792   1.348   2.700  12.230 -0.5166  0.2079  0.5938
 4101TIP3   OH233793   5.577   4.776   4.828 -0.0757  0.1442 -0.2378
 4101TIP3    H133794   5.588   4.854   4.883 -1.9124  0.0417  0.3144
 4101TIP3    H233795   5.612   4.802   4.743  0.3585  1.1872  0.2391
 4102TIP3   OH233796   0.673   2.840   4.381  0.5194 -0.1265 -0.4069
 4102TIP3    H133797   0.661   2.752   4.416  0.1519 -0.3829 -1.1530
 4102TIP3    H233798   0.735   2.829   4.308 -2.0567 -0.3703 -2.7180
 4103TIP3   OH233799   4.443   5.286  16.663 -0.2368 -0.4147  0.0678
 4103TIP3    H133800   4.508   5.335  16.712 -0.2308 -1.0765  0.7445
 4103TIP3    H233801   4.432   5.205  16.712 -1.6235 -0.2939 -0.0055
 4104TIP3   OH233802   5.712   1.374   0.750 -0.0590  0.0276  0.4675
 4104TIP3    H133803   5.633   1.415   0.783 -1.7161 -1.8040 -0.9520
 4104TIP3    H233804   5.704   1.282   0.777  0.5596 -0.6124 -1.3915
 4105TIP3   OH233805   4.263   6.495   2.047  0.3564  0.7565  0.6263
 4105TIP3    H133806   4.345   6.449   2.027  1.4044  2.2405  1.2984
 4105TIP3    H233807   4.268   6.511   2.141 -1.4675 -0.4825  0.9758
 4106TIP3   OH233808   4.101   1.804  12.203  0.3268  0.0425  0.2309
 4106TIP3    H133809   4.131   1.816  12.293  0.2264 -3.2314  0.8492
 4106TIP3    H233810   4.006   1.791  12.211  0.3164 -0.2561 -0.3303
 4107TIP3   OH233811   2.619   0.770   1.659  0.4964  0.5683 -0.0820
 4107TIP3    H133812   2.685   0.701   1.661 -1.8886 -1.9610 -1.4686
 4107TIP3    H233813   2.616   0.796   1.567  0.2390  1.3687  0.1482
 4108TIP3   OH233814   2.597   3.596  11.569  0.3719  0.2236 -0.5757
 4108TIP3    H133815   2.526   3.653  11.600  0.0349  0.0495 -1.0126
 4108TIP3    H233816   2.593   3.603  11.474  0.1350 -0.7528 -0.6515
 4109TIP3   OH233817   0.527   0.938  14.894  0.1105  0.6360 -0.2810
 4109TIP3    H133818   0.563   0.880  14.962 -0.4351  0.8121  0.1675
 4109TIP3    H233819   0.449   0.976  14.935 -1.1331 -0.4438 -1.5381
 4110TIP3   OH233820   5.646   1.243  15.889 -0.0024 -0.5634 -0.0743
 4110TIP3    H133821   5.738   1.267  15.875 -0.1657  0.3210  0.3420
 4110TIP3    H233822   5.649   1.173  15.954  0.2981  0.5083  1.0978
 4111TIP3   OH233823   2.438   1.495  15.537 -0.3851 -0.0706  0.1101
 4111TIP3    H133824   2.383   1.573  15.546 -0.3307 -0.2130  2.1505
 4111TIP3    H233825   2.481   1.486  15.623  0.3458 -1.7973 -0.3962
 4112TIP3   OH233826   6.615   0.960  11.172 -0.8819  0.2433  0.1066
 4112TIP3    H133827   6.618   1.052  11.144 -1.3988  0.3251  0.3057
 4112TIP3    H233828   6.522   0.941  11.179 -0.7716 -0.2422  0.2625
 4113TIP3   OH233829   5.624   1.817  13.231 -0.0571  0.1143 -0.1557
 4113TIP3    H133830   5.629   1.814  13.326  0.4302 -1.6290 -0.2035
 4113TIP3    H233831   5.714   1.827  13.202 -0.0924 -0.3819 -0.4492
 4114TIP3   OH233832   6.184   0.169   1.381 -0.6969 -0.5387 -0.8045
 4114TIP3    H133833   6.183   0.083   1.423 -0.1989  0.3111  1.0640
 4114TIP3    H233834   6.134   0.225   1.440  1.5200  1.1162 -0.3675
 4115TIP3   OH233835   0.419   2.442   3.923  0.1418  0.1863  0.0223
 4115TIP3    H133836   0.344   2.473   3.872 -1.7773 -1.0943  1.9388
 4115TIP3    H233837   0.439   2.514   3.983 -1.0122 -0.2601  0.9839
 4116TIP3   OH233838   0.371   3.651   5.333 -0.5222  0.2593 -0.2296
 4116TIP3    H133839   0.404   3.628   5.246  1.3315 -0.2037  0.5584
 4116TIP3    H233840   0.348   3.567   5.373 -2.1466  0.5241 -0.5186
 4117TIP3   OH233841   4.940   1.464   3.600 -0.6075  0.0435  0.3246
 4117TIP3    H133842   4.912   1.379   3.565  1.6257 -1.4378  1.8663
 4117TIP3    H233843   4.963   1.446   3.691  0.7377  2.1318  0.4685
 4118TIP3   OH233844   3.849   3.331  15.261 -0.8215 -0.6878 -0.2323
 4118TIP3    H133845   3.909   3.258  15.275 -1.4191 -1.1681 -0.1555
 4118TIP3    H233846   3.779   3.318  15.325 -1.8477 -1.0440 -1.3847
 4119TIP3   OH233847   6.378   1.949   5.573 -0.0652  0.5449 -0.3553
 4119TIP3    H133848   6.422   1.882   5.625  0.9690  0.5592 -1.1705
 4119TIP3    H233849   6.307   1.981   5.629 -0.3537 -0.9619  0.1898
 4120TIP3   OH233850   4.093   3.206   2.042 -0.4538 -0.5335  0.1164
 4120TIP3    H133851   4.057   3.205   1.953  0.2110  0.4642 -0.1922
 4120TIP3    H233852   4.161   3.139   2.041 -0.7419 -0.8264  0.0028
 4121TIP3   OH233853   0.382   6.312   1.087  0.5360  0.3403 -0.0136
 4121TIP3    H133854   0.379   6.336   1.180 -0.0946 -0.3882  0.1667
 4121TIP3    H233855   0.470   6.335   1.059  0.4205  1.4956  0.5060
 4122TIP3   OH233856   2.562   6.520   2.384 -0.1944  0.6191 -0.2959
 4122TIP3    H133857   2.590   6.511   2.292 -1.6975 -2.6174 -0.5557
 4122TIP3    H233858   2.479   6.567   2.379 -1.2214 -1.1814 -0.8482
 4123TIP3   OH233859   2.801   4.969   5.296  0.0699 -0.3013  0.0049
 4123TIP3    H133860   2.853   5.049   5.298 -0.7271  0.2452 -0.5280
 4123TIP3    H233861   2.713   4.997   5.320 -0.5542 -0.7349 -1.6444
 4124TIP3   OH233862   5.144   3.909  15.646 -0.0829  0.8303  0.1818
 4124TIP3    H133863   5.169   3.870  15.730  0.6018  2.1624  0.6176
 4124TIP3    H233864   5.143   3.835  15.585  1.1376  0.1022  0.9947
 4125TIP3   OH233865   0.495   4.150  15.912 -0.5347 -0.2556 -0.5152
 4125TIP3    H133866   0.563   4.139  15.845  0.5190 -0.1926  0.5155
 4125TIP3    H233867   0.478   4.244  15.913  2.1367  0.3134  1.8032
 4126TIP3   OH233868   0.598   6.429   3.767 -0.2551 -0.2945  0.3053
 4126TIP3    H133869   0.578   6.522   3.780  0.2187 -0.1201 -0.1287
 4126TIP3    H233870   0.514   6.385   3.770 -0.4601  0.1225  0.7636
 4127TIP3   OH233871   0.398   2.784   0.980  0.3859  0.4515  0.0141
 4127TIP3    H133872   0.333   2.714   0.988 -0.5863  1.3119 -0.0704
 4127TIP3    H233873   0.379   2.842   1.054  2.9730 -0.7506  1.7648
 4128TIP3   OH233874   5.935   0.425  11.045 -0.5093 -0.4312  0.3840
 4128TIP3    H133875   5.989   0.484  10.992  0.5709 -1.6742  0.0356
 4128TIP3    H233876   5.974   0.430  11.133  0.6555 -1.8113 -0.0076
 4129TIP3   OH233877   6.454   2.803   1.686 -0.4805  0.7952 -0.3529
 4129TIP3    H133878   6.415   2.828   1.603 -1.2191 -2.2473 -1.0250
 4129TIP3    H233879   6.547   2.791   1.666 -0.5832  0.4745 -0.6419
 4130TIP3   OH233880   5.100   4.318   5.610  0.5870  0.0130 -0.0777
 4130TIP3    H133881   5.076   4.310   5.703  1.2184 -0.9760  0.0091
 4130TIP3    H233882   5.022   4.287   5.563  0.0676  1.0084  0.0885
 4131TIP3   OH233883   6.531   0.664   4.512  0.0362  0.1981 -0.1239
 4131TIP3    H133884   6.611   0.675   4.562 -0.6358  1.1891  0.7925
 4131TIP3    H233885   6.461   0.683   4.575 -0.9468 -1.1195 -0.7666
 4132TIP3   OH233886   0.899   1.740  13.079  0.3173  0.4056 -0.1945
 4132TIP3    H133887   0.982   1.714  13.038  1.3510  0.6621  1.6223
 4132TIP3    H233888   0.887   1.831  13.053  0.7643  0.4578 -0.2297
 4133TIP3   OH233889   6.174   2.189   0.114  0.0552 -0.1829  0.1744
 4133TIP3    H133890   6.140   2.271   0.150 -3.1021 -1.2025 -0.1362
 4133TIP3    H233891   6.227   2.152   0.183  0.9365  1.7314  0.5957
 4134TIP3   OH233892   6.598   1.928   2.703 -0.0987  0.6696  0.0530
 4134TIP3    H133893   6.554   1.906   2.621  0.2921  1.7702 -0.4583
 4134TIP3    H233894   6.615   2.022   2.697  0.2710  0.6897  1.2338
 4135TIP3   OH233895   4.791   5.535  11.324  0.3974  0.3066 -0.0453
 4135TIP3    H133896   4.741   5.466  11.369 -0.8771  1.3948  0.2821
 4135TIP3    H233897   4.732   5.566  11.256  0.5279  1.7690  0.4801
 4136TIP3   OH233898   4.759   3.577  12.511  0.6725 -0.4747 -0.7014
 4136TIP3    H133899   4.682   3.522  12.494  0.2433  0.1143 -0.6771
 4136TIP3    H233900   4.742   3.616  12.597  0.4195  0.6234 -1.2387
 4137TIP3   OH233901   3.569   2.006   3.981  0.5811 -0.6116 -0.6804
 4137TIP3    H133902   3.640   1.952   3.948  0.4694 -0.5401 -1.0392
 4137TIP3    H233903   3.490   1.953   3.968  0.5994 -0.8239  0.0112
 4138TIP3   OH233904   1.407   4.546   3.738  0.2570  0.2726 -0.0994
 4138TIP3    H133905   1.425   4.578   3.827 -2.8118  1.4395  0.1967
 4138TIP3    H233906   1.451   4.609   3.681 -0.8191  1.7051  0.5868
 4139TIP3   OH233907   2.243   5.688   6.490 -0.3772 -0.1515 -0.0769
 4139TIP3    H133908   2.337   5.696   6.501 -0.5919  0.5956  1.5878
 4139TIP3    H233909   2.220   5.755   6.426 -0.0765  1.6573  1.5971
 4140TIP3   OH233910   2.578   1.754   4.007 -0.2497 -0.6648 -0.3081
 4140TIP3    H133911   2.605   1.846   3.995 -0.7912 -0.4898 -0.2080
 4140TIP3    H233912   2.657   1.704   3.987  0.2900 -0.1419  0.4486
 4141TIP3   OH233913   3.233   1.006  15.867  0.1443  0.5448 -0.2629
 4141TIP3    H133914   3.190   1.025  15.783 -0.4589  0.0133 -0.0816
 4141TIP3    H233915   3.261   0.915  15.859 -1.1456  0.0488  0.6217
 4142TIP3   OH233916   3.526   6.802   6.377 -0.3681  0.2824  0.2006
 4142TIP3    H133917   3.533   6.838   6.465  2.5693 -1.6351  0.8729
 4142TIP3    H233918   3.562   6.869   6.320  0.1750  0.4920  0.7874
 4143TIP3   OH233919   4.804   2.381  12.374 -0.2278 -0.3036 -0.2782
 4143TIP3    H133920   4.810   2.297  12.419  0.2691 -0.1200  0.0021
 4143TIP3    H233921   4.721   2.419  12.403  0.5398  0.2630  1.2684
 4144TIP3   OH233922   4.895   4.955  14.660  0.0281  0.1827  0.6617
 4144TIP3    H133923   4.926   4.962  14.750  0.6549  0.7969  0.4044
 4144TIP3    H233924   4.924   5.036  14.618 -1.4707  0.5664  0.2718
 4145TIP3   OH233925   2.294   4.167   4.033  0.5043 -0.6061  0.6506
 4145TIP3    H133926   2.250   4.083   4.045 -2.8157  0.6623 -1.4957
 4145TIP3    H233927   2.307   4.174   3.939 -0.2879  1.7039  0.6638
 4146TIP3   OH233928   2.989   4.289   5.515 -0.2029  0.2874 -0.9839
 4146TIP3    H133929   2.944   4.297   5.431 -1.9391 -0.1686 -0.1426
 4146TIP3    H233930   2.998   4.380   5.545 -2.3643  0.3503 -0.3133
 4147TIP3   OH233931   2.917   3.422   1.743 -0.1682  0.3442 -0.4989
 4147TIP3    H133932   2.870   3.453   1.666 -0.9469  0.4727  0.0169
 4147TIP3    H233933   3.009   3.423   1.717 -0.3851  0.7955 -1.2775
 4148TIP3   OH233934   2.020   3.595   0.663  0.3886  0.0550 -0.1068
 4148TIP3    H133935   1.968   3.519   0.688  1.3399 -0.5233  0.1751
 4148TIP3    H233936   1.999   3.610   0.571 -0.5225  0.0495  0.0908
 4149TIP3   OH233937   4.623   1.477  12.021  0.1202 -0.3972 -0.4459
 4149TIP3    H133938   4.598   1.542  12.087  1.5108  1.8094 -1.9403
 4149TIP3    H233939   4.570   1.501  11.944  0.9596 -0.7728 -1.1456
 4150TIP3   OH233940   4.401   5.889  12.619  0.4172 -0.4312 -0.1004
 4150TIP3    H133941   4.436   5.945  12.550  0.4735 -3.2338 -2.4928
 4150TIP3    H233942   4.477   5.867  12.673  0.4680  1.3185  0.6164
 4151TIP3   OH233943   6.567   1.033  16.064  0.0792 -0.0813  0.1886
 4151TIP3    H133944   6.476   1.031  16.036  0.7790  1.0921 -2.4996
 4151TIP3    H233945   6.597   0.942  16.053 -0.6324 -0.3970  0.7387
 4152TIP3   OH233946   5.388   0.455   2.991  0.0180 -0.3998  0.2966
 4152TIP3    H133947   5.332   0.527   2.960 -0.2183 -0.7676 -0.1332
 4152TIP3    H233948   5.327   0.394   3.032  0.3733  0.3390  2.0410
 4153TIP3   OH233949   5.002   3.500   0.841  0.3344  0.4007  0.8871
 4153TIP3    H133950   4.972   3.414   0.814 -0.5350  1.1857 -0.7717
 4153TIP3    H233951   4.922   3.546   0.869  0.8972  0.4098  2.6652
 4154TIP3   OH233952   2.715   5.892   1.229  0.3062 -0.1751 -0.0982
 4154TIP3    H133953   2.649   5.825   1.210 -0.5269  0.5141  0.3077
 4154TIP3    H233954   2.669   5.975   1.217  1.4162  0.3444 -0.9351
 4155TIP3   OH233955   5.493   3.917   2.845  0.1213  0.1539  0.3002
 4155TIP3    H133956   5.564   3.951   2.791  0.1938 -0.1576  0.1980
 4155TIP3    H233957   5.485   3.980   2.917 -1.1946  1.5951 -1.0151
 4156TIP3   OH233958   4.367   0.584   2.752  0.0207 -0.4508  0.2971
 4156TIP3    H133959   4.460   0.606   2.738 -0.3758  1.6376  0.5867
 4156TIP3    H233960   4.362   0.561   2.845  0.0677  0.7358  0.6174
 4157TIP3   OH233961   5.019   1.040   4.734  0.3458  0.6206 -0.0871
 4157TIP3    H133962   4.985   1.061   4.821  1.5009  0.2199  0.4881
 4157TIP3    H233963   4.962   1.088   4.674 -1.1134  0.0773  0.8136
 4158TIP3   OH233964   5.206   6.164  11.333  0.0131 -0.8648  0.1386
 4158TIP3    H133965   5.290   6.209  11.321  0.8362 -1.7301  2.2716
 4158TIP3    H233966   5.190   6.123  11.248  1.7830 -0.7217 -0.3192
 4159TIP3   OH233967   6.257   3.856  12.576  0.0480  0.3254 -0.4381
 4159TIP3    H133968   6.318   3.796  12.618 -1.0484 -1.6932 -1.5911
 4159TIP3    H233969   6.254   3.827  12.484 -1.0950  1.6641 -0.8564
 4160TIP3   OH233970   6.057   1.534   4.558  0.0124  0.0081  0.7419
 4160TIP3    H133971   6.108   1.458   4.532  0.9428  0.4787  1.1311
 4160TIP3    H233972   5.969   1.517   4.526  0.2877 -1.0782  0.5496
 4161TIP3   OH233973   2.947   5.375  10.992  0.5112 -0.0480 -0.3090
 4161TIP3    H133974   2.965   5.303  10.931  1.2855 -0.2373  0.1319
 4161TIP3    H233975   2.968   5.454  10.942 -0.4530 -0.1108 -0.8334
 4162TIP3   OH233976   4.536   1.740  14.668  0.0575 -0.5537  0.2601
 4162TIP3    H133977   4.565   1.829  14.687 -0.9508 -0.1155 -0.1830
 4162TIP3    H233978   4.453   1.751  14.622  0.2586 -1.7049 -0.4223
 4163TIP3   OH233979   4.456   2.517   2.699  0.3345 -0.0910  0.0730
 4163TIP3    H133980   4.491   2.578   2.634 -1.1084 -0.0749 -0.7295
 4163TIP3    H233981   4.522   2.516   2.768  2.0015 -0.1850 -1.4179
 4164TIP3   OH233982   1.698   0.726  15.894  0.9761  0.6866  0.3431
 4164TIP3    H133983   1.605   0.745  15.897  0.1477 -2.6852  3.4082
 4164TIP3    H233984   1.738   0.792  15.950 -0.1323  0.2800  1.6810
 4165TIP3   OH233985   5.176   5.663   1.825 -0.5227 -0.1310  0.3470
 4165TIP3    H133986   5.213   5.744   1.860  0.8955 -0.6095  0.0607
 4165TIP3    H233987   5.218   5.594   1.877  0.8885 -0.8084 -1.5652
 4166TIP3   OH233988   0.820   0.298  10.806 -0.0957  0.1306 -0.3399
 4166TIP3    H133989   0.757   0.331  10.870  0.6861 -1.2993  1.2711
 4166TIP3    H233990   0.767   0.276  10.730 -1.1846  1.1966  0.0809
 4167TIP3   OH233991   4.309   2.435  11.090 -0.0151 -0.3399  0.1157
 4167TIP3    H133992   4.397   2.406  11.069  0.7849  0.9749  1.4504
 4167TIP3    H233993   4.315   2.531  11.091 -1.6720 -0.1866 -0.6115
 4168TIP3   OH233994   2.722   1.548  16.824 -0.4075 -0.0203 -0.1838
 4168TIP3    H133995   2.702   1.564  16.732 -0.1645 -0.4358 -0.3099
 4168TIP3    H233996   2.769   1.464  16.825 -1.1737 -0.4603  0.4005
 4169TIP3   OH233997   6.377   6.776  16.457  0.0731 -0.0225  0.4009
 4169TIP3    H133998   6.312   6.712  16.429 -0.1820  1.0914 -1.8443
 4169TIP3    H233999   6.337   6.861  16.434  1.9391  0.7282 -0.2382
 4170TIP3   OH234000   4.775   0.018   5.257 -0.5545 -0.0883  0.2235
 4170TIP3    H134001   4.805   0.060   5.176  0.2217  1.7285  1.3992
 4170TIP3    H234002   4.800  -0.074   5.247 -1.5835 -0.1898 -2.1043
 4171TIP3   OH234003   3.672   4.076  12.360 -0.2450  0.4581 -0.1129
 4171TIP3    H134004   3.745   4.044  12.307  0.8392  3.2898 -0.4718
 4171TIP3    H234005   3.594   4.038  12.318  0.8944 -2.7546  0.3693
 4172TIP3   OH234006   6.764   4.271   2.839 -0.1513 -0.0705  0.5962
 4172TIP3    H134007   6.743   4.180   2.818  0.9566 -0.5461  1.4924
 4172TIP3    H234008   6.763   4.275   2.934  1.2990  0.4783  0.6068
 4173TIP3   OH234009   0.553   1.078   5.682 -0.3006  0.4629 -0.4493
 4173TIP3    H134010   0.603   1.138   5.626  0.2234 -0.0397 -0.5365
 4173TIP3    H234011   0.612   1.004   5.695 -0.8377  0.0890 -0.1216
 4174TIP3   OH234012   2.665   2.314   4.778 -0.1921 -0.1952  0.5750
 4174TIP3    H134013   2.635   2.342   4.864 -0.8013  1.1087 -0.0348
 4174TIP3    H234014   2.747   2.267   4.795  0.9501  2.0650  1.6672
 4175TIP3   OH234015   0.269   2.510  10.677  0.4627 -0.0654  0.2493
 4175TIP3    H134016   0.282   2.464  10.760  2.1547 -1.1574 -0.5719
 4175TIP3    H234017   0.345   2.567  10.668 -0.1699  0.7511 -0.1414
 4176TIP3   OH234018   1.384   4.258   1.106 -0.0973 -0.4125  0.3612
 4176TIP3    H134019   1.407   4.165   1.114 -2.0231 -1.1439 -1.5314
 4176TIP3    H234020   1.336   4.277   1.186 -1.8838 -1.8235 -0.3038
 4177TIP3   OH234021   3.893   2.865   0.160 -0.0729  0.3714 -0.1759
 4177TIP3    H134022   3.823   2.865   0.226 -0.3543 -1.1448 -0.4212
 4177TIP3    H234023   3.847   2.853   0.077  0.3428  1.4690 -0.5790
 4178TIP3   OH234024   5.234   4.293  10.936  0.1556 -0.1815  0.2086
 4178TIP3    H134025   5.169   4.356  10.904  0.3145 -1.2002 -2.3274
 4178TIP3    H234026   5.184   4.214  10.953  0.5275 -0.6023 -0.5993
 4179TIP3   OH234027   5.756   3.800   5.245 -0.0505 -0.1915  0.0100
 4179TIP3    H134028   5.846   3.817   5.221 -0.0709 -1.6146 -1.1972
 4179TIP3    H234029   5.704   3.832   5.172 -0.5296  0.4475  0.6113
 4180TIP3   OH234030   3.967   3.303  10.593  0.2608  0.1975 -0.0888
 4180TIP3    H134031   4.019   3.302  10.512 -0.2229  1.7591 -0.4572
 4180TIP3    H234032   3.947   3.396  10.607 -2.2020 -0.3139  0.1734
 4181TIP3   OH234033   0.767   4.458   2.605 -0.2536  0.1369  0.4896
 4181TIP3    H134034   0.792   4.479   2.514 -1.1634 -0.2217  0.1501
 4181TIP3    H234035   0.790   4.366   2.615 -1.7196 -0.3033  0.0532
 4182TIP3   OH234036   3.912   4.354  13.702  0.2119  0.2011 -0.0799
 4182TIP3    H134037   3.950   4.277  13.661 -0.2729 -0.0549 -0.0569
 4182TIP3    H234038   3.958   4.428  13.662  0.0154 -0.0628 -0.7992
 4183TIP3   OH234039   3.414   3.808  10.375 -0.5953 -0.3929  0.5115
 4183TIP3    H134040   3.486   3.745  10.381 -0.7843 -0.4620  4.5145
 4183TIP3    H234041   3.457   3.893  10.364 -0.1930 -0.8271 -1.6187
 4184TIP3   OH234042   1.583   1.518  12.785  0.3799 -0.2000 -0.5625
 4184TIP3    H134043   1.499   1.473  12.779  0.7400 -1.0805  0.7057
 4184TIP3    H234044   1.563   1.598  12.834  0.4755 -0.9578  0.7384
 4185TIP3   OH234045   2.158   3.147   4.492 -0.5245  0.2537  0.2100
 4185TIP3    H134046   2.185   3.090   4.564 -0.7078 -2.2395 -1.5540
 4185TIP3    H234047   2.178   3.236   4.522  0.9252 -0.8008  2.6271
 4186TIP3   OH234048   5.997   2.591   1.461  0.4897 -0.2187  0.0837
 4186TIP3    H134049   5.935   2.560   1.395  0.7966 -0.6062 -0.0284
 4186TIP3    H234050   5.946   2.593   1.542 -0.1920  1.3389 -0.3615
 4187TIP3   OH234051   6.171   4.863  16.939  0.3050 -0.4968 -1.1110
 4187TIP3    H134052   6.095   4.824  16.896  0.9914 -0.6707 -2.2116
 4187TIP3    H234053   6.223   4.789  16.969 -1.1599 -0.4323  2.0122
 4188TIP3   OH234054   5.533   3.103  15.601  0.1732 -0.2240 -0.2513
 4188TIP3    H134055   5.469   3.125  15.667 -0.2180  2.4808 -1.3986
 4188TIP3    H234056   5.542   3.182  15.548  0.5344 -2.1512 -3.3783
 4189TIP3   OH234057   3.643   4.793  13.823 -0.3079  0.1113  0.0081
 4189TIP3    H134058   3.570   4.731  13.834 -0.6424  0.5147  0.0758
 4189TIP3    H234059   3.690   4.789  13.906 -0.0677 -0.3803 -0.1461
 4190TIP3   OH234060   3.927   0.945  15.804 -0.4577 -0.0194 -0.2813
 4190TIP3    H134061   3.984   0.874  15.833  0.6446 -0.5640 -3.3968
 4190TIP3    H234062   3.986   1.020  15.795 -0.3774 -0.3085 -2.5283
 4191TIP3   OH234063   0.929   6.009  16.363 -0.2556  0.2620 -0.2517
 4191TIP3    H134064   0.917   5.978  16.273 -0.2134 -0.0014 -0.1672
 4191TIP3    H234065   0.943   6.103  16.354  0.1616  0.1725 -0.5566
 4192TIP3   OH234066   3.981   4.069   1.675 -0.6440 -0.2755 -0.1966
 4192TIP3    H134067   3.908   4.055   1.735 -0.8233 -1.2428 -0.6133
 4192TIP3    H234068   3.997   3.983   1.636 -0.2742  0.2367 -1.2334
 4193TIP3   OH234069   1.010   0.178   0.960  0.7285  0.1015 -0.1664
 4193TIP3    H134070   0.956   0.250   0.993  1.3942  0.5500 -0.0421
 4193TIP3    H234071   0.999   0.109   1.026 -0.6386 -0.2771 -0.7446
 4194TIP3   OH234072   1.297   2.847  16.890 -0.3519  0.4637  0.0981
 4194TIP3    H134073   1.360   2.915  16.866 -0.1617 -0.3600 -1.9852
 4194TIP3    H234074   1.317   2.826  16.981  0.9204  1.7597  0.1456
 4195TIP3   OH234075   2.027   5.066   1.497  0.5982  0.4089  0.1738
 4195TIP3    H134076   1.988   5.009   1.430  2.1908 -0.1604 -0.3064
 4195TIP3    H234077   2.086   5.009   1.546  0.9477  1.2743  0.7922
 4196TIP3   OH234078   3.655   0.238   2.821  0.1718 -0.1372 -0.3169
 4196TIP3    H134079   3.679   0.145   2.814  0.3058 -0.0263 -1.3765
 4196TIP3    H234080   3.737   0.282   2.844  0.8244  0.1020 -2.8877
 4197TIP3   OH234081   6.449   2.685  16.112 -0.2451  0.0966  0.5789
 4197TIP3    H134082   6.519   2.635  16.070 -0.6724 -0.0478  0.0118
 4197TIP3    H234083   6.494   2.749  16.167  0.3381  0.1603  0.0458
 4198TIP3   OH234084   1.520   1.781   0.324 -0.0998  0.3029 -0.2711
 4198TIP3    H134085   1.515   1.837   0.246 -0.2388 -1.0758 -1.2773
 4198TIP3    H234086   1.462   1.707   0.305  0.8979 -0.7308  0.5767
 4199TIP3   OH234087   1.991   6.686   5.976 -0.1715 -0.0500 -0.4137
 4199TIP3    H134088   1.971   6.615   6.037 -4.1175 -1.3422 -2.8680
 4199TIP3    H234089   2.007   6.643   5.892 -0.3283  1.8672 -1.5045
 4200TIP3   OH234090   5.503   5.885  14.849  0.2526 -0.4643 -0.6466
 4200TIP3    H134091   5.430   5.911  14.792  0.5385 -0.8034 -1.1748
 4200TIP3    H234092   5.462   5.831  14.917 -0.2104  0.5939 -0.0545
 4201TIP3   OH234093   6.344   4.894   4.463 -0.4829  0.8907  0.3462
 4201TIP3    H134094   6.406   4.947   4.413  0.1865 -0.4636 -0.3075
 4201TIP3    H234095   6.344   4.935   4.550  1.6232  0.7328  0.4748
 4202TIP3   OH234096   3.037   2.590   0.959  0.4760 -0.1248 -0.3948
 4202TIP3    H134097   3.113   2.645   0.940  2.7711 -2.5016  1.2422
 4202TIP3    H234098   3.009   2.616   1.046 -1.8410  1.9402 -1.6443
 4203TIP3   OH234099   5.264   4.528  13.871  0.1333  0.6430 -0.3168
 4203TIP3    H134100   5.279   4.574  13.789  0.6441  0.6134 -0.2467
 4203TIP3    H234101   5.333   4.560  13.929 -0.3837  0.8593  0.1835
 4204TIP3   OH234102   2.196   5.869  11.360  0.1150  0.2800  0.1455
 4204TIP3    H134103   2.166   5.845  11.448  0.0119  2.4025  0.7486
 4204TIP3    H234104   2.290   5.884  11.371 -0.0247  1.2778  0.1041
 4205TIP3   OH234105   6.569   1.497  12.766 -0.1007 -0.3707 -0.4184
 4205TIP3    H134106   6.535   1.513  12.678 -1.4918 -0.1377  0.1365
 4205TIP3    H234107   6.509   1.543  12.824 -0.3101 -2.0587  0.7846
 4206TIP3   OH234108   5.388   4.362  12.046  0.3315 -0.8805 -0.5629
 4206TIP3    H134109   5.480   4.337  12.049  0.7642  0.6076 -0.4165
 4206TIP3    H234110   5.374   4.394  11.957 -0.8696 -3.8426 -1.5458
 4207TIP3   OH234111   2.548   5.267  14.146 -0.5156  0.0366  0.1378
 4207TIP3    H134112   2.458   5.235  14.144 -0.5496  0.1441 -0.0717
 4207TIP3    H234113   2.581   5.240  14.232 -0.6409 -0.2956  0.0859
 4208TIP3   OH234114   3.815   1.360  15.623  0.1143 -0.3450 -0.0197
 4208TIP3    H134115   3.833   1.452  15.644  0.8186 -0.1538 -1.3456
 4208TIP3    H234116   3.901   1.323  15.605 -0.3384 -0.7550 -1.4219
 4209TIP3   OH234117   1.795   3.467   4.181  0.2126 -0.8242 -0.0511
 4209TIP3    H134118   1.878   3.436   4.143 -0.1075 -1.0780 -0.5473
 4209TIP3    H234119   1.765   3.535   4.120  0.3330 -0.3402  0.4236
 4210TIP3   OH234120   2.211   6.198  16.776 -0.2559 -0.0119  0.1869
 4210TIP3    H134121   2.228   6.249  16.855 -0.1292  0.0407  0.1248
 4210TIP3    H234122   2.122   6.222  16.751 -0.7677 -0.9605  1.0205
 4211TIP3   OH234123   4.735   6.491   4.420  0.0519  0.0746  0.3744
 4211TIP3    H134124   4.687   6.514   4.340  0.0114 -1.2610 -0.0109
 4211TIP3    H234125   4.719   6.397   4.431 -0.9567  0.4493  2.6480
 4212TIP3   OH234126   1.751   1.538  15.865 -0.1122 -0.4047 -0.0726
 4212TIP3    H134127   1.803   1.552  15.944  0.9532  0.7920 -0.9417
 4212TIP3    H234128   1.760   1.619  15.816 -0.3102 -1.3131 -1.6781
 4213TIP3   OH234129   4.369   0.869   5.457 -0.3356 -0.2341 -0.8294
 4213TIP3    H134130   4.410   0.782   5.458 -0.7553 -0.4539  0.4877
 4213TIP3    H234131   4.440   0.930   5.476  0.4799  0.0425 -4.1734
 4214TIP3   OH234132   2.337   4.633  12.612 -0.2132 -0.2166  0.0943
 4214TIP3    H134133   2.372   4.544  12.618 -0.4584 -0.2234  1.8564
 4214TIP3    H234134   2.413   4.687  12.591  0.4275 -0.5466  1.4666
 4215TIP3   OH234135   3.729   6.835   6.044  0.2090  0.5588  0.1600
 4215TIP3    H134136   3.764   6.774   6.109  1.5252  0.9563 -0.1473
 4215TIP3    H234137   3.695   6.908   6.097 -1.1432 -0.2849  0.5136
 4216TIP3   OH234138   0.305   4.616  15.617 -0.1632  0.0427 -0.4006
 4216TIP3    H134139   0.371   4.658  15.562 -0.0097 -2.7188 -2.5209
 4216TIP3    H234140   0.225   4.665  15.601  1.1249  3.4654  2.2086
 4217TIP3   OH234141   0.215   3.841   3.383  0.0798 -0.6039 -0.3240
 4217TIP3    H134142   0.199   3.933   3.362 -0.5698 -0.9974 -1.6485
 4217TIP3    H234143   0.289   3.816   3.328  2.1286 -0.1712  2.0614
 4218TIP3   OH234144   6.675   1.809   6.324 -0.1001 -0.1780 -0.9065
 4218TIP3    H134145   6.686   1.873   6.394 -1.1624 -1.0455  0.0913
 4218TIP3    H234146   6.678   1.861   6.244  1.0888  0.8440 -0.2353
 4219TIP3   OH234147   3.712   3.789  15.100  0.4241  0.7147  0.1362
 4219TIP3    H134148   3.638   3.793  15.040  0.3899  1.6206  0.2130
 4219TIP3    H234149   3.779   3.739  15.054 -0.6762 -1.2376  0.5857
 4220TIP3   OH234150   0.835   5.784  13.676 -0.0253 -0.0121 -0.0433
 4220TIP3    H134151   0.827   5.714  13.612 -0.0978  0.4900 -0.5915
 4220TIP3    H234152   0.748   5.824  13.678  0.5174  1.3349 -1.2275
 4221TIP3   OH234153   0.982   4.156  15.858  0.8724 -0.4413 -0.0922
 4221TIP3    H134154   0.977   4.069  15.817  0.4205  0.5381 -2.2563
 4221TIP3    H234155   0.892   4.185  15.864  0.8919 -0.6279  1.9496
 4222TIP3   OH234156   1.306   0.727  12.915  0.1110  0.1813  0.0190
 4222TIP3    H134157   1.397   0.745  12.889 -0.3871  1.0674 -1.2356
 4222TIP3    H234158   1.299   0.762  13.003  1.5286 -1.7760  0.9980
 4223TIP3   OH234159   1.241   1.924  12.499 -0.1272 -0.3395  0.3244
 4223TIP3    H134160   1.206   1.946  12.585  1.1998  1.6394  0.4207
 4223TIP3    H234161   1.295   1.846  12.514  1.7779  1.1574  1.7898
 4224TIP3   OH234162   5.744   0.417  15.825 -0.4587  0.5468  0.1251
 4224TIP3    H134163   5.766   0.337  15.873  0.4031  0.7694  0.1308
 4224TIP3    H234164   5.729   0.389  15.735  1.3778  0.5511 -0.2163
 4225TIP3   OH234165   6.496   3.877  11.047  0.3245 -0.7082  0.5628
 4225TIP3    H134166   6.402   3.873  11.028  0.0704 -1.3616  1.8708
 4225TIP3    H234167   6.525   3.786  11.047  1.0967 -0.4796 -0.4069
 4226TIP3   OH234168   1.948   4.939   1.273  0.5946 -0.4315 -0.1603
 4226TIP3    H134169   1.859   4.950   1.240  0.4274 -1.1369  0.0410
 4226TIP3    H234170   1.955   4.845   1.293  1.3049 -0.3418  0.0392
 4227TIP3   OH234171   0.972   3.941  13.829  0.3526  0.1994 -0.1214
 4227TIP3    H134172   1.025   4.012  13.866 -0.5664  1.2677 -0.7981
 4227TIP3    H234173   0.902   3.929  13.893  1.6005 -1.5505  1.0204
 4228TIP3   OH234174   3.584   4.590  11.573  0.5635  0.6822 -0.0816
 4228TIP3    H134175   3.674   4.558  11.566 -0.0720 -1.3283  0.2883
 4228TIP3    H234176   3.565   4.587  11.667 -1.0932 -2.6944 -0.3874
 4229TIP3   OH234177   3.386   0.175   2.749 -0.1918  0.1290 -0.2047
 4229TIP3    H134178   3.463   0.212   2.794  0.0569  1.2369 -1.4738
 4229TIP3    H234179   3.314   0.233   2.775 -0.2712  0.0729 -0.3007
 4230TIP3   OH234180   0.953   2.221   3.819 -0.0206 -0.0735  0.1062
 4230TIP3    H134181   0.934   2.187   3.906 -0.6650 -2.1727 -0.7751
 4230TIP3    H234182   0.868   2.218   3.774  0.3972  0.4890 -0.7456
 4231TIP3   OH234183   3.632   1.504   5.922 -0.0822 -0.6400  0.1313
 4231TIP3    H134184   3.596   1.441   5.985 -1.1144 -1.1295 -0.9200
 4231TIP3    H234185   3.674   1.449   5.855  3.4080 -0.1173  1.6536
 4232TIP3   OH234186   6.375   4.522   5.982  0.6383  0.1432  0.0914
 4232TIP3    H134187   6.362   4.427   5.979 -1.7424  0.3644  1.0676
 4232TIP3    H234188   6.310   4.557   5.921  0.8885  1.1923  0.4053
 4233TIP3   OH234189   6.503   2.285   5.225 -0.0131 -0.1014  0.5852
 4233TIP3    H134190   6.486   2.278   5.319  0.1954 -1.0006  0.5719
 4233TIP3    H234191   6.598   2.282   5.217  0.0969  2.2500  0.4778
 4234TIP3   OH234192   2.897   4.983  12.160  0.9665  0.3380 -0.0815
 4234TIP3    H134193   2.882   4.933  12.079  0.1037  0.8146 -0.2328
 4234TIP3    H234194   2.925   5.069  12.130  1.5951  0.2165  0.1568
 4235TIP3   OH234195   5.071   5.641   4.106 -0.1375 -0.0045 -0.2435
 4235TIP3    H134196   5.142   5.700   4.129  1.0355 -1.3443 -0.2860
 4235TIP3    H234197   5.024   5.686   4.036 -0.6946  1.8774  1.2578
 4236TIP3   OH234198   3.639   6.412  16.683 -0.3650  0.6758 -0.1680
 4236TIP3    H134199   3.690   6.425  16.603  0.3333  0.5391  0.2455
 4236TIP3    H234200   3.640   6.318  16.697  1.2116  0.8272  1.0583
 4237TIP3   OH234201   4.922   6.528  11.680  0.3076 -0.1332  0.3921
 4237TIP3    H134202   4.962   6.475  11.612 -1.6385  0.1112 -1.0516
 4237TIP3    H234203   4.829   6.532  11.655 -0.0215  2.0246  1.6999
 4238TIP3   OH234204   3.173   3.177  16.489 -0.5757 -0.0108  0.0813
 4238TIP3    H134205   3.125   3.236  16.431 -0.1309  0.2930  0.0125
 4238TIP3    H234206   3.244   3.142  16.434 -0.6870 -0.4143  0.1926
 4239TIP3   OH234207   1.539   1.085  11.054 -0.3064 -0.1380  0.6773
 4239TIP3    H134208   1.524   0.991  11.055  0.4240 -0.3402 -1.6240
 4239TIP3    H234209   1.567   1.104  10.964  0.1166  2.1887  1.2343
 4240TIP3   OH234210   1.342   6.750   3.560  0.2805 -0.4482  0.6475
 4240TIP3    H134211   1.369   6.698   3.635  1.5719 -0.9492 -0.1229
 4240TIP3    H234212   1.412   6.814   3.548 -0.3119  0.1609  0.3697
 4241TIP3   OH234213   4.071   2.712   2.467 -0.6238  0.0678 -0.0288
 4241TIP3    H134214   4.162   2.729   2.491 -0.3138 -0.4106 -0.8505
 4241TIP3    H234215   4.066   2.732   2.374 -1.5980  1.0059  0.2060
 4242TIP3   OH234216   5.887   0.270  14.228 -0.6490  0.0168  0.0479
 4242TIP3    H134217   5.967   0.222  14.249 -0.5372  0.8038  1.5789
 4242TIP3    H234218   5.821   0.232  14.285 -0.7893  0.9973  0.5477
 4243TIP3   OH234219   0.641   0.077   1.595  0.0716 -0.3375  0.2556
 4243TIP3    H134220   0.646   0.117   1.681  1.3220  0.0270  0.0239
 4243TIP3    H234221   0.547   0.061   1.582 -0.0763 -1.0117  1.9406
 4244TIP3   OH234222   3.876   0.206   4.402 -0.3135  0.4212  0.2008
 4244TIP3    H134223   3.915   0.141   4.461  2.3210  2.9473  1.4981
 4244TIP3    H234224   3.891   0.290   4.446 -1.6601  2.1257 -2.3542
 4245TIP3   OH234225   4.932   6.033   1.976 -0.1852  0.1241  0.6167
 4245TIP3    H134226   4.889   5.952   1.948  0.5028 -0.7033  1.8867
 4245TIP3    H234227   4.860   6.093   1.996 -0.7219 -0.6432  1.0212
 4246TIP3   OH234228   5.199   2.946   4.464  0.3057 -0.2035 -0.3959
 4246TIP3    H134229   5.264   2.929   4.396  1.4726 -2.4796  1.1679
 4246TIP3    H234230   5.246   2.995   4.532 -0.1923 -0.0810 -0.1284
 4247TIP3   OH234231   3.933   5.348   3.814 -0.0148  0.1932  0.3978
 4247TIP3    H134232   3.893   5.267   3.783  0.2070 -0.8379  2.5869
 4247TIP3    H234233   3.894   5.416   3.759 -2.5844 -1.0612  0.4874
 4248TIP3   OH234234   1.097   2.292   0.439 -0.0622  0.4810 -0.2847
 4248TIP3    H134235   1.167   2.227   0.444 -0.1568  0.4416  0.9662
 4248TIP3    H234236   1.031   2.252   0.382  0.0891 -0.3344  0.0875
 4249TIP3   OH234237   6.685   4.769  11.712  0.1438 -0.3871 -0.5006
 4249TIP3    H134238   6.629   4.784  11.788  1.6009  3.4697  0.0482
 4249TIP3    H234239   6.650   4.690  11.672 -2.2784 -1.1732  2.7265
 4250TIP3   OH234240   0.497   4.029  14.439  0.0756 -0.3048 -0.1802
 4250TIP3    H134241   0.465   3.970  14.371 -2.3196 -0.3544  0.8517
 4250TIP3    H234242   0.543   3.972  14.501  0.3186 -0.6098 -0.6384
 4251TIP3   OH234243   2.414   6.731  14.801 -0.0339 -0.2479  0.4334
 4251TIP3    H134244   2.418   6.638  14.824  0.4471 -0.3651 -0.0956
 4251TIP3    H234245   2.465   6.738  14.720  1.5038  0.7781  1.4277
 4252TIP3   OH234246   1.399   0.288   3.957 -0.0296  0.1347 -0.2080
 4252TIP3    H134247   1.383   0.322   4.045 -0.6973 -0.1893 -0.1954
 4252TIP3    H234248   1.336   0.335   3.902 -0.0428 -0.1143 -0.4049
 4253TIP3   OH234249   0.036   2.520  10.859 -0.4482 -0.3924 -0.4270
 4253TIP3    H134250   0.099   2.528  10.787 -0.9217 -1.6185 -1.0092
 4253TIP3    H234251  -0.008   2.604  10.862  0.4588  0.1108 -0.7245
 4254TIP3   OH234252   5.019   6.412  14.631  0.0139  0.3003  0.3388
 4254TIP3    H134253   4.972   6.329  14.625  0.5992 -0.0254  0.2128
 4254TIP3    H234254   4.957   6.472  14.673 -0.3168 -0.2762  0.6826
 4255TIP3   OH234255   6.544   4.060   5.884  0.5385  0.3311  0.3017
 4255TIP3    H134256   6.553   3.999   5.957 -0.3045 -0.4304 -0.2118
 4255TIP3    H234257   6.483   4.126   5.916 -0.7668 -0.6435 -0.0879
 4256TIP3   OH234258   5.292   6.732   0.012 -0.2464 -0.2323  0.8041
 4256TIP3    H134259   5.339   6.715  -0.070  3.0965  3.4221  1.6710
 4256TIP3    H234260   5.238   6.808  -0.007  2.2609  2.0834  2.3543
 4257TIP3   OH234261   3.817   4.108   4.625  0.1308 -0.5143 -0.5797
 4257TIP3    H134262   3.816   4.048   4.700  0.8394  0.2012  0.0316
 4257TIP3    H234263   3.724   4.127   4.609 -0.0063  0.4083  1.0430
 4258TIP3   OH234264   1.867   3.861  15.075 -0.2944  0.3248  0.0839
 4258TIP3    H134265   1.801   3.864  15.144  0.6877  1.5423  1.0052
 4258TIP3    H234266   1.949   3.882  15.119  0.7250 -1.0667 -1.0598
 4259TIP3   OH234267   6.038   1.855  11.334 -0.8574  0.2685  0.1459
 4259TIP3    H134268   5.991   1.905  11.401 -0.0339  1.2536  0.0236
 4259TIP3    H234269   5.977   1.848  11.261 -0.9873  1.1138  0.1675
 4260TIP3   OH234270   4.730   4.254  13.587 -0.3736 -0.1744 -0.3886
 4260TIP3    H134271   4.742   4.199  13.664 -0.3627 -0.9245 -0.9180
 4260TIP3    H234272   4.693   4.335  13.621 -1.9314 -1.0974  0.2173
 4261TIP3   OH234273   5.053   5.736   3.573  0.0563  0.5540 -0.4249
 4261TIP3    H134274   5.135   5.688   3.585 -0.1578 -0.2298 -1.9292
 4261TIP3    H234275   5.080   5.823   3.542  0.3106  0.3268 -0.8392
 4262TIP3   OH234276   1.757   1.101   6.074 -0.2918 -0.3755 -0.3951
 4262TIP3    H134277   1.709   1.164   6.021 -0.7070 -1.2328 -1.0745
 4262TIP3    H234278   1.848   1.107   6.044 -0.5691 -1.0454 -1.4312
 4263TIP3   OH234279   5.605   1.700   3.744 -0.5741 -0.7477  0.4317
 4263TIP3    H134280   5.604   1.720   3.651 -0.6308  0.9053  0.7630
 4263TIP3    H234281   5.575   1.609   3.750 -0.3891 -0.9294 -1.1617
 4264TIP3   OH234282   1.461   3.060  13.391  0.1623  0.1735  0.4915
 4264TIP3    H134283   1.457   3.156  13.388  2.9751  0.3594 -1.6797
 4264TIP3    H234284   1.408   3.031  13.317  2.1124  0.3210 -1.0384
 4265TIP3   OH234285   3.419   1.384  16.085 -0.4174 -0.5107 -0.4037
 4265TIP3    H134286   3.346   1.443  16.104 -1.8054 -2.0628 -0.6991
 4265TIP3    H234287   3.380   1.297  16.081  1.6603 -1.5883  0.6935
 4266TIP3   OH234288   0.788   4.605   5.005  1.0356  0.3650 -0.2632
 4266TIP3    H134289   0.835   4.582   4.925  1.5993  0.4537  0.0405
 4266TIP3    H234290   0.774   4.700   4.998 -0.6069  0.0945 -1.1489
 4267TIP3   OH234291   2.828   2.467  10.877 -0.1530 -0.2657  0.1589
 4267TIP3    H134292   2.918   2.440  10.893  0.0727 -0.6543 -1.6214
 4267TIP3    H234293   2.837   2.553  10.836 -0.5655 -0.4852 -0.3963
 4268TIP3   OH234294   5.923   3.540  16.236 -0.2286 -0.3996  0.8302
 4268TIP3    H134295   5.980   3.559  16.162 -2.0066  2.6742  0.0762
 4268TIP3    H234296   5.917   3.444  16.239  0.7516 -0.6432 -2.3137
 4269TIP3   OH234297   2.736   2.781   5.758 -0.1569 -0.2729  0.0104
 4269TIP3    H134298   2.733   2.735   5.842 -1.9116 -0.2565 -0.0165
 4269TIP3    H234299   2.654   2.759   5.716  0.5286  0.0547 -1.5555
 4270TIP3   OH234300   5.298   1.850   3.838 -0.1785 -0.3762  0.2656
 4270TIP3    H134301   5.389   1.877   3.852 -0.4044  0.2838  0.4730
 4270TIP3    H234302   5.250   1.886   3.913 -0.5829 -0.8825  0.2578
 4271TIP3   OH234303   2.568   0.413  13.693  0.5512 -0.1404  0.7886
 4271TIP3    H134304   2.492   0.354  13.688  1.3374 -1.2229  1.1640
 4271TIP3    H234305   2.576   0.450  13.605 -1.6959  1.6973  1.2592
 4272TIP3   OH234306   1.807   0.783   0.031 -0.1925  0.1353 -0.5427
 4272TIP3    H134307   1.734   0.843   0.045 -0.0600  0.6372 -1.8120
 4272TIP3    H234308   1.874   0.837  -0.011  0.8168 -0.3765  0.3603
 4273TIP3   OH234309   1.851   0.386  14.051  0.1402  0.4363 -0.6946
 4273TIP3    H134310   1.806   0.314  14.096 -1.0348  1.8188  0.4545
 4273TIP3    H234311   1.835   0.369  13.958 -0.2112 -0.7175 -0.4476
 4274TIP3   OH234312   6.343   2.924   1.120 -0.6384 -0.6497 -0.0015
 4274TIP3    H134313   6.353   3.000   1.061 -1.6265 -1.5324 -1.3633
 4274TIP3    H234314   6.422   2.872   1.104  0.4380  0.4341  1.5283
 4275TIP3   OH234315   5.045   2.005   1.608 -0.5266  0.2057  0.0977
 4275TIP3    H134316   4.980   2.012   1.539  0.6531  2.5621 -0.8807
 4275TIP3    H234317   5.124   2.044   1.570  0.6857 -0.1188  2.1578
 4276TIP3   OH234318   4.341   4.975   0.349 -0.1791  0.3405 -0.7542
 4276TIP3    H134319   4.427   4.960   0.390 -1.7142 -0.2436  2.6153
 4276TIP3    H234320   4.360   4.983   0.256  3.3258 -1.5240 -0.3796
 4277TIP3   OH234321   2.723   0.546  11.855 -0.1430  0.0242  0.1035
 4277TIP3    H134322   2.639   0.512  11.887 -1.3686  0.9520 -1.9202
 4277TIP3    H234323   2.700   0.626  11.808  1.8634  0.1617 -0.7374
 4278TIP3   OH234324   4.861   1.121   5.237  0.1267 -0.2167 -0.9084
 4278TIP3    H134325   4.914   1.200   5.240 -1.3770  1.0405 -3.6258
 4278TIP3    H234326   4.806   1.126   5.315  2.2526 -0.3605  0.6937
 4279TIP3   OH234327   5.638   0.278   4.716 -0.2506 -1.0023  0.0561
 4279TIP3    H134328   5.686   0.339   4.772 -0.3570  0.3458 -1.2533
 4279TIP3    H234329   5.676   0.290   4.629 -1.9079 -0.9964 -0.7168
 4280TIP3   OH234330   4.323   0.280   0.907  0.0299 -0.0654 -0.3274
 4280TIP3    H134331   4.295   0.199   0.865 -1.1819 -0.4574  1.1536
 4280TIP3    H234332   4.395   0.254   0.964  0.8833  0.2621 -1.2154
 4281TIP3   OH234333   3.218   4.157  15.602 -0.6883  0.3768  0.0220
 4281TIP3    H134334   3.140   4.175  15.550 -0.3982  0.2753 -0.4588
 4281TIP3    H234335   3.190   4.167  15.692 -1.8267 -1.7670 -0.0294
 4282TIP3   OH234336   2.195   5.322   4.211 -0.1727 -0.3055 -0.1222
 4282TIP3    H134337   2.148   5.376   4.147  0.6631  0.3996 -0.1720
 4282TIP3    H234338   2.161   5.351   4.296 -0.0331  0.0147 -0.1716
 4283TIP3   OH234339   4.954   4.492   2.394 -0.2036 -0.1430 -0.0567
 4283TIP3    H134340   4.890   4.535   2.451  0.4958 -1.0770  1.4970
 4283TIP3    H234341   4.956   4.546   2.315 -2.1280  0.4943  0.2731
 4284TIP3   OH234342   1.040   4.188  11.781 -0.6045 -0.7468 -0.1306
 4284TIP3    H134343   1.003   4.165  11.867 -0.9363 -0.1606 -0.1071
 4284TIP3    H234344   1.110   4.250  11.802 -2.2607  1.3230 -0.3954
 4285TIP3   OH234345   3.121   6.622  11.436  0.2596 -0.1279  0.0576
 4285TIP3    H134346   3.189   6.675  11.394 -0.3702  1.2401  0.6941
 4285TIP3    H234347   3.092   6.675  11.510 -0.6717 -1.2157  0.5006
 4286TIP3   OH234348   3.019   5.314   5.059  0.4677  0.3578  0.2322
 4286TIP3    H134349   2.937   5.285   5.100  0.1756  0.1602 -0.4642
 4286TIP3    H234350   3.015   5.409   5.063  0.3940  0.3437  0.5599
 4287TIP3   OH234351   2.528   1.411   5.711 -0.1723 -0.0582  0.1187
 4287TIP3    H134352   2.478   1.437   5.633 -1.9757  1.5124  1.6900
 4287TIP3    H234353   2.526   1.488   5.767  2.1115 -0.7570  1.2510
 4288TIP3   OH234354   4.935   2.990  13.319  0.3912 -0.1125  0.8799
 4288TIP3    H134355   4.967   2.901  13.307 -1.2384 -0.7506  1.1206
 4288TIP3    H234356   4.949   3.033  13.235 -0.1196 -1.0273  0.3227
 4289TIP3   OH234357   2.475   1.833  11.746  0.3449  0.5975 -0.4713
 4289TIP3    H134358   2.497   1.753  11.795 -2.5239 -0.9238 -1.4000
 4289TIP3    H234359   2.493   1.904  11.807  1.2367 -0.8982  1.1078
 4290TIP3   OH234360   0.183   1.343  16.680 -0.3396 -0.2791  0.5263
 4290TIP3    H134361   0.164   1.256  16.715  0.6175 -0.6836  0.0710
 4290TIP3    H234362   0.258   1.330  16.621 -0.0878  0.8680  0.5616
 4291TIP3   OH234363   4.667   6.657   1.471 -0.1201  0.3551 -0.0346
 4291TIP3    H134364   4.589   6.640   1.417 -0.4780 -0.5139  0.7139
 4291TIP3    H234365   4.732   6.691   1.410 -0.2711 -1.2903 -1.1764
 4292TIP3   OH234366   1.832   2.070  16.316  0.0292  0.4604  0.1222
 4292TIP3    H134367   1.791   2.137  16.261 -2.0445  0.3274  1.4233
 4292TIP3    H234368   1.886   2.120  16.377 -0.1576  0.8294 -0.0054
 4293TIP3   OH234369   2.195   0.473  16.457 -0.4638 -0.1233 -0.5773
 4293TIP3    H134370   2.154   0.532  16.519 -1.8649  0.2394 -1.7941
 4293TIP3    H234371   2.289   0.490  16.466 -0.7153  0.8229  0.5062
 4294TIP3   OH234372   2.674   2.381   4.273  0.5295 -0.4744  0.3053
 4294TIP3    H134373   2.592   2.379   4.321  0.1328 -2.5725 -0.3288
 4294TIP3    H234374   2.648   2.390   4.181  1.1303  0.8556  0.2522
 4295TIP3   OH234375   0.807   3.322  12.548  0.1245 -0.2995 -0.3252
 4295TIP3    H134376   0.795   3.320  12.643  1.4107 -1.5997 -0.1468
 4295TIP3    H234377   0.853   3.404  12.531 -0.9773  0.4177  0.0277
 4296TIP3   OH234378   3.654   2.328   1.512  0.3827 -0.2798 -0.3734
 4296TIP3    H134379   3.573   2.281   1.532  0.7954 -2.1899 -2.7132
 4296TIP3    H234380   3.715   2.301   1.580 -0.4132 -0.3123  0.3385
 4297TIP3   OH234381   1.398   6.632   3.295 -0.0946 -0.5532  0.0431
 4297TIP3    H134382   1.370   6.667   3.379 -0.2455 -0.4829 -0.0358
 4297TIP3    H234383   1.371   6.540   3.297 -1.0741 -0.2893 -0.3563
 4298TIP3   OH234384   4.433   0.314  16.886 -0.1812  0.4714  0.4200
 4298TIP3    H134385   4.456   0.370  16.812 -2.3397  0.2014 -0.5255
 4298TIP3    H234386   4.517   0.289  16.924  0.9577  1.2747 -1.4272
 4299TIP3   OH234387   4.478   5.440   4.762 -0.0542  0.8491 -0.6487
 4299TIP3    H134388   4.546   5.431   4.829  0.6275  2.1536 -1.1386
 4299TIP3    H234389   4.522   5.417   4.680 -0.7077 -0.0882 -0.7511
 4300TIP3   OH234390   1.465   3.433   0.442 -0.6491  0.3019 -0.1374
 4300TIP3    H134391   1.389   3.427   0.500 -0.6648  0.3333 -0.1541
 4300TIP3    H234392   1.501   3.344   0.438  0.0378  0.5258  0.8293
 4301TIP3   OH234393   5.742   6.077  14.092  0.0588 -0.2331  0.6766
 4301TIP3    H134394   5.655   6.080  14.133  0.3902  0.9486  1.3461
 4301TIP3    H234395   5.774   6.167  14.097  0.0433  0.0401 -2.4465
 4302TIP3   OH234396   6.486   0.482  13.443 -0.4916  0.6503  0.4878
 4302TIP3    H134397   6.399   0.522  13.443 -1.5582 -1.4091 -1.3096
 4302TIP3    H234398   6.524   0.508  13.359 -0.6812 -0.9301 -0.1229
 4303TIP3   OH234399   2.538   1.478   3.132  0.3908 -0.2281  0.3119
 4303TIP3    H134400   2.485   1.556   3.142  0.5539 -0.1808  0.8554
 4303TIP3    H234401   2.476   1.408   3.113  0.2808  0.1022 -0.5670
 4304TIP3   OH234402   6.541   3.208   2.367  0.0819  0.0905 -0.2352
 4304TIP3    H134403   6.503   3.146   2.304 -0.0002  0.4610 -0.5574
 4304TIP3    H234404   6.548   3.290   2.318 -2.0884  1.0283  0.8645
 4305TIP3   OH234405   4.504   1.338  11.761  0.0161  0.2217 -0.0945
 4305TIP3    H134406   4.451   1.271  11.804 -0.4388 -0.5380 -1.7500
 4305TIP3    H234407   4.448   1.416  11.760 -0.8516 -0.3909 -1.2490
 4306TIP3   OH234408   4.820   0.962  11.625  0.0822 -0.0768 -0.2237
 4306TIP3    H134409   4.848   0.975  11.716 -0.7383  2.1526 -0.2278
 4306TIP3    H234410   4.738   1.012  11.618 -1.6686 -2.8486 -1.3424
 4307TIP3   OH234411   0.207   2.043  16.547  0.4059  0.2356 -0.4251
 4307TIP3    H134412   0.143   1.995  16.495 -0.3344  1.0490 -0.3038
 4307TIP3    H234413   0.155   2.085  16.616  0.7598  2.4882 -1.4497
 4308TIP3   OH234414   4.217   5.509   4.861 -0.8191  0.6057 -0.5460
 4308TIP3    H134415   4.302   5.506   4.818 -1.1362  1.5243 -1.2584
 4308TIP3    H234416   4.237   5.517   4.954 -0.1188  1.7628 -0.7819
 4309TIP3   OH234417   0.587   4.757   0.188 -0.1494 -0.0131  0.8824
 4309TIP3    H134418   0.548   4.691   0.131  1.9630 -0.7968  0.2434
 4309TIP3    H234419   0.528   4.832   0.182  0.6180  0.5084 -3.5549
 4310TIP3   OH234420   2.733   3.130   2.561 -0.6113 -0.0297  0.5118
 4310TIP3    H134421   2.759   3.052   2.610 -0.2138  0.4486  1.0691
 4310TIP3    H234422   2.761   3.113   2.471  1.6918  0.4813  1.0809
 4311TIP3   OH234423   0.605   4.996  16.782  0.2140 -0.0520 -0.2657
 4311TIP3    H134424   0.608   5.071  16.841 -0.8167 -0.0007 -0.2684
 4311TIP3    H234425   0.689   4.951  16.796 -0.9355 -1.4424  3.0882
 4312TIP3   OH234426   4.656   3.575   5.343  1.1245 -0.0929 -0.3822
 4312TIP3    H134427   4.574   3.588   5.295 -0.0711  0.5168  1.7064
 4312TIP3    H234428   4.659   3.647   5.406  3.0868 -0.3228 -0.1481
 4313TIP3   OH234429   5.303   3.595   1.807  0.4558 -0.2738 -0.5171
 4313TIP3    H134430   5.373   3.579   1.743 -0.6545 -1.5591 -1.4959
 4313TIP3    H234431   5.342   3.576   1.892  1.3177 -0.9146 -1.0423
 4314TIP3   OH234432   6.725   3.886   0.818 -0.4340  0.0437  0.2759
 4314TIP3    H134433   6.738   3.832   0.740 -1.1438  2.1392 -1.3998
 4314TIP3    H234434   6.636   3.918   0.810  0.5441  2.9878  0.1071
 4315TIP3   OH234435   6.762   4.289  16.088 -0.3007 -0.6350  0.3009
 4315TIP3    H134436   6.855   4.296  16.067 -0.8399 -0.4178 -2.3406
 4315TIP3    H234437   6.754   4.330  16.175  1.8861  0.3536  0.0972
 4316TIP3   OH234438   5.123   1.323  12.591  0.1002  0.3676  1.0026
 4316TIP3    H134439   5.133   1.259  12.520 -0.2757  0.7294  0.6159
 4316TIP3    H234440   5.122   1.408  12.547  0.6414  0.6459  1.5206
 4317TIP3   OH234441   4.031   1.894  11.774  0.1305 -0.3730 -0.2224
 4317TIP3    H134442   4.076   1.873  11.692  0.8250 -1.1454  0.3428
 4317TIP3    H234443   4.101   1.920  11.834 -0.1976 -1.2480  0.5625
 4318TIP3   OH234444   2.658   2.475   2.905  0.0818 -0.0768 -0.1322
 4318TIP3    H134445   2.654   2.380   2.889  3.3425 -0.5398  0.8931
 4318TIP3    H234446   2.737   2.503   2.859  0.3664  1.7251  1.3325
 4319TIP3   OH234447   6.439   0.783  11.673  0.1503  0.5989 -0.1543
 4319TIP3    H134448   6.410   0.872  11.655  2.2510  1.2734 -0.3913
 4319TIP3    H234449   6.462   0.783  11.766 -1.3604 -0.1811  0.2580
 4320TIP3   OH234450   3.535   3.119  12.711 -0.3255  0.1630 -0.7525
 4320TIP3    H134451   3.572   3.173  12.781 -1.3375  0.0289 -0.0773
 4320TIP3    H234452   3.529   3.178  12.636 -0.1888  0.6116 -0.4172
 4321TIP3   OH234453   6.682   0.166   6.751 -0.2656 -0.5098 -0.3709
 4321TIP3    H134454   6.690   0.084   6.800  1.5895  0.3565  0.9134
 4321TIP3    H234455   6.733   0.151   6.671  0.0984 -0.5976 -0.1229
 4322TIP3   OH234456   1.670   3.955  14.831  0.0079  0.5380  0.0648
 4322TIP3    H134457   1.670   4.025  14.897  1.0569 -0.1725  0.8459
 4322TIP3    H234458   1.752   3.908  14.846 -0.2892 -0.3495 -0.9993
 4323TIP3   OH234459   6.026   1.744  10.599 -0.1692 -0.2902  0.2235
 4323TIP3    H134460   5.962   1.719  10.532  0.3724 -0.8069 -0.1082
 4323TIP3    H234461   6.108   1.756  10.551 -0.3419  1.9819  0.3876
 4324TIP3   OH234462   5.182   0.790   2.376  0.4221 -0.2037  0.3106
 4324TIP3    H134463   5.143   0.738   2.306  0.9154  0.0307 -0.1493
 4324TIP3    H234464   5.174   0.880   2.346  0.4009 -0.0808  0.6812
 4325TIP3   OH234465   5.089   1.484   6.113  0.0542 -0.1449  0.1898
 4325TIP3    H134466   5.004   1.500   6.153 -0.4887 -0.9635 -0.5965
 4325TIP3    H234467   5.137   1.433   6.178  0.1319  0.7190  0.8293
 4326TIP3   OH234468   5.034   0.393  16.441 -0.5236  0.2187 -0.7517
 4326TIP3    H134469   4.999   0.473  16.480 -0.7180  0.7961 -2.0587
 4326TIP3    H234470   4.988   0.384  16.357 -0.3371 -1.1407 -0.7403
 4327TIP3   OH234471   5.636   0.763   5.672  0.8567 -0.2261  0.0208
 4327TIP3    H134472   5.617   0.707   5.597 -2.0463  2.5753 -1.5832
 4327TIP3    H234473   5.570   0.739   5.737  2.0626 -1.2081  0.9447
 4328TIP3   OH234474   4.171   1.379  14.750  0.3789  0.0272  0.1335
 4328TIP3    H134475   4.091   1.430  14.737 -0.3652 -0.8280  1.2055
 4328TIP3    H234476   4.145   1.289  14.733  1.8832 -0.0206 -2.6020
 4329TIP3   OH234477   3.428   2.441  13.349 -0.5306 -0.2630 -0.1257
 4329TIP3    H134478   3.337   2.415  13.367  0.1988 -2.0546  1.3080
 4329TIP3    H234479   3.466   2.365  13.306  0.1065  0.7826 -1.4567
 4330TIP3   OH234480   2.153   4.613  13.710 -0.5124  0.1741 -0.7504
 4330TIP3    H134481   2.061   4.613  13.736 -0.2216  0.0035  0.3752
 4330TIP3    H234482   2.179   4.706  13.712 -0.1745  0.0769  0.8965
 4331TIP3   OH234483   1.275   4.859   3.582  0.0438 -0.3905 -0.1406
 4331TIP3    H134484   1.364   4.855   3.617 -0.0456 -0.3683  0.0906
 4331TIP3    H234485   1.219   4.866   3.660 -0.0327  1.8471 -0.3332
 4332TIP3   OH234486   6.162   0.430  13.780  0.0782 -0.0982 -0.2552
 4332TIP3    H134487   6.210   0.356  13.817 -0.4794 -1.3196 -1.8588
 4332TIP3    H234488   6.226   0.474  13.723  0.2324  0.3183  0.2276
 4333TIP3   OH234489   1.246   2.590   5.080  0.1553  0.1820 -0.2749
 4333TIP3    H134490   1.336   2.585   5.111 -0.5244 -0.6283  1.8145
 4333TIP3    H234491   1.234   2.511   5.027  0.3187 -0.4541  0.6014
 4334TIP3   OH234492   2.568   4.572   4.701  0.1098 -0.1762 -0.2910
 4334TIP3    H134493   2.573   4.550   4.608  0.8826  0.0890 -0.3225
 4334TIP3    H234494   2.659   4.575   4.730 -0.1536 -2.7984  1.1222
 4335TIP3   OH234495   1.717   2.436   0.311 -0.4320  0.7110 -0.0546
 4335TIP3    H134496   1.661   2.360   0.293  1.4399 -0.7295 -0.1185
 4335TIP3    H234497   1.765   2.450   0.229 -0.0340  1.3383  0.2774
 4336TIP3   OH234498   3.622   6.210  11.551  0.6106  0.2712  0.2520
 4336TIP3    H134499   3.671   6.148  11.606 -0.1970 -0.7629 -0.1655
 4336TIP3    H234500   3.556   6.156  11.507 -0.1086  1.4348 -0.1328
 4337TIP3   OH234501   4.906   3.827   4.085  0.3229  1.2324 -0.2491
 4337TIP3    H134502   4.877   3.834   4.176  0.1901  1.9484 -0.3443
 4337TIP3    H234503   4.848   3.760   4.048  1.8789 -0.7931  0.7704
 4338TIP3   OH234504   6.424   3.580   3.498  0.6645  0.4548 -0.0936
 4338TIP3    H134505   6.420   3.485   3.497  1.3489  0.4228 -0.8059
 4338TIP3    H234506   6.510   3.600   3.535  0.5718  0.7932 -0.0581
 4339TIP3   OH234507   0.465   5.057   1.801  0.4453  0.1983 -0.0640
 4339TIP3    H134508   0.473   5.065   1.896  0.4288 -0.8320  0.0314
 4339TIP3    H234509   0.380   5.015   1.787  0.2946  0.6437 -0.5587
 4340TIP3   OH234510   5.356   6.269   5.446  0.5841  0.2327  0.1681
 4340TIP3    H134511   5.269   6.260   5.408 -0.3881 -0.4307  2.3809
 4340TIP3    H234512   5.396   6.183   5.433  0.0176 -0.1946  1.0988
 4341TIP3   OH234513   1.975   6.180  13.574 -0.1042 -0.5658 -0.4879
 4341TIP3    H134514   1.906   6.195  13.638 -0.6313 -1.3821 -0.8570
 4341TIP3    H234515   2.052   6.224  13.611 -0.6453 -0.2167  0.2398
 4342TIP3   OH234516   5.845   4.120  12.651  0.5140  0.8382  0.4628
 4342TIP3    H134517   5.900   4.126  12.729  0.6500  1.1702  0.3421
 4342TIP3    H234518   5.818   4.028  12.648 -1.3201  1.2757  2.1323
 4343TIP3   OH234519   2.367   5.970   5.877 -0.0595  0.0913 -0.5746
 4343TIP3    H134520   2.284   5.985   5.923 -0.2394  0.8416 -1.1277
 4343TIP3    H234521   2.403   6.057   5.864 -0.2090 -0.0641 -2.2159
 4344TIP3   OH234522   5.200   1.874  13.175 -0.1166 -0.3158  0.5441
 4344TIP3    H134523   5.150   1.923  13.110  0.6682 -0.1669  0.0337
 4344TIP3    H234524   5.250   1.941  13.221  0.1683 -0.5327  0.5514
 4345TIP3   OH234525   3.229   4.754   3.048 -0.3013  0.1886 -0.0853
 4345TIP3    H134526   3.255   4.798   3.129  0.9984 -2.1983  0.8910
 4345TIP3    H234527   3.256   4.814   2.979  3.9669 -0.1074  1.0431
 4346TIP3   OH234528   5.769   2.799   3.280 -0.3962  0.0792 -0.0742
 4346TIP3    H134529   5.786   2.837   3.194  1.4651  2.2672  1.1424
 4346TIP3    H234530   5.854   2.801   3.324 -1.3549 -0.6734  1.9225
 4347TIP3   OH234531   5.713   3.368   2.798  0.1778 -0.4066  0.4076
 4347TIP3    H134532   5.786   3.428   2.813  0.6190 -0.6603 -0.6897
 4347TIP3    H234533   5.733   3.324   2.716 -1.9358  0.5968 -0.7377
 4348TIP3   OH234534   1.289   1.941  13.225 -0.0716  0.1613 -0.0808
 4348TIP3    H134535   1.233   1.908  13.155  1.8620 -0.1681 -1.5653
 4348TIP3    H234536   1.239   2.014  13.263 -2.1101 -1.0505 -0.2904
 4349TIP3   OH234537   6.371   2.616  13.198 -0.0510  0.5818  0.2216
 4349TIP3    H134538   6.318   2.667  13.138 -0.3754  1.5010  1.2453
 4349TIP3    H234539   6.368   2.526  13.164 -3.0335  0.3832  0.7133
 4350TIP3   OH234540   6.481   4.589  12.957 -0.0681 -0.0897 -0.2298
 4350TIP3    H134541   6.396   4.599  12.998  0.9100  0.9297  1.6447
 4350TIP3    H234542   6.465   4.607  12.864 -1.9025 -0.0796  0.0549
 4351TIP3   OH234543   0.008   1.506   5.672  0.8123  0.0045 -0.0770
 4351TIP3    H134544   0.006   1.437   5.737 -1.3461 -0.5097 -0.6127
 4351TIP3    H234545   0.054   1.579   5.715  0.6043 -0.7698  1.5132
 4352TIP3   OH234546   4.365   3.017   1.693 -0.1961 -0.0201  0.4024
 4352TIP3    H134547   4.341   2.999   1.784 -2.4296 -0.6603 -0.2512
 4352TIP3    H234548   4.365   2.931   1.651 -0.8783  0.4235 -0.5468
 4353TIP3   OH234549   1.114   4.275  15.414  0.7112 -0.2224 -0.1782
 4353TIP3    H134550   1.041   4.269  15.352  0.5775  1.9566 -0.3431
 4353TIP3    H234551   1.077   4.320  15.490  1.8119  0.7597 -0.1925
 4354TIP3   OH234552   3.472   5.117   0.682  0.4434  0.2896 -0.3173
 4354TIP3    H134553   3.553   5.168   0.676  0.1108  1.0936  1.5800
 4354TIP3    H234554   3.438   5.135   0.769 -1.4819 -0.5266 -0.8511
 4355TIP3   OH234555   1.414   3.811  15.513 -0.1948 -0.1424  0.4902
 4355TIP3    H134556   1.361   3.886  15.487  0.6249  0.8079  1.4633
 4355TIP3    H234557   1.371   3.776  15.590 -0.5393 -0.6449  0.0760
 4356TIP3   OH234558   1.426   0.210  11.642  0.6884 -0.6913 -0.4183
 4356TIP3    H134559   1.338   0.199  11.677  1.1508  1.7225  1.8250
 4356TIP3    H234560   1.475   0.135  11.674 -0.1319 -1.1748 -0.2632
 4357TIP3   OH234561   5.107   6.642  16.081 -0.0311 -0.4527 -0.5753
 4357TIP3    H134562   5.061   6.720  16.111 -0.5105 -1.7473  2.4113
 4357TIP3    H234563   5.098   6.644  15.985 -1.0097  2.4859 -0.5156
 4358TIP3   OH234564   1.176   2.485  14.156 -0.0716  0.2657  0.1052
 4358TIP3    H134565   1.225   2.461  14.077 -0.9903 -1.5570  0.0337
 4358TIP3    H234566   1.089   2.511  14.124 -0.9403 -1.8764  0.5298
 4359TIP3   OH234567   2.390   6.753  13.552  0.0593  0.1686  0.0563
 4359TIP3    H134568   2.456   6.772  13.618  0.6039 -1.5172  0.0496
 4359TIP3    H234569   2.323   6.821  13.564  1.3128  1.3383  0.6896
 4360TIP3   OH234570   2.942   2.312   1.025  0.6445  0.0629 -0.0643
 4360TIP3    H134571   2.857   2.355   1.025  1.0440  0.9115  1.3388
 4360TIP3    H234572   3.005   2.383   1.008  1.0266 -0.7598 -2.4664
 4361TIP3   OH234573   6.162   6.436  14.270  0.0013 -0.3647 -0.1704
 4361TIP3    H134574   6.187   6.374  14.339  1.5817 -0.1082 -0.4825
 4361TIP3    H234575   6.184   6.391  14.188  1.2589  0.6189 -0.3938
 4362TIP3   OH234576   1.098   6.156  14.932  0.0730 -0.2806  0.2562
 4362TIP3    H134577   1.084   6.248  14.910  1.1499 -0.1002  0.2726
 4362TIP3    H234578   1.122   6.157  15.025 -1.1476 -0.7103  0.5905
 4363TIP3   OH234579   3.267   5.677   3.870  0.1887 -0.6567  0.3880
 4363TIP3    H134580   3.301   5.763   3.895  1.2120 -0.3370 -1.8305
 4363TIP3    H234581   3.301   5.617   3.937  2.0209  0.2543  0.3512
 4364TIP3   OH234582   5.137   3.725   2.658 -0.7210  0.0464 -0.0646
 4364TIP3    H134583   5.070   3.659   2.639 -1.8999  1.3574 -0.6259
 4364TIP3    H234584   5.189   3.731   2.578 -0.3734 -0.4576  0.1193
 4365TIP3   OH234585   6.159   4.122   5.781  0.2389 -0.4268 -0.0211
 4365TIP3    H134586   6.198   4.035   5.786  0.3382 -0.4937 -1.6317
 4365TIP3    H234587   6.203   4.165   5.708  0.7234  1.2740  1.1935
 4366TIP3   OH234588   6.307   2.443  10.142  0.5499 -0.3870 -0.2529
 4366TIP3    H134589   6.221   2.403  10.138 -0.9149  2.3505  0.8344
 4366TIP3    H234590   6.345   2.411  10.224  0.2982 -1.0877 -0.4030
 4367TIP3   OH234591   3.739   6.370  13.957 -0.4998  0.5986  0.0605
 4367TIP3    H134592   3.802   6.423  13.907  1.1277 -0.4288  0.9196
 4367TIP3    H234593   3.781   6.284  13.964 -2.3681 -0.3494  0.0475
 4368TIP3   OH234594   3.026   6.032   5.517 -0.0401 -0.2199 -0.3193
 4368TIP3    H134595   3.091   6.046   5.586 -0.0050  0.3800 -0.4733
 4368TIP3    H234596   3.079   6.026   5.437 -0.2114  0.9134 -0.5328
 4369TIP3   OH234597   0.054   6.146   2.106  0.2569 -0.2855  0.0512
 4369TIP3    H134598   0.067   6.082   2.036  3.0287 -1.8508  1.8063
 4369TIP3    H234599   0.142   6.173   2.130 -0.7757  3.0529  0.5079
 4370TIP3   OH234600   2.708   1.112   2.642 -0.3558  0.0639  0.0389
 4370TIP3    H134601   2.768   1.090   2.570 -0.7792 -1.3839  0.0794
 4370TIP3    H234602   2.626   1.135   2.598  0.2688  2.3698 -0.0298
 4371TIP3   OH234603   2.201   0.593   5.490 -0.1528 -0.4561 -0.1987
 4371TIP3    H134604   2.160   0.630   5.568 -0.5049  0.7899 -0.9352
 4371TIP3    H234605   2.276   0.543   5.523 -0.3212  0.0093  0.9314
 4372TIP3   OH234606   0.221   4.827   0.312 -0.4782 -0.1689 -0.6056
 4372TIP3    H134607   0.285   4.880   0.265  0.3557 -0.6819 -0.0681
 4372TIP3    H234608   0.213   4.747   0.260  0.1236 -0.5551 -0.1142
 4373TIP3   OH234609   4.253   5.438  16.567  0.2759  0.0573 -0.0144
 4373TIP3    H134610   4.310   5.383  16.621 -1.4911 -0.9106  0.9416
 4373TIP3    H234611   4.230   5.512  16.623 -1.6957 -1.0316  0.7169
 4374TIP3   OH234612   5.770   6.605   0.871 -0.1349  0.1225 -0.0209
 4374TIP3    H134613   5.752   6.671   0.803  1.1773  0.7850  0.2337
 4374TIP3    H234614   5.765   6.521   0.824 -0.4465  0.4859 -0.6621
 4375TIP3   OH234615   3.786   1.986   3.300 -0.0929  0.1124 -0.0151
 4375TIP3    H134616   3.736   1.909   3.272  0.2164 -0.1785  0.2098
 4375TIP3    H234617   3.821   2.023   3.219  0.9669 -0.8435 -0.0207
 4376TIP3   OH234618   2.379   1.610   5.040  0.2258 -0.0991  0.0988
 4376TIP3    H134619   2.299   1.646   5.079  0.1142 -0.2471  0.0086
 4376TIP3    H234620   2.395   1.665   4.964  1.0113  0.8312  0.9065
 4377TIP3   OH234621   0.339   4.402  14.789 -0.3163 -0.1927 -0.3908
 4377TIP3    H134622   0.295   4.415  14.705 -1.5108 -4.1850 -0.5830
 4377TIP3    H234623   0.417   4.350  14.768 -1.6296 -2.9525  0.9639
 4378TIP3   OH234624   0.373   0.926   4.849 -0.1752  0.4938 -0.0988
 4378TIP3    H134625   0.323   0.921   4.930 -0.5053 -0.2875 -0.3451
 4378TIP3    H234626   0.316   0.887   4.783  0.5188  0.1396 -0.4994
 4379TIP3   OH234627   5.745   5.350  13.984 -0.0833  0.0473 -0.6956
 4379TIP3    H134628   5.656   5.315  13.993 -0.9401  2.1920 -0.3426
 4379TIP3    H234629   5.796   5.277  13.949 -2.1306 -1.0250 -1.5874
 4380TIP3   OH234630   1.094   2.505  16.562  0.3734  0.0992  0.3555
 4380TIP3    H134631   1.145   2.563  16.620  1.7711 -0.8141  0.0773
 4380TIP3    H234632   1.008   2.501  16.603 -0.4280  3.8518 -0.5907
 4381TIP3   OH234633   1.506   1.766  11.449  0.7229  0.3606  0.2092
 4381TIP3    H134634   1.450   1.688  11.448 -2.8231  2.6804 -0.9139
 4381TIP3    H234635   1.592   1.735  11.419 -0.0912 -3.2785  1.1390
 4382TIP3   OH234636   0.263   6.008   5.452  0.8961  0.1277  0.1371
 4382TIP3    H134637   0.174   6.011   5.488  1.0377  0.5134  0.4603
 4382TIP3    H234638   0.313   6.067   5.508  1.3816 -0.1699  0.0210
 4383TIP3   OH234639   0.946   2.423  13.816  0.5027  0.8138  0.2171
 4383TIP3    H134640   0.989   2.450  13.897 -0.5878  0.9334  0.7786
 4383TIP3    H234641   0.997   2.348  13.785  0.6767  0.4823  1.2658
 4384TIP3   OH234642   6.822   5.061  16.627 -0.4156  0.2096 -0.3562
 4384TIP3    H134643   6.867   5.146  16.630  2.8872 -1.3857  1.7520
 4384TIP3    H234644   6.859   5.017  16.550  0.1536 -0.3714  0.2381
 4385TIP3   OH234645   0.384   1.666  11.595  0.2478 -0.1859 -0.0474
 4385TIP3    H134646   0.457   1.660  11.533  0.4919 -1.7242  0.3291
 4385TIP3    H234647   0.313   1.617  11.553 -0.6048  1.3166 -0.4159
 4386TIP3   OH234648   3.811   1.513   3.543  0.0313  0.5046 -0.5951
 4386TIP3    H134649   3.897   1.557   3.542 -0.0287  0.6218 -1.0093
 4386TIP3    H234650   3.758   1.564   3.481 -0.7307  1.2033  0.5866
 4387TIP3   OH234651   5.176   0.006  11.561  0.4329 -0.5333  0.1743
 4387TIP3    H134652   5.230  -0.062  11.603  0.9249  0.7979  1.7870
 4387TIP3    H234653   5.234   0.046  11.497  0.5517 -0.8030  0.1135
 4388TIP3   OH234654   1.398   3.624  14.666 -0.0196  0.3108  0.2869
 4388TIP3    H134655   1.361   3.699  14.619  0.3201  0.6691  0.5798
 4388TIP3    H234656   1.381   3.549  14.609  1.1223  0.8537 -0.8186
 4389TIP3   OH234657   2.672   4.387   2.977 -0.1451  0.0686  0.2484
 4389TIP3    H134658   2.596   4.395   2.919 -0.6887 -0.5421  0.8717
 4389TIP3    H234659   2.667   4.298   3.011 -1.0614  1.0450  2.8914
 4390TIP3   OH234660   6.604   5.766  11.497 -0.2633  0.6048 -0.1193
 4390TIP3    H134661   6.578   5.675  11.485 -1.6005  1.1182 -1.5075
 4390TIP3    H234662   6.521   5.814  11.503  0.1367  2.2612 -4.2757
 4391TIP3   OH234663   4.410   0.518   4.572 -0.1543  0.1444 -0.0478
 4391TIP3    H134664   4.316   0.506   4.561 -0.0586  0.5931 -1.4748
 4391TIP3    H234665   4.446   0.429   4.575 -0.1705 -0.1845 -4.0490
 4392TIP3   OH234666   4.609   3.748  15.454 -0.0757  0.0070 -0.1376
 4392TIP3    H134667   4.591   3.654  15.457  0.4885 -0.1773 -1.7335
 4392TIP3    H234668   4.524   3.790  15.470 -0.0296 -0.7021  2.4644
 4393TIP3   OH234669   5.068   4.375  11.241  0.1559 -0.1831  0.1796
 4393TIP3    H134670   5.091   4.452  11.189 -1.1054 -1.5332 -2.5756
 4393TIP3    H234671   4.983   4.347  11.208  0.3948 -2.5447  1.3162
 4394TIP3   OH234672   1.087   4.676   0.772  0.0021  0.7469  0.2531
 4394TIP3    H134673   1.015   4.710   0.826 -1.8680 -1.0326 -0.9766
 4394TIP3    H234674   1.148   4.749   0.765 -1.6903  2.3511  1.3446
 4395TIP3   OH234675   2.090   5.670  11.222  0.3642 -0.1956 -0.3967
 4395TIP3    H134676   2.127   5.739  11.278 -2.1207  0.8654  0.0632
 4395TIP3    H234677   2.107   5.701  11.133 -0.4589  0.9116 -0.1959
 4396TIP3   OH234678   4.190   3.547  17.006 -0.5311  0.2029  0.0305
 4396TIP3    H134679   4.143   3.504  16.935  0.8520  0.2157 -0.9364
 4396TIP3    H234680   4.261   3.487  17.028  2.4119  2.4562 -2.4173
 4397TIP3   OH234681   6.490   3.308   0.153 -0.0803  0.6356 -0.4701
 4397TIP3    H134682   6.566   3.282   0.205 -1.7179 -0.6000  1.4553
 4397TIP3    H234683   6.483   3.403   0.165  0.3149  0.5438  0.5705
 4398TIP3   OH234684   6.228   1.454  14.201 -0.5081  0.6899  0.2076
 4398TIP3    H134685   6.181   1.529  14.166 -2.3202 -1.3085 -2.0461
 4398TIP3    H234686   6.180   1.378  14.168  3.1675 -1.5542 -0.6872
 4399TIP3   OH234687   6.835   4.242   3.453 -0.3056 -0.3664  0.2621
 4399TIP3    H134688   6.845   4.223   3.546 -2.2216 -3.1202  0.0365
 4399TIP3    H234689   6.751   4.286   3.446 -1.2464 -2.1278 -0.2741
 4400TIP3   OH234690   1.121   5.105  12.410  0.0359 -0.1016  0.1828
 4400TIP3    H134691   1.120   5.133  12.319  0.8095  0.5418  0.3623
 4400TIP3    H234692   1.188   5.160  12.451 -1.0576  0.3899  1.3746
 4401TIP3   OH234693   6.522   1.046  12.728 -0.2060  1.1436  0.0528
 4401TIP3    H134694   6.580   1.080  12.796 -1.6239  2.0133  0.9068
 4401TIP3    H234695   6.517   1.117  12.664  2.2960 -0.2364 -1.8198
 4402TIP3   OH234696   0.958   2.603   5.048 -0.4305 -0.2714 -0.0305
 4402TIP3    H134697   0.934   2.694   5.068 -0.6457 -0.6106  1.3954
 4402TIP3    H234698   1.044   2.592   5.089  0.2143 -0.3297 -1.3717
 4403TIP3   OH234699   6.033   4.472   4.929 -0.0507  0.2534  0.0851
 4403TIP3    H134700   5.957   4.437   4.883 -0.1140 -0.8140  0.9480
 4403TIP3    H234701   6.107   4.426   4.889  0.0716  0.7074 -0.2152
 4404TIP3   OH234702   3.313   6.260   0.881 -0.3133  0.4337 -0.7139
 4404TIP3    H134703   3.295   6.187   0.822 -0.3047 -1.5916  1.6450
 4404TIP3    H234704   3.397   6.295   0.853  0.6384 -1.7627 -0.7293
 4405TIP3   OH234705   0.384   5.726  13.267 -0.1756  0.3920 -0.0422
 4405TIP3    H134706   0.412   5.663  13.333 -0.2683 -0.4038 -0.7447
 4405TIP3    H234707   0.376   5.674  13.187  0.8323  1.5210 -0.8972
 4406TIP3   OH234708   0.875   5.688  16.029  1.1573  0.3903  0.0925
 4406TIP3    H134709   0.952   5.666  15.977 -0.7525 -0.0730 -2.7574
 4406TIP3    H234710   0.877   5.626  16.103  2.7443 -0.5188 -0.6601
 4407TIP3   OH234711   2.211   0.557   6.266  0.0854  0.3833 -0.0164
 4407TIP3    H134712   2.269   0.598   6.329  0.4837 -0.1915  0.0021
 4407TIP3    H234713   2.123   0.571   6.300  0.3148 -0.2285  0.8567
 4408TIP3   OH234714   0.763   1.995   5.955  0.9135  0.0434 -0.1050
 4408TIP3    H134715   0.826   1.927   5.929 -0.1425 -1.0503  0.1152
 4408TIP3    H234716   0.745   1.976   6.047 -0.6939 -0.4483 -0.5028
 4409TIP3   OH234717   6.327   4.576   1.022 -0.4363 -0.5909 -0.0038
 4409TIP3    H134718   6.396   4.546   0.963 -1.1064  0.5007 -1.3949
 4409TIP3    H234719   6.371   4.628   1.088  0.1669 -0.6904 -0.3274
 4410TIP3   OH234720   1.001   0.470   4.663  0.2480 -0.1958 -0.0639
 4410TIP3    H134721   0.925   0.480   4.720  0.0399 -1.6419 -0.0365
 4410TIP3    H234722   1.026   0.378   4.674  0.5518 -0.3515 -1.8649
 4411TIP3   OH234723   3.787   3.782   0.482  0.1221  0.3147 -0.1330
 4411TIP3    H134724   3.741   3.856   0.442 -1.3476 -0.2937  0.3324
 4411TIP3    H234725   3.739   3.705   0.451  1.6989 -0.4820 -0.7163
 4412TIP3   OH234726   1.648   2.794   0.736  0.2899  0.0982  0.0303
 4412TIP3    H134727   1.579   2.739   0.699  0.3617  1.0436 -1.6537
 4412TIP3    H234728   1.689   2.741   0.804 -3.2566  0.1226  2.4775
 4413TIP3   OH234729   0.662   0.694   0.360  0.1550 -0.4552  0.1338
 4413TIP3    H134730   0.747   0.678   0.317  0.2132 -0.5636  0.2876
 4413TIP3    H234731   0.681   0.686   0.453 -0.3742 -2.2905  0.1261
 4414TIP3   OH234732   4.078   6.056  16.913  0.2572 -0.0494  0.6270
 4414TIP3    H134733   4.007   6.066  16.850  2.9795  0.5166 -2.6647
 4414TIP3    H234734   4.068   5.967  16.947 -0.6361 -0.8996 -1.6595
 4415TIP3   OH234735   3.634   3.318  11.899 -0.4006  0.2952  0.5395
 4415TIP3    H134736   3.600   3.242  11.851 -0.5900 -0.2617  1.5316
 4415TIP3    H234737   3.666   3.377  11.831 -1.0521 -0.2898 -0.2901
 4416TIP3   OH234738   6.158   2.687   4.048  0.1881  0.0537 -0.2029
 4416TIP3    H134739   6.187   2.641   3.970  0.9383  0.9011 -0.4492
 4416TIP3    H234740   6.226   2.669   4.113  0.8127  1.2793 -0.4898
 4417TIP3   OH234741   6.688   1.157   4.113  0.2238  0.4233 -0.1623
 4417TIP3    H134742   6.777   1.135   4.085  0.2487  0.6054 -0.2314
 4417TIP3    H234743   6.660   1.225   4.052  0.4282  1.1185  0.5021
 4418TIP3   OH234744   4.453   3.315   3.152 -0.4753 -0.8450  0.8669
 4418TIP3    H134745   4.370   3.363   3.148  0.5027  0.9769  1.4945
 4418TIP3    H234746   4.490   3.322   3.064 -0.5630 -0.8668  0.8283
 4419TIP3   OH234747   5.480   1.217   4.291  0.0722 -0.2598 -0.0942
 4419TIP3    H134748   5.550   1.241   4.230  2.6439 -0.6215  2.4911
 4419TIP3    H234749   5.475   1.122   4.284  0.1642 -0.2742  0.0298
 4420TIP3   OH234750   5.905   0.899   0.127  0.0810  0.5155 -0.0934
 4420TIP3    H134751   5.864   0.856   0.053 -1.3083  2.8170 -0.7715
 4420TIP3    H234752   5.844   0.886   0.200 -0.1619  0.9686 -0.2085
 4421TIP3   OH234753   6.056   2.393  15.231  0.1595 -0.7422  0.4168
 4421TIP3    H134754   5.994   2.442  15.285  0.6773 -1.7092  1.9434
 4421TIP3    H234755   6.103   2.461  15.182 -0.3809  0.1657  1.1206
 4422TIP3   OH234756   6.288   1.722  15.764 -0.3298  0.1600 -0.1454
 4422TIP3    H134757   6.217   1.769  15.806 -0.0926  1.1222 -0.7848
 4422TIP3    H234758   6.334   1.679  15.836  1.3218  3.4275  0.9640
 4423TIP3   OH234759   5.421   2.739  13.086  0.2898 -0.3102 -0.1889
 4423TIP3    H134760   5.515   2.759  13.080  0.0587  0.4585 -3.9755
 4423TIP3    H234761   5.418   2.643  13.091  1.3915 -0.5388 -2.3440
 4424TIP3   OH234762   5.056   5.860  16.623  0.6268  0.2220 -0.1132
 4424TIP3    H134763   5.097   5.884  16.707 -0.1886  1.0101  0.0765
 4424TIP3    H234764   5.084   5.929  16.563 -1.3477  1.4896  0.3175
 4425TIP3   OH234765   3.853   6.553  13.133 -0.2761  0.4776 -0.5310
 4425TIP3    H134766   3.764   6.588  13.136 -0.1829  0.6858 -0.1404
 4425TIP3    H234767   3.876   6.538  13.224 -0.1286 -0.1362 -0.6663
 4426TIP3   OH234768   0.730   5.771   1.139 -0.1303 -0.1450  0.1928
 4426TIP3    H134769   0.733   5.700   1.076  1.2026 -2.0739  2.2837
 4426TIP3    H234770   0.812   5.819   1.125  0.2511 -0.6814  0.5262
 4427TIP3   OH234771   6.500   0.780  17.016 -0.0130  0.0798 -0.4936
 4427TIP3    H134772   6.497   0.755  17.108  2.1537 -0.6248 -0.5463
 4427TIP3    H234773   6.437   0.851  17.008 -1.1193 -0.6334  1.2553
 4428TIP3   OH234774   6.717   4.191  16.648  0.3209  0.1146  0.0280
 4428TIP3    H134775   6.751   4.274  16.615  0.0764  0.0527 -0.3840
 4428TIP3    H234776   6.792   4.150  16.690 -0.1499  1.7072  2.6218
 4429TIP3   OH234777   2.324   6.776   3.329  0.1051  0.6560 -0.3699
 4429TIP3    H134778   2.356   6.757   3.417  1.1119  2.3362 -0.3258
 4429TIP3    H234779   2.231   6.796   3.341 -0.0063 -0.1314  0.1446
 4430TIP3   OH234780   0.841   2.755  14.289 -0.2175 -0.3928 -0.9173
 4430TIP3    H134781   0.749   2.731  14.283 -0.1800 -0.6849 -0.3808
 4430TIP3    H234782   0.854   2.778  14.381  0.3794 -0.9276 -0.8604
 4431TIP3   OH234783   4.312   3.847  11.477 -0.0470 -0.1053  0.4667
 4431TIP3    H134784   4.327   3.769  11.422  3.3932  1.1534 -0.6117
 4431TIP3    H234785   4.300   3.812  11.565  1.4523 -1.9075  0.0230
 4432TIP3   OH234786   0.790   0.896  14.054 -0.0692 -0.3390  0.2023
 4432TIP3    H134787   0.747   0.887  13.969  1.6426  0.5082 -0.8119
 4432TIP3    H234788   0.730   0.949  14.106 -0.7798 -0.1722 -0.7622
 4433TIP3   OH234789   5.894   6.153   4.679 -0.1580  0.2006 -0.0333
 4433TIP3    H134790   5.840   6.227   4.651 -1.6230 -0.3721  1.1501
 4433TIP3    H234791   5.868   6.081   4.622  0.4566  0.3005 -0.4470
 4434TIP3   OH234792   0.225   1.471   1.031 -0.5500 -0.5367  0.6923
 4434TIP3    H134793   0.255   1.443   0.945  0.6139 -1.1557  1.2668
 4434TIP3    H234794   0.260   1.404   1.091  0.6453  1.0942  1.9055
 4435TIP3   OH234795   2.483   6.543  15.669  0.3480  0.1197  0.1879
 4435TIP3    H134796   2.434   6.588  15.600 -1.8238 -0.6270  1.1611
 4435TIP3    H234797   2.542   6.610  15.704 -1.7875  1.8749  0.6588
 4436TIP3   OH234798   0.117   6.245  15.956  0.6947 -0.3529 -0.4823
 4436TIP3    H134799   0.137   6.220  15.866  0.3551 -0.1900 -0.6059
 4436TIP3    H234800   0.118   6.341  15.955 -0.4013 -0.3310 -0.5747
 4437TIP3   OH234801   1.395   6.527   2.834  0.7353 -0.7742  0.3355
 4437TIP3    H134802   1.469   6.524   2.895  0.7211 -2.1927  0.3075
 4437TIP3    H234803   1.388   6.438   2.800 -0.0398 -0.2967 -0.8139
 4438TIP3   OH234804   6.638   2.382  11.943 -0.4831 -0.3556 -0.3117
 4438TIP3    H134805   6.664   2.424  11.861 -2.1946  0.2771 -0.5617
 4438TIP3    H234806   6.659   2.447  12.011 -1.7449  0.3562 -0.5592
 4439TIP3   OH234807   0.116   5.456  11.611  0.3214 -0.0616 -0.4080
 4439TIP3    H134808   0.051   5.387  11.627  0.1544  0.0140 -0.7617
 4439TIP3    H234809   0.081   5.506  11.537 -0.8105  1.9646  1.3836
 4440TIP3   OH234810   1.220   1.552  13.998  0.0030  0.3975 -0.2807
 4440TIP3    H134811   1.298   1.585  13.953 -0.2707  0.7157 -0.5280
 4440TIP3    H234812   1.205   1.616  14.068 -0.4580  0.7400 -0.6855
 4441TIP3   OH234813   1.607   4.777   2.111  0.5637 -0.2247 -0.0416
 4441TIP3    H134814   1.634   4.841   2.177  1.3697 -2.7173  2.2198
 4441TIP3    H234815   1.687   4.730   2.088 -0.1470 -1.0093 -1.0050
 4442TIP3   OH234816   2.166   1.020   2.167  0.9094  0.0347  0.1815
 4442TIP3    H134817   2.254   0.988   2.187  1.8940  1.9549 -0.8157
 4442TIP3    H234818   2.115   0.999   2.245  2.4262 -0.4538  1.1032
 4443TIP3   OH234819   4.899   4.422   0.344 -0.3866  0.5664  0.2974
 4443TIP3    H134820   4.886   4.375   0.262 -1.1068  3.7928 -1.6148
 4443TIP3    H234821   4.810   4.438   0.377 -0.3477  2.7613 -0.5203
 4444TIP3   OH234822   0.750   3.465  10.299 -0.0148  0.5119  0.0169
 4444TIP3    H134823   0.662   3.492  10.322  0.3763  0.7602  1.3156
 4444TIP3    H234824   0.796   3.546  10.276  0.1759  0.5239  0.4303
 4445TIP3   OH234825   2.746   3.060  13.512  0.7375 -0.1399 -0.0058
 4445TIP3    H134826   2.710   3.095  13.593 -0.5876 -1.4120  0.0071
 4445TIP3    H234827   2.722   2.967  13.514  1.6458 -0.4335 -1.3409
 4446TIP3   OH234828   3.388   2.326  16.972 -0.8375 -0.7787 -0.2262
 4446TIP3    H134829   3.309   2.328  16.917  0.0572  1.2784 -1.5531
 4446TIP3    H234830   3.392   2.412  17.012  0.2959 -1.1518  0.5087
 4447TIP3   OH234831   2.157   3.124   1.160 -0.2432 -0.0530  0.0817
 4447TIP3    H134832   2.090   3.067   1.123 -0.8913  0.6991  0.0652
 4447TIP3    H234833   2.237   3.102   1.112 -0.7222 -0.2026 -0.6668
 4448TIP3   OH234834   3.146   3.056   0.945 -0.1313 -0.0260  0.1876
 4448TIP3    H134835   3.237   3.049   0.974  0.0953  2.3060  0.2204
 4448TIP3    H234836   3.097   3.078   1.024 -0.8930 -2.0017  0.3150
 4449TIP3   OH234837   5.575   5.085   4.351 -0.1615  0.4484  0.5734
 4449TIP3    H134838   5.668   5.071   4.333 -0.3478 -1.1819  0.7609
 4449TIP3    H234839   5.534   5.087   4.265 -0.0408  0.5690  0.5172
 4450TIP3   OH234840   0.412   2.553  13.710 -0.6216 -0.5016  0.1803
 4450TIP3    H134841   0.348   2.488  13.738 -1.2495  0.4867  1.1491
 4450TIP3    H234842   0.473   2.560  13.782 -1.4657  1.0791  0.8014
 4451TIP3   OH234843   5.440   0.174  13.163  0.0934  0.2594  0.5762
 4451TIP3    H134844   5.382   0.153  13.090 -0.0519  0.3024  0.6804
 4451TIP3    H234845   5.488   0.251  13.134 -0.3974  0.6415  0.7685
 4452TIP3   OH234846   2.681   4.715  13.129  0.3606 -0.1357  0.3770
 4452TIP3    H134847   2.700   4.668  13.048  1.3194  1.0535 -0.1246
 4452TIP3    H234848   2.760   4.702  13.182  0.0078 -0.3490  0.8499
 4453TIP3   OH234849   4.505   3.983   5.026 -0.1126 -0.0170  0.4871
 4453TIP3    H134850   4.467   3.917   4.969 -1.6268  0.4593  0.9083
 4453TIP3    H234851   4.450   3.982   5.104  0.8043  0.6400  1.1550
 4454TIP3   OH234852   4.825   3.881   0.748 -0.8209  0.0704  0.5249
 4454TIP3    H134853   4.912   3.900   0.783 -1.2543  0.9681  1.1638
 4454TIP3    H234854   4.808   3.790   0.773 -0.3537  0.1218  1.0296
 4455TIP3   OH234855   4.451   2.440   5.160 -0.6531  0.1110  0.6350
 4455TIP3    H134856   4.421   2.526   5.131  0.7221  0.3805 -0.0779
 4455TIP3    H234857   4.547   2.447   5.162 -0.4379 -1.7763 -0.6806
 4456TIP3   OH234858   0.020   3.995   5.169 -0.0955  0.3842 -0.0790
 4456TIP3    H134859  -0.047   3.932   5.192 -0.3724  0.6448 -0.1674
 4456TIP3    H234860  -0.027   4.066   5.125  0.3386  0.1924 -0.8688
 4457TIP3   OH234861   0.269   2.631   0.671  0.1327  0.1247 -0.6835
 4457TIP3    H134862   0.274   2.581   0.590  1.0858 -1.2184  0.1557
 4457TIP3    H234863   0.359   2.653   0.692  0.1413 -1.1951  0.9445
 4458TIP3   OH234864   3.118   3.306   2.467 -0.2699 -0.4337  0.0444
 4458TIP3    H134865   3.053   3.270   2.528 -1.6172 -0.5080 -1.3760
 4458TIP3    H234866   3.155   3.229   2.424 -0.2873 -0.3165 -0.1807
 4459TIP3   OH234867   1.297   2.792   3.632 -0.1194 -0.4187  0.6087
 4459TIP3    H134868   1.352   2.802   3.554 -2.9663  0.1367 -1.4547
 4459TIP3    H234869   1.327   2.862   3.690 -0.9652  2.2928 -1.9815
 4460TIP3   OH234870   3.460   0.417   1.173 -0.1251 -0.2255 -0.2401
 4460TIP3    H134871   3.416   0.346   1.126 -0.4069  1.0226 -1.9645
 4460TIP3    H234872   3.419   0.418   1.259 -0.7276 -1.5839 -0.4810
 4461TIP3   OH234873   6.753   5.568   2.544 -1.0535 -0.0383  0.0522
 4461TIP3    H134874   6.679   5.593   2.599 -1.0261 -0.6077  0.3575
 4461TIP3    H234875   6.731   5.481   2.511  0.0949 -0.8397  1.2989
 4462TIP3   OH234876   4.016   0.126   6.475 -0.3919 -0.3754 -0.6413
 4462TIP3    H134877   4.102   0.167   6.469 -0.8124  0.4487 -1.1778
 4462TIP3    H234878   4.034   0.037   6.506  0.5159  0.2638  0.7438
 4463TIP3   OH234879   4.772   1.896   3.432 -0.3230 -0.2590  0.6516
 4463TIP3    H134880   4.798   1.988   3.432 -1.0485 -0.0266  1.8443
 4463TIP3    H234881   4.814   1.858   3.355 -0.6794  1.2599 -0.3226
 4464TIP3   OH234882   1.767   0.947   0.641 -0.2487  0.0693 -0.2540
 4464TIP3    H134883   1.776   0.857   0.671 -1.2348  0.0177 -0.0991
 4464TIP3    H234884   1.750   0.939   0.547 -1.4081  0.0385 -0.0493
 4465TIP3   OH234885   4.253   2.071  15.612 -0.0069 -0.2232 -0.1124
 4465TIP3    H134886   4.244   2.141  15.676  1.8513 -1.5077  1.6501
 4465TIP3    H234887   4.328   2.020  15.641 -1.2680 -2.9799 -1.3020
 4466TIP3   OH234888   5.212   0.884   3.024  0.1761  0.3664  0.4323
 4466TIP3    H134889   5.192   0.791   3.012 -0.0614  0.7002 -2.4743
 4466TIP3    H234890   5.126   0.928   3.019  0.2930  0.7929  1.7026
 4467TIP3   OH234891   1.148   4.106  13.964 -0.7382 -0.0137 -0.1576
 4467TIP3    H134892   1.207   4.031  13.966 -0.3658  0.2634 -0.4515
 4467TIP3    H234893   1.200   4.176  13.924 -0.3510  1.0155  1.9488
 4468TIP3   OH234894   3.274   2.372   6.876 -0.0742 -0.5417 -0.2776
 4468TIP3    H134895   3.283   2.285   6.839 -1.1614 -1.0130  0.5154
 4468TIP3    H234896   3.260   2.357   6.970  0.3639  0.5152 -0.0263
 4469TIP3   OH234897   5.178   1.393  12.857  0.0671  0.4095  0.3808
 4469TIP3    H134898   5.146   1.349  12.779  0.6511 -0.9758  0.8957
 4469TIP3    H234899   5.127   1.357  12.929  0.4260  0.7083  0.7961
 4470TIP3   OH234900   1.787   2.248   2.557 -0.2244 -0.1692  0.0071
 4470TIP3    H134901   1.713   2.188   2.556  0.5196 -1.1263  0.3079
 4470TIP3    H234902   1.862   2.193   2.532  1.0682 -0.2331  3.5411
 4471TIP3   OH234903   6.610   2.437   6.523  0.5335 -0.1458 -0.6476
 4471TIP3    H134904   6.561   2.484   6.456 -0.0022 -0.4088 -0.4482
 4471TIP3    H234905   6.700   2.435   6.491  0.2894 -0.2341 -1.3310
 4472TIP3   OH234906   1.759   1.447   2.404 -0.4794 -0.0406  0.3117
 4472TIP3    H134907   1.770   1.406   2.318 -2.5084 -2.2651  1.0222
 4472TIP3    H234908   1.696   1.517   2.389 -1.1541 -0.6965  0.0426
 4473TIP3   OH234909   2.783   0.558  16.579 -0.2877  0.1229  0.2621
 4473TIP3    H134910   2.844   0.586  16.647 -0.4597 -0.3939  0.6349
 4473TIP3    H234911   2.697   0.585  16.611 -0.2137  1.5013 -0.5930
 4474TIP3   OH234912   1.934   1.055   2.771 -0.1500  0.4413  0.3807
 4474TIP3    H134913   1.857   1.043   2.716  0.0548 -0.2184  0.2254
 4474TIP3    H234914   2.003   1.004   2.727 -0.2998 -1.1413  1.8819
 4475TIP3   OH234915   0.983   5.978   2.294 -0.4294  0.8051 -0.1611
 4475TIP3    H134916   0.988   6.069   2.265 -0.6750  0.7309 -0.4392
 4475TIP3    H234917   0.899   5.972   2.339 -0.0017  0.9486  0.6791
 4476TIP3   OH234918   0.606   4.800  15.803  0.7211 -0.2716 -0.0861
 4476TIP3    H134919   0.515   4.810  15.832 -0.2047 -2.7594 -1.7740
 4476TIP3    H234920   0.634   4.888  15.782 -1.1305  0.6382  0.9308
 4477TIP3   OH234921   2.811   5.255  12.857 -0.5304 -0.3236  0.2393
 4477TIP3    H134922   2.897   5.234  12.896 -0.7516 -1.3620  0.1965
 4477TIP3    H234923   2.780   5.329  12.908  2.2905  3.0974 -2.5117
 4478TIP3   OH234924   0.151   4.586   1.596  0.4200 -0.3139 -0.5954
 4478TIP3    H134925   0.074   4.593   1.540 -0.0181  0.1911  0.0534
 4478TIP3    H234926   0.120   4.540   1.674  0.7086  0.0949 -0.2305
 4479TIP3   OH234927   5.933   5.825   0.517 -0.5672 -0.0947 -0.1003
 4479TIP3    H134928   5.868   5.858   0.579 -0.7264 -0.1666 -0.2288
 4479TIP3    H234929   5.910   5.866   0.434  0.5545  1.1973  0.2031
 4480TIP3   OH234930   2.855   2.812   5.513  0.4956 -0.0053  0.5697
 4480TIP3    H134931   2.838   2.821   5.607  0.6086 -0.6154  0.6544
 4480TIP3    H234932   2.895   2.725   5.505 -1.4934 -0.8806 -0.3209
 4481TIP3   OH234933   3.001   1.732   4.479  0.5453  0.0853 -0.4507
 4481TIP3    H134934   2.918   1.758   4.439  0.4001  0.2904 -0.0181
 4481TIP3    H234935   2.990   1.749   4.572  1.1837  0.3946 -0.4246
 4482TIP3   OH234936   6.214   3.176  13.572 -0.0287 -0.4084  0.5913
 4482TIP3    H134937   6.120   3.194  13.572 -0.0203 -0.2128 -1.3635
 4482TIP3    H234938   6.246   3.212  13.490  1.7601 -0.5583  1.1745
 4483TIP3   OH234939   6.501   1.102   2.533  0.1614  0.1339 -0.0340
 4483TIP3    H134940   6.576   1.099   2.593  0.8500 -0.5551 -0.9000
 4483TIP3    H234941   6.539   1.089   2.446 -0.9816 -0.3411 -0.4822
 4484TIP3   OH234942   5.631   3.891   4.586  0.8582  0.4842  0.1497
 4484TIP3    H134943   5.663   3.980   4.574  0.5050  0.5454 -0.3699
 4484TIP3    H234944   5.539   3.894   4.558  1.6017 -0.6723 -2.8922
 4485TIP3   OH234945   3.735   3.744  14.797  0.7369  0.3927  0.1260
 4485TIP3    H134946   3.654   3.697  14.820  0.8011 -0.0479 -0.5115
 4485TIP3    H234947   3.716   3.836  14.817 -0.5660  0.5553 -1.6423
 4486TIP3   OH234948   6.036   3.339  16.948  0.1067 -0.0875  0.0315
 4486TIP3    H134949   6.097   3.314  16.878  0.1126  0.4231 -0.1436
 4486TIP3    H234950   6.039   3.434  16.950  1.3140 -0.1024  1.7759
 4487TIP3   OH234951   4.186   3.080  13.979 -0.3665  0.0059  0.4417
 4487TIP3    H134952   4.101   3.116  13.956 -0.4231  0.4761  1.3301
 4487TIP3    H234953   4.232   3.070  13.896 -0.9913  0.5260  0.0318
 4488TIP3   OH234954   1.705   2.904  15.206 -0.1311  0.1760 -0.0425
 4488TIP3    H134955   1.612   2.906  15.230 -0.0634  1.7604  0.2008
 4488TIP3    H234956   1.710   2.958  15.127  1.0943  3.4920  2.0892
 4489TIP3   OH234957   1.124   3.617   6.044  0.2946  0.2020  0.1432
 4489TIP3    H134958   1.187   3.664   6.099  1.0629 -0.3604 -0.2297
 4489TIP3    H234959   1.096   3.543   6.098 -1.0842  1.1762  0.8151
 4490TIP3   OH234960   1.221   6.718  16.102 -0.3077  0.1227 -0.3792
 4490TIP3    H134961   1.228   6.786  16.169 -0.2226  0.6709 -0.9315
 4490TIP3    H234962   1.259   6.758  16.023 -0.8279 -0.3363 -0.8736
 4491TIP3   OH234963   0.182   2.898  11.811  0.2126 -0.0768  0.2342
 4491TIP3    H134964   0.254   2.885  11.750  0.7050 -1.0955  1.0019
 4491TIP3    H234965   0.219   2.948  11.884  0.3120 -1.0800  0.8935
 4492TIP3   OH234966   0.067   4.562   0.978 -0.0847  0.0592  0.0655
 4492TIP3    H134967   0.135   4.565   0.910 -1.0007 -0.5529 -0.9002
 4492TIP3    H234968   0.115   4.543   1.058  0.8158 -1.2684 -0.7372
 4493TIP3   OH234969   3.869   3.073  11.489  0.4411  0.0823  0.0116
 4493TIP3    H134970   3.784   3.032  11.499  1.2278 -2.3374 -2.2012
 4493TIP3    H234971   3.928   3.019  11.541  0.6461  2.1769  2.1669
 4494TIP3   OH234972   6.405   1.851   4.057 -0.4816  0.2174  0.2453
 4494TIP3    H134973   6.397   1.882   3.967  0.3611  0.4308  0.2307
 4494TIP3    H234974   6.332   1.790   4.069  0.1521 -0.8443 -1.0161
 4495TIP3   OH234975   5.648   1.704  14.365 -0.1121 -0.3471 -0.3742
 4495TIP3    H134976   5.667   1.699  14.271 -0.6616 -0.6011 -0.4751
 4495TIP3    H234977   5.557   1.677  14.372 -0.1002 -0.2332  0.2255
 4496TIP3   OH234978   2.519   2.722   2.284 -0.1139 -0.4985  0.6703
 4496TIP3    H134979   2.467   2.646   2.311 -0.2306 -0.2081  1.2789
 4496TIP3    H234980   2.479   2.796   2.330  0.2970 -0.1384  0.4557
 4497TIP3   OH234981   1.097   1.265  11.956 -0.4482  0.2202 -0.6757
 4497TIP3    H134982   1.144   1.341  11.922  2.8663 -1.6232 -0.6657
 4497TIP3    H234983   1.047   1.298  12.030 -0.1550  2.5636 -1.4307
 4498TIP3   OH234984   2.656   6.719  15.737 -0.2405  0.0169  0.2259
 4498TIP3    H134985   2.725   6.686  15.794 -1.1501 -0.5274  1.0458
 4498TIP3    H234986   2.674   6.813  15.730  1.2405 -0.2883 -0.5376
 4499TIP3   OH234987   4.372   1.932   5.210 -0.8075 -0.5282  0.3168
 4499TIP3    H134988   4.432   1.876   5.258  0.0431 -1.1619 -1.3819
 4499TIP3    H234989   4.291   1.929   5.260  0.2625 -0.4257  2.1514
 4500TIP3   OH234990   0.065   1.831  12.413  1.1030  0.4065  0.5644
 4500TIP3    H134991   0.139   1.788  12.371  1.3648  0.8489  0.5688
 4500TIP3    H234992   0.077   1.924  12.394  0.4850  0.4729  0.4639
 4501TIP3   OH234993   4.346   3.800   4.807 -0.3140  0.4933 -0.3943
 4501TIP3    H134994   4.269   3.837   4.764 -0.2938  0.9916 -0.0177
 4501TIP3    H234995   4.320   3.712   4.833 -0.7221  0.6224 -0.3640
 4502TIP3   OH234996   6.242   6.374  14.013 -0.2201  0.3170  0.5149
 4502TIP3    H134997   6.337   6.367  14.027 -0.0259 -1.2245 -1.1041
 4502TIP3    H234998   6.231   6.364  13.919 -1.8836  2.6778  0.3731
 4503TIP3   OH234999   0.506   1.923  14.975  0.0247 -0.1904 -0.1701
 4503TIP3    H135000   0.538   1.890  14.892  1.3778  1.5113 -0.3675
 4503TIP3    H235001   0.573   1.898  15.039 -0.5532 -0.6650  0.2746
 4504TIP3   OH235002   1.671   6.487  11.033 -0.1556 -0.2570 -0.2157
 4504TIP3    H135003   1.713   6.561  11.078 -0.2848  0.0396 -0.5792
 4504TIP3    H235004   1.715   6.410  11.069  1.3404  0.0772 -1.2373
 4505TIP3   OH235005   4.571   3.105  11.774  0.2128  0.5876  0.0934
 4505TIP3    H135006   4.575   3.046  11.698  1.5491  1.5360 -0.6196
 4505TIP3    H235007   4.527   3.054  11.842 -1.4718 -0.1340 -1.4531
 4506TIP3   OH235008   2.278   3.007  12.851 -0.6192 -0.2124  0.1138
 4506TIP3    H135009   2.242   3.015  12.939 -0.8169 -0.6678  0.0752
 4506TIP3    H235010   2.224   3.065  12.797  0.8250  1.7453  0.6647
 4507TIP3   OH235011   4.234   1.692   0.149 -0.2773  0.2966  0.3017
 4507TIP3    H135012   4.152   1.722   0.108 -1.0725 -2.3795 -0.2195
 4507TIP3    H235013   4.291   1.672   0.075  0.4398  0.9733  0.6544
 4508TIP3   OH235014   0.075   4.619   0.512 -0.3587  0.0235 -0.0589
 4508TIP3    H135015   0.033   4.678   0.575 -0.1965  1.4516 -1.2591
 4508TIP3    H235016   0.169   4.637   0.521 -0.3176  0.0475 -0.5349
 4509TIP3   OH235017   1.325   6.598  14.650 -0.0416  0.0273  0.1153
 4509TIP3    H135018   1.326   6.503  14.659 -1.8977  0.0982  1.7061
 4509TIP3    H235019   1.313   6.614  14.557  0.3355 -1.2787 -0.1675
 4510TIP3   OH235020   3.795   0.248  12.795 -0.2952  0.1034 -0.5137
 4510TIP3    H135021   3.846   0.316  12.839 -1.7493  0.2842  0.9786
 4510TIP3    H235022   3.844   0.167  12.812  0.3329  0.4741 -0.5037
 4511TIP3   OH235023   6.206   2.830  15.003  0.3417 -0.0954  0.1329
 4511TIP3    H135024   6.285   2.779  15.024 -0.8260 -1.7671  0.6633
 4511TIP3    H235025   6.192   2.815  14.909  1.0756  0.8838 -0.1586
 4512TIP3   OH235026   4.614   1.809   0.976 -0.0741  0.5230  0.1941
 4512TIP3    H135027   4.683   1.843   1.034 -0.9671  1.1587  0.9124
 4512TIP3    H235028   4.533   1.820   1.026 -0.3861 -3.9103  1.1277
 4513TIP3   OH235029   6.347   3.055   4.975 -0.3669  0.9026 -0.3379
 4513TIP3    H135030   6.382   3.106   5.048  0.5951  1.0621 -0.8929
 4513TIP3    H235031   6.414   2.990   4.957 -0.3283  1.2224 -1.4350
 4514TIP3   OH235032   0.426   5.622   4.186 -0.3361 -0.6654 -0.3425
 4514TIP3    H135033   0.372   5.543   4.188 -0.6952 -0.4123  0.2201
 4514TIP3    H235034   0.363   5.694   4.193  0.0547 -0.3623  0.0801
 4515TIP3   OH235035   2.797   6.571   1.875 -0.3118  0.0370  0.2708
 4515TIP3    H135036   2.880   6.615   1.854 -0.9752  1.6533  0.8555
 4515TIP3    H235037   2.741   6.589   1.800 -1.4458  2.5715  1.6047
 4516TIP3   OH235038   1.890   3.395  14.590  0.0184 -0.0883 -0.2190
 4516TIP3    H135039   1.900   3.483  14.628 -0.6914  0.2866 -0.8700
 4516TIP3    H235040   1.799   3.391  14.563 -0.0164 -1.1253  0.0048
 4517TIP3   OH235041   2.551   5.152   4.082 -0.7387  0.1682  0.2638
 4517TIP3    H135042   2.578   5.198   4.162  1.5998  0.5527 -0.6647
 4517TIP3    H235043   2.556   5.059   4.106  1.5729  0.2076  0.1859
 4518TIP3   OH235044   6.667   2.665   3.933 -0.9681 -0.6987 -0.0729
 4518TIP3    H135045   6.665   2.729   4.004  0.1951  0.4821 -1.0387
 4518TIP3    H235046   6.580   2.671   3.893 -0.5749  1.0863 -0.7724
 4519TIP3   OH235047   6.214   3.948  11.374  0.1362  0.1419  0.0743
 4519TIP3    H135048   6.284   3.921  11.314  0.0720  0.7610 -0.2880
 4519TIP3    H235049   6.226   3.893  11.451 -0.5522 -1.5763 -0.9786
 4520TIP3   OH235050   6.105   0.940  11.081 -0.3487  0.0712  0.2452
 4520TIP3    H135051   6.139   1.012  11.028  1.2691 -1.6125 -1.1339
 4520TIP3    H235052   6.038   0.899  11.027  0.5510 -0.9983 -0.0844
 4521TIP3   OH235053   4.903   1.415  14.763 -0.2452 -0.6913 -0.3805
 4521TIP3    H135054   4.821   1.460  14.781 -0.3342 -1.7684  2.5053
 4521TIP3    H235055   4.879   1.345  14.702 -0.4739  1.6652 -3.2421
 4522TIP3   OH235056   3.884   1.773   3.019  0.1737 -0.3492 -0.5115
 4522TIP3    H135057   3.892   1.699   2.959  0.2854 -1.0145  0.3255
 4522TIP3    H235058   3.791   1.775   3.042  0.1781 -0.2503 -0.5026
 4523TIP3   OH235059   3.112   5.783   2.338  0.1001 -0.4294 -0.1155
 4523TIP3    H135060   3.117   5.768   2.243  1.0214  0.1221 -0.1688
 4523TIP3    H235061   3.204   5.788   2.366 -0.1655 -0.3135  0.7631
 4524TIP3   OH235062   2.900   0.169   3.498 -0.1238  0.0086  0.3143
 4524TIP3    H135063   2.959   0.100   3.467  0.4972  1.0392 -0.9006
 4524TIP3    H235064   2.842   0.186   3.424 -2.3215 -1.2988  1.6364
 4525TIP3   OH235065   4.527   0.461  16.633 -0.1957  0.6975  0.2871
 4525TIP3    H135066   4.598   0.443  16.571 -0.6652 -0.6710  0.0995
 4525TIP3    H235067   4.489   0.544  16.604 -0.7218 -0.1495 -1.6086
 4526TIP3   OH235068   0.838   3.277  14.616 -0.2360 -0.2181  0.3661
 4526TIP3    H135069   0.798   3.224  14.686  1.0528  0.0696  1.3747
 4526TIP3    H235070   0.874   3.353  14.662  2.3541 -0.9566 -0.2559
 4527TIP3   OH235071   2.801   2.559   4.775 -0.0620  0.0725  0.5415
 4527TIP3    H135072   2.870   2.600   4.722  0.3693  1.2593  1.9739
 4527TIP3    H235073   2.751   2.507   4.712 -0.4454  2.5650 -1.3272
 4528TIP3   OH235074   5.630   4.218   2.960 -0.6390 -0.5434  0.4491
 4528TIP3    H135075   5.597   4.304   2.933  1.5788  0.4954  0.7879
 4528TIP3    H235076   5.636   4.225   3.055  3.3470  0.5597  0.2882
 4529TIP3   OH235077   0.276   0.631  17.043  0.1355  0.5430 -0.3803
 4529TIP3    H135078   0.270   0.594  16.955  1.9118 -1.6776  0.3327
 4529TIP3    H235079   0.340   0.702  17.035  0.8152 -0.1021 -0.7635
 4530TIP3   OH235080   2.933   6.195  12.593  0.3111 -0.3687  0.0708
 4530TIP3    H135081   2.868   6.137  12.633 -0.4700 -1.0419 -2.0693
 4530TIP3    H235082   3.016   6.169  12.633 -0.3934 -1.1090  1.1002
 4531TIP3   OH235083   2.074   6.107  15.486 -0.1623  0.2165 -0.2461
 4531TIP3    H135084   2.154   6.108  15.538  2.0578 -0.0963 -3.3948
 4531TIP3    H235085   2.072   6.020  15.446 -0.6658  1.0316 -2.1277
 4532TIP3   OH235086   3.997   4.445   0.166 -0.6378  0.1185  0.0003
 4532TIP3    H135087   4.072   4.397   0.131 -1.7415 -1.3588 -0.4283
 4532TIP3    H235088   4.012   4.448   0.261  0.8440  1.4593 -0.2365
 4533TIP3   OH235089   4.160   5.429   1.599  0.1068 -0.0241 -0.2443
 4533TIP3    H135090   4.238   5.484   1.603  1.0510 -1.3741  1.7150
 4533TIP3    H235091   4.088   5.490   1.587  1.2334  1.5014  0.4067
 4534TIP3   OH235092   6.152   5.645   4.988  0.4437 -0.2402 -0.0442
 4534TIP3    H135093   6.154   5.740   4.987  1.2024 -0.2517 -0.6678
 4534TIP3    H235094   6.175   5.622   5.078 -0.5264  0.1672  0.3170
 4535TIP3   OH235095   1.700   0.853   5.324 -0.1584 -0.2307 -0.6081
 4535TIP3    H135096   1.685   0.947   5.318 -0.2707 -0.0232  1.9775
 4535TIP3    H235097   1.764   0.843   5.395 -0.3391 -2.1254 -0.6530
 4536TIP3   OH235098   0.995   4.089   3.129 -0.1075 -0.0661  0.1146
 4536TIP3    H135099   1.022   4.141   3.054 -0.5938  0.6458  0.4231
 4536TIP3    H235100   0.900   4.093   3.129 -0.2173 -1.7827 -0.4127
 4537TIP3   OH235101   4.111   1.000   1.779  0.3993 -0.2944 -0.1565
 4537TIP3    H135102   4.034   0.961   1.820 -0.2973  0.9566 -0.2294
 4537TIP3    H235103   4.183   0.942   1.803 -0.3887 -0.9152  0.7814
 4538TIP3   OH235104   6.071   0.253  16.806 -0.4484  0.1917  0.2591
 4538TIP3    H135105   6.114   0.325  16.760  1.0009  0.9554  2.5837
 4538TIP3    H235106   6.108   0.257  16.895 -2.1664 -1.9029  1.1516
 4539TIP3   OH235107   2.958   0.266   0.227  0.1469  0.9207  0.1557
 4539TIP3    H135108   2.877   0.291   0.271  1.2292  2.4160  1.3602
 4539TIP3    H235109   3.003   0.209   0.289  0.8853  1.6180  0.2633
 4540TIP3   OH235110   1.803   0.551  10.733 -0.2458  0.1812 -0.1517
 4540TIP3    H135111   1.833   0.496  10.806 -0.1962  0.0787 -0.2498
 4540TIP3    H235112   1.741   0.496  10.686  0.0641  0.0849 -0.4503
 4541TIP3   OH235113   6.577   4.806   0.876  0.3543 -0.5585 -0.1771
 4541TIP3    H135114   6.526   4.758   0.941  1.0558 -0.6417  0.3273
 4541TIP3    H235115   6.664   4.815   0.916  0.6848 -0.2722 -0.9428
 4542TIP3   OH235116   6.408   5.138  10.750  0.0896 -0.4539 -0.5571
 4542TIP3    H135117   6.482   5.179  10.706 -0.6582  1.2060 -0.3403
 4542TIP3    H235118   6.356   5.211  10.783 -0.8759 -1.6040  0.5852
 4543TIP3   OH235119   0.892   5.602   0.447 -0.1285  0.3994 -0.2871
 4543TIP3    H135120   0.964   5.640   0.497  1.1897 -1.6051 -0.5455
 4543TIP3    H235121   0.928   5.590   0.359 -1.0632  0.0906 -0.6393
 4544TIP3   OH235122   1.121   6.317   3.013  0.3325 -0.6667  0.2205
 4544TIP3    H135123   1.136   6.243   2.954 -1.4460 -2.7723  2.2168
 4544TIP3    H235124   1.026   6.323   3.021  0.4829 -0.0147  2.2509
 4545TIP3   OH235125   0.789   3.957  15.712 -0.4590 -0.1215 -0.0526
 4545TIP3    H135126   0.723   3.916  15.656 -0.4671  0.0929 -0.1988
 4545TIP3    H235127   0.805   4.042  15.672  0.0971 -0.2744 -0.1651
 4546TIP3   OH235128   5.635   6.047  14.379 -0.0217  0.0397 -0.0565
 4546TIP3    H135129   5.666   5.957  14.392 -1.1261 -0.3479  0.0400
 4546TIP3    H235130   5.704   6.102  14.416  0.1664 -0.8116  0.9118
 4547TIP3   OH235131   1.532   4.067  13.641  0.2212  0.1138  0.2323
 4547TIP3    H135132   1.608   4.010  13.653  0.2898 -0.0593 -0.8803
 4547TIP3    H235133   1.568   4.156  13.637  0.6048 -0.0762 -1.8977
 4548TIP3   OH235134   2.438   4.674   1.478 -0.3559 -0.2179  0.5665
 4548TIP3    H135135   2.451   4.636   1.565 -0.7341  1.8701  1.5894
 4548TIP3    H235136   2.369   4.620   1.439 -1.3835 -0.1836  2.2444
 4549TIP3   OH235137   0.194   5.070   0.737 -0.0443  0.2810  0.2944
 4549TIP3    H135138   0.188   5.109   0.650  0.4028  0.3652  0.3008
 4549TIP3    H235139   0.172   5.142   0.797  0.5772  0.4758  0.2957
 4550TIP3   OH235140   5.001   5.218  14.708 -0.4143  0.8413 -0.4274
 4550TIP3    H135141   4.964   5.290  14.657  0.8954  1.0953 -1.0510
 4550TIP3    H235142   5.095   5.236  14.713  0.2729 -1.6822 -2.0892
 4551TIP3   OH235143   2.125   4.148   2.959 -0.3708  0.0143  0.2605
 4551TIP3    H135144   2.058   4.216   2.954  0.3034  0.8530  1.7240
 4551TIP3    H235145   2.166   4.148   2.873  0.6507  2.6213  0.6506
 4552TIP3   OH235146   0.197   5.426  11.881 -1.0837  0.9002  0.9007
 4552TIP3    H135147   0.289   5.448  11.891 -0.2687 -2.3086  1.5842
 4552TIP3    H235148   0.187   5.398  11.790 -0.8435 -0.7414  1.3543
 4553TIP3   OH235149   4.764   6.376  11.492  0.7095 -0.0547 -0.1809
 4553TIP3    H135150   4.739   6.380  11.399  0.1778  0.4740 -0.0236
 4553TIP3    H235151   4.803   6.289  11.503  0.0309 -0.4335 -0.7165
 4554TIP3   OH235152   2.303   5.792  14.151  0.2038  0.2754  0.3475
 4554TIP3    H135153   2.391   5.770  14.181 -0.6721 -1.0844  2.0978
 4554TIP3    H235154   2.262   5.708  14.133 -0.3976  0.9258 -1.6570
 4555TIP3   OH235155   1.106   0.198  12.561 -0.2302  0.1312  0.2436
 4555TIP3    H135156   1.040   0.136  12.530 -0.4801  0.2724  0.4919
 4555TIP3    H235157   1.095   0.199  12.656 -0.5758  0.9433  0.2069
 4556TIP3   OH235158   3.104   5.039   1.714  0.3835  0.6712  0.4772
 4556TIP3    H135159   3.095   4.956   1.760 -1.8498 -0.8337 -2.3518
 4556TIP3    H235160   3.155   5.018   1.635  0.9055  2.3066  0.3328
 4557TIP3   OH235161   3.679   0.496   5.700 -0.6808 -0.3046  0.2362
 4557TIP3    H135162   3.672   0.524   5.791 -1.9039  0.4860 -0.0672
 4557TIP3    H235163   3.758   0.538   5.667 -1.7027  1.6922  0.2015
 4558TIP3   OH235164   2.564   4.222   5.610 -0.3906 -0.2891  0.0578
 4558TIP3    H135165   2.480   4.268   5.608 -0.8718 -1.1525 -0.6135
 4558TIP3    H235166   2.627   4.287   5.641 -1.0938  0.7208 -0.5691
 4559TIP3   OH235167   3.744   3.028  12.940  0.5762  0.3645 -0.2907
 4559TIP3    H135168   3.731   3.075  13.022 -0.2821  0.4404 -0.4659
 4559TIP3    H235169   3.697   2.946  12.950  1.5081 -0.1832 -0.2469
 4560TIP3   OH235170   6.159   0.957  14.157  0.0746 -0.1158 -0.1772
 4560TIP3    H135171   6.201   0.872  14.161  1.6035  0.6580  1.1009
 4560TIP3    H235172   6.225   1.019  14.187 -0.6231  1.6888 -2.0807
 4561TIP3   OH235173   1.639   2.329   0.880 -0.2404 -0.2083  0.3347
 4561TIP3    H135174   1.659   2.291   0.795 -1.1871  1.3429 -0.6216
 4561TIP3    H235175   1.665   2.421   0.873 -0.4908 -0.0168  1.6480
 4562TIP3   OH235176   6.081   1.829  15.905  0.1215  0.2500  0.5086
 4562TIP3    H135177   5.993   1.834  15.868  0.9646 -0.3900 -1.7869
 4562TIP3    H235178   6.075   1.762  15.973 -0.8283 -1.0761 -0.8131
 4563TIP3   OH235179   3.689   2.689  14.857 -0.3397  0.2346 -0.8441
 4563TIP3    H135180   3.604   2.695  14.899  0.1190  0.6382  0.0689
 4563TIP3    H235181   3.711   2.596  14.859 -0.1268  0.2975  0.2394
 4564TIP3   OH235182   6.363   1.536  10.661 -0.1005 -0.2862 -0.2224
 4564TIP3    H135183   6.451   1.501  10.647  0.2588  0.6822 -0.5148
 4564TIP3    H235184   6.357   1.608  10.598 -1.8101 -1.5220 -1.5471
 4565TIP3   OH235185   0.174   0.170   5.089  0.3688 -0.1270 -0.9460
 4565TIP3    H135186   0.249   0.192   5.144 -0.6453  1.9719 -0.2812
 4565TIP3    H235187   0.113   0.244   5.101 -1.2508 -1.1392 -2.4379
 4566TIP3   OH235188   2.081   2.422  14.703 -0.3132  0.1254 -0.0507
 4566TIP3    H135189   1.992   2.439  14.736  0.6938  0.5421  2.7620
 4566TIP3    H235190   2.119   2.364  14.768  0.6627 -2.3452 -2.6490
 4567TIP3   OH235191   4.198   0.870   3.422  0.5661  0.5907 -0.1559
 4567TIP3    H135192   4.249   0.911   3.351  0.1425 -0.9240 -1.3943
 4567TIP3    H235193   4.234   0.782   3.429 -0.9982 -0.0725 -0.1695
 4568TIP3   OH235194   5.615   2.375   2.322  0.0672  0.3730 -0.0905
 4568TIP3    H135195   5.626   2.285   2.353 -0.0267  0.0490 -0.9907
 4568TIP3    H235196   5.682   2.425   2.369  0.4100 -0.2412  0.0739
 4569TIP3   OH235197   3.075   0.242  14.127  0.2863 -0.2791 -0.7321
 4569TIP3    H135198   3.050   0.287  14.208  1.1051 -0.7060 -0.2274
 4569TIP3    H235199   3.019   0.164  14.126 -0.9022  0.5527 -1.4437
 4570TIP3   OH235200   2.976   4.391  12.860  0.4325 -0.0100 -0.2237
 4570TIP3    H135201   2.979   4.362  12.769 -0.1840  0.8163 -0.5164
 4570TIP3    H235202   2.916   4.330  12.903  0.1693  0.0292 -0.5327
 4571TIP3   OH235203   4.440   6.532  11.221 -0.0918 -0.1967  0.1333
 4571TIP3    H135204   4.413   6.452  11.266 -0.1955 -0.8759 -1.0920
 4571TIP3    H235205   4.370   6.548  11.157 -0.2877  1.1197  0.6500
 4572TIP3   OH235206   3.855   4.653   2.151  0.2456 -0.6809  0.0676
 4572TIP3    H135207   3.900   4.732   2.122 -1.3957  0.0734 -0.5670
 4572TIP3    H235208   3.856   4.596   2.074 -1.4468  0.0867 -0.5570
 4573TIP3   OH235209   4.453   0.047  10.637  0.2303 -0.2108 -0.5170
 4573TIP3    H135210   4.442   0.077  10.547  2.1595  1.0079 -0.4104
 4573TIP3    H235211   4.455   0.128  10.689  0.2927 -0.8275  0.4686
 4574TIP3   OH235212   0.412   1.966  15.409 -0.3761 -0.0340  0.0843
 4574TIP3    H135213   0.470   1.905  15.363 -0.7768 -0.9390  0.7447
 4574TIP3    H235214   0.327   1.956  15.365 -0.5080 -0.1572  0.3635
 4575TIP3   OH235215   5.283   5.167  11.008 -0.5773 -0.3488  0.0924
 4575TIP3    H135216   5.283   5.077  10.974 -0.4404  0.2120 -1.4658
 4575TIP3    H235217   5.254   5.220  10.934  0.4565  1.0272  0.6441
 4576TIP3   OH235218   2.760   0.551  14.549  0.5486  0.0805 -0.1091
 4576TIP3    H135219   2.691   0.549  14.482  0.7798  1.5113 -0.4208
 4576TIP3    H235220   2.783   0.459  14.562 -1.7165 -0.5030  0.3420
 4577TIP3   OH235221   2.587   5.524   2.081  0.1392 -0.6319 -0.2654
 4577TIP3    H135222   2.668   5.475   2.087 -0.0586 -0.9253  0.0601
 4577TIP3    H235223   2.569   5.532   1.987  0.8266 -0.0892 -0.3598
 4578TIP3   OH235224   0.618   2.255  12.217  0.7533  0.6890  0.1961
 4578TIP3    H135225   0.625   2.309  12.138  0.3487  0.2165 -0.1668
 4578TIP3    H235226   0.601   2.318  12.287 -0.8625  0.9452 -0.3960
 4579TIP3   OH235227   1.546   3.307   2.829  0.7078 -0.3274 -0.1904
 4579TIP3    H135228   1.640   3.315   2.847  0.6996  1.2362 -0.6876
 4579TIP3    H235229   1.506   3.288   2.914  1.2158  1.6481  0.5336
 4580TIP3   OH235230   2.107   1.317   0.902 -0.0440  0.1667  0.2380
 4580TIP3    H135231   2.116   1.274   0.818 -1.1405 -0.0274  0.1987
 4580TIP3    H235232   2.016   1.348   0.903 -0.3232 -0.6126  1.6936
 4581TIP3   OH235233   6.155   1.625  14.758  0.1467 -0.3374 -0.0984
 4581TIP3    H135234   6.089   1.558  14.738  0.4386 -0.7066  0.1699
 4581TIP3    H235235   6.130   1.699  14.703  1.8441 -1.8592 -3.1708
 4582TIP3   OH235236   6.318   5.101  16.016  0.3086  0.2401  0.1842
 4582TIP3    H135237   6.373   5.180  16.012  0.8694  0.0284  2.3700
 4582TIP3    H235238   6.357   5.048  16.086 -1.9706 -0.4573  1.0131
 4583TIP3   OH235239   4.119   0.709  11.795  0.8808  0.1264  0.1800
 4583TIP3    H135240   4.053   0.694  11.863  1.4652 -3.1488  0.1855
 4583TIP3    H235241   4.193   0.749  11.842 -0.4079  2.3087  0.4694
 4584TIP3   OH235242   1.003   5.478   3.905 -0.0096  0.1498  0.0286
 4584TIP3    H135243   0.984   5.565   3.939  1.1422  1.0043 -1.4138
 4584TIP3    H235244   1.095   5.481   3.880  0.0708 -1.5077  0.0076
 4585TIP3   OH235245   0.904   1.292  11.193 -0.2137  0.1974  0.0419
 4585TIP3    H135246   0.972   1.354  11.219 -0.5807  0.8833 -0.5851
 4585TIP3    H235247   0.887   1.312  11.101 -2.0595  0.8150  0.4688
 4586TIP3   OH235248   3.599   3.158  16.257  0.4830 -0.2153 -0.3835
 4586TIP3    H135249   3.646   3.211  16.321 -0.8792  2.7018 -1.6018
 4586TIP3    H235250   3.636   3.183  16.173  0.0158 -1.4993 -0.9926
 4587TIP3   OH235251   4.259   4.273   5.165 -0.1560 -0.1374 -0.1798
 4587TIP3    H135252   4.252   4.300   5.074 -1.3553  2.7679  0.6567
 4587TIP3    H235253   4.345   4.305   5.193  0.1367 -0.8683 -0.2270
 4588TIP3   OH235254   0.012   1.860  17.119 -0.5633  0.2733 -0.0172
 4588TIP3    H135255   0.060   1.862  17.202 -1.2300 -1.6455  0.4703
 4588TIP3    H235256  -0.063   1.804  17.137 -0.6852 -0.2399 -1.9481
 4589TIP3   OH235257   1.808   2.391  15.483  0.6018 -0.6168 -0.1600
 4589TIP3    H135258   1.832   2.450  15.411 -0.3626 -0.2948 -0.2213
 4589TIP3    H235259   1.761   2.446  15.545  2.5978 -0.5698  1.4162
 4590TIP3   OH235260   1.298   0.549   2.047  0.8027 -0.2677 -0.0535
 4590TIP3    H135261   1.347   0.532   1.967 -0.3903  0.8716 -1.0816
 4590TIP3    H235262   1.264   0.638   2.036 -0.6054 -0.6257  1.0469
 4591TIP3   OH235263   2.743   1.292   3.998  0.0745  0.2615  0.3496
 4591TIP3    H135264   2.821   1.290   3.943  0.4274  0.9785  0.8112
 4591TIP3    H235265   2.686   1.225   3.961  0.7338  0.0207 -0.2501
 4592TIP3   OH235266   0.365   5.925  10.367  0.6088  0.1428 -1.0746
 4592TIP3    H135267   0.343   6.012  10.336  0.7992 -0.5052 -3.2187
 4592TIP3    H235268   0.426   5.940  10.439  2.1448  1.8106 -2.6050
 4593TIP3   OH235269   5.676   1.939  16.798 -0.5050 -0.3911 -0.1109
 4593TIP3    H135270   5.771   1.927  16.799 -0.3397  0.8041  1.1264
 4593TIP3    H235271   5.663   2.027  16.762 -0.9939  0.2680  1.5569
 4594TIP3   OH235272   3.158   2.663  16.130  0.7420 -0.0985  0.0144
 4594TIP3    H135273   3.111   2.715  16.196  1.8175  0.0518  0.6744
 4594TIP3    H235274   3.132   2.573  16.148 -0.8015  0.1200 -0.8706
 4595TIP3   OH235275   0.086   1.014  10.220 -0.4077 -0.3618  0.1667
 4595TIP3    H135276   0.006   0.987  10.265 -0.4988 -0.8940 -0.2970
 4595TIP3    H235277   0.055   1.060  10.142 -0.2510  0.4223  0.5517
 4596TIP3   OH235278   1.011   1.236   3.758  0.3570 -0.2984 -0.4277
 4596TIP3    H135279   1.057   1.153   3.770  0.4945 -0.0004  1.3014
 4596TIP3    H235280   1.081   1.301   3.755  0.1776 -0.0994 -0.3158
 4597TIP3   OH235281   6.368   0.569  15.403  0.1029 -0.6162 -0.4766
 4597TIP3    H135282   6.367   0.621  15.483 -0.8792 -0.4623 -0.5760
 4597TIP3    H235283   6.333   0.628  15.336 -1.3671 -1.5002 -0.5187
 4598TIP3   OH235284   3.294   2.605  12.799  0.0434 -0.1478 -0.6210
 4598TIP3    H135285   3.212   2.572  12.763  1.1142 -1.5906 -1.8931
 4598TIP3    H235286   3.315   2.680  12.745 -0.7205  0.6260  0.1196
 4599TIP3   OH235287   4.354   2.282  11.884 -0.0197 -0.1075 -0.1615
 4599TIP3    H135288   4.448   2.289  11.902  0.0909 -0.0365 -0.7366
 4599TIP3    H235289   4.345   2.199  11.838 -0.3026 -0.3159  0.2677
 4600TIP3   OH235290   2.231   5.977  13.963  0.0962  0.1567  0.0587
 4600TIP3    H135291   2.268   5.921  14.032 -0.0426 -0.3453 -0.2697
 4600TIP3    H235292   2.212   5.917  13.891 -4.3042 -0.2747  1.2802
 4601TIP3   OH235293   2.911   6.476   4.088 -0.3020 -0.0098  0.5183
 4601TIP3    H135294   2.894   6.555   4.037 -0.3754 -0.4212 -0.1137
 4601TIP3    H235295   2.900   6.404   4.025  3.1886 -0.3794  0.1230
 4602TIP3   OH235296   3.135   3.195  16.065  0.0424  0.8420  0.0782
 4602TIP3    H135297   3.210   3.251  16.048  0.7057 -0.3913 -1.3203
 4602TIP3    H235298   3.066   3.231  16.009  0.0803  1.0349  0.1556
 4603TIP3   OH235299   6.689   0.911  10.817 -0.3290 -0.1137  0.1497
 4603TIP3    H135300   6.716   0.879  10.731 -1.5527 -1.2713  0.1592
 4603TIP3    H235301   6.619   0.974  10.799 -0.0381  0.2502  0.2720
 4604TIP3   OH235302   3.403   0.581   5.519 -1.0005 -0.3925  0.0105
 4604TIP3    H135303   3.476   0.531   5.482 -1.5023 -1.2999  0.2232
 4604TIP3    H235304   3.338   0.515   5.544 -1.5824  0.3498  0.5215
 4605TIP3   OH235305   3.648   0.797  14.388 -0.2845 -0.1503  0.2530
 4605TIP3    H135306   3.587   0.871  14.384 -1.3713 -1.0772 -0.6544
 4605TIP3    H235307   3.647   0.771  14.481 -1.7825 -0.5498  0.1532
 4606TIP3   OH235308   4.674   5.558   2.952 -0.2584  0.0448 -0.1893
 4606TIP3    H135309   4.685   5.600   3.037 -2.5669 -1.5219  0.9887
 4606TIP3    H235310   4.763   5.552   2.917  0.7381  0.9785  1.9943
 4607TIP3   OH235311   6.218   0.270   1.134 -0.4090 -0.7374 -0.4940
 4607TIP3    H135312   6.189   0.360   1.149 -2.2567 -0.8434 -2.7853
 4607TIP3    H235313   6.229   0.233   1.221  1.1926  1.9023  0.5220
 4608TIP3   OH235314   2.121   4.246   0.944  0.2706 -0.5593  0.1281
 4608TIP3    H135315   2.099   4.153   0.940 -1.5401 -0.1743  0.0555
 4608TIP3    H235316   2.075   4.278   1.022  0.5678  0.3360 -0.0509
 4609TIP3   OH235317   3.494   0.530  12.240 -0.2131  0.5695 -0.4455
 4609TIP3    H135318   3.548   0.580  12.300 -1.1176 -0.1471  1.0228
 4609TIP3    H235319   3.439   0.595  12.196  1.8208  1.3160 -2.0212
 4610TIP3   OH235320   6.534   3.596   2.021  0.5405 -0.1523 -0.3623
 4610TIP3    H135321   6.551   3.684   2.056  0.1464  0.1438 -0.8911
 4610TIP3    H235322   6.478   3.554   2.087  2.1201 -0.6303  0.7100
 4611TIP3   OH235323   5.377   4.058   6.195 -0.1746  0.0962  0.1864
 4611TIP3    H135324   5.418   4.094   6.273 -1.9364 -2.8054  2.6623
 4611TIP3    H235325   5.423   3.976   6.178 -0.0259  0.5152 -1.6995
 4612TIP3   OH235326   6.460   2.599  12.142 -0.1974 -0.2788  0.1252
 4612TIP3    H135327   6.525   2.628  12.078  0.1773 -0.4081  0.4501
 4612TIP3    H235328   6.376   2.616  12.098  0.0574 -0.6503 -0.5272
 4613TIP3   OH235329   5.315   2.721  15.335 -0.4467  1.1917 -0.1133
 4613TIP3    H135330   5.402   2.705  15.299 -0.5614 -0.0567  0.1080
 4613TIP3    H235331   5.320   2.808  15.374  0.0271  2.1219 -2.0922
 4614TIP3   OH235332   6.201   0.731  14.743 -0.1561  0.3438  0.5264
 4614TIP3    H135333   6.199   0.672  14.819  2.2565  0.8680  1.0874
 4614TIP3    H235334   6.264   0.691  14.684 -2.1221 -0.1412 -1.3880
 4615TIP3   OH235335   6.633   1.854  14.751 -0.3884  0.0800 -0.3815
 4615TIP3    H135336   6.605   1.777  14.800 -0.7340  0.0520 -0.6191
 4615TIP3    H235337   6.701   1.822  14.692  0.5498  0.2482  0.5695
 4616TIP3   OH235338   0.461   3.508   0.448 -0.7108  0.8033 -0.3794
 4616TIP3    H135339   0.493   3.597   0.464  0.3495  0.4610 -0.4887
 4616TIP3    H235340   0.460   3.467   0.535  1.7833 -0.0015 -0.6352
 4617TIP3   OH235341   3.815   0.122   2.215  0.5575 -0.0701 -0.3468
 4617TIP3    H135342   3.778   0.035   2.230  1.4126 -0.7581 -1.9876
 4617TIP3    H235343   3.765   0.157   2.141  0.5215  0.6603  0.0149
 4618TIP3   OH235344   5.087   0.450   6.245  0.6947 -0.4032 -0.5691
 4618TIP3    H135345   5.046   0.430   6.161 -0.6460 -0.7900  0.1480
 4618TIP3    H235346   5.028   0.513   6.287  2.2176  1.1424 -0.6097
 4619TIP3   OH235347   5.341   6.518   3.121 -0.1332 -0.7789 -0.0877
 4619TIP3    H135348   5.246   6.507   3.124 -0.3502  0.9237  0.6121
 4619TIP3    H235349   5.358   6.562   3.038 -0.0818 -0.2023  0.2214
 4620TIP3   OH235350   5.104   5.355  11.811 -0.5060 -0.1548 -0.0435
 4620TIP3    H135351   5.043   5.428  11.816 -4.8079 -3.3939 -0.0392
 4620TIP3    H235352   5.090   5.317  11.724  2.6185 -0.3515 -0.6021
 4621TIP3   OH235353   1.836   3.966   2.297  0.4669  0.1897  0.1167
 4621TIP3    H135354   1.749   3.959   2.257  0.6473 -2.6227  0.0572
 4621TIP3    H235355   1.824   3.933   2.386  1.2609  0.9892  0.5380
 4622TIP3   OH235356   1.777   4.969  15.462  0.1550 -0.0445 -0.5559
 4622TIP3    H135357   1.682   4.954  15.460  0.4138 -1.7581 -0.9304
 4622TIP3    H235358   1.791   5.016  15.545 -1.3164  2.7855 -1.7468
 4623TIP3   OH235359   6.634   2.364   4.692  0.1037  0.8588  0.1549
 4623TIP3    H135360   6.545   2.353   4.657 -0.5869  2.3869  1.2869
 4623TIP3    H235361   6.623   2.357   4.787  1.1115  1.5054  0.3372
 4624TIP3   OH235362   3.016   0.029   0.591  0.1628 -0.5227 -0.0770
 4624TIP3    H135363   2.926   0.044   0.621  0.4101  1.0980 -0.0265
 4624TIP3    H235364   3.012  -0.052   0.541 -1.2116 -0.7732  0.3943
 4625TIP3   OH235365   5.957   4.447  16.500 -0.0907  0.4186  0.0324
 4625TIP3    H135366   5.961   4.509  16.573 -1.6297 -0.6356  1.1067
 4625TIP3    H235367   5.866   4.451  16.471 -0.5892 -2.1056  0.9371
 4626TIP3   OH235368   4.489   6.536  15.524  0.0214 -0.4389  0.5556
 4626TIP3    H135369   4.548   6.588  15.469  0.0631 -2.8440 -1.9207
 4626TIP3    H235370   4.403   6.573  15.508  0.3979  1.0345  1.6538
 4627TIP3   OH235371   6.598   1.605  14.871 -0.3171 -0.1365 -0.0432
 4627TIP3    H135372   6.519   1.560  14.839  1.8846 -3.5717 -1.3317
 4627TIP3    H235373   6.604   1.581  14.963  0.1574 -1.6345 -0.4196
 4628TIP3   OH235374   4.080   2.763   0.389  0.3463  0.2166 -0.1322
 4628TIP3    H135375   4.022   2.689   0.411 -0.0662  0.9317  1.3434
 4628TIP3    H235376   4.048   2.794   0.305 -1.1767  0.3266  0.4485
 4629TIP3   OH235377   3.942   4.794  12.134 -0.0486 -0.7562  0.4028
 4629TIP3    H135378   3.980   4.725  12.189 -0.4376 -0.2456  1.3370
 4629TIP3    H235379   4.017   4.834  12.090  0.6067  0.5014  2.5234
 4630TIP3   OH235380   6.755   0.692   0.563 -0.2140  0.5821 -0.5093
 4630TIP3    H135381   6.765   0.755   0.634  1.2876  0.9666 -1.0218
 4630TIP3    H235382   6.733   0.745   0.486 -1.0287  0.2536 -0.5137
 4631TIP3   OH235383   2.568   0.080  13.391 -0.0360  0.3830  0.7948
 4631TIP3    H135384   2.492   0.133  13.367 -0.8012 -1.2279 -0.5402
 4631TIP3    H235385   2.547  -0.007  13.359  1.6498 -0.4982  1.9614
 4632TIP3   OH235386   0.548   3.946   5.041  0.0919 -0.1345 -0.1667
 4632TIP3    H135387   0.455   3.937   5.065  0.1630 -1.2592 -0.2428
 4632TIP3    H235388   0.550   3.931   4.947  0.2402  0.8330 -0.3208
 4633TIP3   OH235389   2.329   6.790   0.329 -0.6080  0.5020 -0.1147
 4633TIP3    H135390   2.277   6.742   0.393 -0.4472  1.9414  1.1676
 4633TIP3    H235391   2.420   6.773   0.356 -0.5356  0.9407 -0.0780
 4634TIP3   OH235392   4.608   0.050  16.518  0.2013 -0.3880  0.3108
 4634TIP3    H135393   4.632   0.070  16.609 -0.0014  1.7371 -0.0445
 4634TIP3    H235394   4.691   0.054  16.471  0.0675  0.4629  0.1227
 4635TIP3   OH235395   5.601   1.660   0.457  0.2320  0.4478 -0.1510
 4635TIP3    H135396   5.511   1.680   0.431 -0.4373  1.3981  2.5870
 4635TIP3    H235397   5.603   1.677   0.551  3.1563 -0.0724 -0.0380
 4636TIP3   OH235398   4.857   5.180  12.267  0.0237  0.5854 -0.7915
 4636TIP3    H135399   4.898   5.094  12.281 -0.1354  0.7817  1.1109
 4636TIP3    H235400   4.881   5.203  12.177  1.6455 -0.6120 -0.7235
 4637TIP3   OH235401   5.932   6.481  12.940  0.0231  0.6690  0.3935
 4637TIP3    H135402   5.851   6.430  12.937 -0.3478  1.2951 -0.3202
 4637TIP3    H235403   5.995   6.422  12.983 -0.2910 -0.5242 -0.7264
 4638TIP3   OH235404   5.021   6.138  14.186  0.0456 -0.2713  0.4227
 4638TIP3    H135405   4.968   6.061  14.164  0.0572 -0.1252 -0.1336
 4638TIP3    H235406   5.085   6.144  14.115  1.0159 -0.6281  1.2374
 4639TIP3   OH235407   3.212   5.375   5.634  0.0602  0.4575  0.4624
 4639TIP3    H135408   3.270   5.427   5.689  0.1238 -0.7688  1.6111
 4639TIP3    H235409   3.124   5.399   5.664  0.0773  0.2195  0.7098
 4640TIP3   OH235410   1.891   3.949  11.320 -0.7529  0.2620  0.1320
 4640TIP3    H135411   1.971   3.993  11.291 -0.6612 -0.0887 -0.1416
 4640TIP3    H235412   1.880   3.875  11.261 -1.3016  0.3266  0.1447
 4641TIP3   OH235413   1.562   3.064   4.099  0.1107 -0.1183  0.0502
 4641TIP3    H135414   1.534   3.143   4.144 -1.0084  0.0106 -0.8340
 4641TIP3    H235415   1.658   3.072   4.091  0.1234  0.6140  0.9259
 4642TIP3   OH235416   2.789   2.375   3.714 -0.1871  0.0336 -0.0380
 4642TIP3    H135417   2.729   2.447   3.698 -0.4404 -0.3741 -0.9790
 4642TIP3    H235418   2.735   2.296   3.703  0.2349 -0.3151  0.3367
 4643TIP3   OH235419   0.569   5.216  16.328  0.4638  0.1712 -0.4683
 4643TIP3    H135420   0.493   5.274  16.330  0.9440  0.8216 -0.7525
 4643TIP3    H235421   0.595   5.207  16.420  0.2186  0.1774 -0.3984
 4644TIP3   OH235422   2.216   3.717   3.391  0.0178  0.0058 -0.4017
 4644TIP3    H135423   2.282   3.786   3.399  0.2265 -0.2218 -0.1161
 4644TIP3    H235424   2.133   3.762   3.402  0.1815  0.1185  0.4237
 4645TIP3   OH235425   5.541   3.596  11.049 -0.4939 -0.4298  0.1082
 4645TIP3    H135426   5.597   3.629  11.120  0.7020 -0.3890 -0.8363
 4645TIP3    H235427   5.552   3.501  11.052 -0.3969 -0.4236 -0.0637
 4646TIP3   OH235428   3.343   2.311   6.057  0.4964 -0.1410  0.1554
 4646TIP3    H135429   3.324   2.377   6.123  1.9402  0.7367 -0.2670
 4646TIP3    H235430   3.262   2.259   6.051 -0.2836  0.8942  1.2753
 4647TIP3   OH235431   3.352   2.816   5.294  0.4566  0.3681  0.2047
 4647TIP3    H135432   3.377   2.795   5.204 -1.8613  0.2335 -0.4832
 4647TIP3    H235433   3.318   2.734   5.330 -0.6981  0.9289  0.4296
 4648TIP3   OH235434   4.120   3.643   0.129 -0.0126 -0.1865  0.3291
 4648TIP3    H135435   4.215   3.633   0.125 -0.0353 -0.9674  1.4260
 4648TIP3    H235436   4.103   3.670   0.219 -0.8619 -0.4221  0.2428
 4649TIP3   OH235437   1.328   4.512  15.306  0.1477 -0.6780  0.3210
 4649TIP3    H135438   1.262   4.580  15.311 -0.0103 -0.8831  1.1083
 4649TIP3    H235439   1.287   4.442  15.255  0.4547 -0.0441 -0.8441
 4650TIP3   OH235440   3.054   6.172   0.476 -0.2986 -0.1224 -0.0708
 4650TIP3    H135441   2.968   6.143   0.505 -0.6991  1.3420  0.3191
 4650TIP3    H235442   3.053   6.267   0.490  0.9550  0.0814 -1.1718
 4651TIP3   OH235443   6.682   0.475  15.352 -0.2855  0.0279  0.1939
 4651TIP3    H135444   6.767   0.441  15.380 -0.5852 -1.3509 -0.4521
 4651TIP3    H235445   6.619   0.420  15.399 -0.8140  0.5668  0.1164
 4652TIP3   OH235446   1.600   1.309   2.723  0.7852  0.3881 -0.7557
 4652TIP3    H135447   1.555   1.391   2.704 -1.3562 -0.3278  0.8397
 4652TIP3    H235448   1.531   1.251   2.756  2.4611 -1.6329 -0.6250
 4653TIP3   OH235449   6.256   6.195   0.185 -0.0791 -0.2135  0.2158
 4653TIP3    H135450   6.279   6.286   0.203 -1.7485  0.0997  0.9814
 4653TIP3    H235451   6.169   6.200   0.146  0.0445 -1.4568 -0.2614
 4654TIP3   OH235452   3.844   3.721  10.841 -0.4020 -0.5501 -0.1597
 4654TIP3    H135453   3.755   3.755  10.826 -0.3575 -1.3594 -2.8471
 4654TIP3    H235454   3.898   3.800  10.852 -1.2563 -0.0116  0.3316
 4655TIP3   OH235455   5.109   0.707  14.614  0.0330  0.4822  0.5239
 4655TIP3    H135456   5.169   0.778  14.637 -0.8091  2.1358 -1.9686
 4655TIP3    H235457   5.133   0.683  14.525 -2.6475  0.9073 -0.3968
 4656TIP3   OH235458   1.685   0.567   4.003  0.5422 -0.6162  0.4686
 4656TIP3    H135459   1.735   0.646   4.025  2.3274 -1.3125 -0.8295
 4656TIP3    H235460   1.707   0.505   4.073 -0.0969 -0.2980  0.9635
 4657TIP3   OH235461   1.054   0.843  16.392  0.2805  0.4066  0.0273
 4657TIP3    H135462   1.147   0.831  16.410  0.5069  1.5924 -0.2896
 4657TIP3    H235463   1.038   0.791  16.314  0.6243  0.0513  0.1864
 4658TIP3   OH235464   6.107   3.057  11.726  0.3594  0.4441 -0.1790
 4658TIP3    H135465   6.020   3.095  11.742  0.5895  0.6582  0.5994
 4658TIP3    H235466   6.118   3.063  11.631 -0.7642 -0.2100 -0.3795
 4659TIP3   OH235467   3.641   0.933   4.856 -0.6495 -0.1753  0.3138
 4659TIP3    H135468   3.597   1.018   4.867 -0.4259  0.2140 -1.4750
 4659TIP3    H235469   3.714   0.936   4.919  1.6101  2.5694 -2.1319
 4660TIP3   OH235470   3.820   1.225   1.588 -0.1069 -0.4151  0.4744
 4660TIP3    H135471   3.883   1.238   1.660  1.8146  0.7167 -1.2935
 4660TIP3    H235472   3.812   1.311   1.548 -1.2139 -0.9923 -0.6036
 4661TIP3   OH235473   5.139   4.407  16.763 -0.3096 -0.0871  0.0703
 4661TIP3    H135474   5.173   4.350  16.831 -0.6828 -1.6406 -0.9870
 4661TIP3    H235475   5.201   4.480  16.758  0.6768 -0.8610  0.8383
 4662TIP3   OH235476   4.393   4.573   3.010 -0.5111 -0.0210  0.0775
 4662TIP3    H135477   4.450   4.519   2.955 -0.9909 -0.5562  0.0913
 4662TIP3    H235478   4.339   4.622   2.947 -1.1197 -0.6975  0.0521
 4663TIP3   OH235479   4.995   2.198   2.737  0.0603  0.0828 -0.6518
 4663TIP3    H135480   4.955   2.117   2.706 -0.8538  0.7216 -1.2118
 4663TIP3    H235481   4.944   2.267   2.694 -0.6237  1.0052  1.5117
 4664TIP3   OH235482   4.632   5.310  10.399 -0.4092 -0.1071 -0.7465
 4664TIP3    H135483   4.680   5.319  10.481  0.2403 -0.8318 -1.0289
 4664TIP3    H235484   4.547   5.350  10.416 -0.1874 -0.0054  0.1876
 4665TIP3   OH235485   3.124   5.788   0.801  0.0474  0.0054  0.4850
 4665TIP3    H135486   3.184   5.714   0.806 -1.5743 -1.4772 -1.0089
 4665TIP3    H235487   3.181   5.865   0.805  1.8320 -1.2946  1.3917
 4666TIP3   OH235488   0.743   1.232   5.556  0.2903 -0.2020  0.1059
 4666TIP3    H135489   0.728   1.325   5.539 -0.7302 -0.2309  0.7642
 4666TIP3    H235490   0.816   1.209   5.498  2.3064  1.6009  1.7372
 4667TIP3   OH235491   6.784   1.929  12.790 -0.0684  0.1416 -0.1262
 4667TIP3    H135492   6.700   1.939  12.744 -0.3607  0.9525  0.5537
 4667TIP3    H235493   6.770   1.972  12.874  1.0399  0.2970 -0.0056
 4668TIP3   OH235494   2.132   2.510  16.242  0.3729  0.2653 -0.3931
 4668TIP3    H135495   2.062   2.562  16.202  0.1107  0.8447  0.7765
 4668TIP3    H235496   2.139   2.432  16.187 -1.2586  0.1603 -0.4932
 4669TIP3   OH235497   1.064   1.278   2.447  0.1026  0.3079  0.1929
 4669TIP3    H135498   1.147   1.241   2.416 -0.8583 -1.3151 -0.5345
 4669TIP3    H235499   1.082   1.305   2.537  1.6035  0.6429 -0.1794
 4670TIP3   OH235500   4.309   5.639   0.042 -0.1953  0.3668  0.4340
 4670TIP3    H135501   4.247   5.598  -0.018 -0.3364  0.5536  0.4503
 4670TIP3    H235502   4.280   5.730   0.047 -0.0156  0.4159  0.5675
 4671TIP3   OH235503   5.012   4.363  16.416 -0.1454 -0.2755 -0.9617
 4671TIP3    H135504   4.963   4.307  16.355 -1.4403 -1.1227  0.7425
 4671TIP3    H235505   4.972   4.345  16.502 -0.5782  3.2094 -0.2848
 4672TIP3   OH235506   2.911   0.034   3.756  0.1628 -0.0406  0.4891
 4672TIP3    H135507   3.005   0.018   3.766  0.4680  1.3496  0.1126
 4672TIP3    H235508   2.903   0.074   3.670 -0.7158  0.3273  0.7328
 4673TIP3   OH235509   4.623   0.218   0.969  0.1357  0.7762  0.1998
 4673TIP3    H135510   4.706   0.194   0.928  0.0445  1.7871 -0.6285
 4673TIP3    H235511   4.619   0.313   0.959 -0.7336  0.8325  0.9887
 4674TIP3   OH235512   1.418   1.292  11.195  0.5494 -0.5590  0.6203
 4674TIP3    H135513   1.360   1.217  11.202  0.5188 -0.9140 -2.3093
 4674TIP3    H235514   1.472   1.274  11.119  0.5461  2.3556 -0.1986
 4675TIP3   OH235515   4.511   3.800  16.550 -0.6428 -0.4052 -0.4295
 4675TIP3    H135516   4.454   3.728  16.522 -0.7453  0.5336 -2.8436
 4675TIP3    H235517   4.600   3.767  16.537 -0.6299 -0.8978  0.7502
 4676TIP3   OH235518   4.766   2.069  12.770 -0.2591  0.5101 -0.6766
 4676TIP3    H135519   4.672   2.078  12.751 -0.5433 -0.2128  0.3185
 4676TIP3    H235520   4.788   2.147  12.820 -1.0169 -0.6166  1.5503
 4677TIP3   OH235521   2.301   4.787  16.385 -0.1183  0.2017  0.2570
 4677TIP3    H135522   2.306   4.763  16.478  1.8963  0.4897  0.2839
 4677TIP3    H235523   2.244   4.722  16.346 -0.0122 -0.6617  1.4892
 4678TIP3   OH235524   2.365   0.087   1.341 -0.3023  0.3028  0.2989
 4678TIP3    H135525   2.385   0.167   1.389  0.7576  0.4673 -0.3833
 4678TIP3    H235526   2.310   0.116   1.268 -2.9352 -0.1052  1.9914
 4679TIP3   OH235527   1.464   2.721   4.570 -0.1624 -0.0636 -0.3329
 4679TIP3    H135528   1.560   2.713   4.564  0.0057  1.0386  0.6663
 4679TIP3    H235529   1.444   2.699   4.661 -0.8002  0.3512 -0.3734
 4680TIP3   OH235530   2.562   0.243  16.994 -0.2547  0.0885 -0.0311
 4680TIP3    H135531   2.617   0.321  17.006 -1.8963  1.4255 -0.6493
 4680TIP3    H235532   2.623   0.170  16.989  1.3736  1.3740  0.3332
 4681TIP3   OH235533   1.093   2.760  13.222  0.8071 -0.1303 -0.5604
 4681TIP3    H135534   1.135   2.832  13.268  1.2827 -0.5477 -0.3273
 4681TIP3    H235535   1.053   2.707  13.291  1.5618 -0.7838 -0.6031
 4682TIP3   OH235536   3.024   0.330   4.799 -0.3002 -0.2168 -0.1190
 4682TIP3    H135537   3.114   0.312   4.828 -1.0062 -2.2843  1.0159
 4682TIP3    H235538   3.021   0.425   4.788  1.6677  0.0540  1.1032
 4683TIP3   OH235539   0.748   6.215   3.865  0.0772  0.3207  0.8854
 4683TIP3    H135540   0.681   6.280   3.846 -1.1175 -1.7379 -3.0208
 4683TIP3    H235541   0.823   6.241   3.812  0.6191  0.0382  1.5032
 4684TIP3   OH235542   0.977   2.755   1.279  0.4047  0.0501  0.3863
 4684TIP3    H135543   1.070   2.747   1.302  0.6122  3.0045  1.0173
 4684TIP3    H235544   0.934   2.686   1.329  2.1723 -0.9953  0.5518
 4685TIP3   OH235545   3.981   1.187  13.838 -0.0080 -0.0854 -0.2674
 4685TIP3    H135546   3.964   1.267  13.888 -0.4098 -0.6643  0.5545
 4685TIP3    H235547   3.974   1.214  13.747  0.8291  1.0155 -0.0201
 4686TIP3   OH235548   1.120   3.906   0.435 -0.3896  0.0582 -0.7685
 4686TIP3    H135549   1.178   3.982   0.428 -0.3079  0.1890  0.9135
 4686TIP3    H235550   1.032   3.941   0.422 -0.3063  0.3524 -0.5557
 4687TIP3   OH235551   1.831   5.253  11.184 -0.1370  0.0573 -0.5336
 4687TIP3    H135552   1.867   5.177  11.139  1.5766  1.6430 -1.9875
 4687TIP3    H235553   1.878   5.255  11.268  1.5860  0.8112 -1.4752
 4688TIP3   OH235554   4.751   0.581  12.740 -0.4906 -0.0983  0.5069
 4688TIP3    H135555   4.812   0.586  12.814 -1.2841 -1.0639  1.2610
 4688TIP3    H235556   4.807   0.582  12.663  0.3788  0.6133  1.1194
 4689TIP3   OH235557   0.324   1.229   5.663  0.1584  0.4528 -0.2629
 4689TIP3    H135558   0.254   1.202   5.604 -0.8741  2.9463 -0.3007
 4689TIP3    H235559   0.393   1.164   5.649 -1.1194 -0.6151 -2.1342
 4690TIP3   OH235560   4.329   1.674  14.929 -0.6589  0.2872  0.0113
 4690TIP3    H135561   4.381   1.755  14.930  1.5413 -1.0528 -0.1886
 4690TIP3    H235562   4.271   1.685  14.853 -0.3716  1.6617 -0.0365
 4691TIP3   OH235563   4.895   1.786   4.672  0.0719 -0.4897  0.3037
 4691TIP3    H135564   4.857   1.786   4.760  1.4100 -1.1925  0.9162
 4691TIP3    H235565   4.864   1.705   4.632  0.7987 -1.0001  0.7555
 4692TIP3   OH235566   2.148   2.024  16.755 -0.4760 -0.3000 -0.2575
 4692TIP3    H135567   2.053   2.013  16.760 -0.5977  0.0149 -1.5877
 4692TIP3    H235568   2.161   2.105  16.705  0.4937  0.5354  1.2515
 4693TIP3   OH235569   0.655   6.683  13.693  0.0437 -0.0600  0.2726
 4693TIP3    H135570   0.653   6.770  13.653 -2.5629  0.8404  2.0607
 4693TIP3    H235571   0.731   6.685  13.751  0.2493  0.8872 -0.0127
 4694TIP3   OH235572   5.478   3.741  11.543  0.3404 -0.2515  0.6213
 4694TIP3    H135573   5.391   3.770  11.569 -0.4779 -1.2745 -0.8553
 4694TIP3    H235574   5.533   3.819  11.551 -1.0054  0.7665  0.2410
 4695TIP3   OH235575   6.837   3.826  16.820  0.1690 -0.6841 -0.1270
 4695TIP3    H135576   6.834   3.908  16.870 -1.2539 -0.1205 -1.0606
 4695TIP3    H235577   6.900   3.844  16.750  0.3539 -0.6296  0.0520
 4696TIP3   OH235578   2.880   4.615   3.978 -0.0953  0.6009  0.3013
 4696TIP3    H135579   2.892   4.587   4.068 -0.9605 -0.6777  0.0551
 4696TIP3    H235580   2.967   4.608   3.939  0.2220  0.8659  0.9500
 4697TIP3   OH235581   2.752   1.789  14.214  0.2966 -0.1144  0.4544
 4697TIP3    H135582   2.747   1.881  14.188  0.8276  0.0317  0.8600
 4697TIP3    H235583   2.663   1.768  14.242  0.2236  0.3420  0.5782
 4698TIP3   OH235584   2.182   6.230  12.040 -0.1108 -0.2518  0.1121
 4698TIP3    H135585   2.172   6.324  12.056 -1.4184 -0.5896  1.4376
 4698TIP3    H235586   2.134   6.214  11.959 -1.7123 -0.1122  1.0068
 4699TIP3   OH235587   3.972   1.285   0.010 -0.2388  0.1448 -0.2586
 4699TIP3    H135588   4.025   1.206   0.004 -1.7304 -0.9487  0.4217
 4699TIP3    H235589   3.883   1.256  -0.010 -0.9642  1.4702  0.8673
 4700TIP3   OH235590   5.242   6.751  10.754  0.1505 -0.0297 -0.3797
 4700TIP3    H135591   5.162   6.715  10.717 -0.1766  1.7816 -1.5329
 4700TIP3    H235592   5.290   6.674  10.787 -1.8850 -1.1768  0.0728
 4701TIP3   OH235593   1.939   0.764  12.439 -0.1029 -0.2579  0.1276
 4701TIP3    H135594   1.936   0.854  12.472  0.6469 -0.4332  0.6851
 4701TIP3    H235595   1.927   0.710  12.517  0.8303 -0.6643 -0.0081
 4702TIP3   OH235596   2.498   4.204  16.115 -0.5370  0.1549 -0.5219
 4702TIP3    H135597   2.514   4.159  16.032 -0.7361  0.3818 -0.6864
 4702TIP3    H235598   2.576   4.186  16.168 -0.2547  0.2911 -0.8843
 4703TIP3   OH235599   4.629   5.031  14.608  0.5540 -0.3061 -0.1502
 4703TIP3    H135600   4.651   5.061  14.520 -0.2801  0.2628 -0.1739
 4703TIP3    H235601   4.698   4.969  14.630  0.5813 -0.7158 -1.3359
 4704TIP3   OH235602   1.978   3.870  14.712 -0.3150  0.1612 -0.0368
 4704TIP3    H135603   1.934   3.948  14.677 -0.6083  0.3704  0.7860
 4704TIP3    H235604   1.924   3.797  14.683 -1.1864  0.4110  0.9069
 4705TIP3   OH235605   0.303   3.131   4.467  0.9920 -0.1663 -0.2874
 4705TIP3    H135606   0.273   3.222   4.465 -0.4911 -0.6262 -0.3396
 4705TIP3    H235607   0.358   3.122   4.389 -1.1698 -0.0265 -1.9193
 4706TIP3   OH235608   2.521   6.070  15.632  0.2222 -0.0983  0.5255
 4706TIP3    H135609   2.579   6.068  15.708 -0.1344 -0.6642  0.7889
 4706TIP3    H235610   2.474   6.153  15.639  1.9652  1.0389 -0.4374
 4707TIP3   OH235611   2.214   5.673  16.694  0.3966 -0.4078 -0.5702
 4707TIP3    H135612   2.166   5.650  16.615  0.3776 -1.4956 -0.2466
 4707TIP3    H235613   2.147   5.682  16.761  0.6978 -3.9757  0.3846
 4708TIP3   OH235614   4.865   0.903  15.242  0.2544 -0.0513  0.2235
 4708TIP3    H135615   4.809   0.976  15.216  0.5393  0.4075  0.8812
 4708TIP3    H235616   4.843   0.833  15.180 -0.8613  0.2016  0.3018
 4709TIP3   OH235617   6.422   6.545   2.270 -0.3675  0.2527  0.1019
 4709TIP3    H135618   6.342   6.577   2.228 -0.7823  0.5319  1.0642
 4709TIP3    H235619   6.493   6.586   2.221 -0.8687  1.9638  0.7291
 4710TIP3   OH235620   3.096   3.012   4.237 -0.1379  0.1463 -0.2229
 4710TIP3    H135621   3.178   3.056   4.213  0.4483 -0.2852  0.9228
 4710TIP3    H235622   3.030   3.055   4.183  0.9423 -0.0788 -1.8267
 4711TIP3   OH235623   6.574   1.715   4.668  0.0307  0.5480  0.2286
 4711TIP3    H135624   6.612   1.707   4.755 -1.1551  0.4410  0.7638
 4711TIP3    H235625   6.630   1.662   4.611  0.1343 -0.3666  1.1585
 4712TIP3   OH235626   0.547   3.167   2.280 -0.3440  0.0471 -0.1328
 4712TIP3    H135627   0.629   3.216   2.285 -0.6325  0.4689  0.5255
 4712TIP3    H235628   0.574   3.076   2.272  0.2136  0.3317 -2.0505
 4713TIP3   OH235629   2.647   1.737  16.144 -0.0503 -0.1025 -0.1382
 4713TIP3    H135630   2.565   1.700  16.111  0.8801  0.0636 -2.9596
 4713TIP3    H235631   2.714   1.676  16.115  1.1025  1.4577 -0.9100
 4714TIP3   OH235632   4.485   6.293  16.963 -0.0376  0.1286  0.1207
 4714TIP3    H135633   4.415   6.276  17.026  0.5312 -2.2964  0.1968
 4714TIP3    H235634   4.535   6.365  17.002 -1.4190  0.6928  0.9415
 4715TIP3   OH235635   2.516   6.254   3.151 -0.4241 -0.7078  0.2197
 4715TIP3    H135636   2.510   6.270   3.057 -2.1565 -0.2727  0.3712
 4715TIP3    H235637   2.427   6.227   3.176 -0.1251 -0.2901  1.8142
 4716TIP3   OH235638   2.668   5.326   1.591  0.2367 -0.0848 -0.3712
 4716TIP3    H135639   2.741   5.267   1.570 -0.2713 -0.2639 -1.7510
 4716TIP3    H235640   2.613   5.275   1.651  0.4299 -0.5654 -0.5920
 4717TIP3   OH235641   1.003   5.100   2.082 -0.1913  0.2313 -0.5296
 4717TIP3    H135642   0.922   5.058   2.113 -0.1855  0.9167  0.4871
 4717TIP3    H235643   1.064   5.088   2.155  0.0384  1.3202 -0.5288
 4718TIP3   OH235644   5.988   2.994   5.655 -0.3630  0.3151 -0.5119
 4718TIP3    H135645   6.055   2.972   5.719 -0.0309  0.4840 -0.7919
 4718TIP3    H235646   6.025   2.967   5.571 -0.6546  0.3905 -0.6691
 4719TIP3   OH235647   0.731   5.615  15.400 -0.1765  0.1228 -0.1631
 4719TIP3    H135648   0.663   5.623  15.467 -0.8786 -1.0418 -0.7065
 4719TIP3    H235649   0.687   5.573  15.326  0.9933 -0.1282 -0.7408
 4720TIP3   OH235650   3.159   4.109  11.515 -0.2978 -0.3744 -0.5579
 4720TIP3    H135651   3.139   4.179  11.453  0.4690  0.4312  0.0787
 4720TIP3    H235652   3.116   4.135  11.596 -0.2149 -0.7662 -0.3842
 4721TIP3   OH235653   1.774   0.432  12.492 -0.0075  0.1583 -0.2155
 4721TIP3    H135654   1.778   0.458  12.400  0.8126  0.5912 -0.0717
 4721TIP3    H235655   1.784   0.514  12.540 -3.4734  0.4037  0.3276
 4722TIP3   OH235656   3.931   2.111  13.395  0.0541  0.6180  0.4105
 4722TIP3    H135657   3.912   2.203  13.378  2.2567  0.9701 -0.4071
 4722TIP3    H235658   4.007   2.091  13.341  0.0142 -1.5283  1.0419
 4723TIP3   OH235659   0.448   4.017  10.681  0.0121 -0.3752 -0.3852
 4723TIP3    H135660   0.507   3.972  10.742  1.2780  1.4775 -0.1492
 4723TIP3    H235661   0.498   4.093  10.653 -1.2475 -0.2398 -2.3904
 4724TIP3   OH235662   4.495   2.113   3.795 -0.7080  0.4677 -0.4308
 4724TIP3    H135663   4.405   2.143   3.779 -0.6686  0.5697 -0.4610
 4724TIP3    H235664   4.526   2.085   3.709 -0.7235  0.3978 -0.4136
 4725TIP3   OH235665   0.738   3.928  14.007  0.3534  0.3921  0.0945
 4725TIP3    H135666   0.708   3.873  13.935 -0.6025  0.3614  0.4946
 4725TIP3    H235667   0.742   3.868  14.082  1.3503  0.4194  0.0719
 4726TIP3   OH235668   0.034   4.275   4.846  0.0549  0.4276  0.1672
 4726TIP3    H135669   0.005   4.204   4.790  0.8634  0.2915 -0.1036
 4726TIP3    H235670   0.054   4.347   4.785 -0.0817  0.6459  0.3766
 4727TIP3   OH235671   1.408   4.493  14.840 -1.0333  0.3234  0.4349
 4727TIP3    H135672   1.317   4.518  14.827 -1.0681  0.2756  0.5850
 4727TIP3    H235673   1.403   4.405  14.878 -0.8949 -0.4562 -1.2603
 4728TIP3   OH235674   0.369   1.136  15.558 -0.3581  0.2239 -0.2876
 4728TIP3    H135675   0.417   1.218  15.541  0.3963 -0.2900 -0.6840
 4728TIP3    H235676   0.430   1.083  15.609 -0.6986 -0.2506 -0.3694
 4729TIP3   OH235677   2.008   4.276  16.159  0.5910  0.1531  0.2979
 4729TIP3    H135678   1.994   4.318  16.074 -1.7281 -1.2948 -0.1586
 4729TIP3    H235679   1.943   4.316  16.217  2.9003  1.9491  1.8080
 4730TIP3   OH235680   6.150   1.757  10.958  0.4546  0.0139 -0.3768
 4730TIP3    H135681   6.166   1.672  11.000  1.4245  0.4465  0.1622
 4730TIP3    H235682   6.057   1.756  10.936 -0.3417  0.1052  2.5872
 4731TIP3   OH235683   1.885   4.982   4.531 -0.3824  0.2271  0.0636
 4731TIP3    H135684   1.823   4.919   4.568 -1.0805  0.0071 -1.4242
 4731TIP3    H235685   1.944   5.002   4.604 -2.7583  1.2149  1.8388
 4732TIP3   OH235686   1.110   6.683  11.220  0.3461  0.2147 -0.1348
 4732TIP3    H135687   1.129   6.683  11.126 -0.0474  1.2250 -0.2291
 4732TIP3    H235688   1.020   6.717  11.226  0.0585 -0.6235  0.5541
 4733TIP3   OH235689   4.338   2.000   4.422 -0.4486  0.2023 -0.8808
 4733TIP3    H135690   4.429   2.016   4.448 -0.3855 -0.1943 -0.8438
 4733TIP3    H235691   4.286   2.037   4.494 -0.2795 -0.6361 -0.3049
 4734TIP3   OH235692   2.990   0.385   1.831  0.0786 -0.1468  0.4545
 4734TIP3    H135693   3.059   0.324   1.804  1.1685  1.3794 -0.3193
 4734TIP3    H235694   2.996   0.385   1.927 -1.8425 -3.3330  0.7279
 4735TIP3   OH235695   5.652   4.605  15.211 -0.2282 -0.8838 -0.5387
 4735TIP3    H135696   5.581   4.594  15.273 -0.0765  0.1576 -0.1466
 4735TIP3    H235697   5.622   4.564  15.131 -1.0224 -0.9783 -0.1950
 4736TIP3   OH235698   4.907   6.317   5.149  0.0810 -0.1328  0.4996
 4736TIP3    H135699   4.863   6.377   5.088  0.1917 -1.7823 -1.2935
 4736TIP3    H235700   4.857   6.324   5.230 -1.2785  0.6960 -0.3653
 4737TIP3   OH235701   4.592   2.086   2.721  0.6412  0.6252  0.2348
 4737TIP3    H135702   4.528   2.075   2.650  1.1246  0.6033 -0.2064
 4737TIP3    H235703   4.669   2.038   2.691  0.9428  0.8456  0.6543
 4738TIP3   OH235704   0.812   2.870  11.873 -0.1076 -0.2686  0.0171
 4738TIP3    H135705   0.743   2.930  11.901 -0.1891  0.2469 -1.2199
 4738TIP3    H235706   0.767   2.787  11.857 -0.6079  0.2822 -1.5629
 4739TIP3   OH235707   0.225   4.972  15.165 -0.0033  0.0326  0.3566
 4739TIP3    H135708   0.138   4.997  15.196  0.5534  0.8840  1.2671
 4739TIP3    H235709   0.209   4.932  15.079 -1.2389  0.5847  0.3102
 4740TIP3   OH235710   5.594   6.516  11.962  0.0927 -0.5485  0.0132
 4740TIP3    H135711   5.527   6.449  11.971  0.6807 -0.9262  2.1549
 4740TIP3    H235712   5.675   6.473  11.990  0.9727  0.3231 -1.0948
 4741TIP3   OH235713   3.491   5.125   3.421 -0.0153 -0.0533  0.2512
 4741TIP3    H135714   3.527   5.037   3.419  0.4227  0.1275 -0.1454
 4741TIP3    H235715   3.490   5.150   3.513 -0.7246 -0.7019  0.4285
 4742TIP3   OH235716   1.924   1.612  16.071  0.1589  0.6688 -0.1501
 4742TIP3    H135717   1.942   1.569  16.155 -0.6675  0.7322  0.0701
 4742TIP3    H235718   1.938   1.705  16.089 -0.0912  0.6902 -0.0537
 4743TIP3   OH235719   5.444   5.739   5.325  0.3630 -0.4119 -0.0381
 4743TIP3    H135720   5.349   5.729   5.315  0.5341 -0.2504 -2.4767
 4743TIP3    H235721   5.480   5.657   5.291  1.1528  0.6204 -1.8076
 4744TIP3   OH235722   5.106   2.836  13.584 -0.1371 -0.1993  0.7047
 4744TIP3    H135723   5.105   2.752  13.630  0.4680  0.0038  1.1058
 4744TIP3    H235724   5.199   2.852  13.566 -0.4392 -0.9590 -1.8759
 4745TIP3   OH235725   4.245   4.567  15.722  0.0333  0.4971  0.9027
 4745TIP3    H135726   4.289   4.500  15.773  1.1244 -0.2610 -0.9528
 4745TIP3    H235727   4.156   4.533  15.708 -0.3740  0.8400  2.4491
 4746TIP3   OH235728   5.498   5.301   6.455 -0.0053 -0.1166  0.2699
 4746TIP3    H135729   5.450   5.347   6.386  0.3654 -1.3717 -0.8658
 4746TIP3    H235730   5.482   5.208   6.438  2.2338 -0.5544  0.2320
 4747TIP3   OH235731   3.448   5.702  11.690  0.6104  0.0782 -0.3086
 4747TIP3    H135732   3.417   5.692  11.780 -1.4542 -0.2843 -0.9896
 4747TIP3    H235733   3.426   5.619  11.648 -0.1214  0.8742 -1.5676
 4748TIP3   OH235734   2.846   6.708  10.509  0.0061  0.1093  0.1479
 4748TIP3    H135735   2.843   6.659  10.427 -0.3336  0.5658 -0.1135
 4748TIP3    H235736   2.938   6.701  10.537 -0.0078 -0.5669  0.0556
 4749TIP3   OH235737   0.872   3.663  13.086  0.0820 -0.3678 -0.0931
 4749TIP3    H135738   0.859   3.571  13.109  1.0564 -0.8116 -1.2527
 4749TIP3    H235739   0.963   3.668  13.056  0.0142  0.9578 -0.1330
 4750TIP3   OH235740   3.717   1.822  16.364  0.4217 -0.0702  0.0742
 4750TIP3    H135741   3.676   1.904  16.391 -1.6706 -1.2333  0.6637
 4750TIP3    H235742   3.721   1.827  16.269 -0.6586  0.3184  0.0357
 4751TIP3   OH235743   0.031   4.315  14.372 -0.2614  1.3957  0.0949
 4751TIP3    H135744   0.029   4.275  14.285  0.9558 -0.4492  0.8400
 4751TIP3    H235745  -0.059   4.340  14.389 -0.9624 -0.3069 -0.8198
 4752TIP3   OH235746   6.120   6.252   4.410 -0.5415  0.3057  0.3856
 4752TIP3    H135747   6.123   6.209   4.495  1.2382 -2.6499 -1.0221
 4752TIP3    H235748   6.193   6.315   4.413 -0.2258 -0.0797  0.8939
 4753TIP3   OH235749   5.640   2.839   5.080 -0.3163 -0.2220 -0.4990
 4753TIP3    H135750   5.641   2.838   5.176  0.8834 -1.9553 -0.4845
 4753TIP3    H235751   5.634   2.747   5.055  0.3490  0.1299 -2.0920
 4754TIP3   OH235752   4.935   4.091  15.910 -0.0681 -0.0577 -0.5959
 4754TIP3    H135753   4.989   4.124  15.838  1.9065  2.3689  1.7602
 4754TIP3    H235754   4.918   4.168  15.964 -0.2137 -1.9427  2.2805
 4755TIP3   OH235755   4.143   1.765   3.132  0.1290  0.0530  0.8009
 4755TIP3    H135756   4.177   1.713   3.058  0.2599  0.2725  0.7074
 4755TIP3    H235757   4.054   1.788   3.106  0.5571  1.0953  0.2070
 4756TIP3   OH235758   1.777   6.046   1.509  0.1771  0.5698  0.0204
 4756TIP3    H135759   1.732   5.982   1.454 -0.8328 -0.0219  1.4730
 4756TIP3    H235760   1.745   6.131   1.478 -1.5985  0.1839  0.6604
 4757TIP3   OH235761   0.243   6.610   1.012 -0.5699 -0.1586 -0.0097
 4757TIP3    H135762   0.151   6.591   1.032 -0.6345  0.1888  0.0308
 4757TIP3    H235763   0.276   6.655   1.089 -0.3628 -0.2784 -0.0260
 4758TIP3   OH235764   3.432   6.344   1.522 -0.4097  0.1864  0.5842
 4758TIP3    H135765   3.519   6.306   1.536 -0.2136  1.1467  2.2522
 4758TIP3    H235766   3.429   6.364   1.428  0.0381 -2.4942 -0.0667
 4759TIP3   OH235767   1.352   3.851  13.602 -0.0166 -0.2877 -0.1627
 4759TIP3    H135768   1.392   3.938  13.603  0.7724 -0.6479  0.8252
 4759TIP3    H235769   1.258   3.868  13.604 -0.0200  0.5840 -2.8169
 4760TIP3   OH235770   3.422   0.168  16.459 -0.0436  0.1646  0.2876
 4760TIP3    H135771   3.494   0.163  16.522  0.7408  0.7717 -0.5451
 4760TIP3    H235772   3.445   0.241  16.402 -1.2084  0.2126 -0.1422
 4761TIP3   OH235773   0.745   3.317  16.174  0.4439  0.4994  0.0049
 4761TIP3    H135774   0.713   3.246  16.118 -0.3516  0.2385  0.7588
 4761TIP3    H235775   0.777   3.383  16.113 -0.3366  0.2021 -0.7606
 4762TIP3   OH235776   2.817   6.693   3.951 -0.1874 -0.1446  0.1395
 4762TIP3    H135777   2.846   6.738   3.873 -2.0932  0.2828 -0.3796
 4762TIP3    H235778   2.794   6.763   4.013 -0.3654 -0.4474  0.4231
 4763TIP3   OH235779   5.931   2.451  16.305 -0.9810 -0.2003 -0.5001
 4763TIP3    H135780   5.907   2.399  16.382  1.5458 -1.3709 -0.3933
 4763TIP3    H235781   5.942   2.540  16.338  1.2925 -0.9100  0.8364
 4764TIP3   OH235782   3.368   1.624  13.701 -0.2846 -0.1418  0.0883
 4764TIP3    H135783   3.443   1.623  13.761 -1.7880 -1.3948  2.0837
 4764TIP3    H235784   3.329   1.537  13.710 -1.9711  0.4628 -0.9055
 4765TIP3   OH235785   4.467   6.843  11.076 -0.1618  0.2755 -0.0153
 4765TIP3    H135786   4.455   6.870  11.167  0.4943  1.2426 -0.1970
 4765TIP3    H235787   4.474   6.748  11.080 -0.8210  0.2471  0.8581
 4766TIP3   OH235788   1.485   3.178   0.120 -0.3764  0.2700 -0.5670
 4766TIP3    H135789   1.420   3.248   0.112 -2.0804 -1.2867 -0.9008
 4766TIP3    H235790   1.458   3.113   0.055  1.2357 -0.6596 -0.3438
 4767TIP3   OH235791   4.514   5.183  14.142 -0.1426 -0.2328 -0.3844
 4767TIP3    H135792   4.512   5.277  14.127 -0.0757 -0.5004 -2.2960
 4767TIP3    H235793   4.429   5.151  14.110 -0.5307 -0.7402  1.0556
 4768TIP3   OH235794   0.477   4.673  17.025 -0.1357  0.0318 -0.4137
 4768TIP3    H135795   0.469   4.583  17.055  0.5549 -0.3689 -1.3815
 4768TIP3    H235796   0.459   4.669  16.931 -2.2863  1.2637 -0.1207
 4769TIP3   OH235797   5.684   6.146  11.877  0.2788 -0.2508 -0.9116
 4769TIP3    H135798   5.622   6.199  11.827 -0.3701 -0.8045 -0.7100
 4769TIP3    H235799   5.630   6.102  11.943  0.6469 -1.8302 -1.6177
 4770TIP3   OH235800   1.827   1.358   0.942 -0.4537  0.0174 -0.5870
 4770TIP3    H135801   1.754   1.349   1.003 -0.1371 -1.4870 -0.3914
 4770TIP3    H235802   1.805   1.299   0.870 -0.7161  1.5998 -1.8668
 4771TIP3   OH235803   2.434   0.961  10.943 -0.3665 -0.3393 -0.0148
 4771TIP3    H135804   2.434   0.872  10.908 -1.7981  0.3703 -2.0394
 4771TIP3    H235805   2.422   1.017  10.866 -0.8725  1.5288  1.3352
 4772TIP3   OH235806   1.469   0.495  16.916  0.5147  0.7204 -0.4428
 4772TIP3    H135807   1.420   0.461  16.841 -0.7020 -2.0203  1.4234
 4772TIP3    H235808   1.407   0.555  16.959 -0.2084 -0.5013  0.2949
 4773TIP3   OH235809   4.419   4.750  10.587 -0.1888  0.1721  0.7355
 4773TIP3    H135810   4.407   4.655  10.579  0.3518  0.0638  1.1179
 4773TIP3    H235811   4.500   4.767  10.538 -0.9108  0.6184 -0.3399
 4774TIP3   OH235812   3.909   2.793  14.968 -0.5760 -0.7181 -0.0895
 4774TIP3    H135813   3.839   2.754  14.915 -0.1791  1.3595 -2.3370
 4774TIP3    H235814   3.989   2.773  14.919 -0.0362  0.1177  0.4313
 4775TIP3   OH235815   1.879   0.224  14.502 -0.3066  0.4410  0.0895
 4775TIP3    H135816   1.840   0.308  14.480 -1.3929 -0.3252 -1.1013
 4775TIP3    H235817   1.967   0.245  14.533 -0.8612  2.0522  0.6485
 4776TIP3   OH235818   2.267   3.539  15.357  0.6397 -0.0184 -0.1593
 4776TIP3    H135819   2.258   3.590  15.438  1.1506 -0.6164  0.2843
 4776TIP3    H235820   2.346   3.574  15.316  0.0893  0.6431 -0.6719
 4777TIP3   OH235821   1.362   1.044  13.903  0.1524  0.2759  0.4703
 4777TIP3    H135822   1.339   1.128  13.940  2.1807  0.7021  0.8872
 4777TIP3    H235823   1.428   1.008  13.962 -0.7896 -1.7252  0.4190
 4778TIP3   OH235824   2.642   3.075   1.965  0.2092  0.1741 -0.2372
 4778TIP3    H135825   2.716   3.115   2.011  0.3676 -0.1648 -0.1960
 4778TIP3    H235826   2.571   3.138   1.976 -0.1998 -0.5818  1.7990
 4779TIP3   OH235827   3.125   5.458  15.294  0.2675  0.5379  0.0865
 4779TIP3    H135828   3.103   5.464  15.387  2.1341 -0.0794  0.6055
 4779TIP3    H235829   3.137   5.364  15.278  1.7974  0.7795 -0.2992
 4780TIP3   OH235830   6.575   1.387   4.478 -0.1148 -0.4472 -0.0792
 4780TIP3    H135831   6.635   1.338   4.422 -0.0481  0.0636 -0.4613
 4780TIP3    H235832   6.488   1.367   4.445 -0.0722 -0.0969 -0.4077
 4781TIP3   OH235833   6.505   2.146   0.787 -0.1622 -0.1950 -0.5380
 4781TIP3    H135834   6.494   2.222   0.844 -2.1930  0.3762 -1.5781
 4781TIP3    H235835   6.594   2.115   0.804 -0.2728  0.6930  1.9662
 4782TIP3   OH235836   2.630   2.776  14.875 -0.6295  0.1585 -0.6358
 4782TIP3    H135837   2.560   2.797  14.937 -0.1713 -0.7779  0.2263
 4782TIP3    H235838   2.639   2.681  14.880  0.3237  0.2049 -1.1495
 4783TIP3   OH235839   2.386   3.864  16.165 -0.7797 -0.1359  0.0389
 4783TIP3    H135840   2.301   3.823  16.148 -1.5301  0.1963  2.5296
 4783TIP3    H235841   2.374   3.910  16.249  1.1564  1.9650 -0.7295
 4784TIP3   OH235842   5.942   3.759   0.480  0.5498 -0.3495 -0.2106
 4784TIP3    H135843   5.884   3.817   0.432 -0.3619 -1.9308 -1.0926
 4784TIP3    H235844   6.029   3.776   0.444  0.5264  1.3241  0.4289
 4785TIP3   OH235845   0.368   2.334  11.402  0.7169  0.4816 -0.4329
 4785TIP3    H135846   0.350   2.344  11.309  0.2542  1.9083 -0.2123
 4785TIP3    H235847   0.458   2.302  11.406  0.5908 -0.0149 -1.3749
 4786TIP3   OH235848   6.057   3.307   0.912  0.4183  0.2361  0.2578
 4786TIP3    H135849   6.093   3.307   1.000  0.7267  0.9053  0.1375
 4786TIP3    H235850   5.995   3.234   0.911  0.1666  0.4321  1.1267
 4787TIP3   OH235851   1.642   1.290  14.474 -0.9252 -0.1048  0.7308
 4787TIP3    H135852   1.559   1.249  14.499 -1.9716  2.0561  1.0869
 4787TIP3    H235853   1.626   1.324  14.386  0.3810 -1.5697 -0.1222
 4788TIP3   OH235854   1.789   1.710  15.433 -0.1723  0.0932  0.2229
 4788TIP3    H135855   1.862   1.667  15.389  0.1136 -2.1944  2.6799
 4788TIP3    H235856   1.793   1.801  15.402  0.7122 -0.9895 -3.3424
 4789TIP3   OH235857   6.472   1.306   0.444  0.2066 -0.0293 -0.9221
 4789TIP3    H135858   6.380   1.303   0.418  0.3441  0.7595 -1.5281
 4789TIP3    H235859   6.476   1.371   0.514  0.1126 -0.9492 -0.0429
 4790TIP3   OH235860   1.793   0.416  15.694  0.3688 -0.0513  0.7387
 4790TIP3    H135861   1.796   0.448  15.604 -0.8067 -0.9808  0.3296
 4790TIP3    H235862   1.876   0.442  15.733  0.6722  0.8192 -0.4604
 4791TIP3   OH235863   6.393   5.227   2.343 -0.0735 -0.1500  0.3376
 4791TIP3    H135864   6.349   5.164   2.285 -0.3551  0.1666  0.2045
 4791TIP3    H235865   6.483   5.231   2.310  0.0574 -0.7900  0.6006
 4792TIP3   OH235866   6.413   4.284  16.061  0.0631 -0.0791  0.0702
 4792TIP3    H135867   6.453   4.368  16.083 -0.6778  0.5273 -0.8593
 4792TIP3    H235868   6.477   4.241  16.004 -0.9512  1.3109 -2.2328
 4793TIP3   OH235869   4.187   5.531   2.573 -0.3809  0.6792 -0.3074
 4793TIP3    H135870   4.137   5.595   2.624 -0.2171  1.4996 -1.1455
 4793TIP3    H235871   4.142   5.527   2.489 -0.6048 -0.6075 -0.1439
 4794TIP3   OH235872   0.900   1.727  17.116 -0.0141  0.0818  0.1635
 4794TIP3    H135873   0.912   1.636  17.088  0.5826 -0.7309  2.7575
 4794TIP3    H235874   0.893   1.777  17.034 -0.0970 -2.2412 -1.3360
 4795TIP3   OH235875   5.004   5.351  11.525 -0.2493  0.7338 -0.2619
 4795TIP3    H135876   4.948   5.304  11.587 -0.0356 -0.4460 -0.9352
 4795TIP3    H235877   4.969   5.328  11.439 -0.0216  1.6857 -0.6243
 4796TIP3   OH235878   2.655   1.075   2.278  0.0203  0.6027  0.6370
 4796TIP3    H135879   2.689   1.002   2.225  0.3393  0.5467  0.9073
 4796TIP3    H235880   2.722   1.087   2.346  0.8238  2.2710 -0.3908
 4797TIP3   OH235881   6.103   2.834  16.670  0.0590  0.0009 -0.1729
 4797TIP3    H135882   6.143   2.797  16.591 -0.6690 -0.2979 -0.4112
 4797TIP3    H235883   6.046   2.765  16.703 -2.7579  1.4506 -1.6533
 4798TIP3   OH235884   0.630   1.268  13.822  0.5918  0.0953  0.4904
 4798TIP3    H135885   0.579   1.237  13.897 -0.2496  0.8863  0.2589
 4798TIP3    H235886   0.614   1.202  13.754  0.6408 -0.1510  0.7159
 4799TIP3   OH235887   4.046   1.826   0.767 -0.5802 -0.1178  0.1428
 4799TIP3    H135888   4.063   1.799   0.857  0.7870 -0.4807 -0.1969
 4799TIP3    H235889   4.074   1.918   0.764  1.0593 -0.5965 -0.3133
 4800TIP3   OH235890   2.459   5.718  13.168 -0.7832  0.4072 -0.6120
 4800TIP3    H135891   2.495   5.768  13.096  0.8192 -0.5316 -0.4995
 4800TIP3    H235892   2.365   5.736  13.165 -0.6199  1.1192 -2.3294
 4801TIP3   OH235893   4.808   6.557   0.021  0.2302  0.4366  0.7777
 4801TIP3    H135894   4.802   6.557   0.116  1.0398 -2.0200  0.9109
 4801TIP3    H235895   4.855   6.637  -0.001  1.5421  0.2205  2.5981
 4802TIP3   OH235896   6.434   5.907   1.907 -0.0710 -0.8228  0.7987
 4802TIP3    H135897   6.404   5.903   1.816  2.6086 -0.5629 -0.1840
 4802TIP3    H235898   6.519   5.949   1.902 -1.2282  2.3080  3.8765
 4803TIP3   OH235899   2.754   6.678   5.299  0.7495  0.2670  0.2762
 4803TIP3    H135900   2.740   6.752   5.358  2.0225 -0.9365  2.2184
 4803TIP3    H235901   2.835   6.638   5.331  0.6048 -1.4099 -1.3130
 4804TIP3   OH235902   5.229   1.522  16.979 -0.6289 -1.2029  0.0006
 4804TIP3    H135903   5.136   1.545  16.967 -0.4006 -0.7180 -0.9308
 4804TIP3    H235904   5.236   1.498  17.072 -0.9755  2.1860  1.0385
 4805TIP3   OH235905   0.598   0.076   1.067 -0.6874  0.4421 -0.3970
 4805TIP3    H135906   0.679   0.087   1.016 -1.2438  1.1126 -1.1758
 4805TIP3    H235907   0.575  -0.016   1.056  1.4444 -0.5266  2.1600
 4806TIP3   OH235908   2.589   3.965   3.784 -0.1113 -0.2870  0.1265
 4806TIP3    H135909   2.681   3.983   3.802  0.0405 -0.9863  0.0658
 4806TIP3    H235910   2.547   4.052   3.786  0.7078  0.1537 -0.8333
 4807TIP3   OH235911   6.778   4.752  16.647  0.5885  0.3422 -0.0018
 4807TIP3    H135912   6.790   4.844  16.671  0.8999  0.1539  0.5755
 4807TIP3    H235913   6.718   4.717  16.713  0.3869  0.1562 -0.2808
 4808TIP3   OH235914   2.985   2.854  12.978 -0.3629  0.6194 -0.3060
 4808TIP3    H135915   2.989   2.945  13.007 -1.4880  0.6642 -0.2292
 4808TIP3    H235916   2.891   2.838  12.966 -0.4997 -1.5036  2.7649
 4809TIP3   OH235917   3.602   4.500   3.907 -0.2120  0.2598 -0.0489
 4809TIP3    H135918   3.662   4.478   3.979  0.0889  0.2412 -0.3048
 4809TIP3    H235919   3.658   4.506   3.830 -0.3102  1.6962 -0.0387
 4810TIP3   OH235920   3.938   2.621  14.679  0.2795 -0.3780 -0.0571
 4810TIP3    H135921   3.922   2.554  14.745 -0.8131 -0.4857 -0.4183
 4810TIP3    H235922   3.874   2.604  14.610  2.5423 -1.4232 -2.0660
 4811TIP3   OH235923   2.553   0.210   0.186  0.3383  0.1260  0.2561
 4811TIP3    H135924   2.486   0.258   0.136 -0.1180  0.7418  1.4178
 4811TIP3    H235925   2.570   0.132   0.133 -0.7897  0.3022 -0.4147
 4812TIP3   OH235926   4.164   2.557  10.874 -0.1130  0.7806 -0.1663
 4812TIP3    H135927   4.202   2.492  10.815 -0.2194  1.3109 -0.8318
 4812TIP3    H235928   4.162   2.514  10.960  0.1237  0.0328 -0.5310
 4813TIP3   OH235929   0.971   3.152  13.758  0.3060  0.0867 -0.4231
 4813TIP3    H135930   0.910   3.193  13.698  1.4538  1.0735 -0.9627
 4813TIP3    H235931   1.006   3.224  13.810  0.3299 -0.5797  0.5299
 4814TIP3   OH235932   3.818   3.223  14.118 -0.2068  0.1272  0.4578
 4814TIP3    H135933   3.873   3.240  14.194  1.5164 -2.3013 -0.1144
 4814TIP3    H235934   3.739   3.182  14.154  0.7201 -1.2742  0.9860
 4815TIP3   OH235935   2.405   3.553   1.704  0.2197  0.1868  0.1711
 4815TIP3    H135936   2.440   3.634   1.740  0.4205  0.0423  0.3006
 4815TIP3    H235937   2.444   3.545   1.618 -0.1178  0.4375 -0.0087
 4816TIP3   OH235938   5.290   2.229   1.613  0.1036  0.4895  0.4142
 4816TIP3    H135939   5.326   2.153   1.568 -1.3603 -0.1855  0.3053
 4816TIP3    H235940   5.244   2.278   1.545 -0.1739  0.6961  0.7456
 4817TIP3   OH235941   6.618   1.106   5.450 -0.1629 -0.0860 -0.3074
 4817TIP3    H135942   6.625   1.014   5.425 -1.2270 -0.1104 -0.5533
 4817TIP3    H235943   6.709   1.137   5.452  0.4427 -1.7489  2.1232
 4818TIP3   OH235944   0.965   4.610   5.470  0.2047 -0.3290 -0.3456
 4818TIP3    H135945   0.979   4.544   5.537 -0.9584 -0.6879 -0.4331
 4818TIP3    H235946   0.879   4.646   5.489  0.5200  0.6610 -0.7293
 4819TIP3   OH235947   3.164   6.727  17.024  0.3821 -0.4305 -0.4449
 4819TIP3    H135948   3.120   6.791  16.968 -2.9657 -0.4609  1.8643
 4819TIP3    H235949   3.241   6.774  17.057  0.4123  0.8283 -2.1179
 4820TIP3   OH235950   2.106   5.665   3.482  0.1497  0.0291  0.5064
 4820TIP3    H135951   2.173   5.703   3.539 -1.0705  1.2584  1.1720
 4820TIP3    H235952   2.045   5.737   3.466 -0.0716 -0.5635 -1.5546
 4821TIP3   OH235953   3.454   0.329   0.526 -0.7079  0.1524 -0.1089
 4821TIP3    H135954   3.460   0.384   0.449  1.7591 -0.7519 -0.6367
 4821TIP3    H235955   3.415   0.247   0.494 -1.7512  0.5472  0.1033
 4822TIP3   OH235956   0.584   5.694  15.911 -0.0375  0.2274 -0.2690
 4822TIP3    H135957   0.556   5.684  16.002 -0.8146  0.0709 -0.5244
 4822TIP3    H235958   0.678   5.713  15.918 -0.6956  4.1639  0.8250
 4823TIP3   OH235959   2.682   0.697  12.574  0.5344  0.0124 -0.3458
 4823TIP3    H135960   2.612   0.658  12.522  0.2584  1.7541 -1.3465
 4823TIP3    H235961   2.758   0.698  12.516  1.2906 -1.4349  0.5754
 4824TIP3   OH235962   3.015   4.667   0.933  0.3175 -0.1296  0.4100
 4824TIP3    H135963   3.053   4.606   0.869  0.6332  1.3082 -0.8389
 4824TIP3    H235964   3.064   4.651   1.014  2.7614  0.7388 -0.7923
 4825TIP3   OH235965   6.436   6.103  15.302  0.1172 -0.2142 -0.2775
 4825TIP3    H135966   6.422   6.142  15.215  2.0686 -1.7305 -1.3733
 4825TIP3    H235967   6.425   6.009  15.287  5.2564 -1.1182 -0.2178
 4826TIP3   OH235968   4.568   6.381   2.900 -0.1405  0.5970 -0.2259
 4826TIP3    H135969   4.525   6.347   2.821 -1.5091  2.4198 -0.3410
 4826TIP3    H235970   4.649   6.330   2.908 -1.2128 -1.4222 -1.3101
 4827TIP3   OH235971   6.802   0.401   0.531  0.3012 -0.4684  0.1427
 4827TIP3    H135972   6.791   0.373   0.441 -3.2438 -2.5141  1.0194
 4827TIP3    H235973   6.787   0.496   0.529 -0.3098 -0.5788 -1.3198
 4828TIP3   OH235974   6.119   6.803   3.636 -0.1235  0.3612 -0.3555
 4828TIP3    H135975   6.157   6.879   3.679 -0.4861 -0.2677  1.1720
 4828TIP3    H235976   6.193   6.757   3.598  0.4336  0.1795  0.8939
 4829TIP3   OH235977   0.174   2.496  14.623  0.0408  0.4629 -0.3022
 4829TIP3    H135978   0.116   2.561  14.662 -0.9951 -0.2608 -0.5980
 4829TIP3    H235979   0.204   2.536  14.541 -0.9687  0.3828 -0.7166
 4830TIP3   OH235980   4.045   0.665   0.685 -0.3748 -0.3335 -0.0507
 4830TIP3    H135981   4.024   0.712   0.766  0.9293  0.4300 -0.1353
 4830TIP3    H235982   4.119   0.610   0.707 -0.5087 -0.7174 -0.5333
 4831TIP3   OH235983   3.183   0.982  14.919 -0.2931 -0.5294  0.8831
 4831TIP3    H135984   3.230   1.066  14.924 -1.6314  0.1727  2.6984
 4831TIP3    H235985   3.173   0.965  14.825  0.8081  0.8621  0.4810
 4832TIP3   OH235986   4.391   2.626  14.421  0.0135 -0.6593  0.7947
 4832TIP3    H135987   4.471   2.661  14.381 -1.1641  0.0274 -1.1286
 4832TIP3    H235988   4.404   2.637  14.515  0.7785  2.7053  0.4325
 4833TIP3   OH235989   4.370   1.696   3.949 -0.0322  0.8510 -0.1717
 4833TIP3    H135990   4.335   1.767   4.002 -1.3703  0.2852 -0.2730
 4833TIP3    H235991   4.358   1.618   4.002  0.0485  0.4905 -0.6758
 4834TIP3   OH235992   5.172   6.262   4.463  0.3360 -0.3474 -0.3527
 4834TIP3    H135993   5.136   6.177   4.489 -0.2238  0.4629  1.7343
 4834TIP3    H235994   5.108   6.326   4.496  0.7541  0.9163 -1.8516
 4835TIP3   OH235995   1.160   4.705  12.807 -0.2156 -0.4898 -0.2629
 4835TIP3    H135996   1.133   4.711  12.899 -1.5031 -0.6371 -0.6045
 4835TIP3    H235997   1.209   4.785  12.791 -0.9535  0.0788  0.2557
 4836TIP3   OH235998   3.837   0.941  12.189  0.5765  0.3478  0.5077
 4836TIP3    H135999   3.837   0.848  12.212  0.5521  0.4962  1.1481
 4836TIP3    H236000   3.922   0.973  12.220  1.2255  0.2409 -1.0536
 4837TIP3   OH236001   4.016   6.023  16.162 -0.1981 -0.3045  0.7636
 4837TIP3    H136002   4.036   5.930  16.151  0.4034  0.1198 -3.3848
 4837TIP3    H236003   4.101   6.066  16.161 -0.5258  0.3623  1.3654
 4838TIP3   OH236004   0.423   4.361  15.726 -0.2188  0.2236 -0.3289
 4838TIP3    H136005   0.330   4.373  15.745 -0.1450  0.9818 -0.4038
 4838TIP3    H236006   0.461   4.447  15.741  0.2308  0.2752 -1.6369
 4839TIP3   OH236007   0.768   5.461   5.276  0.7037  0.5648 -0.0520
 4839TIP3    H136008   0.850   5.415   5.256  0.9560  0.5783  0.8961
 4839TIP3    H236009   0.792   5.521   5.347  0.0174  1.0441 -0.2204
 4840TIP3   OH236010   0.499   5.546  10.225 -0.0618  0.1571 -0.7973
 4840TIP3    H136011   0.427   5.597  10.262 -1.4503 -0.9225 -1.9118
 4840TIP3    H236012   0.506   5.469  10.281 -0.3346 -0.1405 -1.1687
 4841TIP3   OH236013   4.647   0.501   0.945 -0.1622 -0.7596  0.0060
 4841TIP3    H136014   4.685   0.538   0.865  0.3654 -0.5064  0.3722
 4841TIP3    H236015   4.692   0.546   1.016 -1.4676 -0.1213  0.4537
 4842TIP3   OH236016   5.048   2.022   2.966 -0.2093  0.0864 -0.5992
 4842TIP3    H136017   5.018   2.059   2.883  0.4610 -0.6086 -1.1673
 4842TIP3    H236018   5.127   1.973   2.943  0.9055  1.1930  0.7075
 4843TIP3   OH236019   5.371   2.786  14.214  0.0167  0.0909  0.1866
 4843TIP3    H136020   5.279   2.783  14.239 -0.3378  1.0315 -0.9011
 4843TIP3    H236021   5.416   2.732  14.279 -1.4261 -1.2373  0.1288
 4844TIP3   OH236022   6.076   0.968  13.881 -0.2808 -0.0764  1.0814
 4844TIP3    H136023   6.084   0.956  13.976 -0.2439 -0.1702  1.0666
 4844TIP3    H236024   6.048   0.883  13.848  0.4919 -0.2772  0.9174
 4845TIP3   OH236025   1.519   5.230   4.762  0.5170  0.3649 -0.0143
 4845TIP3    H136026   1.590   5.185   4.807 -0.1310 -1.7535 -0.9866
 4845TIP3    H236027   1.561   5.272   4.687  0.8587 -0.2399 -0.1663
 4846TIP3   OH236028   4.418   1.175   3.603  0.6745  0.3752  0.1603
 4846TIP3    H136029   4.345   1.233   3.623 -0.6903 -1.5891  1.1652
 4846TIP3    H236030   4.405   1.151   3.512 -0.7133 -0.9607  0.6819
 4847TIP3   OH236031   2.755   4.720   4.488  0.4752 -0.3158  0.4291
 4847TIP3    H136032   2.663   4.702   4.470 -0.0770  1.9000  0.7798
 4847TIP3    H236033   2.757   4.810   4.519  3.0152  0.4588 -1.6092
 4848TIP3   OH236034   3.385   1.046  15.468 -0.0418 -0.8749 -0.3021
 4848TIP3    H136035   3.468   1.088  15.487 -1.2701  1.2843  0.7022
 4848TIP3    H236036   3.384   0.967  15.523  1.2648 -0.8584 -0.2345
 4849TIP3   OH236037   1.510   0.934  10.280 -0.0575 -0.6506  0.1096
 4849TIP3    H136038   1.507   0.963  10.372  2.0758 -1.5508  0.5203
 4849TIP3    H236039   1.566   0.998  10.236 -0.8634 -0.3709 -0.5330
 4850TIP3   OH236040   4.605   4.314  12.161  0.6381 -0.2949 -0.2149
 4850TIP3    H136041   4.656   4.370  12.101  0.7873 -1.8534 -1.6058
 4850TIP3    H236042   4.572   4.243  12.106  1.4058 -2.2348  1.6884
 4851TIP3   OH236043   3.304   3.299  15.018 -0.1084  0.3059 -0.2697
 4851TIP3    H136044   3.268   3.238  14.954  0.7247 -3.5736  2.5440
 4851TIP3    H236045   3.397   3.305  14.996 -0.0776  0.0298 -0.2239
 4852TIP3   OH236046   5.658   6.516  16.373 -0.0559 -0.2781  0.2520
 4852TIP3    H136047   5.722   6.458  16.331 -0.3740 -1.0040  0.7462
 4852TIP3    H236048   5.708   6.559  16.443 -0.0375 -0.6343  0.4601
 4853TIP3   OH236049   1.427   4.426  14.587  0.6156  0.1189 -0.1118
 4853TIP3    H136050   1.423   4.485  14.511 -2.0481  0.2789  0.0393
 4853TIP3    H236051   1.442   4.484  14.661  2.9975 -0.0111 -0.4406
 4854TIP3   OH236052   6.814   1.477   3.526 -0.5232 -0.0471 -0.3441
 4854TIP3    H136053   6.850   1.549   3.579  0.1290  0.8679 -1.9687
 4854TIP3    H236054   6.840   1.398   3.574 -1.7242  0.7537  1.7799
 4855TIP3   OH236055   2.768   2.060  11.499  0.1281 -0.7693  0.6200
 4855TIP3    H136056   2.693   2.003  11.515 -1.1300  0.0663 -1.8418
 4855TIP3    H236057   2.731   2.148  11.498  1.4611 -0.1807  0.9879
 4856TIP3   OH236058   5.621   2.425  12.505  0.1287 -0.0021 -0.2360
 4856TIP3    H136059   5.593   2.399  12.593  1.7591  0.5893  0.4945
 4856TIP3    H236060   5.558   2.491  12.478  0.0587  0.3683  0.8124
 4857TIP3   OH236061   4.858   1.058  15.948  0.7944 -0.0436 -0.0299
 4857TIP3    H136062   4.820   1.107  15.875  1.4290  0.7619  0.1663
 4857TIP3    H236063   4.799   0.984  15.961  1.0804 -0.6296 -1.8522
 4858TIP3   OH236064   2.292   2.884  12.098 -0.4155  0.0397 -0.1467
 4858TIP3    H136065   2.229   2.932  12.153  0.7218  2.1723 -0.5757
 4858TIP3    H236066   2.359   2.949  12.076  0.7617 -1.5506 -1.5656
 4859TIP3   OH236067   0.307   2.307  12.111  0.1835 -0.2679  0.4092
 4859TIP3    H136068   0.342   2.259  12.035  0.5224  1.3156 -0.4831
 4859TIP3    H236069   0.241   2.365  12.073  0.0651  0.2503  1.3926
 4860TIP3   OH236070   1.876   3.780  15.703 -0.0335  0.1301 -0.0340
 4860TIP3    H136071   1.892   3.864  15.745 -1.5447 -0.2939  1.4862
 4860TIP3    H236072   1.962   3.752  15.673  0.7592  1.4697  0.8764
 4861TIP3   OH236073   3.809   6.711   6.519  0.3774  0.3545  0.2156
 4861TIP3    H136074   3.774   6.774   6.583 -0.3925  0.7093 -0.5418
 4861TIP3    H236075   3.903   6.728   6.518  0.0390  2.5050 -1.0237
 4862TIP3   OH236076   3.061   6.711   1.544  0.4443  0.0168 -0.6147
 4862TIP3    H136077   3.113   6.657   1.485  1.6782 -0.6563  1.0275
 4862TIP3    H236078   3.125   6.755   1.600 -0.6864  0.0849  0.6927
 4863TIP3   OH236079   3.433   2.787  16.080 -0.1359  0.4169 -0.0966
 4863TIP3    H136080   3.389   2.854  16.028 -0.6200  0.6961  0.6640
 4863TIP3    H236081   3.363   2.732  16.113  0.3582 -1.9378 -2.5988
 4864TIP3   OH236082   3.152   4.692  12.129 -0.5909  0.1543 -0.1464
 4864TIP3    H136083   3.208   4.638  12.073 -1.3919 -0.4152 -0.4069
 4864TIP3    H236084   3.161   4.781  12.093 -0.4875 -0.0715 -0.6920
 4865TIP3   OH236085   2.317   0.265  13.663 -0.2972  0.2266  0.2475
 4865TIP3    H136086   2.299   0.172  13.652  0.2541  0.2875 -1.4603
 4865TIP3    H236087   2.253   0.309  13.607 -1.3807  0.9812  1.9985
 4866TIP3   OH236088   2.883   6.332   3.864 -0.1371  0.4729 -0.7523
 4866TIP3    H136089   2.885   6.375   3.779  2.5854  0.2198 -0.9144
 4866TIP3    H236090   2.935   6.252   3.852 -0.0977  0.1863  1.0179
 4867TIP3   OH236091   4.712   1.238  16.216 -0.3688 -0.4971 -0.1028
 4867TIP3    H136092   4.785   1.263  16.160 -0.2554  0.8273  0.5947
 4867TIP3    H236093   4.637   1.286  16.181  0.0478  1.7536  1.8329
 4868TIP3   OH236094   3.636   3.494   5.276 -0.2235  0.6370 -0.3157
 4868TIP3    H136095   3.622   3.572   5.329  2.5765  0.6578  0.5690
 4868TIP3    H236096   3.628   3.421   5.339 -1.3056  0.2875 -0.8277
 4869TIP3   OH236097   2.829   4.456  16.357  0.0881 -1.0745 -0.1627
 4869TIP3    H136098   2.794   4.378  16.315 -1.1536 -0.3232 -0.5760
 4869TIP3    H236099   2.897   4.423  16.416  0.1852 -2.3714 -0.9582
 4870TIP3   OH236100   4.810   0.886  12.693  0.3550 -0.5966 -0.1722
 4870TIP3    H136101   4.828   0.876  12.787  1.1822  1.2783 -0.0911
 4870TIP3    H236102   4.735   0.829  12.677  1.0816 -2.0647  1.3179
 4871TIP3   OH236103   1.340   1.294   4.623 -0.0433 -0.4216  0.0141
 4871TIP3    H136104   1.425   1.263   4.654  0.2826  1.0974  0.7229
 4871TIP3    H236105   1.355   1.385   4.597 -1.6263  0.1750  1.0244
 4872TIP3   OH236106   4.117   0.166   0.461  0.0817 -0.2182  0.2902
 4872TIP3    H136107   4.125   0.159   0.366 -0.2500  0.5007  0.2025
 4872TIP3    H236108   4.112   0.260   0.478 -0.0208 -0.3457  1.0064
 4873TIP3   OH236109   2.498   4.271   0.969  0.0969  0.0797 -0.3640
 4873TIP3    H136110   2.573   4.331   0.969 -0.1573  0.4060 -0.7846
 4873TIP3    H236111   2.535   4.186   0.947  0.4442  0.1020  0.1077
 4874TIP3   OH236112   3.477   2.617  13.564 -0.4056  0.1610 -0.7979
 4874TIP3    H136113   3.480   2.567  13.483  1.8397 -0.7540 -0.2168
 4874TIP3    H236114   3.544   2.578  13.619  0.0436  2.5275  0.4622
 4875TIP3   OH236115   4.193   0.525  16.184  0.1673  0.1378 -0.3811
 4875TIP3    H136116   4.239   0.596  16.229 -0.8722  0.9777 -0.6163
 4875TIP3    H236117   4.104   0.528  16.219  0.2244 -1.3909 -0.0190
 4876TIP3   OH236118   0.055   4.678   3.442  0.2960 -0.0392 -0.0725
 4876TIP3    H136119   0.008   4.658   3.523 -0.5836 -0.8879 -0.7620
 4876TIP3    H236120   0.059   4.774   3.439 -0.6433  0.0244  0.4311
 4877TIP3   OH236121   2.368   1.735   4.190 -0.3905  0.1018 -0.0838
 4877TIP3    H136122   2.432   1.707   4.125 -1.1412 -0.3034 -0.6622
 4877TIP3    H236123   2.380   1.829   4.197  0.2561  0.0299 -0.1965
 4878TIP3   OH236124   4.986   5.569   3.326  0.2942  0.3161  0.2665
 4878TIP3    H136125   4.905   5.519   3.320  0.9730 -0.8340  0.3979
 4878TIP3    H236126   4.998   5.583   3.420  0.6650 -0.2391  0.3073
 4879TIP3   OH236127   4.409   1.619  12.273  0.1811 -0.4285  0.5061
 4879TIP3    H136128   4.446   1.670  12.346 -0.8445  0.4043  0.4646
 4879TIP3    H236129   4.426   1.672  12.196 -2.4457  0.7735  0.6677
 4880TIP3   OH236130   4.443   3.483  13.086 -0.2016  0.5841 -0.4727
 4880TIP3    H136131   4.375   3.521  13.031  0.1124  0.1513 -1.1610
 4880TIP3    H236132   4.502   3.439  13.025 -0.6635 -1.2062  0.3232
 4881TIP3   OH236133   6.811   1.346   5.898  0.3718 -0.5277 -0.0883
 4881TIP3    H136134   6.726   1.384   5.881  0.3879 -0.9617 -1.2423
 4881TIP3    H236135   6.795   1.252   5.906  0.6853 -0.5719  0.0688
 4882TIP3   OH236136   5.643   3.745  16.808  0.1391  0.5514 -0.5495
 4882TIP3    H136137   5.722   3.711  16.850  0.5357  0.6899 -1.1768
 4882TIP3    H236138   5.609   3.810  16.870  0.0178 -0.1324  0.1278
 4883TIP3   OH236139   6.720   6.775  12.890 -0.6543  0.0851 -0.3838
 4883TIP3    H136140   6.625   6.764  12.882 -0.6194  0.0621 -0.7751
 4883TIP3    H236141   6.731   6.866  12.919 -0.8181 -0.0810  0.2258
 4884TIP3   OH236142   1.186   2.439   4.617 -0.2137 -0.2336 -0.0594
 4884TIP3    H136143   1.228   2.526   4.623  0.5378 -0.5984  0.1633
 4884TIP3    H236144   1.255   2.382   4.583  0.2203 -1.3204  2.4110
 4885TIP3   OH236145   3.081   3.642  14.372 -0.3852 -0.5516 -0.0054
 4885TIP3    H136146   3.081   3.567  14.430 -1.0745 -0.6758 -0.1519
 4885TIP3    H236147   3.055   3.716  14.427  1.7156 -0.1130  0.4827
 4886TIP3   OH236148   6.156   0.343   5.486 -0.8431 -0.1682 -0.6392
 4886TIP3    H136149   6.068   0.309   5.500 -0.4709 -0.8720  0.0902
 4886TIP3    H236150   6.153   0.432   5.523 -1.3315 -0.0708 -0.9105
 4887TIP3   OH236151   4.411   0.067   0.486  0.5295 -0.0143 -0.1166
 4887TIP3    H136152   4.441   0.032   0.402 -1.5132 -0.3608 -0.7528
 4887TIP3    H236153   4.329   0.112   0.466  1.1348  1.8915  1.3355
 4888TIP3   OH236154   5.482   6.046   3.860  0.2173 -0.1686  0.0994
 4888TIP3    H136155   5.549   6.110   3.837  0.6247 -0.5031  0.3298
 4888TIP3    H236156   5.484   5.982   3.789 -1.5581  1.0831 -1.1619
 4889TIP3   OH236157   2.032   4.103   2.428 -0.0143  0.2503 -0.0159
 4889TIP3    H136158   1.957   4.066   2.380  0.5688  1.5978 -2.0745
 4889TIP3    H236159   2.109   4.069   2.382  0.7096 -0.8926  1.9140
 4890TIP3   OH236160   3.448   3.445  11.694 -0.1005 -0.1477  0.3943
 4890TIP3    H136161   3.366   3.423  11.737 -1.7144 -1.0566 -2.7875
 4890TIP3    H236162   3.443   3.539  11.678 -1.0827 -0.3694 -0.7198
 4891TIP3   OH236163   1.872   2.299   4.779 -0.1628 -0.1511  0.3793
 4891TIP3    H136164   1.876   2.253   4.863  1.3531 -0.3971  0.2054
 4891TIP3    H236165   1.820   2.242   4.723 -1.2268  0.0358  1.1473
 4892TIP3   OH236166   4.548   6.663   5.502 -0.0791 -0.0425 -0.4391
 4892TIP3    H136167   4.495   6.664   5.423 -0.6338  2.8444 -0.1616
 4892TIP3    H236168   4.489   6.632   5.571 -0.1026 -0.8983 -0.8318
 4893TIP3   OH236169   3.358   6.816   2.563 -0.2169 -0.1220  0.8298
 4893TIP3    H136170   3.391   6.888   2.616  1.7356  1.7283 -2.4998
 4893TIP3    H236171   3.416   6.742   2.584 -0.7628 -0.0767  2.6062
 4894TIP3   OH236172   3.643   2.492  15.330  0.1791  0.1925  0.0761
 4894TIP3    H136173   3.704   2.553  15.373 -0.2270 -0.4812  1.6640
 4894TIP3    H236174   3.580   2.469  15.398 -1.1549 -0.0770 -1.2048
 4895TIP3   OH236175   3.932   6.837   1.464  0.1678  0.0920 -0.8477
 4895TIP3    H136176   4.017   6.841   1.419  0.5307  0.9909 -0.1101
 4895TIP3    H236177   3.918   6.744   1.480  1.3362 -0.0162 -0.3872
 4896TIP3   OH236178   3.728   2.971   2.164  0.4333 -0.0162 -0.1104
 4896TIP3    H136179   3.698   2.962   2.255 -0.5679  0.5027 -0.3690
 4896TIP3    H236180   3.732   3.065   2.149  2.4424 -0.0652 -0.0462
 4897TIP3   OH236181   0.736   5.717   1.503 -0.3434 -1.3417 -0.1186
 4897TIP3    H136182   0.676   5.784   1.470  0.1311 -1.1085 -0.5246
 4897TIP3    H236183   0.686   5.670   1.569 -0.5350 -0.2803  0.5172
 4898TIP3   OH236184   4.675   4.483  14.777 -0.4182  0.0291  0.1491
 4898TIP3    H136185   4.737   4.544  14.736  0.0960  0.2562  1.2354
 4898TIP3    H236186   4.691   4.400  14.732 -0.0175  0.3159 -0.2542
 4899TIP3   OH236187   6.203   1.536  13.813 -0.4951  0.5298 -0.3103
 4899TIP3    H136188   6.257   1.591  13.757 -1.5245  0.9471 -0.9211
 4899TIP3    H236189   6.264   1.471  13.850  0.5794  1.5498 -0.2396
 4900TIP3   OH236190   0.626   6.499  16.157 -0.3461 -0.2153  0.2989
 4900TIP3    H136191   0.530   6.509  16.161 -0.2733  0.2899  1.0486
 4900TIP3    H236192   0.649   6.459  16.241 -0.2613 -3.8045 -1.2734
 4901TIP3   OH236193   0.884   2.791   5.434 -0.2263  0.0376 -0.1391
 4901TIP3    H136194   0.799   2.794   5.477 -0.0735  2.3167  0.0966
 4901TIP3    H236195   0.893   2.700   5.407 -2.2403 -0.5047  0.7941
 4902TIP3   OH236196   0.353   3.981  12.672 -0.1674  0.4859  0.4512
 4902TIP3    H136197   0.269   3.942  12.694  0.8501 -1.7160  0.6283
 4902TIP3    H236198   0.361   3.971  12.577 -0.0353  0.5657  0.4532
 4903TIP3   OH236199   0.971   3.845   5.930 -0.6018  0.2904  0.4536
 4903TIP3    H136200   0.959   3.751   5.919 -0.3925  0.4979 -2.2649
 4903TIP3    H236201   0.955   3.861   6.023 -2.9383 -2.0740  0.5675
 4904TIP3   OH236202   0.955   4.239  15.188  0.0509  0.0057 -0.5583
 4904TIP3    H136203   0.964   4.193  15.105  1.3976  0.3955 -0.6600
 4904TIP3    H236204   0.862   4.261  15.194 -0.6551 -2.6965 -0.4808
 4905TIP3   OH236205   4.678   3.241  16.570  0.0991  0.0323 -0.1075
 4905TIP3    H136206   4.598   3.228  16.620 -0.9540  0.0771 -1.7157
 4905TIP3    H236207   4.667   3.327  16.528  0.5599 -0.3579 -1.0743
 4906TIP3   OH236208   2.711   4.022   2.245  0.7204 -0.0014 -0.2448
 4906TIP3    H136209   2.646   4.037   2.176 -0.0259  0.0941  0.4536
 4906TIP3    H236210   2.786   3.984   2.200  0.2602  0.0873 -1.1099
 4907TIP3   OH236211   6.163   1.759   2.797 -0.2136 -1.0793  0.1065
 4907TIP3    H136212   6.079   1.759   2.750 -0.8932 -0.9469  1.2765
 4907TIP3    H236213   6.207   1.680   2.766 -0.6574 -1.0158 -0.7204
 4908TIP3   OH236214   6.444   4.623   5.468 -0.0232  0.2551  0.3058
 4908TIP3    H136215   6.460   4.586   5.555 -0.1984  0.7708  0.5629
 4908TIP3    H236216   6.380   4.693   5.483 -0.4953 -0.0267 -0.3206
 4909TIP3   OH236217   0.645   3.614   4.094  0.2979 -0.2137 -0.0069
 4909TIP3    H136218   0.574   3.613   4.031 -1.1053 -2.3806  1.5067
 4909TIP3    H236219   0.710   3.553   4.059 -0.7243 -1.8443  0.8147
 4910TIP3   OH236220   1.011   0.519   3.705  0.5718 -0.2779  0.1513
 4910TIP3    H136221   1.037   0.611   3.697 -0.5916  0.1694  1.2177
 4910TIP3    H236222   0.919   0.518   3.679  0.1143 -0.8435  1.6891
 4911TIP3   OH236223   1.587   4.813  17.122 -0.1370  0.2472  0.1757
 4911TIP3    H136224   1.514   4.784  17.068 -0.5121 -0.5044  1.0566
 4911TIP3    H236225   1.662   4.764  17.089 -0.0866  0.7651 -0.5038
 4912TIP3   OH236226   5.557   4.672  11.449 -0.2078 -0.4783 -0.3801
 4912TIP3    H136227   5.468   4.680  11.415 -0.6154  0.5492  0.8783
 4912TIP3    H236228   5.546   4.666  11.544  1.1468  1.9543  0.0139
 4913TIP3   OH236229   5.831   1.485  11.783 -0.4769 -0.0955  0.4069
 4913TIP3    H136230   5.909   1.432  11.801 -1.3736 -1.1172  1.4089
 4913TIP3    H236231   5.862   1.576  11.789  1.0978 -0.4312 -1.3680
 4914TIP3   OH236232   5.837   3.151   1.300  0.2514 -0.2720 -0.0465
 4914TIP3    H136233   5.778   3.160   1.375 -2.0677  1.3189 -1.9132
 4914TIP3    H236234   5.890   3.231   1.302  0.4152 -0.3823  0.0592
 4915TIP3   OH236235   2.836   0.112  15.030  0.2064  0.4049  0.1416
 4915TIP3    H136236   2.868   0.073  14.948  2.1748  1.2090  0.4788
 4915TIP3    H236237   2.801   0.038  15.079 -0.3167 -0.2065 -1.0935
 4916TIP3   OH236238   5.764   6.005   1.564  0.1481 -0.1678 -0.2990
 4916TIP3    H136239   5.729   5.939   1.624 -0.2226 -0.1352 -0.4717
 4916TIP3    H236240   5.807   6.069   1.620  0.7804 -0.7170 -0.1537
 4917TIP3   OH236241   2.817   1.232  10.577 -0.2122 -0.0750  0.0361
 4917TIP3    H136242   2.740   1.288  10.576 -0.0099  0.2136 -0.6028
 4917TIP3    H236243   2.784   1.145  10.557 -0.1457  0.4240 -2.6273
 4918TIP3   OH236244   5.146   3.023   3.921  0.0161  0.4150 -0.3890
 4918TIP3    H136245   5.100   3.106   3.931  0.4181  0.9181 -2.2642
 4918TIP3    H236246   5.172   3.021   3.829 -0.7176 -2.1875 -0.6139
 4919TIP3   OH236247   5.314   1.477   3.489 -0.1618  0.8565  0.0512
 4919TIP3    H136248   5.291   1.522   3.570 -0.4019  2.5451 -0.9197
 4919TIP3    H236249   5.288   1.537   3.420 -0.2431 -0.6756 -1.3089
 4920TIP3   OH236250   6.749   5.630  10.839  0.1989  0.6454 -0.4364
 4920TIP3    H136251   6.706   5.608  10.757 -0.7478 -2.3666  0.7344
 4920TIP3    H236252   6.841   5.608  10.825 -0.2221 -1.3509 -0.2628
 4921TIP3   OH236253   2.593   2.443   5.130  0.2455  0.4331 -0.8129
 4921TIP3    H136254   2.604   2.348   5.126 -1.0468  0.1624  0.9156
 4921TIP3    H236255   2.657   2.472   5.196 -0.0418  0.6367 -0.6220
 4922TIP3   OH236256   4.254   1.270  11.104  0.0405  0.0506 -0.5505
 4922TIP3    H136257   4.292   1.255  11.190 -2.7292  0.3843  0.8302
 4922TIP3    H236258   4.252   1.184  11.063  0.6574 -0.2404  0.0081
 4923TIP3   OH236259   2.241   6.321   0.959  0.2181 -0.2550  0.5025
 4923TIP3    H136260   2.280   6.237   0.935 -1.0568 -0.5835 -0.4837
 4923TIP3    H236261   2.147   6.309   0.946  0.1206  1.8432 -1.4218
 4924TIP3   OH236262   3.063   3.764   0.762  0.9703  0.3756 -0.2545
 4924TIP3    H136263   3.024   3.787   0.678  0.7516  1.3798  0.1046
 4924TIP3    H236264   2.994   3.781   0.826  0.1310 -3.0181 -0.0494
 4925TIP3   OH236265   6.444   5.286   1.772  0.1498  0.2798 -0.1917
 4925TIP3    H136266   6.377   5.299   1.839  1.9041 -0.5782  1.8715
 4925TIP3    H236267   6.492   5.369   1.769  0.4468  0.1224  0.0914
 4926TIP3   OH236268   3.373   0.639   3.499 -0.4059 -0.5077  0.5908
 4926TIP3    H136269   3.412   0.724   3.478  0.1118 -1.2077 -1.5881
 4926TIP3    H236270   3.435   0.597   3.558 -0.2330  0.2796  0.9671
 4927TIP3   OH236271   0.239   5.229  15.505  0.0633  0.1599  0.4353
 4927TIP3    H136272   0.263   5.237  15.413  0.7890  1.0934  0.6962
 4927TIP3    H236273   0.290   5.296  15.550  1.1229 -1.4736  1.7916
 4928TIP3   OH236274   3.522   1.635  16.014 -0.6223  0.9505 -0.6186
 4928TIP3    H136275   3.504   1.549  16.052  3.0314 -0.0533 -0.8559
 4928TIP3    H236276   3.492   1.628  15.923 -2.7876  0.9173  0.0468
 4929TIP3   OH236277   5.724   3.823  15.544 -0.0289 -0.4604 -0.4851
 4929TIP3    H136278   5.817   3.841  15.562  0.1500 -2.5156  0.9754
 4929TIP3    H236279   5.682   3.909  15.549  1.4583  0.2413  1.1969
 4930TIP3   OH236280   3.609   3.294  12.957 -0.2192  0.2602 -0.3242
 4930TIP3    H136281   3.660   3.277  13.036 -1.1858  2.6184  0.8790
 4930TIP3    H236282   3.520   3.308  12.988 -0.5309  1.7151 -1.7432
 4931TIP3   OH236283   0.347   3.261   0.115 -0.2854 -0.0648  0.2934
 4931TIP3    H136284   0.306   3.214   0.042 -0.2828 -1.3764  1.0957
 4931TIP3    H236285   0.390   3.336   0.075 -1.8344  0.2727 -0.8196
 4932TIP3   OH236286   2.684   6.434   5.450 -0.1460  0.1404  0.3003
 4932TIP3    H136287   2.717   6.485   5.376  1.8832 -1.1529  0.2378
 4932TIP3    H236288   2.629   6.367   5.410 -0.2673  0.3540  0.1048
 4933TIP3   OH236289   1.256   5.041  11.942  0.4913  0.0863 -0.1153
 4933TIP3    H136290   1.180   5.010  11.992 -0.4696  0.7081 -1.1460
 4933TIP3    H236291   1.222   5.116  11.892  2.1573  1.3541  0.5538
 4934TIP3   OH236292   4.439   1.056  13.931 -0.0949  1.0005 -0.0993
 4934TIP3    H136293   4.461   0.987  13.868  1.0507  1.2401  0.0068
 4934TIP3    H236294   4.524   1.089  13.960 -0.5578  0.4607  2.0629
 4935TIP3   OH236295   2.226   3.962  14.788  0.2584  0.4252  0.3660
 4935TIP3    H136296   2.131   3.951  14.777  0.4405  0.7734 -1.9818
 4935TIP3    H236297   2.249   3.899  14.857 -1.2919 -1.5957 -0.8347
 4936TIP3   OH236298   1.719   1.161   2.990 -0.2670 -0.4390  0.3515
 4936TIP3    H136299   1.656   1.164   2.918  0.5466 -0.5972 -0.3835
 4936TIP3    H236300   1.804   1.157   2.947  0.4142  2.0812  1.2914
 4937TIP3   OH236301   5.585   3.431  15.786 -0.7350  0.1353  0.2457
 4937TIP3    H136302   5.593   3.525  15.771 -0.3597 -0.0812 -1.0061
 4937TIP3    H236303   5.673   3.402  15.807 -0.3512 -0.3255 -1.8495
 4938TIP3   OH236304   1.912   6.214  14.790 -0.2393 -0.4055  0.1587
 4938TIP3    H136305   1.860   6.190  14.866  0.2896  0.3234  0.7698
 4938TIP3    H236306   1.951   6.299  14.814  0.8318 -0.7031 -0.4725
 4939TIP3   OH236307   4.359   4.012   4.557 -0.2654  0.3000  0.0628
 4939TIP3    H136308   4.299   4.050   4.492 -1.6400  0.4198  1.3496
 4939TIP3    H236309   4.310   3.939   4.596  1.7821 -1.9879 -1.3345
 4940TIP3   OH236310   4.359   1.232  11.403 -0.5309  0.1410  0.1742
 4940TIP3    H136311   4.369   1.212  11.496 -2.1167 -0.0003  0.3459
 4940TIP3    H236312   4.435   1.193  11.361 -0.0501 -0.2281  1.3545
 4941TIP3   OH236313   6.299   5.881   5.117 -0.5637  0.0116 -0.8387
 4941TIP3    H136314   6.353   5.929   5.055  1.5975  1.4881  1.9639
 4941TIP3    H236315   6.236   5.946   5.149  1.0509  0.5719  1.4599
 4942TIP3   OH236316   6.563   5.476   0.454 -0.3793 -0.3695  0.8870
 4942TIP3    H136317   6.543   5.392   0.412 -2.4709  0.0709  0.9164
 4942TIP3    H236318   6.609   5.526   0.386 -3.4343  0.2214 -0.9291
 4943TIP3   OH236319   5.348   3.906   5.307  0.3625 -0.2673  0.4211
 4943TIP3    H136320   5.293   3.845   5.257  0.9958 -0.0876 -0.5157
 4943TIP3    H236321   5.290   3.979   5.327  0.5986  0.6171 -1.8342
 4944TIP3   OH236322   5.920   4.000  10.852 -0.1326 -0.3340 -0.5431
 4944TIP3    H136323   5.843   4.050  10.824 -1.5302 -2.0427  0.0244
 4944TIP3    H236324   5.932   3.934  10.784 -0.7260 -1.6028  0.5139
 4945TIP3   OH236325   0.425   2.632   4.146  1.1806 -0.2472  0.0226
 4945TIP3    H136326   0.398   2.639   4.237  1.1924  0.4402 -0.0172
 4945TIP3    H236327   0.349   2.664   4.097  0.6811 -1.8159 -0.2833
 4946TIP3   OH236328   1.363   0.981   4.363  0.0257 -0.0506  0.8726
 4946TIP3    H136329   1.431   0.943   4.418  0.4607 -0.7278 -0.1044
 4946TIP3    H236330   1.394   1.069   4.342  0.5852 -0.3435  0.4637
 4947TIP3   OH236331   4.768   4.157   6.335  0.4855 -0.0918  0.3529
 4947TIP3    H136332   4.737   4.067   6.342 -0.0320 -0.0260 -0.7638
 4947TIP3    H236333   4.755   4.180   6.243  3.5047  0.0787 -0.1466
 4948TIP3   OH236334   2.984   5.166   0.653 -0.1825 -0.1301 -0.6049
 4948TIP3    H136335   3.052   5.231   0.668  0.4337 -0.6940 -0.8864
 4948TIP3    H236336   2.993   5.104   0.726 -1.6865  0.8215  0.4641
 4949TIP3   OH236337   5.676   2.163   0.623 -0.1943 -0.6593 -0.0901
 4949TIP3    H136338   5.740   2.161   0.694 -0.3326 -1.1935  0.0206
 4949TIP3    H236339   5.619   2.088   0.640 -0.3614 -0.6595 -0.6427
 4950TIP3   OH236340   6.060   2.983  12.116 -0.4564  0.6202 -0.1610
 4950TIP3    H136341   6.089   2.910  12.171 -0.9331  0.2362 -0.4046
 4950TIP3    H236342   6.118   3.056  12.139 -0.4929  0.3924  0.6607
 4951TIP3   OH236343   2.304   1.261   5.906  0.8186 -0.4588  0.4091
 4951TIP3    H136344   2.307   1.339   5.961 -0.4627 -0.4482  0.4867
 4951TIP3    H236345   2.289   1.295   5.817 -2.0429 -0.6701  0.7363
 4952TIP3   OH236346   5.075   2.717   0.129 -0.0551  0.5001 -0.2468
 4952TIP3    H136347   5.037   2.762   0.205 -0.0845 -0.3673  0.2720
 4952TIP3    H236348   5.043   2.766   0.053 -0.7462  0.8601  0.2646
 4953TIP3   OH236349   1.934   6.659  15.814  0.4191 -0.2088 -0.0453
 4953TIP3    H136350   1.965   6.729  15.757  0.4996 -0.1437  0.0764
 4953TIP3    H236351   1.983   6.672  15.896 -0.3482  0.2399  0.3492
 4954TIP3   OH236352   3.057   1.067   0.762 -0.0191  0.4328  0.0579
 4954TIP3    H136353   3.126   1.014   0.803 -0.8449 -0.9900 -0.3392
 4954TIP3    H236354   2.979   1.049   0.814 -0.2957  1.4002  0.0034
 4955TIP3   OH236355   3.596   0.409  13.970 -0.0302 -0.3364 -0.4473
 4955TIP3    H136356   3.690   0.396  13.982  0.1253  0.6565 -0.5426
 4955TIP3    H236357   3.563   0.424  14.059 -0.2906 -1.7587 -0.2745
 4956TIP3   OH236358   1.385   4.446   2.253  0.1838  0.0526  0.6840
 4956TIP3    H136359   1.381   4.517   2.189  0.2063  1.0952  1.7940
 4956TIP3    H236360   1.421   4.372   2.205 -1.1705  0.3479 -0.8829
 4957TIP3   OH236361   4.269   3.053  10.605  0.3578 -0.1588  0.3472
 4957TIP3    H136362   4.319   2.979  10.570 -0.6772 -0.1803 -1.2027
 4957TIP3    H236363   4.294   3.127  10.550 -0.4062  0.0982  0.3355
 4958TIP3   OH236364   2.996   3.859   3.791  0.1044 -0.3116  0.1206
 4958TIP3    H136365   2.948   3.934   3.828 -1.0612 -1.3676  0.8146
 4958TIP3    H236366   3.088   3.879   3.810 -0.2080  0.7725  0.6189
 4959TIP3   OH236367   4.002   6.574   3.138  0.1178 -0.4289 -0.4473
 4959TIP3    H136368   3.959   6.589   3.222  0.7233 -1.4128  0.0580
 4959TIP3    H236369   3.953   6.503   3.098  0.2091 -0.3765 -0.6535
 4960TIP3   OH236370   1.340   5.246  12.515 -0.1656 -0.3076 -0.1786
 4960TIP3    H136371   1.350   5.314  12.448  0.2476 -0.2904 -0.0992
 4960TIP3    H236372   1.314   5.293  12.594  1.8348 -0.0234  0.3460
 4961TIP3   OH236373   4.737   0.824   3.058 -0.4200  0.0675 -0.1396
 4961TIP3    H136374   4.655   0.774   3.056 -0.7026  0.5170 -0.0870
 4961TIP3    H236375   4.727   0.888   2.988 -0.8531  1.2442  0.9393
 4962TIP3   OH236376   3.432   4.791  16.313 -0.3058 -0.0221 -0.5067
 4962TIP3    H136377   3.506   4.834  16.357 -0.7691 -0.4742  0.7555
 4962TIP3    H236378   3.438   4.821  16.223  0.0949  1.7517  0.0686
 4963TIP3   OH236379   0.220   2.636  12.490 -0.2499  0.2908  0.4541
 4963TIP3    H136380   0.298   2.676  12.528 -0.3645  1.9595 -0.9687
 4963TIP3    H236381   0.159   2.709  12.476 -0.0876 -0.0856 -3.1583
 4964TIP3   OH236382   4.943   0.358   1.019 -0.4278 -0.3280  0.1880
 4964TIP3    H136383   4.864   0.312   1.049 -2.3185  1.4329 -1.7758
 4964TIP3    H236384   4.951   0.334   0.927  1.1889 -0.2281  0.2800
 4965TIP3   OH236385   0.912   4.701  16.981  0.3186  0.2311 -0.0318
 4965TIP3    H136386   0.850   4.655  16.925  0.9186 -0.0666 -0.4541
 4965TIP3    H236387   0.997   4.662  16.961  0.7658  1.1892 -0.0550
 4966TIP3   OH236388   2.820   2.045  10.715 -0.1263  0.1362 -0.0204
 4966TIP3    H136389   2.780   1.959  10.725 -1.1994  0.5103 -0.9491
 4966TIP3    H236390   2.750   2.101  10.683  0.2777  1.6287  1.5543
 4967TIP3   OH236391   4.856   1.287  14.445 -0.6198 -0.0027  0.7136
 4967TIP3    H136392   4.806   1.217  14.403  0.7073 -0.5707  0.0152
 4967TIP3    H236393   4.792   1.333  14.499 -2.0562 -0.1945 -0.7596
 4968TIP3   OH236394   0.601   2.686  12.174 -0.9332  0.2543 -0.2103
 4968TIP3    H136395   0.668   2.733  12.225 -1.0204 -0.2228  0.3542
 4968TIP3    H236396   0.522   2.739  12.183 -0.8565  0.3585 -0.1463
 4969TIP3   OH236397   0.030   2.437  15.919  0.3821  0.2880  0.0729
 4969TIP3    H136398   0.066   2.524  15.901 -1.2676  1.0347  0.1182
 4969TIP3    H236399   0.105   2.384  15.945  1.7907  1.0789 -2.1227
 4970TIP3   OH236400   2.375   3.400  15.104 -0.2347  0.2290  0.3252
 4970TIP3    H136401   2.373   3.410  15.199 -1.6099 -0.6628  0.4108
 4970TIP3    H236402   2.283   3.402  15.077  0.1505  0.8815 -1.0489
 4971TIP3   OH236403   1.075   5.222   3.070  0.7384  0.8123  0.0358
 4971TIP3    H136404   1.149   5.267   3.110  2.2174 -0.4345 -1.2264
 4971TIP3    H236405   1.105   5.197   2.983 -1.3449  0.7132 -0.7169
 4972TIP3   OH236406   1.790   4.931  12.186 -0.3141  0.5967  0.0769
 4972TIP3    H136407   1.849   4.885  12.246 -0.3811 -0.4557 -0.6221
 4972TIP3    H236408   1.759   5.006  12.235  0.8912  0.6612  0.7845
 4973TIP3   OH236409   1.497   1.492   5.880 -0.1296 -0.3364 -0.1210
 4973TIP3    H136410   1.438   1.562   5.908  0.6408  0.3233 -0.0845
 4973TIP3    H236411   1.559   1.535   5.821  1.0225 -0.7334  0.7501
 4974TIP3   OH236412   0.742   2.780   0.147 -0.1324  0.1277  0.3200
 4974TIP3    H136413   0.783   2.811   0.066  0.8666  0.4514  0.9327
 4974TIP3    H236414   0.678   2.847   0.169 -0.1709  0.2029 -0.0218
 4975TIP3   OH236415   1.264   1.068  11.278 -0.2143 -0.1948  0.2852
 4975TIP3    H136416   1.186   1.032  11.236 -0.7862  2.0723 -0.7333
 4975TIP3    H236417   1.232   1.140  11.332  1.1543  1.1789 -0.6103
 4976TIP3   OH236418   1.341   3.147   0.513  0.0920  0.0856  0.3874
 4976TIP3    H136419   1.332   3.242   0.514 -2.4417 -0.0853  1.2200
 4976TIP3    H236420   1.298   3.119   0.432  2.4457 -0.3055 -0.8131
 4977TIP3   OH236421   0.567   3.001   0.241  0.6088  0.7190  0.1377
 4977TIP3    H136422   0.501   2.938   0.213  0.4629  1.0341 -0.2530
 4977TIP3    H236423   0.577   3.060   0.165  2.1619  0.0105 -0.2554
 4978TIP3   OH236424   0.216   3.514  10.829  0.3845 -0.1951  0.1844
 4978TIP3    H136425   0.194   3.522  10.922 -1.3183  0.6041 -0.2507
 4978TIP3    H236426   0.132   3.511  10.784  1.1678 -0.8758 -1.3323
 4979TIP3   OH236427   4.385   0.883  17.102  0.2733  0.0632 -0.5109
 4979TIP3    H136428   4.420   0.827  17.172 -1.4695  0.7636  0.9871
 4979TIP3    H236429   4.413   0.840  17.021  2.1657 -0.8969  0.5781
 4980TIP3   OH236430   2.064   6.546   5.765  0.0783  0.0368 -0.2219
 4980TIP3    H136431   2.146   6.522   5.809 -0.4380 -4.3215 -1.2061
 4980TIP3    H236432   2.090   6.558   5.673 -0.3186 -1.6203 -0.5861
 4981TIP3   OH236433   1.807   1.381  12.458 -0.1637 -0.4930 -0.2165
 4981TIP3    H136434   1.870   1.318  12.490 -0.2527 -0.5222 -0.0983
 4981TIP3    H236435   1.757   1.334  12.391 -0.4382 -0.6463  0.0917
 4982TIP3   OH236436   6.123   2.131  13.393 -0.0373 -0.2925  0.1866
 4982TIP3    H136437   6.038   2.094  13.369 -0.0432 -0.3149  0.2410
 4982TIP3    H236438   6.174   2.055  13.421  0.2225 -0.3704 -0.4862
 4983TIP3   OH236439   5.699   1.984  14.423  0.3332  0.0503 -0.0463
 4983TIP3    H136440   5.744   1.978  14.507  2.4104 -1.0955 -1.1429
 4983TIP3    H236441   5.684   1.893  14.397 -0.7277  0.3923 -0.7143
 4984TIP3   OH236442   0.223   1.681  11.813 -0.2112 -0.3734  0.0998
 4984TIP3    H136443   0.138   1.647  11.782 -0.2218 -0.3354  0.0878
 4984TIP3    H236444   0.277   1.685  11.734 -0.5178  0.5702 -0.0670
 4985TIP3   OH236445   1.626   4.995  14.830 -0.1637  0.2714  0.2007
 4985TIP3    H136446   1.698   5.058  14.826 -1.0440  1.3906  1.3875
 4985TIP3    H236447   1.553   5.044  14.866 -1.3325 -1.0403 -0.3111
 4986TIP3   OH236448   4.127   4.692   5.780 -0.4017 -0.0504  0.4549
 4986TIP3    H136449   4.167   4.627   5.722 -0.5162  2.1294 -2.2443
 4986TIP3    H236450   4.197   4.719   5.839  0.8932  0.5156 -1.2868
 4987TIP3   OH236451   5.422   2.017  11.822 -0.2456  0.1318  0.6653
 4987TIP3    H136452   5.497   2.068  11.791  0.7609 -2.1956 -1.0975
 4987TIP3    H236453   5.359   2.019  11.750 -0.3175 -0.7988  0.6821
 4988TIP3   OH236454   4.547   5.619  14.723  0.4363 -0.5677 -0.3705
 4988TIP3    H136455   4.494   5.550  14.684 -1.1381  1.7706 -2.7996
 4988TIP3    H236456   4.519   5.623  14.814 -2.9317 -0.1855 -1.2778
 4989TIP3   OH236457   2.537   2.381  15.428 -0.3529 -1.0380  0.4105
 4989TIP3    H136458   2.552   2.412  15.338  0.0107 -1.5467  0.2967
 4989TIP3    H236459   2.493   2.455  15.471 -0.1075 -0.6149 -0.0529
 4990TIP3   OH236460   2.434   3.516  14.206 -0.3723  0.6953  0.0893
 4990TIP3    H136461   2.356   3.567  14.228 -0.2262  1.2877 -0.7133
 4990TIP3    H236462   2.400   3.433  14.175 -0.7389  1.2190 -0.9640
 4991TIP3   OH236463   5.707   5.234   3.961  0.4833 -0.1122  0.1052
 4991TIP3    H136464   5.669   5.221   3.875  1.2390  0.2759 -0.2950
 4991TIP3    H236465   5.686   5.154   4.009 -2.1526  0.6822  0.4228
 4992TIP3   OH236466   3.012   2.467   6.120 -0.2335 -0.1767 -0.0375
 4992TIP3    H136467   3.107   2.473   6.109 -0.2200  0.4818  0.3800
 4992TIP3    H236468   2.999   2.469   6.215 -0.8094  2.3534 -0.1186
 4993TIP3   OH236469   3.640   5.260  15.260 -0.0997 -0.6859  0.4703
 4993TIP3    H136470   3.732   5.283  15.270 -0.7382  1.3289  2.5426
 4993TIP3    H236471   3.595   5.311  15.327 -2.7441 -1.6025 -0.4779
 4994TIP3   OH236472   6.595   0.705   3.572  0.3130 -0.0520  0.2886
 4994TIP3    H136473   6.589   0.618   3.610  0.8124 -1.6696 -2.9898
 4994TIP3    H236474   6.681   0.708   3.531 -0.6479  0.9301 -1.8466
 4995TIP3   OH236475   4.489   2.326  16.583 -0.2436 -0.5435  0.8324
 4995TIP3    H136476   4.538   2.395  16.628 -1.7173  0.3162  1.2064
 4995TIP3    H236477   4.522   2.328  16.493 -0.1384  0.5603  0.8808
 4996TIP3   OH236478   0.557   3.324  13.359 -0.3767 -0.2648  0.1857
 4996TIP3    H136479   0.470   3.288  13.379  0.4376 -2.1566  0.5158
 4996TIP3    H236480   0.602   3.255  13.312  0.8385  0.8353 -0.3320
 4997TIP3   OH236481   6.168   3.505   0.363  0.1493  0.4527  0.1579
 4997TIP3    H136482   6.212   3.515   0.279  1.6907 -0.2461  0.8229
 4997TIP3    H236483   6.103   3.575   0.365  1.5218  1.8326 -0.7369
 4998TIP3   OH236484   4.382   1.213  13.169 -0.3479  0.5953  0.0192
 4998TIP3    H136485   4.373   1.275  13.097  0.9335  0.9213  0.1161
 4998TIP3    H236486   4.350   1.130  13.133  0.8021  0.6217 -1.1238
 4999TIP3   OH236487   4.927   5.589  11.821 -0.2014  0.2331  0.3090
 4999TIP3    H136488   4.926   5.671  11.872  0.0055 -0.4295  1.4081
 4999TIP3    H236489   4.969   5.613  11.738  1.0317  0.9643  1.1098
 5000TIP3   OH236490   3.403   4.452   0.363  0.0520  0.1133 -0.0270
 5000TIP3    H136491   3.352   4.518   0.410 -0.5028 -1.2662  1.3913
 5000TIP3    H236492   3.478   4.435   0.419 -0.6546 -1.6093  0.4836
 5001TIP3   OH236493   1.386   4.962   0.154  0.0385  0.7878  0.0450
 5001TIP3    H136494   1.411   4.953   0.246 -2.1124 -1.8316  0.4956
 5001TIP3    H236495   1.444   4.901   0.109 -1.7933 -1.2882  0.3611
 5002TIP3   OH236496   1.132   3.341   3.274  0.1906  0.4401  0.1880
 5002TIP3    H136497   1.147   3.428   3.310 -0.3533  0.4726  0.3469
 5002TIP3    H236498   1.180   3.341   3.191 -0.3964  1.1531 -0.1749
 5003TIP3   OH236499   2.307   2.512  14.574 -0.3222 -0.0912 -0.1970
 5003TIP3    H136500   2.221   2.475  14.553 -0.0568 -0.7541 -0.1476
 5003TIP3    H236501   2.309   2.596  14.528 -2.0309  1.2076  1.8589
 5004TIP3   OH236502   2.990   2.540  16.688 -0.1829 -0.0773  0.6517
 5004TIP3    H136503   3.038   2.534  16.771 -0.0585  2.6227  0.8771
 5004TIP3    H236504   2.919   2.477  16.697  0.5939 -0.7797  2.2657
 5005TIP3   OH236505   5.008   4.469   6.049 -0.2820 -0.1074 -0.1520
 5005TIP3    H136506   5.081   4.490   5.990 -1.4030  0.6927 -1.3170
 5005TIP3    H236507   5.042   4.487   6.137  0.9923 -0.0035 -0.6435
 5006TIP3   OH236508   2.745   2.742  11.083 -0.2618  0.0395 -0.6163
 5006TIP3    H136509   2.834   2.724  11.114 -0.5088 -0.7785 -0.3607
 5006TIP3    H236510   2.740   2.838  11.078 -0.0627  0.1974  1.4092
 5007TIP3   OH236511   5.929   6.796  11.638 -0.1916  0.1245  0.6157
 5007TIP3    H136512   5.902   6.872  11.585  0.1589 -0.5356 -0.5502
 5007TIP3    H236513   5.929   6.828  11.728  1.0108  1.8246  0.0466
 5008TIP3   OH236514   0.262   0.108  12.162  0.2291 -0.1049  0.1613
 5008TIP3    H136515   0.349   0.145  12.152  1.5251 -2.7657  0.8259
 5008TIP3    H236516   0.222   0.117  12.076  1.2754  0.8405 -0.2478
 5009TIP3   OH236517   2.949   4.411   5.258 -0.5465 -0.3927  0.1818
 5009TIP3    H136518   3.039   4.392   5.231 -0.7247 -0.5010 -0.3449
 5009TIP3    H236519   2.938   4.504   5.240 -1.0967 -0.7371 -1.4194
 5010TIP3   OH236520   6.293   0.712   3.156  0.3974 -0.0857  0.6050
 5010TIP3    H136521   6.329   0.757   3.080 -0.4690  0.9260  0.7611
 5010TIP3    H236522   6.344   0.746   3.230 -0.9681  1.5411  0.8568
 5011TIP3   OH236523   1.454   6.533   0.657 -0.5850  0.0515  0.5552
 5011TIP3    H136524   1.380   6.488   0.616 -0.5191  1.2691 -0.9997
 5011TIP3    H236525   1.483   6.596   0.591 -0.5138  2.2052  2.5203
 5012TIP3   OH236526   4.841   4.918   0.680  0.1883  0.6157  0.3916
 5012TIP3    H136527   4.936   4.906   0.671  0.1129  0.4675 -0.2642
 5012TIP3    H236528   4.826   5.009   0.654 -0.0470  0.1512 -1.1604
 5013TIP3   OH236529   1.547   3.412   5.391  0.4611 -0.1057 -0.2349
 5013TIP3    H136530   1.584   3.456   5.315 -0.2035  1.6027  0.3750
 5013TIP3    H236531   1.454   3.401   5.369  0.8631 -2.5487 -0.9469
 5014TIP3   OH236532   3.136   2.822   6.193 -0.2771 -0.1349 -0.5805
 5014TIP3    H136533   3.174   2.904   6.223 -1.8049 -0.0333  1.2475
 5014TIP3    H236534   3.092   2.786   6.270 -1.3358 -1.6816 -1.8365
 5015TIP3   OH236535   3.847   5.106  11.343  0.5976  0.1322 -0.0045
 5015TIP3    H136536   3.906   5.089  11.269  2.0320  0.8675  0.9195
 5015TIP3    H236537   3.774   5.046  11.329  1.1610 -0.2436 -1.6358
 5016TIP3   OH236538   0.155   2.122  14.188 -0.3197 -0.3095  0.4910
 5016TIP3    H136539   0.196   2.114  14.274  1.2857 -0.1991 -0.2321
 5016TIP3    H236540   0.228   2.138  14.127 -1.5943  1.8402 -0.6016
 5017TIP3   OH236541   2.795   1.345  14.506  0.0360  0.2133  0.1850
 5017TIP3    H136542   2.809   1.406  14.434  0.6879 -0.1573 -0.0133
 5017TIP3    H236543   2.860   1.276  14.491 -0.5988 -0.4568  0.4771
 5018TIP3   OH236544   6.070   5.562  15.335 -0.0500  0.0646 -0.0763
 5018TIP3    H136545   6.012   5.548  15.261 -1.7089 -0.8795  1.3475
 5018TIP3    H236546   6.051   5.490  15.395  0.1309  1.6227  1.9547
 5019TIP3   OH236547   2.316   6.772  10.699 -0.1766 -0.0130  0.0919
 5019TIP3    H136548   2.349   6.845  10.646  0.4922 -0.9032 -0.7471
 5019TIP3    H236549   2.386   6.707  10.696  0.0185  0.0324  2.3708
 5020TIP3   OH236550   1.461   1.262   3.607 -0.1495 -0.9358 -0.5312
 5020TIP3    H136551   1.487   1.353   3.596 -1.5398 -0.4191  0.1477
 5020TIP3    H236552   1.498   1.217   3.531  0.0191  0.3154 -1.2163
 5021TIP3   OH236553   3.795   4.633   2.985  0.0733 -0.4026 -0.0292
 5021TIP3    H136554   3.761   4.606   2.900 -0.3668  1.3947 -0.4606
 5021TIP3    H236555   3.717   4.655   3.036  0.4116  0.1248  0.2661
 5022TIP3   OH236556   5.046   5.055   3.802 -0.4070 -0.0018  0.8777
 5022TIP3    H136557   5.093   4.991   3.748  1.2055  0.2563  1.8795
 5022TIP3    H236558   5.039   5.013   3.888  0.6745  1.1184  1.5518
 5023TIP3   OH236559   0.499   3.592   3.838  0.1494 -0.0933 -0.0454
 5023TIP3    H136560   0.584   3.571   3.797  1.7003  2.8377  1.3824
 5023TIP3    H236561   0.434   3.562   3.774  2.2362 -1.8834 -1.4929
 5024TIP3   OH236562   1.854   4.789   3.014  0.1391  0.1117  0.4891
 5024TIP3    H136563   1.879   4.706   3.056 -1.2448 -0.9458 -0.6755
 5024TIP3    H236564   1.794   4.830   3.077 -0.8249 -0.7891  0.1715
 5025TIP3   OH236565   4.684   6.092  10.832  0.4632 -0.6229  0.8904
 5025TIP3    H136566   4.764   6.077  10.881  1.6845 -0.9121 -1.0644
 5025TIP3    H236567   4.693   6.037  10.754 -2.1302 -1.4616  1.1099
 5026TIP3   OH236568   0.955   3.779  12.371 -0.2680  0.2216  0.1930
 5026TIP3    H136569   1.030   3.827  12.336 -0.0665  0.6965  1.2368
 5026TIP3    H236570   0.881   3.839  12.361 -0.7323 -0.5758 -1.6546
 5027TIP3   OH236571   5.009   6.301   1.314 -0.4200  0.0705 -0.6602
 5027TIP3    H136572   5.052   6.279   1.396 -0.2403  1.8454 -0.2401
 5027TIP3    H236573   5.080   6.331   1.257 -0.9734  2.9947  0.0284
 5028TIP3   OH236574   4.443   0.481  13.235  0.2534  0.2936  0.2187
 5028TIP3    H136575   4.352   0.451  13.235 -0.3926  2.0733  0.9730
 5028TIP3    H236576   4.474   0.465  13.324  0.3576  0.5487  0.2300
 5029TIP3   OH236577   3.246   2.524   2.658  0.2057 -0.0633  0.5509
 5029TIP3    H136578   3.167   2.535   2.606  0.2550 -2.1783 -0.0609
 5029TIP3    H236579   3.304   2.471   2.603  2.0781  1.4369  0.9738
 5030TIP3   OH236580   1.263   0.866  13.135  0.1435  0.1707  0.4516
 5030TIP3    H136581   1.173   0.874  13.103 -0.4290  1.7492  2.3054
 5030TIP3    H236582   1.256   0.871  13.230  2.2218  0.5059  0.6398
 5031TIP3   OH236583   2.553   0.900   4.081  0.1787  0.3812  0.1642
 5031TIP3    H136584   2.554   0.963   4.009  1.6788  0.5160  0.2677
 5031TIP3    H236585   2.555   0.814   4.037 -1.3115  0.3952  0.0329
 5032TIP3   OH236586   0.566   4.619   1.591 -0.3919  0.3894 -0.1251
 5032TIP3    H136587   0.628   4.640   1.521 -0.2548  2.9355  0.6635
 5032TIP3    H236588   0.500   4.689   1.587 -0.3103  0.7145  2.3177
 5033TIP3   OH236589   2.485   0.064  15.507 -0.1534  0.6555 -0.5403
 5033TIP3    H136590   2.577   0.064  15.483  0.7269 -0.2616  2.4184
 5033TIP3    H236591   2.453  -0.021  15.477  0.3137  0.4321 -0.4150
 5034TIP3   OH236592   0.737   4.356  11.341  0.0052  0.2157 -0.0523
 5034TIP3    H136593   0.762   4.334  11.431  0.8169  1.3007  0.0076
 5034TIP3    H236594   0.820   4.366  11.295 -0.3802  0.7107 -0.6640
 5035TIP3   OH236595   1.914   4.302  11.172  0.1192  0.1501 -0.3463
 5035TIP3    H136596   1.920   4.326  11.080  0.0200  0.0585 -0.3775
 5035TIP3    H236597   1.985   4.239  11.186  1.3547  1.6062  0.1043
 5036TIP3   OH236598   1.171   6.316   5.674  0.5218  0.0455  0.2865
 5036TIP3    H136599   1.087   6.281   5.644  0.0569 -0.1022  1.6537
 5036TIP3    H236600   1.151   6.404   5.705  0.5058 -0.5473  2.0844
 5037TIP3   OH236601   1.657   2.290  16.536 -0.0120  0.2656 -0.3822
 5037TIP3    H136602   1.711   2.364  16.563 -0.5523 -0.0034  1.6693
 5037TIP3    H236603   1.677   2.221  16.600 -1.4410 -0.4423 -0.6552
 5038TIP3   OH236604   4.357   0.686  15.696 -0.1518 -0.3675  0.0923
 5038TIP3    H136605   4.387   0.664  15.607 -1.0334 -1.1522 -0.0310
 5038TIP3    H236606   4.355   0.602  15.741  1.4985  0.1755  1.2704
 5039TIP3   OH236607   3.203   0.171   2.034 -0.2175 -0.1750  0.0039
 5039TIP3    H136608   3.295   0.145   2.024 -0.3181 -0.2248 -0.9701
 5039TIP3    H236609   3.163   0.150   1.949 -0.6989  1.5644 -0.2511
 5040TIP3   OH236610   2.806   0.683   1.964  0.0269 -0.0272  0.5875
 5040TIP3    H136611   2.743   0.616   1.991  0.9099 -1.3173 -0.4988
 5040TIP3    H236612   2.832   0.658   1.876  2.1629  0.4035  1.0536
 5041TIP3   OH236613   6.006   4.587   3.984  0.6983  0.5201  0.1594
 5041TIP3    H136614   5.966   4.664   3.943  0.6898 -1.1099 -3.2192
 5041TIP3    H236615   6.094   4.583   3.947  0.1337 -1.9709 -1.0867
 5042TIP3   OH236616   6.088   4.149  11.266  0.2554 -0.0727  0.3882
 5042TIP3    H136617   6.105   4.071  11.320  0.7876  0.8962  1.6835
 5042TIP3    H236618   6.001   4.178  11.293 -0.1917 -0.5402 -0.5238
 5043TIP3   OH236619   5.267   3.442  15.591  0.1973  0.4310 -0.2057
 5043TIP3    H136620   5.289   3.450  15.684  1.7112  0.9021 -0.5732
 5043TIP3    H236621   5.174   3.420  15.590 -0.2213  1.9086  1.3922
 5044TIP3   OH236622   3.502   6.642   1.599  0.0841  0.4095 -0.4708
 5044TIP3    H136623   3.585   6.685   1.615 -0.1351  1.1202 -1.1471
 5044TIP3    H236624   3.512   6.554   1.635  0.5158  1.0449  1.0061
 5045TIP3   OH236625   1.912   6.086   0.416 -0.1546 -0.4352 -0.2151
 5045TIP3    H136626   1.980   6.150   0.395  2.2537 -2.8242 -0.3138
 5045TIP3    H236627   1.841   6.138   0.453  1.8123  2.2191  0.1594
 5046TIP3   OH236628   2.187   4.982  11.891 -0.4464 -0.1497 -0.1465
 5046TIP3    H136629   2.150   5.053  11.839 -0.6406 -1.2915 -1.6125
 5046TIP3    H236630   2.111   4.936  11.926 -0.3281 -0.1899  0.0633
 5047TIP3   OH236631   3.557   0.313  16.942 -0.0131  0.0545 -0.4541
 5047TIP3    H136632   3.550   0.306  17.037  0.2221  0.0597 -0.4390
 5047TIP3    H236633   3.526   0.402  16.922 -0.1904  0.0071 -0.3979
 5048TIP3   OH236634   4.854   5.502   4.119 -0.3102  0.6870  0.6143
 5048TIP3    H136635   4.944   5.536   4.119 -0.3143  0.8095 -1.3490
 5048TIP3    H236636   4.819   5.527   4.204 -0.1009  5.0544 -0.3873
 5049TIP3   OH236637   2.249   2.064   3.329 -0.3284 -0.3364  0.6517
 5049TIP3    H136638   2.185   2.088   3.263 -0.0078 -1.7331 -0.2183
 5049TIP3    H236639   2.260   2.142   3.382 -0.6721  0.7914 -0.8787
 5050TIP3   OH236640   1.357   0.910   3.327 -0.2118 -0.2241 -0.8084
 5050TIP3    H136641   1.357   0.900   3.422  1.3898  0.5240 -0.7047
 5050TIP3    H236642   1.279   0.862   3.298 -0.1645 -1.3394  0.7784
 5051TIP3   OH236643   2.445   2.994  11.250  0.3777 -0.2261  0.5918
 5051TIP3    H136644   2.355   3.027  11.258 -0.3297 -1.5856 -1.1067
 5051TIP3    H236645   2.491   3.062  11.200 -0.4288 -0.6630 -0.8017
 5052TIP3   OH236646   3.146   4.547   1.414 -0.0372 -0.5579 -0.1435
 5052TIP3    H136647   3.157   4.625   1.469  0.5253  1.3038 -2.7030
 5052TIP3    H236648   3.219   4.490   1.437  0.5970  0.4998  0.5281
 5053TIP3   OH236649   4.735   1.850   5.396 -0.9236  0.1391 -0.5777
 5053TIP3    H136650   4.744   1.936   5.354  0.4848  0.0118 -0.5513
 5053TIP3    H236651   4.809   1.843   5.455 -0.0178 -1.7974 -1.8471
 5054TIP3   OH236652   1.351   2.139  15.819 -0.1659  0.1022  0.2872
 5054TIP3    H136653   1.379   2.048  15.834  2.4928  0.7557 -0.3503
 5054TIP3    H236654   1.336   2.174  15.907 -1.0980 -0.8891  0.5472
 5055TIP3   OH236655   0.781   6.599  12.041  0.4549 -0.6079  0.2596
 5055TIP3    H136656   0.698   6.587  11.996  1.4865 -3.2492 -1.1848
 5055TIP3    H236657   0.793   6.518  12.091  3.5354 -1.7882 -2.0993
 5056TIP3   OH236658   1.515   2.643   1.633 -0.2159 -0.3215  0.0053
 5056TIP3    H136659   1.487   2.700   1.704  0.4964 -0.4662  0.4177
 5056TIP3    H236660   1.434   2.610   1.595 -0.6452 -1.4082  1.7074
 5057TIP3   OH236661   0.383   3.949  16.485 -0.1273 -0.5549  0.2668
 5057TIP3    H136662   0.375   4.015  16.416  2.3849  1.2841  1.5594
 5057TIP3    H236663   0.402   3.868  16.439 -1.0762  0.0613 -1.2885
 5058TIP3   OH236664   3.224   5.066   0.239  0.4314  0.2277 -0.0486
 5058TIP3    H136665   3.239   4.986   0.289  1.3209 -0.7367 -1.7636
 5058TIP3    H236666   3.243   5.137   0.301 -0.1864 -0.8559  1.4452
 5059TIP3   OH236667   3.015   2.548  14.349 -0.4090  0.3147 -0.0910
 5059TIP3    H136668   2.951   2.612  14.318  0.2104  1.3409  0.6776
 5059TIP3    H236669   2.973   2.463  14.335 -0.9987  0.8345 -1.7288
 5060TIP3   OH236670   1.769   2.448   3.067 -0.4031 -0.1192  0.2781
 5060TIP3    H136671   1.727   2.399   2.996 -0.7071  0.6310 -0.0711
 5060TIP3    H236672   1.745   2.400   3.146  2.0469 -2.5072 -0.2571
 5061TIP3   OH236673   3.430   6.435  10.605  0.7810 -0.4181  0.0180
 5061TIP3    H136674   3.463   6.499  10.541 -1.6656  2.2280  1.1716
 5061TIP3    H236675   3.369   6.381  10.555  2.6441 -1.7784 -0.9040
 5062TIP3   OH236676   4.282   6.188   0.192  0.0900  0.2188 -0.1748
 5062TIP3    H136677   4.252   6.270   0.232  0.3388  0.9110 -1.3537
 5062TIP3    H236678   4.316   6.214   0.106  0.7543 -1.0396 -0.3228
 5063TIP3   OH236679   4.021   3.242   0.070 -0.0151  0.0817 -0.3530
 5063TIP3    H136680   4.091   3.259   0.133 -1.3978 -0.5536  1.4034
 5063TIP3    H236681   4.004   3.328   0.030  0.9827  0.4558 -0.0141
 5064TIP3   OH236682   5.391   4.323  11.552  0.2385  0.2626 -0.2911
 5064TIP3    H136683   5.445   4.346  11.476 -0.8899 -0.0028 -1.2080
 5064TIP3    H236684   5.340   4.248  11.522 -0.7137  0.5764  0.5066
 5065TIP3   OH236685   2.610   2.491   5.594  0.1132  0.0572 -0.1764
 5065TIP3    H136686   2.558   2.460   5.669  0.4130  0.4891  0.2201
 5065TIP3    H236687   2.574   2.578   5.574  0.9742  0.5730  0.4118
 5066TIP3   OH236688   5.311   3.973   5.658 -0.0686  0.1515  0.2825
 5066TIP3    H136689   5.407   3.979   5.664 -0.0815 -0.6935  1.8638
 5066TIP3    H236690   5.296   3.888   5.617 -0.1428 -0.2183  1.0643
 5067TIP3   OH236691   3.772   5.058   1.036  0.0674 -0.1491 -0.1749
 5067TIP3    H136692   3.681   5.032   1.043 -0.4116  0.8053 -2.1397
 5067TIP3    H236693   3.780   5.096   0.949  1.8729  1.6204  0.6580
 5068TIP3   OH236694   6.107   3.152  12.751 -0.0497 -0.0801 -0.5666
 5068TIP3    H136695   6.119   3.158  12.846  1.2800  1.0107 -0.7699
 5068TIP3    H236696   6.013   3.136  12.740 -0.2175 -0.2908  0.9257
 5069TIP3   OH236697   6.719   0.496   3.331  0.3939  0.3695  0.1713
 5069TIP3    H136698   6.774   0.555   3.383 -0.1145  1.5417 -0.5746
 5069TIP3    H236699   6.775   0.471   3.257  0.3082  0.6849 -0.0056
 5070TIP3   OH236700   6.384   0.169  16.674  0.6301 -0.0699  0.1499
 5070TIP3    H136701   6.361   0.239  16.735 -1.3660 -0.1891 -0.3942
 5070TIP3    H236702   6.361   0.088  16.720  0.5822 -0.2326 -0.1561
 5071TIP3   OH236703   3.183   3.398   0.562  0.6710  0.1818 -0.6077
 5071TIP3    H136704   3.220   3.473   0.609  2.4884 -0.8851 -0.2271
 5071TIP3    H236705   3.088   3.412   0.565  0.9281  2.1280 -0.0164
 5072TIP3   OH236706   3.656   2.766  12.886 -0.3688  0.3646 -0.1462
 5072TIP3    H136707   3.629   2.675  12.883  0.4306  0.1166 -2.7124
 5072TIP3    H236708   3.699   2.781  12.801  2.0857  2.3500  1.2970
 5073TIP3   OH236709   0.316   4.943  15.678  0.1655 -0.1677 -0.2710
 5073TIP3    H136710   0.378   4.922  15.609 -0.5696 -1.7848 -0.5026
 5073TIP3    H236711   0.257   5.007  15.640 -0.0927 -0.8759 -1.0995
 5074TIP3   OH236712   6.708   0.310   1.848  0.4123  0.3562  0.0488
 5074TIP3    H136713   6.794   0.350   1.835  0.4682  0.1865 -0.1085
 5074TIP3    H236714   6.652   0.382   1.876  1.2102  0.0086  2.8264
 5075TIP3   OH236715   2.123   1.963  15.253 -0.2400  0.2671 -0.1631
 5075TIP3    H136716   2.159   1.880  15.222  2.2967  1.5019 -0.7750
 5075TIP3    H236717   2.091   2.006  15.174  0.6928  0.8683 -0.2289
 5076TIP3   OH236718   3.309   0.142  11.688 -0.5472 -0.3692  0.5787
 5076TIP3    H136719   3.281   0.051  11.677 -0.2146 -0.5111  0.8611
 5076TIP3    H236720   3.391   0.149  11.639  0.5925 -0.8328  2.3168
 5077TIP3   OH236721   6.131   1.409  15.116 -0.2603  0.1893 -0.3037
 5077TIP3    H136722   6.181   1.371  15.189 -0.2979 -0.8918 -0.8224
 5077TIP3    H236723   6.115   1.336  15.057  0.2426  1.1545 -1.6886
 5078TIP3   OH236724   0.629   3.966  11.347  0.6599 -0.0184 -0.5965
 5078TIP3    H136725   0.624   3.871  11.335 -0.1466  0.1800 -2.1513
 5078TIP3    H236726   0.723   3.986  11.338  0.8086 -0.6360 -0.4611
 5079TIP3   OH236727   0.086   2.093  11.536  0.5325  0.1396  0.7194
 5079TIP3    H136728   0.154   2.068  11.473 -0.7847 -1.6176 -0.0945
 5079TIP3    H236729   0.083   2.020  11.598 -0.8626 -0.0200  0.4993
 5080TIP3   OH236730   6.263   2.647  15.872  0.0828 -0.0122 -0.7164
 5080TIP3    H136731   6.288   2.725  15.824  1.5101 -1.5625 -2.6841
 5080TIP3    H236732   6.312   2.652  15.954  1.0433  0.6241 -1.3170
 5081TIP3   OH236733   5.686   0.608  15.222  0.2599  0.0878  0.5835
 5081TIP3    H136734   5.642   0.588  15.304  0.9638  2.3094  1.5816
 5081TIP3    H236735   5.777   0.582  15.237  0.2089 -0.3509  0.1584
 5082TIP3   OH236736   5.441   5.847   0.613 -0.2903  0.5174  0.2105
 5082TIP3    H136737   5.362   5.898   0.633  0.4578  0.9033  2.5592
 5082TIP3    H236738   5.439   5.775   0.676 -0.9986 -2.1572 -2.6186
 5083TIP3   OH236739   2.659   6.012  10.811 -0.5530 -0.1202  0.3173
 5083TIP3    H136740   2.612   6.091  10.784  1.6265  0.9680 -0.6134
 5083TIP3    H236741   2.751   6.031  10.790  0.1845 -2.5120  1.0527
 5084TIP3   OH236742   3.648   4.897  16.456 -0.2649  0.1773  0.2320
 5084TIP3    H136743   3.626   4.990  16.448  2.3534  0.8081 -0.4184
 5084TIP3    H236744   3.613   4.872  16.542 -0.0198  2.0589  0.9322
 5085TIP3   OH236745   3.009   0.886   3.488 -0.9072  0.3142  0.0297
 5085TIP3    H136746   3.071   0.822   3.525  0.1512  0.1770 -1.8805
 5085TIP3    H236747   2.926   0.839   3.486 -0.9068  0.1673  1.7253
 5086TIP3   OH236748   0.666   5.050   2.914  0.4152  0.3503  0.1948
 5086TIP3    H136749   0.754   5.031   2.944 -0.3774 -0.0328  2.4904
 5086TIP3    H236750   0.673   5.134   2.868  1.9012  0.4390  0.5488
 5087TIP3   OH236751   4.005   2.557  10.201 -0.0865  0.2951  0.0660
 5087TIP3    H136752   4.025   2.599  10.285  3.6310  0.6671 -0.8332
 5087TIP3    H236753   3.939   2.614  10.161 -0.2008  1.4105  1.7083
 5088TIP3   OH236754   5.072   3.259  10.793  0.7395  0.2963  0.5925
 5088TIP3    H136755   5.024   3.315  10.732  1.6288  1.5177  0.9664
 5088TIP3    H236756   5.140   3.217  10.740 -0.9379 -1.7879 -0.0316
 5089TIP3   OH236757   5.256   3.128   1.855 -0.0662  0.3528 -0.8158
 5089TIP3    H136758   5.208   3.178   1.921 -0.4803  1.1715 -1.6950
 5089TIP3    H236759   5.275   3.193   1.786  1.9040 -0.0581 -0.7074
 5090TIP3   OH236760   0.839   6.816   1.406  0.5700 -0.4128 -0.0510
 5090TIP3    H136761   0.792   6.877   1.464 -1.5476 -0.0703 -2.0071
 5090TIP3    H236762   0.835   6.732   1.453 -1.9342 -0.3620 -0.0231
 5091TIP3   OH236763   5.286   3.348  14.174  0.2939  0.5923 -0.2311
 5091TIP3    H136764   5.307   3.360  14.082 -0.6614 -1.6544 -0.8068
 5091TIP3    H236765   5.359   3.297  14.209 -0.6212 -0.9520 -0.4720
 5092TIP3   OH236766   0.888   0.542   2.109  0.3218  0.5793  0.1913
 5092TIP3    H136767   0.928   0.520   2.193  0.7603  1.2596  0.1680
 5092TIP3    H236768   0.832   0.618   2.128 -0.3570  0.1220  0.0642
 5093TIP3   OH236769   6.344   4.915   5.112  0.0695  0.4037 -0.4768
 5093TIP3    H136770   6.267   4.971   5.119 -0.3097  0.0017 -1.2605
 5093TIP3    H236771   6.343   4.885   5.021  2.2928  2.0013 -1.1003
 5094TIP3   OH236772   5.515   0.714   5.081  0.0264  0.3203  0.6903
 5094TIP3    H136773   5.599   0.680   5.112 -0.0330 -0.3593  0.1247
 5094TIP3    H236774   5.481   0.765   5.155  0.8852  0.5205  0.9608
 5095TIP3   OH236775   6.796   5.187   3.064  0.3851 -0.0549  0.7347
 5095TIP3    H136776   6.764   5.261   3.116  1.4990 -0.0261  1.4076
 5095TIP3    H236777   6.847   5.228   2.994  0.8369 -0.1707  0.9933
 5096TIP3   OH236778   6.733   5.285  13.460  0.0809  0.5639  0.0619
 5096TIP3    H136779   6.698   5.292  13.371  0.9876  0.2847 -0.3196
 5096TIP3    H236780   6.826   5.301  13.451  0.7450 -2.3974  0.4868
 5097TIP3   OH236781   5.103   4.981  11.407 -0.3411  0.1964  0.1900
 5097TIP3    H136782   5.176   5.037  11.380 -0.1582  0.3185  0.9061
 5097TIP3    H236783   5.031   5.042  11.425 -0.5578  0.0923 -0.3186
 5098TIP3   OH236784   0.712   1.512   0.654  0.2711  0.4226  0.1828
 5098TIP3    H136785   0.677   1.516   0.565  0.4593  0.2185  0.0973
 5098TIP3    H236786   0.637   1.528   0.710 -0.4060 -1.9891  0.0700
 5099TIP3   OH236787   5.780   6.270   1.727 -0.0818  0.0088  0.2837
 5099TIP3    H136788   5.863   6.317   1.720 -0.1253  0.1462  0.6694
 5099TIP3    H236789   5.725   6.309   1.659 -0.7833  1.9132  1.8137
 5100TIP3   OH236790   3.831   3.595  15.361 -0.6605 -0.4068  0.5118
 5100TIP3    H136791   3.880   3.516  15.336 -1.9273 -1.0532 -0.0008
 5100TIP3    H236792   3.855   3.660  15.295 -1.9563 -1.3066 -0.8880
 5101TIP3   OH236793   4.829   0.803   6.038  0.4357 -0.1969 -0.0409
 5101TIP3    H136794   4.864   0.846   6.116  1.7876  0.6186 -1.0563
 5101TIP3    H236795   4.789   0.723   6.072  1.7864 -0.3188  1.4166
 5102TIP3   OH236796   1.532   5.519   2.603 -0.1988  0.1383 -0.2724
 5102TIP3    H136797   1.475   5.460   2.652 -2.5844  1.6723 -1.0139
 5102TIP3    H236798   1.495   5.606   2.618  1.9183  1.2187 -0.9187
 5103TIP3   OH236799   6.067   4.888   0.753 -0.3482  0.0219 -0.8709
 5103TIP3    H136800   5.973   4.893   0.735 -0.5927  2.9640  0.5980
 5103TIP3    H236801   6.105   4.960   0.704  0.9317 -0.1948 -0.2388
 5104TIP3   OH236802   1.898   1.859  12.506 -0.2959  0.8617  0.0290
 5104TIP3    H136803   1.876   1.941  12.549 -0.5980  0.6129  0.3492
 5104TIP3    H236804   1.823   1.802  12.522 -0.1015  0.5325 -0.2161
 5105TIP3   OH236805   0.733   1.399  11.992  0.0506 -0.1698 -0.1989
 5105TIP3    H136806   0.736   1.474  11.933  0.4568  0.7188  0.9132
 5105TIP3    H236807   0.824   1.374  12.005  0.1742  1.1070  1.8077
 5106TIP3   OH236808   5.937   0.595  12.806  0.1408 -0.8782 -0.0827
 5106TIP3    H136809   5.928   0.689  12.823 -0.7160 -0.3766 -2.8547
 5106TIP3    H236810   6.003   0.589  12.737 -0.5636 -2.2363 -0.6688
 5107TIP3   OH236811   5.663   6.588  11.698  0.4929 -0.6396 -0.1094
 5107TIP3    H136812   5.623   6.573  11.784  1.1222 -1.8011  0.0010
 5107TIP3    H236813   5.707   6.673  11.706  0.0805 -0.4785  0.5311
 5108TIP3   OH236814   0.355   2.080   0.323  0.2478 -0.4361 -0.0661
 5108TIP3    H136815   0.326   2.109   0.410 -0.6094 -0.4987 -0.3187
 5108TIP3    H236816   0.445   2.051   0.336 -0.4185 -2.0992  1.1745
 5109TIP3   OH236817   4.038   6.028  14.964  0.6599  0.1312  0.6869
 5109TIP3    H136818   4.021   6.119  14.989  0.8181  0.2240  0.4647
 5109TIP3    H236819   4.059   6.033  14.871  0.1864 -0.1960  0.5616
 5110TIP3   OH236820   3.156   3.543  13.701 -0.1514 -0.1385  0.4909
 5110TIP3    H136821   3.134   3.506  13.786  2.3426  0.2812  1.4032
 5110TIP3    H236822   3.242   3.582  13.714  0.5213 -0.4911 -2.3707
 5111TIP3   OH236823   2.713   4.654   2.628 -0.2685  0.1153  0.1832
 5111TIP3    H136824   2.803   4.656   2.595 -0.0730 -1.5173  0.5433
 5111TIP3    H236825   2.659   4.669   2.550  0.2546 -1.5869 -0.5415
 5112TIP3   OH236826   1.744   2.682  12.675 -0.2544  0.2840 -0.1444
 5112TIP3    H136827   1.819   2.635  12.638 -0.8767  0.3024 -1.5106
 5112TIP3    H236828   1.776   2.719  12.757  0.8724 -0.7176 -0.1085
 5113TIP3   OH236829   5.321   3.639  16.075  0.2317  0.9318  0.1463
 5113TIP3    H136830   5.413   3.646  16.053  0.5696  0.8126  1.4470
 5113TIP3    H236831   5.319   3.625  16.170 -1.1028  0.5300  0.0871
 5114TIP3   OH236832   0.861   0.404  12.644 -0.4905  0.0923  0.4096
 5114TIP3    H136833   0.925   0.451  12.697  0.8916  0.9796 -1.9106
 5114TIP3    H236834   0.808   0.473  12.603 -0.4226 -0.4836 -0.6779
 5115TIP3   OH236835   3.905   3.037   3.874 -0.1315 -0.2749 -0.0188
 5115TIP3    H136836   3.841   3.031   3.803  0.1239 -0.2698 -0.2482
 5115TIP3    H236837   3.912   2.947   3.907 -1.1614 -0.0686  0.8048
 5116TIP3   OH236838   3.077   5.955  13.281  0.1747  0.2101  0.1850
 5116TIP3    H136839   3.146   5.906  13.327  0.6816  0.4820 -0.2803
 5116TIP3    H236840   3.031   5.889  13.229 -0.4657 -0.1212  1.1279
 5117TIP3   OH236841   0.414   2.187  16.203 -0.1012 -0.0130 -0.1291
 5117TIP3    H136842   0.354   2.113  16.201 -1.9359  1.4200 -0.6914
 5117TIP3    H236843   0.425   2.207  16.296  0.9172 -1.3243  0.0672
 5118TIP3   OH236844   6.537   2.124   2.275 -0.3693 -0.2741  0.1841
 5118TIP3    H136845   6.531   2.040   2.230 -0.3670 -1.3680  2.0969
 5118TIP3    H236846   6.631   2.141   2.282 -0.3061 -0.9014  1.0964
 5119TIP3   OH236847   4.797   4.845  13.224  0.4553 -0.4868  0.4477
 5119TIP3    H136848   4.834   4.913  13.279 -0.0905 -0.2421  0.5149
 5119TIP3    H236849   4.837   4.860  13.138 -0.3239  0.4805  0.2305
 5120TIP3   OH236850   1.364   0.597  16.064 -0.0535  0.1721 -0.4327
 5120TIP3    H136851   1.445   0.548  16.051 -0.2826 -0.4004  0.2247
 5120TIP3    H236852   1.343   0.634  15.978  1.0388  0.5358 -0.5513
 5121TIP3   OH236853   2.826   0.980  12.944 -0.1755 -0.2998 -0.1783
 5121TIP3    H136854   2.914   0.967  12.980 -1.5122 -1.5371  2.9940
 5121TIP3    H236855   2.795   1.060  12.985 -0.7946 -0.2303 -0.7720
 5122TIP3   OH236856   5.519   3.779  13.252 -0.2575 -0.4419 -0.3443
 5122TIP3    H136857   5.438   3.814  13.288 -0.3975 -0.8779 -0.2310
 5122TIP3    H236858   5.576   3.767  13.328  0.0535  0.2312 -0.4702
 5123TIP3   OH236859   3.523   3.992   3.430 -0.0224  0.4941 -0.4302
 5123TIP3    H136860   3.465   3.932   3.477  0.0834  0.5982 -0.1642
 5123TIP3    H236861   3.507   4.078   3.471  0.5302  0.4722 -0.1556
 5124TIP3   OH236862   4.239   3.133  15.790  0.5093  0.2122  0.6220
 5124TIP3    H136863   4.314   3.124  15.731 -0.0333 -0.3163 -0.0091
 5124TIP3    H236864   4.217   3.043  15.814 -1.0942  0.1944 -0.7322
 5125TIP3   OH236865   2.695   4.221   4.502  0.4521 -0.5217 -0.1528
 5125TIP3    H136866   2.655   4.135   4.487 -0.0063 -0.3450  0.0173
 5125TIP3    H236867   2.732   4.215   4.590 -0.1771 -0.3334  0.1372
 5126TIP3   OH236868   2.717   3.904  12.769 -0.1807  0.3411  0.2699
 5126TIP3    H136869   2.625   3.930  12.765 -0.1190  0.4018 -1.4421
 5126TIP3    H236870   2.716   3.823  12.820 -0.9006  1.3601  1.9627
 5127TIP3   OH236871   2.905   2.858   4.389  0.7219 -0.2563 -0.0168
 5127TIP3    H136872   2.993   2.866   4.353  0.8035  1.2651  0.4532
 5127TIP3    H236873   2.880   2.947   4.412 -0.7422 -0.7285  0.3536
 5128TIP3   OH236874   6.096   1.475   0.021  0.1027 -0.3093  0.2854
 5128TIP3    H136875   6.094   1.382  -0.003 -0.6648 -0.2222 -0.0226
 5128TIP3    H236876   6.140   1.517  -0.052  0.1398 -0.3850  0.2635
 5129TIP3   OH236877   5.463   0.859  12.717 -0.2335 -0.4332  0.4988
 5129TIP3    H136878   5.420   0.859  12.803  0.3843  1.2485  0.8357
 5129TIP3    H236879   5.534   0.795  12.726 -0.4329 -0.5745  1.1054
 5130TIP3   OH236880   1.949   4.494  11.360 -0.3798  0.6598 -0.1749
 5130TIP3    H136881   1.948   4.429  11.290 -1.2807 -0.2774  0.6591
 5130TIP3    H236882   1.858   4.497  11.390  0.0725  0.6998  1.2445
 5131TIP3   OH236883   1.587   4.008   0.968 -0.5804  0.3390 -0.0451
 5131TIP3    H136884   1.520   3.978   1.029 -1.3952  1.7076 -0.2219
 5131TIP3    H236885   1.548   3.997   0.881  0.2487 -0.8085 -0.2936
 5132TIP3   OH236886   6.316   1.410   0.991  0.2764  0.6355 -0.3672
 5132TIP3    H136887   6.345   1.501   0.983  0.6074  0.4912 -0.8375
 5132TIP3    H236888   6.229   1.409   0.952  0.2122  0.7770 -0.2309
 5133TIP3   OH236889   6.517   2.926  15.868 -0.1058 -0.3234  0.2828
 5133TIP3    H136890   6.575   2.920  15.943 -0.6097 -0.5541  0.6611
 5133TIP3    H236891   6.524   2.840  15.826  0.7176  0.0403 -0.3513
 5134TIP3   OH236892   2.227   3.739  10.872 -1.1407  0.1138 -0.5440
 5134TIP3    H136893   2.217   3.654  10.915 -2.0666  0.8572  0.7634
 5134TIP3    H236894   2.151   3.747  10.816 -1.3640  0.3240 -0.2160
 5135TIP3   OH236895   6.048   0.195   3.296 -0.4002 -0.1343 -0.1511
 5135TIP3    H136896   5.996   0.273   3.311  0.2957  0.0029  1.9228
 5135TIP3    H236897   6.128   0.209   3.348 -0.1747 -2.1153  0.1389
 5136TIP3   OH236898   5.114   5.160  16.078  0.1244  0.2874 -0.6330
 5136TIP3    H136899   5.030   5.164  16.122 -0.1825 -0.7511 -1.1006
 5136TIP3    H236900   5.135   5.067  16.073  1.1823  0.5168 -0.7478
 5137TIP3   OH236901   2.488   2.854  13.082  0.2022 -0.4703  0.1828
 5137TIP3    H136902   2.506   2.824  13.172  1.8917 -4.0906 -1.1760
 5137TIP3    H236903   2.406   2.811  13.058  0.2020 -0.2087 -0.2983
 5138TIP3   OH236904   5.697   0.470   3.608 -0.3891  0.5893 -0.0357
 5138TIP3    H136905   5.725   0.560   3.590 -0.6935  0.8653  0.8027
 5138TIP3    H236906   5.774   0.416   3.588  0.3315  1.2021  0.9813
 5139TIP3   OH236907   5.107   0.482  12.230 -0.0323 -0.7240  0.2474
 5139TIP3    H136908   5.152   0.495  12.314  1.5975 -1.7910 -0.4105
 5139TIP3    H236909   5.015   0.502  12.249  0.6292  1.2657  1.7328
 5140TIP3   OH236910   5.915   1.272  16.784 -0.4651  0.3330  0.3979
 5140TIP3    H136911   5.947   1.224  16.708  0.0614 -1.8896  1.9465
 5140TIP3    H236912   5.819   1.265  16.778 -0.4279  0.1898 -0.0679
 5141TIP3   OH236913   4.746   2.865   5.452  0.3447 -0.0294  0.4456
 5141TIP3    H136914   4.824   2.919   5.458 -0.5833  1.1722  3.2843
 5141TIP3    H236915   4.779   2.775   5.450  1.8345  0.4758 -2.1483
 5142TIP3   OH236916   2.926   5.898   3.160  0.1280  0.3996  0.0143
 5142TIP3    H136917   2.868   5.970   3.186  0.4969  0.5860  0.3416
 5142TIP3    H236918   2.870   5.821   3.161  0.1083  0.4085  1.3277
 5143TIP3   OH236919   0.057   5.440   0.583 -0.0170 -0.4781  0.0323
 5143TIP3    H136920   0.011   5.479   0.508 -1.1672  0.8461  1.3521
 5143TIP3    H236921   0.002   5.366   0.609 -0.8104  0.3647  0.8515
 5144TIP3   OH236922   4.937   4.004   5.135 -0.5486 -0.7181 -0.2600
 5144TIP3    H136923   4.936   3.950   5.214 -2.2064  0.4252  0.5634
 5144TIP3    H236924   4.946   4.093   5.167 -1.0124 -0.2540 -1.3724
 5145TIP3   OH236925   6.168   5.037  10.691  0.0908  0.2985  0.3096
 5145TIP3    H136926   6.164   4.941  10.689  0.4162  0.2893 -1.9973
 5145TIP3    H236927   6.261   5.057  10.690  0.0135  0.6600  0.2472
 5146TIP3   OH236928   4.275   3.193   2.329 -0.2082 -0.1607 -0.0511
 5146TIP3    H136929   4.191   3.162   2.296 -0.1304 -0.1683 -0.2396
 5146TIP3    H236930   4.255   3.276   2.371 -0.2388  0.0389 -0.4590
 5147TIP3   OH236931   4.271   6.650   1.563  0.0206  0.1025  0.0262
 5147TIP3    H136932   4.309   6.576   1.515 -0.4640 -0.5699  0.6646
 5147TIP3    H236933   4.227   6.701   1.495 -0.7441 -0.8954 -0.2525
 5148TIP3   OH236934   5.033   5.458  16.399  0.1622 -0.8869  0.2899
 5148TIP3    H136935   4.938   5.453  16.395  0.0621  0.1034  1.0839
 5148TIP3    H236936   5.057   5.414  16.480  0.2262  0.3332  0.9593
 5149TIP3   OH236937   6.707   2.647   4.379  0.1670 -0.4034  0.1060
 5149TIP3    H136938   6.672   2.716   4.322  0.1314 -0.5304 -0.0271
 5149TIP3    H236939   6.736   2.578   4.319  2.6532  0.5921  0.0762
 5150TIP3   OH236940   4.440   1.365   3.175 -0.0084  0.0625 -0.2632
 5150TIP3    H136941   4.385   1.385   3.100 -0.4130  3.1855  0.7434
 5150TIP3    H236942   4.482   1.448   3.198  2.8365 -1.5280  0.8777
 5151TIP3   OH236943   3.755   0.093   1.919 -0.3308 -0.1238  0.4578
 5151TIP3    H136944   3.828   0.033   1.905 -1.4960 -1.3015 -0.9396
 5151TIP3    H236945   3.748   0.142   1.837  0.1637  1.4708  1.3331
 5152TIP3   OH236946   0.730   1.762  16.625  0.1738  0.1540 -0.8145
 5152TIP3    H136947   0.650   1.779  16.675  0.6418 -0.0969  0.0539
 5152TIP3    H236948   0.705   1.696  16.561 -0.0937 -0.6571  0.1021
 5153TIP3   OH236949   0.955   2.390   2.604  0.3126 -0.2395 -0.3693
 5153TIP3    H136950   1.049   2.407   2.595  0.4513 -1.4062 -1.5199
 5153TIP3    H236951   0.913   2.468   2.566  0.8822 -0.7972 -2.2975
 5154TIP3   OH236952   0.210   2.560  16.636  0.2410 -0.3534 -0.7406
 5154TIP3    H136953   0.208   2.587  16.728  0.0226 -1.1830 -0.4857
 5154TIP3    H236954   0.154   2.622  16.591  2.0002  1.3533 -0.6912
 5155TIP3   OH236955   5.681   4.074  15.616  0.2534 -0.7688  0.1953
 5155TIP3    H136956   5.680   4.134  15.542 -1.8005 -1.4723 -0.4050
 5155TIP3    H236957   5.738   4.116  15.680 -2.4825  2.7777  0.5747
 5156TIP3   OH236958   4.126   6.229  16.544 -0.1038  0.4252  0.3372
 5156TIP3    H136959   4.170   6.264  16.621  1.0226 -0.8075  0.2925
 5156TIP3    H236960   4.143   6.293  16.475  0.8409  0.4310  0.5610
 5157TIP3   OH236961   1.067   1.032  11.776 -0.5397 -0.3137 -0.0194
 5157TIP3    H136962   1.062   1.110  11.831 -2.0569  0.6654 -1.4260
 5157TIP3    H236963   1.125   0.972  11.823  0.0460  1.3534  1.4786
 5158TIP3   OH236964   2.724   1.508   0.051 -0.1671 -0.2172 -0.4940
 5158TIP3    H136965   2.814   1.530   0.026  0.3343  1.5022  2.4278
 5158TIP3    H236966   2.733   1.433   0.110 -0.3218  1.4678  1.7672
 5159TIP3   OH236967   6.423   3.478  16.882 -0.1359  0.2292  0.0486
 5159TIP3    H136968   6.470   3.531  16.818 -0.1575  0.0660 -0.1011
 5159TIP3    H236969   6.332   3.480  16.853 -0.1147 -0.0041 -0.0363
 5160TIP3   OH236970   0.504   3.258   3.755 -0.5785 -0.1623  0.3034
 5160TIP3    H136971   0.414   3.264   3.722 -0.5593  1.5155  0.4620
 5160TIP3    H236972   0.557   3.301   3.688  0.3594 -2.3918 -0.4890
 5161TIP3   OH236973   4.253   5.464  15.894 -0.3616  0.2792 -0.5683
 5161TIP3    H136974   4.280   5.539  15.947  2.3961 -1.4281  0.6573
 5161TIP3    H236975   4.286   5.483  15.806 -0.8831  1.0452 -0.6132
 5162TIP3   OH236976   1.759   3.594   4.675 -0.0251 -0.4428 -0.0542
 5162TIP3    H136977   1.757   3.534   4.749 -0.1126 -0.7507 -0.3040
 5162TIP3    H236978   1.816   3.552   4.610  0.8912  0.3141  0.2457
 5163TIP3   OH236979   6.025   2.047   1.318  0.4678 -0.1425 -0.0692
 5163TIP3    H136980   6.034   2.035   1.412 -1.0022 -3.6265 -0.2111
 5163TIP3    H236981   5.971   2.125   1.308  0.0419 -0.1408  1.9826
 5164TIP3   OH236982   1.814   0.921   5.558 -0.0593  0.0933  0.1895
 5164TIP3    H136983   1.727   0.882   5.567  0.3289 -0.8326  0.0509
 5164TIP3    H236984   1.867   0.877   5.624  1.1300 -1.8339 -1.8945
 5165TIP3   OH236985   5.401   1.634  15.533 -0.2052 -0.4233  0.1501
 5165TIP3    H136986   5.381   1.545  15.562 -0.6601  0.2506  2.0621
 5165TIP3    H236987   5.476   1.660  15.586 -1.2363  0.9716  1.0023
 5166TIP3   OH236988   5.576   4.994  15.334  0.8051 -0.3278  0.4000
 5166TIP3    H136989   5.637   4.920  15.337  0.2326 -0.7673  1.6217
 5166TIP3    H236990   5.492   4.958  15.362  0.1158  0.4193 -0.6347
 5167TIP3   OH236991   1.946   0.748   5.122  0.3214  0.5558  0.2866
 5167TIP3    H136992   1.961   0.655   5.138  0.0609  0.4022 -0.3321
 5167TIP3    H236993   1.853   0.753   5.100  0.7399  0.6870 -1.6002
 5168TIP3   OH236994   1.011   5.094   0.195 -0.1804 -0.1835  0.0969
 5168TIP3    H136995   1.106   5.101   0.192 -0.1855  0.5867  1.2784
 5168TIP3    H236996   0.986   5.129   0.280 -1.4615 -1.1813  0.1723
 5169TIP3   OH236997   2.881   0.885   2.478  0.0076 -0.3378 -0.6000
 5169TIP3    H136998   2.890   0.978   2.455  0.9927 -0.5579 -1.1376
 5169TIP3    H236999   2.960   0.866   2.530 -1.6810 -0.0836  2.2865
 5170TIP3   OH237000   6.022   1.554  15.585  0.0091  0.9724  0.1557
 5170TIP3    H137001   5.955   1.590  15.526 -0.4142 -0.2119 -0.1211
 5170TIP3    H237002   6.105   1.577  15.544 -0.2807  0.3290 -0.8427
 5171TIP3   OH237003   6.395   5.718   0.575 -0.4953 -0.2117 -0.6921
 5171TIP3    H137004   6.424   5.638   0.532 -1.0233 -1.1121  0.5441
 5171TIP3    H237005   6.301   5.721   0.557 -0.8642 -0.9719  0.8691
 5172TIP3   OH237006   6.045   4.830  16.647  0.0197  0.3198  0.0766
 5172TIP3    H137007   5.993   4.802  16.571  0.8700 -1.6057  0.1568
 5172TIP3    H237008   6.091   4.751  16.675  0.7249  1.3031  1.8201
 5173TIP3   OH237009   3.611   6.530   2.852  0.1222 -0.1505 -0.3317
 5173TIP3    H137010   3.607   6.540   2.757 -0.7382 -1.8373 -0.5178
 5173TIP3    H237011   3.546   6.592   2.886 -1.7749 -1.6300 -1.0845
 5174TIP3   OH237012   3.992   3.332   1.534 -0.0090 -0.2254 -0.2501
 5174TIP3    H137013   4.036   3.252   1.560  0.5745 -0.0536 -0.6758
 5174TIP3    H237014   3.991   3.329   1.438 -0.6332 -0.0688 -0.2530
 5175TIP3   OH237015   3.606   6.580  14.657 -0.3587 -0.1935 -0.5245
 5175TIP3    H137016   3.518   6.548  14.636 -1.0136  0.5886  0.8711
 5175TIP3    H237017   3.664   6.506  14.636 -1.3781 -0.8612 -1.0837
 5176TIP3   OH237018   5.064   3.350   5.953  0.3776 -0.1634  0.1419
 5176TIP3    H137019   5.032   3.260   5.940 -0.9192  0.3793 -0.6004
 5176TIP3    H237020   5.125   3.343   6.026 -0.6956 -1.4484  0.9730
 5177TIP3   OH237021   2.633   0.926   4.336  0.5445 -0.0360 -0.1747
 5177TIP3    H137022   2.611   0.930   4.243  1.3450  1.4843 -0.3322
 5177TIP3    H237023   2.686   0.846   4.344 -0.5477 -0.8406 -0.7729
 5178TIP3   OH237024   2.287   2.412  11.656  0.3069  0.0698  0.3887
 5178TIP3    H137025   2.320   2.373  11.737  1.7234  0.3906  0.0062
 5178TIP3    H237026   2.313   2.504  11.662  0.4089  0.0985 -0.4150
 5179TIP3   OH237027   4.861   2.241   6.176 -0.0643  0.1884  0.3731
 5179TIP3    H137028   4.796   2.189   6.223 -0.3794 -1.1929 -1.4923
 5179TIP3    H237029   4.817   2.325   6.161 -0.1427  0.4761  2.0269
 5180TIP3   OH237030   2.948   6.722   2.921  0.3093  0.5502 -0.2440
 5180TIP3    H137031   2.986   6.637   2.946  2.8858  1.1652 -1.7486
 5180TIP3    H237032   2.899   6.703   2.841 -1.8294 -0.0387  1.1210
 5181TIP3   OH237033   1.079   2.696  15.005 -0.4696  0.0530 -0.4780
 5181TIP3    H137034   1.037   2.759  14.945 -0.5212  0.4145 -0.0667
 5181TIP3    H237035   1.164   2.679  14.965  0.2956  1.7643  0.2876
 5182TIP3   OH237036   4.294   1.906   3.303 -0.0403 -0.2657  0.4234
 5182TIP3    H137037   4.325   1.832   3.356  1.6464  1.7199  2.4094
 5182TIP3    H237038   4.242   1.866   3.234  1.4322 -3.3696  0.9419
 5183TIP3   OH237039   2.171   1.547   3.304 -0.7630 -0.1641  0.1737
 5183TIP3    H137040   2.223   1.492   3.363  0.0409 -0.0451 -0.4055
 5183TIP3    H237041   2.189   1.512   3.217  0.6143  1.6535 -0.3258
 5184TIP3   OH237042   3.319   6.006   2.312  0.4940  0.0458  0.0108
 5184TIP3    H137043   3.402   6.038   2.347  0.3327  1.7538 -1.0449
 5184TIP3    H237044   3.253   6.048   2.366  0.3068  0.5156 -0.5631
 5185TIP3   OH237045   2.837   5.073   4.016  0.2002 -0.4661  0.4507
 5185TIP3    H137046   2.823   5.168   4.015 -0.2930 -0.5404  0.2396
 5185TIP3    H237047   2.757   5.037   4.052 -1.0290 -1.0295 -2.5663
 5186TIP3   OH237048   3.913   3.158  13.868 -0.2703  0.1401 -0.3488
 5186TIP3    H137049   3.872   3.172  13.954 -1.8024 -1.0897 -0.8317
 5186TIP3    H237050   3.936   3.246  13.838  0.8883  0.5448  1.5689
 5187TIP3   OH237051   0.255   2.529   1.051 -0.5706 -0.1894  0.2167
 5187TIP3    H137052   0.291   2.446   1.021 -1.5121 -2.0408  3.6332
 5187TIP3    H237053   0.165   2.509   1.075  0.0443  0.8763  4.0736
 5188TIP3   OH237054   6.219   6.322  11.942  0.3519  0.2283  0.1215
 5188TIP3    H137055   6.141   6.268  11.928  1.9679 -2.3113  0.3192
 5188TIP3    H237056   6.288   6.279  11.891  1.6304  2.5458 -0.2727
 5189TIP3   OH237057   5.297   5.388   0.676 -0.1842 -0.1386  0.7335
 5189TIP3    H137058   5.309   5.337   0.756  1.0087 -0.5256  0.3315
 5189TIP3    H237059   5.383   5.426   0.659  1.1324 -3.9407 -2.9812
 5190TIP3   OH237060   6.657   4.506   4.519  0.1268  0.0307 -0.0915
 5190TIP3    H137061   6.723   4.438   4.532  0.0745  0.1772  1.0544
 5190TIP3    H237062   6.708   4.588   4.515 -0.0512  0.3552  2.6341
 5191TIP3   OH237063   5.848   6.017   4.917 -0.0598  0.5808  0.0281
 5191TIP3    H137064   5.861   6.069   4.838 -0.1477  0.6819  0.0792
 5191TIP3    H237065   5.902   6.060   4.984 -1.8811  1.9920  0.6751
 5192TIP3   OH237066   1.264   6.346  11.740  0.1828  0.0529  0.0212
 5192TIP3    H137067   1.252   6.253  11.759  1.9390 -0.1578  0.2164
 5192TIP3    H237068   1.177   6.384  11.752 -1.3481 -2.0343 -3.0112
 5193TIP3   OH237069   2.585   2.196   3.713  0.3238  0.5962  0.0995
 5193TIP3    H137070   2.534   2.277   3.719  0.1429  0.5823 -1.1492
 5193TIP3    H237071   2.525   2.132   3.676  1.6264  0.9909 -2.9868
 5194TIP3   OH237072   4.865   5.035  14.973  0.4604  0.0511 -0.1897
 5194TIP3    H137073   4.885   5.060  15.063  2.5123 -3.0050  0.3645
 5194TIP3    H237074   4.800   5.099  14.944 -0.7322  0.8235  3.6097
 5195TIP3   OH237075   6.705   5.320  13.196  0.4188  0.3631  0.2433
 5195TIP3    H137076   6.733   5.411  13.209  3.4222 -0.5560  1.1083
 5195TIP3    H237077   6.689   5.313  13.102  1.5593  1.4707 -0.0659
 5196TIP3   OH237078   1.109   4.238   4.125  0.0740 -0.6319 -0.4816
 5196TIP3    H137079   1.031   4.259   4.176  0.2345 -0.1687 -0.4269
 5196TIP3    H237080   1.182   4.262   4.182  0.2572 -0.5519 -0.7502
 5197TIP3   OH237081   1.747   1.022   2.220 -0.1381 -0.6669  0.1350
 5197TIP3    H137082   1.810   1.046   2.288  1.4442 -1.2384 -1.0713
 5197TIP3    H237083   1.746   1.098   2.162 -0.7998 -0.5486  0.2904
 5198TIP3   OH237084   4.387   4.647  13.524  0.0976  0.7904 -0.3928
 5198TIP3    H137085   4.370   4.565  13.569 -0.0475  1.2716  0.4576
 5198TIP3    H237086   4.479   4.667  13.545  1.4210 -1.0287 -3.7116
 5199TIP3   OH237087   0.800   0.217  16.746 -0.0817 -0.1408 -0.4876
 5199TIP3    H137088   0.825   0.140  16.694 -1.6373 -0.6809 -0.4610
 5199TIP3    H237089   0.828   0.292  16.693 -0.0264 -0.7099 -1.2697
 5200TIP3   OH237090   6.675   0.212  16.764 -0.2843  0.3531 -0.4854
 5200TIP3    H137091   6.592   0.248  16.795 -0.4147 -1.0868  0.9944
 5200TIP3    H237092   6.657   0.184  16.674 -1.6976 -0.7157  0.0850
 5201TIP3   OH237093   6.709   4.613   6.432  0.2899 -0.1820 -0.2009
 5201TIP3    H137094   6.659   4.637   6.354  0.5143 -0.9516 -0.5882
 5201TIP3    H237095   6.642   4.592   6.497  0.0915  1.1607  0.0518
 5202TIP3   OH237096   5.275   4.812  15.896  0.1089  0.2778  0.3862
 5202TIP3    H137097   5.213   4.817  15.823  0.9047  1.4815 -0.2424
 5202TIP3    H237098   5.339   4.881  15.878  0.7523  0.0979  1.8388
 5203TIP3   OH237099   3.456   6.178  15.686  0.5572 -0.1784  0.4477
 5203TIP3    H137100   3.491   6.246  15.628  1.1064 -0.8802 -0.0619
 5203TIP3    H237101   3.434   6.105  15.627 -0.2467 -0.3663  0.9560
 5204TIP3   OH237102   1.759   1.981  12.088  0.0793  0.7315 -0.0774
 5204TIP3    H137103   1.764   2.058  12.031 -0.7312  0.2952 -0.7600
 5204TIP3    H237104   1.668   1.953  12.084  0.4533 -0.5638 -0.2506
 5205TIP3   OH237105   3.262   4.474   3.321 -0.5581 -0.0962  0.0832
 5205TIP3    H137106   3.239   4.384   3.300  0.2511 -0.2249 -0.3033
 5205TIP3    H237107   3.357   4.474   3.325 -0.4908  0.9390 -0.8868
 5206TIP3   OH237108   2.362   4.224  16.709 -0.4438  0.0077 -0.3648
 5206TIP3    H137109   2.288   4.199  16.655 -0.5258 -0.3991 -0.0706
 5206TIP3    H237110   2.435   4.233  16.648 -0.9669  1.4514 -0.8023
 5207TIP3   OH237111   5.237   2.297  13.155 -0.0213  0.2626 -0.0659
 5207TIP3    H137112   5.223   2.379  13.107 -0.2571  0.8869  1.0476
 5207TIP3    H237113   5.156   2.282  13.202 -0.1962 -0.9422 -0.7188
 5208TIP3   OH237114   1.524   4.526   0.777  0.2435 -0.0726  0.1711
 5208TIP3    H137115   1.531   4.453   0.716  1.7884  0.5168 -0.4188
 5208TIP3    H237116   1.550   4.489   0.861  0.3171 -0.3782  0.0170
 5209TIP3   OH237117   4.843   3.860   2.386 -1.2712 -0.0762  0.6615
 5209TIP3    H137118   4.861   3.901   2.470 -1.1685  2.7973 -0.6274
 5209TIP3    H237119   4.861   3.929   2.321 -1.9840 -1.9329 -1.6769
 5210TIP3   OH237120   2.672   1.521   0.517 -0.4902  0.0994 -0.0678
 5210TIP3    H137121   2.660   1.484   0.604  0.8183 -0.4249 -0.0809
 5210TIP3    H237122   2.609   1.475   0.462  0.5329 -1.5757  0.0798
 5211TIP3   OH237123   4.332   2.296   4.623 -0.2965  0.0054  0.0432
 5211TIP3    H137124   4.387   2.340   4.558 -0.2486 -0.4004 -0.1935
 5211TIP3    H237125   4.339   2.203   4.601 -1.8754  0.0112 -0.6277
 5212TIP3   OH237126   5.707   2.329   5.104 -0.4224  0.5441  0.0485
 5212TIP3    H137127   5.781   2.372   5.061 -1.6828  1.7388 -1.0534
 5212TIP3    H237128   5.708   2.363   5.193  0.2694  0.6585  0.0010
 5213TIP3   OH237129   3.200   0.771   2.212 -0.1848  0.2192 -0.3508
 5213TIP3    H137130   3.121   0.746   2.258 -0.7766  1.0566 -0.8802
 5213TIP3    H237131   3.261   0.699   2.227 -1.4438 -1.0120 -0.9156
 5214TIP3   OH237132   3.751   0.142   4.152  0.2392 -0.5701 -0.6165
 5214TIP3    H137133   3.778   0.167   4.240  0.8636  1.0991 -1.2388
 5214TIP3    H237134   3.655   0.146   4.154  0.2590 -0.2172 -0.0947
 5215TIP3   OH237135   6.685   0.829   1.934  0.7017 -0.3813  0.6744
 5215TIP3    H137136   6.672   0.914   1.892  2.3819 -0.3342  0.1739
 5215TIP3    H237137   6.730   0.850   2.016  1.7045 -0.8136  0.2522
 5216TIP3   OH237138   0.677   1.490  14.302 -0.1003  0.3380 -0.6520
 5216TIP3    H137139   0.763   1.460  14.273 -0.1876  0.5762 -1.1685
 5216TIP3    H237140   0.637   1.527  14.223 -0.8313 -0.1352 -0.5116
 5217TIP3   OH237141   0.820   5.896   0.408  0.6262  0.2250  0.0572
 5217TIP3    H137142   0.869   5.818   0.433  2.0092  0.4461 -1.7607
 5217TIP3    H237143   0.752   5.864   0.350 -1.5455 -0.0837  2.6006
 5218TIP3   OH237144   3.815   4.463  12.298 -0.4113  0.5198 -0.3491
 5218TIP3    H137145   3.889   4.523  12.284 -0.7628  0.8244 -0.9586
 5218TIP3    H237146   3.851   4.393  12.353  0.1490  1.0149 -0.0753
 5219TIP3   OH237147   3.943   2.092   3.093  0.0986 -0.6590  0.2498
 5219TIP3    H137148   3.968   2.016   3.041  0.7896  0.8710 -1.7585
 5219TIP3    H237149   3.895   2.148   3.032 -0.6776  0.3897  1.7638
 5220TIP3   OH237150   6.163   1.016  13.194 -0.1463  0.5967  0.0140
 5220TIP3    H137151   6.120   1.035  13.277  1.0053  0.5407  0.6361
 5220TIP3    H237152   6.256   1.009  13.215  0.0927 -0.1323 -1.1593
 5221TIP3   OH237153   3.153   0.751  12.765  0.1651 -1.0869  0.8004
 5221TIP3    H137154   3.224   0.735  12.703 -0.2600  0.7985 -0.2308
 5221TIP3    H237155   3.187   0.818  12.824 -1.0901  0.7356 -0.4405
 5222TIP3   OH237156   1.980   4.793  11.604 -0.5396 -0.1520 -0.1059
 5222TIP3    H137157   1.934   4.796  11.520 -0.7525 -0.5955 -0.0073
 5222TIP3    H237158   2.000   4.884  11.623  1.2205 -0.1592 -1.5781
 5223TIP3   OH237159   0.202   3.090   0.973 -0.0925 -0.1109  0.1574
 5223TIP3    H137160   0.148   3.148   0.920  0.8098 -0.0475 -0.7151
 5223TIP3    H237161   0.288   3.131   0.973  0.4150 -1.1649  0.0006
 5224TIP3   OH237162   2.599   0.034   1.677 -0.3327 -0.4709  0.5072
 5224TIP3    H137163   2.657  -0.035   1.644 -0.2739 -0.5012  0.6720
 5224TIP3    H237164   2.582   0.009   1.768 -0.9093 -0.6680  0.3528
 5225TIP3   OH237165   5.850   3.817  11.107 -0.4633 -0.8746  0.3180
 5225TIP3    H137166   5.840   3.863  11.023  1.2371  0.3702  0.7329
 5225TIP3    H237167   5.877   3.729  11.083  1.8245 -0.0299 -0.4916
 5226TIP3   OH237168   0.089   6.509  13.403 -0.3350  0.2833 -0.4601
 5226TIP3    H137169   0.099   6.543  13.314 -1.0784 -0.8405 -0.9890
 5226TIP3    H237170   0.110   6.416  13.396 -1.7439 -0.1204  0.2458
 5227TIP3   OH237171   1.804   3.087  10.423 -0.2883  0.1269 -0.1983
 5227TIP3    H137172   1.826   3.166  10.373 -1.0792 -1.0610 -2.6101
 5227TIP3    H237173   1.709   3.091  10.434 -0.1814  0.1195  0.8412
 5228TIP3   OH237174   6.784   0.269  11.593  0.1194  0.2285  0.1615
 5228TIP3    H137175   6.712   0.255  11.654 -0.6221  0.2002 -0.6885
 5228TIP3    H237176   6.746   0.252  11.507  0.9708  0.8749 -0.3621
 5229TIP3   OH237177   2.257   4.670  12.276  0.5875  0.4805 -0.1611
 5229TIP3    H137178   2.194   4.727  12.233  0.6316  0.2648 -0.5150
 5229TIP3    H237179   2.204   4.610  12.328  0.5264  0.6149 -0.0668
 5230TIP3   OH237180   6.650   3.489  15.503  0.1500  0.4797 -0.1798
 5230TIP3    H137181   6.691   3.565  15.544  1.0848 -0.5699  0.9237
 5230TIP3    H237182   6.559   3.493  15.532 -0.3317  2.2642 -1.7976
 5231TIP3   OH237183   6.716   2.033  16.314 -0.0555 -0.1004  0.7204
 5231TIP3    H137184   6.661   1.959  16.339 -3.0888  1.9254  0.5320
 5231TIP3    H237185   6.685   2.105  16.368  1.2085  1.6050 -0.7290
 5232TIP3   OH237186   6.045   0.186  15.675 -0.0193 -0.3115 -0.1257
 5232TIP3    H137187   6.043   0.132  15.596 -1.2169 -0.4562 -0.0187
 5232TIP3    H237188   5.971   0.155  15.727  0.3491  0.2374  0.7553
 5233TIP3   OH237189   1.432   3.789  10.471  0.0423  0.3937  0.3829
 5233TIP3    H137190   1.407   3.713  10.417  0.4012  0.0763  0.6565
 5233TIP3    H237191   1.415   3.761  10.561 -2.7616  1.7345  0.3741
 5234TIP3   OH237192   2.111   3.981   4.098 -0.4162  0.4411 -0.2233
 5234TIP3    H137193   2.093   3.968   4.191 -0.3340  0.7796 -0.1595
 5234TIP3    H237194   2.065   3.909   4.054  1.6647 -1.2891  0.2608
 5235TIP3   OH237195   5.017   2.768   4.017 -0.0987  0.2523 -0.1740
 5235TIP3    H137196   5.029   2.832   4.087 -1.9610  0.4642 -0.0084
 5235TIP3    H237197   5.017   2.820   3.936 -4.1576  0.9501  0.0976
 5236TIP3   OH237198   0.166   4.196  16.607  0.3572 -0.0963 -0.2386
 5236TIP3    H137199   0.120   4.230  16.531  1.0374  0.4600 -0.4181
 5236TIP3    H237200   0.247   4.247  16.610  0.0338  0.3926  1.2631
 5237TIP3   OH237201   5.528   5.411  12.192  0.3369  0.3372 -0.3882
 5237TIP3    H137202   5.510   5.438  12.101  1.2175  2.4764  0.0023
 5237TIP3    H237203   5.465   5.341  12.209  0.8847 -0.9168 -2.9871
 5238TIP3   OH237204   0.908   5.556   5.499 -0.0895  0.3121 -0.3858
 5238TIP3    H137205   0.863   5.511   5.571  1.4481  0.6442  0.8445
 5238TIP3    H237206   0.940   5.638   5.538  1.2695  0.2396 -1.2825
 5239TIP3   OH237207   4.788   3.640   1.437 -0.0341 -0.6177  0.1006
 5239TIP3    H137208   4.804   3.732   1.458 -2.4924 -0.5215  1.8688
 5239TIP3    H237209   4.778   3.639   1.341  2.2626  0.4924 -0.2354
 5240TIP3   OH237210   4.414   0.988   4.113 -0.1250  0.2868 -0.1091
 5240TIP3    H137211   4.348   0.933   4.156  0.9703 -0.3913  0.7352
 5240TIP3    H237212   4.406   1.073   4.157  0.7487 -0.2998  1.2498
 5241TIP3   OH237213   5.267   2.338   6.139  0.4522  0.1196  0.3201
 5241TIP3    H137214   5.360   2.344   6.162  0.6773 -3.0330  0.6419
 5241TIP3    H237215   5.222   2.322   6.222 -0.2765  0.7680  0.0589
 5242TIP3   OH237216   2.836   1.152  12.075 -0.6076  0.1575  0.1359
 5242TIP3    H137217   2.770   1.175  12.141 -0.4265 -0.7816  0.6775
 5242TIP3    H237218   2.785   1.138  11.995 -0.7458  2.0331 -0.1283
 5243TIP3   OH237219   2.957   1.805   2.278 -0.5645 -0.4515  0.2176
 5243TIP3    H137220   3.002   1.848   2.205  0.5000 -0.2335  0.9744
 5243TIP3    H237221   2.900   1.741   2.236 -0.8733  0.4931 -0.8558
 5244TIP3   OH237222   3.538   0.838   1.282 -0.4129  0.1636  0.1589
 5244TIP3    H137223   3.574   0.756   1.315 -0.0171 -0.4717 -1.7378
 5244TIP3    H237224   3.542   0.829   1.187 -1.0575  2.0897 -0.0826
 5245TIP3   OH237225   4.565   3.636   5.648 -0.3035 -0.1481 -0.4341
 5245TIP3    H137226   4.547   3.567   5.712 -3.2905  0.6440 -0.2681
 5245TIP3    H237227   4.651   3.668   5.671 -0.5452 -1.1007  2.0632
 5246TIP3   OH237228   6.272   1.491   3.643 -0.7200  0.1654 -0.2027
 5246TIP3    H137229   6.327   1.533   3.710 -0.7952  1.3789 -0.8708
 5246TIP3    H237230   6.189   1.475   3.687 -0.4407  0.0377  0.2816
 5247TIP3   OH237231   0.867   0.238   6.485 -0.1539 -0.1915 -0.2965
 5247TIP3    H137232   0.924   0.189   6.544 -1.7516 -0.2834  1.2748
 5247TIP3    H237233   0.792   0.181   6.471 -0.9885  0.8619 -0.2878
 5248TIP3   OH237234   0.832   0.039  13.355  0.4588  0.2462  0.5295
 5248TIP3    H137235   0.868  -0.030  13.411  0.5762 -0.2507 -0.1457
 5248TIP3    H237236   0.738   0.022  13.353  0.5801 -0.4164 -0.3053
 5249TIP3   OH237237   4.039   2.449   4.365 -0.0424  0.0293  0.3599
 5249TIP3    H137238   4.037   2.460   4.460  3.4610  2.1579  0.3431
 5249TIP3    H237239   4.065   2.358   4.352  0.1063 -0.0902  1.4426
 5250TIP3   OH237240   1.354   4.703   2.159 -0.1042  0.2777 -0.3502
 5250TIP3    H137241   1.296   4.766   2.116  0.8003  0.9751 -0.5772
 5250TIP3    H237242   1.442   4.725   2.126  0.3902 -0.2445  0.5897
 5251TIP3   OH237243   4.192   3.522  11.554 -0.4366  0.2843 -0.2497
 5251TIP3    H137244   4.243   3.451  11.593 -0.8338  0.2179  0.1481
 5251TIP3    H237245   4.186   3.499  11.461 -2.7226 -1.5509  0.2573
 5252TIP3   OH237246   0.918   2.244  16.087 -0.7965  0.1596  0.5962
 5252TIP3    H137247   0.912   2.172  16.150 -1.4885 -0.5551 -0.2735
 5252TIP3    H237248   1.011   2.269  16.089 -0.5682 -0.6688  0.9916
 5253TIP3   OH237249   6.258   1.362   2.896  0.2247  0.1458 -0.1307
 5253TIP3    H137250   6.305   1.353   2.979  1.4019 -0.4903 -0.8249
 5253TIP3    H237251   6.187   1.298   2.902  2.3957 -2.5729 -0.9225
 5254TIP3   OH237252   1.769   1.438  15.611 -0.1616 -0.1977 -0.2008
 5254TIP3    H137253   1.785   1.467  15.701 -1.4862  0.2905 -0.0910
 5254TIP3    H237254   1.740   1.517  15.566  1.1056 -0.2981 -1.2452
 5255TIP3   OH237255   2.191   1.686  16.295  0.0144  0.2281  0.5426
 5255TIP3    H137256   2.155   1.772  16.314  0.6828  0.5507  0.3734
 5255TIP3    H237257   2.271   1.704  16.245 -1.7664 -0.5480 -2.9361
 5256TIP3   OH237258   0.461   1.545   5.878 -0.6453 -0.2644 -0.0021
 5256TIP3    H137259   0.546   1.532   5.836 -0.2699  1.0491  0.3011
 5256TIP3    H237260   0.441   1.461   5.919 -0.6615 -1.3607 -2.1188
 5257TIP3   OH237261   1.395   4.962   3.914 -0.0275 -0.6522  0.3167
 5257TIP3    H137262   1.438   4.947   3.999 -0.3547  0.9298  0.8142
 5257TIP3    H237263   1.462   4.943   3.849  0.8978  0.0701  1.0289
 5258TIP3   OH237264   6.437   0.864  12.528 -0.3645  0.0502  0.1886
 5258TIP3    H137265   6.476   0.941  12.568 -2.8065  1.4202  0.1221
 5258TIP3    H237266   6.463   0.869  12.436  1.7833 -0.8206  0.6766
 5259TIP3   OH237267   1.281   0.522   3.901  0.0683  0.4095  0.2267
 5259TIP3    H137268   1.349   0.589   3.902  2.4768 -1.8535 -0.2158
 5259TIP3    H237269   1.223   0.548   3.830  0.9475  1.9982  0.0526
 5260TIP3   OH237270   6.142   1.915   0.816  0.2648 -0.2984 -0.2737
 5260TIP3    H137271   6.068   1.860   0.842 -0.2912  0.5445 -0.0310
 5260TIP3    H237272   6.130   1.996   0.866  1.8286 -0.4717  0.4390
 5261TIP3   OH237273   4.754   4.847   4.374  0.4187  0.3179  0.6272
 5261TIP3    H137274   4.715   4.762   4.355 -0.5166  0.9550 -0.3596
 5261TIP3    H237275   4.710   4.877   4.453 -0.0749  0.3929  0.3253
 5262TIP3   OH237276   2.272   2.730  15.925 -0.4860  0.0495  0.0868
 5262TIP3    H137277   2.305   2.642  15.942 -0.8337 -0.2836 -0.9065
 5262TIP3    H237278   2.346   2.787  15.945  0.1755 -0.5691 -0.5389
 5263TIP3   OH237279   3.662   6.324   4.675 -0.1062 -0.1593  0.2508
 5263TIP3    H137280   3.696   6.257   4.616  0.7675  1.4758 -1.1780
 5263TIP3    H237281   3.567   6.314   4.671 -0.0071 -0.9804 -0.3119
 5264TIP3   OH237282   2.606   2.777   4.586 -0.0954  0.1698  0.2111
 5264TIP3    H137283   2.671   2.809   4.648 -0.4970  0.5640  0.4347
 5264TIP3    H237284   2.650   2.706   4.538  0.3243  0.0952  0.7075
 5265TIP3   OH237285   5.852   5.606  13.910  0.3567  0.3597  0.5741
 5265TIP3    H137286   5.805   5.531  13.947  1.9836 -1.0058  0.0234
 5265TIP3    H237287   5.788   5.650  13.854 -0.3656 -1.2457  0.0854
 5266TIP3   OH237288   4.259   2.315  15.393  0.1692  0.5061 -0.0639
 5266TIP3    H137289   4.182   2.367  15.414  0.4611  0.3604  1.4667
 5266TIP3    H237290   4.259   2.245  15.458  0.2997 -0.8903 -1.5154
 5267TIP3   OH237291   0.492   6.834  14.794  0.5441  0.2686 -0.4586
 5267TIP3    H137292   0.577   6.870  14.822  0.2510 -0.3270  1.3025
 5267TIP3    H237293   0.432   6.857  14.865 -0.4000 -0.7443 -0.9162
 5268TIP3   OH237294   4.893   0.206  11.975 -0.1322  0.1892 -0.1381
 5268TIP3    H137295   4.822   0.142  11.977  0.3858 -0.4336 -1.2972
 5268TIP3    H237296   4.947   0.181  11.901  0.8437  1.1638  0.2112
 5269TIP3   OH237297   6.350   5.321  13.834 -0.6120  0.0552 -0.0418
 5269TIP3    H137298   6.409   5.383  13.877  0.1371 -1.2367  0.8813
 5269TIP3    H237299   6.397   5.295  13.754 -0.1137 -0.6321  0.4649
 5270TIP3   OH237300   4.190   0.859  13.891  0.6125  0.0174  0.7374
 5270TIP3    H137301   4.262   0.803  13.861 -1.1850 -1.1654 -1.7259
 5270TIP3    H237302   4.206   0.943  13.849  2.0872  0.7597  2.6265
 5271TIP3   OH237303   0.344   2.542  11.192  0.4268 -0.2751 -0.2277
 5271TIP3    H137304   0.250   2.556  11.188  0.5162  0.0116 -1.6986
 5271TIP3    H237305   0.380   2.624  11.225  0.1566 -0.5235  0.7392
 5272TIP3   OH237306   1.274   0.840   0.604  0.3749 -0.0027 -0.3192
 5272TIP3    H137307   1.345   0.839   0.669  0.2140  1.9059 -0.0435
 5272TIP3    H237308   1.306   0.785   0.533  2.1297  0.7352 -0.1660
 5273TIP3   OH237309   0.845   5.320   4.282 -0.6628 -0.0134 -0.8234
 5273TIP3    H137310   0.897   5.371   4.344 -1.0543  1.6770 -1.8118
 5273TIP3    H237311   0.756   5.354   4.293 -1.3959 -2.0930  0.0686
 5274TIP3   OH237312   2.602   3.307   1.490 -0.7510  0.4303  0.0253
 5274TIP3    H137313   2.653   3.387   1.503  1.2228 -0.5635 -1.1536
 5274TIP3    H237314   2.566   3.316   1.402  0.5128 -0.4743 -0.6130
 5275TIP3   OH237315   3.280   4.939  13.019  0.1985 -0.1561  0.3060
 5275TIP3    H137316   3.256   4.848  13.003  0.8894 -0.4010  0.6388
 5275TIP3    H237317   3.225   4.965  13.093  0.1907 -0.3846  0.3806
 5276TIP3   OH237318   2.630   4.307   2.646 -0.0522 -0.3089 -0.0627
 5276TIP3    H137319   2.706   4.364   2.639 -1.0537  1.0187 -0.5961
 5276TIP3    H237320   2.666   4.218   2.641  1.3647  0.2823 -1.2038
 5277TIP3   OH237321   3.963   0.462   2.593 -0.3674  0.2337  0.2110
 5277TIP3    H137322   3.945   0.393   2.529  0.6731 -0.0424  0.1949
 5277TIP3    H237323   3.896   0.529   2.577 -0.2928  0.0386 -0.9809
 5278TIP3   OH237324   3.036   1.025   5.543  0.9012 -0.5497 -0.6794
 5278TIP3    H137325   3.042   0.932   5.525 -0.3665 -1.0598  1.2343
 5278TIP3    H237326   2.963   1.055   5.490  1.6457 -0.5003 -1.7070
 5279TIP3   OH237327   2.747   4.154   1.144 -0.0654  0.1837  0.1980
 5279TIP3    H137328   2.765   4.219   1.075  0.3532  1.6587  1.6271
 5279TIP3    H237329   2.726   4.207   1.221 -3.5499 -1.4016  0.5098
 5280TIP3   OH237330   0.312   1.393  16.452  0.1078  0.2970 -0.1303
 5280TIP3    H137331   0.254   1.449  16.402  0.4289 -0.2055 -1.0903
 5280TIP3    H237332   0.368   1.351  16.387 -1.0145 -2.2080  0.3630
 5281TIP3   OH237333   6.627   6.253  15.991 -0.0625 -0.5721 -0.4832
 5281TIP3    H137334   6.704   6.219  16.036 -1.3857 -0.1849  2.2597
 5281TIP3    H237335   6.575   6.175  15.970  0.2918 -0.7148 -0.8462
 5282TIP3   OH237336   4.894   2.507   4.384 -0.5253 -0.5548 -0.6168
 5282TIP3    H137337   4.843   2.555   4.319 -0.7351  0.2873  0.1462
 5282TIP3    H237338   4.952   2.451   4.333  0.3397  1.1381 -1.5788
 5283TIP3   OH237339   4.708   2.276   1.410 -0.0843 -0.0315  0.3508
 5283TIP3    H137340   4.624   2.239   1.385  0.1375  0.0811 -0.6003
 5283TIP3    H237341   4.772   2.207   1.391  0.0738  0.0009  0.7606
 5284TIP3   OH237342   5.793   2.679   4.291  0.0164  0.3410  0.1512
 5284TIP3    H137343   5.796   2.585   4.310  1.5169 -0.0443 -1.6679
 5284TIP3    H237344   5.883   2.709   4.304 -0.0387  1.1084 -1.0723
 5285TIP3   OH237345   6.232   1.786   6.248 -0.3690 -0.0966 -0.4599
 5285TIP3    H137346   6.297   1.851   6.221 -0.9952  0.2127 -1.2531
 5285TIP3    H237347   6.257   1.706   6.201  0.1821 -0.3505  0.2326
 5286TIP3   OH237348   2.663   5.461   2.389 -0.2506 -0.0859 -0.3645
 5286TIP3    H137349   2.618   5.539   2.356  1.1353  1.1881  0.6123
 5286TIP3    H237350   2.740   5.495   2.435  1.0014 -2.0963 -0.8236
 5287TIP3   OH237351   2.464   2.395   1.488  0.2050  0.3761  0.2128
 5287TIP3    H137352   2.524   2.400   1.563 -1.8805  0.1036  2.0091
 5287TIP3    H237353   2.426   2.483   1.482  0.7582  0.5605 -0.9457
 5288TIP3   OH237354   3.077   3.510   2.154 -0.3140 -0.0541 -0.6647
 5288TIP3    H137355   3.109   3.568   2.084  0.0464  0.3713 -0.1521
 5288TIP3    H237356   3.105   3.422   2.126  1.2154  0.2830 -0.3079
 5289TIP3   OH237357   6.366   6.132   3.849 -0.3210  0.2780 -0.1005
 5289TIP3    H137358   6.350   6.057   3.792  1.4523 -2.4690  2.6651
 5289TIP3    H237359   6.297   6.127   3.915 -0.4576  1.4015 -0.1456
 5290TIP3   OH237360   3.505   5.856  15.199 -0.1083  0.3145  0.5573
 5290TIP3    H137361   3.568   5.906  15.147  0.1887 -0.6538 -0.0684
 5290TIP3    H237362   3.556   5.781  15.232 -0.7365 -0.0598  0.6974
 5291TIP3   OH237363   0.661   5.051  15.227  0.2681 -0.2582  0.0938
 5291TIP3    H137364   0.628   4.980  15.173  0.6895 -1.1781  1.0165
 5291TIP3    H237365   0.746   5.021  15.257  0.5656  0.7472  0.2911
 5292TIP3   OH237366   4.622   3.105  11.086  0.8457  0.2756 -0.1709
 5292TIP3    H137367   4.675   3.027  11.076  0.0963 -0.0635 -1.7307
 5292TIP3    H237368   4.679   3.177  11.058 -0.2271 -0.3445 -4.6061
 5293TIP3   OH237369   6.620   4.488  15.617 -0.5401  0.1878  0.0898
 5293TIP3    H137370   6.527   4.510  15.612 -0.6590 -0.0703  0.9845
 5293TIP3    H237371   6.626   4.423  15.687  0.3669  0.5203  0.3386
 5294TIP3   OH237372   1.093   3.184  14.358 -0.3487 -0.0290 -0.3663
 5294TIP3    H137373   1.081   3.098  14.319  2.8629 -1.7078  1.9105
 5294TIP3    H237374   1.152   3.230  14.299  0.8086 -0.8166  0.1458
 5295TIP3   OH237375   1.275   4.568  11.269 -0.1853  0.2177 -0.2557
 5295TIP3    H137376   1.201   4.610  11.226 -0.6588 -0.4443 -0.1046
 5295TIP3    H237377   1.309   4.634  11.329 -0.5119  0.6003 -0.4887
 5296TIP3   OH237378   2.141   2.354   5.615 -0.0256 -0.5417  0.5597
 5296TIP3    H137379   2.182   2.270   5.635 -0.6109 -0.5162  2.0454
 5296TIP3    H237380   2.175   2.378   5.529 -0.9631 -2.9949 -0.5869
 5297TIP3   OH237381   5.751   5.900   5.382 -0.3436 -0.2897  0.0737
 5297TIP3    H137382   5.807   5.822   5.380 -0.9868 -0.7514 -1.0196
 5297TIP3    H237383   5.804   5.969   5.341  0.3043 -0.0768  1.2272
 5298TIP3   OH237384   5.559   0.451   6.038 -0.4377  0.2692  1.1262
 5298TIP3    H137385   5.640   0.488   6.003 -1.1483  0.9705  0.1916
 5298TIP3    H237386   5.589   0.381   6.096  0.8337  0.3542  0.6189
 5299TIP3   OH237387   6.435   1.351  14.335 -0.0490 -0.3508 -0.5336
 5299TIP3    H137388   6.512   1.407  14.349  0.1915 -0.7311 -0.3333
 5299TIP3    H237389   6.372   1.409  14.291 -0.9313  0.9781  2.2316
 5300TIP3   OH237390   1.129   2.722   2.646 -0.0855  0.0680  0.2271
 5300TIP3    H137391   1.149   2.705   2.738 -0.3725  1.0288  0.4723
 5300TIP3    H237392   1.040   2.757   2.647 -0.7439 -1.4628 -0.5807
 5301TIP3   OH237393   1.238   5.429   6.374 -0.5101  0.4886  0.2511
 5301TIP3    H137394   1.260   5.514   6.410 -2.1985  1.3128 -0.5733
 5301TIP3    H237395   1.218   5.374   6.450  1.0524  0.6476  0.8128
 5302TIP3   OH237396   2.544   2.891  16.056  0.2638 -0.1780  0.3288
 5302TIP3    H137397   2.527   2.969  16.004  0.1785  1.0848  2.1913
 5302TIP3    H237398   2.620   2.850  16.013  0.0416  0.6678 -0.9181
 5303TIP3   OH237399   3.169   1.020   1.104  0.2731 -0.2098  0.1396
 5303TIP3    H137400   3.255   1.061   1.094 -0.7055  1.7797 -0.7003
 5303TIP3    H237401   3.172   0.944   1.045  1.8589 -0.9403  1.0964
 5304TIP3   OH237402   5.340   2.634   1.711 -0.0371 -0.2210 -0.1601
 5304TIP3    H137403   5.263   2.686   1.687  0.5544  1.2344  0.9316
 5304TIP3    H237404   5.352   2.653   1.805  0.1212 -2.4691  0.3146
 5305TIP3   OH237405   4.597   5.942  15.311 -0.0976  0.0505 -0.5405
 5305TIP3    H137406   4.652   5.869  15.337 -1.0542  0.0840  1.8240
 5305TIP3    H237407   4.658   6.012  15.290  0.8016 -0.5428  0.0405
 5306TIP3   OH237408   3.406   0.360   4.662 -0.0870 -0.3319  0.1611
 5306TIP3    H137409   3.445   0.373   4.749  0.9378 -0.7382 -0.2243
 5306TIP3    H237410   3.398   0.449   4.627 -2.6632  0.0850  1.5307
 5307TIP3   OH237411   5.044   2.956  14.188  0.0373  0.4248  0.0823
 5307TIP3    H137412   5.071   2.901  14.262 -0.7950 -0.2814 -0.1064
 5307TIP3    H237413   5.002   3.032  14.228 -2.7904 -1.1809  0.4168
 5308TIP3   OH237414   3.940   0.497   0.911 -0.1063 -0.5119 -0.1434
 5308TIP3    H137415   3.866   0.540   0.867  0.6845  0.1325 -0.8651
 5308TIP3    H237416   3.988   0.568   0.951 -0.2132 -0.9959  0.8752
 5309TIP3   OH237417   0.832   2.886   1.630  0.1150 -0.1625  0.6216
 5309TIP3    H137418   0.854   2.801   1.592  1.8359  0.4137  0.2018
 5309TIP3    H237419   0.745   2.874   1.668 -0.9080 -1.3396 -1.8282
 5310TIP3   OH237420   2.893   0.025   5.489 -0.2684  0.0645  0.0640
 5310TIP3    H137421   2.978   0.008   5.449 -0.3778  3.2111 -1.8388
 5310TIP3    H237422   2.913   0.041   5.581  1.3469  1.1611 -0.4222
 5311TIP3   OH237423   3.259   6.614   1.397  0.4033 -0.0243 -0.0729
 5311TIP3    H137424   3.337   6.578   1.439 -0.0103 -1.8686 -0.7755
 5311TIP3    H237425   3.282   6.619   1.304 -0.0586  0.1781 -0.1791
 5312TIP3   OH237426   1.603   4.388   1.037 -0.5683 -1.0595  0.2078
 5312TIP3    H137427   1.649   4.307   1.018 -0.2982 -0.9566  0.4115
 5312TIP3    H237428   1.520   4.361   1.076 -1.0103 -1.2624 -0.8598
 5313TIP3   OH237429   4.094   1.891  16.986 -0.0731  0.0171  0.0762
 5313TIP3    H137430   4.034   1.858  17.053  1.5468 -1.0274  1.0932
 5313TIP3    H237431   4.128   1.973  17.022 -0.9253  0.6443 -0.5289
 5314TIP3   OH237432   5.326   1.199  11.626  0.3121 -0.3652  0.0634
 5314TIP3    H137433   5.321   1.116  11.577  0.0551 -0.8445  0.8858
 5314TIP3    H237434   5.416   1.204  11.657  0.3317 -0.3261  0.0004
 5315TIP3   OH237435   6.272   3.927  11.883 -1.1715  0.2852 -0.0791
 5315TIP3    H137436   6.305   4.014  11.907 -2.3279  0.8135 -0.3433
 5315TIP3    H237437   6.192   3.945  11.834 -1.2975 -0.9326 -0.3358
 5316TIP3   OH237438   0.737   3.807   0.221 -0.1461  0.0441 -0.3772
 5316TIP3    H137439   0.719   3.723   0.264 -0.6514  0.6245  0.6022
 5316TIP3    H237440   0.652   3.850   0.217  0.0943  0.4715 -0.9611
 5317TIP3   OH237441   3.446   0.410  10.674 -0.1825 -0.1030  0.1860
 5317TIP3    H137442   3.434   0.501  10.700  0.5297  0.7913 -2.2630
 5317TIP3    H237443   3.372   0.363  10.712 -0.6601  1.5246  1.3576
 5318TIP3   OH237444   1.842   2.733   5.171 -1.0425 -0.4569  0.2164
 5318TIP3    H137445   1.830   2.639   5.190 -0.0036 -0.3385  1.6640
 5318TIP3    H237446   1.933   2.740   5.143 -1.1314  0.1173  0.0766
 5319TIP3   OH237447   2.369   6.294  15.621  0.1212  0.1026 -0.6573
 5319TIP3    H137448   2.273   6.294  15.626  0.1440 -0.0579 -0.1847
 5319TIP3    H237449   2.395   6.383  15.642  0.1071 -0.0170 -0.1331
 5320TIP3   OH237450   4.904   4.219   6.075  0.0086 -0.0766  0.2000
 5320TIP3    H137451   4.962   4.194   6.147  0.9121  3.6673  1.0220
 5320TIP3    H237452   4.930   4.309   6.054 -1.6323 -0.2744 -3.4480
 5321TIP3   OH237453   6.595   1.714  11.026  0.0140 -0.6979  0.0186
 5321TIP3    H137454   6.568   1.640  10.972  1.2831 -0.9114 -0.3679
 5321TIP3    H237455   6.640   1.674  11.100  1.6241 -0.3184 -0.7110
 5322TIP3   OH237456   4.689   6.040   4.541  0.3007  0.2646 -0.3567
 5322TIP3    H137457   4.679   5.945   4.542  0.5333  0.2280 -1.0481
 5322TIP3    H237458   4.741   6.060   4.619 -1.4170  0.0304  0.8883
 5323TIP3   OH237459   6.537   0.986   4.332 -0.3638  0.0818  0.1497
 5323TIP3    H137460   6.562   0.908   4.282 -0.9308 -0.3927  0.5868
 5323TIP3    H237461   6.511   1.049   4.266 -0.5631 -0.3421 -0.1857
 5324TIP3   OH237462   6.609   2.649   3.076 -0.2791 -0.6359  0.4930
 5324TIP3    H137463   6.558   2.584   3.124 -1.0176  0.1125  0.7390
 5324TIP3    H237464   6.675   2.679   3.138 -1.4371  0.5718  1.1923
 5325TIP3   OH237465   0.554   5.845  13.672  0.2843 -0.3261  0.8022
 5325TIP3    H137466   0.526   5.757  13.647  1.2894  0.0248 -1.9248
 5325TIP3    H237467   0.485   5.903  13.637  0.6383  0.0771  0.7625
 5326TIP3   OH237468   1.776   5.614  14.583 -0.3499  0.1489  0.1721
 5326TIP3    H137469   1.787   5.640  14.674  1.5393 -0.0870  0.0550
 5326TIP3    H237470   1.747   5.693  14.538 -1.9958  0.0961  1.0611
 5327TIP3   OH237471   0.079   5.902  13.248 -0.1174  0.1707 -0.5532
 5327TIP3    H137472   0.029   5.821  13.240  0.4458 -0.0686 -1.9294
 5327TIP3    H237473   0.169   5.877  13.229 -0.1065  1.2931 -2.2400
 5328TIP3   OH237474   6.530   1.013  16.778 -0.3184  0.3583  0.0518
 5328TIP3    H137475   6.536   1.106  16.755  2.7548  0.6186  1.3036
 5328TIP3    H237476   6.540   1.012  16.873 -2.5671 -1.1840  0.3240
 5329TIP3   OH237477   1.064   0.507  12.848  0.0908 -0.5087  0.1898
 5329TIP3    H137478   1.100   0.431  12.894 -0.4499 -1.2007 -0.4976
 5329TIP3    H237479   1.135   0.571  12.849  1.8788 -2.2597 -2.1432
 5330TIP3   OH237480   4.984   5.732   1.647 -0.0267  0.3100 -0.6898
 5330TIP3    H137481   5.067   5.694   1.678 -0.6804 -1.4584 -1.0103
 5330TIP3    H237482   5.011   5.812   1.601  1.3907  0.3722  0.1776
 5331TIP3   OH237483   4.540   5.069   4.795  0.4629 -0.1194  0.2410
 5331TIP3    H137484   4.629   5.104   4.789  0.0589  1.4480  2.2255
 5331TIP3    H237485   4.512   5.091   4.884 -1.7156 -1.0890 -0.1437
 5332TIP3   OH237486   4.217   0.489   5.384  0.3616 -0.6774  0.0757
 5332TIP3    H137487   4.124   0.467   5.377  0.2359  0.1597 -1.3282
 5332TIP3    H237488   4.252   0.426   5.448 -1.3942 -0.1878  1.6027
 5333TIP3   OH237489   6.178   2.361  14.636  0.5423 -0.3847  0.1486
 5333TIP3    H137490   6.094   2.399  14.609  0.8137 -0.6139 -1.0798
 5333TIP3    H237491   6.183   2.278  14.590  0.6864 -1.1841  1.5552
 5334TIP3   OH237492   2.139   3.388  10.369 -0.1428 -0.6010 -0.0495
 5334TIP3    H137493   2.169   3.469  10.411  2.1127 -1.6088  0.4838
 5334TIP3    H237494   2.199   3.321  10.403 -1.1112 -2.2629 -1.4796
 5335TIP3   OH237495   4.942   2.775  12.699 -0.0241 -0.3968  0.4894
 5335TIP3    H137496   4.966   2.866  12.715  1.2699 -0.6504  0.0608
 5335TIP3    H237497   4.969   2.729  12.779  0.9722 -0.6808  0.0076
 5336TIP3   OH237498   3.694   3.626   3.128 -0.0935 -0.2923 -0.3806
 5336TIP3    H137499   3.601   3.603   3.128 -0.5438  1.3878 -0.5968
 5336TIP3    H237500   3.738   3.545   3.153 -1.6516 -0.9651  0.3783
 5337TIP3   OH237501   1.184   1.694  13.082  0.4112  0.4840 -0.9595
 5337TIP3    H137502   1.279   1.688  13.075  0.4496  1.2072 -1.1507
 5337TIP3    H237503   1.151   1.612  13.045  0.9697  0.0309 -0.4706
 5338TIP3   OH237504   4.366   3.685  11.093  0.2075 -0.3209  0.2015
 5338TIP3    H137505   4.300   3.746  11.127 -2.2474 -1.5369 -2.0522
 5338TIP3    H237506   4.408   3.732  11.021  0.3891 -0.2774  0.3334
 5339TIP3   OH237507   3.176   6.464  16.740 -0.2191 -0.3406 -0.3625
 5339TIP3    H137508   3.266   6.487  16.761 -0.7306  2.1814 -0.5456
 5339TIP3    H237509   3.123   6.529  16.786 -2.1861 -3.3201  1.9671
 5340TIP3   OH237510   6.790   1.505   1.212  0.2945  0.1133 -0.1805
 5340TIP3    H137511   6.814   1.489   1.120 -0.9603  1.5716 -0.8120
 5340TIP3    H237512   6.709   1.457   1.224  0.3172  0.1420  0.0796
 5341TIP3   OH237513   6.783   0.571   2.910 -0.0079  0.3487 -0.4278
 5341TIP3    H137514   6.790   0.555   2.816  0.2193 -1.1908 -0.1762
 5341TIP3    H237515   6.784   0.484   2.949  0.9108  0.9868  1.0738
 5342TIP3   OH237516   0.773   5.005  14.054  0.3066 -0.2512  0.4211
 5342TIP3    H137517   0.800   5.036  14.140 -0.9690 -0.9273  1.0976
 5342TIP3    H237518   0.847   4.953  14.023  1.3444  1.1226  0.4716
 5343TIP3   OH237519   6.142   2.740  12.216  0.4850  0.4081 -0.8011
 5343TIP3    H137520   6.192   2.720  12.137  0.3420 -0.2827 -0.7191
 5343TIP3    H237521   6.202   2.718  12.288  0.7892  1.4791 -0.7119
 5344TIP3   OH237522   6.147   5.719  12.599  0.1176 -0.0688  0.1115
 5344TIP3    H137523   6.204   5.755  12.532  0.1049  0.8835  0.5976
 5344TIP3    H237524   6.128   5.630  12.569  1.1631 -0.1064 -0.4767
 5345TIP3   OH237525   1.004   3.301   0.949  0.3968  0.1092  0.2429
 5345TIP3    H137526   0.970   3.366   0.888  1.3047 -0.3463 -0.7798
 5345TIP3    H237527   1.009   3.347   1.033  0.4923  1.1872 -0.3344
 5346TIP3   OH237528   1.137   4.789   2.019 -0.3869 -0.5765 -0.1576
 5346TIP3    H137529   1.077   4.826   2.084  1.3141 -2.0150  2.4217
 5346TIP3    H237530   1.089   4.715   1.981 -0.9215 -0.5667  0.4837
 5347TIP3   OH237531   5.615   2.418   2.926 -0.6045  0.0842  0.1224
 5347TIP3    H137532   5.637   2.484   2.860  0.1494  0.3072  0.5825
 5347TIP3    H237533   5.592   2.340   2.875  0.8043 -0.0093 -0.4254
 5348TIP3   OH237534   0.593   5.377  15.856  0.4493  0.0607  0.4355
 5348TIP3    H137535   0.634   5.460  15.832  0.1288  0.5871  1.6395
 5348TIP3    H237536   0.653   5.337  15.918  0.5218 -0.5384 -0.0160
 5349TIP3   OH237537   5.219   4.181  11.360  0.6246 -0.0068 -0.1109
 5349TIP3    H137538   5.161   4.247  11.322 -0.7153 -1.1561 -0.1922
 5349TIP3    H237539   5.176   4.098  11.339  0.9628 -0.7847  2.0713
 5350TIP3   OH237540   5.085   0.189   6.314  0.8973 -0.1753 -0.6011
 5350TIP3    H137541   5.065   0.281   6.296 -0.0105  0.0347  1.3073
 5350TIP3    H237542   5.180   0.183   6.309  1.1509  1.3740  1.3242
 5351TIP3   OH237543   2.500   0.786   5.757  0.2465 -0.5278 -0.9053
 5351TIP3    H137544   2.452   0.868   5.744  0.8691 -0.2449 -1.4803
 5351TIP3    H237545   2.479   0.760   5.846 -0.0603  0.1954 -0.7601
 5352TIP3   OH237546   0.298   2.346  15.990  0.0640 -0.5749 -0.1948
 5352TIP3    H137547   0.317   2.268  15.938  1.1333 -0.9600  0.7291
 5352TIP3    H237548   0.321   2.320  16.079 -0.5744  0.4671  0.2802
 5353TIP3   OH237549   5.075   6.502   0.920  0.5486  0.6699  0.2694
 5353TIP3    H137550   5.070   6.589   0.880  0.3527 -0.3852 -2.1724
 5353TIP3    H237551   4.987   6.488   0.956  0.2855  1.1145 -0.1815
 5354TIP3   OH237552   2.281   3.399  12.954 -0.4330  0.7113 -0.2320
 5354TIP3    H137553   2.337   3.457  13.006  0.4950 -1.8514  1.8645
 5354TIP3    H237554   2.310   3.411  12.864  0.3944  2.6985  0.2424
 5355TIP3   OH237555   6.382   0.483  12.991  0.1196 -0.2319  0.7813
 5355TIP3    H137556   6.366   0.567  13.034  0.2298 -0.1757  0.7116
 5355TIP3    H237557   6.363   0.418  13.059  2.7483 -0.1144  1.7256
 5356TIP3   OH237558   4.334   2.795  12.340  0.0415  0.0206  0.0061
 5356TIP3    H137559   4.264   2.853  12.371 -1.0777 -1.1843 -0.1932
 5356TIP3    H237560   4.399   2.855  12.303 -0.4481  1.2349  0.9916
 5357TIP3   OH237561   6.436   4.113   6.336 -0.3370 -0.2280 -0.3515
 5357TIP3    H137562   6.348   4.119   6.299 -0.8460 -1.1587  0.6538
 5357TIP3    H237563   6.430   4.158   6.420  0.5802  1.0922 -0.9718
 5358TIP3   OH237564   4.303   2.763   1.188  0.0271 -0.0135 -0.4618
 5358TIP3    H137565   4.396   2.743   1.177  0.4723  1.4538  0.4270
 5358TIP3    H237566   4.301   2.831   1.255 -1.7408 -0.4665 -0.0199
 5359TIP3   OH237567   4.853   2.273   5.156 -0.3599 -0.5909  0.7352
 5359TIP3    H137568   4.776   2.289   5.102  0.8864  0.2724 -0.8968
 5359TIP3    H237569   4.925   2.314   5.107  1.0124 -0.7007  2.5566
 5360TIP3   OH237570   2.267   4.328  11.567  0.4562  0.1200 -0.1978
 5360TIP3    H137571   2.190   4.384  11.580  0.0921 -0.2077 -0.9073
 5360TIP3    H237572   2.307   4.360  11.487  0.4900 -0.3478 -0.3740
 5361TIP3   OH237573   3.218   4.143   5.576 -0.4737  0.1696 -0.2959
 5361TIP3    H137574   3.262   4.081   5.517  0.4700 -0.6674  1.2225
 5361TIP3    H237575   3.137   4.166   5.530  0.1222 -0.6062 -1.8152
 5362TIP3   OH237576   0.502   6.173  12.284  0.5109 -0.0650  0.1074
 5362TIP3    H137577   0.543   6.204  12.365 -1.2785  1.4758  0.5111
 5362TIP3    H237578   0.507   6.248  12.225  0.8627 -0.8349 -0.8609
 5363TIP3   OH237579   4.812   5.814   0.069  0.1160 -0.1669 -1.1616
 5363TIP3    H137580   4.853   5.729   0.054  0.0443 -0.1171 -1.6269
 5363TIP3    H237581   4.830   5.865  -0.010 -1.0458 -0.2283 -1.4807
 5364TIP3   OH237582   3.442   5.186   1.523 -0.3591 -0.1535  0.0982
 5364TIP3    H137583   3.444   5.100   1.480 -2.4249 -0.8829  1.2927
 5364TIP3    H237584   3.442   5.249   1.451 -0.1889 -1.1990 -0.8424
 5365TIP3   OH237585   4.920   5.690  11.522 -0.2235  0.3901 -0.0224
 5365TIP3    H137586   4.869   5.633  11.466  0.2888 -0.2388  0.1310
 5365TIP3    H237587   4.944   5.764  11.467 -2.3443  1.3512  0.2490
 5366TIP3   OH237588   1.507   0.485   0.541 -0.0706 -0.2067 -0.1963
 5366TIP3    H137589   1.564   0.548   0.585 -0.8123 -0.0850  0.6180
 5366TIP3    H237590   1.436   0.538   0.505  0.5962 -0.2844 -1.7022
 5367TIP3   OH237591   1.619   6.143   0.507  0.0385  0.5844  0.9464
 5367TIP3    H137592   1.586   6.155   0.418 -1.8819  0.7437  1.6225
 5367TIP3    H237593   1.617   6.230   0.546  1.0986  0.5590  1.0939
 5368TIP3   OH237594   4.276   0.436  17.081 -0.0161 -0.2022  0.3764
 5368TIP3    H137595   4.209   0.486  17.033  0.4719  0.5505  0.4603
 5368TIP3    H237596   4.332   0.400  17.012 -0.1611 -0.3453  0.3312
 5369TIP3   OH237597   1.562   0.120   6.766  0.1507  0.5340 -0.4664
 5369TIP3    H137598   1.587   0.212   6.773  0.6198  0.3957 -0.2577
 5369TIP3    H237599   1.469   0.121   6.746  0.2903  1.0644 -1.0980
 5370TIP3   OH237600   2.747   5.584   1.659 -0.4740  0.2962 -0.6059
 5370TIP3    H137601   2.810   5.569   1.729 -0.0261 -0.9204 -1.2598
 5370TIP3    H237602   2.705   5.500   1.646 -0.8914  0.6331 -1.4854
 5371TIP3   OH237603   4.970   1.511   5.378  0.8472 -0.0479 -0.2543
 5371TIP3    H137604   4.954   1.448   5.448 -1.3535 -0.5049 -1.0743
 5371TIP3    H237605   5.046   1.561   5.407  0.7220 -1.0015  1.8886
 5372TIP3   OH237606   0.957   5.445  14.466  0.1360 -0.2855  0.1637
 5372TIP3    H137607   0.974   5.380  14.534  0.4482 -0.2119  0.1575
 5372TIP3    H237608   0.871   5.421  14.431  0.0644 -0.4458  0.4444
 5373TIP3   OH237609   6.662   5.958   5.572 -0.1377  0.4910 -0.3421
 5373TIP3    H137610   6.621   5.901   5.508 -0.7188  3.8071 -3.1882
 5373TIP3    H237611   6.756   5.955   5.552 -0.4460  2.6785 -2.6237
 5374TIP3   OH237612   1.611   0.385  12.121  0.4587  0.3570 -0.1106
 5374TIP3    H137613   1.660   0.405  12.201  0.5220  1.4104 -0.4058
 5374TIP3    H237614   1.546   0.455  12.114 -0.7601 -0.7257 -0.0105
 5375TIP3   OH237615   2.903   6.336   1.271  0.6459 -0.5789  0.1840
 5375TIP3    H137616   2.861   6.418   1.248  1.0269  0.1009  1.7433
 5375TIP3    H237617   2.989   6.340   1.228  0.5991 -0.2331  0.1220
 5376TIP3   OH237618   0.556   5.597   1.674 -0.2691 -0.3082 -0.2179
 5376TIP3    H137619   0.518   5.510   1.679  0.5260 -0.6306  0.7979
 5376TIP3    H237620   0.592   5.612   1.762  0.4154  0.6590 -0.6424
 5377TIP3   OH237621   0.877   1.143   1.052  0.0526  0.1349  0.6983
 5377TIP3    H137622   0.783   1.156   1.039  0.6110  2.8416 -1.7249
 5377TIP3    H237623   0.901   1.201   1.124 -0.1571 -0.9173  1.6419
 5378TIP3   OH237624   5.672   6.084  11.614  0.4393  0.1187 -0.1110
 5378TIP3    H137625   5.757   6.059  11.651 -0.3420 -0.4678  1.3308
 5378TIP3    H237626   5.612   6.086  11.688 -0.3828  2.6979 -0.7369
 5379TIP3   OH237627   3.127   1.519   6.345 -0.5919 -0.6964  0.3369
 5379TIP3    H137628   3.164   1.494   6.430 -1.9655  0.5441  1.3638
 5379TIP3    H237629   3.194   1.495   6.281  1.8905  1.1927  2.0530
 5380TIP3   OH237630   0.414   1.915   3.811 -0.5573  0.0487  0.3334
 5380TIP3    H137631   0.451   1.997   3.778 -0.6769  0.9803  2.3616
 5380TIP3    H237632   0.484   1.851   3.801  0.4370  1.0034  0.9761
 5381TIP3   OH237633   1.961   4.183   0.686  0.0646 -0.3438  0.3298
 5381TIP3    H137634   2.021   4.237   0.633  0.1914 -2.5378 -1.9575
 5381TIP3    H237635   2.019   4.133   0.743  0.1231  0.0778  0.6485
 5382TIP3   OH237636   6.522   2.721  16.792  0.1102  0.0867  0.6483
 5382TIP3    H137637   6.492   2.633  16.770 -0.4694  0.6599 -1.1045
 5382TIP3    H237638   6.602   2.732  16.741 -0.3871  0.9164  0.0128
 5383TIP3   OH237639   2.149   5.441  11.358 -1.0575  0.0102  0.1475
 5383TIP3    H137640   2.127   5.517  11.304 -0.8566 -0.9332 -1.3359
 5383TIP3    H237641   2.103   5.455  11.440 -0.4381  2.0817  0.1932
 5384TIP3   OH237642   5.152   5.393   3.535 -0.7872  0.3775  0.2042
 5384TIP3    H137643   5.125   5.382   3.444  0.6935  1.4990 -0.4195
 5384TIP3    H237644   5.071   5.410   3.583 -1.7659 -1.5594 -0.6342
 5385TIP3   OH237645   5.810   1.561  12.285  0.2138  0.0089  0.2130
 5385TIP3    H137646   5.766   1.525  12.207  2.0814  0.2664 -1.0250
 5385TIP3    H237647   5.776   1.508  12.358 -0.5183 -1.2157 -0.9618
 5386TIP3   OH237648   0.553   4.718   1.880 -0.4133  0.3626 -0.2040
 5386TIP3    H137649   0.562   4.646   1.943  1.2770 -0.0397 -0.8731
 5386TIP3    H237650   0.538   4.674   1.796  0.2077  0.8041 -0.5490
 5387TIP3   OH237651   2.462   4.966  16.218  0.0210  0.5325 -0.0857
 5387TIP3    H137652   2.390   4.918  16.257  0.7975  0.1905  0.9646
 5387TIP3    H237653   2.473   5.043  16.273 -0.3605  1.2668 -0.9953
 5388TIP3   OH237654   2.554   5.786   4.243 -0.3034 -0.3507  0.2607
 5388TIP3    H137655   2.484   5.769   4.180  0.1784 -0.3015 -0.2841
 5388TIP3    H237656   2.625   5.824   4.192 -0.0265 -0.0129  0.8820
 5389TIP3   OH237657   6.604   6.166  15.021  0.3757 -0.3089  0.0083
 5389TIP3    H137658   6.570   6.083  14.987 -0.3444 -0.0709  0.1522
 5389TIP3    H237659   6.658   6.200  14.949  0.5942 -0.8464 -0.0895
 5390TIP3   OH237660   6.467   2.398  15.339  0.3973  0.0598  0.2022
 5390TIP3    H137661   6.463   2.316  15.290 -0.7163 -1.6430  2.9224
 5390TIP3    H237662   6.498   2.372  15.426 -1.5493  2.2384  1.6485
 5391TIP3   OH237663   5.198   2.346   1.020  0.1970  0.6742  0.1063
 5391TIP3    H137664   5.209   2.327   1.113  0.9666 -0.5552 -0.2107
 5391TIP3    H237665   5.171   2.437   1.017 -1.9562  0.1692  1.6571
 5392TIP3   OH237666   6.447   6.250  13.376  0.1799  0.0088 -0.5230
 5392TIP3    H137667   6.407   6.209  13.453 -2.0961  0.7640 -1.2292
 5392TIP3    H237668   6.487   6.177  13.328  0.3873 -0.6671  0.6393
 5393TIP3   OH237669   1.935   6.457   3.555  0.6199  0.4686 -0.2868
 5393TIP3    H137670   1.954   6.398   3.482 -0.7359 -0.6527  0.2361
 5393TIP3    H237671   1.850   6.494   3.535 -0.9460 -1.6901  1.7859
 5394TIP3   OH237672   2.805   5.665  16.813 -0.1623  0.0550 -0.5501
 5394TIP3    H137673   2.832   5.706  16.895 -0.3952  1.1350 -0.9973
 5394TIP3    H237674   2.786   5.739  16.754  1.6152 -0.6537 -2.1361
 5395TIP3   OH237675   4.675   6.421  13.646  0.2446 -0.1301  0.4644
 5395TIP3    H137676   4.691   6.515  13.647  1.4716 -0.3231  2.3334
 5395TIP3    H237677   4.747   6.384  13.595 -0.9080 -0.0013 -1.3454
 5396TIP3   OH237678   5.943   4.993  13.090  0.0322  0.0436  0.3190
 5396TIP3    H137679   5.896   4.920  13.130  1.8547 -0.9220  0.7958
 5396TIP3    H237680   5.985   4.955  13.013 -0.8092  1.1392 -0.7178
 5397TIP3   OH237681   0.515   6.528  17.038  0.0057  0.0417 -0.2315
 5397TIP3    H137682   0.471   6.454  17.079  0.4359 -0.2806 -0.3448
 5397TIP3    H237683   0.607   6.519  17.064  0.3562 -0.3770 -1.5364
 5398TIP3   OH237684   2.282   2.787  16.357 -0.2550 -0.7831 -0.5342
 5398TIP3    H137685   2.236   2.703  16.365  1.8527 -2.0057 -0.3759
 5398TIP3    H237686   2.351   2.783  16.423  0.2497  0.8578 -0.9163
 5399TIP3   OH237687   6.503   6.223  12.914  0.2074 -0.9393 -0.7309
 5399TIP3    H137688   6.442   6.171  12.967  0.4750 -0.6701 -0.1474
 5399TIP3    H237689   6.453   6.302  12.892  0.1005 -1.0447 -0.8666
 5400TIP3   OH237690   3.239   1.905  11.016 -0.6280 -0.1879 -0.2802
 5400TIP3    H137691   3.307   1.972  11.017 -1.0611  0.2752  1.4423
 5400TIP3    H237692   3.284   1.826  11.047 -0.3766 -0.4555 -1.2781
 5401TIP3   OH237693   2.119   3.650   0.312 -0.4749  0.0762 -0.0534
 5401TIP3    H137694   2.099   3.659   0.219 -0.0498 -0.5090 -0.2054
 5401TIP3    H237695   2.035   3.664   0.356 -0.9772 -1.1165 -0.6109
 5402TIP3   OH237696   2.009   0.836   1.728 -0.2788  0.6882  0.1394
 5402TIP3    H137697   2.024   0.870   1.816  0.9108 -2.4337  1.3029
 5402TIP3    H237698   2.088   0.858   1.679  0.8975 -1.0800  1.1568
 5403TIP3   OH237699   5.244   6.423  14.770 -0.4197  0.4766  0.1609
 5403TIP3    H137700   5.161   6.418  14.724 -1.0574 -0.3379  1.3360
 5403TIP3    H237701   5.245   6.510  14.810 -0.0690  1.0062 -0.9647
 5404TIP3   OH237702   4.459   5.458  12.419 -0.1842  0.2972 -0.0668
 5404TIP3    H137703   4.530   5.394  12.416 -1.9317 -1.7369 -0.1651
 5404TIP3    H237704   4.424   5.451  12.508 -1.6524 -0.3595 -0.6704
 5405TIP3   OH237705   2.457   6.472   1.501  0.0538  1.1286  0.6959
 5405TIP3    H137706   2.539   6.520   1.515  0.6501  0.8257 -1.3950
 5405TIP3    H237707   2.403   6.532   1.449 -0.6487  0.9300  1.1892
 5406TIP3   OH237708   1.160   0.422  15.444 -0.1996  0.1329  0.2806
 5406TIP3    H137709   1.194   0.392  15.528  0.6095  1.9598  0.6754
 5406TIP3    H237710   1.067   0.439  15.459  0.1840  1.6224  1.2188
 5407TIP3   OH237711   1.408   0.112   5.128 -0.2937  0.0930 -0.3242
 5407TIP3    H137712   1.426   0.032   5.179 -0.8356  0.2030  0.0400
 5407TIP3    H237713   1.392   0.080   5.040  0.7171 -0.0950 -0.4581
 5408TIP3   OH237714   3.156   6.647   2.473 -0.3281 -0.2048  0.6206
 5408TIP3    H137715   3.178   6.732   2.512 -0.7479 -0.0139  0.4567
 5408TIP3    H237716   3.234   6.623   2.424 -0.4803  0.4743  0.0200
 5409TIP3   OH237717   1.970   5.476   2.223 -0.2126  0.1425 -0.3552
 5409TIP3    H137718   1.973   5.425   2.142 -2.8311 -1.1895  0.3066
 5409TIP3    H237719   1.931   5.559   2.197  0.4167  0.3393 -0.7062
 5410TIP3   OH237720   0.061   6.634  14.237  0.0622  0.5146 -0.3951
 5410TIP3    H137721   0.043   6.691  14.162 -0.9190  0.1375 -0.4482
 5410TIP3    H237722   0.144   6.591  14.214  0.1514  0.9506 -0.9264
 5411TIP3   OH237723   3.637   6.129  16.732  0.2334  0.2893 -0.7553
 5411TIP3    H137724   3.543   6.147  16.736  0.2079  0.3961 -1.7047
 5411TIP3    H237725   3.644   6.035  16.747  0.0979  0.4869  0.7135
 5412TIP3   OH237726   5.801   6.822   2.791  0.0066  0.0148 -0.3245
 5412TIP3    H137727   5.748   6.747   2.816 -1.5900  0.3359 -2.4642
 5412TIP3    H237728   5.820   6.866   2.874 -0.4020 -1.8241  0.8041
 5413TIP3   OH237729   3.774   6.424   1.548 -0.6039 -0.0384  0.2406
 5413TIP3    H137730   3.702   6.410   1.610 -0.5033  0.0610  0.3821
 5413TIP3    H237731   3.795   6.517   1.556 -0.8741  0.0641 -0.2581
 5414TIP3   OH237732   3.547   3.190   5.861 -1.4798 -0.3572 -0.7703
 5414TIP3    H137733   3.466   3.140   5.851 -0.8920 -1.1773 -1.6915
 5414TIP3    H237734   3.594   3.145   5.931 -1.3625 -0.5274 -0.9572
 5415TIP3   OH237735   5.109   3.853   0.821 -0.5535 -0.1338  0.2250
 5415TIP3    H137736   5.169   3.912   0.776  0.1344  0.6496  2.0547
 5415TIP3    H237737   5.155   3.768   0.823  0.1649  0.2502  0.8691
 5416TIP3   OH237738   0.798   4.782  14.907 -0.1921 -0.4006  0.6420
 5416TIP3    H137739   0.794   4.876  14.893 -2.0774 -0.4206  0.7473
 5416TIP3    H237740   0.706   4.755  14.916  0.3526 -2.0921  1.6433
 5417TIP3   OH237741   6.414   0.513  10.415  0.2026  0.5448 -0.2625
 5417TIP3    H137742   6.333   0.465  10.436 -0.0016  0.9158 -0.1860
 5417TIP3    H237743   6.475   0.487  10.484  0.7843 -1.2208 -1.3733
 5418TIP3   OH237744   0.362   3.839  11.585  0.1077 -0.8405  0.2566
 5418TIP3    H137745   0.364   3.900  11.511  0.4388  0.1697  1.0911
 5418TIP3    H237746   0.451   3.840  11.620 -0.4367 -0.0069  1.7017
 5419TIP3   OH237747   4.126   2.975   0.129  0.3399  0.2791 -0.0505
 5419TIP3    H137748   4.098   3.065   0.141  0.7450  0.4831 -0.6023
 5419TIP3    H237749   4.048   2.923   0.150 -0.5857  0.8503 -1.8793
 5420TIP3   OH237750   5.883   1.293   5.700 -0.2652 -0.1027  0.9860
 5420TIP3    H137751   5.845   1.208   5.676 -0.5262 -0.0926  1.3450
 5420TIP3    H237752   5.832   1.321   5.776  0.0364  0.2239  1.0715
 5421TIP3   OH237753   0.523   6.119  12.868  0.0284 -0.6363  1.0548
 5421TIP3    H137754   0.463   6.141  12.940 -1.3020 -1.4514  0.2421
 5421TIP3    H237755   0.507   6.186  12.802 -0.0964 -0.9356  0.7784
 5422TIP3   OH237756   4.567   0.980   0.859  0.0496 -0.9172  0.0887
 5422TIP3    H137757   4.557   0.999   0.952  1.3797 -2.6633  0.6399
 5422TIP3    H237758   4.496   0.918   0.840 -0.5391 -0.1667 -0.2098
 5423TIP3   OH237759   6.367   0.933   4.562  0.0150  0.0570 -0.4181
 5423TIP3    H137760   6.426   0.975   4.500 -0.0040 -0.8463 -1.0563
 5423TIP3    H237761   6.297   0.895   4.509  0.4555 -1.4850  0.0365
 5424TIP3   OH237762   4.072   4.558  14.129 -0.2198 -0.1137 -0.3513
 5424TIP3    H137763   4.084   4.478  14.077  1.1736 -0.6001  0.6639
 5424TIP3    H237764   4.153   4.608  14.116 -0.8074  0.8285 -0.4532
 5425TIP3   OH237765   1.167   4.567   0.529  0.2620  0.5753 -0.0997
 5425TIP3    H137766   1.128   4.579   0.616  0.0733  0.4204 -0.1654
 5425TIP3    H237767   1.251   4.613   0.535  0.1330  0.7896  0.0818
 5426TIP3   OH237768   6.449   5.776   5.567  0.4838 -0.1248  0.0008
 5426TIP3    H137769   6.491   5.844   5.619  0.2995 -0.5543  0.7205
 5426TIP3    H237770   6.504   5.699   5.580  0.9894  0.0076 -1.2252
 5427TIP3   OH237771   5.743   0.855  16.375  0.2617 -0.3971 -0.0335
 5427TIP3    H137772   5.803   0.888  16.307  1.6120  0.3275  1.4451
 5427TIP3    H237773   5.661   0.841  16.329  1.6138 -1.7402 -2.2312
 5428TIP3   OH237774   4.999   2.725  13.263  0.1761 -0.1399  0.1298
 5428TIP3    H137775   4.989   2.683  13.178 -1.3172 -0.5146  0.4684
 5428TIP3    H237776   5.082   2.691  13.297  0.7058 -0.1081 -1.0923
 5429TIP3   OH237777   1.400   2.054  14.364  0.1760  0.0439  0.7449
 5429TIP3    H137778   1.442   2.134  14.395 -1.7993  1.0335  1.0155
 5429TIP3    H237779   1.323   2.043  14.421 -1.1815 -0.4424 -1.0854
 5430TIP3   OH237780   2.455   0.224  16.233  0.5741  0.3667 -0.0453
 5430TIP3    H137781   2.544   0.218  16.199  1.2282 -0.0107  1.6476
 5430TIP3    H237782   2.465   0.248  16.325 -1.0152 -0.8911  0.5124
 5431TIP3   OH237783   0.660   6.533   5.316  0.2368 -0.3757  0.2161
 5431TIP3    H137784   0.578   6.581   5.299  0.7265  0.8107  1.0790
 5431TIP3    H237785   0.728   6.599   5.309  1.0225 -1.1186  0.6610
 5432TIP3   OH237786   2.391   3.544   3.508  0.6050 -0.1785 -0.0211
 5432TIP3    H137787   2.334   3.605   3.461  1.0247  0.6948  0.5726
 5432TIP3    H237788   2.478   3.583   3.503  0.8164 -0.5410  0.6972
 5433TIP3   OH237789   6.826   5.151   4.419 -0.4137  0.2558  0.0414
 5433TIP3    H137790   6.789   5.239   4.415 -0.4519  0.2469  0.1882
 5433TIP3    H237791   6.767   5.102   4.476 -1.7785 -0.5577 -1.9811
 5434TIP3   OH237792   6.373   3.321   2.650  0.2712  0.0405  0.1536
 5434TIP3    H137793   6.459   3.282   2.636  0.2319 -0.1268  0.3708
 5434TIP3    H237794   6.312   3.258   2.613  0.3205  0.8614 -1.4023
 5435TIP3   OH237795   1.537   0.868  12.753 -0.3403 -0.2778  0.7703
 5435TIP3    H137796   1.618   0.842  12.797 -0.3130 -0.8331  0.4053
 5435TIP3    H237797   1.550   0.842  12.662 -1.5858 -2.0148  1.0186
 5436TIP3   OH237798   4.350   4.110  15.073  0.1208  0.5282  0.0970
 5436TIP3    H137799   4.298   4.148  15.002 -1.5012  0.4851  1.2078
 5436TIP3    H237800   4.424   4.070  15.029 -1.7458 -1.0870 -1.8096
 5437TIP3   OH237801   0.124   3.782  10.934  0.5437  0.1663  0.1323
 5437TIP3    H137802   0.188   3.754  10.869  0.0946 -1.5637  0.4071
 5437TIP3    H237803   0.089   3.864  10.899  0.7434 -0.4213 -1.5040
 5438TIP3   OH237804   2.796   1.111   4.563 -0.5153  0.5194  0.0664
 5438TIP3    H137805   2.887   1.082   4.573 -1.0065 -0.9899  0.3968
 5438TIP3    H237806   2.761   1.056   4.493 -1.4909  0.2852  0.7258
 5439TIP3   OH237807   0.928   2.660   3.927  0.3914 -0.1396  0.6766
 5439TIP3    H137808   0.982   2.603   3.873 -1.0132 -0.7093 -0.1681
 5439TIP3    H237809   0.904   2.733   3.870  0.7480  0.4158  1.2241
 5440TIP3   OH237810   0.104   0.326   3.504  0.1408  0.1922  0.0780
 5440TIP3    H137811   0.025   0.272   3.498 -1.3700  2.2814 -0.5036
 5440TIP3    H237812   0.123   0.350   3.413 -0.4209  2.1095  0.4034
 5441TIP3   OH237813   3.806   0.621   3.625  0.0168  0.6705  0.4824
 5441TIP3    H137814   3.842   0.618   3.714  0.3507  0.0600  0.3303
 5441TIP3    H237815   3.846   0.699   3.586  0.3012  0.6288  0.6883
 5442TIP3   OH237816   1.282   4.507  13.540  0.3231  0.2978 -0.0922
 5442TIP3    H137817   1.330   4.581  13.577  1.7766 -1.0300  0.8284
 5442TIP3    H237818   1.349   4.456  13.495 -0.5628 -0.6847 -0.3357
 5443TIP3   OH237819   0.543   2.752  15.007  0.4033 -0.1268  0.4155
 5443TIP3    H137820   0.585   2.690  14.948  2.1791  0.4910  0.9607
 5443TIP3    H237821   0.502   2.697  15.075 -0.3774 -0.7677 -0.5477
 5444TIP3   OH237822   4.939   1.035  10.891 -0.1410  0.2210  0.4103
 5444TIP3    H137823   4.898   0.974  10.953 -0.7981 -0.9670 -1.1183
 5444TIP3    H237824   4.948   0.984  10.810 -1.6713  2.4083 -1.2757
 5445TIP3   OH237825   3.923   4.903  16.106  0.9858 -0.0771 -0.3318
 5445TIP3    H137826   4.008   4.883  16.145  1.1890 -0.1393 -0.8065
 5445TIP3    H237827   3.925   4.997  16.091  0.0758  0.3390  1.7865
 5446TIP3   OH237828   5.505   5.162   0.589 -0.2932 -0.3367  0.5029
 5446TIP3    H137829   5.528   5.119   0.671 -2.3203 -1.0253  0.7679
 5446TIP3    H237830   5.541   5.250   0.597  1.5206 -1.0714  1.1190
 5447TIP3   OH237831   0.321   5.037  11.737 -0.4801 -0.2902  0.1026
 5447TIP3    H137832   0.273   5.074  11.664 -0.9362  2.0000  1.4694
 5447TIP3    H237833   0.407   5.077  11.733  0.3231 -1.9936 -0.5207
 5448TIP3   OH237834   3.920   4.961   5.758 -0.4859 -1.0007 -0.1826
 5448TIP3    H137835   4.006   4.993   5.729 -0.6555  0.7146  1.0183
 5448TIP3    H237836   3.935   4.932   5.848 -1.1530 -0.6384  0.0526
 5449TIP3   OH237837   5.790   5.340  12.088 -0.1501 -0.6770  0.5108
 5449TIP3    H137838   5.694   5.340  12.081 -0.1283 -0.7553  0.2168
 5449TIP3    H237839   5.820   5.293  12.011  0.1055 -1.2170  0.9300
 5450TIP3   OH237840   4.920   2.383   2.299 -0.2167 -0.0556  0.0368
 5450TIP3    H137841   4.925   2.354   2.208 -0.9047 -0.9443  0.2688
 5450TIP3    H237842   4.829   2.368   2.325 -0.2366  0.9517  0.6350
 5451TIP3   OH237843   4.197   4.479  16.848  0.3573  0.6157  0.8110
 5451TIP3    H137844   4.272   4.538  16.849  2.1283 -1.4848  0.1419
 5451TIP3    H237845   4.135   4.521  16.788  2.5691  0.7110 -1.5997
 5452TIP3   OH237846   4.234   1.911  11.229  0.0049 -0.1920  0.4192
 5452TIP3    H137847   4.212   1.904  11.136  0.0015  0.0142  0.4032
 5452TIP3    H237848   4.329   1.903  11.232  0.2483  1.9506  0.1562
 5453TIP3   OH237849   1.578   1.417  14.916  0.1538 -0.2958 -0.5347
 5453TIP3    H137850   1.524   1.376  14.849  0.8944 -0.0371 -1.3080
 5453TIP3    H237851   1.667   1.416  14.880  0.9363 -1.9301  1.2541
 5454TIP3   OH237852   4.518   1.094   6.025  0.3098 -0.2248 -0.0093
 5454TIP3    H137853   4.455   1.031   6.060 -0.2062 -0.1564 -0.7825
 5454TIP3    H237854   4.553   1.051   5.947  0.7957 -0.0177  0.0948
 5455TIP3   OH237855   3.135   5.482   3.143 -0.3459  0.0164  0.3980
 5455TIP3    H137856   3.150   5.497   3.236  1.4180 -0.2142  0.1762
 5455TIP3    H237857   3.161   5.563   3.100  1.1697 -0.6944 -0.0779
 5456TIP3   OH237858   6.298   1.949   1.958 -0.1170 -0.0083 -0.2928
 5456TIP3    H137859   6.375   1.954   2.014  0.3869 -0.5166 -0.9122
 5456TIP3    H237860   6.324   1.993   1.877 -0.5217 -0.0533 -0.4505
 5457TIP3   OH237861   6.774   1.181   1.583  0.4067  0.1973  0.0030
 5457TIP3    H137862   6.762   1.273   1.606  0.2865 -0.2240  1.7326
 5457TIP3    H237863   6.807   1.183   1.493  0.4589  1.9197  0.0300
 5458TIP3   OH237864   5.176   5.483  16.128  0.0486  0.4868 -0.3977
 5458TIP3    H137865   5.146   5.470  16.218  0.1248  1.4156 -0.2379
 5458TIP3    H237866   5.115   5.431  16.075 -1.6748  2.0583 -0.0403
 5459TIP3   OH237867   0.138   3.328   0.317 -0.2060 -0.7645  0.9418
 5459TIP3    H137868   0.176   3.354   0.234 -1.1435 -1.4102  0.2883
 5459TIP3    H237869   0.201   3.268   0.355  0.4053 -0.1681  0.8926
 5460TIP3   OH237870   6.324   2.244   1.472 -0.3894  0.4774  0.5714
 5460TIP3    H137871   6.269   2.240   1.393  0.9721 -0.0092 -0.3945
 5460TIP3    H237872   6.294   2.321   1.518 -0.8596  1.0990 -0.7162
 5461TIP3   OH237873   4.750   6.480  16.825  0.5653 -0.1428  0.2414
 5461TIP3    H137874   4.807   6.524  16.763  1.0879 -0.8485  0.2030
 5461TIP3    H237875   4.807   6.460  16.899 -0.0966  0.8516  1.0351
 5462TIP3   OH237876   6.772   5.122  12.668 -0.1833  0.0161 -0.0227
 5462TIP3    H137877   6.771   5.028  12.650  1.6459  0.0526 -0.5354
 5462TIP3    H237878   6.857   5.138  12.708 -0.5421  1.4414  0.2439
 5463TIP3   OH237879   5.805   4.706   1.446  0.3060  0.2101 -0.2888
 5463TIP3    H137880   5.853   4.748   1.375  0.1716 -2.1018 -1.8375
 5463TIP3    H237881   5.728   4.762   1.459  0.6684  1.0262 -1.4928
 5464TIP3   OH237882   6.318   3.212  16.361  0.1857  0.1852  1.0572
 5464TIP3    H137883   6.253   3.177  16.300  0.9117  0.5921  0.0271
 5464TIP3    H237884   6.393   3.234  16.307  1.7843 -1.6010  2.3830
 5465TIP3   OH237885   5.402   2.676   5.557  0.5588  0.3480  1.0021
 5465TIP3    H137886   5.327   2.620   5.536  0.2930  0.7303  0.9303
 5465TIP3    H237887   5.385   2.757   5.510  0.5425  0.7879  1.7654
 5466TIP3   OH237888   0.819   1.245   2.592  0.2680  0.4069  0.4845
 5466TIP3    H137889   0.890   1.180   2.592 -0.6153 -0.7191  3.0120
 5466TIP3    H237890   0.851   1.316   2.536  1.6146 -1.8234 -1.7796
 5467TIP3   OH237891   0.886   5.924  14.272  0.8402 -0.2714  0.3897
 5467TIP3    H137892   0.847   5.980  14.205 -2.5757 -2.5540  0.2161
 5467TIP3    H237893   0.895   5.838  14.230  1.9275 -0.9306  1.8521
 5468TIP3   OH237894   6.627   5.385   0.128 -0.7790 -0.3003 -0.3771
 5468TIP3    H137895   6.707   5.400   0.179 -1.8219 -1.2331  1.6289
 5468TIP3    H237896   6.653   5.323   0.060  0.3917  0.1026 -0.3270
 5469TIP3   OH237897   5.304   3.387   0.433  0.0065  0.0025  0.2964
 5469TIP3    H137898   5.305   3.453   0.502 -0.2686  1.9088 -1.4009
 5469TIP3    H237899   5.396   3.372   0.412  0.0678 -0.0788  0.6270
 5470TIP3   OH237900   6.346   5.015   0.474 -0.3500  0.2669 -0.1332
 5470TIP3    H137901   6.254   5.001   0.496  0.1137 -2.5179  0.4402
 5470TIP3    H237902   6.391   5.018   0.559  0.2681 -0.2774 -0.4226
 5471TIP3   OH237903   3.394   2.511  15.074  0.1931 -0.0295  0.2254
 5471TIP3    H137904   3.307   2.529  15.109 -0.1618 -0.5259 -0.3848
 5471TIP3    H237905   3.401   2.566  14.996  0.2060 -0.3953 -0.0373
 5472TIP3   OH237906   1.434   1.696   4.756 -0.0826 -0.5479  0.3244
 5472TIP3    H137907   1.418   1.631   4.824 -1.0925 -0.3949  0.2421
 5472TIP3    H237908   1.424   1.648   4.674  1.0314 -0.7084  0.2614
 5473TIP3   OH237909   1.035   4.892  14.019  1.2403  0.4429 -0.4918
 5473TIP3    H137910   1.114   4.838  14.019  1.6090  0.9298  0.8997
 5473TIP3    H237911   1.067   4.981  14.001  0.6771  0.3095 -2.4558
 5474TIP3   OH237912   5.583   3.359  13.979 -0.0190 -0.5421 -0.1679
 5474TIP3    H137913   5.643   3.390  14.047 -2.1415  0.5510  1.3159
 5474TIP3    H237914   5.632   3.370  13.898  1.4818  1.0913  0.8822
 5475TIP3   OH237915   0.775   5.053  12.825 -0.3667 -0.5669 -0.3131
 5475TIP3    H137916   0.836   5.076  12.895 -1.3254 -1.9937  1.0795
 5475TIP3    H237917   0.829   5.008  12.760  0.2816 -0.7512  0.3383
 5476TIP3   OH237918   0.851   6.749  16.314  0.1507 -0.1319 -0.1449
 5476TIP3    H137919   0.903   6.681  16.358 -2.9177 -1.6779  1.4299
 5476TIP3    H237920   0.824   6.708  16.232 -0.3296 -0.1830  0.0364
 5477TIP3   OH237921   3.181   2.064   6.489 -0.5321  0.4818  0.1252
 5477TIP3    H137922   3.212   1.983   6.449 -0.1649  0.2058  0.9322
 5477TIP3    H237923   3.117   2.099   6.427 -1.1494 -0.7359  0.0310
 5478TIP3   OH237924   2.284   6.612   6.178  0.2739  0.4454 -0.0963
 5478TIP3    H137925   2.305   6.634   6.087 -1.2661 -1.7299 -1.0774
 5478TIP3    H237926   2.337   6.534   6.197 -0.0756  0.3575  0.5466
 5479TIP3   OH237927   5.152   5.826   0.426  0.0247 -0.0438  0.0707
 5479TIP3    H137928   5.089   5.898   0.425  1.1529  0.9986  0.5295
 5479TIP3    H237929   5.156   5.799   0.518  1.0811  0.7121  0.2768
 5480TIP3   OH237930   6.168   4.678  14.095 -0.0924 -0.3227  0.1925
 5480TIP3    H137931   6.145   4.771  14.095 -1.1590 -0.5831  0.4668
 5480TIP3    H237932   6.234   4.670  14.026  0.4807  0.7474  0.5908
 5481TIP3   OH237933   5.449   6.229  11.496 -0.0371 -0.3656  0.1575
 5481TIP3    H137934   5.488   6.142  11.497 -0.3109 -0.4921  1.6058
 5481TIP3    H237935   5.462   6.260  11.406 -0.8706 -2.3042 -0.6726
 5482TIP3   OH237936   1.286   4.033  14.929 -0.2953 -0.0696  0.7636
 5482TIP3    H137937   1.340   4.080  14.867  1.9849 -1.5632  1.4773
 5482TIP3    H237938   1.308   3.941  14.915 -2.3054 -0.7160  1.4682
 5483TIP3   OH237939   6.755   2.266  13.782 -0.2054 -0.0644  0.4106
 5483TIP3    H137940   6.737   2.173  13.775 -1.0311  0.0086  1.3451
 5483TIP3    H237941   6.673   2.304  13.815  1.0263  0.5424  3.0377
 5484TIP3   OH237942   4.401   1.647  15.613 -0.5233  0.9583 -0.7928
 5484TIP3    H137943   4.326   1.705  15.627 -0.7512  0.5255 -0.1400
 5484TIP3    H237944   4.420   1.654  15.520 -0.8634  1.6899 -0.8173
 5485TIP3   OH237945   2.205   1.168   4.474  0.3282 -0.4161  0.3263
 5485TIP3    H137946   2.295   1.182   4.504  0.8874 -0.4311 -1.2763
 5485TIP3    H237947   2.213   1.113   4.397 -1.0830 -0.5365  0.2299
 5486TIP3   OH237948   1.711   1.766  10.725 -0.1731  0.2765 -0.4344
 5486TIP3    H137949   1.795   1.722  10.721 -0.4951 -0.4048  0.1969
 5486TIP3    H237950   1.732   1.857  10.748  0.3075 -0.1511  0.8560
 5487TIP3   OH237951   4.688   4.202  11.707 -0.5718  0.0334  0.4307
 5487TIP3    H137952   4.738   4.264  11.655 -0.3934  1.9724  2.7564
 5487TIP3    H237953   4.737   4.120  11.700 -0.0404  0.4760 -1.5919
 5488TIP3   OH237954   2.476   4.737   4.433  0.0909 -0.1427  0.9180
 5488TIP3    H137955   2.423   4.812   4.404  1.0328 -0.2341 -1.2372
 5488TIP3    H237956   2.413   4.667   4.447 -0.5553  0.3195  0.3935
 5489TIP3   OH237957   3.364   5.558  13.439  0.4991  0.1279 -0.1214
 5489TIP3    H137958   3.392   5.537  13.529  1.1387  0.3052 -0.2771
 5489TIP3    H237959   3.285   5.505  13.426  0.4489  0.0345  0.5159
 5490TIP3   OH237960   5.011   2.146  11.538 -0.0073  0.4245  0.0973
 5490TIP3    H137961   5.075   2.211  11.507  1.3905 -0.1922  1.5526
 5490TIP3    H237962   5.030   2.137  11.632 -0.2031 -2.0163 -0.0434
 5491TIP3   OH237963   5.475   1.916  13.531  0.3804  0.1254  1.1793
 5491TIP3    H137964   5.555   1.919  13.583  0.8914  1.8210  0.3681
 5491TIP3    H237965   5.405   1.938  13.592  0.9005  1.4864  1.3284
 5492TIP3   OH237966   4.458   0.596   1.406  0.0086 -0.7308 -0.0546
 5492TIP3    H137967   4.551   0.606   1.427 -0.2548  0.1490  0.7708
 5492TIP3    H237968   4.442   0.659   1.336  0.0404 -0.8858 -0.2003
 5493TIP3   OH237969   1.665   0.984   1.276  0.1426 -0.0373 -0.0937
 5493TIP3    H137970   1.685   0.934   1.356  2.2633 -1.0987 -1.2077
 5493TIP3    H237971   1.570   0.996   1.279  0.1213 -0.2408  2.4549
 5494TIP3   OH237972   3.851   5.569   5.277  0.4137 -0.3261  0.1044
 5494TIP3    H137973   3.914   5.595   5.344  2.0521 -0.2118 -1.4085
 5494TIP3    H237974   3.773   5.542   5.326  2.4239 -2.7957  2.2245
 5495TIP3   OH237975   4.776   1.577   2.137  0.1356  0.6856  0.4216
 5495TIP3    H137976   4.710   1.646   2.130  0.9813  1.3358 -2.0714
 5495TIP3    H237977   4.762   1.523   2.060  1.4820 -0.1251  0.7227
 5496TIP3   OH237978   2.530   6.695  10.418  0.0299  0.5262 -0.0468
 5496TIP3    H137979   2.517   6.774  10.470  1.6455 -0.8837  2.6834
 5496TIP3    H237980   2.620   6.703  10.385 -0.2382  0.3875 -0.8327
 5497TIP3   OH237981   4.222   0.282  12.803  0.3509 -0.0824 -0.3497
 5497TIP3    H137982   4.296   0.327  12.763  1.3424 -1.1157  0.2798
 5497TIP3    H237983   4.261   0.211  12.854 -1.1063 -0.9856 -0.4375
 5498TIP3   OH237984   5.109   4.905   2.724  0.6280 -0.0520  1.4452
 5498TIP3    H137985   5.039   4.955   2.682  0.9015  0.8840  2.0643
 5498TIP3    H237986   5.072   4.880   2.809  1.0412  0.4491  1.7745
 5499TIP3   OH237987   1.712   1.521  13.649 -0.2482  0.1137 -0.1095
 5499TIP3    H137988   1.624   1.490  13.673 -0.3459 -0.2618 -0.9295
 5499TIP3    H237989   1.706   1.616  13.654 -0.0193  0.0588  2.2050
 5500TIP3   OH237990   6.598   5.864   6.348  0.5754  0.7757  0.2152
 5500TIP3    H137991   6.691   5.866   6.324  0.8353  1.3615  1.2065
 5500TIP3    H237992   6.579   5.771   6.362  0.9469  0.6294 -0.2466
 5501TIP3   OH237993   3.538   2.717   1.264  0.2443  0.2658  0.1535
 5501TIP3    H137994   3.586   2.665   1.329 -0.7687  0.6420  1.2322
 5501TIP3    H237995   3.446   2.699   1.282 -0.0829  1.2548 -0.4633
 5502TIP3   OH237996   6.216   6.619   3.431 -0.0278 -0.3295  0.1099
 5502TIP3    H137997   6.160   6.669   3.371 -0.1872 -1.7820 -1.0187
 5502TIP3    H237998   6.301   6.614   3.386 -0.8395 -3.6235 -1.3888
 5503TIP3   OH237999   2.368   2.517  11.162  0.0537  0.4488 -0.5913
 5503TIP3    H138000   2.432   2.582  11.191  0.3421 -0.1890  0.2325
 5503TIP3    H238001   2.372   2.521  11.067 -0.8832  2.5620 -0.5973
 5504TIP3   OH238002   3.557   6.665   6.852  0.5170  0.1131 -0.4892
 5504TIP3    H138003   3.467   6.684   6.878  0.5961  0.1743 -0.2556
 5504TIP3    H238004   3.568   6.571   6.870  1.3770  0.6540  2.1964
 5505TIP3   OH238005   5.034   2.192   0.322 -0.3115  0.9430 -0.0744
 5505TIP3    H138006   5.013   2.283   0.299  0.0069  0.8672 -0.6773
 5505TIP3    H238007   4.949   2.151   0.337 -0.6082  0.7716 -1.9923
 5506TIP3   OH238008   5.890   3.722  14.713  0.4500  0.6921  0.0071
 5506TIP3    H138009   5.906   3.722  14.808 -1.7575  3.2163  0.5160
 5506TIP3    H238010   5.817   3.660  14.702 -0.0987  1.2982  0.1711
 5507TIP3   OH238011   4.490   1.399  15.307 -0.0790  0.0271 -0.1722
 5507TIP3    H138012   4.466   1.490  15.323  0.5627  0.1515  0.1117
 5507TIP3    H238013   4.544   1.401  15.227  1.3099  0.1291  0.7284
 5508TIP3   OH238014   2.244   4.495   2.409  0.1844 -0.0680 -0.2929
 5508TIP3    H138015   2.286   4.451   2.483 -0.1089 -0.7660 -0.5285
 5508TIP3    H238016   2.295   4.575   2.396 -1.2003  1.3288  2.2052
 5509TIP3   OH238017   6.091   2.239   3.422  0.1851 -0.2920 -0.1196
 5509TIP3    H138018   6.091   2.334   3.440 -3.7018 -0.1365 -0.0863
 5509TIP3    H238019   6.053   2.201   3.501 -0.4494 -1.6266 -1.0520
 5510TIP3   OH238020   3.529   1.572   3.678 -0.1677 -0.0393 -0.3686
 5510TIP3    H138021   3.617   1.584   3.642 -0.2899  1.4967 -0.2519
 5510TIP3    H238022   3.542   1.517   3.755  0.6187 -0.2888 -0.6733
 5511TIP3   OH238023   0.191   4.979  13.574  0.2246  0.0448  0.2975
 5511TIP3    H138024   0.161   5.068  13.591 -0.0608 -0.0779  0.4484
 5511TIP3    H238025   0.128   4.923  13.620  0.1529 -0.2476 -0.1519
 5512TIP3   OH238026   2.037   3.414   4.082 -0.2852  0.2380 -0.7539
 5512TIP3    H138027   2.058   3.382   3.994  0.0136 -0.0664 -0.5679
 5512TIP3    H238028   2.093   3.364   4.141  0.3269  1.2160 -0.4754
 5513TIP3   OH238029   1.309   5.004   2.086  0.6542  0.6544  0.3343
 5513TIP3    H138030   1.260   5.072   2.132 -0.6818  1.3108 -1.9095
 5513TIP3    H238031   1.243   4.941   2.059  1.1261  1.0832 -1.9671
 5514TIP3   OH238032   1.385   5.094  13.708 -0.1891  0.0082 -0.4382
 5514TIP3    H138033   1.408   5.050  13.626  3.4711  1.5079 -0.3987
 5514TIP3    H238034   1.411   5.032  13.777 -1.3144 -0.3865 -0.3345
 5515TIP3   OH238035   3.232   6.039   0.675 -0.1425  0.0261  0.2212
 5515TIP3    H138036   3.169   6.069   0.610 -0.2637  1.3196  0.8987
 5515TIP3    H238037   3.279   5.968   0.632 -1.7759 -0.7082 -0.4486
 5516TIP3   OH238038   6.643   1.617  15.334  0.3745  0.5133  0.0093
 5516TIP3    H138039   6.596   1.679  15.390 -1.1351  0.0247 -0.6637
 5516TIP3    H238040   6.606   1.532  15.358  1.8730 -0.0574  0.3791
 5517TIP3   OH238041   2.416   4.131   6.083  0.6040  0.2340 -0.1980
 5517TIP3    H138042   2.434   4.073   6.157  0.2082 -0.2010 -0.4311
 5517TIP3    H238043   2.470   4.096   6.012  0.0875 -0.0774 -0.4414
 5518TIP3   OH238044   6.644   6.669  15.509 -0.1044  0.0096  0.9050
 5518TIP3    H138045   6.576   6.601  15.503 -0.0328 -0.0067  0.1913
 5518TIP3    H238046   6.665   6.673  15.602 -0.4511 -0.6155  1.0198
 5519TIP3   OH238047   1.445   5.356  14.595 -0.3462  0.2222 -0.0489
 5519TIP3    H138048   1.380   5.357  14.525 -0.0288 -0.1754 -0.3547
 5519TIP3    H238049   1.396   5.377  14.674 -0.6803  0.8136 -0.4122
 5520TIP3   OH238050   4.658   0.855  16.522 -0.0353 -0.6832  0.2559
 5520TIP3    H138051   4.726   0.827  16.583  1.6035 -0.7902 -1.5406
 5520TIP3    H238052   4.628   0.939  16.556  0.2453 -1.1194  1.6252
 5521TIP3   OH238053   3.189   5.211  14.669 -0.0027  0.4406  0.0696
 5521TIP3    H138054   3.240   5.130  14.669  0.7207  0.8859  0.9281
 5521TIP3    H238055   3.254   5.281  14.678 -0.4176  1.2793 -2.5832
 5522TIP3   OH238056   3.314   0.838   6.691  0.1531 -0.0520 -0.0718
 5522TIP3    H138057   3.358   0.783   6.626  0.4034 -0.1912  0.2121
 5522TIP3    H238058   3.232   0.792   6.710 -0.2532  0.3524 -0.8107
 5523TIP3   OH238059   1.288   1.198  14.560 -0.0576 -0.3538 -0.4363
 5523TIP3    H138060   1.327   1.150  14.633  1.7220  0.9635 -0.4554
 5523TIP3    H238061   1.318   1.288  14.572 -0.3255  0.0418 -2.3857
 5524TIP3   OH238062   1.748   3.069  14.983 -0.2225 -0.4157  0.4258
 5524TIP3    H138063   1.755   3.037  14.893  3.2144  1.0430  0.0321
 5524TIP3    H238064   1.734   3.163  14.974 -3.2102 -0.6480  1.5407
 5525TIP3   OH238065   2.569   1.644   5.350 -0.2349  0.6938 -0.3556
 5525TIP3    H138066   2.531   1.557   5.341 -1.0966  1.0695 -0.4160
 5525TIP3    H238067   2.503   1.695   5.397  0.1025  1.4110 -0.6415
 5526TIP3   OH238068   3.446   2.574   2.309  0.7972 -0.3615 -0.2193
 5526TIP3    H138069   3.539   2.551   2.317  0.4458 -1.4821  1.0142
 5526TIP3    H238070   3.444   2.668   2.325  1.6500 -0.4469  0.5440
 5527TIP3   OH238071   4.873   6.610   1.719  0.3151 -0.1333  0.9266
 5527TIP3    H138072   4.785   6.631   1.689  0.7484  0.6674  0.1688
 5527TIP3    H238073   4.903   6.690   1.763  1.0247 -0.0266  0.2844
 5528TIP3   OH238074   3.994   6.436   4.136 -0.6939 -0.0581  0.4598
 5528TIP3    H138075   4.040   6.435   4.220  1.2078  0.4987 -0.5172
 5528TIP3    H238076   4.043   6.498   4.082 -0.5265 -1.9809 -1.7724
 5529TIP3   OH238077   3.428   3.515  13.516  0.0999  0.0923 -0.3055
 5529TIP3    H138078   3.426   3.601  13.473  1.7315  0.8197  0.9589
 5529TIP3    H238079   3.443   3.535  13.608 -1.0770 -1.5130  0.2646
 5530TIP3   OH238080   2.011   4.944   5.491 -0.0245 -0.3450 -0.5576
 5530TIP3    H138081   2.017   5.010   5.560 -0.8853 -2.4145  1.6031
 5530TIP3    H238082   1.922   4.911   5.496  0.8999 -3.0695 -0.1680
 5531TIP3   OH238083   4.328   3.285   0.649  0.7562  0.4526 -0.4860
 5531TIP3    H138084   4.253   3.304   0.593  1.5359  1.1467 -1.3376
 5531TIP3    H238085   4.305   3.204   0.694 -1.0212  1.3039  0.2245
 5532TIP3   OH238086   1.519   2.449  11.869  0.1050 -0.4773 -0.1518
 5532TIP3    H138087   1.587   2.498  11.823 -0.8510  0.6640 -0.3963
 5532TIP3    H238088   1.477   2.397  11.801 -0.5540  0.3350 -0.3811
 5533TIP3   OH238089   2.882   2.145  14.482 -0.4533 -0.2189  0.0806
 5533TIP3    H138090   2.826   2.154  14.559 -0.0190  0.1701  0.3597
 5533TIP3    H238091   2.929   2.063  14.496  0.0562  0.1405  0.5262
 5534TIP3   OH238092   1.509   3.630  12.850  0.1276 -0.4965 -0.1172
 5534TIP3    H138093   1.444   3.698  12.867 -0.9976 -1.3290 -0.9499
 5534TIP3    H238094   1.567   3.634  12.926 -1.8598 -0.8303  1.5101
 5535TIP3   OH238095   2.208   5.511  12.309  0.1582  0.2398  0.0037
 5535TIP3    H138096   2.231   5.556  12.390  1.3367 -0.1610 -0.0860
 5535TIP3    H238097   2.192   5.421  12.334  1.2821 -0.0612 -0.2873
 5536TIP3   OH238098   1.870   4.670   4.276  0.3263  0.3287  0.8731
 5536TIP3    H138099   1.923   4.600   4.237  0.3040  0.3810  0.7488
 5536TIP3    H238100   1.926   4.706   4.345  0.9071  1.1207  0.0191
 5537TIP3   OH238101   0.977   2.492  11.259  0.6341 -0.0823  0.2424
 5537TIP3    H138102   1.013   2.542  11.332  2.6081 -1.7600  0.4937
 5537TIP3    H238103   0.918   2.554  11.215  1.5576  1.8511  1.5793
 5538TIP3   OH238104   5.180   6.743  16.424  0.4716 -0.0981 -0.7240
 5538TIP3    H138105   5.114   6.803  16.459  0.6224 -0.7140  0.6866
 5538TIP3    H238106   5.184   6.672  16.488  2.1619 -0.3132 -1.0251
 5539TIP3   OH238107   5.422   2.204   3.388 -0.3342 -0.1846 -0.3899
 5539TIP3    H138108   5.510   2.236   3.405 -0.8488  1.4579 -0.5824
 5539TIP3    H238109   5.413   2.207   3.293 -0.8269  0.3549 -0.3315
 5540TIP3   OH238110   0.365   0.056   1.656 -0.1805 -0.4361 -0.2241
 5540TIP3    H138111   0.275   0.062   1.689  0.3109 -0.0533  1.0868
 5540TIP3    H238112   0.363   0.102   1.572 -1.3214 -0.9169 -0.4904
 5541TIP3   OH238113   3.445   1.660   0.917 -0.0757 -0.2641 -0.0093
 5541TIP3    H138114   3.495   1.610   0.982  0.5089 -1.6798 -1.4707
 5541TIP3    H238115   3.357   1.665   0.953 -0.8950 -4.6356 -0.7908
 5542TIP3   OH238116   6.155   4.321   2.350  0.3522 -0.0897 -0.1898
 5542TIP3    H138117   6.211   4.244   2.362  2.0961  1.3681  1.7051
 5542TIP3    H238118   6.104   4.327   2.430 -0.9150 -0.0867 -0.9647
 5543TIP3   OH238119   1.734   5.143   5.125  0.3002  0.0036 -0.1251
 5543TIP3    H138120   1.784   5.138   5.044  1.6729  0.7508  0.6501
 5543TIP3    H238121   1.642   5.139   5.096  0.6954  1.8460 -1.8719
 5544TIP3   OH238122   3.746   6.083  15.440 -0.2423  0.5447  0.0910
 5544TIP3    H138123   3.656   6.083  15.472 -0.3690 -1.3197 -0.1380
 5544TIP3    H238124   3.744   6.138  15.361 -1.4866 -0.4991 -0.6476
 5545TIP3   OH238125   1.645   1.244   4.680  0.5328 -0.7674  0.1355
 5545TIP3    H138126   1.705   1.212   4.612  0.6711  1.0074 -0.6339
 5545TIP3    H238127   1.675   1.333   4.698 -0.5027 -0.6468  1.3853
 5546TIP3   OH238128   1.728   4.164  13.862 -0.2011 -0.3139 -0.5031
 5546TIP3    H138129   1.735   4.140  13.770  0.5513 -1.6107 -0.1274
 5546TIP3    H238130   1.817   4.156  13.896 -0.5182 -0.1260  0.4024
 5547TIP3   OH238131   4.159   2.025   4.075  0.0111 -0.2841 -0.2046
 5547TIP3    H138132   4.089   2.061   4.130  0.3889 -1.2999  0.9713
 5547TIP3    H238133   4.122   2.027   3.986 -1.5686 -0.9079  0.3958
 5548TIP3   OH238134   5.329   1.697  12.469  0.4282  0.0340 -0.6301
 5548TIP3    H138135   5.386   1.709  12.393 -0.7105 -0.5567 -1.6115
 5548TIP3    H238136   5.243   1.728  12.440 -0.3885 -1.6677 -0.1526
 5549TIP3   OH238137   2.870   2.360  15.366 -0.2114  0.0649 -0.1881
 5549TIP3    H138138   2.887   2.454  15.360 -1.5517  0.3436  0.0601
 5549TIP3    H238139   2.952   2.323  15.400  1.9354  0.4977 -4.2601
 5550TIP3   OH238140   1.299   2.831   1.750 -0.5544  0.0135 -0.2128
 5550TIP3    H138141   1.368   2.863   1.808  0.1643  0.9039 -1.5250
 5550TIP3    H238142   1.220   2.832   1.805 -0.0374  1.5246  0.5479
 5551TIP3   OH238143   2.897   5.587   2.461 -0.3566  0.0025 -0.2296
 5551TIP3    H138144   2.902   5.638   2.542 -2.1828 -1.3992  0.8487
 5551TIP3    H238145   2.940   5.641   2.395 -0.1321  1.8471  1.3664
 5552TIP3   OH238146   4.800   2.484  12.084 -0.0174 -0.1318 -0.3457
 5552TIP3    H138147   4.811   2.438  12.167 -1.5372 -0.1269 -0.1100
 5552TIP3    H238148   4.879   2.538  12.076  0.3213 -0.4040  0.9176
 5553TIP3   OH238149   1.060   4.470   6.533  0.1886  0.5318 -0.5498
 5553TIP3    H138150   1.148   4.471   6.496 -0.4620  0.2646 -2.1631
 5553TIP3    H238151   1.024   4.385   6.507 -0.9682  1.1249 -0.9377
 5554TIP3   OH238152   0.163   5.908  15.305 -0.0417 -0.3186  0.5403
 5554TIP3    H138153   0.214   5.828  15.316  2.5962  1.4677  3.2038
 5554TIP3    H238154   0.075   5.886  15.334  0.0647 -2.6638 -0.7081
 5555TIP3   OH238155   1.020   4.212   3.368 -0.0290 -0.7129 -0.1668
 5555TIP3    H138156   1.037   4.147   3.300 -0.5718 -1.6678  0.5899
 5555TIP3    H238157   0.935   4.248   3.346 -0.5380 -1.5438  0.3931
 5556TIP3   OH238158   0.778   4.336   2.915 -0.2167 -0.4620 -0.6053
 5556TIP3    H138159   0.859   4.284   2.918  0.2010  0.2230  0.3063
 5556TIP3    H238160   0.708   4.270   2.909  0.3294 -1.1233  0.0785
 5557TIP3   OH238161   1.427   5.746   6.101  0.5649 -0.0842 -0.1719
 5557TIP3    H138162   1.343   5.703   6.120  1.5539 -1.6319  0.9044
 5557TIP3    H238163   1.484   5.721   6.174  1.9275  1.1135 -0.7697
 5558TIP3   OH238164   2.722   6.092  12.716  0.0584  0.2405  0.0638
 5558TIP3    H138165   2.640   6.141  12.715  0.5324  1.0637  0.1565
 5558TIP3    H238166   2.726   6.054  12.804 -0.6779 -0.6238 -0.2596
 5559TIP3   OH238167   0.099   6.207   1.742 -0.3117  0.4126 -0.3482
 5559TIP3    H138168   0.182   6.167   1.766 -1.2696 -0.9448  0.8402
 5559TIP3    H238169   0.094   6.286   1.796 -0.2692 -0.0898  0.4107
 5560TIP3   OH238170   2.258   1.018  14.650 -0.0239 -0.2716  0.0686
 5560TIP3    H138171   2.285   1.092  14.596  0.6468 -1.2059 -0.9042
 5560TIP3    H238172   2.237   1.057  14.735  0.1438  1.0494 -0.4782
 5561TIP3   OH238173   0.136   6.360  17.025  0.0239 -0.4833 -0.2040
 5561TIP3    H138174   0.066   6.399  16.974 -0.0967  1.2860  1.2287
 5561TIP3    H238175   0.091   6.310  17.093  0.1907 -2.3067 -1.3479
 5562TIP3   OH238176   0.951   2.138   3.004 -0.1707 -0.1555  0.7697
 5562TIP3    H138177   1.035   2.157   2.963  0.6888 -1.1367  1.9807
 5562TIP3    H238178   0.896   2.213   2.983  0.7866  0.1903 -0.6302
 5563TIP3   OH238179   0.253   5.007  16.944 -1.1615 -0.5998 -0.0401
 5563TIP3    H138180   0.329   4.958  16.975 -1.4124 -1.0108 -0.0505
 5563TIP3    H238181   0.270   5.023  16.851 -0.3413  0.7630  0.3306
 5564TIP3   OH238182   4.066   5.465   5.832  0.2268 -0.2944 -0.1394
 5564TIP3    H138183   4.000   5.456   5.901 -0.8697 -1.7241 -1.2945
 5564TIP3    H238184   4.140   5.413   5.863 -0.3704 -1.1639 -0.1367
 5565TIP3   OH238185   5.222   1.734  14.788 -0.2106  0.1939 -0.8394
 5565TIP3    H138186   5.301   1.701  14.830 -1.0028 -0.6293  0.0652
 5565TIP3    H238187   5.160   1.661  14.794 -1.6329  1.4207  0.1066
 5566TIP3   OH238188   0.084   5.703   5.605  0.7702 -0.1784  0.3360
 5566TIP3    H138189   0.002   5.717   5.653  0.2326 -2.8547  0.3885
 5566TIP3    H238190   0.075   5.752   5.524  0.3415  1.8373  1.5545
 5567TIP3   OH238191   4.513   1.055   0.125 -0.3018  0.0798 -0.2505
 5567TIP3    H138192   4.505   1.008   0.208 -0.7995  1.1832  0.3484
 5567TIP3    H238193   4.500   0.988   0.058 -2.7483 -0.3854  0.5802
 5568TIP3   OH238194   5.911   0.904  11.329 -0.0343 -0.3536 -0.7241
 5568TIP3    H138195   5.998   0.917  11.365 -0.6459  1.0932  0.3611
 5568TIP3    H238196   5.924   0.904  11.234  1.3218 -1.8555 -0.5794
 5569TIP3   OH238197   1.956   2.817  15.623 -0.2194 -0.3881 -0.3031
 5569TIP3    H138198   1.957   2.889  15.686 -2.8593 -0.5455  0.0688
 5569TIP3    H238199   1.886   2.760  15.655  1.0032 -2.5190 -1.2527
 5570TIP3   OH238200   5.986   6.324   2.801  0.1403  0.1473 -0.0077
 5570TIP3    H138201   6.000   6.416   2.823  0.7537  0.2485 -0.7795
 5570TIP3    H238202   5.936   6.289   2.875  0.5280  0.9211  0.6391
 5571TIP3   OH238203   3.271   6.666  15.460 -0.4187  0.0344  0.0730
 5571TIP3    H138204   3.282   6.613  15.381  0.1348  0.1805  0.0487
 5571TIP3    H238205   3.207   6.618  15.513 -1.4665  0.3792 -0.8458
 5572TIP3   OH238206   3.854   1.789   6.398  0.1729 -0.1955 -0.4602
 5572TIP3    H138207   3.864   1.784   6.493 -1.3749  0.0242 -0.2584
 5572TIP3    H238208   3.796   1.716   6.376 -0.4690  0.4776 -1.0612
 5573TIP3   OH238209   3.464   1.846  14.880  0.7254 -0.1032 -0.2756
 5573TIP3    H138210   3.397   1.806  14.936  0.0511 -0.0225 -1.0132
 5573TIP3    H238211   3.542   1.849  14.935 -0.1022  0.6212  0.9078
 5574TIP3   OH238212   4.955   2.566   3.617 -0.0345 -0.1340 -0.2639
 5574TIP3    H138213   4.918   2.484   3.648  2.5239 -0.6355  1.8550
 5574TIP3    H238214   5.008   2.597   3.690  0.9759  2.2054 -1.8612
 5575TIP3   OH238215   0.324   0.123   5.887  0.1412 -0.2035  0.7590
 5575TIP3    H138216   0.336   0.054   5.952  0.4955 -0.2930  0.6001
 5575TIP3    H238217   0.242   0.165   5.912 -3.7226 -4.6519 -2.6673
 5576TIP3   OH238218   1.622   1.500   3.645  0.0461 -0.0312  0.0346
 5576TIP3    H138219   1.597   1.585   3.609 -1.9543  0.0670  1.4835
 5576TIP3    H238220   1.716   1.506   3.660  0.3491  1.0940 -1.9379
 5577TIP3   OH238221   2.565   6.316  15.412 -0.6842  0.3644  0.4210
 5577TIP3    H138222   2.619   6.238  15.404  0.6956  1.3002  0.2860
 5577TIP3    H238223   2.497   6.291  15.476  0.7986 -0.3773  1.7800
 5578TIP3   OH238224   4.390   4.111   0.182 -0.0263  0.4155  0.0501
 5578TIP3    H138225   4.456   4.103   0.113 -0.1730 -3.0413  0.1034
 5578TIP3    H238226   4.308   4.123   0.136  0.0017 -0.9055 -0.3851
 5579TIP3   OH238227   1.822   5.366  13.345 -0.1821 -0.5641 -0.1331
 5579TIP3    H138228   1.909   5.404  13.333  0.0984 -1.2475 -0.3407
 5579TIP3    H238229   1.830   5.310  13.422 -0.5867 -0.2054  0.1698
 5580TIP3   OH238230   6.536   0.696  11.174 -0.6030  0.0850  0.0026
 5580TIP3    H138231   6.567   0.750  11.247  0.7482  0.6264 -0.9499
 5580TIP3    H238232   6.517   0.611  11.214  2.0754 -0.2736  0.6757
 5581TIP3   OH238233   5.583   3.490   1.061 -0.0175 -0.2098  0.2439
 5581TIP3    H138234   5.609   3.401   1.086  2.2359  0.2200 -0.3675
 5581TIP3    H238235   5.553   3.481   0.971  0.9479 -0.2644 -0.0887
 5582TIP3   OH238236   1.491   3.646   3.256  0.1395  0.1113  0.3822
 5582TIP3    H138237   1.429   3.614   3.192  0.8336  1.1373 -0.8587
 5582TIP3    H238238   1.448   3.722   3.297  0.1892  0.2239  0.2256
 5583TIP3   OH238239   2.038   6.360  16.461 -0.1753 -0.1088 -0.3345
 5583TIP3    H138240   2.076   6.277  16.432  0.4170  0.2773 -0.6950
 5583TIP3    H238241   2.088   6.383  16.540  0.8283  0.7198 -1.1651
 5584TIP3   OH238242   6.686   6.065   4.387  0.5519  0.0890 -0.2690
 5584TIP3    H138243   6.715   6.004   4.319  0.6895  0.4053 -0.4987
 5584TIP3    H238244   6.752   6.135   4.386  0.4455  0.1935  0.0517
 5585TIP3   OH238245   3.613   1.455   0.208  0.3266  0.0032  0.0574
 5585TIP3    H138246   3.590   1.548   0.215  0.8675  0.2328 -0.9880
 5585TIP3    H238247   3.533   1.413   0.178  1.1132  0.8049 -3.6293
 5586TIP3   OH238248   5.983   0.168   4.183  0.1549 -0.1510 -0.3634
 5586TIP3    H138249   6.011   0.083   4.217 -0.5670 -0.6828 -1.0564
 5586TIP3    H238250   5.970   0.153   4.089 -2.6883 -0.0424 -0.0814
 5587TIP3   OH238251   5.335   1.407  13.680  0.1620  0.6236  0.5794
 5587TIP3    H138252   5.352   1.480  13.621 -1.8319  2.2006  1.8144
 5587TIP3    H238253   5.273   1.352  13.633  1.3524 -0.0986 -0.1897
 5588TIP3   OH238254   1.443   4.109  12.312 -0.2472  0.6498  0.3951
 5588TIP3    H138255   1.515   4.072  12.262 -1.4136 -1.4800  0.1930
 5588TIP3    H238256   1.484   4.141  12.393  0.8642 -0.9222  0.4918
 5589TIP3   OH238257   3.161   1.486   5.581 -0.0063 -0.0545  0.6633
 5589TIP3    H138258   3.091   1.531   5.629  0.6555  0.0935  1.4931
 5589TIP3    H238259   3.118   1.408   5.545 -0.6288  0.0808  1.0928
 5590TIP3   OH238260   0.017   5.821   5.353  0.2540  0.0795 -0.2367
 5590TIP3    H138261  -0.077   5.807   5.348  0.4232 -1.8286  1.0851
 5590TIP3    H238262   0.033   5.896   5.295 -2.5689  2.9830  2.3472
 5591TIP3   OH238263   2.431   6.712   4.111 -0.5229  0.2993  0.5885
 5591TIP3    H138264   2.357   6.700   4.170 -0.2486  2.5724  1.5095
 5591TIP3    H238265   2.502   6.743   4.168  0.4570  0.3220 -0.6055
 5592TIP3   OH238266   0.060   3.884  13.781  0.4110  0.0145 -0.0949
 5592TIP3    H138267   0.098   3.884  13.693 -0.4140  2.9669 -0.5586
 5592TIP3    H238268   0.119   3.940  13.832 -1.1441  1.4284  0.2048
 5593TIP3   OH238269   3.991   2.272  12.351  0.0378  0.1093  0.0359
 5593TIP3    H138270   4.021   2.280  12.260  0.8892  0.9376  0.3664
 5593TIP3    H238271   3.952   2.184  12.356 -0.7039  0.3329 -1.3089
 5594TIP3   OH238272   4.442   1.452  13.671  0.1112  0.5905 -0.0290
 5594TIP3    H138273   4.402   1.465  13.757 -0.5823  0.3866 -0.3160
 5594TIP3    H238274   4.438   1.358  13.656  3.2365  0.1690  1.1353
 5595TIP3   OH238275   3.042   2.995   5.722 -0.0806 -0.1578 -0.4635
 5595TIP3    H138276   3.048   2.922   5.783 -0.5722  0.4419  0.3183
 5595TIP3    H238277   2.963   3.042   5.749 -0.7353 -0.3048 -2.0316
 5596TIP3   OH238278   5.744   2.816  16.072  0.0921  0.0922  0.2512
 5596TIP3    H138279   5.838   2.799  16.075 -0.1112 -0.9003  2.5173
 5596TIP3    H238280   5.735   2.908  16.096  0.4402  0.0450  0.5611
 5597TIP3   OH238281   2.753   4.410  15.932  0.5671  0.4666 -0.0141
 5597TIP3    H138282   2.710   4.480  15.982  1.3831  1.3206 -0.4653
 5597TIP3    H238283   2.693   4.391  15.860  0.4318  0.8653 -0.0110
 5598TIP3   OH238284   4.936   0.493   2.614  0.2771  0.1271  0.2126
 5598TIP3    H138285   4.945   0.585   2.638 -0.4281  0.7411 -1.6675
 5598TIP3    H238286   4.870   0.493   2.545  0.4607 -1.7626 -0.0121
 5599TIP3   OH238287   1.987   1.099  16.173 -0.3911  0.0058 -0.1962
 5599TIP3    H138288   1.989   1.195  16.173  1.4949  0.0284  1.2261
 5599TIP3    H238289   2.076   1.074  16.196 -0.8036 -2.1161 -0.7547
 5600TIP3   OH238290   3.445   5.285  13.856 -0.0734 -0.7244 -0.2136
 5600TIP3    H138291   3.499   5.206  13.855 -0.2787 -0.8619 -1.1284
 5600TIP3    H238292   3.361   5.256  13.892 -0.3966 -1.1044 -1.2370
 5601TIP3   OH238293   3.532   5.568   3.966  0.0411  0.7767  0.0132
 5601TIP3    H138294   3.558   5.659   3.951  3.0096  0.0649  0.1487
 5601TIP3    H238295   3.595   5.536   4.031 -0.3982 -1.5885 -0.6227
 5602TIP3   OH238296   4.496   3.708   0.858 -0.6350  0.0040  0.5620
 5602TIP3    H138297   4.432   3.770   0.893 -0.6651  0.7700 -0.7649
 5602TIP3    H238298   4.504   3.732   0.766 -1.5140 -2.6905 -0.3319
 5603TIP3   OH238299   5.961   6.393   4.829  0.3486  0.6560  0.1551
 5603TIP3    H138300   5.940   6.307   4.793 -0.3447  1.1602 -0.6952
 5603TIP3    H238301   5.880   6.422   4.871  0.9936  0.3000  1.7299
 5604TIP3   OH238302   3.906   3.088   4.137  0.1797  0.1285  0.3340
 5604TIP3    H138303   3.982   3.134   4.171  0.3965 -0.9028  1.3232
 5604TIP3    H238304   3.919   3.086   4.042  1.1502  0.3713  0.4518
 5605TIP3   OH238305   5.537   5.233   1.419  0.3826 -0.2337 -0.2084
 5605TIP3    H138306   5.512   5.180   1.495  1.6580  0.7344  0.9466
 5605TIP3    H238307   5.505   5.184   1.344 -3.5961  0.1786  1.0060
 5606TIP3   OH238308   3.501   5.043   0.152 -0.3131 -0.1239 -0.7739
 5606TIP3    H138309   3.471   5.052   0.242 -0.5289  0.8488 -0.9275
 5606TIP3    H238310   3.526   5.132   0.126  0.3093 -0.4883 -1.4825
 5607TIP3   OH238311   2.869   4.470  14.557 -0.4239 -0.1097 -0.0357
 5607TIP3    H138312   2.875   4.380  14.589  0.9095  0.3166  1.0183
 5607TIP3    H238313   2.932   4.518  14.611 -0.2659  1.2258 -1.3690
 5608TIP3   OH238314   4.807   4.341  10.659  0.6326  0.3264  0.3687
 5608TIP3    H138315   4.811   4.301  10.572 -0.4475 -2.3208  1.4101
 5608TIP3    H238316   4.784   4.432  10.643 -1.0396 -0.4216 -2.0903
 5609TIP3   OH238317   4.165   4.682   4.056 -0.1347  0.7768 -0.6915
 5609TIP3    H138318   4.179   4.621   3.984  2.1542  2.2375 -1.6162
 5609TIP3    H238319   4.076   4.716   4.043 -0.3859 -0.2542 -1.8067
 5610TIP3   OH238320   6.258   3.503   1.445 -0.1317  0.0050  0.1391
 5610TIP3    H138321   6.164   3.500   1.426  0.2724 -2.0773 -2.0012
 5610TIP3    H238322   6.279   3.414   1.474  0.9591  0.8366  2.0655
 5611TIP3   OH238323   1.659   5.115   0.940 -0.0478 -0.3072  0.3367
 5611TIP3    H138324   1.678   5.038   0.994 -1.8601 -0.9241  0.1762
 5611TIP3    H238325   1.642   5.185   1.003 -0.3570 -0.5583  0.5371
 5612TIP3   OH238326   5.998   4.936  13.798  0.1995  0.2040 -0.4762
 5612TIP3    H138327   5.953   4.885  13.731 -0.4140  0.8491 -0.5602
 5612TIP3    H238328   5.933   4.998  13.830  0.7506  0.5146  0.0776
 5613TIP3   OH238329   0.021   6.005   3.552 -0.1425  0.1425  0.3063
 5613TIP3    H138330  -0.041   5.956   3.497 -0.7120  0.1934  0.8821
 5613TIP3    H238331  -0.020   6.004   3.639 -0.5286  2.2481  0.2000
 5614TIP3   OH238332   3.648   4.149  14.062  0.0056  0.2633  0.3557
 5614TIP3    H138333   3.580   4.083  14.071 -0.2235  0.5397  0.6877
 5614TIP3    H238334   3.675   4.143  13.970 -0.0067 -0.2890  0.3837
 5615TIP3   OH238335   2.753   5.184   2.423 -0.1439  0.7570  0.2480
 5615TIP3    H138336   2.725   5.270   2.393  1.1887  1.0321 -0.2810
 5615TIP3    H238337   2.721   5.178   2.513 -2.4790  0.7239 -0.5203
 5616TIP3   OH238338   6.696   0.890  14.762 -0.1023 -0.5792  0.2435
 5616TIP3    H138339   6.674   0.820  14.701 -0.4377 -0.7954  0.6056
 5616TIP3    H238340   6.758   0.849  14.823  1.0042 -0.0934 -0.5201
 5617TIP3   OH238341   0.415   0.455   2.435  0.0125 -0.2439 -0.4181
 5617TIP3    H138342   0.326   0.464   2.469 -0.8657 -1.0141 -2.3791
 5617TIP3    H238343   0.435   0.362   2.443 -0.1527 -0.4187 -1.7613
 5618TIP3   OH238344   3.769   1.596  13.517  0.4878  0.2380 -0.3931
 5618TIP3    H138345   3.827   1.599  13.441  0.5075 -0.8900 -0.4440
 5618TIP3    H238346   3.810   1.655  13.580  0.7069  0.8506 -1.0926
 5619TIP3   OH238347   1.574   3.043  15.830 -0.1022 -0.1618  0.3157
 5619TIP3    H138348   1.624   3.073  15.754 -0.1962 -1.3391 -0.2282
 5619TIP3    H238349   1.584   3.113  15.894  0.5138  0.5606 -0.5450
 5620TIP3   OH238350   0.403   4.540  10.611  0.0834 -0.1065  0.5800
 5620TIP3    H138351   0.469   4.531  10.680 -0.2226 -1.8543  0.6945
 5620TIP3    H238352   0.377   4.450  10.591 -0.0932  0.3722 -1.5874
 5621TIP3   OH238353   1.592   1.817   3.962 -0.3127  0.3609 -0.2479
 5621TIP3    H138354   1.531   1.855   3.899 -2.2257 -0.8048  0.8163
 5621TIP3    H238355   1.548   1.824   4.046  1.9063  1.2796  0.9254
 5622TIP3   OH238356   2.050   4.088   3.790  0.0747 -0.3851 -0.2429
 5622TIP3    H138357   2.054   3.996   3.816  1.2094 -0.3828 -0.3671
 5622TIP3    H238358   2.141   4.117   3.790 -0.3207  0.9750  0.6301
 5623TIP3   OH238359   0.261   4.104  12.159  0.5610 -0.1004  0.5765
 5623TIP3    H138360   0.218   4.030  12.116  0.9036 -0.1758  0.3499
 5623TIP3    H238361   0.239   4.179  12.105 -0.3559  0.0873  1.1933
 5624TIP3   OH238362   3.509   3.668   1.465  0.5112 -0.4222 -0.1119
 5624TIP3    H138363   3.484   3.579   1.488 -1.0019 -0.0644 -0.2489
 5624TIP3    H238364   3.486   3.720   1.543  0.8171 -0.0630 -0.2588
 5625TIP3   OH238365   0.567   0.339   5.877  0.6348 -0.5183  0.2774
 5625TIP3    H138366   0.579   0.368   5.968  0.7600 -1.9584  0.7492
 5625TIP3    H238367   0.541   0.247   5.885  1.8301 -1.0111 -1.1857
 5626TIP3   OH238368   4.090   1.410   0.232  0.3735 -0.5857  0.2545
 5626TIP3    H138369   4.046   1.384   0.151  2.1992 -0.7722 -0.7178
 5626TIP3    H238370   4.103   1.328   0.279  1.1781 -0.7612 -0.2532
 5627TIP3   OH238371   6.435   1.519   3.904  0.3949  0.3948  0.2950
 5627TIP3    H138372   6.365   1.537   3.966  0.0143  3.0446 -0.7517
 5627TIP3    H238373   6.516   1.536   3.953  0.2183 -0.2394  0.8134
 5628TIP3   OH238374   5.902   4.817   3.429 -0.0278  0.1884  0.1729
 5628TIP3    H138375   5.824   4.765   3.406  0.3582  0.4402 -1.8483
 5628TIP3    H238376   5.870   4.879   3.494 -1.9217  1.2571 -1.6416
 5629TIP3   OH238377   6.175   5.379   5.160 -0.0767  0.0248  0.4100
 5629TIP3    H138378   6.238   5.383   5.232 -0.0947  0.4530  0.4080
 5629TIP3    H238379   6.199   5.301   5.111  1.3755  0.9355 -0.4129
 5630TIP3   OH238380   5.289   2.952  13.262  0.7887 -0.7020  0.1950
 5630TIP3    H138381   5.373   2.982  13.299  1.1108  0.9080 -1.6974
 5630TIP3    H238382   5.313   2.875  13.211  1.0102 -0.6095  0.1547
 5631TIP3   OH238383   1.867   3.396   2.122 -0.5094 -0.5198 -0.7664
 5631TIP3    H138384   1.852   3.487   2.096  0.5949 -0.4529 -1.2018
 5631TIP3    H238385   1.787   3.351   2.095 -1.2674  0.3924 -0.1231
 5632TIP3   OH238386   1.232   3.433  15.571  0.0689 -0.5512 -0.9335
 5632TIP3    H138387   1.282   3.377  15.631 -0.4501  0.0609  0.1034
 5632TIP3    H238388   1.145   3.438  15.610  0.2197  1.3266 -0.7451
 5633TIP3   OH238389   0.919   5.671   1.936 -0.2147 -0.3319 -0.1626
 5633TIP3    H138390   0.915   5.749   1.880  0.3901 -0.6344 -0.6402
 5633TIP3    H238391   1.005   5.633   1.918  0.3673  0.0312  1.6124
 5634TIP3   OH238392   6.633   5.134   4.941 -0.0273  0.1437  0.2886
 5634TIP3    H138393   6.711   5.140   4.887 -0.3365 -1.2216 -0.3590
 5634TIP3    H238394   6.645   5.052   4.990 -1.3694 -0.4405 -0.3409
 5635TIP3   OH238395   5.679   6.588   2.034  0.2607  0.5164  0.4070
 5635TIP3    H138396   5.592   6.619   2.061  0.1172  0.5668 -0.0961
 5635TIP3    H238397   5.706   6.528   2.103  0.1158  1.0130  0.9028
 5636TIP3   OH238398   6.307   2.852   3.624  0.5671  0.1638 -0.2840
 5636TIP3    H138399   6.362   2.845   3.546 -0.2814 -0.4152 -0.8443
 5636TIP3    H238400   6.339   2.930   3.669 -0.0699  1.5496 -2.1125
 5637TIP3   OH238401   6.140   4.111  15.672  0.1932  0.2134 -0.1914
 5637TIP3    H138402   6.189   4.059  15.608 -2.2950 -0.0225 -2.0436
 5637TIP3    H238403   6.203   4.128  15.741  1.8850 -3.0548 -0.7158
 5638TIP3   OH238404   1.450   4.651   5.584  0.5528 -0.6710 -0.1502
 5638TIP3    H138405   1.381   4.688   5.530 -0.7418 -1.5654  0.8273
 5638TIP3    H238406   1.461   4.714   5.655  0.2954 -0.8233  0.0267
 5639TIP3   OH238407   2.723   2.345   0.719  0.4150  0.6302 -0.3739
 5639TIP3    H138408   2.818   2.349   0.725  0.5929 -1.9232 -0.2271
 5639TIP3    H238409   2.693   2.338   0.810  0.3155 -0.8758 -0.4897
 5640TIP3   OH238410   0.027   0.820   4.080 -0.3788  0.3149  0.1986
 5640TIP3    H138411   0.013   0.887   4.147  2.0950  0.2333  0.8977
 5640TIP3    H238412  -0.023   0.744   4.111  2.0344 -0.3310  3.0410
 5641TIP3   OH238413   5.423   2.834   0.196  0.4461 -0.1963  0.3998
 5641TIP3    H138414   5.350   2.846   0.136  1.8124 -0.2407 -1.3847
 5641TIP3    H238415   5.392   2.770   0.260 -0.8012 -0.8572 -0.8150
 5642TIP3   OH238416   0.679   0.476   6.111 -0.0033  0.0069  0.0483
 5642TIP3    H138417   0.670   0.571   6.102  0.4299  0.3010  2.1526
 5642TIP3    H238418   0.771   0.458   6.090 -0.1554  0.0068 -0.6245
 5643TIP3   OH238419   3.444   4.117  11.867  0.0624 -0.0508 -0.2355
 5643TIP3    H138420   3.428   4.183  11.800  0.1457  1.1116  0.8572
 5643TIP3    H238421   3.356   4.090  11.896 -0.0298  1.6678  1.2731
 5644TIP3   OH238422   0.351   4.773   1.651 -0.0094  0.3318  0.0197
 5644TIP3    H138423   0.320   4.850   1.698  1.0603  0.2959  0.8380
 5644TIP3    H238424   0.278   4.712   1.653 -0.8856  1.3146 -0.6684
 5645TIP3   OH238425   1.869   6.540  14.540 -0.1936 -0.7311  0.2077
 5645TIP3    H138426   1.793   6.489  14.567 -0.3998  0.9130  3.1434
 5645TIP3    H238427   1.842   6.631  14.552  1.8545 -0.0803  0.2129
 5646TIP3   OH238428   2.733   3.733   5.245 -0.1281  0.1719  0.3636
 5646TIP3    H138429   2.825   3.708   5.237  0.2399  1.6288 -0.3580
 5646TIP3    H238430   2.710   3.766   5.158 -0.6628  1.9105  1.1291
 5647TIP3   OH238431   6.555   2.682  15.705 -0.1748 -0.3004  0.1077
 5647TIP3    H138432   6.479   2.724  15.666 -0.4134 -1.0248 -0.2286
 5647TIP3    H238433   6.576   2.610  15.645 -0.4947 -1.3827  1.2425
 5648TIP3   OH238434   6.239   3.646  11.921 -0.7667 -0.0244  0.0858
 5648TIP3    H138435   6.225   3.738  11.900 -1.8677 -0.0863  0.4883
 5648TIP3    H238436   6.255   3.604  11.836 -1.2641  0.3752 -0.2140
 5649TIP3   OH238437   1.408   0.926   5.437  0.0216  0.0270 -0.1476
 5649TIP3    H138438   1.460   0.875   5.499 -2.6241 -1.0018  1.3858
 5649TIP3    H238439   1.399   0.870   5.361  0.2844 -0.1911 -0.0199
 5650TIP3   OH238440   2.979   0.225   5.788  0.1710  0.3422 -0.3980
 5650TIP3    H138441   2.931   0.176   5.854  0.1389  1.1379  0.1890
 5650TIP3    H238442   3.030   0.159   5.741 -0.9053 -0.4242 -0.5399
 5651TIP3   OH238443   1.278   3.036  15.366 -0.1523 -0.0985 -0.1369
 5651TIP3    H138444   1.200   3.083  15.395 -0.0009  0.0983 -0.0484
 5651TIP3    H238445   1.244   2.953  15.332 -0.3060 -0.4516  0.8431
 5652TIP3   OH238446   4.168   4.836  11.540 -0.3116 -0.2002  0.1231
 5652TIP3    H138447   4.242   4.833  11.480 -0.3392 -1.6614  0.1169
 5652TIP3    H238448   4.092   4.815  11.486 -0.3500 -1.4176  0.6144
 5653TIP3   OH238449   1.070   0.864  14.039  0.3741  0.2178 -0.1171
 5653TIP3    H138450   1.115   0.947  14.056  1.5477 -0.2716 -0.7184
 5653TIP3    H238451   0.977   0.887  14.040  0.6900  1.7253 -1.1243
 5654TIP3   OH238452   6.691   2.919  16.569 -0.1161 -0.0743 -1.0985
 5654TIP3    H138453   6.600   2.938  16.591  0.3200  0.9208 -0.0718
 5654TIP3    H238454   6.741   2.987  16.614  1.2646 -1.6400 -0.1742
 5655TIP3   OH238455   4.812   4.864   5.028 -0.2065 -0.0511  0.0533
 5655TIP3    H138456   4.853   4.832   5.108 -0.3291 -1.8283 -0.5658
 5655TIP3    H238457   4.885   4.889   4.972 -0.1241  1.5962  0.8227
 5656TIP3   OH238458   5.028   0.776   3.799  0.6701 -0.4088 -0.1291
 5656TIP3    H138459   5.036   0.728   3.882  1.6831 -0.1059 -0.0486
 5656TIP3    H238460   4.939   0.812   3.801 -0.4277 -2.8580 -0.5076
 5657TIP3   OH238461   0.626   4.021  16.168 -0.3337 -0.4475  0.5857
 5657TIP3    H138462   0.566   4.084  16.207  0.6143 -0.5617  2.3632
 5657TIP3    H238463   0.671   4.069  16.099 -1.4682  0.0431  0.1800
 5658TIP3   OH238464   1.109   5.557   2.697  0.2331 -0.1808  0.1726
 5658TIP3    H138465   1.113   5.603   2.613  0.7342  1.1378  0.8919
 5658TIP3    H238466   1.107   5.464   2.673  0.4382  0.1669 -1.2954
 5659TIP3   OH238467   6.773   3.183   0.125 -0.0577  1.1068  0.1929
 5659TIP3    H138468   6.792   3.264   0.079  1.6983  0.3199 -0.5867
 5659TIP3    H238469   6.770   3.208   0.218 -1.9948  2.4237 -0.1717
 5660TIP3   OH238470   6.775   3.612   1.879 -0.3091  0.3742  0.7931
 5660TIP3    H138471   6.688   3.606   1.918 -0.2817 -0.0955  0.7869
 5660TIP3    H238472   6.829   3.553   1.931 -0.1259  0.2315  0.4478
 5661TIP3   OH238473   0.954   5.246   5.234 -0.3200  0.2315  0.1843
 5661TIP3    H138474   0.875   5.193   5.245 -0.1961 -0.2256 -1.0211
 5661TIP3    H238475   0.977   5.236   5.142  1.2525  0.2022  0.5617
 5662TIP3   OH238476   4.597   1.872  16.880 -0.1229  0.3019  0.1073
 5662TIP3    H138477   4.552   1.952  16.906  2.6007  0.6621  4.8594
 5662TIP3    H238478   4.587   1.814  16.956  0.7810 -2.6568 -1.8637
 5663TIP3   OH238479   2.848   4.567   4.777 -0.0531 -0.2988  0.1225
 5663TIP3    H138480   2.838   4.662   4.781 -1.5962 -0.4249 -0.2313
 5663TIP3    H238481   2.938   4.554   4.746 -0.2673  1.0833 -1.2264
 5664TIP3   OH238482   6.340   3.703   3.235 -0.4985  0.4510  0.5632
 5664TIP3    H138483   6.336   3.608   3.242 -1.9668  0.2916 -1.3609
 5664TIP3    H238484   6.431   3.725   3.253 -0.0957 -1.3393  0.8883
 5665TIP3   OH238485   4.964   3.980  16.848 -0.5663 -0.2382  0.0095
 5665TIP3    H138486   5.024   4.008  16.917 -0.5066 -1.1623  0.3471
 5665TIP3    H238487   5.016   3.922  16.792 -1.3857 -1.9640  0.9384
 5666TIP3   OH238488   3.736   5.424   0.804 -0.0721 -0.1279 -0.2075
 5666TIP3    H138489   3.709   5.363   0.735 -0.5722  0.0448 -0.1662
 5666TIP3    H238490   3.832   5.426   0.797 -0.0849 -0.4922 -0.5700
 5667TIP3   OH238491   5.604   6.815  16.366 -0.2248  0.1595 -0.3573
 5667TIP3    H138492   5.520   6.771  16.376 -0.3179  0.3724 -0.2042
 5667TIP3    H238493   5.652   6.794  16.446 -0.7504  1.3820  0.3094
 5668TIP3   OH238494   6.065   4.740  16.314 -0.1294 -0.2434  0.2706
 5668TIP3    H138495   6.048   4.802  16.244 -1.5636  0.9260  1.5897
 5668TIP3    H238496   5.982   4.694  16.327  0.0821 -0.3901  1.2215
 5669TIP3   OH238497   5.543   2.312  15.918  0.3314  0.7350  0.0296
 5669TIP3    H138498   5.475   2.264  15.870  1.9193  0.8035 -2.4358
 5669TIP3    H238499   5.616   2.318  15.857  2.0430  1.9653  2.0629
 5670TIP3   OH238500   4.196   5.559  12.848  0.8195 -0.4281 -0.2396
 5670TIP3    H138501   4.195   5.508  12.929 -1.6191  1.5798  1.1368
 5670TIP3    H238502   4.103   5.576  12.830  1.4293  1.2587 -2.0680
 5671TIP3   OH238503   4.003   3.694   3.361 -0.3922  0.3638  0.7278
 5671TIP3    H138504   4.036   3.729   3.444 -0.7908  0.9598  0.6419
 5671TIP3    H238505   3.967   3.609   3.384  3.5427 -1.6332  0.3977
 5672TIP3   OH238506   1.287   1.223   5.703  0.0125 -0.4036  0.4674
 5672TIP3    H138507   1.225   1.255   5.768  1.4335  0.3764  1.4884
 5672TIP3    H238508   1.348   1.168   5.752  0.9339 -0.0524 -0.2588
 5673TIP3   OH238509   0.660   2.536   0.040 -0.4161 -0.0192  0.3774
 5673TIP3    H138510   0.639   2.485   0.118 -0.0850  1.7656  1.6846
 5673TIP3    H238511   0.659   2.627   0.069 -1.7691  0.8405 -2.0317
 5674TIP3   OH238512   1.021   1.706   3.346 -0.1155  0.1562 -0.3118
 5674TIP3    H138513   1.084   1.773   3.319 -1.6456  1.2870 -1.1984
 5674TIP3    H238514   1.075   1.635   3.381  1.6697  0.8208 -1.6124
 5675TIP3   OH238515   3.487   2.972  16.810 -0.1876  0.0099  0.0122
 5675TIP3    H138516   3.413   2.995  16.755  0.9685  0.0584 -1.5933
 5675TIP3    H238517   3.522   3.056  16.839  1.0920  0.1703 -1.8337
 5676TIP3   OH238518   4.194   0.313   3.006 -0.1247 -0.2705  0.1306
 5676TIP3    H138519   4.207   0.253   2.933  0.8501 -0.5614  0.5255
 5676TIP3    H238520   4.111   0.286   3.046 -0.2176 -0.6724 -0.3357
 5677TIP3   OH238521   3.222   2.587  11.523 -1.0102  0.0847  0.1830
 5677TIP3    H138522   3.130   2.561  11.517 -0.7720 -0.7858  0.1281
 5677TIP3    H238523   3.245   2.576  11.615 -0.7620 -0.4279  0.0646
 5678TIP3   OH238524   2.580   3.314  12.214  0.4325 -0.4150  0.0708
 5678TIP3    H138525   2.597   3.398  12.172  1.2427 -0.1830  0.8350
 5678TIP3    H238526   2.510   3.275  12.161 -2.4722  2.2091  1.6336
 5679TIP3   OH238527   6.401   0.852   2.667  0.3678 -0.0961 -0.3048
 5679TIP3    H138528   6.488   0.815   2.652  0.0545 -0.0739 -2.5295
 5679TIP3    H238529   6.390   0.916   2.597 -2.2173 -1.5583 -1.3785
 5680TIP3   OH238530   0.071   6.495  13.679  0.0681 -0.2339  0.8584
 5680TIP3    H138531   0.075   6.506  13.584 -2.2796 -0.0136  0.7282
 5680TIP3    H238532   0.121   6.415  13.695  1.8014  0.5536 -0.3475
 5681TIP3   OH238533   6.160   0.842  12.540 -0.6570  0.4691 -0.1704
 5681TIP3    H138534   6.125   0.927  12.567  0.6382  0.5868  1.2900
 5681TIP3    H238535   6.251   0.859  12.520 -0.3475 -0.5868  0.2654
 5682TIP3   OH238536   1.039   3.095   6.090  0.0546 -0.2369 -0.4339
 5682TIP3    H138537   1.014   3.042   6.014  0.0684 -0.0738 -0.5522
 5682TIP3    H238538   1.086   3.035   6.148 -2.0654 -1.0264  0.5856
 5683TIP3   OH238539   3.369   3.006   4.154  0.4735  0.2553 -0.0695
 5683TIP3    H138540   3.457   3.032   4.181  0.3442  0.0310  0.5948
 5683TIP3    H238541   3.383   2.940   4.087  0.8258 -0.3584  0.5957
 5684TIP3   OH238542   2.544   1.149  14.811 -0.2572 -0.2860 -0.2294
 5684TIP3    H138543   2.622   1.179  14.857 -1.4171  1.6583  0.5988
 5684TIP3    H238544   2.538   1.205  14.734 -0.9056 -0.3076 -0.2057
 5685TIP3   OH238545   1.754   6.844  12.933 -0.1828 -0.5517  0.2480
 5685TIP3    H138546   1.695   6.917  12.950 -0.3344 -0.6161  0.0179
 5685TIP3    H238547   1.700   6.782  12.882 -0.2551 -1.1034  0.9755
 5686TIP3   OH238548   4.610   4.828   5.915 -0.2531 -1.1228  0.5272
 5686TIP3    H138549   4.631   4.918   5.939 -0.7866 -1.1479  1.1329
 5686TIP3    H238550   4.568   4.834   5.830  3.3036 -1.1851 -1.4200
 5687TIP3   OH238551   5.110   3.802  12.760 -0.5677  0.1678 -0.5329
 5687TIP3    H138552   5.153   3.886  12.743  0.8576 -0.4047  0.1042
 5687TIP3    H238553   5.036   3.824  12.817  0.2027  0.9291  0.2024
 5688TIP3   OH238554   1.253   5.444   0.274  0.0849  0.8347 -0.6819
 5688TIP3    H138555   1.339   5.457   0.314  0.0947  0.1361 -0.4646
 5688TIP3    H238556   1.208   5.384   0.332 -0.4870  1.0451 -0.8993
 5689TIP3   OH238557   2.879   2.463   1.552 -0.1115 -0.0671  0.0477
 5689TIP3    H138558   2.832   2.380   1.548  2.5870 -1.8309  1.3848
 5689TIP3    H238559   2.891   2.479   1.646 -0.1333  1.5978 -0.1984
 5690TIP3   OH238560   4.616   0.722  12.068 -0.1853 -0.1094  0.0431
 5690TIP3    H138561   4.698   0.674  12.082  0.3603 -0.0444 -2.3622
 5690TIP3    H238562   4.547   0.662  12.095  0.4882 -2.2745 -2.6252
 5691TIP3   OH238563   3.704   5.797  17.020  0.5058 -0.2267  1.1214
 5691TIP3    H138564   3.797   5.788  17.042  0.6311 -2.5098 -0.0011
 5691TIP3    H238565   3.664   5.717  17.054 -0.1126 -1.6240 -2.4999
 5692TIP3   OH238566   4.276   1.439   2.047 -0.0983  0.7289 -0.0762
 5692TIP3    H138567   4.314   1.460   1.962 -0.8482  0.8384 -0.3884
 5692TIP3    H238568   4.279   1.343   2.052  2.3663  0.7789  0.9118
 5693TIP3   OH238569   4.629   2.716  12.146 -0.3939 -0.2222  0.5770
 5693TIP3    H138570   4.698   2.669  12.099  0.8622  0.3150  1.7998
 5693TIP3    H238571   4.548   2.686  12.106  0.5879  1.1011 -2.7824
 5694TIP3   OH238572   6.814   4.368   5.213 -0.4251  0.0573 -0.1633
 5694TIP3    H138573   6.808   4.453   5.169  2.3703 -0.8171 -2.5009
 5694TIP3    H238574   6.872   4.383   5.287 -1.6335  0.5593  0.7301
 5695TIP3   OH238575   0.153   5.331  16.422 -0.1870  0.1161 -0.6257
 5695TIP3    H138576   0.183   5.421  16.430 -0.0765 -0.0457  1.4988
 5695TIP3    H238577   0.167   5.308  16.330  1.5012  1.6590 -0.8018
 5696TIP3   OH238578   3.784   4.801  13.578  0.4168  0.0163  0.3957
 5696TIP3    H138579   3.802   4.895  13.572 -0.8993  0.1995 -1.2722
 5696TIP3    H238580   3.731   4.792  13.657  0.8475  0.6201  0.7654
 5697TIP3   OH238581   5.850   0.878  12.829  0.4368 -0.7179 -0.3231
 5697TIP3    H138582   5.765   0.909  12.860 -0.7048 -1.8763 -2.1523
 5697TIP3    H238583   5.914   0.935  12.873 -1.3423  1.3352 -0.2724
 5698TIP3   OH238584   6.499   6.122  14.475 -0.1838 -0.5655 -0.2490
 5698TIP3    H138585   6.432   6.142  14.410 -1.2168  1.0510  1.2402
 5698TIP3    H238586   6.520   6.206  14.516  0.3126 -1.5271  1.6165
 5699TIP3   OH238587   6.844   6.282   4.434  0.6934  0.4832  0.5001
 5699TIP3    H138588   6.787   6.333   4.492 -2.0386 -0.5061 -1.1441
 5699TIP3    H238589   6.868   6.343   4.365 -1.9045 -0.0445 -1.0220
 5700TIP3   OH238590   1.107   6.381   0.811 -0.2189 -0.5043 -0.4132
 5700TIP3    H138591   1.080   6.451   0.750  0.0545 -2.5728 -3.0923
 5700TIP3    H238592   1.035   6.318   0.809 -0.8563 -0.0299  2.6441
 5701TIP3   OH238593   3.865   1.455  14.743  0.0095  0.0270 -0.2303
 5701TIP3    H138594   3.836   1.364  14.733  1.6931 -0.5927  0.2061
 5701TIP3    H238595   3.805   1.492  14.808  0.1816 -1.2002  0.6467
 5702TIP3   OH238596   6.111   2.625  10.915  0.3006  0.1313 -0.0649
 5702TIP3    H138597   6.107   2.619  11.011  0.1766 -1.9114 -0.1626
 5702TIP3    H238598   6.087   2.538  10.884 -0.0845  0.8691 -1.9914
 5703TIP3   OH238599   2.971   3.215  11.279 -0.4983 -0.4515  0.2878
 5703TIP3    H138600   2.967   3.129  11.236 -1.8465 -0.0911 -0.3373
 5703TIP3    H238601   2.887   3.224  11.324  0.3495 -0.2272  1.8945
 5704TIP3   OH238602   4.683   6.649  14.993 -0.3593 -0.2470 -0.2888
 5704TIP3    H138603   4.638   6.661  15.077 -1.5953 -2.9062 -0.4550
 5704TIP3    H238604   4.621   6.683  14.929 -1.0213 -1.3989 -0.3075
 5705TIP3   OH238605   2.871   3.687  14.872  0.3340  0.4247  0.0488
 5705TIP3    H138606   2.884   3.641  14.955  0.5815  0.6835  0.1525
 5705TIP3    H238607   2.800   3.639  14.829  1.0443 -0.4868 -0.1408
 5706TIP3   OH238608   3.455   2.693   4.246  0.8632  0.2909 -0.2183
 5706TIP3    H138609   3.475   2.626   4.180 -2.3856  1.9475 -3.2514
 5706TIP3    H238610   3.512   2.766   4.223  1.0990  0.1915  0.0547
 5707TIP3   OH238611   0.558   2.239   2.800 -0.0155  0.5188  0.7576
 5707TIP3    H138612   0.595   2.260   2.714 -1.2805  2.1855  0.5632
 5707TIP3    H238613   0.494   2.170   2.782  0.2723  0.3201  0.4868
 5708TIP3   OH238614   2.431   3.348  14.757  0.3984 -0.2331 -0.3100
 5708TIP3    H138615   2.401   3.274  14.811 -0.7664 -0.5992 -1.3894
 5708TIP3    H238616   2.352   3.377  14.712  1.0486  1.0509 -0.6611
 5709TIP3   OH238617   3.658   1.476   0.794 -0.0328  0.2656  0.9345
 5709TIP3    H138618   3.618   1.401   0.837 -1.4203  0.7832  0.6036
 5709TIP3    H238619   3.607   1.551   0.825  0.5647  0.9390  0.3345
 5710TIP3   OH238620   5.546   3.074   5.328 -0.0167 -0.5560 -0.5427
 5710TIP3    H138621   5.479   3.017   5.368  1.5719 -3.2932 -1.4967
 5710TIP3    H238622   5.509   3.096   5.243 -0.9959  0.5958  0.1457
 5711TIP3   OH238623   0.424   2.034   2.724  1.0914  0.4409  0.4572
 5711TIP3    H138624   0.377   1.958   2.759 -0.3306 -0.1984 -2.4832
 5711TIP3    H238625   0.360   2.077   2.667  2.1904  3.3204  1.2298
 5712TIP3   OH238626   5.900   4.828  13.519  0.1422 -0.0822 -0.0710
 5712TIP3    H138627   5.881   4.920  13.502  1.8627  1.0972  3.3541
 5712TIP3    H238628   5.989   4.816  13.486 -0.0426 -0.5131 -0.4199
 5713TIP3   OH238629   4.567   4.437   1.329  0.0540 -0.0663 -0.0914
 5713TIP3    H138630   4.506   4.501   1.367  0.1773 -0.0166  0.0233
 5713TIP3    H238631   4.533   4.421   1.242  1.4049  2.0526 -1.0919
 5714TIP3   OH238632   1.372   6.141  12.778 -0.2703 -0.3694 -0.0515
 5714TIP3    H138633   1.419   6.216  12.816 -1.4202  1.3173 -1.7639
 5714TIP3    H238634   1.423   6.118  12.700 -0.4245 -0.7847 -0.0316
 5715TIP3   OH238635   2.179   2.950   1.417  0.1948  0.0909  0.0285
 5715TIP3    H138636   2.188   2.928   1.324 -1.3777 -1.5543  0.2071
 5715TIP3    H238637   2.104   3.010   1.420 -0.0766 -0.2604  0.2899
 5716TIP3   OH238638   5.447   2.806   1.097  0.1696 -0.1006 -0.1731
 5716TIP3    H138639   5.534   2.794   1.136 -0.8953 -1.8793  1.8458
 5716TIP3    H238640   5.398   2.854   1.164 -0.5269  0.5886 -1.1582
 5717TIP3   OH238641   2.067   6.389  14.080 -0.4766  0.1315 -0.3027
 5717TIP3    H138642   2.029   6.356  14.162  2.3013 -1.4484  0.4768
 5717TIP3    H238643   2.100   6.476  14.102 -3.2354  1.4894 -0.9666
 5718TIP3   OH238644   4.772   5.789  13.551  0.5774  0.4604 -0.5513
 5718TIP3    H138645   4.789   5.743  13.633  0.7111 -0.0538 -0.8638
 5718TIP3    H238646   4.679   5.774  13.534  0.9316 -0.9204 -1.3873
 5719TIP3   OH238647   0.200   2.999  16.442  0.8324  0.7709 -0.9125
 5719TIP3    H138648   0.126   3.060  16.439  0.2723  0.1916  0.3145
 5719TIP3    H238649   0.246   3.020  16.523  0.0771 -1.0077  0.0468
 5720TIP3   OH238650   1.566   6.628  14.459  0.0360 -0.5413 -0.3728
 5720TIP3    H138651   1.500   6.679  14.412 -1.5034 -0.4684  1.7473
 5720TIP3    H238652   1.618   6.694  14.505  1.0512 -0.6576 -1.3113
 5721TIP3   OH238653   5.645   3.655   0.477  0.4576  0.2509 -0.6170
 5721TIP3    H138654   5.663   3.707   0.399  0.2531  0.5801 -0.4500
 5721TIP3    H238655   5.634   3.720   0.547 -1.5125  0.0973 -0.7180
 5722TIP3   OH238656   0.251   0.011   3.132 -0.0156  0.6228 -0.2930
 5722TIP3    H138657   0.226  -0.050   3.202 -1.5990  1.1059 -0.4003
 5722TIP3    H238658   0.233   0.098   3.169 -1.5987  0.8600 -1.5522
 5723TIP3   OH238659   1.170   2.331   4.295  0.2022  0.2238 -0.3467
 5723TIP3    H138660   1.109   2.402   4.273  0.5882  0.5769 -0.2998
 5723TIP3    H238661   1.247   2.376   4.329 -0.3908 -0.2777  1.8251
 5724TIP3   OH238662   2.793   1.599   2.461 -0.6192 -0.1669 -0.3671
 5724TIP3    H138663   2.835   1.543   2.396  0.8162  0.2022  0.1957
 5724TIP3    H238664   2.737   1.657   2.411  0.6187  0.2524 -1.3242
 5725TIP3   OH238665   0.212   2.284  13.596 -0.5478 -0.1108 -0.0231
 5725TIP3    H138666   0.289   2.244  13.636  0.3289  1.8665  0.3859
 5725TIP3    H238667   0.194   2.361  13.651  0.0506  2.1207 -2.7036
 5726TIP3   OH238668   0.888   2.907   2.201  0.2338  0.5006  0.1414
 5726TIP3    H138669   0.905   2.974   2.135  1.3347  1.0956  0.9850
 5726TIP3    H238670   0.975   2.876   2.227 -0.1851  0.0492  1.0837
 5727TIP3   OH238671   1.091   0.499  11.098 -0.1567 -0.6503  0.1660
 5727TIP3    H138672   1.113   0.504  11.191  0.4004 -0.8545  0.0509
 5727TIP3    H238673   1.164   0.451  11.059 -0.3076 -0.4234 -0.4035
 5728TIP3   OH238674   1.283   4.951  12.919 -0.2008 -0.2232  0.5766
 5728TIP3    H138675   1.234   5.033  12.922  0.0203 -0.0816  0.3612
 5728TIP3    H238676   1.315   4.939  13.008  0.7237  0.5159  0.3670
 5729TIP3   OH238677   5.008   2.677  11.951  0.1595  0.2067 -0.3716
 5729TIP3    H138678   5.050   2.759  11.927  1.6399 -0.7027 -1.0309
 5729TIP3    H238679   5.064   2.609  11.913  0.8890 -1.2511  2.9035
 5730TIP3   OH238680   0.689   6.504   5.575 -0.8153 -0.0105  0.4771
 5730TIP3    H138681   0.663   6.596   5.575 -0.5981  0.0642 -0.3850
 5730TIP3    H238682   0.709   6.485   5.483 -4.0499 -1.8151 -0.0197
 5731TIP3   OH238683   6.827   3.823  13.226  0.7059  0.4265  0.3939
 5731TIP3    H138684   6.762   3.789  13.165  0.4235  1.4145  0.1205
 5731TIP3    H238685   6.846   3.750  13.285  1.8185 -0.9291 -1.5356
 5732TIP3   OH238686   2.662   6.180   2.672 -0.1870 -0.3073  0.5608
 5732TIP3    H138687   2.725   6.198   2.602 -1.1150 -1.5349 -0.6450
 5732TIP3    H238688   2.661   6.085   2.680 -2.6299 -0.4423 -0.2559
 5733TIP3   OH238689   5.598   2.529   0.158  0.4517 -0.5781  0.6487
 5733TIP3    H138690   5.546   2.498   0.084  0.0343  0.0021  0.6929
 5733TIP3    H238691   5.584   2.463   0.226  3.0612 -2.6624 -0.6466
 5734TIP3   OH238692   6.810   6.066   6.164 -0.2230  0.2496  0.1986
 5734TIP3    H138693   6.875   6.106   6.222  1.2509 -1.0628 -0.4755
 5734TIP3    H238694   6.733   6.124   6.170  1.5763  2.8648 -0.3439
 5735TIP3   OH238695   2.406   3.221   2.356 -0.8814 -0.1442  0.4375
 5735TIP3    H138696   2.349   3.208   2.281  0.1912  0.7859 -0.5836
 5735TIP3    H238697   2.348   3.218   2.432 -2.3551  1.1898 -0.5787
 5736TIP3   OH238698   5.924   5.227   4.276  0.3233 -0.4459  0.6380
 5736TIP3    H138699   5.948   5.138   4.302  0.0473 -0.3102  1.3851
 5736TIP3    H238700   5.846   5.247   4.329  0.6219  0.3879  0.7715
 5737TIP3   OH238701   6.385   4.150  12.064  0.3898 -0.0949 -0.0391
 5737TIP3    H138702   6.450   4.170  11.996 -0.2059  0.3352 -0.4837
 5737TIP3    H238703   6.415   4.198  12.140  1.3789 -1.0268  0.1916
 5738TIP3   OH238704   0.260   3.751   0.221 -0.5780 -0.6911 -0.1153
 5738TIP3    H138705   0.167   3.754   0.198 -1.1462 -2.7715  1.5072
 5738TIP3    H238706   0.260   3.739   0.316  1.4518  1.4817  0.2513
 5739TIP3   OH238707   0.232   1.170   3.559 -0.5809  0.4977  0.2976
 5739TIP3    H138708   0.232   1.080   3.591  2.3703  0.7206  1.1898
 5739TIP3    H238709   0.159   1.212   3.604  0.0531 -0.6467  2.5039
 5740TIP3   OH238710   6.842   5.025  15.809 -0.2199  0.0735 -0.4030
 5740TIP3    H138711   6.798   4.940  15.817 -0.3779  0.2384  0.7676
 5740TIP3    H238712   6.888   5.021  15.725 -1.1928 -0.7036 -0.9203
 5741TIP3   OH238713   3.880   3.330  11.377  0.0777 -0.0050  0.0793
 5741TIP3    H138714   3.858   3.240  11.403  0.7352 -0.0870  0.3800
 5741TIP3    H238715   3.929   3.319  11.295 -1.3438  0.2043 -0.8263
 5742TIP3   OH238716   3.230   6.622   1.926 -0.2898 -0.0780  0.5160
 5742TIP3    H138717   3.305   6.621   1.985  0.7097  1.9533 -0.6164
 5742TIP3    H238718   3.257   6.567   1.852 -0.2727 -0.0536  0.5043
 5743TIP3   OH238719   2.753   3.162  14.233  0.0074  0.2352 -0.2170
 5743TIP3    H138720   2.681   3.210  14.193  0.6053  0.3008 -1.2485
 5743TIP3    H238721   2.714   3.079  14.259 -0.5257  0.4074 -0.4471
 5744TIP3   OH238722   1.337   6.658   6.197  0.3310  0.4574  0.2957
 5744TIP3    H138723   1.285   6.635   6.274  0.6798  1.7691  0.9458
 5744TIP3    H238724   1.365   6.574   6.162 -0.3537 -0.1878  1.2346
 5745TIP3   OH238725   1.523   0.450   5.056 -0.3342  0.2333  0.3107
 5745TIP3    H138726   1.530   0.388   5.129  1.7599 -1.3358 -1.1462
 5745TIP3    H238727   1.567   0.408   4.983  0.0243  2.9004 -1.1477
 5746TIP3   OH238728   0.713   0.846  11.830  0.9694 -0.3372 -0.2983
 5746TIP3    H138729   0.659   0.923  11.812 -1.2664 -1.8539 -0.5675
 5746TIP3    H238730   0.708   0.834  11.925  1.2114 -0.2270 -0.2706
 5747TIP3   OH238731   6.349   1.072  15.914  0.0876 -0.2603  0.1091
 5747TIP3    H138732   6.257   1.052  15.892  0.0700  1.0363 -1.1592
 5747TIP3    H238733   6.344   1.151  15.967  0.4161 -0.9148  1.1284
 5748TIP3   OH238734   6.617   3.907   4.877 -0.4751 -0.0500 -0.3295
 5748TIP3    H138735   6.697   3.939   4.837 -1.5981  1.8523 -1.2169
 5748TIP3    H238736   6.643   3.878   4.965  0.9589  1.8662 -0.0535
 5749TIP3   OH238737   3.478   6.701  16.423 -0.0485  0.5086 -0.4836
 5749TIP3    H138738   3.497   6.783  16.469 -2.3754  1.4518 -1.0664
 5749TIP3    H238739   3.558   6.683  16.373  0.1511  3.1131 -1.2874
 5750TIP3   OH238740   5.818   3.800   4.831  0.2681  0.1063  0.5762
 5750TIP3    H138741   5.783   3.745   4.761 -0.6058 -1.6364  2.2878
 5750TIP3    H238742   5.909   3.773   4.839 -0.0531 -0.8731  1.1465
 5751TIP3   OH238743   5.730   4.350  13.501  0.1562 -0.3653  0.1770
 5751TIP3    H138744   5.724   4.333  13.407  1.5912 -1.4317  0.2440
 5751TIP3    H238745   5.822   4.338  13.522 -0.3043 -1.2029  1.9199
 5752TIP3   OH238746   6.580   0.902  13.855 -0.0921 -0.1665 -0.2014
 5752TIP3    H138747   6.578   0.843  13.780 -0.9078 -1.3775  0.7316
 5752TIP3    H238748   6.629   0.978  13.824 -0.1207 -0.7726 -1.8437
 5753TIP3   OH238749   3.573   0.150   3.769  0.4082  0.4822  0.6104
 5753TIP3    H138750   3.515   0.161   3.844  0.9269  0.0278  1.0888
 5753TIP3    H238751   3.660   0.139   3.807  0.7893  1.0087 -0.0895
 5754TIP3   OH238752   2.122   2.388  11.266 -0.2187 -0.2645  0.0444
 5754TIP3    H138753   2.181   2.423  11.199 -1.3297  0.6111 -0.5035
 5754TIP3    H238754   2.180   2.346  11.329  1.2924  2.9759  1.0349
 5755TIP3   OH238755   0.136   3.365  16.343  0.0988 -0.4124  0.2644
 5755TIP3    H138756   0.125   3.283  16.295  1.2490 -0.5027  0.1266
 5755TIP3    H238757   0.052   3.409  16.334  0.0598 -0.7328 -1.2575
 5756TIP3   OH238758   5.082   2.729   1.575  0.1632 -0.1484 -0.2385
 5756TIP3    H138759   5.082   2.817   1.613 -1.3420  0.0132 -0.5282
 5756TIP3    H238760   5.081   2.670   1.651  1.8049  0.0434 -0.0380
 5757TIP3   OH238761   4.164   2.997  12.417 -0.3186  0.2604  0.1056
 5757TIP3    H138762   4.079   3.003  12.462  0.1240 -0.8356  1.1602
 5757TIP3    H238763   4.151   3.044  12.335 -1.6030  1.0912  0.7480
 5758TIP3   OH238764   2.174   0.396  11.270 -0.0599 -0.1554  0.3224
 5758TIP3    H138765   2.249   0.414  11.213 -0.5669 -0.3425 -0.4118
 5758TIP3    H238766   2.128   0.480  11.276 -0.4977 -0.3451 -0.2763
 5759TIP3   OH238767   4.462   3.577  12.591  0.3843 -0.0553 -0.0217
 5759TIP3    H138768   4.396   3.539  12.533  0.9669 -0.0642 -0.6980
 5759TIP3    H238769   4.470   3.668  12.562 -0.8633  0.5705  1.4642
 5760TIP3   OH238770   5.497   4.731  12.575 -0.2166 -0.0318 -0.5896
 5760TIP3    H138771   5.507   4.820  12.609 -0.1952 -0.2073 -0.1243
 5760TIP3    H238772   5.403   4.713  12.584 -0.2464  0.0034 -0.8322
 5761TIP3   OH238773   5.188   6.089  11.614 -0.1379  0.0390 -0.3533
 5761TIP3    H138774   5.249   6.025  11.650  0.4058  1.5612  1.6146
 5761TIP3    H238775   5.213   6.096  11.522  2.0860 -0.0625  0.1743
 5762TIP3   OH238776   1.088   3.596   3.402 -0.3895  0.2185 -0.1078
 5762TIP3    H138777   1.149   3.612   3.474  1.4471 -1.2018 -1.2580
 5762TIP3    H238778   1.102   3.670   3.342 -1.0928  0.7962  0.4152
 5763TIP3   OH238779   0.277   5.665   2.054  0.2608 -0.8044  0.3567
 5763TIP3    H138780   0.186   5.652   2.027 -0.0699  2.5054 -0.5522
 5763TIP3    H238781   0.276   5.748   2.102  2.6445 -1.2503  1.2991
 5764TIP3   OH238782   6.005   2.833  10.757 -0.2308 -0.1660 -0.5478
 5764TIP3    H138783   6.015   2.739  10.743 -1.0705 -0.3941  0.2477
 5764TIP3    H238784   5.956   2.863  10.680 -3.2414 -1.0778  0.8807
 5765TIP3   OH238785   4.022   6.771   6.233  0.3467  0.0838  0.2391
 5765TIP3    H138786   4.041   6.765   6.139  1.1783  3.4585  0.0465
 5765TIP3    H238787   3.949   6.711   6.247  0.4258 -0.7792 -2.4600
 5766TIP3   OH238788   1.912   6.706   1.938  0.5931 -0.2964 -0.1323
 5766TIP3    H138789   1.931   6.761   1.863 -1.9428 -0.1853 -0.7855
 5766TIP3    H238790   1.817   6.714   1.951  0.7403 -1.3870  2.2348
 5767TIP3   OH238791   3.150   3.760   0.069 -0.5407  0.1072  0.1028
 5767TIP3    H138792   3.132   3.728   0.158 -1.4141  0.3901  0.0363
 5767TIP3    H238793   3.219   3.825   0.081  0.6246 -1.1100  0.3442
 5768TIP3   OH238794   0.049   4.537  16.260 -0.0567 -0.4442 -0.2199
 5768TIP3    H138795   0.032   4.592  16.184  2.6888 -0.8777 -1.2481
 5768TIP3    H238796  -0.022   4.558  16.321 -1.4185  1.1110 -2.2177
 5769TIP3   OH238797   5.065   6.593  10.615 -0.8964  0.2645 -0.0442
 5769TIP3    H138798   5.045   6.511  10.570 -1.1320  0.1696  0.2249
 5769TIP3    H238799   5.011   6.658  10.569 -1.4249  0.1025  0.3349
 5770TIP3   OH238800   6.344   6.576  15.188 -0.3857  0.0642  0.7601
 5770TIP3    H138801   6.390   6.660  15.181 -2.2795  1.2879  2.0471
 5770TIP3    H238802   6.414   6.513  15.206  1.1104  1.3154 -0.3674
 5771TIP3   OH238803   6.785   1.152   3.211  0.5344 -0.3910 -0.0599
 5771TIP3    H138804   6.789   1.086   3.280  0.0583  1.0069  1.3850
 5771TIP3    H238805   6.873   1.153   3.174  0.9149 -0.9340  0.7875
 5772TIP3   OH238806   5.997   0.110  11.866  0.4492  0.4704  0.0176
 5772TIP3    H138807   6.009   0.204  11.849  2.0514  0.1920 -0.6341
 5772TIP3    H238808   6.007   0.102  11.961 -0.4292  1.0339  0.1718
 5773TIP3   OH238809   0.168   6.549   5.918  0.2836  0.2694  0.1355
 5773TIP3    H138810   0.125   6.500   5.988  0.4234 -0.6136 -0.3849
 5773TIP3    H238811   0.139   6.639   5.930  0.3736  0.1420  1.3846
 5774TIP3   OH238812   5.494   0.900   4.782  0.5028  0.0078 -0.2187
 5774TIP3    H138813   5.436   0.939   4.848  0.7684 -1.1830  0.7425
 5774TIP3    H238814   5.443   0.900   4.702  0.0093  1.0661  0.0724
 5775TIP3   OH238815   4.103   4.622  12.282  0.4330 -0.1126  0.0068
 5775TIP3    H138816   4.130   4.536  12.248  3.3242  1.0457 -0.9253
 5775TIP3    H238817   4.114   4.614  12.377  1.3495 -0.5963 -0.1216
 5776TIP3   OH238818   6.795   3.164  11.310 -0.0211 -0.1209 -0.3863
 5776TIP3    H138819   6.820   3.200  11.395  1.5496 -1.1513 -0.3684
 5776TIP3    H238820   6.713   3.117  11.327 -0.5773  1.0256  0.1846
 5777TIP3   OH238821   4.246   6.471  15.795  0.1130 -0.0780 -0.1915
 5777TIP3    H138822   4.284   6.513  15.718 -1.0622  0.0418 -0.7286
 5777TIP3    H238823   4.178   6.531  15.824 -0.8103 -1.0414 -0.2747
 5778TIP3   OH238824   1.622   5.021  13.180  0.1018 -0.0014  0.1955
 5778TIP3    H138825   1.655   5.010  13.269 -1.2609  4.2898  1.4939
 5778TIP3    H238826   1.691   5.071  13.135 -0.2342 -0.0885 -0.4276
 5779TIP3   OH238827   1.073   5.307  15.678 -0.2875 -0.1824 -0.5897
 5779TIP3    H138828   1.027   5.378  15.633 -0.6309  0.5552  0.8504
 5779TIP3    H238829   1.071   5.332  15.770  1.1416 -1.2035 -0.2430
 5780TIP3   OH238830   0.737   5.532   2.355  0.2688 -0.4100  0.4160
 5780TIP3    H138831   0.790   5.593   2.304  1.9912 -2.1083  0.0345
 5780TIP3    H238832   0.656   5.522   2.304  1.1954 -0.6888 -1.0686
 5781TIP3   OH238833   6.652   1.364   5.347  0.3248  0.1714  0.4506
 5781TIP3    H138834   6.608   1.280   5.357  0.5028 -0.1218 -0.9471
 5781TIP3    H238835   6.652   1.380   5.252  2.2371  0.6769  0.4882
 5782TIP3   OH238836   3.422   4.241  14.537  0.4069  0.1658 -0.5065
 5782TIP3    H138837   3.442   4.325  14.580  0.7719 -0.6254  0.9349
 5782TIP3    H238838   3.330   4.248  14.512  0.8638  1.6244 -1.9269
 5783TIP3   OH238839   0.391   3.740   5.985  0.2077  0.5971 -0.3042
 5783TIP3    H138840   0.415   3.732   5.892  0.4955 -1.6980 -0.0956
 5783TIP3    H238841   0.469   3.712   6.032 -0.2080  0.9539  0.6096
 5784TIP3   OH238842   4.890   5.386  12.885 -0.2399  0.0123 -0.4565
 5784TIP3    H138843   4.873   5.313  12.945  0.2142  1.6094  1.7040
 5784TIP3    H238844   4.810   5.439  12.889  0.4644  1.0619  0.1566
 5785TIP3   OH238845   1.971   5.495  15.222 -0.1922 -0.4270 -0.5529
 5785TIP3    H138846   1.947   5.423  15.281  0.9567  1.2936  2.1758
 5785TIP3    H238847   2.029   5.454  15.157 -1.2499 -2.3228 -0.3785
 5786TIP3   OH238848   1.251   1.646   1.274 -0.1428  0.8829 -0.3480
 5786TIP3    H138849   1.200   1.676   1.199 -3.1720 -0.0695  1.1585
 5786TIP3    H238850   1.208   1.564   1.300  0.8731  1.0942  2.2924
 5787TIP3   OH238851   1.519   6.596  15.038  0.0131  0.3571 -0.3072
 5787TIP3    H138852   1.495   6.506  15.017 -0.1278 -0.2003  1.9865
 5787TIP3    H238853   1.458   6.649  14.987 -0.2846 -0.8458 -1.2498
 5788TIP3   OH238854   3.551   0.205  12.902 -0.3080  0.8303  0.0619
 5788TIP3    H138855   3.638   0.217  12.866 -0.0246 -0.3681  0.3095
 5788TIP3    H238856   3.523   0.119  12.871 -1.3001  1.0850  0.1938
 5789TIP3   OH238857   0.826   6.303   2.921  0.0201  0.9388  0.4919
 5789TIP3    H138858   0.761   6.373   2.923 -0.5866  0.3816  0.3571
 5789TIP3    H238859   0.797   6.244   2.852  0.1382  0.1829  1.0686
 5790TIP3   OH238860   4.390   2.656   2.972 -0.3333  0.4298  0.8607
 5790TIP3    H138861   4.441   2.708   3.033  0.4520  0.9681 -0.2212
 5790TIP3    H238862   4.370   2.716   2.900 -0.0410 -0.5561 -0.0674
 5791TIP3   OH238863   5.723   5.030   4.930 -0.2652  0.1163  0.1413
 5791TIP3    H138864   5.813   5.000   4.935 -0.8944 -1.7786  0.9462
 5791TIP3    H238865   5.704   5.064   5.018 -0.1447  1.1897 -0.2301
 5792TIP3   OH238866   0.634   0.944  16.037 -0.2307  0.1140 -0.0302
 5792TIP3    H138867   0.723   0.980  16.032 -0.8397  1.8545  0.9528
 5792TIP3    H238868   0.609   0.954  16.129 -0.8477 -1.9356  0.0757
 5793TIP3   OH238869   4.170   5.996   0.859  0.2889 -0.0840  0.1216
 5793TIP3    H138870   4.125   5.946   0.927  0.7353 -0.6539  0.0032
 5793TIP3    H238871   4.251   5.948   0.843 -0.1479 -0.3618 -1.3441
 5794TIP3   OH238872   1.417   0.524  14.938  0.0703 -0.2307  0.3684
 5794TIP3    H138873   1.475   0.594  14.967  0.9911 -1.6248  2.1032
 5794TIP3    H238874   1.330   0.561  14.941  0.6774  1.3461 -0.4560
 5795TIP3   OH238875   5.150   5.224  15.812 -0.0259  0.3564  0.1185
 5795TIP3    H138876   5.059   5.239  15.784  0.1945  0.8697 -0.3511
 5795TIP3    H238877   5.143   5.203  15.905 -0.4956  2.3412  0.5946
 5796TIP3   OH238878   6.682   3.900  14.323  0.3752 -0.2787  0.6056
 5796TIP3    H138879   6.769   3.892  14.364  0.3547  0.8408  0.9277
 5796TIP3    H238880   6.700   3.907  14.229  0.9097  2.5570  0.8191
 5797TIP3   OH238881   3.907   4.077   4.361  0.4618  0.2106  0.5912
 5797TIP3    H138882   3.988   4.030   4.344 -0.1023 -0.9934  1.0761
 5797TIP3    H238883   3.891   4.063   4.455 -0.5241  0.0464  0.4114
 5798TIP3   OH238884   5.955   6.194   1.332 -0.5172  0.0223  0.1372
 5798TIP3    H138885   5.888   6.134   1.364 -0.4122 -0.2526 -0.1538
 5798TIP3    H238886   5.911   6.249   1.268 -0.6768  0.4322  0.5965
 5799TIP3   OH238887   5.211   1.298   4.234 -0.4412  0.6765  0.7351
 5799TIP3    H138888   5.153   1.283   4.309 -1.4137 -0.1900 -0.1488
 5799TIP3    H238889   5.299   1.291   4.269 -0.7755 -3.5877  1.2070
 5800TIP3   OH238890   1.712   0.966  12.177 -0.3554 -0.6226 -0.5821
 5800TIP3    H138891   1.779   1.004  12.234 -2.6992  0.9416  1.3129
 5800TIP3    H238892   1.708   1.026  12.102 -0.2813 -0.2017 -0.2539
 5801TIP3   OH238893   1.545   0.601   5.331 -0.6143  0.2526  0.6343
 5801TIP3    H138894   1.564   0.685   5.373  0.5704  0.4996 -0.3476
 5801TIP3    H238895   1.481   0.623   5.263  1.7111  0.9411 -1.4876
 5802TIP3   OH238896   6.616   6.495   5.013 -0.2426  0.2433  0.0320
 5802TIP3    H138897   6.524   6.522   5.005 -0.4810 -0.2944  0.8131
 5802TIP3    H238898   6.619   6.408   4.974 -0.0348  0.3327 -0.1458
 5803TIP3   OH238899   2.791   3.716  14.517 -0.1698  0.3551  0.0800
 5803TIP3    H138900   2.725   3.692  14.583 -0.5697  1.6628  0.1823
 5803TIP3    H238901   2.771   3.660  14.442 -0.7859  0.0546  0.4541
 5804TIP3   OH238902   0.637   6.830  15.206 -0.0060 -0.4765 -0.6908
 5804TIP3    H138903   0.708   6.837  15.270 -1.3855  0.1523  0.8554
 5804TIP3    H238904   0.575   6.769  15.247 -0.8735 -0.1418 -1.4768
 5805TIP3   OH238905   5.609   4.615  13.283 -0.4932 -0.3314 -0.2727
 5805TIP3    H138906   5.523   4.615  13.241 -0.4285 -0.5709 -0.4110
 5805TIP3    H238907   5.592   4.636  13.374 -0.6942 -0.3393 -0.3085
 5806TIP3   OH238908   2.296   3.085   4.712  0.2258  0.1932 -0.2459
 5806TIP3    H138909   2.364   3.040   4.761  0.1001 -0.7370 -0.8762
 5806TIP3    H238910   2.272   3.160   4.766  1.3283  0.2034  0.2557
 5807TIP3   OH238911   5.354   6.596  13.387 -0.0008  0.1622  0.2742
 5807TIP3    H138912   5.327   6.659  13.454  1.8109  1.5092 -0.1963
 5807TIP3    H238913   5.346   6.642  13.304 -3.0021 -1.7537 -0.6484
 5808TIP3   OH238914   5.500   5.942   6.020  0.0227 -0.1146 -0.3993
 5808TIP3    H138915   5.504   5.870   5.957 -0.0690 -0.0406 -0.4916
 5808TIP3    H238916   5.449   5.908   6.093 -0.5860  0.0680 -0.7256
 5809TIP3   OH238917   1.986   1.013   2.369 -0.2347  0.1455 -0.4956
 5809TIP3    H138918   2.036   0.970   2.438  0.2462  0.9343 -0.3450
 5809TIP3    H238919   2.019   1.102   2.367  1.5382 -0.4461 -3.4230
 5810TIP3   OH238920   6.058   6.182  15.800  0.0056  0.5254 -0.0413
 5810TIP3    H138921   6.090   6.214  15.884 -0.0880  0.4047  0.0403
 5810TIP3    H238922   5.978   6.135  15.821 -1.2980  2.4449 -0.4632
 5811TIP3   OH238923   2.328   3.666  11.895 -0.1961 -0.5459  0.0915
 5811TIP3    H138924   2.309   3.749  11.852  0.3970 -1.3840 -1.9188
 5811TIP3    H238925   2.269   3.663  11.970  0.0127  1.8056  0.4163
 5812TIP3   OH238926   5.524   0.664   4.161  0.5281 -0.3745 -0.0164
 5812TIP3    H138927   5.529   0.634   4.070  2.3157 -1.2481  0.3235
 5812TIP3    H238928   5.454   0.611   4.199  1.1262 -1.4915 -0.4006
 5813TIP3   OH238929   5.108   6.286  13.979 -0.0134  0.1922 -0.4158
 5813TIP3    H138930   5.097   6.347  14.051 -0.5963 -0.4156  0.0276
 5813TIP3    H238931   5.152   6.336  13.911 -0.7747  1.2002 -0.1910
 5814TIP3   OH238932   3.350   1.110   0.277 -0.2044 -0.2139  0.3471
 5814TIP3    H138933   3.371   1.048   0.207 -0.9327 -0.6859  0.5472
 5814TIP3    H238934   3.297   1.060   0.338 -1.1678  0.7259  0.2982
 5815TIP3   OH238935   0.271   4.157   0.421 -0.6556  0.0689  0.6576
 5815TIP3    H138936   0.366   4.161   0.416 -0.7260  0.4614 -1.2283
 5815TIP3    H238937   0.246   4.236   0.469 -0.0868  1.2595 -0.8962
 5816TIP3   OH238938   2.760   3.590   5.518  0.1861  0.0509 -0.1577
 5816TIP3    H138939   2.734   3.673   5.559 -2.9703 -0.6520 -0.5011
 5816TIP3    H238940   2.766   3.611   5.425  0.2518  0.0766 -0.1478
 5817TIP3   OH238941   4.103   0.345  10.166 -0.1988 -0.3626  0.5319
 5817TIP3    H138942   4.173   0.394  10.122  1.8847 -2.3786  1.3914
 5817TIP3    H238943   4.067   0.406  10.230  1.4036  0.4695  0.6838
 5818TIP3   OH238944   4.394   5.819  12.209 -0.5533 -0.2637 -0.9347
 5818TIP3    H138945   4.348   5.754  12.262  0.9529  0.3562  1.2585
 5818TIP3    H238946   4.324   5.872  12.171 -1.7249 -0.6272  0.6048
 5819TIP3   OH238947   1.437   3.959  11.718  0.1090  0.0234  0.3805
 5819TIP3    H138948   1.476   4.026  11.774 -1.1257  1.8031 -0.7833
 5819TIP3    H238949   1.398   3.897  11.780  0.6437  0.7516  1.4957
 5820TIP3   OH238950   1.574   0.016   4.379 -0.0239  0.2670 -0.4096
 5820TIP3    H138951   1.554   0.071   4.303  1.1809  0.4997 -0.5811
 5820TIP3    H238952   1.669   0.010   4.379 -0.0699 -0.6359  0.4562
 5821TIP3   OH238953   4.000   6.013   0.066  1.0943 -0.1259  0.3894
 5821TIP3    H138954   4.002   6.099   0.023 -0.7940  0.2457  0.9305
 5821TIP3    H238955   3.911   6.006   0.100  1.3502 -2.1308  0.7520
 5822TIP3   OH238956   0.589   5.313  11.999  0.0719  0.1036  0.0535
 5822TIP3    H138957   0.571   5.407  12.001 -1.7228 -0.1766  2.7009
 5822TIP3    H238958   0.507   5.273  11.970  0.9934 -0.6696 -1.6011
 5823TIP3   OH238959   2.200   0.358  13.016 -0.2949  0.6918 -0.2896
 5823TIP3    H138960   2.230   0.445  13.042  2.2042  0.5890 -2.4283
 5823TIP3    H238961   2.154   0.372  12.933  0.5549 -0.0478 -0.9069
 5824TIP3   OH238962   5.323   0.353   0.810 -0.0985  0.9342  0.0916
 5824TIP3    H138963   5.333   0.447   0.795 -0.9724  1.1170  0.5907
 5824TIP3    H238964   5.401   0.328   0.858 -0.3338  1.6193  0.8634
 5825TIP3   OH238965   6.563   5.368  16.357 -0.5515 -0.1934  0.1932
 5825TIP3    H138966   6.579   5.276  16.335 -0.4248 -0.2829  0.6498
 5825TIP3    H238967   6.592   5.416  16.280 -2.7489 -0.6614 -1.0080
 5826TIP3   OH238968   5.543   5.401   4.628  0.1728  0.7164  0.2218
 5826TIP3    H138969   5.500   5.329   4.675  0.6773  0.2272 -0.0562
 5826TIP3    H238970   5.477   5.471   4.627  0.6253  1.3248  2.9477
 5827TIP3   OH238971   5.657   5.362  12.454  0.0189  0.0770  0.0453
 5827TIP3    H138972   5.682   5.433  12.394 -1.7886  0.9022  0.2078
 5827TIP3    H238973   5.562   5.362  12.452 -0.0752 -3.1645 -0.8569
 5828TIP3   OH238974   3.871   5.506  11.206  0.1596  0.1093 -0.5767
 5828TIP3    H138975   3.905   5.418  11.219  1.2453  0.6344  0.3083
 5828TIP3    H238976   3.946   5.557  11.174  0.6353  1.5471  2.4627
 5829TIP3   OH238977   2.067   1.765  14.224  0.5699  0.2073 -0.2518
 5829TIP3    H138978   1.975   1.737  14.223  0.3480  0.8873  0.2869
 5829TIP3    H238979   2.064   1.856  14.251  1.5447 -0.2907  1.7077
 5830TIP3   OH238980   6.806   6.244  14.043 -0.1963 -0.8172 -0.1385
 5830TIP3    H138981   6.771   6.178  14.103 -0.1253  0.4817  1.3944
 5830TIP3    H238982   6.784   6.328  14.084  1.7491  0.0867 -0.8255
 5831TIP3   OH238983   4.382   0.493  13.742 -0.0462  0.2794 -0.0359
 5831TIP3    H138984   4.320   0.550  13.696  0.9776  1.5677  0.1197
 5831TIP3    H238985   4.466   0.510  13.699  0.2603 -1.2703 -0.1034
 5832TIP3   OH238986   0.797   2.916  11.598  0.9721 -0.6217 -0.6596
 5832TIP3    H138987   0.891   2.923  11.579  1.1019  1.7661  0.4189
 5832TIP3    H238988   0.792   2.914  11.694 -0.0754  0.4244 -0.6609
 5833TIP3   OH238989   1.976   6.722   3.649 -0.3553  0.0030 -0.0244
 5833TIP3    H138990   2.005   6.636   3.617 -0.9807 -0.2568  0.0860
 5833TIP3    H238991   1.881   6.714   3.654 -0.4509  0.8407 -0.4059
 5834TIP3   OH238992   0.278   0.408   6.141 -0.7140 -0.2789  0.5297
 5834TIP3    H138993   0.369   0.380   6.134 -0.7796 -1.3839  3.0679
 5834TIP3    H238994   0.230   0.350   6.081  0.2416  0.6989 -1.2820
 5835TIP3   OH238995   2.623   4.891  11.392 -0.3057 -0.4897 -0.1757
 5835TIP3    H138996   2.595   4.942  11.469 -2.7833 -1.1238 -0.5984
 5835TIP3    H238997   2.676   4.953  11.341 -0.5601  0.6552  0.8955
 5836TIP3   OH238998   3.842   0.361   0.256  0.3320 -0.1116 -0.3401
 5836TIP3    H138999   3.828   0.325   0.168 -0.7388  0.4174 -0.3989
 5836TIP3    H239000   3.937   0.371   0.262  0.3966  0.2760 -1.6147
 5837TIP3   OH239001   4.684   0.789   1.996  0.1020 -0.7520 -0.1598
 5837TIP3    H139002   4.778   0.795   2.010  0.0717  0.7000 -0.4410
 5837TIP3    H239003   4.650   0.874   2.026 -1.4186 -2.0937  2.1956
 5838TIP3   OH239004   3.977   0.527   0.458 -1.1592 -0.3651 -0.3240
 5838TIP3    H139005   3.986   0.567   0.544  0.8935 -1.2399 -0.0663
 5838TIP3    H239006   3.905   0.464   0.467 -0.7748 -0.6543  0.8493
 5839TIP3   OH239007   2.824   3.970  14.921 -0.4122 -0.8125  0.9818
 5839TIP3    H139008   2.838   3.880  14.892 -0.3485 -1.1081  1.8975
 5839TIP3    H239009   2.904   3.992  14.969 -0.2453 -0.1131  0.4001
 5840TIP3   OH239010   1.255   6.349  14.724  0.3506  0.6501  0.3151
 5840TIP3    H139011   1.174   6.370  14.772  0.0410  0.2527 -0.0277
 5840TIP3    H239012   1.227   6.290  14.655  1.2434 -1.0924  1.3903
 5841TIP3   OH239013   5.298   5.874   4.113  0.0954  0.0893 -0.0874
 5841TIP3    H139014   5.255   5.942   4.061  0.0677  0.4327  0.3767
 5841TIP3    H239015   5.338   5.816   4.048  0.1838  0.5901 -0.4884
 5842TIP3   OH239016   2.409   6.531   5.565  0.0009 -0.1593  0.6328
 5842TIP3    H139017   2.446   6.523   5.477 -0.9698 -2.0533  0.3457
 5842TIP3    H239018   2.335   6.591   5.554 -1.5535 -2.1435 -0.4047
 5843TIP3   OH239019   1.878   3.172   4.454 -0.2334  0.3746  0.4196
 5843TIP3    H139020   1.868   3.131   4.539  0.1175 -1.7921 -0.5138
 5843TIP3    H239021   1.970   3.162   4.433 -0.5650 -0.3771 -0.7849
 5844TIP3   OH239022   0.268   0.427  12.156  0.7888 -0.0464  0.0553
 5844TIP3    H139023   0.333   0.479  12.107  2.2519 -1.9910 -0.1658
 5844TIP3    H239024   0.223   0.376  12.088  0.4438 -0.2172  0.4113
 5845TIP3   OH239025   2.516   1.591   4.658  0.1956 -0.1282  0.4968
 5845TIP3    H139026   2.557   1.552   4.581 -0.6140 -0.0262  0.0031
 5845TIP3    H239027   2.478   1.516   4.706 -1.7231  0.0245 -0.6670
 5846TIP3   OH239028   2.185   3.807   5.467 -0.0529 -0.0744  1.0054
 5846TIP3    H139029   2.232   3.775   5.544  0.1467 -2.2557  0.0718
 5846TIP3    H239030   2.132   3.732   5.439 -0.5862  0.8664 -0.6145
 5847TIP3   OH239031   2.452   4.046   2.374 -0.0199  0.4127  0.2285
 5847TIP3    H139032   2.532   4.053   2.323  0.8824  2.0610  1.7546
 5847TIP3    H239033   2.473   3.982   2.443 -1.0316 -1.3429 -0.9990
 5848TIP3   OH239034   1.607   5.572   4.832 -0.1112 -0.0849  0.3352
 5848TIP3    H139035   1.629   5.556   4.924  0.8078 -0.1716  0.1047
 5848TIP3    H239036   1.530   5.629   4.836  1.4055  2.0445  1.1955
 5849TIP3   OH239037   3.039   1.371  12.069 -0.0613  0.3241  0.4472
 5849TIP3    H139038   2.979   1.298  12.084  0.6949 -0.4747 -0.2150
 5849TIP3    H239039   3.119   1.346  12.116 -0.0894  1.1581  0.9504
 5850TIP3   OH239040   5.378   3.765  12.990 -0.4215  0.0892 -0.4246
 5850TIP3    H139041   5.440   3.779  13.062 -1.7991  0.6754  0.6971
 5850TIP3    H239042   5.403   3.680  12.953  0.9535  0.2524  0.0844
 5851TIP3   OH239043   2.197   5.347  13.225  0.4422 -0.0110 -0.9091
 5851TIP3    H139044   2.136   5.420  13.234 -2.1890 -2.1102 -0.0987
 5851TIP3    H239045   2.271   5.370  13.281 -0.9904  1.4242  0.4985
 5852TIP3   OH239046   2.076   5.444   4.901  0.6393 -0.5462 -0.5364
 5852TIP3    H139047   2.136   5.470   4.971 -0.5018  1.3941 -0.1963
 5852TIP3    H239048   2.078   5.518   4.840 -0.3664 -1.0531 -1.2021
 5853TIP3   OH239049   5.724   2.357   4.141  0.2645  0.4926 -0.4550
 5853TIP3    H139050   5.799   2.403   4.179  0.5826 -1.3739  1.3700
 5853TIP3    H239051   5.734   2.266   4.169 -1.1493 -0.4215 -2.6316
 5854TIP3   OH239052   3.498   1.999   2.253  0.0925 -0.2386  0.2169
 5854TIP3    H139053   3.562   1.951   2.200  0.6204 -2.6030  2.7854
 5854TIP3    H239054   3.529   2.089   2.252  2.1025 -0.8888 -0.6032
 5855TIP3   OH239055   0.577   0.876  12.918 -0.0392 -0.0143 -0.0157
 5855TIP3    H139056   0.601   0.810  12.984 -1.6864 -1.0559 -0.3855
 5855TIP3    H239057   0.496   0.914  12.951  1.3277  2.5281  0.6184
 5856TIP3   OH239058   3.436   4.641   2.025  0.8170 -0.1391 -0.1001
 5856TIP3    H139059   3.370   4.590   2.071  0.9712 -0.9133 -0.7126
 5856TIP3    H239060   3.431   4.728   2.064 -2.5170  0.6920 -2.0103
 5857TIP3   OH239061   4.628   4.078   0.761 -0.6136 -0.3586  0.0543
 5857TIP3    H139062   4.688   4.147   0.733 -0.3174  0.3734  2.3525
 5857TIP3    H239063   4.680   3.998   0.755 -0.5061 -0.2206 -1.2146
 5858TIP3   OH239064   5.621   0.336   0.059  0.5641 -0.1182  0.3863
 5858TIP3    H139065   5.572   0.362   0.137 -1.4199 -2.2440 -0.0351
 5858TIP3    H239066   5.700   0.294   0.093  0.4269  0.2596  1.1933
 5859TIP3   OH239067   5.637   3.717  16.119 -0.1566  0.6120 -0.0728
 5859TIP3    H139068   5.686   3.728  16.200 -1.8280 -0.1560  1.0840
 5859TIP3    H239069   5.599   3.629  16.125 -1.2447  0.9738 -1.1590
 5860TIP3   OH239070   6.084   2.051   2.092 -0.4722  0.1994  0.2123
 5860TIP3    H139071   6.017   1.982   2.099  0.8220 -1.0176  1.0381
 5860TIP3    H239072   6.167   2.004   2.084  0.3542  1.6785 -0.2790
 5861TIP3   OH239073   3.608   1.226  14.326  0.4664  0.3758  0.0732
 5861TIP3    H139074   3.597   1.314  14.363  2.8220  0.9928 -0.5238
 5861TIP3    H239075   3.674   1.237  14.257  0.9797 -1.8863  0.1244
 5862TIP3   OH239076   3.359   2.580   5.488 -0.2380 -0.2692 -0.6220
 5862TIP3    H139077   3.401   2.515   5.432 -0.7685 -1.6044  0.4787
 5862TIP3    H239078   3.319   2.529   5.558  0.3436  1.3517  0.9481
 5863TIP3   OH239079   3.982   4.942  16.853  0.1774  0.2543  0.0925
 5863TIP3    H139080   3.954   4.879  16.919 -2.8551  0.6088 -0.7161
 5863TIP3    H239081   3.956   5.027  16.887  2.2144  0.9015  0.1704
 5864TIP3   OH239082   2.500   5.550   6.194 -1.2584 -0.1014  0.7317
 5864TIP3    H139083   2.584   5.588   6.170 -0.2499 -1.2936  2.1292
 5864TIP3    H239084   2.458   5.528   6.111 -1.0147  2.1269 -0.0477
 5865TIP3   OH239085   6.068   1.063  14.532  0.5500 -0.0868 -0.4959
 5865TIP3    H139086   6.054   1.148  14.491  0.4793  0.6925  1.0589
 5865TIP3    H239087   6.157   1.068  14.567  0.3455 -0.4235  0.0901
 5866TIP3   OH239088   6.391   4.311  13.145 -0.2762 -0.3743 -0.3300
 5866TIP3    H139089   6.349   4.397  13.145  0.9412  0.2473 -0.1068
 5866TIP3    H239090   6.401   4.289  13.052 -1.5302 -0.7794 -0.3925
 5867TIP3   OH239091   3.564   2.410   5.788 -0.0921  0.3885  0.4376
 5867TIP3    H139092   3.595   2.424   5.877 -2.7816 -1.1095  1.7465
 5867TIP3    H239093   3.471   2.388   5.799 -0.6656  0.7357 -2.8009
 5868TIP3   OH239094   0.592   5.153  13.925  0.3268 -0.2989  0.2864
 5868TIP3    H139095   0.661   5.115  13.980  0.0772 -2.1236 -0.5879
 5868TIP3    H239096   0.603   5.111  13.840 -0.4701  1.0771 -0.5402
 5869TIP3   OH239097   5.910   5.723   4.825  0.6563  0.3083  0.7261
 5869TIP3    H139098   5.853   5.785   4.870 -1.0847 -0.1799 -0.6892
 5869TIP3    H239099   5.961   5.682   4.895 -1.5856 -0.0727  2.2214
 5870TIP3   OH239100   0.605   1.975  16.211  0.5742  0.3146 -0.9560
 5870TIP3    H139101   0.671   2.043  16.217 -0.2108  1.0383 -0.1792
 5870TIP3    H239102   0.528   2.018  16.173  0.1065 -0.1582 -0.5774
 5871TIP3   OH239103   5.965   0.903  12.321  0.4964  0.2569  0.5739
 5871TIP3    H139104   5.927   0.829  12.274  4.1501  0.2600 -2.9028
 5871TIP3    H239105   6.022   0.864  12.387  1.3544 -0.0460 -0.3275
 5872TIP3   OH239106   5.461   6.740   2.099 -0.2017  0.4229 -0.6929
 5872TIP3    H139107   5.366   6.748   2.096 -0.1491  0.9297 -1.0360
 5872TIP3    H239108   5.493   6.828   2.120  0.1980  0.2901 -0.7299
 5873TIP3   OH239109   3.711   3.502   4.285  0.2439 -0.1208  0.0215
 5873TIP3    H139110   3.776   3.558   4.328  0.0026  0.5303 -0.4421
 5873TIP3    H239111   3.741   3.413   4.303  1.0814  0.1611  0.0916
 5874TIP3   OH239112   5.594   5.191   2.960 -0.3012  0.1803  0.0418
 5874TIP3    H139113   5.603   5.181   2.865 -2.7313  1.5582 -0.4117
 5874TIP3    H239114   5.508   5.156   2.980 -0.2337  0.8412  1.5975
 5875TIP3   OH239115   2.659   1.750  12.031  0.4986 -0.0297  0.7962
 5875TIP3    H139116   2.728   1.755  11.964  0.9984 -0.6863  1.2462
 5875TIP3    H239117   2.706   1.756  12.114 -0.3393  4.1732  1.1974
 5876TIP3   OH239118   0.889   1.418   4.700  0.0796 -0.6197  0.0783
 5876TIP3    H139119   0.975   1.377   4.703  0.6111  0.4633  0.1857
 5876TIP3    H239120   0.873   1.446   4.791  0.7663  1.4251 -0.3736
 5877TIP3   OH239121   6.555   5.254  11.788 -0.6621  0.3508 -0.2261
 5877TIP3    H139122   6.559   5.293  11.875  0.2892 -0.3330  0.0593
 5877TIP3    H239123   6.646   5.229  11.769 -1.2404 -1.9900 -0.2373
 5878TIP3   OH239124   0.244   1.844   0.602 -0.3749 -0.0891  0.0760
 5878TIP3    H139125   0.200   1.786   0.540 -0.7274 -0.6492  0.8286
 5878TIP3    H239126   0.251   1.792   0.683 -1.6027  1.2287  1.0898
 5879TIP3   OH239127   5.024   3.049   1.639  0.0993  0.0008 -0.0220
 5879TIP3    H139128   5.106   3.065   1.592 -0.2904 -0.0110 -0.7173
 5879TIP3    H239129   4.977   3.132   1.635 -0.5151 -0.3713 -0.8286
 5880TIP3   OH239130   1.086   3.615  16.583  0.3518 -0.2564  0.0031
 5880TIP3    H139131   1.014   3.616  16.520  0.2205 -1.3477  0.1207
 5880TIP3    H239132   1.159   3.576  16.536  0.5334 -0.2044  0.2373
 5881TIP3   OH239133   1.882   1.332   2.179  0.5612 -0.2772 -0.2401
 5881TIP3    H139134   1.965   1.323   2.227  0.9935 -1.1826 -1.1247
 5881TIP3    H239135   1.893   1.413   2.129 -0.0501  0.8993  1.4201
 5882TIP3   OH239136   2.418   2.729   2.948 -0.1195 -1.0137  0.3161
 5882TIP3    H139137   2.361   2.734   3.025  0.4797  0.0545  0.7207
 5882TIP3    H239138   2.503   2.702   2.984 -0.3310 -2.5375 -0.2708
 5883TIP3   OH239139   3.242   3.869   1.796  0.0717  0.0655 -0.4943
 5883TIP3    H139140   3.279   3.911   1.718 -0.6877  0.5682 -0.5941
 5883TIP3    H239141   3.153   3.902   1.801 -1.1919 -2.8354 -1.5532
 5884TIP3   OH239142   2.166   0.303   4.556 -0.4518 -0.1786  0.9785
 5884TIP3    H139143   2.223   0.377   4.533 -1.0593  0.4522  1.4395
 5884TIP3    H239144   2.197   0.231   4.502  0.5721  0.2374  0.9876
 5885TIP3   OH239145   3.648   5.735  14.251 -0.3071 -0.7324 -0.8505
 5885TIP3    H139146   3.622   5.762  14.163  2.0885 -1.0533 -1.7406
 5885TIP3    H239147   3.586   5.666  14.275 -2.0020  0.4706 -1.5657
 5886TIP3   OH239148   1.615   2.373   2.130  0.3789 -0.4913 -0.0642
 5886TIP3    H139149   1.657   2.388   2.215 -1.5804 -2.2563  1.2889
 5886TIP3    H239150   1.564   2.294   2.141 -2.3841  0.8601 -1.9556
 5887TIP3   OH239151   3.729   1.925  13.327 -0.4036  0.1489 -0.8785
 5887TIP3    H139152   3.650   1.976  13.346 -0.6647 -0.9977  1.5361
 5887TIP3    H239153   3.801   1.986  13.345 -0.7132  0.6829 -1.4183
 5888TIP3   OH239154   2.467   5.483   5.574 -0.1538 -0.2069 -0.0051
 5888TIP3    H139155   2.522   5.439   5.638 -0.2301  0.6060  0.6443
 5888TIP3    H239156   2.524   5.548   5.533 -0.8363  1.3212  1.3705
 5889TIP3   OH239157   1.914   5.257  11.435  0.5173 -0.2475  0.1498
 5889TIP3    H139158   1.860   5.318  11.486  1.6483  0.2444  0.8009
 5889TIP3    H239159   1.967   5.211  11.501  1.7136  0.1076 -0.5320
 5890TIP3   OH239160   3.698   5.540  13.827  0.1561 -0.0821 -0.6815
 5890TIP3    H139161   3.749   5.463  13.851  0.0367  0.7346  2.6417
 5890TIP3    H239162   3.746   5.578  13.753  1.7789 -1.7603 -0.5700
 5891TIP3   OH239163   0.745   2.301  15.556 -0.3107 -0.4748  0.8982
 5891TIP3    H139164   0.685   2.373  15.538 -0.5253 -1.1083 -1.1300
 5891TIP3    H239165   0.690   2.222  15.551  0.4278 -0.9639  0.4024
 5892TIP3   OH239166   0.858   4.065  16.598 -0.4008 -0.5541  0.3568
 5892TIP3    H139167   0.882   4.113  16.678  0.9343 -0.2734 -0.1725
 5892TIP3    H239168   0.864   3.973  16.623  0.8969 -0.4877  0.3819
 5893TIP3   OH239169   6.112   3.281  14.218  0.5172 -0.0893 -0.0264
 5893TIP3    H139170   6.126   3.294  14.312 -3.9053 -2.4138  1.2041
 5893TIP3    H239171   6.034   3.331  14.198 -2.4355 -4.4336 -0.7387
 5894TIP3   OH239172   0.513   4.138   5.540 -0.5769  0.3689 -0.3981
 5894TIP3    H139173   0.573   4.166   5.471 -0.9988 -0.3047 -1.0501
 5894TIP3    H239174   0.456   4.074   5.498 -0.8869  0.0011  0.5580
 5895TIP3   OH239175   5.861   1.123   2.208 -0.0433  0.1940  0.1611
 5895TIP3    H139176   5.923   1.096   2.141 -0.5968 -1.9643  0.4376
 5895TIP3    H239177   5.792   1.169   2.160 -0.4032 -1.2654 -0.7969
 5896TIP3   OH239178   6.339   6.705   4.389 -0.0002 -0.0538  0.0929
 5896TIP3    H139179   6.397   6.670   4.322  0.5333 -1.7999  1.3891
 5896TIP3    H239180   6.399   6.749   4.450 -0.1759 -0.6428  0.7016
 5897TIP3   OH239181   6.668   1.607  15.755  0.1966  0.1921  0.4973
 5897TIP3    H139182   6.640   1.627  15.844 -1.6476  1.7619 -0.3751
 5897TIP3    H239183   6.690   1.692  15.717  0.0522 -0.3490 -0.8450
 5898TIP3   OH239184   4.668   1.319   2.519 -0.1961 -0.4298  0.2786
 5898TIP3    H139185   4.754   1.287   2.546  0.6784  1.5546 -0.0057
 5898TIP3    H239186   4.657   1.289   2.429  0.7301  0.2628 -0.0789
 5899TIP3   OH239187   3.100   1.583   0.768  0.4854  0.5563  0.3645
 5899TIP3    H139188   3.151   1.555   0.692  0.9728  1.1513  0.4681
 5899TIP3    H239189   3.057   1.503   0.799  1.7039 -0.0446  0.5538
 5900TIP3   OH239190   4.866   1.212   3.120  0.2713  0.3507  0.3870
 5900TIP3    H139191   4.894   1.303   3.118 -0.1729  0.4923  0.6167
 5900TIP3    H239192   4.880   1.181   3.030 -1.3247  1.1796 -0.1749
 5901TIP3   OH239193   6.252   4.789  12.336  0.8147 -0.7003 -0.0741
 5901TIP3    H139194   6.280   4.708  12.379  1.0090 -0.1621  0.8410
 5901TIP3    H239195   6.254   4.769  12.243  2.9456 -1.1075  0.0160
 5902TIP3   OH239196   6.403   0.595   3.785 -1.2303  0.1145 -0.1079
 5902TIP3    H139197   6.374   0.597   3.694 -0.5413  1.8702 -0.3225
 5902TIP3    H239198   6.499   0.603   3.780 -1.1489 -0.2182  0.7563
 5903TIP3   OH239199   5.836   5.833  11.704 -0.3376  0.3536 -0.5296
 5903TIP3    H139200   5.821   5.826  11.610 -1.8688  0.5893 -0.3392
 5903TIP3    H239201   5.752   5.808  11.744  0.0253  1.0308  0.7398
 5904TIP3   OH239202   4.310   0.708   2.515  0.0066  0.1251 -0.1034
 5904TIP3    H139203   4.313   0.667   2.602 -0.2783 -0.5718 -0.4106
 5904TIP3    H239204   4.401   0.705   2.484  0.2567  1.1067  0.4888
 5905TIP3   OH239205   1.480   6.005   4.154  0.1059 -0.2324 -0.1364
 5905TIP3    H139206   1.494   5.913   4.177 -0.2303 -0.3856 -0.5202
 5905TIP3    H239207   1.428   6.040   4.226  0.6229 -0.2207  0.2347
 5906TIP3   OH239208   5.248   2.165   0.541  0.2734 -0.2309 -0.2263
 5906TIP3    H139209   5.200   2.200   0.466  0.1799 -2.1974 -1.1686
 5906TIP3    H239210   5.180   2.141   0.604  0.3849  2.1274  0.9068
 5907TIP3   OH239211   5.200   5.658  12.173 -1.0234 -0.5167  0.1521
 5907TIP3    H139212   5.157   5.581  12.211 -0.5726 -1.0733 -0.4268
 5907TIP3    H239213   5.265   5.621  12.113  0.0373  0.3013  0.7687
 5908TIP3   OH239214   2.220   3.155  15.848 -0.1443 -0.1847  0.0890
 5908TIP3    H139215   2.248   3.141  15.938  1.3891 -0.3352 -0.3852
 5908TIP3    H239216   2.281   3.103  15.795 -1.0462 -0.1437 -1.0350
 5909TIP3   OH239217   3.378   0.533   2.200 -0.4341  0.3755  0.2846
 5909TIP3    H139218   3.451   0.472   2.191 -1.0117 -0.4798  1.2889
 5909TIP3    H239219   3.414   0.607   2.250 -0.0360  0.3394  0.0494
 5910TIP3   OH239220   3.938   3.432   4.124 -0.3192 -0.1310 -0.4688
 5910TIP3    H139221   3.885   3.508   4.150 -1.4372 -1.3529  1.0081
 5910TIP3    H239222   3.879   3.378   4.072 -0.5098 -1.3973  0.9971
 5911TIP3   OH239223   0.501   0.862  12.623  0.2873 -0.0722  0.6806
 5911TIP3    H139224   0.507   0.942  12.674 -0.4219 -0.8330  1.9884
 5911TIP3    H239225   0.414   0.828  12.640  0.0069 -0.3559 -1.0616
 5912TIP3   OH239226   3.616   5.590   5.127  0.0327 -0.7826  0.1455
 5912TIP3    H139227   3.598   5.633   5.211  0.8611 -0.0936 -0.0133
 5912TIP3    H239228   3.701   5.625   5.100 -0.4283 -0.6533 -1.2021
 5913TIP3   OH239229   1.260   5.701  11.859  0.0105  0.2003  0.2588
 5913TIP3    H139230   1.198   5.630  11.845 -0.3011  0.9240 -2.7749
 5913TIP3    H239231   1.212   5.765  11.912 -1.0817 -0.1874 -0.2373
 5914TIP3   OH239232   2.598   2.381  13.401  0.1025 -1.1314 -0.1871
 5914TIP3    H139233   2.505   2.402  13.391  0.2523 -1.2060 -2.0565
 5914TIP3    H239234   2.632   2.380  13.311  1.9503 -0.9442  0.4724
 5915TIP3   OH239235   1.001   1.630  16.089 -0.2575  0.3887 -0.3249
 5915TIP3    H139236   1.057   1.578  16.032 -0.1399  0.4493 -0.2659
 5915TIP3    H239237   0.921   1.642  16.040 -0.5227 -0.3768 -0.0942
 5916TIP3   OH239238   0.676   0.241  12.480  0.0129 -0.5540  0.7349
 5916TIP3    H139239   0.709   0.233  12.569  0.2572 -2.0943  0.5304
 5916TIP3    H239240   0.583   0.219  12.487  0.2617 -1.8088  0.4768
 5917TIP3   OH239241   1.026   1.108  13.216 -0.4592 -0.2625  0.6348
 5917TIP3    H139242   0.941   1.073  13.188 -0.6098  0.5221  0.0878
 5917TIP3    H239243   1.055   1.047  13.284 -0.7355 -1.4144 -0.2407
 5918TIP3   OH239244   4.994   3.782   3.215  0.4220 -0.7950 -0.0661
 5918TIP3    H139245   5.065   3.845   3.224 -0.9729  0.9081 -0.2785
 5918TIP3    H239246   5.012   3.737   3.132  0.9027  0.0899 -0.4600
 5919TIP3   OH239247   5.850   3.610   1.405  0.9132  0.0814  0.0343
 5919TIP3    H139248   5.835   3.582   1.495 -1.2648  0.0743 -0.2691
 5919TIP3    H239249   5.883   3.532   1.361  2.1398  0.1294  0.8387
 5920TIP3   OH239250   5.187   3.369  12.773  0.2237 -0.2255  0.1052
 5920TIP3    H139251   5.154   3.435  12.712 -0.1540 -0.3294  0.1951
 5920TIP3    H239252   5.112   3.345  12.826  0.7274  0.4255  1.1377
 5921TIP3   OH239253   4.362   0.878  12.229 -0.8573 -0.3919  0.2666
 5921TIP3    H139254   4.364   0.792  12.270 -0.3129 -0.2894  0.4627
 5921TIP3    H239255   4.426   0.929  12.277  0.0641 -0.3728 -0.9274
 5922TIP3   OH239256   4.813   6.210  11.804  0.2058  0.0937  0.0970
 5922TIP3    H139257   4.867   6.188  11.880 -0.1954  0.8799  0.6192
 5922TIP3    H239258   4.870   6.196  11.729  1.2333  1.1598  0.6451
 5923TIP3   OH239259   0.693   3.300  14.158 -0.1694  0.5944 -0.1245
 5923TIP3    H139260   0.611   3.265  14.123  0.6720 -0.2967 -1.2852
 5923TIP3    H239261   0.760   3.241  14.124  0.8991  0.9313  1.3395
 5924TIP3   OH239262   5.165   2.751   5.708  0.3027  0.3162  0.0448
 5924TIP3    H139263   5.078   2.793   5.708 -0.6277 -1.5336  0.2354
 5924TIP3    H239264   5.165   2.698   5.629  0.7442 -0.7181  0.7309
 5925TIP3   OH239265   6.559   6.373  15.213 -0.1542 -0.1259 -0.4110
 5925TIP3    H139266   6.639   6.419  15.189 -0.3483 -0.2055 -1.2313
 5925TIP3    H239267   6.563   6.290  15.165 -0.4328 -0.4047  0.0323
 5926TIP3   OH239268   6.210   4.534  11.753  0.2709  0.7384  0.7443
 5926TIP3    H139269   6.198   4.456  11.698  0.0746  2.2867 -1.5954
 5926TIP3    H239270   6.126   4.544  11.798  0.0526 -0.0217  0.5341
 5927TIP3   OH239271   0.439   0.142  15.671  0.6740 -0.4427 -0.0659
 5927TIP3    H139272   0.359   0.152  15.724  1.7131  2.4620  1.1784
 5927TIP3    H239273   0.482   0.064  15.707 -0.4500 -0.6736  0.8410
 5928TIP3   OH239274   2.867   6.541  14.487 -0.1004  0.2044  0.1024
 5928TIP3    H139275   2.909   6.507  14.566  1.9458  0.4322 -0.8250
 5928TIP3    H239276   2.940   6.565  14.430 -1.4437  3.1311 -0.5724
 5929TIP3   OH239277   3.837   5.865  16.489 -0.0029 -0.7479 -0.1232
 5929TIP3    H139278   3.931   5.857  16.504  0.0343 -0.3250 -0.1196
 5929TIP3    H239279   3.824   5.957  16.467 -0.6445 -0.4086  1.5310
 5930TIP3   OH239280   6.013   2.750   3.698  0.5060 -0.2629 -0.3260
 5930TIP3    H139281   5.975   2.724   3.614 -0.7758  2.5601 -0.7307
 5930TIP3    H239282   6.102   2.778   3.675  0.8273 -1.2776 -0.3800
 5931TIP3   OH239283   4.207   3.166  17.015  1.0646 -0.4521  0.2110
 5931TIP3    H139284   4.146   3.171  17.089  1.4447  1.3766  0.4515
 5931TIP3    H239285   4.150   3.167  16.937  0.7273 -0.2455  0.4567
 5932TIP3   OH239286   1.366   6.701   6.820  0.2367  0.0093 -0.0644
 5932TIP3    H139287   1.339   6.726   6.731  0.1247 -1.2500 -0.3967
 5932TIP3    H239288   1.460   6.720   6.822  0.1616  0.4230 -0.3107
 5933TIP3   OH239289   0.973   4.258   4.944  0.4873 -0.4428 -0.3577
 5933TIP3    H139290   1.005   4.265   5.035  0.6048 -0.8686 -0.3666
 5933TIP3    H239291   0.878   4.249   4.953  0.1610  2.1628 -0.3731
 5934TIP3   OH239292   0.943   0.531   5.661  0.1048 -0.3709  0.1677
 5934TIP3    H139293   0.957   0.449   5.708 -0.3634 -0.3301  0.3904
 5934TIP3    H239294   0.935   0.505   5.569 -0.3457 -0.6157  0.2715
 5935TIP3   OH239295   0.375   5.531   0.670 -0.2151 -0.1065 -0.3040
 5935TIP3    H139296   0.453   5.582   0.649 -1.3506  1.6394 -0.4767
 5935TIP3    H239297   0.369   5.467   0.599  1.8496 -1.3205  0.5055
 5936TIP3   OH239298   0.299   3.020  16.175  0.2013  0.1168 -0.4629
 5936TIP3    H139299   0.380   3.044  16.219 -0.4101 -0.9309  1.3346
 5936TIP3    H239300   0.247   2.975  16.242 -1.8987  0.8131 -1.5232
 5937TIP3   OH239301   4.278   1.912  13.462  0.1448  0.5355  0.1567
 5937TIP3    H139302   4.352   1.858  13.490  1.5409  1.3439 -1.6856
 5937TIP3    H239303   4.289   1.994  13.510 -0.3092  0.2265  0.8077
 5938TIP3   OH239304   4.017   2.225  13.125 -0.6882 -0.3347 -0.1861
 5938TIP3    H139305   4.102   2.245  13.086 -0.1980 -1.8824  0.0205
 5938TIP3    H239306   4.019   2.130  13.141 -1.5556 -0.0662  1.9250
 5939TIP3   OH239307   1.580   2.803   5.968 -0.0249 -0.0656  0.0760
 5939TIP3    H139308   1.557   2.829   6.057 -0.9332  0.6743 -0.3577
 5939TIP3    H239309   1.659   2.750   5.979 -0.6142 -0.7342  1.3983
 5940TIP3   OH239310   4.576   2.008   0.761  0.9680  0.5570  0.1378
 5940TIP3    H139311   4.533   1.977   0.681  1.7746  1.4639 -0.6791
 5940TIP3    H239312   4.580   1.931   0.818  0.5374 -0.1467 -0.7591
 5941TIP3   OH239313   3.568   4.140   5.094 -0.3704 -0.1407 -0.1638
 5941TIP3    H139314   3.609   4.076   5.152 -0.4007  2.4377  3.0013
 5941TIP3    H239315   3.488   4.166   5.140  0.7587  3.7687 -0.0306
 5942TIP3   OH239316   2.269   6.664   4.319 -0.1888 -0.0640 -0.4146
 5942TIP3    H139317   2.179   6.695   4.319 -0.4534 -0.6545  1.6722
 5942TIP3    H239318   2.262   6.570   4.304 -0.0761 -0.3411  1.1054
 5943TIP3   OH239319   1.236   0.660  13.909 -0.0804 -0.2320 -0.2798
 5943TIP3    H139320   1.177   0.735  13.923 -0.1575 -0.3022 -0.2288
 5943TIP3    H239321   1.296   0.690  13.841  0.2987  0.1120  0.1973
 5944TIP3   OH239322   0.080   2.040   3.659 -0.5117  0.6510 -0.2746
 5944TIP3    H139323   0.149   1.974   3.652 -1.0775  0.0672 -0.4895
 5944TIP3    H239324   0.127   2.123   3.666  0.2116  0.3081 -0.8232
 5945TIP3   OH239325   1.096   0.012  14.468 -0.4644  0.1610  0.2146
 5945TIP3    H139326   1.119   0.067  14.393 -1.6215 -0.6764 -0.7983
 5945TIP3    H239327   1.121  -0.076  14.442 -2.8421 -0.4834 -0.1366
 5946TIP3   OH239328   5.223   3.500   3.151  0.2798  0.1200  0.0345
 5946TIP3    H139329   5.149   3.511   3.092 -0.4160  1.2085  1.0827
 5946TIP3    H239330   5.300   3.507   3.094 -0.3695  0.9687 -0.7675
 5947TIP3   OH239331   2.310   4.855   3.962  0.1233  0.4962 -0.4814
 5947TIP3    H139332   2.382   4.796   3.941  0.5249  0.7869  0.0309
 5947TIP3    H239333   2.285   4.832   4.051 -0.5950  0.2319 -0.7420
 5948TIP3   OH239334   1.864   1.904   4.396  0.4858 -0.1782 -0.2389
 5948TIP3    H139335   1.938   1.891   4.455  0.6102 -0.0338 -0.3618
 5948TIP3    H239336   1.904   1.936   4.314  0.1658  1.3858  0.1853
 5949TIP3   OH239337   0.361   6.158   5.670 -0.7112  0.3201  0.3096
 5949TIP3    H139338   0.435   6.217   5.685  0.2400 -0.4591 -1.1139
 5949TIP3    H239339   0.300   6.178   5.741  0.9422  0.8458  1.6378
 5950TIP3   OH239340   0.056   4.931  12.198  0.5078  0.0599 -0.5082
 5950TIP3    H139341   0.132   4.963  12.151  1.5643  2.4661  2.5207
 5950TIP3    H239342   0.072   4.953  12.290 -2.4008 -2.2657  0.7706
 5951TIP3   OH239343   4.802   3.051   4.059 -0.2572  0.5458 -0.0311
 5951TIP3    H139344   4.861   3.019   4.128  0.4202  0.4556 -0.6372
 5951TIP3    H239345   4.810   2.986   3.990  0.0139  1.2725 -0.6917
 5952TIP3   OH239346   3.523   3.710   1.773  0.4486 -0.6315  0.8418
 5952TIP3    H139347   3.441   3.755   1.795 -0.0294 -1.0127 -0.1171
 5952TIP3    H239348   3.587   3.747   1.833  0.2418  1.8824 -0.3599
 5953TIP3   OH239349   3.875   2.446  11.812  0.0569 -0.5336 -0.7723
 5953TIP3    H139350   3.963   2.408  11.809 -0.1482 -1.1536  0.5401
 5953TIP3    H239351   3.889   2.540  11.816  0.7719 -0.6707  1.6246
 5954TIP3   OH239352   3.226   4.562  11.384  0.2063 -0.0737  0.2389
 5954TIP3    H139353   3.133   4.541  11.379 -0.2574  1.4073  1.7392
 5954TIP3    H239354   3.253   4.572  11.293 -0.9413 -1.1005 -0.2486
 5955TIP3   OH239355   5.576   5.453  13.225 -0.0772  0.2248  0.8171
 5955TIP3    H139356   5.536   5.428  13.308 -0.8182  0.4237  0.5269
 5955TIP3    H239357   5.670   5.439  13.239 -0.1374  0.7072  1.8418
 5956TIP3   OH239358   0.098   5.634  10.557 -0.0913 -0.3508 -0.0334
 5956TIP3    H139359   0.087   5.546  10.522  4.0075 -0.4256 -1.7162
 5956TIP3    H239360   0.099   5.623  10.652 -2.2147 -1.6229 -0.0975
 5957TIP3   OH239361   4.784   3.134   0.099  0.4975 -0.1759  0.6155
 5957TIP3    H139362   4.847   3.205   0.109 -1.9070  2.0084  1.4740
 5957TIP3    H239363   4.762   3.134   0.006  0.1020  0.6131  0.7028
 5958TIP3   OH239364   0.060   5.872  15.866  0.0992  0.1346 -0.0448
 5958TIP3    H139365   0.049   5.924  15.787  2.1444  1.7173  0.6128
 5958TIP3    H239366   0.137   5.818  15.849 -0.3632 -0.6483  0.3111
 5959TIP3   OH239367   4.902   3.227   0.893  0.6995 -0.3965 -0.2705
 5959TIP3    H139368   4.939   3.164   0.955 -3.4910 -2.9083  0.1070
 5959TIP3    H239369   4.809   3.232   0.917 -0.0675  2.6604 -3.1187
 5960TIP3   OH239370   6.310   3.210  10.565  0.1905  0.9051 -0.2193
 5960TIP3    H139371   6.403   3.229  10.553  0.0792  1.1374 -0.7328
 5960TIP3    H239372   6.274   3.289  10.604  0.1121  1.0146 -0.5072
 5961TIP3   OH239373   0.349   4.585   3.415  0.4044 -0.9285 -0.6767
 5961TIP3    H139374   0.315   4.645   3.350 -0.1492 -0.1921  0.2613
 5961TIP3    H239375   0.275   4.528   3.437 -0.1233  0.3166  0.9637
 5962TIP3   OH239376   4.458   4.217   2.985  0.2366  0.0578 -0.0017
 5962TIP3    H139377   4.477   4.212   2.891  2.0331 -0.3589  0.3512
 5962TIP3    H239378   4.516   4.285   3.018  2.0130 -1.9681  1.3194
 5963TIP3   OH239379   2.318   0.866   4.750  0.0376 -0.2895 -0.2103
 5963TIP3    H139380   2.376   0.941   4.738  0.4562 -0.7193 -0.8969
 5963TIP3    H239381   2.370   0.803   4.799 -0.2512 -0.2194  0.1990
 5964TIP3   OH239382   1.438   4.464   0.201 -0.0231 -0.6928  0.0780
 5964TIP3    H139383   1.484   4.538   0.241 -1.4395  0.4032 -0.2387
 5964TIP3    H239384   1.503   4.422   0.146  0.5112  1.0765 -0.7211
 5965TIP3   OH239385   5.409   6.349  13.165 -0.6634  0.4314  0.0344
 5965TIP3    H139386   5.397   6.360  13.260  0.7751 -0.1533  0.3127
 5965TIP3    H239387   5.382   6.259  13.148  1.4271 -0.3267  0.3756
 5966TIP3   OH239388   4.859   1.659   0.872 -0.0737 -0.5797 -0.1683
 5966TIP3    H139389   4.920   1.641   0.944  0.6787  0.6049 -0.4817
 5966TIP3    H239390   4.793   1.716   0.911  0.4257  0.1990 -0.4373
 5967TIP3   OH239391   3.720   6.703   4.400 -0.4677  0.1223 -0.4347
 5967TIP3    H139392   3.729   6.638   4.469  0.1615  0.8604  0.2055
 5967TIP3    H239393   3.676   6.777   4.441 -0.8071  0.2628 -1.0365
 5968TIP3   OH239394   3.112   0.997  15.347  0.2288  0.2663  0.0066
 5968TIP3    H139395   3.188   1.014  15.292  0.9963  0.4823  1.1064
 5968TIP3    H239396   3.128   0.909  15.382 -0.3815  0.0240 -0.3179
 5969TIP3   OH239397   0.661   0.263   0.774 -0.5984 -0.2258  0.6589
 5969TIP3    H139398   0.620   0.329   0.718  2.1162 -0.1588 -1.4904
 5969TIP3    H239399   0.600   0.190   0.774 -1.4165  0.4043 -1.0713
 5970TIP3   OH239400   4.908   0.416   1.462 -0.6267  0.0349  0.0891
 5970TIP3    H139401   4.948   0.463   1.388  0.5038 -1.1403 -0.0845
 5970TIP3    H239402   4.973   0.421   1.531 -0.3072 -1.5556 -0.0549
 5971TIP3   OH239403   0.070   1.356   4.744 -0.6167 -0.8655  0.2554
 5971TIP3    H139404  -0.021   1.340   4.769 -0.0515 -0.3051  2.9986
 5971TIP3    H239405   0.116   1.277   4.771  0.1428  0.0404  1.7386
 5972TIP3   OH239406   0.337   6.276   4.280  0.1269  0.5876 -0.0633
 5972TIP3    H139407   0.401   6.312   4.342  0.4517  1.5526 -0.9273
 5972TIP3    H239408   0.359   6.317   4.196  0.9365 -2.1029 -1.2948
 5973TIP3   OH239409   2.521   0.450   6.402 -0.3681  0.1009  0.2491
 5973TIP3    H139410   2.470   0.500   6.466  1.8922  1.6756  0.9762
 5973TIP3    H239411   2.541   0.368   6.447 -2.4790 -0.7193 -0.2034
 5974TIP3   OH239412   0.417   6.232  15.754 -0.8289 -0.1059  0.3299
 5974TIP3    H139413   0.413   6.140  15.727  0.5218  0.1364 -0.8122
 5974TIP3    H239414   0.334   6.270  15.725 -0.2349 -0.3294 -1.7975
 5975TIP3   OH239415   2.932   0.523   3.320 -0.1264  0.3101  1.0944
 5975TIP3    H139416   2.909   0.499   3.230  0.5214  1.6964  0.5301
 5975TIP3    H239417   2.911   0.616   3.327  3.3758  1.2611  1.1016
 5976TIP3   OH239418   1.274   2.752  11.888  0.1567 -0.0353  0.3780
 5976TIP3    H139419   1.244   2.677  11.837  1.0912  0.1290 -0.4430
 5976TIP3    H239420   1.202   2.815  11.881  0.2531 -0.0211 -0.7507
 5977TIP3   OH239421   4.903   5.496   2.787 -0.6813 -0.0502  0.0393
 5977TIP3    H139422   4.876   5.509   2.696 -0.0873  0.3406 -0.0869
 5977TIP3    H239423   4.960   5.570   2.806  0.3141 -0.8657  0.3016
 5978TIP3   OH239424   3.981   6.012   5.580 -0.3356 -0.2072  0.0856
 5978TIP3    H139425   3.935   6.013   5.496  1.3417 -3.1269 -1.0331
 5978TIP3    H239426   4.055   6.071   5.567 -0.6308  0.1163 -0.1447
 5979TIP3   OH239427   1.263   4.005  16.262 -0.1305 -0.0940 -0.0577
 5979TIP3    H139428   1.237   3.975  16.175  0.4404 -1.9708  0.3819
 5979TIP3    H239429   1.181   4.011  16.311 -0.6013  2.1015 -0.9942
 5980TIP3   OH239430   1.266   1.270  12.208  0.1866  0.1739 -1.0727
 5980TIP3    H139431   1.239   1.225  12.127  0.6310 -0.0620 -1.0900
 5980TIP3    H239432   1.189   1.265  12.264  0.7709 -2.2731 -0.3476
 5981TIP3   OH239433   5.690   0.931   2.612 -0.0738  0.2778  0.3687
 5981TIP3    H139434   5.612   0.944   2.559  1.2091 -2.2827 -2.4657
 5981TIP3    H239435   5.749   1.001   2.585 -0.0039 -0.0918 -0.4747
 5982TIP3   OH239436   4.764   0.364   2.953 -0.6861  0.5864  0.0548
 5982TIP3    H139437   4.833   0.298   2.951 -0.6205  0.6652 -1.1541
 5982TIP3    H239438   4.704   0.339   2.883 -2.5503 -0.1403  1.8307
 5983TIP3   OH239439   6.100   1.590   1.101  0.4444  0.6196  0.5760
 5983TIP3    H139440   6.018   1.556   1.065  0.4678  1.7000 -0.5595
 5983TIP3    H239441   6.074   1.654   1.167  0.3743  0.8648  0.3103
 5984TIP3   OH239442   4.054   0.358  11.825 -0.6692 -0.1748  0.5481
 5984TIP3    H139443   3.986   0.305  11.783 -1.5932  0.9222  0.6196
 5984TIP3    H239444   4.101   0.399  11.752  0.0935 -1.1117  0.4898
 5985TIP3   OH239445   1.512   2.257   0.227 -0.0242  0.3917 -0.4031
 5985TIP3    H139446   1.420   2.232   0.215 -0.1385  1.1170 -1.1849
 5985TIP3    H239447   1.558   2.174   0.237 -0.7035 -0.0091 -0.4956
 5986TIP3   OH239448   0.150   2.718  13.435 -0.8765 -0.2807  0.3731
 5986TIP3    H139449   0.109   2.792  13.391 -1.6520 -0.8731  0.0788
 5986TIP3    H239450   0.110   2.641  13.394  0.6717 -0.8819 -0.0504
 5987TIP3   OH239451   1.977   5.411   2.688 -0.3088  0.1267 -0.2113
 5987TIP3    H139452   1.922   5.449   2.756 -2.2394 -2.2079 -0.3432
 5987TIP3    H239453   2.061   5.396   2.730 -0.4831  1.5320  0.7163
 5988TIP3   OH239454   0.626   2.593   4.524  0.3184  0.4079  0.1298
 5988TIP3    H139455   0.533   2.572   4.526  0.3562  0.2646  0.6148
 5988TIP3    H239456   0.654   2.587   4.616  0.4105  2.2330  0.2609
 5989TIP3   OH239457   2.867   3.086   6.203 -0.1148  0.0968 -0.0047
 5989TIP3    H139458   2.934   3.129   6.257  0.2241  0.0098 -0.3531
 5989TIP3    H239459   2.852   3.002   6.247  0.5493 -0.2029 -0.3317
 5990TIP3   OH239460   0.405   1.623  15.457 -0.4549 -0.2122 -0.1980
 5990TIP3    H139461   0.481   1.655  15.408  0.9496 -1.8444  0.7886
 5990TIP3    H239462   0.406   1.672  15.539 -0.2986 -0.4253 -0.0715
 5991TIP3   OH239463   3.348   3.158  11.542  0.0295  0.3863 -0.1756
 5991TIP3    H139464   3.376   3.109  11.620 -1.5289  0.5560  0.5295
 5991TIP3    H239465   3.254   3.138  11.534 -0.3831  2.3083 -0.5672
 5992TIP3   OH239466   4.285   4.614  16.152  0.4284  0.5954  0.0885
 5992TIP3    H139467   4.207   4.650  16.194  0.0213 -1.6553  1.4003
 5992TIP3    H239468   4.261   4.609  16.059 -0.6472  0.7365  0.3440
 5993TIP3   OH239469   5.257   0.616  13.171 -0.7909  0.4862  0.3967
 5993TIP3    H139470   5.191   0.587  13.108  0.1234  0.3400 -0.5382
 5993TIP3    H239471   5.252   0.552  13.242  0.5604 -1.5266 -1.1962
 5994TIP3   OH239472   3.111   4.138  15.865 -0.7643 -0.1586 -0.6487
 5994TIP3    H139473   3.090   4.151  15.958 -1.0187 -0.9209 -0.5946
 5994TIP3    H239474   3.082   4.049  15.846  0.0384 -0.3029 -1.2571
 5995TIP3   OH239475   4.662   6.175  15.826 -0.1096 -0.3321  0.4182
 5995TIP3    H139476   4.615   6.226  15.892 -0.1351 -3.6715  3.3258
 5995TIP3    H239477   4.621   6.199  15.743 -1.5930  2.5406  1.8182
 5996TIP3   OH239478   3.999   5.244  12.081 -0.0214  0.3236  0.3394
 5996TIP3    H139479   3.958   5.259  12.166  1.0398 -2.8425  1.5524
 5996TIP3    H239480   4.090   5.225  12.101  0.5022  0.4970 -1.6448
 5997TIP3   OH239481   1.613   6.797  16.591  0.4133 -0.1278  0.5331
 5997TIP3    H139482   1.592   6.755  16.508 -0.2985  0.0990  0.5836
 5997TIP3    H239483   1.601   6.729  16.656  2.1071 -0.6317  0.3655
 5998TIP3   OH239484   1.176   4.742  13.118 -0.1062 -0.2658 -0.4946
 5998TIP3    H139485   1.191   4.826  13.073 -0.0637 -0.0166 -0.0226
 5998TIP3    H239486   1.119   4.765  13.191  2.8457  0.0514  1.8854
 5999TIP3   OH239487   3.554   0.572   6.225  0.3834  0.4546  0.9265
 5999TIP3    H139488   3.511   0.490   6.250 -0.8117  0.5245 -0.7535
 5999TIP3    H239489   3.636   0.572   6.275 -0.8343 -0.4123  3.0535
 6000TIP3   OH239490   0.708   1.685   1.719 -0.0336 -0.1913 -0.4969
 6000TIP3    H139491   0.715   1.704   1.626  1.2158  1.9409 -0.0393
 6000TIP3    H239492   0.726   1.591   1.726  3.1080  0.1648 -2.1505
 6001TIP3   OH239493   2.046   5.082   5.709  0.1197 -0.0534  0.2543
 6001TIP3    H139494   1.979   5.129   5.759 -0.0992  2.6800 -2.3247
 6001TIP3    H239495   2.124   5.136   5.716  0.9045 -1.0989 -0.0945
 6002TIP3   OH239496   4.070   1.802  16.554 -0.2798 -0.1981  0.1895
 6002TIP3    H139497   4.150   1.810  16.605 -0.0378 -1.0028 -0.0531
 6002TIP3    H239498   4.004   1.774  16.616 -0.4729  0.8154  0.4647
 6003TIP3   OH239499   0.505   1.355   4.147  0.1317 -0.0615  0.5041
 6003TIP3    H139500   0.593   1.356   4.109  0.0626 -0.2569  0.3410
 6003TIP3    H239501   0.481   1.263   4.149 -0.0103 -0.0194  0.6860
 6004TIP3   OH239502   3.651   4.517   3.521  0.2508  0.6220 -0.1733
 6004TIP3    H139503   3.611   4.469   3.448  1.1916 -2.3426  1.1228
 6004TIP3    H239504   3.580   4.572   3.554 -2.1867 -2.5863  0.5148
 6005TIP3   OH239505   2.747   3.608  11.791  0.2615 -0.1239  0.4267
 6005TIP3    H139506   2.721   3.622  11.700  1.6596  0.7059  0.1376
 6005TIP3    H239507   2.690   3.666  11.841  1.8890  2.2383 -0.2639
 6006TIP3   OH239508   3.730   3.191  16.019 -0.6136 -0.5349 -0.1515
 6006TIP3    H139509   3.753   3.205  15.927 -1.8269  0.5266 -0.3295
 6006TIP3    H239510   3.809   3.215  16.067 -0.3791  0.2084 -0.8713
 6007TIP3   OH239511   5.394   1.642   5.239 -0.2289  0.8093 -0.1146
 6007TIP3    H139512   5.339   1.579   5.286 -0.0946  0.8840  0.1402
 6007TIP3    H239513   5.353   1.727   5.255 -1.0620  0.6802 -1.3688
 6008TIP3   OH239514   1.448   6.446   1.819  0.0689  0.0990  0.4459
 6008TIP3    H139515   1.430   6.524   1.872 -0.1252  1.0316 -0.9335
 6008TIP3    H239516   1.472   6.379   1.882 -1.1526  0.8743  1.7786
 6009TIP3   OH239517   2.260   0.664   1.042  0.5968  0.1759  0.4062
 6009TIP3    H139518   2.336   0.688   0.989  0.1873 -1.6576 -1.1408
 6009TIP3    H239519   2.186   0.703   0.997  0.3838 -0.0732  0.5384
 6010TIP3   OH239520   2.352   5.709   4.707 -0.0255  0.2895 -0.2505
 6010TIP3    H139521   2.378   5.619   4.726 -1.0507  0.2518  1.1097
 6010TIP3    H239522   2.434   5.754   4.690  0.6683 -0.5010  0.8694
 6011TIP3   OH239523   4.143   2.876   3.669 -0.6020 -0.4726  0.1288
 6011TIP3    H139524   4.166   2.968   3.684 -1.1597 -0.5856  1.8693
 6011TIP3    H239525   4.226   2.830   3.676 -0.2421 -0.0851 -1.2219
 6012TIP3   OH239526   0.563   6.788   2.051 -0.2203  0.1556 -0.0898
 6012TIP3    H139527   0.539   6.695   2.058 -0.6180  0.2716  0.0733
 6012TIP3    H239528   0.484   6.831   2.019 -0.0018  0.4269 -0.2735
 6013TIP3   OH239529   2.375   2.638  11.465 -0.3019 -0.7284  0.1492
 6013TIP3    H139530   2.341   2.550  11.454  3.4205 -2.4957  1.2382
 6013TIP3    H239531   2.408   2.663  11.379 -3.5302  0.8140 -0.8002
 6014TIP3   OH239532   4.681   3.514   0.434 -0.1406 -0.6070 -0.0107
 6014TIP3    H139533   4.728   3.498   0.352  1.3646 -1.4555  0.9774
 6014TIP3    H239534   4.662   3.608   0.432  2.3038 -0.0430 -0.1411
 6015TIP3   OH239535   6.491   5.226   0.377  0.5960 -0.1393 -0.1700
 6015TIP3    H139536   6.433   5.159   0.411 -1.3730  1.2243 -0.6771
 6015TIP3    H239537   6.558   5.178   0.328  0.9655 -1.8553  1.8718
 6016TIP3   OH239538   2.069   2.577  10.925  0.0030 -0.4094  0.2593
 6016TIP3    H139539   2.157   2.574  10.888 -0.5038  0.1442 -1.0529
 6016TIP3    H239540   2.012   2.594  10.850 -1.1397  0.1115  1.2095
 6017TIP3   OH239541   5.252   1.378   1.495  0.3470 -0.2390  0.3775
 6017TIP3    H139542   5.251   1.284   1.510 -1.2469 -0.5203 -1.0798
 6017TIP3    H239543   5.207   1.415   1.571  0.5414 -0.7016  0.7201
 6018TIP3   OH239544   2.967   2.740   1.550  0.6019 -0.5072  0.3898
 6018TIP3    H139545   2.941   2.648   1.556  2.2724 -1.0242  0.3447
 6018TIP3    H239546   2.924   2.773   1.471 -0.4670 -1.0800  0.7223
 6019TIP3   OH239547   2.140   6.500   4.829  0.8848 -0.1634 -0.1440
 6019TIP3    H139548   2.191   6.520   4.907 -0.4069 -0.5680  0.8277
 6019TIP3    H239549   2.091   6.420   4.851 -0.0548  0.1206 -1.0886
 6020TIP3   OH239550   0.963   1.452   1.054 -0.6818 -0.5455 -0.2490
 6020TIP3    H139551   0.872   1.459   1.082 -1.0468 -0.0906 -1.5267
 6020TIP3    H239552   0.990   1.542   1.037  0.0107 -0.6784  0.1164
 6021TIP3   OH239553   3.836   0.722   3.089  0.1950 -0.2194 -0.5348
 6021TIP3    H139554   3.833   0.636   3.047  0.5730  0.9259 -3.0758
 6021TIP3    H239555   3.763   0.720   3.152  1.4094 -3.0396  0.9555
 6022TIP3   OH239556   3.643   2.643  11.937  0.0173  0.1026  0.6517
 6022TIP3    H139557   3.687   2.681  12.013  0.5610 -0.3492  0.5671
 6022TIP3    H239558   3.668   2.699  11.864 -0.8247  0.7708  0.8660
 6023TIP3   OH239559   5.511   0.772  13.292  0.2480  0.7953 -0.1504
 6023TIP3    H139560   5.511   0.703  13.359  2.2950 -1.1122 -1.9224
 6023TIP3    H239561   5.602   0.802  13.288  0.7826 -0.6987 -3.3684
 6024TIP3   OH239562   1.291   2.981   3.838 -0.1851  0.0397 -0.4534
 6024TIP3    H139563   1.232   2.993   3.913 -0.3416  1.8848 -0.8349
 6024TIP3    H239564   1.378   2.973   3.877 -0.6301 -3.2655  0.1579
 6025TIP3   OH239565   0.294   4.773   1.373 -0.6134  0.3876 -0.2241
 6025TIP3    H139566   0.381   4.779   1.333  0.7043 -3.0300  1.6588
 6025TIP3    H239567   0.310   4.793   1.465 -1.8747  0.0767  0.0733
 6026TIP3   OH239568   4.705   0.729  13.201 -0.1159 -0.4346 -0.5888
 6026TIP3    H139569   4.626   0.780  13.224 -0.3347 -0.4291 -1.3280
 6026TIP3    H239570   4.674   0.665  13.137  0.0615 -1.8457  0.6966
 6027TIP3   OH239571   2.241   3.271  16.618  0.2879  0.0698 -0.6585
 6027TIP3    H139572   2.312   3.208  16.607 -0.0154 -0.5163  0.6295
 6027TIP3    H239573   2.184   3.256  16.542 -1.0682 -2.9449  0.8206
 6028TIP3   OH239574   6.818   4.854   0.054  0.1244  0.8603  0.1001
 6028TIP3    H139575   6.803   4.829   0.146 -1.6601  0.6401 -0.2106
 6028TIP3    H239576   6.890   4.798   0.026 -1.3955 -1.4535  0.4743
 6029TIP3   OH239577   5.534   4.724   5.570 -0.4600  0.5606 -0.1163
 6029TIP3    H139578   5.479   4.795   5.537 -1.9280  0.5037  1.9918
 6029TIP3    H239579   5.495   4.702   5.655  3.4226  1.2117  2.0455
 6030TIP3   OH239580   6.420   1.453   5.629 -0.6722  0.2503  1.3170
 6030TIP3    H139581   6.450   1.367   5.660 -1.0741  0.2170  1.6335
 6030TIP3    H239582   6.500   1.500   5.608 -0.4460 -0.2120  1.1184
 6031TIP3   OH239583   1.259   6.803  16.824 -0.4362 -0.9287  0.2971
 6031TIP3    H139584   1.322   6.873  16.840 -2.5716  1.0968  0.2741
 6031TIP3    H239585   1.290   6.761  16.744  0.2475  0.7594 -0.3573
 6032TIP3   OH239586   2.106   5.139  13.896 -0.5417 -0.1743  0.8268
 6032TIP3    H139587   2.070   5.147  13.985 -1.2533 -1.1033  0.6340
 6032TIP3    H239588   2.153   5.222  13.882 -3.3101  1.5367  0.7965
 6033TIP3   OH239589   3.976   5.300  10.486 -0.4498  0.6439 -0.1098
 6033TIP3    H139590   4.030   5.377  10.470 -0.4585  1.0873  1.6898
 6033TIP3    H239591   4.035   5.236  10.526 -1.0299  0.8310  1.1099
 6034TIP3   OH239592   4.618   5.278  11.065  0.0633 -0.2333  0.1584
 6034TIP3    H139593   4.537   5.268  11.116  0.1233  0.1234  0.3261
 6034TIP3    H239594   4.664   5.195  11.077 -0.3397 -0.4916 -0.0501
 6035TIP3   OH239595   0.285   1.397  14.868  0.4373  0.0519  0.1054
 6035TIP3    H139596   0.309   1.318  14.820 -3.3735 -1.2380  0.0429
 6035TIP3    H239597   0.311   1.380  14.958 -0.3369 -1.2931  0.0859
 6036TIP3   OH239598   0.902   0.230  15.696 -0.1914  0.4259  0.4381
 6036TIP3    H139599   0.982   0.276  15.720  0.2403 -0.0020 -0.1606
 6036TIP3    H239600   0.903   0.150  15.747  1.8255 -1.5604 -2.4211
 6037TIP3   OH239601   4.503   1.844   3.565 -0.4318  0.4298 -0.1341
 6037TIP3    H139602   4.449   1.899   3.509 -0.6919 -0.4627 -0.7988
 6037TIP3    H239603   4.589   1.843   3.523 -0.2541  0.8181  0.2156
 6038TIP3   OH239604   0.402   3.479  16.227  0.5818 -0.0678  0.4619
 6038TIP3    H139605   0.322   3.435  16.257  0.9361 -1.2032 -0.1822
 6038TIP3    H239606   0.414   3.552  16.288  0.5295 -1.4809  2.2366
 6039TIP3   OH239607   3.802   5.365   1.491  0.0351 -0.0097  0.2697
 6039TIP3    H139608   3.814   5.454   1.460  2.2907  0.0004  0.9665
 6039TIP3    H239609   3.843   5.310   1.423 -1.2626 -0.5345 -0.1191
 6040TIP3   OH239610   3.301   1.546   6.123 -0.5488  0.1360 -0.0258
 6040TIP3    H139611   3.369   1.612   6.140 -0.9518  0.9341 -1.2955
 6040TIP3    H239612   3.349   1.464   6.112 -0.1080 -0.0059  2.4426
 6041TIP3   OH239613   5.670   0.293  15.140  0.5979  0.5079 -0.4506
 6041TIP3    H139614   5.760   0.270  15.116 -0.1537 -2.0108 -1.1448
 6041TIP3    H239615   5.631   0.326  15.059  0.7751  1.2676 -0.2352
 6042TIP3   OH239616   3.227   2.926   4.998  0.3950  0.8532 -0.2483
 6042TIP3    H139617   3.143   2.889   4.973 -0.2051  1.1901  1.1632
 6042TIP3    H239618   3.264   2.961   4.917 -0.8207  0.6952 -0.8801
 6043TIP3   OH239619   4.359   5.507   1.305 -0.4794  0.0176 -0.1557
 6043TIP3    H139620   4.281   5.561   1.291 -0.5891 -0.2928 -0.7928
 6043TIP3    H239621   4.327   5.429   1.350 -0.6687 -0.4416 -1.0645
 6044TIP3   OH239622   3.199   1.251   5.132  0.3413  0.0078  0.5884
 6044TIP3    H139623   3.266   1.303   5.088  2.0666 -0.1282  2.8979
 6044TIP3    H239624   3.133   1.316   5.158  1.1664  0.6620  1.1056
 6045TIP3   OH239625   3.213   0.928   4.344 -0.2819 -0.0035 -0.2112
 6045TIP3    H139626   3.294   0.878   4.349 -0.0347  0.3226 -0.8543
 6045TIP3    H239627   3.197   0.939   4.250 -2.1469 -1.7896 -0.1673
 6046TIP3   OH239628   5.754   3.679  15.323 -0.4805 -0.6553 -1.1117
 6046TIP3    H139629   5.749   3.721  15.410 -2.0600  0.5412 -1.7280
 6046TIP3    H239630   5.737   3.750  15.262  1.4724 -1.3049 -2.4964
 6047TIP3   OH239631   4.884   6.556  16.340 -0.1660  0.3286 -0.1874
 6047TIP3    H139632   4.837   6.602  16.271  1.7447  0.1810 -1.6650
 6047TIP3    H239633   4.974   6.587  16.333  0.5500 -1.3742  0.7627
 6048TIP3   OH239634   5.869   1.200   3.370  0.2156 -0.8523 -0.0531
 6048TIP3    H139635   5.820   1.212   3.289 -0.7485  0.5954  0.6926
 6048TIP3    H239636   5.942   1.262   3.364  1.1320 -1.9373 -0.5076
 6049TIP3   OH239637   5.817   3.084   3.943 -0.3714  0.0927 -0.5768
 6049TIP3    H139638   5.881   3.024   3.980  1.9027  2.0868 -1.0031
 6049TIP3    H239639   5.770   3.119   4.019 -0.3459 -0.7092 -0.1802
 6050TIP3   OH239640   4.349   3.072   4.111 -0.0006  0.1892  0.1005
 6050TIP3    H139641   4.313   2.984   4.098  0.4968  0.2121 -1.6941
 6050TIP3    H239642   4.272   3.129   4.109 -0.1421 -0.0006 -1.2280
 6051TIP3   OH239643   6.841   4.865  16.904 -0.0923 -0.1394 -0.2947
 6051TIP3    H139644   6.899   4.801  16.946 -0.3842 -0.5003 -0.4410
 6051TIP3    H239645   6.900   4.935  16.874  0.8991 -2.3101 -4.0497
 6052TIP3   OH239646   4.267   3.346  13.676 -0.3614  0.1933  0.7914
 6052TIP3    H139647   4.329   3.367  13.606 -0.2736 -0.4672  0.6649
 6052TIP3    H239648   4.317   3.294  13.738 -0.3583  1.0220  1.5087
 6053TIP3   OH239649   3.590   3.449  16.196 -0.1749  0.0678  0.2194
 6053TIP3    H139650   3.630   3.472  16.113 -0.8385 -0.1717 -0.1720
 6053TIP3    H239651   3.535   3.524  16.217 -0.2879 -0.0274  0.2626
 6054TIP3   OH239652   3.014   1.661  14.788  0.1239 -0.0372  0.2032
 6054TIP3    H139653   2.963   1.733  14.824 -0.0860 -0.1288  0.0896
 6054TIP3    H239654   2.959   1.583  14.800  0.5426 -0.2542  0.7500
 6055TIP3   OH239655   6.505   2.214  12.621  0.2378 -0.0257  0.1352
 6055TIP3    H139656   6.503   2.225  12.526  0.5959  0.0652  0.1340
 6055TIP3    H239657   6.551   2.132  12.635 -0.3400 -0.3392  0.2153
 6056TIP3   OH239658   1.990   4.666   3.534 -0.4820  0.0443 -0.3636
 6056TIP3    H139659   2.068   4.629   3.575  0.1708  0.8733 -0.8020
 6056TIP3    H239660   2.024   4.736   3.478 -1.4842 -0.0213 -1.0877
 6057TIP3   OH239661   5.260   1.893   6.409  0.1271  0.1230 -0.2703
 6057TIP3    H139662   5.310   1.971   6.387 -2.4963  2.3357  1.1473
 6057TIP3    H239663   5.304   1.857   6.486  1.6619 -0.2089 -1.2467
 6058TIP3   OH239664   1.714   5.641  15.806 -0.3199  0.1545  0.2306
 6058TIP3    H139665   1.707   5.572  15.871  0.2795  0.4983  0.6781
 6058TIP3    H239666   1.645   5.703  15.830 -0.1927  0.2108  0.4608
 6059TIP3   OH239667   3.845   5.063  13.493 -0.2180  0.1308 -0.4336
 6059TIP3    H139668   3.785   5.131  13.461  1.0172  0.4819 -2.1006
 6059TIP3    H239669   3.866   5.010  13.416  1.9029  0.2451  0.0054
 6060TIP3   OH239670   6.602   4.378   3.450  0.1044 -0.4145 -0.0509
 6060TIP3    H139671   6.521   4.338   3.421 -0.0588  0.0231 -0.2142
 6060TIP3    H239672   6.598   4.468   3.416  1.4571 -0.8788 -1.6174
 6061TIP3   OH239673   2.896   6.693  16.270  0.3500  0.1372 -0.5069
 6061TIP3    H139674   2.848   6.647  16.339  0.6355 -0.2617 -0.5745
 6061TIP3    H239675   2.982   6.710  16.308  1.0806 -1.5434 -1.3285
 6062TIP3   OH239676   4.210   1.625  15.160 -0.2684 -0.2212  0.1885
 6062TIP3    H139677   4.272   1.656  15.094  1.1840 -1.7966  0.7525
 6062TIP3    H239678   4.189   1.536  15.132 -0.8343 -0.3587  1.0370
 6063TIP3   OH239679   3.000   1.324   0.462 -0.0672 -0.9287 -0.0327
 6063TIP3    H139680   3.020   1.409   0.421 -1.2346  0.0484  1.2961
 6063TIP3    H239681   3.083   1.295   0.499  0.3436 -0.3373 -0.4651
 6064TIP3   OH239682   4.216   2.208  16.561 -0.1406  0.6373 -0.2351
 6064TIP3    H139683   4.179   2.180  16.644  0.4603  0.0090 -0.1726
 6064TIP3    H239684   4.308   2.226  16.580 -0.0335  0.6406 -0.7296
 6065TIP3   OH239685   4.920   2.456  12.697 -0.0813  0.5420  0.0206
 6065TIP3    H139686   4.988   2.399  12.661 -1.7787 -0.0170 -2.6116
 6065TIP3    H239687   4.896   2.415  12.780  1.3825 -0.3801  0.0311
 6066TIP3   OH239688   0.435   2.682   5.198 -0.2376  0.6004  0.3412
 6066TIP3    H139689   0.423   2.645   5.111 -0.2174  1.0843  0.1266
 6066TIP3    H239690   0.408   2.613   5.258  3.4623 -1.2417  0.1138
 6067TIP3   OH239691   0.781   5.378  10.449 -0.0011 -0.0294 -0.7170
 6067TIP3    H139692   0.826   5.301  10.415 -0.4929 -0.5376 -0.2420
 6067TIP3    H239693   0.838   5.452  10.427  1.6618 -0.7586  0.9415
 6068TIP3   OH239694   1.977   4.434  15.476 -0.0003  0.3564  0.3899
 6068TIP3    H139695   1.960   4.527  15.461  1.5271  0.4258 -1.2317
 6068TIP3    H239696   1.942   4.417  15.564 -0.9183  2.2805  0.4475
 6069TIP3   OH239697   0.822   6.074   4.881  0.1964 -0.0058 -0.0110
 6069TIP3    H139698   0.915   6.077   4.903 -0.0644  1.7653  1.0966
 6069TIP3    H239699   0.807   5.985   4.849  2.1134 -0.5403  0.4704
 6070TIP3   OH239700   3.785   3.407  14.510  0.0546 -0.2118 -0.0412
 6070TIP3    H139701   3.693   3.387  14.523  0.3489 -0.5388  1.8446
 6070TIP3    H239702   3.787   3.502  14.497 -0.6111 -0.3117 -0.9264
 6071TIP3   OH239703   4.665   3.325   1.983  0.1449 -0.1172 -0.3397
 6071TIP3    H139704   4.597   3.262   2.006 -0.1999  0.4685  0.2865
 6071TIP3    H239705   4.705   3.290   1.903 -2.6036  0.7984 -2.2672
 6072TIP3   OH239706   2.342   2.633   1.497  0.0226 -0.0491  0.1767
 6072TIP3    H139707   2.299   2.710   1.459 -0.2892 -0.4065 -0.1953
 6072TIP3    H239708   2.417   2.669   1.544  1.6485  0.2879 -2.4324
 6073TIP3   OH239709   3.254   2.227   0.070 -0.0694  0.1782 -0.1527
 6073TIP3    H139710   3.212   2.307   0.100  1.2190  0.4501  1.0339
 6073TIP3    H239711   3.309   2.255  -0.004 -1.9594 -0.2007 -1.7932
 6074TIP3   OH239712   5.676   6.728   4.051  0.5773 -0.2338  0.2031
 6074TIP3    H139713   5.731   6.743   4.128 -1.2291  0.8328  1.3502
 6074TIP3    H239714   5.595   6.692   4.087 -0.2491  0.1590 -1.2245
 6075TIP3   OH239715   0.634   2.938  16.562 -0.9834  0.6548  0.0526
 6075TIP3    H139716   0.573   2.996  16.609 -1.8964  0.8040 -1.2774
 6075TIP3    H239717   0.686   2.997  16.508 -1.7155  0.2915 -1.0840
 6076TIP3   OH239718   1.303   1.306  16.789 -0.0356  0.0629  0.4942
 6076TIP3    H139719   1.345   1.248  16.727 -1.1519 -2.5652  2.0446
 6076TIP3    H239720   1.276   1.382  16.737  2.0332 -0.4707 -1.4836
 6077TIP3   OH239721   5.150   1.274   4.519  0.1584  0.0414 -0.1198
 6077TIP3    H139722   5.210   1.217   4.568 -0.8099 -0.4564  0.5290
 6077TIP3    H239723   5.185   1.362   4.532  0.5063 -0.1943  0.6367
 6078TIP3   OH239724   5.706   3.793   1.740  0.5685 -0.1245  0.0388
 6078TIP3    H139725   5.682   3.792   1.832  4.3740 -0.7897  1.1929
 6078TIP3    H239726   5.648   3.730   1.699 -1.4561  0.4476  1.8516
 6079TIP3   OH239727   2.592   3.653   4.357  0.4161  0.0351 -0.0604
 6079TIP3    H139728   2.515   3.710   4.355  2.3490  2.8903  0.9910
 6079TIP3    H239729   2.603   3.624   4.267 -1.7159 -0.2730 -0.2748
 6080TIP3   OH239730   5.537   3.072  13.626 -0.6208  0.0200  0.3684
 6080TIP3    H139731   5.442   3.086  13.634 -1.0895 -2.2348 -0.6466
 6080TIP3    H239732   5.550   3.050  13.534  0.6894 -1.0050  0.7730
 6081TIP3   OH239733   5.313   1.549   2.873 -0.3638 -0.0547 -0.3547
 6081TIP3    H139734   5.358   1.494   2.937  0.8495  1.2912 -0.0017
 6081TIP3    H239735   5.220   1.533   2.889 -0.0633 -1.9621 -0.2587
 6082TIP3   OH239736   5.880   3.540   5.303  0.2407  0.3889  0.2911
 6082TIP3    H139737   5.949   3.596   5.339 -0.1513  0.7319  0.5193
 6082TIP3    H239738   5.827   3.600   5.250  0.7608 -0.0893 -0.7961
 6083TIP3   OH239739   2.593   6.417   4.616 -0.0275  0.3686  0.6112
 6083TIP3    H139740   2.586   6.379   4.528  0.9909  0.4744  0.4734
 6083TIP3    H239741   2.504   6.413   4.650 -0.5647  0.8786 -0.6576
 6084TIP3   OH239742   6.355   1.470   2.103 -0.4702 -0.0480  0.3594
 6084TIP3    H139743   6.400   1.536   2.051 -0.0565  1.1140  2.0964
 6084TIP3    H239744   6.424   1.411   2.132 -0.4539  0.2153  0.8643
 6085TIP3   OH239745   1.898   1.817  11.126 -0.8563  0.0764  0.1682
 6085TIP3    H139746   1.915   1.875  11.200  0.1617 -0.4079  0.3277
 6085TIP3    H239747   1.818   1.771  11.150  0.6278 -1.7319  2.0672
 6086TIP3   OH239748   4.139   4.359  10.571  0.1483 -0.1072  0.4213
 6086TIP3    H139749   4.102   4.431  10.623 -4.1199 -1.3880 -0.4505
 6086TIP3    H239750   4.113   4.280  10.618  1.9270 -1.2032 -0.3315
 6087TIP3   OH239751   5.434   5.782   2.875 -0.5486  0.1753  0.3284
 6087TIP3    H139752   5.435   5.871   2.912  0.5174 -0.1377  1.1203
 6087TIP3    H239753   5.526   5.765   2.853 -1.0114 -0.0305 -1.6013
 6088TIP3   OH239754   4.146   2.898   6.383 -0.2426 -0.1314 -0.0363
 6088TIP3    H139755   4.206   2.857   6.445  0.7543  1.0632 -0.1503
 6088TIP3    H239756   4.063   2.853   6.395  0.8848 -2.5422 -0.5448
 6089TIP3   OH239757   5.333   4.990   0.481 -0.1753 -0.8439 -0.1028
 6089TIP3    H139758   5.258   5.044   0.453 -0.5065 -1.0412  0.3981
 6089TIP3    H239759   5.394   5.053   0.520 -0.4780 -0.8030  0.3098
 6090TIP3   OH239760   0.339   1.913   1.313 -0.0545 -0.3408  0.0368
 6090TIP3    H139761   0.363   2.005   1.301 -0.3081 -0.1891  0.6559
 6090TIP3    H239762   0.395   1.866   1.251 -0.5944  0.3092 -0.9630
 6091TIP3   OH239763   0.514   6.170   2.785 -0.0820  1.0025 -0.0151
 6091TIP3    H139764   0.527   6.156   2.879  0.2542 -0.2189 -0.2226
 6091TIP3    H239765   0.443   6.111   2.761  1.0071 -0.0589 -0.8351
 6092TIP3   OH239766   4.094   5.807  13.835 -0.5881 -0.1050 -0.2927
 6092TIP3    H139767   4.147   5.856  13.772  2.3013  1.8386  3.2359
 6092TIP3    H239768   4.013   5.857  13.842 -1.4549 -0.9607 -3.0462
 6093TIP3   OH239769   2.504   5.774  15.113  0.0948 -1.0554 -0.0330
 6093TIP3    H139770   2.533   5.683  15.119  2.8310 -0.4148 -1.7568
 6093TIP3    H239771   2.468   5.781  15.025  0.8065 -0.2647 -0.2689
 6094TIP3   OH239772   0.353   4.046  11.832 -0.2490  0.1334  0.7020
 6094TIP3    H139773   0.410   4.019  11.761  0.9967  2.9699  0.4662
 6094TIP3    H239774   0.267   4.056  11.792  0.3983  1.5087 -0.4260
 6095TIP3   OH239775   6.492   4.509   3.782 -0.9939 -0.1232 -0.8482
 6095TIP3    H139776   6.580   4.472   3.795 -0.8699 -0.3632 -2.2182
 6095TIP3    H239777   6.507   4.602   3.766 -0.9296 -0.2729 -1.6811
 6096TIP3   OH239778   1.085   1.834   4.433  0.4147 -0.2442 -0.1024
 6096TIP3    H139779   1.060   1.924   4.414 -0.4105 -0.0370  1.7552
 6096TIP3    H239780   1.156   1.815   4.372 -0.7394  0.9614 -1.8957
 6097TIP3   OH239781   3.971   6.305   3.647 -0.0014 -0.4578 -0.1943
 6097TIP3    H139782   4.005   6.248   3.577 -0.0668 -0.9242  0.1486
 6097TIP3    H239783   4.014   6.274   3.726  1.2414  1.0501 -0.2334
 6098TIP3   OH239784   6.064   2.477   3.222  0.3791  0.7807 -0.4352
 6098TIP3    H139785   5.988   2.474   3.164 -1.0052  1.9057  1.1879
 6098TIP3    H239786   6.119   2.404   3.194 -1.3644 -0.1786 -1.5855
 6099TIP3   OH239787   3.591   0.560   1.498 -0.4062 -0.1999  0.1101
 6099TIP3    H139788   3.686   0.552   1.492 -0.6112 -2.6205 -0.7484
 6099TIP3    H239789   3.573   0.556   1.592  0.3586  1.3278  0.3614
 6100TIP3   OH239790   2.523   3.939   3.207 -0.7365  0.1933  0.0683
 6100TIP3    H139791   2.552   3.863   3.257  0.0698  0.1521 -0.4416
 6100TIP3    H239792   2.455   3.906   3.149 -1.7130  0.2503  1.1490
 6101TIP3   OH239793   0.775   2.510  13.200  0.1950 -0.3756  0.5477
 6101TIP3    H139794   0.757   2.578  13.264 -0.5185 -0.6515  0.6469
 6101TIP3    H239795   0.694   2.502  13.150  0.6889 -0.2681 -0.2940
 6102TIP3   OH239796   0.758   0.644  11.341  0.3165 -0.2379 -0.0740
 6102TIP3    H139797   0.742   0.710  11.408 -2.4079 -0.4271 -0.4183
 6102TIP3    H239798   0.819   0.583  11.381  0.9289  1.1326  1.1723
 6103TIP3   OH239799   2.849   3.888  16.019 -0.4026 -0.0891  0.2305
 6103TIP3    H139800   2.769   3.835  16.023 -0.7846  0.4610  0.0365
 6103TIP3    H239801   2.898   3.864  16.098 -1.2816  0.3709  0.9320
 6104TIP3   OH239802   0.792   5.923  17.128  0.3267 -0.0139 -0.2537
 6104TIP3    H139803   0.821   5.833  17.144  2.0929  0.6577  0.4312
 6104TIP3    H239804   0.788   5.930  17.032  0.6695 -0.6537 -0.3192
 6105TIP3   OH239805   1.827   3.638  14.676 -0.3867  0.2506 -0.3818
 6105TIP3    H139806   1.832   3.622  14.770 -2.2336 -1.5431 -0.4988
 6105TIP3    H239807   1.733   3.639  14.657 -0.0472 -0.4675 -2.3314
 6106TIP3   OH239808   4.471   0.841  13.716  0.2591 -0.4059 -0.2563
 6106TIP3    H139809   4.438   0.778  13.652  0.0645 -0.9729  0.3979
 6106TIP3    H239810   4.566   0.843  13.701  0.2392 -0.6842 -0.4254
 6107TIP3   OH239811   0.191   2.433  13.837 -0.0247 -0.3162  0.0928
 6107TIP3    H139812   0.206   2.451  13.930 -1.0606  1.5310 -0.0514
 6107TIP3    H239813   0.119   2.370  13.836  0.4765 -0.9149  0.5341
 6108TIP3   OH239814   3.527   2.496   2.797 -0.5381  0.2146  0.2537
 6108TIP3    H139815   3.444   2.527   2.833 -0.0845  1.2957  0.3981
 6108TIP3    H239816   3.502   2.426   2.737 -1.3307 -1.3923  2.3677
 6109TIP3   OH239817   5.591   6.817   0.053  0.4300  0.2811 -0.1396
 6109TIP3    H139818   5.584   6.891  -0.006 -0.7310  0.8905  0.7256
 6109TIP3    H239819   5.684   6.810   0.073  0.4212  2.4934  0.9449
 6110TIP3   OH239820   4.501   2.023  16.654 -0.0409  0.4037 -0.0932
 6110TIP3    H139821   4.498   2.112  16.690  1.8694  0.4304  0.0886
 6110TIP3    H239822   4.583   1.987  16.686 -0.1600 -0.9763 -1.2519
 6111TIP3   OH239823   1.288   3.588   2.735  0.6709  0.0336  0.0375
 6111TIP3    H139824   1.269   3.679   2.712  0.1176  0.4173  1.8522
 6111TIP3    H239825   1.264   3.538   2.657 -0.9674  1.2517 -0.2969
 6112TIP3   OH239826   0.944   4.333  13.653 -0.2317  0.1631 -0.2745
 6112TIP3    H139827   0.909   4.422  13.643 -1.0881  0.0005  1.1011
 6112TIP3    H239828   0.969   4.327  13.745  1.3776 -0.4950 -0.7086
 6113TIP3   OH239829   5.675   2.660  16.302 -0.3043  0.6674 -0.1932
 6113TIP3    H139830   5.706   2.688  16.216  0.5680 -1.0315 -0.4708
 6113TIP3    H239831   5.755   2.647  16.353 -0.7495  0.3072  0.4231
 6114TIP3   OH239832   0.558   6.698  12.563  0.4836  0.0788 -0.0203
 6114TIP3    H139833   0.589   6.620  12.608 -2.8194 -0.9190  0.7770
 6114TIP3    H239834   0.494   6.666  12.499 -1.8144  2.1024  1.0856
 6115TIP3   OH239835   6.202   5.618  12.020 -0.6032 -0.1673 -0.2213
 6115TIP3    H139836   6.107   5.612  12.032 -0.4522 -0.7934  0.8041
 6115TIP3    H239837   6.234   5.530  12.040  0.2521  0.1775 -0.0183
 6116TIP3   OH239838   4.686   3.400  11.081 -0.3800 -0.1417 -0.3141
 6116TIP3    H139839   4.773   3.402  11.121  0.1607 -2.1761 -1.2379
 6116TIP3    H239840   4.700   3.425  10.990 -0.7656 -0.3901 -0.4461
 6117TIP3   OH239841   4.365   3.942   5.274 -0.2931 -0.2932  0.0682
 6117TIP3    H139842   4.329   3.883   5.340 -1.1040  1.8387  1.6459
 6117TIP3    H239843   4.288   3.979   5.230 -0.0662  2.3252  1.6783
 6118TIP3   OH239844   5.436   4.811   2.073  0.2027 -0.1543 -0.2441
 6118TIP3    H139845   5.499   4.787   2.141 -0.4981 -1.6917 -0.0866
 6118TIP3    H239846   5.410   4.728   2.034 -0.0493  0.6392 -1.8434
 6119TIP3   OH239847   2.756   1.354   3.240  0.2002  0.3271 -0.2350
 6119TIP3    H139848   2.830   1.351   3.180 -0.3716  1.4758 -1.0389
 6119TIP3    H239849   2.684   1.390   3.188 -0.8943 -0.6331  0.5580
 6120TIP3   OH239850   2.092   1.884   3.936  0.2068 -0.0894 -0.2883
 6120TIP3    H139851   2.094   1.798   3.977 -0.1111  0.8378  1.8316
 6120TIP3    H239852   2.184   1.909   3.926  0.4053 -1.4501 -2.8830
 6121TIP3   OH239853   0.003   0.450   5.829 -0.6146 -0.1801  0.3388
 6121TIP3    H139854  -0.014   0.535   5.869 -0.1632 -1.3526  3.2970
 6121TIP3    H239855  -0.081   0.422   5.793 -0.7882  1.4175 -0.5538
 6122TIP3   OH239856   4.644   2.390  15.210  0.0379  0.1991 -0.5583
 6122TIP3    H139857   4.601   2.449  15.272  1.0926  1.0506 -0.6167
 6122TIP3    H239858   4.685   2.448  15.146  1.7672 -0.5530 -0.1848
 6123TIP3   OH239859   3.511   2.379   4.648  0.4819 -0.3064  0.0118
 6123TIP3    H139860   3.447   2.341   4.709  1.4756 -0.7359  0.8212
 6123TIP3    H239861   3.494   2.473   4.651 -0.0979 -0.4129  0.2231
 6124TIP3   OH239862   6.036   4.128  11.691  0.0756 -0.3062 -0.2547
 6124TIP3    H139863   5.972   4.100  11.626 -1.7975  1.9778  0.4696
 6124TIP3    H239864   6.090   4.192  11.645 -0.9781  0.9904  0.2514
 6125TIP3   OH239865   1.511   4.386  11.624  0.3083 -0.3875 -0.4045
 6125TIP3    H139866   1.519   4.318  11.690  1.2916  1.1556  1.1556
 6125TIP3    H239867   1.433   4.435  11.649  0.3185 -0.1750 -0.7679
 6126TIP3   OH239868   1.375   4.934  15.802 -0.7084 -0.2529 -0.4223
 6126TIP3    H139869   1.293   4.978  15.778 -0.8307 -0.4940 -0.4490
 6126TIP3    H239870   1.439   4.970  15.741 -0.3209  1.5338  0.9547
 6127TIP3   OH239871   6.129   6.671  15.906 -0.1184  0.5674 -0.5405
 6127TIP3    H139872   6.167   6.584  15.900 -1.0405  0.0449  0.7491
 6127TIP3    H239873   6.035   6.657  15.909 -0.2433  1.4828  1.1159
 6128TIP3   OH239874   0.476   6.591   4.873 -0.3008  0.0298  0.6512
 6128TIP3    H139875   0.408   6.650   4.905 -0.2951  0.6213 -0.3931
 6128TIP3    H239876   0.536   6.647   4.824  0.5912 -0.5871  1.0152
 6129TIP3   OH239877   2.392   3.622   0.094 -0.1524 -0.0392 -0.1281
 6129TIP3    H139878   2.442   3.627   0.176 -1.2170  0.9407  0.4801
 6129TIP3    H239879   2.314   3.572   0.116 -1.2901  1.6860 -0.0655
 6130TIP3   OH239880   3.317   2.599  17.041 -0.1780 -0.1994 -0.0754
 6130TIP3    H139881   3.392   2.623  16.987 -0.6164  0.2017 -0.5168
 6130TIP3    H239882   3.253   2.669  17.026 -0.6344 -0.5275  0.3033
 6131TIP3   OH239883   6.046   4.602  11.239 -0.2544 -1.0629  0.3912
 6131TIP3    H139884   6.139   4.620  11.254 -0.9293  1.3135  2.4377
 6131TIP3    H239885   6.016   4.562  11.321 -1.5603  0.8112  0.8813
 6132TIP3   OH239886   3.923   4.224  16.346  0.0511 -0.1953 -0.2510
 6132TIP3    H139887   4.004   4.193  16.304  0.1044 -0.3513 -0.0335
 6132TIP3    H239888   3.924   4.183  16.433 -1.1973 -1.7192 -0.9105
 6133TIP3   OH239889   4.292   3.187  15.193 -0.2218  0.6957 -0.3969
 6133TIP3    H139890   4.257   3.098  15.194 -0.7525  0.8980 -0.5308
 6133TIP3    H239891   4.238   3.233  15.129 -0.6871  1.4015  0.4856
 6134TIP3   OH239892   6.536   3.933   5.163  0.8717  0.1084 -0.1214
 6134TIP3    H139893   6.453   3.960   5.203  0.4782  0.7742 -1.3345
 6134TIP3    H239894   6.567   4.010   5.117  3.1289  0.4346  1.7494
 6135TIP3   OH239895   4.700   0.597   6.155  0.2693 -0.5558  0.5859
 6135TIP3    H139896   4.730   0.615   6.245  3.2805  2.3985 -0.7724
 6135TIP3    H239897   4.763   0.532   6.122  1.9097  1.4909 -0.5553
 6136TIP3   OH239898   5.576   6.537   3.454  0.2348  0.2036 -0.3438
 6136TIP3    H139899   5.656   6.484   3.453  1.4144  1.8805  0.0594
 6136TIP3    H239900   5.592   6.605   3.388 -1.6435 -0.4648 -1.5496
 6137TIP3   OH239901   6.752   0.662  12.511  0.6365 -0.0881 -0.9411
 6137TIP3    H139902   6.824   0.624  12.460  1.3155  0.7108 -0.6118
 6137TIP3    H239903   6.678   0.664  12.451  1.2157  0.1456 -1.6712
 6138TIP3   OH239904   2.908   0.592   2.736 -0.1173 -0.1906 -0.3388
 6138TIP3    H139905   2.912   0.525   2.668  1.2194 -1.0453  0.5426
 6138TIP3    H239906   2.842   0.559   2.797 -0.8776  0.2814 -0.8844
 6139TIP3   OH239907   2.341   1.870  16.607  0.1605  0.3862 -0.4055
 6139TIP3    H139908   2.405   1.925  16.652  0.7732 -0.0277 -0.7556
 6139TIP3    H239909   2.256   1.910  16.628  0.3743 -0.0885  1.5172
 6140TIP3   OH239910   4.389   3.237  12.085 -0.2272 -0.1805  0.3020
 6140TIP3    H139911   4.448   3.300  12.126  1.0970 -1.7565  0.9331
 6140TIP3    H239912   4.373   3.272  11.997  3.0081 -0.4710 -0.5235
 6141TIP3   OH239913   4.087   0.381   1.791 -0.3387  0.3036  0.3045
 6141TIP3    H139914   4.164   0.418   1.834 -0.4372 -0.9491  1.6315
 6141TIP3    H239915   4.122   0.317   1.728 -0.2651  0.6633 -0.0245
 6142TIP3   OH239916   6.545   0.555   5.628 -0.3842  0.0251  0.9183
 6142TIP3    H139917   6.483   0.608   5.578  1.2216  1.8287  0.6823
 6142TIP3    H239918   6.609   0.526   5.563  1.3194  1.7774  1.7015
 6143TIP3   OH239919   0.471   4.184   1.801 -0.4874 -0.0413 -0.0010
 6143TIP3    H139920   0.433   4.247   1.740 -0.4526  0.9051  0.9318
 6143TIP3    H239921   0.424   4.102   1.784 -2.2762  0.8481  0.4566
 6144TIP3   OH239922   5.347   2.393  12.402 -0.1270  0.1585 -0.2450
 6144TIP3    H139923   5.321   2.301  12.404  0.3790 -0.0277 -1.4532
 6144TIP3    H239924   5.322   2.424  12.315 -0.6789  1.2905  0.2863
 6145TIP3   OH239925   1.317   4.879  14.006  0.0899 -0.0309 -0.7177
 6145TIP3    H139926   1.324   4.786  14.028 -0.8842  0.2797  1.0901
 6145TIP3    H239927   1.394   4.896  13.952  1.4955 -1.3927  0.7342
 6146TIP3   OH239928   4.119   3.054   1.567  0.6602  0.4155 -0.0896
 6146TIP3    H139929   4.122   3.024   1.476 -0.1676 -0.1032  0.0415
 6146TIP3    H239930   4.208   3.041   1.599  0.6412 -0.6780 -0.4367
 6147TIP3   OH239931   6.744   2.736  10.900  0.6270  0.0834  0.5147
 6147TIP3    H139932   6.730   2.825  10.870 -0.5161 -0.6145 -1.1969
 6147TIP3    H239933   6.780   2.745  10.988 -0.9239  2.2061  1.0064
 6148TIP3   OH239934   6.458   2.203   3.316 -0.0831 -0.1235  0.4390
 6148TIP3    H139935   6.518   2.130   3.332 -2.1280 -1.8806  0.5489
 6148TIP3    H239936   6.411   2.214   3.399 -0.5400  0.6049  0.0919
 6149TIP3   OH239937   1.227   1.564  12.414  0.5272 -0.2183 -0.4142
 6149TIP3    H139938   1.309   1.608  12.440 -0.0389  1.1121 -0.7846
 6149TIP3    H239939   1.202   1.514  12.492  1.2572  0.0406  0.0042
 6150TIP3   OH239940   6.330   5.170   3.626  0.4549  0.1734 -0.4168
 6150TIP3    H139941   6.395   5.234   3.656  0.1410  0.3573 -0.1260
 6150TIP3    H239942   6.364   5.086   3.658 -0.2546  0.4395  1.1472
 6151TIP3   OH239943   6.450   6.843   3.523  0.4075 -0.4871  0.0755
 6151TIP3    H139944   6.481   6.752   3.521 -2.5274 -1.5681 -0.0599
 6151TIP3    H239945   6.470   6.872   3.613  1.3443 -1.2339  0.1317
 6152TIP3   OH239946   4.452   4.048  13.071  0.7146  0.1822  0.4167
 6152TIP3    H139947   4.414   4.095  12.997 -1.8536  0.5373  1.8629
 6152TIP3    H239948   4.545   4.071  13.068  0.3199  1.8218 -1.4746
 6153TIP3   OH239949   2.523   0.840   5.046  0.0571 -0.8167 -0.4801
 6153TIP3    H139950   2.440   0.864   5.087  0.9071  0.7107  0.4495
 6153TIP3    H239951   2.569   0.923   5.036  1.8593 -1.7253 -0.0960
 6154TIP3   OH239952   1.873   0.060   4.276 -0.0333  0.1456  0.0448
 6154TIP3    H139953   1.837   0.039   4.190  1.0229 -2.1885  0.0908
 6154TIP3    H239954   1.927   0.137   4.261 -0.8457  0.5221 -1.1099
 6155TIP3   OH239955   6.403   4.549  13.705  0.1792  0.5157  0.5396
 6155TIP3    H139956   6.451   4.630  13.715  0.2986  0.4181  0.7552
 6155TIP3    H239957   6.447   4.503  13.633  0.4542  0.3928  0.7861
 6156TIP3   OH239958   0.752   1.876   2.628  0.1648  0.4875  0.5321
 6156TIP3    H139959   0.801   1.958   2.630 -0.6668  1.0374 -0.7137
 6156TIP3    H239960   0.661   1.902   2.619 -0.4086 -0.5255  2.6737
 6157TIP3   OH239961   0.706   0.709   6.847 -0.4010 -0.1665  0.6409
 6157TIP3    H139962   0.683   0.791   6.890 -0.6400  0.0590  0.0838
 6157TIP3    H239963   0.628   0.654   6.855 -0.0338 -0.5854  1.5683
 6158TIP3   OH239964   5.287   3.684   4.225 -0.0077 -0.3475 -0.2177
 6158TIP3    H139965   5.378   3.692   4.198  0.4071 -1.3561  0.8023
 6158TIP3    H239966   5.237   3.685   4.143  0.9997 -0.8998 -0.8469
 6159TIP3   OH239967   5.756   4.086  16.171 -0.0749 -0.3700 -0.1369
 6159TIP3    H139968   5.766   4.028  16.096 -1.9335 -0.2658 -0.5057
 6159TIP3    H239969   5.673   4.130  16.156  1.1265  2.2230  0.2633
 6160TIP3   OH239970   3.050   6.326   1.592  0.0899  0.0807  0.3090
 6160TIP3    H139971   2.957   6.342   1.610 -0.0909 -1.1935  0.5845
 6160TIP3    H239972   3.059   6.347   1.499 -0.9736 -1.7925 -0.2716
 6161TIP3   OH239973   0.125   1.365  13.209  0.7009 -0.5471  0.3973
 6161TIP3    H139974   0.145   1.445  13.161 -0.7664  0.7030  1.7749
 6161TIP3    H239975   0.157   1.381  13.298 -0.9808 -0.8223  1.0945
 6162TIP3   OH239976   6.606   5.848   1.525 -0.4496 -0.1876  0.4662
 6162TIP3    H139977   6.584   5.903   1.450  1.4673  1.3010  0.8932
 6162TIP3    H239978   6.693   5.879   1.552  1.9567 -4.9596 -0.6801
 6163TIP3   OH239979   3.283   6.207  15.907  0.2802  0.0576  0.4958
 6163TIP3    H139980   3.361   6.196  15.852 -0.0815  0.6259 -0.1532
 6163TIP3    H239981   3.237   6.281  15.868  0.2631  0.8156  1.8835
 6164TIP3   OH239982   2.046   6.756  16.069 -0.4052  0.0007  0.0211
 6164TIP3    H139983   2.119   6.816  16.054 -0.5528 -0.0240 -0.8530
 6164TIP3    H239984   1.969   6.813  16.077 -0.7563 -0.1062 -2.1535
 6165TIP3   OH239985   2.980   5.699   3.935  0.2356  0.0476 -0.8673
 6165TIP3    H139986   3.060   5.651   3.913  0.4469  0.3913 -0.8550
 6165TIP3    H239987   2.926   5.693   3.857 -0.2241 -1.1805 -0.4799
 6166TIP3   OH239988   1.292   4.000   3.934  0.6535  0.5386 -0.5350
 6166TIP3    H139989   1.303   4.060   4.008 -2.1651 -0.7548  1.0901
 6166TIP3    H239990   1.212   4.029   3.891  1.2516  0.1124 -2.0087
 6167TIP3   OH239991   5.091   3.806  16.227  0.0552  0.2121  0.1330
 6167TIP3    H139992   5.041   3.814  16.147 -1.2324 -0.2248  0.8721
 6167TIP3    H239993   5.182   3.794  16.198 -0.2908  0.7839 -1.2214
 6168TIP3   OH239994   2.210   0.919  12.052  0.0269  0.8923  0.1927
 6168TIP3    H139995   2.179   1.008  12.040  1.9994  1.4191 -1.7061
 6168TIP3    H239996   2.276   0.907  11.983  0.9890 -1.4842  1.3946
 6169TIP3   OH239997   5.875   1.489  16.604 -0.3363  0.5322  0.8943
 6169TIP3    H139998   5.782   1.493  16.628 -0.2537  1.4049  1.0791
 6169TIP3    H239999   5.908   1.412  16.652 -1.3680 -0.9660 -0.6827
 6170TIP3   OH240000   3.793   4.594  12.673  0.5565 -0.3069  0.3915
 6170TIP3    H140001   3.716   4.601  12.729  0.5269 -2.2815  0.6558
 6170TIP3    H240002   3.776   4.654  12.600  0.0204  1.3279  1.8095
 6171TIP3   OH240003   4.759   5.625   1.652 -0.2229  0.5940 -0.4420
 6171TIP3    H140004   4.784   5.544   1.698  0.4848  0.8284 -0.3882
 6171TIP3    H240005   4.839   5.677   1.653 -0.5432  1.0977 -0.9000
 6172TIP3   OH240006   4.750   3.548   1.164 -0.2613  0.0645  0.4391
 6172TIP3    H140007   4.748   3.562   1.070  0.1337  1.0803  0.5613
 6172TIP3    H240008   4.659   3.531   1.189 -0.7397  2.0054  0.1650
 6173TIP3   OH240009   2.767   3.281   3.470  0.1810 -0.2586  0.2674
 6173TIP3    H140010   2.708   3.327   3.530 -0.2534  0.1887 -0.4901
 6173TIP3    H240011   2.819   3.224   3.527 -0.8743 -0.5502  0.9695
 6174TIP3   OH240012   5.822   2.455  16.062  0.1738  0.2600  0.4331
 6174TIP3    H140013   5.865   2.445  16.147  0.4497 -1.8503  0.0995
 6174TIP3    H240014   5.730   2.434  16.078  0.2318 -0.1714  0.2364
 6175TIP3   OH240015   3.451   0.893  16.588 -0.3428  0.0203 -0.5318
 6175TIP3    H140016   3.415   0.959  16.647 -1.7048 -0.5607 -0.6729
 6175TIP3    H240017   3.429   0.924  16.501 -1.4405 -0.8452 -0.5809
 6176TIP3   OH240018   2.812   1.212   1.369 -0.0222  0.8254  0.4784
 6176TIP3    H140019   2.758   1.256   1.303  1.1873  2.2669  0.3889
 6176TIP3    H240020   2.901   1.222   1.337  0.3362 -1.7210  0.4948
 6177TIP3   OH240021   6.547   3.872   6.092 -0.1321  0.4943  0.5759
 6177TIP3    H140022   6.472   3.820   6.123  0.3659 -0.3193  0.4479
 6177TIP3    H240023   6.597   3.892   6.172  0.2370 -0.1424  0.5157
 6178TIP3   OH240024   0.366   2.194   0.629 -0.1767 -0.1687  0.1924
 6178TIP3    H140025   0.414   2.143   0.694  0.9450  0.5004 -0.0807
 6178TIP3    H240026   0.274   2.188   0.656  0.2371 -0.1051  1.6966
 6179TIP3   OH240027   5.526   4.051   3.841  0.1870 -0.4558 -0.6418
 6179TIP3    H140028   5.574   4.097   3.910 -1.0464  0.2332 -0.2013
 6179TIP3    H240029   5.566   4.083   3.760  1.0765 -0.6063 -0.2780
 6180TIP3   OH240030   1.805   5.728  10.645  0.2074  0.2916  0.4155
 6180TIP3    H140031   1.810   5.689  10.558 -0.2864 -0.5992  0.7818
 6180TIP3    H240032   1.893   5.717  10.682  0.3368  0.4114  0.1431
 6181TIP3   OH240033   4.570   2.647   1.135 -0.1287  0.1158 -0.5048
 6181TIP3    H140034   4.625   2.712   1.092  1.6867 -1.1099 -0.1635
 6181TIP3    H240035   4.616   2.564   1.121 -0.8479 -0.6975  1.5425
 6182TIP3   OH240036   3.862   0.369  14.025 -0.2023 -0.1622  0.2133
 6182TIP3    H140037   3.954   0.382  14.049  0.2041 -0.7056 -0.9804
 6182TIP3    H240038   3.854   0.276  14.007 -0.5926  0.1009 -1.1578
 6183TIP3   OH240039   6.712   6.005  14.608 -0.3175 -0.0877  0.1906
 6183TIP3    H140040   6.785   6.067  14.610 -0.0003 -0.3534 -1.4580
 6183TIP3    H240041   6.641   6.055  14.567 -1.3177  0.3822  2.3845
 6184TIP3   OH240042   0.395   4.309   3.813  0.1420 -0.3293 -0.2466
 6184TIP3    H140043   0.461   4.359   3.764 -2.1820  1.0778 -2.2005
 6184TIP3    H240044   0.407   4.219   3.783  2.3951 -0.4870  0.9591
 6185TIP3   OH240045   2.541   4.382  17.026  0.0317  0.0062  0.1296
 6185TIP3    H140046   2.493   4.361  16.946  0.9110  1.0616 -0.7041
 6185TIP3    H240047   2.495   4.457  17.062 -0.9896 -1.0969  1.2083
 6186TIP3   OH240048   5.868   2.546  12.473  0.0818  0.4629 -0.1284
 6186TIP3    H140049   5.850   2.611  12.404  0.5241 -1.3555 -2.0553
 6186TIP3    H240050   5.782   2.511  12.496 -0.1237  1.4506  0.6821
 6187TIP3   OH240051   5.996   1.463   0.276  1.0040 -0.1364  0.3660
 6187TIP3    H140052   5.908   1.427   0.267  1.6026 -1.3190 -1.1180
 6187TIP3    H240053   6.027   1.476   0.187  1.4392  2.6745  0.8220
 6188TIP3   OH240054   6.344   3.445  13.642  0.1746 -0.1707  0.0792
 6188TIP3    H140055   6.421   3.387  13.643  1.1653  1.0344 -1.4662
 6188TIP3    H240056   6.281   3.402  13.700  0.5543 -3.2018 -1.5368
 6189TIP3   OH240057   0.898   2.825  15.230 -0.1054 -0.0954  0.2645
 6189TIP3    H140058   0.849   2.750  15.264 -3.1499  0.8303 -1.6780
 6189TIP3    H240059   0.927   2.798  15.143 -2.3317  1.2384 -0.9951
 6190TIP3   OH240060   0.114   1.170   5.068 -0.0173 -0.3851 -0.0461
 6190TIP3    H140061   0.041   1.127   5.111 -0.0512 -0.4443 -0.1634
 6190TIP3    H240062   0.189   1.155   5.126  0.2665 -1.7341 -0.7310
 6191TIP3   OH240063   1.773   5.679   3.609  0.6138  0.0404 -0.5817
 6191TIP3    H140064   1.738   5.596   3.577  0.0560  0.3298 -0.7421
 6191TIP3    H240065   1.777   5.668   3.704 -0.5812  0.2387 -0.4906
 6192TIP3   OH240066   2.190   6.835  12.346  0.7647 -0.4290  0.2944
 6192TIP3    H140067   2.096   6.825  12.333 -0.1556  1.8841  3.6086
 6192TIP3    H240068   2.212   6.919  12.305  0.7222  0.3361  1.7624
 6193TIP3   OH240069   3.133   5.001  10.864  0.0679  0.6438 -0.4587
 6193TIP3    H140070   3.131   5.094  10.842 -0.2197  0.5225 -0.9693
 6193TIP3    H240071   3.151   4.957  10.781  0.4651  0.2572 -0.1701
 6194TIP3   OH240072   6.760   5.370  12.562 -0.0224 -0.4024  0.4839
 6194TIP3    H140073   6.745   5.377  12.468  0.5646  0.4859  0.4462
 6194TIP3    H240074   6.749   5.277  12.582  4.1751 -1.4973 -1.2307
 6195TIP3   OH240075   6.099   3.612  13.552 -0.1103  0.2460 -0.1254
 6195TIP3    H140076   6.105   3.526  13.593 -0.0972 -0.0477 -0.7428
 6195TIP3    H240077   6.006   3.636  13.560 -0.4268 -0.5230 -1.3587
 6196TIP3   OH240078   6.085   2.944  13.567  0.4416 -0.7980  0.0418
 6196TIP3    H140079   6.071   2.950  13.662 -2.6726  1.6724 -0.4247
 6196TIP3    H240080   6.150   3.012  13.549  0.1638 -0.4582  0.2918
 6197TIP3   OH240081   1.223   2.005   5.971  0.3376  0.0417  0.2042
 6197TIP3    H140082   1.266   2.042   6.048  0.0422 -0.9852  0.8842
 6197TIP3    H240083   1.294   1.986   5.910  0.5616  0.9757  0.1526
 6198TIP3   OH240084   5.237   3.222   0.236  0.8263  0.3411 -0.4200
 6198TIP3    H140085   5.316   3.170   0.222  0.3786 -0.5165  0.0958
 6198TIP3    H240086   5.256   3.273   0.315  1.4361  1.3136 -1.1847
 6199TIP3   OH240087   0.333   5.050   3.589  0.1498  0.2373 -0.2159
 6199TIP3    H140088   0.274   5.102   3.534 -1.0313  0.8192  1.5304
 6199TIP3    H240089   0.420   5.072   3.557 -0.4992  0.3668 -2.0019
 6200TIP3   OH240090   4.893   1.870   5.617 -0.0470 -1.2246  0.0337
 6200TIP3    H140091   4.845   1.837   5.693  1.2534 -1.2615  0.8783
 6200TIP3    H240092   4.970   1.813   5.610 -0.5758 -1.7678 -1.8580
 6201TIP3   OH240093   1.088   5.981  13.330 -0.3164  0.7659  0.6739
 6201TIP3    H140094   1.082   5.896  13.287  0.2990  0.9297  0.2603
 6201TIP3    H240095   0.997   6.004  13.349 -0.4762 -0.0857  1.0006
 6202TIP3   OH240096   1.312   5.849  15.734 -0.0692  0.0511 -0.7792
 6202TIP3    H140097   1.300   5.927  15.680 -0.6997  0.2487 -0.3607
 6202TIP3    H240098   1.313   5.777  15.671  1.6417  0.4713 -1.2752
 6203TIP3   OH240099   0.679   2.629   3.670  0.2102  0.2321  0.1347
 6203TIP3    H140100   0.736   2.555   3.691 -1.2065 -1.1095 -0.4627
 6203TIP3    H240101   0.714   2.702   3.721  1.7340 -0.8176  0.6676
 6204TIP3   OH240102   0.805   0.107  17.030 -0.1177  0.2151 -0.4550
 6204TIP3    H140103   0.794   0.015  17.054 -0.3069  0.3489 -0.0232
 6204TIP3    H240104   0.891   0.110  16.988 -1.0176 -0.5519 -2.4571
 6205TIP3   OH240105   5.464   1.095   1.828  0.5139  0.1966 -0.1859
 6205TIP3    H140106   5.532   1.034   1.856  0.5725  0.7030  0.8621
 6205TIP3    H240107   5.474   1.102   1.734  0.0674 -1.9236 -0.4347
 6206TIP3   OH240108   6.558   4.170  11.829  0.2572  0.7724  0.8895
 6206TIP3    H140109   6.548   4.258  11.792  0.9003  0.5280  0.1131
 6206TIP3    H240110   6.541   4.111  11.756  1.8816  0.2829  0.8703
 6207TIP3   OH240111   3.407   0.364   6.262 -1.0761  0.3719 -0.4415
 6207TIP3    H140112   3.333   0.409   6.303 -2.5578 -1.8148 -0.5725
 6207TIP3    H240113   3.374   0.335   6.177  0.2253  0.1020 -0.8734
 6208TIP3   OH240114   0.587   6.111  11.432 -0.7688  0.3367 -0.3877
 6208TIP3    H140115   0.657   6.123  11.495 -0.8929  0.5008 -0.2806
 6208TIP3    H240116   0.510   6.149  11.474 -0.9220  0.1546 -0.5015
 6209TIP3   OH240117   6.531   2.303  16.837 -0.4815  0.4002 -0.1173
 6209TIP3    H140118   6.513   2.345  16.921  0.2590  1.1512 -0.3183
 6209TIP3    H240119   6.617   2.262  16.848 -0.4681  0.3380 -0.4393
 6210TIP3   OH240120   6.352   3.898   1.651 -0.1589  0.5417  0.3748
 6210TIP3    H140121   6.381   3.845   1.725  2.5956  1.3001 -0.0157
 6210TIP3    H240122   6.355   3.838   1.576 -0.3754  0.4071  0.4754
 6211TIP3   OH240123   2.676   1.206   1.851 -0.2484 -0.5537 -0.3686
 6211TIP3    H140124   2.735   1.132   1.836  0.0522 -0.3387 -0.2604
 6211TIP3    H240125   2.590   1.176   1.821  0.0195 -0.6963 -1.0057
 6212TIP3   OH240126   2.200   4.315   0.449  0.4716 -0.6198  0.4514
 6212TIP3    H140127   2.246   4.377   0.392 -1.7151 -0.0573 -0.7997
 6212TIP3    H240128   2.243   4.325   0.534  1.1653  1.5407 -0.0845
 6213TIP3   OH240129   2.212   2.440  17.056  0.2300  0.1029  0.4653
 6213TIP3    H140130   2.253   2.525  17.073  1.9834 -0.4278 -0.8085
 6213TIP3    H240131   2.276   2.376  17.085 -0.0203 -0.7757 -0.8292
 6214TIP3   OH240132   4.450   5.843  16.556  0.3607 -0.0178  0.1482
 6214TIP3    H140133   4.395   5.897  16.614 -0.8033  0.9349 -1.7472
 6214TIP3    H240134   4.507   5.906  16.512  0.3398 -0.5604 -0.6743
 6215TIP3   OH240135   0.739   2.439   4.953 -0.0320  0.3565  0.2266
 6215TIP3    H140136   0.770   2.363   4.905  1.6824 -0.0347  1.8483
 6215TIP3    H240137   0.818   2.489   4.974 -1.0494  2.2137 -0.1595
 6216TIP3   OH240138   3.863   5.100   3.778  0.1380 -0.0128 -0.2886
 6216TIP3    H140139   3.906   5.043   3.714 -0.0042  0.4559 -0.8115
 6216TIP3    H240140   3.772   5.070   3.778 -0.1946  0.9092 -1.3912
 6217TIP3   OH240141   5.287   5.143   3.279  0.0850 -0.0530  0.0627
 6217TIP3    H140142   5.323   5.154   3.190 -0.6270  0.1635 -0.2060
 6217TIP3    H240143   5.207   5.195   3.279 -0.7152 -1.2419  0.3611
 6218TIP3   OH240144   5.380   0.650  11.048 -0.2629  0.0330  0.1292
 6218TIP3    H140145   5.338   0.608  10.973  0.0675  0.3472 -0.2342
 6218TIP3    H240146   5.313   0.709  11.083 -0.1759  0.4204 -0.3566
 6219TIP3   OH240147   4.416   2.064  13.750 -0.1700 -0.0312 -0.2457
 6219TIP3    H140148   4.354   2.122  13.707 -0.1043  1.1478  1.1736
 6219TIP3    H240149   4.362   1.999  13.795 -0.2611 -0.5884 -1.1130
 6220TIP3   OH240150   4.929   0.740   3.240 -0.1975  0.0863  0.1474
 6220TIP3    H140151   4.911   0.672   3.304 -2.3548  2.1788  1.9350
 6220TIP3    H240152   4.846   0.754   3.195  0.7261  0.2048 -1.6517
 6221TIP3   OH240153   0.594   2.485   0.864 -0.1527 -0.0122  0.3893
 6221TIP3    H140154   0.508   2.442   0.865 -1.4301  2.2675 -1.1152
 6221TIP3    H240155   0.648   2.431   0.806 -0.4825 -1.5770  1.5023
 6222TIP3   OH240156   3.769   0.950  11.519  0.6973  0.4120 -0.9068
 6222TIP3    H140157   3.715   0.972  11.596  0.1090 -1.6718 -0.6536
 6222TIP3    H240158   3.754   1.022  11.458 -1.8069  0.3355 -0.5204
 6223TIP3   OH240159   4.656   2.588  11.114 -0.3134  0.3514 -0.7977
 6223TIP3    H140160   4.595   2.595  11.189  0.1249  1.3541 -0.5177
 6223TIP3    H240161   4.627   2.510  11.067 -1.0954  0.1527 -0.0173
 6224TIP3   OH240162   0.028   3.012  13.326  0.5872  0.0774  0.0501
 6224TIP3    H140163  -0.033   3.080  13.299  1.6881  2.0558  2.1938
 6224TIP3    H240164  -0.003   2.985  13.412  2.0322  0.2935  0.6686
 6225TIP3   OH240165   1.373   6.727  11.324 -0.1007 -0.1332  0.2657
 6225TIP3    H140166   1.388   6.688  11.410 -2.4837  0.9012  1.2297
 6225TIP3    H240167   1.279   6.716  11.309  0.1321  0.4534 -1.8488
 6226TIP3   OH240168   1.610   3.255   0.968 -0.1704 -0.0236 -0.1210
 6226TIP3    H140169   1.557   3.186   0.928 -0.6082 -0.2098  0.7600
 6226TIP3    H240170   1.626   3.224   1.057 -2.3143  2.0223  1.0901
 6227TIP3   OH240171   1.682   0.634  10.223 -0.3980  0.1360 -0.5149
 6227TIP3    H140172   1.725   0.703  10.274  0.0446 -1.3778  1.2571
 6227TIP3    H240173   1.641   0.578  10.289 -1.2498 -0.9816 -1.9458
 6228TIP3   OH240174   1.783   3.127   3.125 -0.0402 -0.0894  0.5124
 6228TIP3    H140175   1.759   3.219   3.136 -0.8089  0.0646 -1.9500
 6228TIP3    H240176   1.845   3.126   3.053 -1.3807 -1.6313 -0.6970
 6229TIP3   OH240177   2.279   6.711   1.546 -0.2969 -0.6383  0.2777
 6229TIP3    H140178   2.261   6.784   1.487 -0.5765 -0.7645  0.2086
 6229TIP3    H240179   2.293   6.753   1.631 -1.9107 -0.5983  0.5513
 6230TIP3   OH240180   5.141   3.848   4.630 -0.2566 -0.1480  0.3927
 6230TIP3    H140181   5.077   3.796   4.677 -1.4815  1.3108  0.4234
 6230TIP3    H240182   5.169   3.914   4.694  1.2169 -0.6788  0.3443
 6231TIP3   OH240183   3.350   2.668   1.478  0.3490  0.0720 -0.4618
 6231TIP3    H140184   3.273   2.614   1.493 -1.1600  2.6237  1.9146
 6231TIP3    H240185   3.399   2.663   1.561  0.3941  1.8999 -0.3389
 6232TIP3   OH240186   2.421   2.353   3.430  0.2043  0.6739  0.2103
 6232TIP3    H140187   2.482   2.338   3.358  0.5191  1.5444  0.2796
 6232TIP3    H240188   2.431   2.447   3.450 -0.9802  0.7736  0.3754
 6233TIP3   OH240189   2.610   0.428  13.950 -0.1657  0.0572  0.3747
 6233TIP3    H140190   2.621   0.415  13.855 -2.4157 -1.6601  0.2625
 6233TIP3    H240191   2.520   0.457  13.960 -0.0288 -0.0125  2.0303
 6234TIP3   OH240192   4.910   4.804   1.925  0.1023  0.4694  0.2823
 6234TIP3    H140193   4.832   4.764   1.888 -0.9002  1.0752  1.6679
 6234TIP3    H240194   4.883   4.893   1.948  0.8647  0.3381  1.7928
 6235TIP3   OH240195   4.744   6.283  13.936 -0.6125  0.7273  0.1426
 6235TIP3    H140196   4.753   6.190  13.956  3.5246  0.6736 -1.0798
 6235TIP3    H240197   4.675   6.287  13.871 -1.3080 -1.3874  0.6687
 6236TIP3   OH240198   4.494   3.435   5.829 -0.6098 -0.1052 -0.0041
 6236TIP3    H140199   4.501   3.344   5.801  0.4213  0.0765 -0.3836
 6236TIP3    H240200   4.536   3.438   5.914  0.3016  0.2111 -0.4575
 6237TIP3   OH240201   5.403   5.884   3.600  0.3870 -0.0502 -0.2915
 6237TIP3    H140202   5.475   5.874   3.538 -1.8069 -3.1780 -2.6812
 6237TIP3    H240203   5.357   5.963   3.571  0.5375 -0.3587 -1.4267
 6238TIP3   OH240204   4.357   0.682  11.589 -0.2040 -0.1946  0.0273
 6238TIP3    H140205   4.428   0.636  11.544 -0.1456 -0.3155  0.2420
 6238TIP3    H240206   4.390   0.695  11.678 -0.1662  0.3738 -0.0670
 6239TIP3   OH240207   2.987   4.675  12.406  0.2925  0.8385  0.4546
 6239TIP3    H140208   3.076   4.646  12.430  0.1528  0.3021  0.3444
 6239TIP3    H240209   2.960   4.613  12.338  0.5697  2.1509 -0.8951
 6240TIP3   OH240210   4.777   5.932   2.690 -0.5343  0.2139 -0.3396
 6240TIP3    H140211   4.713   5.962   2.625  0.2949 -0.0956 -1.3202
 6240TIP3    H240212   4.732   5.864   2.739 -1.0266  0.1247 -0.9036
 6241TIP3   OH240213   5.383   6.263  15.226  0.1845 -0.0474 -0.2391
 6241TIP3    H140214   5.327   6.213  15.165  1.3802 -1.1083 -0.5107
 6241TIP3    H240215   5.441   6.313  15.169 -0.7549  1.4398  0.0402
 6242TIP3   OH240216   1.652   3.785   0.608  0.2218 -0.0673 -0.2305
 6242TIP3    H140217   1.634   3.878   0.621 -1.8431 -0.6549  1.6041
 6242TIP3    H240218   1.592   3.758   0.538  0.1853 -0.2224 -0.1390
 6243TIP3   OH240219   2.770   2.848   1.137  0.1394  0.5248 -0.1425
 6243TIP3    H140220   2.767   2.944   1.133 -0.3564  0.6495  2.0747
 6243TIP3    H240221   2.746   2.827   1.227 -1.9588 -1.7945 -1.1082
 6244TIP3   OH240222   6.333   4.685  16.443  0.2891 -0.3546 -0.1015
 6244TIP3    H140223   6.304   4.679  16.534  1.0729 -0.5789  0.1465
 6244TIP3    H240224   6.255   4.712  16.395  0.0669  0.6102  0.7559
 6245TIP3   OH240225   0.343   3.742  14.760  0.0976 -0.4489  0.9005
 6245TIP3    H140226   0.372   3.831  14.780  1.2955 -0.1747 -1.7220
 6245TIP3    H240227   0.360   3.731  14.666  1.8332 -4.1158  1.4657
 6246TIP3   OH240228   4.437   1.330  16.587  0.3764 -0.6923 -0.2802
 6246TIP3    H140229   4.420   1.247  16.633 -0.1630 -0.6168 -0.3350
 6246TIP3    H240230   4.472   1.388  16.655  1.0094 -1.0433 -0.2996
 6247TIP3   OH240231   2.745   5.343   0.332 -0.2565  0.7489  0.2650
 6247TIP3    H140232   2.827   5.369   0.375  0.9844 -0.8501 -0.9983
 6247TIP3    H240233   2.773   5.283   0.263 -2.5177  0.2082 -0.2400
 6248TIP3   OH240234   2.652   2.915   5.055 -0.0546 -0.3777  0.1915
 6248TIP3    H140235   2.723   2.929   5.119 -0.3537  0.5717  0.3339
 6248TIP3    H240236   2.658   2.822   5.033  0.5471 -0.5529  1.0204
 6249TIP3   OH240237   1.755   2.110   4.589 -0.1746 -0.2244 -0.7616
 6249TIP3    H140238   1.819   2.056   4.543  0.4956  0.1782 -0.3305
 6249TIP3    H240239   1.670   2.083   4.554  0.2667 -0.4053 -1.7178
 6250TIP3   OH240240   4.016   0.427  16.911 -0.4029 -0.1244 -0.0418
 6250TIP3    H140241   4.051   0.338  16.912 -0.8909 -0.3190  0.3924
 6250TIP3    H240242   3.946   0.424  16.846  1.6605  0.7873 -2.4304
 6251TIP3   OH240243   2.421   6.038   5.225  0.1117 -0.7155 -0.0714
 6251TIP3    H140244   2.485   5.988   5.174  0.5064  0.5233 -0.8358
 6251TIP3    H240245   2.354   6.062   5.161 -0.5546 -1.0634  0.4916
 6252TIP3   OH240246   1.928   4.625   1.496 -0.1620  0.0274 -0.0611
 6252TIP3    H140247   1.895   4.590   1.413  0.9678 -0.1966 -0.4257
 6252TIP3    H240248   1.864   4.692   1.520 -0.9385 -0.4626 -0.6935
 6253TIP3   OH240249   6.391   5.627  15.715  0.2375  0.0377  0.0298
 6253TIP3    H140250   6.344   5.703  15.749  0.4083  0.7800 -1.3217
 6253TIP3    H240251   6.479   5.634  15.753 -0.1036 -0.1799  0.8763
 6254TIP3   OH240252   2.039   3.553   1.913  0.5275  0.2893 -0.1075
 6254TIP3    H140253   2.061   3.644   1.894  1.4385  0.2878  0.8196
 6254TIP3    H240254   2.067   3.540   2.004 -0.9267 -0.5060  0.2713
 6255TIP3   OH240255   0.780   6.098  11.218 -0.1782 -0.2044  0.7601
 6255TIP3    H140256   0.830   6.179  11.218  1.1984 -1.0089  2.1900
 6255TIP3    H240257   0.729   6.101  11.299  0.9369 -1.3601  1.5329
 6256TIP3   OH240258   6.091   1.368  13.068 -0.3981 -0.7111 -0.0137
 6256TIP3    H140259   6.153   1.353  12.997  0.8450 -0.0972  0.9015
 6256TIP3    H240260   6.143   1.357  13.148 -1.1320  1.1275  0.7708
 6257TIP3   OH240261   3.013   0.166  14.815  0.2489  0.0306 -0.4772
 6257TIP3    H140262   3.070   0.243  14.813 -1.2885  1.3395  1.6448
 6257TIP3    H240263   3.069   0.094  14.785  1.5837  2.0140 -3.1275
 6258TIP3   OH240264   0.474   3.156  14.087  0.1133 -0.1699 -0.1450
 6258TIP3    H140265   0.421   3.133  14.011 -0.3149 -0.0528  0.1128
 6258TIP3    H240266   0.519   3.075  14.111  0.3444 -0.1757 -0.5938
 6259TIP3   OH240267   3.124   3.210  12.648 -0.0988  0.1528 -0.1449
 6259TIP3    H140268   3.183   3.239  12.578 -2.5160  1.9353 -1.6037
 6259TIP3    H240269   3.121   3.115  12.640  2.2176  0.0415 -0.2612
 6260TIP3   OH240270   4.910   5.427  13.577  0.1283  0.5054  0.5363
 6260TIP3    H140271   4.952   5.346  13.547 -0.9935 -0.0856  0.4967
 6260TIP3    H240272   4.944   5.495  13.519  0.6628 -0.0338  0.2084
 6261TIP3   OH240273   1.411   1.485  15.806 -0.3054 -0.5696  0.0148
 6261TIP3    H140274   1.452   1.556  15.856  0.2021 -1.1787  0.4843
 6261TIP3    H240275   1.372   1.529  15.731  0.4560  0.1542  0.0160
 6262TIP3   OH240276   1.401   5.613   3.513  0.2973  0.6670  0.5469
 6262TIP3    H140277   1.356   5.536   3.478  0.4990  1.5472 -1.7493
 6262TIP3    H240278   1.486   5.580   3.541 -0.4831 -0.3647  1.8605
 6263TIP3   OH240279   2.486   0.400  11.977 -0.2866  0.1210 -0.1470
 6263TIP3    H140280   2.469   0.314  12.016  0.3145  0.0582 -0.0115
 6263TIP3    H240281   2.400   0.441  11.971 -0.7501 -0.9674 -1.3527
 6264TIP3   OH240282   1.727   4.543   5.574 -0.2952  0.4619  0.0738
 6264TIP3    H140283   1.736   4.551   5.479  0.2027 -0.4973  0.0209
 6264TIP3    H240284   1.645   4.587   5.595 -0.9685 -0.2565 -0.9485
 6265TIP3   OH240285   5.158   3.815  16.594 -0.4687 -0.2958 -0.2030
 6265TIP3    H140286   5.112   3.736  16.621  0.0505 -0.1613  1.1648
 6265TIP3    H240287   5.238   3.816  16.646  0.0400  0.5895 -0.9623
 6266TIP3   OH240288   3.317   6.496  15.821  0.6474 -0.5956  0.1660
 6266TIP3    H140289   3.401   6.540  15.809 -0.6977  1.8422 -0.9888
 6266TIP3    H240290   3.286   6.478  15.733 -1.1673  0.9236  0.4343
 6267TIP3   OH240291   3.953   4.121  13.569  0.1404  0.0734  0.5976
 6267TIP3    H140292   3.884   4.154  13.511 -1.7901 -3.0666  0.8611
 6267TIP3    H240293   4.032   4.120  13.514 -0.3625  2.1395 -0.2589
 6268TIP3   OH240294   4.907   4.245  16.685  0.2304 -0.5119 -0.2498
 6268TIP3    H140295   4.907   4.172  16.747 -2.2425 -0.3182  0.0834
 6268TIP3    H240296   4.971   4.307  16.721  2.0537 -2.2501 -0.3098
 6269TIP3   OH240297   5.735   2.484   0.950  0.2427  0.4044 -0.0823
 6269TIP3    H140298   5.697   2.500   0.863  1.3767  2.9856 -0.2018
 6269TIP3    H240299   5.662   2.498   1.010 -0.5039 -1.2007 -0.5661
 6270TIP3   OH240300   5.989   0.728   5.716  0.3118  0.1360  0.1950
 6270TIP3    H140301   5.894   0.728   5.703  0.5553 -0.7710 -1.9739
 6270TIP3    H240302   6.000   0.708   5.809 -1.6108  2.8019  1.1108
 6271TIP3   OH240303   3.707   1.950   4.422  0.1654 -0.1147  0.0911
 6271TIP3    H140304   3.694   1.861   4.454  0.9571 -0.2657  0.0260
 6271TIP3    H240305   3.691   2.005   4.498  1.7316 -0.4517  0.7224
 6272TIP3   OH240306   2.537   5.705   1.472 -0.3659 -0.0148 -0.4443
 6272TIP3    H140307   2.614   5.648   1.478 -0.2540 -0.0987 -2.1480
 6272TIP3    H240308   2.528   5.723   1.378 -2.0775  0.4874 -0.2149
 6273TIP3   OH240309   4.810   2.160   0.506 -0.6935 -0.2210  0.0731
 6273TIP3    H140310   4.813   2.185   0.598  1.1198  0.3288 -0.0950
 6273TIP3    H240311   4.761   2.230   0.463 -1.4909 -0.4461  0.5872
 6274TIP3   OH240312   4.535   3.135   3.364  0.3025 -0.7244  0.2394
 6274TIP3    H140313   4.494   3.194   3.301  1.3243 -1.1492 -0.8564
 6274TIP3    H240314   4.522   3.177   3.449 -0.8222  0.0135 -0.2792
 6275TIP3   OH240315   0.002   1.381   0.202 -0.4378 -0.2734  0.1011
 6275TIP3    H140316   0.054   1.456   0.173 -0.7620  0.4419  1.2779
 6275TIP3    H240317  -0.053   1.416   0.272 -1.6435 -1.2897 -0.2913
 6276TIP3   OH240318   5.175   2.068  14.397 -0.2965  0.6773  0.1490
 6276TIP3    H140319   5.238   2.030  14.458 -0.6469  0.4133  0.3532
 6276TIP3    H240320   5.113   2.116  14.453 -0.4427  0.6949 -0.0257
 6277TIP3   OH240321   5.949   5.801  11.968 -0.5915 -0.1996 -0.4315
 6277TIP3    H140322   5.886   5.798  12.039 -1.2716 -0.7234 -1.0485
 6277TIP3    H240323   5.901   5.839  11.894 -0.1215 -0.3738 -0.8352
 6278TIP3   OH240324   4.605   5.108   3.666  0.1183  0.2911  0.7965
 6278TIP3    H140325   4.552   5.090   3.588 -0.5463  1.0824  1.0601
 6278TIP3    H240326   4.560   5.062   3.737  0.1296  0.4565  0.9102
 6279TIP3   OH240327   3.638   2.689  11.541 -1.2637 -0.0778  0.4821
 6279TIP3    H140328   3.553   2.732  11.536 -1.2354  0.0139  0.7613
 6279TIP3    H240329   3.619   2.603  11.579 -1.3499 -0.4035 -0.2729
 6280TIP3   OH240330   5.232   6.670   2.421  0.5299 -0.1546 -0.8376
 6280TIP3    H140331   5.212   6.586   2.463  0.0545  0.7620  0.8275
 6280TIP3    H240332   5.327   6.674   2.419  0.5633 -0.9522 -1.4113
 6281TIP3   OH240333   5.859   5.931  16.607 -0.5356  0.6597  0.2917
 6281TIP3    H140334   5.859   5.900  16.697  1.0066  1.8011  0.7242
 6281TIP3    H240335   5.935   5.887  16.568 -0.2851  1.3609 -0.0143
 6282TIP3   OH240336   5.482   6.255  12.893 -0.0721  0.7304 -0.1480
 6282TIP3    H140337   5.392   6.229  12.874  0.6165 -0.7966 -1.5671
 6282TIP3    H240338   5.473   6.323  12.960 -2.2174 -0.0969  0.5217
 6283TIP3   OH240339   6.234   0.552   3.544 -0.0468  0.5366 -0.5485
 6283TIP3    H140340   6.213   0.641   3.574 -0.5935  0.1573  0.2434
 6283TIP3    H240341   6.200   0.549   3.455 -0.1408  1.0892 -0.5385
 6284TIP3   OH240342   6.735   2.525  12.139  0.3516  0.5119 -0.1807
 6284TIP3    H140343   6.829   2.541  12.140  0.4172  0.0900  0.9365
 6284TIP3    H240344   6.706   2.544  12.228 -0.7533  1.3342 -0.6863
 6285TIP3   OH240345   0.504   5.407   2.612  0.2221 -0.4207 -0.6044
 6285TIP3    H140346   0.436   5.409   2.679 -1.5301  1.9123 -2.2875
 6285TIP3    H240347   0.585   5.430   2.659 -0.6043 -0.5839  0.9753
 6286TIP3   OH240348   3.470   5.282  11.911 -0.1952  0.6613 -0.6640
 6286TIP3    H140349   3.558   5.248  11.925 -0.3501 -0.2933 -1.8862
 6286TIP3    H240350   3.442   5.312  11.998  0.9607  0.1188 -0.0803
 6287TIP3   OH240351   1.940   5.212  14.105  0.3422  0.0674  0.2040
 6287TIP3    H140352   1.958   5.152  14.177 -0.4072  0.5484  0.7934
 6287TIP3    H240353   1.847   5.231  14.111  0.6144  1.5215  0.2044
 6288TIP3   OH240354   1.864   2.738  17.062  0.0937  0.4082 -0.4696
 6288TIP3    H140355   1.818   2.796  17.122 -0.0507  0.0902 -0.2670
 6288TIP3    H240356   1.935   2.791  17.026  2.3128 -0.2490  2.4727
 6289TIP3   OH240357   0.165   0.004  16.234 -0.8127  0.4052 -0.2037
 6289TIP3    H140358   0.203   0.076  16.184  0.1884 -1.1342 -1.7519
 6289TIP3    H240359   0.214   0.003  16.316 -0.2882  0.9741 -0.5019
 6290TIP3   OH240360   6.075   5.271   2.974  0.3761  0.3600 -0.2031
 6290TIP3    H140361   6.106   5.286   2.885 -1.6083  0.3034 -0.9444
 6290TIP3    H240362   5.980   5.269   2.966  0.2161 -1.6107  1.6107
 6291TIP3   OH240363   4.483   0.460  15.961  0.3406 -0.5555 -0.4124
 6291TIP3    H140364   4.418   0.396  15.931 -0.8801  0.6072 -0.3228
 6291TIP3    H240365   4.505   0.433  16.050 -0.2017 -0.8259 -0.3591
 6292TIP3   OH240366   2.155   1.599   5.213 -0.3834 -0.0904 -0.0913
 6292TIP3    H140367   2.089   1.589   5.281 -0.4177 -0.5876 -0.1891
 6292TIP3    H240368   2.140   1.686   5.176 -0.6519  0.0010  0.2305
 6293TIP3   OH240369   6.760   3.215  12.542  0.1661  0.2771 -0.5082
 6293TIP3    H140370   6.805   3.131  12.545 -0.9371 -0.2918  1.0635
 6293TIP3    H240371   6.818   3.275  12.589 -0.0819 -0.1365  0.3329
 6294TIP3   OH240372   6.826   3.256   0.861 -0.5811 -0.1418  0.3853
 6294TIP3    H140373   6.761   3.308   0.814  1.0622 -0.2690 -2.1830
 6294TIP3    H240374   6.816   3.167   0.827 -0.8565 -0.7821  2.0139
 6295TIP3   OH240375   2.235   2.829   6.048  0.5517  0.2405 -0.0139
 6295TIP3    H140376   2.236   2.924   6.064  0.3427  0.4603 -1.2178
 6295TIP3    H240377   2.156   2.814   5.996  1.1783 -0.4190 -0.8047
 6296TIP3   OH240378   1.631   2.185  11.962  0.0442  0.4899 -0.3093
 6296TIP3    H140379   1.602   2.276  11.967 -0.5465  0.2766  0.5034
 6296TIP3    H240380   1.551   2.136  11.943 -0.1409 -0.0860  1.6758
 6297TIP3   OH240381   2.577   2.158  10.638  0.1417  0.2167 -0.0999
 6297TIP3    H140382   2.547   2.229  10.582 -0.7321  0.3900  0.5746
 6297TIP3    H240383   2.513   2.088  10.626 -0.0718  0.2625  0.6844
 6298TIP3   OH240384   6.054   4.410   1.092  0.2049 -0.1509  0.1905
 6298TIP3    H140385   6.084   4.477   1.030 -1.5511 -0.2872 -0.8733
 6298TIP3    H240386   6.134   4.366   1.120  1.1488  0.6162 -1.1857
 6299TIP3   OH240387   4.819   3.561  16.080  0.3846  0.5387  0.4868
 6299TIP3    H140388   4.867   3.513  16.148  0.4356  0.6193  0.5079
 6299TIP3    H240389   4.868   3.545  16.000  1.4411  2.0450  0.8107
 6300TIP3   OH240390   2.401   1.899  13.357  0.6200 -0.2481  0.4763
 6300TIP3    H140391   2.473   1.961  13.364  0.6307 -0.1852 -0.1083
 6300TIP3    H240392   2.326   1.945  13.396  0.6307  0.1345  0.0583
 6301TIP3   OH240393   3.724   6.224  13.112 -0.1775  0.5419  0.2647
 6301TIP3    H140394   3.728   6.247  13.020 -0.9308  1.1953  0.3908
 6301TIP3    H240395   3.803   6.262  13.150 -0.1227  0.7026 -0.0124
 6302TIP3   OH240396   1.650   6.222  16.159  0.1282  0.2690  0.0349
 6302TIP3    H140397   1.657   6.193  16.068 -0.1238 -0.7645  0.3247
 6302TIP3    H240398   1.609   6.308  16.154  0.1873  0.2518 -0.8357
 6303TIP3   OH240399   3.758   2.955   5.803  0.0803 -0.1086  0.1489
 6303TIP3    H140400   3.740   2.867   5.771 -0.7395  0.2459 -0.4021
 6303TIP3    H240401   3.724   2.956   5.893  1.8477 -0.9225  0.8914
 6304TIP3   OH240402   0.297   6.080   3.969  0.1259  0.3346  0.8950
 6304TIP3    H140403   0.295   6.051   3.878  0.9304  0.6891  0.7556
 6304TIP3    H240404   0.228   6.029   4.012 -1.3333  1.2656 -0.2283
 6305TIP3   OH240405   3.964   4.925   1.180  0.5789 -0.2858  0.2118
 6305TIP3    H140406   4.034   4.983   1.151  0.7034  0.1903  1.4269
 6305TIP3    H240407   3.883   4.970   1.154  0.6903 -0.0432  0.2875
 6306TIP3   OH240408   2.383   2.253  16.366  0.4696  0.2641  0.2868
 6306TIP3    H140409   2.445   2.287  16.430  1.9091 -0.8481 -0.4490
 6306TIP3    H240410   2.437   2.230  16.290 -0.7674 -1.2560 -0.1871
 6307TIP3   OH240411   3.675   2.906   6.600  1.0838  0.5254 -0.8328
 6307TIP3    H140412   3.702   2.825   6.643 -0.8886  1.9399  3.6092
 6307TIP3    H240413   3.600   2.881   6.546 -0.4383 -0.4882  1.6073
 6308TIP3   OH240414   0.746   1.357   4.005  0.2494  0.1704 -0.8346
 6308TIP3    H140415   0.742   1.352   3.909 -0.8343 -0.6287 -0.7689
 6308TIP3    H240416   0.758   1.266   4.033 -0.4557  0.2642 -0.1861
 6309TIP3   OH240417   3.027   4.026  16.324 -0.2500 -0.0599 -0.2087
 6309TIP3    H140418   3.046   4.031  16.418 -0.4792  0.5752 -0.1941
 6309TIP3    H240419   3.003   3.934  16.310  1.8254 -0.6646 -0.0464
 6310TIP3   OH240420   0.236   1.967  12.993 -0.1909  0.1828  0.0763
 6310TIP3    H140421   0.173   2.038  13.006  0.6442  1.1536 -0.9428
 6310TIP3    H240422   0.200   1.917  12.919 -0.6462 -0.3328  0.6295
 6311TIP3   OH240423   3.686   2.975   3.740  0.0423  0.1729 -0.1803
 6311TIP3    H140424   3.636   2.903   3.777 -0.9412  1.0574  0.2895
 6311TIP3    H240425   3.624   3.020   3.682  0.9841 -0.0449 -1.4014
 6312TIP3   OH240426   0.816   1.021  13.643  0.2082 -0.3262 -0.7376
 6312TIP3    H140427   0.850   1.094  13.592  1.1637 -0.6801 -0.6339
 6312TIP3    H240428   0.721   1.028  13.635  0.0533  2.8531  1.9313
 6313TIP3   OH240429   0.427   5.446  16.186  0.4913  0.7749 -0.2541
 6313TIP3    H140430   0.488   5.515  16.212  2.0750 -0.4280 -0.6245
 6313TIP3    H240431   0.364   5.490  16.130  2.4734  1.6457 -1.9176
 6314TIP3   OH240432   6.206   3.643   1.195 -0.4173  0.1550  0.0560
 6314TIP3    H140433   6.115   3.643   1.225 -0.1459 -1.3425  0.9861
 6314TIP3    H240434   6.252   3.586   1.257  1.0830  0.5573 -0.6311
 6315TIP3   OH240435   0.116   5.066   5.853  0.0533 -0.2771 -0.1952
 6315TIP3    H140436   0.066   5.061   5.772  0.0155  0.4746 -0.2206
 6315TIP3    H240437   0.054   5.101   5.918  0.5635  0.7404 -0.2479
 6316TIP3   OH240438   5.852   2.605   2.861  0.1213  0.2737 -0.0311
 6316TIP3    H140439   5.905   2.559   2.796 -1.1811 -1.4096  0.0460
 6316TIP3    H240440   5.841   2.542   2.932 -1.7619  0.6508  0.0623
 6317TIP3   OH240441   0.192   2.806  10.295 -0.7880  0.2675 -0.1995
 6317TIP3    H140442   0.220   2.836  10.209 -0.7298 -0.4437 -0.4373
 6317TIP3    H240443   0.163   2.716  10.280  1.3077 -0.6579  0.9147
 6318TIP3   OH240444   0.688   4.481  17.061 -0.4141  0.1785 -0.1329
 6318TIP3    H140445   0.711   4.526  16.980  1.0134  1.0953  0.7253
 6318TIP3    H240446   0.751   4.410  17.068  0.3558  0.9152  0.7921
 6319TIP3   OH240447   6.618   1.255   5.687  0.2072 -0.0653  0.0922
 6319TIP3    H140448   6.641   1.207   5.608 -0.2432 -0.9548  0.4892
 6319TIP3    H240449   6.668   1.212   5.757  3.0793  2.6279 -0.0775
 6320TIP3   OH240450   2.463   5.287   0.352 -0.4291 -0.0943 -0.1723
 6320TIP3    H140451   2.550   5.327   0.342 -0.2003 -0.8504 -1.3647
 6320TIP3    H240452   2.455   5.228   0.278 -1.7017 -0.5501  0.3019
 6321TIP3   OH240453   5.875   5.232  12.320 -0.3193 -0.2596 -0.3413
 6321TIP3    H140454   5.851   5.255  12.230 -0.6260  2.0653  0.2834
 6321TIP3    H240455   5.795   5.247  12.370 -0.1001 -1.3735  0.3807
 6322TIP3   OH240456   1.972   6.118   1.169 -0.1200  0.3833 -0.4302
 6322TIP3    H140457   1.901   6.132   1.107  1.3935 -0.7805 -2.5384
 6322TIP3    H240458   1.985   6.203   1.210 -1.2821  1.1593 -1.5966
 6323TIP3   OH240459   2.061   3.029   2.987 -0.0221 -0.3729 -0.2911
 6323TIP3    H140460   2.035   2.968   2.918 -0.6760 -1.3152  0.7597
 6323TIP3    H240461   2.110   3.098   2.941 -1.8717 -0.0677 -1.9493
 6324TIP3   OH240462   0.917   4.306  12.240  0.4652 -0.0746  0.2023
 6324TIP3    H140463   0.879   4.387  12.205  1.6910  0.6865  0.5580
 6324TIP3    H240464   0.870   4.291  12.322  0.6733  0.6632  0.4682
 6325TIP3   OH240465   2.394   2.011  14.432 -0.3923  0.5489 -0.6750
 6325TIP3    H140466   2.339   2.011  14.511  0.4786 -0.0024 -0.0493
 6325TIP3    H240467   2.399   2.103  14.407 -0.8805  0.7054 -0.2298
 6326TIP3   OH240468   5.733   3.917  15.955  0.1339  0.2424 -0.1585
 6326TIP3    H140469   5.661   3.967  15.914  0.0857 -0.5715 -1.0964
 6326TIP3    H240470   5.689   3.848  16.004  0.2482  0.3168  0.0498
 6327TIP3   OH240471   6.477   6.620  12.696 -0.2774  0.2484 -0.0691
 6327TIP3    H140472   6.538   6.557  12.658 -0.2099  1.0301 -1.2949
 6327TIP3    H240473   6.479   6.601  12.790  0.5378 -0.8679 -0.2880
 6328TIP3   OH240474   1.342   5.551  17.131 -0.0610 -0.2420 -0.5803
 6328TIP3    H140475   1.282   5.506  17.072 -0.5759  0.2560 -0.4421
 6328TIP3    H240476   1.338   5.500  17.213  3.0746 -2.9144 -1.8394
 6329TIP3   OH240477   2.350   2.373  13.638 -0.0982  0.1588 -0.2914
 6329TIP3    H140478   2.277   2.312  13.629 -0.6980  0.9964 -1.1860
 6329TIP3    H240479   2.354   2.420  13.555  0.8360  0.8220  0.1041
 6330TIP3   OH240480   5.135   5.140   0.364 -0.3883  0.0628  0.6218
 6330TIP3    H140481   5.136   5.236   0.371  0.1050  0.0240  1.1974
 6330TIP3    H240482   5.124   5.123   0.271 -0.5877  0.6783  0.5242
 6331TIP3   OH240483   2.384   5.213   1.113  0.2738  0.3028 -0.2438
 6331TIP3    H140484   2.303   5.174   1.147 -0.5520  1.6623 -0.5601
 6331TIP3    H240485   2.421   5.146   1.057  0.2765 -0.9854  1.2359
 6332TIP3   OH240486   4.151   3.747   1.134  0.1872  0.3252  0.0849
 6332TIP3    H140487   4.142   3.824   1.077  0.7903 -0.0265 -0.5061
 6332TIP3    H240488   4.239   3.753   1.170 -0.7133  1.3921  2.2995
 6333TIP3   OH240489   2.765   3.980  10.844 -0.0585  0.2633 -0.3903
 6333TIP3    H140490   2.713   4.054  10.875  0.2397  0.2769  0.0846
 6333TIP3    H240491   2.764   3.989  10.748 -1.0268  0.1920 -0.4011
 6334TIP3   OH240492   0.187   5.773   0.591 -1.0066 -0.4443  0.2936
 6334TIP3    H140493   0.243   5.705   0.628 -1.5248 -0.9165  0.2013
 6334TIP3    H240494   0.186   5.841   0.659  2.0146  0.9035 -0.8222
 6335TIP3   OH240495   5.395   6.140   1.424 -0.3063  0.5128 -0.3128
 6335TIP3    H140496   5.428   6.050   1.429  0.5071  0.8579  2.5625
 6335TIP3    H240497   5.450   6.182   1.358  0.8305 -0.5664 -0.1058
 6336TIP3   OH240498   6.468   4.341  17.025  0.2085  0.0418 -0.1085
 6336TIP3    H140499   6.477   4.276  16.955 -0.2793  0.3877 -0.4979
 6336TIP3    H240500   6.558   4.357  17.055  0.8292  2.2261 -2.7988
 6337TIP3   OH240501   6.029   5.504   3.353 -0.1035  0.4188  0.4631
 6337TIP3    H140502   6.043   5.529   3.262 -1.7424 -1.8089 -0.5071
 6337TIP3    H240503   5.935   5.484   3.358  0.4305 -2.2488  1.8184
 6338TIP3   OH240504   4.202   6.508   2.981 -0.0243  0.0070 -0.0396
 6338TIP3    H140505   4.123   6.522   3.033  0.2853 -1.6101  0.9463
 6338TIP3    H240506   4.180   6.540   2.894 -1.2071  1.0533  0.6200
 6339TIP3   OH240507   0.572   3.525  13.572  0.4507 -0.1855  0.0631
 6339TIP3    H140508   0.478   3.541  13.560  0.9211  2.2807 -0.8032
 6339TIP3    H240509   0.591   3.450  13.516 -0.5978  0.7068 -1.5626
 6340TIP3   OH240510   2.110   3.097  15.496  0.4919  0.3617  0.2542
 6340TIP3    H140511   2.122   3.009  15.460  1.6638  0.9902 -1.0156
 6340TIP3    H240512   2.018   3.101  15.520 -0.5341 -0.0536 -3.0417
 6341TIP3   OH240513   3.962   4.894  11.714  0.2271  0.0631 -0.5732
 6341TIP3    H140514   3.963   4.854  11.627 -1.3828 -1.4480  0.0311
 6341TIP3    H240515   4.017   4.836  11.767 -1.2122 -0.7746  0.0562
 6342TIP3   OH240516   0.172   5.525  13.441  0.1297  0.0721 -0.2448
 6342TIP3    H140517   0.163   5.540  13.535 -1.0466  0.1646 -0.3543
 6342TIP3    H240518   0.100   5.574  13.402  1.8379  1.8543 -1.3956
 6343TIP3   OH240519   0.072   2.414  15.368 -0.1346  0.9868 -0.4938
 6343TIP3    H140520   0.015   2.384  15.297  0.7814 -1.2991 -0.3250
 6343TIP3    H240521   0.078   2.339  15.427  0.1614  2.4078  1.3745
 6344TIP3   OH240522   0.686   6.232   1.238  0.0806 -0.1011 -0.5045
 6344TIP3    H140523   0.769   6.193   1.264  0.3746  0.6476 -0.2819
 6344TIP3    H240524   0.696   6.251   1.145 -1.2062 -3.3719 -1.4445
 6345TIP3   OH240525   2.273   5.462   0.463 -0.6160 -0.1332  0.1092
 6345TIP3    H140526   2.206   5.498   0.405 -0.8964 -0.9841 -0.1128
 6345TIP3    H240527   2.340   5.428   0.404  1.1697  2.7225  0.3313
 6346TIP3   OH240528   4.075   0.458   5.011  0.7493  0.2295 -0.2815
 6346TIP3    H140529   4.153   0.448   5.065  0.5622  0.4863  0.0383
 6346TIP3    H240530   4.099   0.418   4.927  1.0114 -0.2423  0.0156
 6347TIP3   OH240531   1.468   3.018   0.871 -0.0006 -0.1476  0.1464
 6347TIP3    H140532   1.385   3.032   0.826  0.1580  0.6416  0.0741
 6347TIP3    H240533   1.466   2.926   0.898 -0.0330 -0.6953 -1.6011
 6348TIP3   OH240534   0.210   0.227  13.827 -0.7407  0.0381  0.4997
 6348TIP3    H140535   0.227   0.193  13.914 -1.4949 -1.1025  0.2251
 6348TIP3    H240536   0.267   0.303  13.819  1.5292 -1.5266  0.8873
 6349TIP3   OH240537   5.047   3.211   4.333 -0.2537  0.2742  0.1206
 6349TIP3    H140538   5.006   3.297   4.339  0.3389  0.6052 -0.5288
 6349TIP3    H240539   5.123   3.215   4.392  1.1226  0.9842 -1.6448
 6350TIP3   OH240540   6.176   2.590   6.278 -0.4357  0.2364 -0.7467
 6350TIP3    H140541   6.201   2.682   6.292  1.2603 -0.4692  1.3531
 6350TIP3    H240542   6.103   2.595   6.216  1.0623  2.8664 -2.5162
 6351TIP3   OH240543   0.441   1.125   0.021  0.1610  0.0209  0.1105
 6351TIP3    H140544   0.426   1.163  -0.065 -0.7700 -0.2085  0.1670
 6351TIP3    H240545   0.519   1.171   0.054 -0.4060  1.2314 -0.1909
 6352TIP3   OH240546   0.162   5.254  16.692  0.1782 -0.2639  0.4951
 6352TIP3    H140547   0.219   5.177  16.689  0.4065 -0.0744 -0.1633
 6352TIP3    H240548   0.175   5.297  16.608 -0.3108  0.2385  0.6698
 6353TIP3   OH240549   1.147   4.056   5.345 -0.5400 -0.4539  0.1007
 6353TIP3    H140550   1.203   3.980   5.363 -0.9815 -0.5853  0.9505
 6353TIP3    H240551   1.204   4.117   5.298 -0.0935 -1.1763 -0.3217
 6354TIP3   OH240552   1.456   1.590  13.897 -0.3749  0.1105 -0.5008
 6354TIP3    H140553   1.423   1.675  13.868  0.3389  0.7200  0.4119
 6354TIP3    H240554   1.463   1.537  13.817 -1.5269  0.6584 -0.9758
 6355TIP3   OH240555   1.979   0.893  15.096 -0.0996  0.0933 -0.2420
 6355TIP3    H140556   1.953   0.977  15.058 -1.3514 -0.8533 -1.5864
 6355TIP3    H240557   2.070   0.881  15.067  0.0579  0.9296 -0.1120
 6356TIP3   OH240558   3.551   4.904   2.893 -0.0137  0.4933  0.2255
 6356TIP3    H140559   3.626   4.960   2.872  0.9807 -0.9365 -0.1908
 6356TIP3    H240560   3.551   4.838   2.824 -2.9486  1.6163 -0.9945
 6357TIP3   OH240561   2.044   0.333  15.893  0.4799  0.2311  0.6242
 6357TIP3    H140562   2.059   0.342  15.799  1.7333 -0.1858  0.7563
 6357TIP3    H240563   2.116   0.276  15.923 -0.8936 -1.1054  1.5421
 6358TIP3   OH240564   1.088   5.874  11.625  0.3181  0.6941  0.5697
 6358TIP3    H140565   1.005   5.850  11.666  0.4753 -1.2003 -0.1312
 6358TIP3    H240566   1.064   5.932  11.553 -0.4930 -0.4935 -0.1318
 6359TIP3   OH240567   2.040   3.417  13.943  0.2683  0.4542 -0.3155
 6359TIP3    H140568   1.963   3.467  13.969 -0.1738 -0.8080  0.9122
 6359TIP3    H240569   2.015   3.372  13.863 -0.2935  0.0501  0.0784
 6360TIP3   OH240570   0.231   0.444   4.927  0.3936  0.4275 -0.0900
 6360TIP3    H140571   0.206   0.370   4.873  0.0767  0.1402  0.4458
 6360TIP3    H240572   0.157   0.458   4.985 -0.2952  2.2593 -1.3118
 6361TIP3   OH240573   3.965   2.163  14.395  0.2486 -0.2275 -0.3370
 6361TIP3    H140574   3.897   2.156  14.328  0.1252 -0.6528 -0.1675
 6361TIP3    H240575   3.923   2.135  14.476  0.3636  0.4073 -0.0512
 6362TIP3   OH240576   0.675   6.646  11.291  0.0157  0.1454  0.3896
 6362TIP3    H140577   0.703   6.616  11.205  0.8745  0.2150  0.6299
 6362TIP3    H240578   0.651   6.567  11.338  1.7455 -0.1495  0.8385
 6363TIP3   OH240579   5.690   1.701  15.022 -0.2373 -0.3997 -0.0861
 6363TIP3    H140580   5.758   1.634  15.020  0.4241  0.1588  1.8542
 6363TIP3    H240581   5.701   1.745  15.106 -2.0920  0.6663 -0.3331
 6364TIP3   OH240582   5.217   2.607  13.360 -0.9622  0.2206 -0.0904
 6364TIP3    H140583   5.272   2.539  13.322 -0.6598 -0.4837  1.5343
 6364TIP3    H240584   5.279   2.669  13.399 -1.2190  1.6040 -1.7421
 6365TIP3   OH240585   1.282   3.713  15.747 -0.0914 -0.5402 -0.3636
 6365TIP3    H140586   1.188   3.712  15.730 -0.0579 -1.1885 -0.5331
 6365TIP3    H240587   1.289   3.724  15.842 -0.2974  1.2778 -0.5136
 6366TIP3   OH240588   3.369   4.102  16.312 -0.1344 -0.0587  0.1892
 6366TIP3    H140589   3.379   4.149  16.394  1.6805  1.1824 -0.6902
 6366TIP3    H240590   3.423   4.023  16.322  1.6375  1.0259 -0.4482
 6367TIP3   OH240591   5.925   2.676  16.468 -0.3080 -0.6443 -0.0464
 6367TIP3    H140592   5.898   2.762  16.502 -1.1478 -1.2387  0.8316
 6367TIP3    H240593   5.910   2.616  16.541 -1.2553 -1.8128 -1.1774
 6368TIP3   OH240594   0.260   5.405   4.131 -0.2141 -0.5148  0.2784
 6368TIP3    H140595   0.221   5.333   4.181 -1.7022 -0.5014 -0.8130
 6368TIP3    H240596   0.199   5.420   4.059  2.0832 -0.8868 -1.8869
 6369TIP3   OH240597   0.371   6.316  13.797 -0.2939 -0.0851  0.2363
 6369TIP3    H140598   0.406   6.401  13.825 -1.1067  0.6301 -0.8722
 6369TIP3    H240599   0.298   6.299  13.857 -0.3022  0.1266  0.2865
 6370TIP3   OH240600   1.502   5.044  12.101  0.2130  0.9847 -0.2231
 6370TIP3    H140601   1.434   5.027  12.035 -0.9336  1.2375  0.8459
 6370TIP3    H240602   1.485   5.133  12.130 -0.6799  0.2172  1.8873
 6371TIP3   OH240603   5.712   4.856  16.120  0.2156  0.0337  0.4849
 6371TIP3    H140604   5.706   4.841  16.025 -0.6280 -1.3779  0.7175
 6371TIP3    H240605   5.624   4.835  16.152  0.4048  0.8174  1.5485
 6372TIP3   OH240606   2.977   4.387   6.503 -0.2551 -0.6427  0.1158
 6372TIP3    H140607   2.891   4.404   6.543 -0.4045 -0.1721 -0.3880
 6372TIP3    H240608   3.036   4.375   6.578 -0.0256  2.5619  0.6194
 6373TIP3   OH240609   1.146   3.970  16.005  0.2550  0.1069 -0.4879
 6373TIP3    H140610   1.080   4.038  15.994 -1.0834 -1.2515 -1.1513
 6373TIP3    H240611   1.212   3.990  15.938  0.8459  1.7710  0.5217
 6374TIP3   OH240612   1.799   5.233   4.676 -0.1995 -0.3754 -0.1181
 6374TIP3    H140613   1.826   5.321   4.650  1.1355 -0.7787 -0.1832
 6374TIP3    H240614   1.791   5.185   4.594 -0.4418 -0.4492 -0.0514
 6375TIP3   OH240615   2.440   2.445   2.274  0.1037 -0.3052  0.1124
 6375TIP3    H140616   2.365   2.448   2.333  0.1967  1.0365  0.1882
 6375TIP3    H240617   2.413   2.383   2.205 -0.5906 -0.7394  0.7555
 6376TIP3   OH240618   4.060   0.002  11.809 -0.1480  0.3644  0.1525
 6376TIP3    H140619   3.977   0.049  11.821 -0.0245  0.2896  1.4025
 6376TIP3    H240620   4.097   0.040  11.729 -0.6775  1.4517  0.3979
 6377TIP3   OH240621   5.984   4.666  11.977  0.5328  0.1476 -0.1087
 6377TIP3    H140622   5.998   4.728  11.906  0.7884  0.4576  0.2068
 6377TIP3    H240623   5.914   4.608  11.946  0.3168  0.5738 -0.4163
 6378TIP3   OH240624   6.493   5.699  15.095  0.8941 -0.1081  0.0053
 6378TIP3    H140625   6.423   5.762  15.114  1.0269 -0.4112  1.6636
 6378TIP3    H240626   6.516   5.716  15.004 -1.7230 -0.3862 -0.8018
 6379TIP3   OH240627   2.007   0.622  15.229 -0.2662  0.4358 -0.5023
 6379TIP3    H140628   2.026   0.711  15.201 -0.8941  1.0788  1.0103
 6379TIP3    H240629   2.076   0.602  15.293 -1.4822  0.7807  0.9806
 6380TIP3   OH240630   6.687   4.749  14.355 -0.6195 -0.0903  0.1163
 6380TIP3    H140631   6.608   4.696  14.348 -0.9747  0.2789  1.1126
 6380TIP3    H240632   6.720   4.731  14.442 -0.7511  1.3061  0.4767
 6381TIP3   OH240633   4.648   4.031  14.844  0.0870 -0.3758 -0.1734
 6381TIP3    H140634   4.582   4.056  14.779 -0.5023 -2.6770 -0.5387
 6381TIP3    H240635   4.715   3.984  14.794 -0.0048 -1.5256  0.7426
 6382TIP3   OH240636   4.509   1.795  11.208 -0.4213 -0.7791 -0.4775
 6382TIP3    H140637   4.542   1.786  11.297 -1.2115 -0.1727 -0.1124
 6382TIP3    H240638   4.587   1.793  11.153 -0.0101 -2.4978  0.1050
 6383TIP3   OH240639   4.431   6.634   4.607 -0.3469  0.4630 -0.4829
 6383TIP3    H140640   4.402   6.567   4.545 -0.5672  1.0697 -1.0511
 6383TIP3    H240641   4.526   6.636   4.597 -0.1473 -0.9401  0.7742
 6384TIP3   OH240642   2.758   1.653   2.748  0.9325  0.0461 -0.1436
 6384TIP3    H140643   2.839   1.699   2.770  0.1438  1.4178 -0.0255
 6384TIP3    H240644   2.756   1.652   2.652  0.9103  0.3215 -0.1454
 6385TIP3   OH240645   1.234   5.251   5.963 -0.1297 -0.4905 -0.1386
 6385TIP3    H140646   1.162   5.277   6.020 -0.2728 -0.2192 -0.4400
 6385TIP3    H240647   1.289   5.196   6.018  0.8692  1.4533  0.8906
 6386TIP3   OH240648   6.355   0.185   5.327 -0.1546  0.5590  0.3898
 6386TIP3    H140649   6.291   0.238   5.374  2.5498  4.0877  0.5613
 6386TIP3    H240650   6.357   0.222   5.239  1.8019  0.8544  0.5017
 6387TIP3   OH240651   5.913   3.437   0.455  0.0512 -0.2715  0.2919
 6387TIP3    H140652   5.836   3.449   0.398  0.6138  1.3404 -0.1808
 6387TIP3    H240653   5.982   3.409   0.395  0.3029  0.1386  0.3845
 6388TIP3   OH240654   1.963   5.780   1.904 -0.0424  0.4390 -0.3529
 6388TIP3    H140655   2.012   5.717   1.852  0.7962  0.4615  0.3861
 6388TIP3    H240656   1.948   5.853   1.844 -1.2977 -0.5652 -1.3108
 6389TIP3   OH240657   0.428   6.510   0.834  0.3345  0.1625  0.6153
 6389TIP3    H140658   0.352   6.553   0.873 -0.2035  0.9791 -1.2392
 6389TIP3    H240659   0.437   6.428   0.883 -3.0593 -1.0069 -0.3787
 6390TIP3   OH240660   6.582   4.766  11.000  0.3230  0.3213  0.3796
 6390TIP3    H140661   6.582   4.670  10.998  0.7434  0.3267 -0.3625
 6390TIP3    H240662   6.512   4.790  10.939 -0.9862  0.4881  1.8995
 6391TIP3   OH240663   0.977   2.481   4.140  0.4623  0.2669 -0.3094
 6391TIP3    H140664   0.917   2.520   4.203  2.1834  0.9335  1.0129
 6391TIP3    H240665   0.962   2.529   4.059  0.4954  1.7028  0.5109
 6392TIP3   OH240666   3.001   3.998   1.874  0.3291 -0.7362  0.2386
 6392TIP3    H140667   3.072   4.056   1.903  0.6983 -0.6658 -0.7685
 6392TIP3    H240668   2.932   4.058   1.845  0.3026 -0.8016  0.1668
 6393TIP3   OH240669   0.644   5.687   1.960  0.6892 -0.0730  0.4117
 6393TIP3    H140670   0.737   5.700   1.978  0.6579  1.0758 -0.1636
 6393TIP3    H240671   0.600   5.751   2.015  0.3934  1.0046 -1.0293
 6394TIP3   OH240672   2.467   5.550  12.848  0.2793  0.2269 -0.7926
 6394TIP3    H140673   2.501   5.639  12.860  1.1685 -0.0309 -1.3409
 6394TIP3    H240674   2.520   5.513  12.778 -0.5381 -0.5099 -1.0363
 6395TIP3   OH240675   5.581   0.584   1.562 -0.0289 -0.9572 -0.4104
 6395TIP3    H140676   5.656   0.611   1.615  0.0771  1.0951 -1.5194
 6395TIP3    H240677   5.506   0.627   1.602 -0.2679 -1.1554 -0.6412
 6396TIP3   OH240678   2.040   2.722   0.468  0.0791  0.3485  0.2071
 6396TIP3    H140679   2.129   2.724   0.431  0.8692 -1.4512  1.7963
 6396TIP3    H240680   1.983   2.717   0.392  1.3038  1.7638 -0.8716
 6397TIP3   OH240681   0.821   1.920  11.781 -0.2324 -0.6210 -0.5451
 6397TIP3    H140682   0.894   1.862  11.760  0.3490 -0.0722 -0.0627
 6397TIP3    H240683   0.817   1.920  11.876 -1.1325 -0.9683 -0.5758
 6398TIP3   OH240684   4.351   1.133  11.878  0.0261  0.3511 -0.3592
 6398TIP3    H140685   4.329   1.071  11.809 -0.4864  1.0730 -0.8621
 6398TIP3    H240686   4.357   1.080  11.958  1.7016 -0.6619 -1.1178
 6399TIP3   OH240687   3.675   0.053  13.446  0.1202 -1.1675  0.0792
 6399TIP3    H140688   3.583   0.029  13.444 -0.0874 -0.4524 -2.1926
 6399TIP3    H240689   3.721  -0.028  13.467 -0.9633 -1.8766 -0.2065
 6400TIP3   OH240690   1.749   1.163   1.973 -0.7405  0.1263  0.1800
 6400TIP3    H140691   1.832   1.117   1.965  0.0580  1.5302 -0.0619
 6400TIP3    H240692   1.772   1.255   1.961 -2.4805  0.4681 -0.8847
 6401TIP3   OH240693   4.360   4.907  14.619  0.3917 -0.0324  0.2096
 6401TIP3    H140694   4.323   4.958  14.691 -1.6822 -1.3967  0.1821
 6401TIP3    H240695   4.409   4.837  14.662 -0.8365 -0.8392  0.3458
 6402TIP3   OH240696   5.407   4.695   5.199 -0.3444 -0.1745 -0.4566
 6402TIP3    H140697   5.473   4.665   5.261 -1.7138  1.4043  1.9348
 6402TIP3    H240698   5.357   4.616   5.178 -0.2784 -0.6538  1.0610
 6403TIP3   OH240699   3.762   6.182   5.134 -0.6135  0.5934  0.1425
 6403TIP3    H140700   3.797   6.226   5.212 -1.3302  0.4130  0.5685
 6403TIP3    H240701   3.779   6.243   5.063 -0.7305  1.1403  0.5763
 6404TIP3   OH240702   0.054   0.148  14.060 -0.8583  0.0919 -0.1332
 6404TIP3    H140703   0.005   0.217  14.015  1.9305  0.3699 -3.1779
 6404TIP3    H240704   0.068   0.082  13.992  2.1015 -0.3789  0.8214
 6405TIP3   OH240705   3.625   4.517  14.040 -0.4665 -0.2505  0.4514
 6405TIP3    H140706   3.650   4.501  14.131 -0.8445  1.7529  0.9479
 6405TIP3    H240707   3.529   4.517  14.041 -0.5099 -1.7644 -0.2818
 6406TIP3   OH240708   2.896   1.337  11.370  1.0281 -0.2208  0.0097
 6406TIP3    H140709   2.918   1.430  11.366  0.1454 -0.0077  0.0119
 6406TIP3    H240710   2.802   1.335  11.386  0.6806 -1.1132 -1.9339
 6407TIP3   OH240711   3.689   5.162   4.344 -0.0097 -0.5167 -0.0384
 6407TIP3    H140712   3.740   5.238   4.319 -1.4615  1.3499  2.2237
 6407TIP3    H240713   3.718   5.141   4.433 -2.3720  0.0059  0.9446
 6408TIP3   OH240714   4.633   6.035  12.009  0.8897  0.8560 -0.0486
 6408TIP3    H140715   4.576   6.112  12.007 -1.7307 -0.6660  3.5476
 6408TIP3    H240716   4.670   6.036  12.098  0.5101 -2.0954  0.2298
 6409TIP3   OH240717   0.927   3.714  11.313  0.7523 -0.3067 -0.2243
 6409TIP3    H140718   1.020   3.696  11.325  0.6284 -0.8393 -0.0151
 6409TIP3    H240719   0.913   3.709  11.218  0.4543 -2.7956 -0.1054
 6410TIP3   OH240720   2.340   6.658  12.876 -0.2302 -0.3138 -0.2493
 6410TIP3    H140721   2.301   6.745  12.885 -1.2781 -0.7250 -0.7126
 6410TIP3    H240722   2.338   6.622  12.965 -0.7465 -0.2587 -0.2353
 6411TIP3   OH240723   5.517   0.894  10.818  0.2791 -0.2108 -0.2394
 6411TIP3    H140724   5.517   0.807  10.778 -0.1881 -0.5746  0.5116
 6411TIP3    H240725   5.427   0.925  10.807 -0.2985 -0.9563  1.7902
 6412TIP3   OH240726   2.820   4.699  16.496  0.7398  0.1353  0.7332
 6412TIP3    H140727   2.838   4.619  16.448  2.6604  0.2009  1.2866
 6412TIP3    H240728   2.780   4.670  16.578 -0.1857 -0.1252  0.2015
 6413TIP3   OH240729   3.510   1.268  12.778  0.2891 -0.3169  0.1566
 6413TIP3    H140730   3.585   1.318  12.810  0.1715 -0.2357  0.3089
 6413TIP3    H240731   3.524   1.260  12.684  1.4579 -1.9065  0.4244
 6414TIP3   OH240732   5.491   4.015   1.477  0.1963 -0.0070  1.0395
 6414TIP3    H140733   5.484   3.961   1.398  1.3369  0.3825  0.6468
 6414TIP3    H240734   5.403   4.013   1.515 -0.2851 -0.5135 -0.0366
 6415TIP3   OH240735   3.558   4.961   1.740 -0.7023 -0.3351 -0.8196
 6415TIP3    H140736   3.611   4.944   1.818 -0.4208  1.7900 -0.4697
 6415TIP3    H240737   3.472   4.923   1.760 -0.4018 -0.4999  0.2099
 6416TIP3   OH240738   4.172   4.373  11.192 -0.2513  0.4844 -0.7225
 6416TIP3    H140739   4.193   4.288  11.230  0.2069  1.1736  0.6338
 6416TIP3    H240740   4.233   4.382  11.119  0.1609 -0.0662 -0.4569
 6417TIP3   OH240741   2.801   4.235   2.388  0.5619  0.9040 -0.4268
 6417TIP3    H140742   2.888   4.213   2.420 -0.6332  0.4135  3.0255
 6417TIP3    H240743   2.767   4.152   2.354  0.7069  0.5567  0.2525
 6418TIP3   OH240744   6.680   0.144  15.598 -0.0712 -0.2115 -0.3985
 6418TIP3    H140745   6.646   0.176  15.515  0.6893  0.8003 -0.3386
 6418TIP3    H240746   6.622   0.183  15.664 -0.5722 -0.8795 -0.4307
 6419TIP3   OH240747   3.846   1.130  11.345 -0.0812 -0.1637  0.8538
 6419TIP3    H140748   3.846   1.221  11.314  0.6676 -0.4111  0.0809
 6419TIP3    H240749   3.859   1.078  11.266  1.6124 -0.8331  1.5305
 6420TIP3   OH240750   1.691   5.891   2.431 -0.1291 -0.1924 -0.1675
 6420TIP3    H140751   1.707   5.882   2.525  3.2388  3.9162 -0.0233
 6420TIP3    H240752   1.775   5.874   2.390 -1.3514 -1.2046 -2.4802
 6421TIP3   OH240753   3.458   0.760   2.346 -0.1729 -0.2584  0.3187
 6421TIP3    H140754   3.446   0.735   2.437 -0.4603  0.2650  0.4262
 6421TIP3    H240755   3.550   0.786   2.340 -0.1188 -0.4248  0.4249
 6422TIP3   OH240756   2.527   6.212   5.865 -0.1307 -0.1206 -0.0521
 6422TIP3    H140757   2.583   6.281   5.829  0.9791  0.2067  2.1637
 6422TIP3    H240758   2.467   6.259   5.923 -0.5840 -0.8401  0.0685
 6423TIP3   OH240759   4.149   0.242  14.407  0.1313 -0.0202 -0.1416
 6423TIP3    H140760   4.081   0.175  14.404  1.7968 -1.7730 -1.0408
 6423TIP3    H240761   4.107   0.317  14.450 -2.5880 -0.7000 -1.3958
 6424TIP3   OH240762   0.073   0.209  14.598 -0.2439 -0.1626  0.0051
 6424TIP3    H140763   0.159   0.168  14.585 -0.1531  0.5923 -2.2706
 6424TIP3    H240764   0.069   0.276  14.530 -1.0921  2.4535  2.4595
 6425TIP3   OH240765   0.144   3.210   4.778 -0.1581 -0.2433 -0.0925
 6425TIP3    H140766   0.144   3.154   4.701  2.0100 -2.7286  1.5326
 6425TIP3    H240767   0.071   3.177   4.831  1.4396 -2.0631  1.1041
 6426TIP3   OH240768   2.266   1.143  16.117  0.3229 -0.4223  0.0884
 6426TIP3    H140769   2.358   1.153  16.095  0.3680 -0.0989  0.4002
 6426TIP3    H240770   2.243   1.226  16.159  0.6068 -1.4949  2.5442
 6427TIP3   OH240771   4.759   5.817   1.925  0.0612 -0.4589 -0.2603
 6427TIP3    H140772   4.800   5.732   1.942  0.7814 -0.2842 -1.0094
 6427TIP3    H240773   4.737   5.814   1.832  0.2929  0.2488 -0.3405
 6428TIP3   OH240774   0.878   2.835   2.590 -0.2516 -0.3789 -0.7822
 6428TIP3    H140775   0.794   2.880   2.578  1.0917  1.9913 -2.0856
 6428TIP3    H240776   0.937   2.878   2.528  1.7223 -2.6199 -0.5942
 6429TIP3   OH240777   0.385   0.540   3.497  0.3500  0.5246  0.2512
 6429TIP3    H140778   0.369   0.587   3.416 -2.3045  0.4175  0.5951
 6429TIP3    H240779   0.438   0.465   3.472  0.1152  0.8364 -1.2569
 6430TIP3   OH240780   1.005   3.293  15.722 -0.1913 -0.2213  0.5569
 6430TIP3    H140781   1.013   3.293  15.817  0.8465 -0.3732  0.4753
 6430TIP3    H240782   0.959   3.375  15.702 -0.9981 -0.4986  1.2211
 6431TIP3   OH240783   3.131   2.133   6.054 -0.3718 -0.1279 -0.1235
 6431TIP3    H140784   3.089   2.127   6.140 -0.9182 -1.7474 -0.4711
 6431TIP3    H240785   3.137   2.042   6.024  2.2142  0.1628 -0.6717
 6432TIP3   OH240786   5.583   1.525   0.219 -0.2362 -0.1416 -0.2989
 6432TIP3    H140787   5.607   1.566   0.302 -0.8744 -1.8271  0.7810
 6432TIP3    H240788   5.598   1.431   0.234  0.1081 -0.4400 -2.2748
 6433TIP3   OH240789   0.755   0.146   4.006 -0.1709 -0.1618  0.6650
 6433TIP3    H140790   0.759   0.143   4.102  0.3065 -0.4254  0.6393
 6433TIP3    H240791   0.839   0.111   3.977 -0.0235  0.5972  0.1486
 6434TIP3   OH240792   2.389   1.907   1.255  0.2159 -0.0151 -0.1177
 6434TIP3    H140793   2.386   1.812   1.239  2.1464  0.1361 -1.6863
 6434TIP3    H240794   2.363   1.946   1.172 -1.3313  0.8993  0.7433
 6435TIP3   OH240795   0.771   5.304  14.336 -0.2769 -0.4579 -0.6147
 6435TIP3    H140796   0.824   5.228  14.311  1.3948  0.8019 -1.1226
 6435TIP3    H240797   0.686   5.268  14.359  0.5005 -2.4884 -0.7313
 6436TIP3   OH240798   2.994   0.050  13.298  0.3568 -0.3000 -0.2523
 6436TIP3    H140799   3.041   0.085  13.223 -1.5749 -0.8977 -1.8151
 6436TIP3    H240800   2.928   0.116  13.319  0.3050 -0.5330  0.3570
 6437TIP3   OH240801   2.210   3.931   2.306  0.4539 -0.0398  0.2329
 6437TIP3    H140802   2.283   3.992   2.316  0.2709  0.1685  0.3031
 6437TIP3    H240803   2.198   3.922   2.212 -1.1013  1.9425  0.1777
 6438TIP3   OH240804   5.348   4.344  10.656 -0.8723  0.0164  0.3335
 6438TIP3    H140805   5.406   4.356  10.580  0.3154 -1.5902  0.9169
 6438TIP3    H240806   5.290   4.420  10.655  0.2886  0.9343 -1.1483
 6439TIP3   OH240807   4.178   0.242  12.519 -0.7031  0.0083 -0.0286
 6439TIP3    H140808   4.156   0.157  12.557 -1.0365  0.2586  0.3498
 6439TIP3    H240809   4.172   0.303  12.593  0.5813  0.1976 -0.0591
 6440TIP3   OH240810   1.290   1.512   3.983  0.6262  0.5629 -0.1459
 6440TIP3    H140811   1.285   1.476   3.894  3.5597 -1.2714  0.2874
 6440TIP3    H240812   1.306   1.605   3.971 -0.8056  0.6646 -1.4826
 6441TIP3   OH240813   6.439   2.267  14.552 -0.0241  0.3631  0.2842
 6441TIP3    H140814   6.393   2.332  14.606  1.1448  1.1810  0.3341
 6441TIP3    H240815   6.531   2.290  14.561  0.3169 -0.5356 -0.7327
 6442TIP3   OH240816   6.687   6.025   1.895  0.1261 -0.3532 -0.3221
 6442TIP3    H140817   6.782   6.035   1.883  0.4590 -1.6504  0.9519
 6442TIP3    H240818   6.652   6.113   1.880  1.5387  0.1672 -0.7342
 6443TIP3   OH240819   4.178   4.916  14.850  0.3696  0.0989 -1.0132
 6443TIP3    H140820   4.173   4.867  14.932 -0.7436  0.1564 -1.0299
 6443TIP3    H240821   4.143   4.857  14.784  1.5546 -0.0638 -1.5245
 6444TIP3   OH240822   1.114   3.872  12.979  0.6913  0.1934  0.0664
 6444TIP3    H140823   1.186   3.932  12.959  1.2924 -0.6995 -0.5269
 6444TIP3    H240824   1.150   3.812  13.044  0.1723  0.3113  0.4716
 6445TIP3   OH240825   4.825   3.632  13.063 -0.4518  0.1579 -0.3199
 6445TIP3    H140826   4.815   3.724  13.087  2.6059  0.3660  0.6341
 6445TIP3    H240827   4.914   3.626  13.029 -0.2878 -2.5820  0.3634
 6446TIP3   OH240828   3.962   0.389   3.801  0.1380 -0.0791 -0.0758
 6446TIP3    H140829   3.957   0.477   3.838 -0.0471  0.0989 -0.5181
 6446TIP3    H240830   3.946   0.401   3.707 -1.3610 -0.7483  0.0695
 6447TIP3   OH240831   0.749   1.020   0.605  0.3816 -0.1636 -0.1104
 6447TIP3    H140832   0.838   0.985   0.608  0.2862 -0.3863  0.1285
 6447TIP3    H240833   0.721   1.006   0.514  0.6265  0.0065 -0.2160
 6448TIP3   OH240834   3.935   0.626  16.284 -0.5215 -0.2101 -0.1301
 6448TIP3    H140835   3.907   0.713  16.311  0.8726  0.3521 -0.4367
 6448TIP3    H240836   3.931   0.574  16.364 -0.0080  0.5002  0.3668
 6449TIP3   OH240837   2.589   1.071   3.861  0.2482  0.0962 -0.0540
 6449TIP3    H140838   2.646   1.030   3.796 -1.8061 -0.3556 -1.6387
 6449TIP3    H240839   2.507   1.086   3.816 -1.8208 -1.5881  2.8168
 6450TIP3   OH240840   1.030   0.062   3.953  0.2702  0.6808  0.4967
 6450TIP3    H140841   1.055   0.150   3.982 -0.7614  1.6511 -1.3572
 6450TIP3    H240842   1.080   0.049   3.873 -0.8543  0.2876 -0.1509
 6451TIP3   OH240843   6.789   2.314   0.581  0.3872 -0.1509  0.0934
 6451TIP3    H140844   6.771   2.260   0.504  1.4920  1.3674 -1.3101
 6451TIP3    H240845   6.705   2.354   0.603  0.2267  0.0158 -0.8115
 6452TIP3   OH240846   3.583   5.923   6.166 -0.7673 -0.0442 -0.0686
 6452TIP3    H140847   3.655   5.986   6.175  0.2505 -0.8760 -1.8309
 6452TIP3    H240848   3.518   5.968   6.111  0.2594 -0.6882 -1.9058
 6453TIP3   OH240849   0.144   6.741   5.298 -0.0708 -0.2658 -0.7197
 6453TIP3    H140850   0.092   6.684   5.242  0.8340 -1.0007 -0.8368
 6453TIP3    H240851   0.089   6.756   5.375 -0.4606 -1.0338 -0.8346
 6454TIP3   OH240852   2.234   0.147  15.577 -0.4200 -0.2936  0.9221
 6454TIP3    H140853   2.321   0.105  15.574 -0.6121 -0.7459  1.4981
 6454TIP3    H240854   2.206   0.150  15.486 -0.1428 -0.8830  0.8124
 6455TIP3   OH240855   1.627   5.270   4.464 -0.1462  0.0086 -0.2968
 6455TIP3    H140856   1.659   5.260   4.374 -0.0949  3.3680 -0.7707
 6455TIP3    H240857   1.551   5.211   4.469 -0.0328 -0.4083 -2.4567
 6456TIP3   OH240858   1.260   5.080   4.183  0.1915  0.1276  0.2041
 6456TIP3    H140859   1.300   5.045   4.262  0.4054  1.1461  0.5610
 6456TIP3    H240860   1.167   5.062   4.192  0.3448 -0.6878  0.1952
 6457TIP3   OH240861   3.434   2.070   4.328 -0.4427  0.5392  0.0982
 6457TIP3    H140862   3.492   2.144   4.348  0.6091 -0.0920 -0.5272
 6457TIP3    H240863   3.489   2.010   4.278 -1.0056 -1.1039  1.3738
 6458TIP3   OH240864   4.843   6.261  13.350 -0.1204 -0.2320  0.5686
 6458TIP3    H140865   4.870   6.333  13.292 -1.5445 -0.0611  0.0527
 6458TIP3    H240866   4.892   6.185  13.319 -0.3509  0.0136 -0.4408
 6459TIP3   OH240867   5.843   5.516   0.602  0.5152 -0.1312 -0.0695
 6459TIP3    H140868   5.799   5.514   0.517  1.6178 -1.3106 -0.6565
 6459TIP3    H240869   5.915   5.453   0.593  0.6542 -0.2915  1.7482
 6460TIP3   OH240870   0.935   6.827   5.698 -0.0221 -0.0145 -0.4288
 6460TIP3    H140871   0.987   6.889   5.749  0.0121 -0.5857  0.2413
 6460TIP3    H240872   0.883   6.780   5.763 -0.5102 -0.2623 -0.9878
 6461TIP3   OH240873   2.441   1.616   1.145  0.2554  0.6622  0.4002
 6461TIP3    H140874   2.504   1.583   1.082  0.3031  0.3053  0.6350
 6461TIP3    H240875   2.356   1.601   1.104  0.2990  0.7309  0.2825
 6462TIP3   OH240876   3.176   4.233   3.492 -0.0504 -0.1934  0.2542
 6462TIP3    H140877   3.100   4.240   3.550 -0.1098 -1.4663  0.3487
 6462TIP3    H240878   3.165   4.149   3.448  0.1873  0.5792 -1.3562
 6463TIP3   OH240879   2.665   3.303   6.129 -0.9621  0.2737 -0.3434
 6463TIP3    H140880   2.723   3.240   6.173  0.8229 -0.1190 -2.9993
 6463TIP3    H240881   2.707   3.388   6.144 -1.1602  0.3261 -0.0836
 6464TIP3   OH240882   3.289   6.716  12.904  0.7781  0.2777  0.0556
 6464TIP3    H140883   3.324   6.640  12.951  0.5958  0.7357  0.9652
 6464TIP3    H240884   3.346   6.726  12.828  0.3799 -1.1889 -0.4671
 6465TIP3   OH240885   4.789   4.300   3.646  0.4180 -0.2933  0.1615
 6465TIP3    H140886   4.840   4.260   3.576 -0.9612 -0.5730 -0.7239
 6465TIP3    H240887   4.778   4.230   3.711  0.4841 -0.4770 -0.0261
 6466TIP3   OH240888   3.625   3.618   5.562  0.4920 -0.2188 -0.2894
 6466TIP3    H140889   3.530   3.631   5.566  0.3636 -0.9079 -0.9691
 6466TIP3    H240890   3.640   3.537   5.612  0.8347  0.3743  0.5940
 6467TIP3   OH240891   6.388   1.912   3.157  0.4438 -0.0173  0.3140
 6467TIP3    H140892   6.384   1.975   3.084 -1.6905  0.4351  0.7367
 6467TIP3    H240893   6.344   1.834   3.122 -1.1380  0.4083  1.2336
 6468TIP3   OH240894   2.340   2.653   3.212  0.5939  0.2393 -0.1017
 6468TIP3    H140895   2.266   2.709   3.238  0.5899 -0.2100  0.9098
 6468TIP3    H240896   2.382   2.630   3.295  0.7459 -1.0464 -0.5181
 6469TIP3   OH240897   0.111   1.372  12.788  0.7399 -0.1309  0.6563
 6469TIP3    H140898   0.190   1.413  12.754 -0.2611  0.7064 -0.7902
 6469TIP3    H240899   0.046   1.442  12.791 -0.1961 -0.9694  0.9609
 6470TIP3   OH240900   1.462   1.674  12.522 -0.3157  0.2315 -0.6095
 6470TIP3    H140901   1.474   1.672  12.617 -0.7428 -1.0091 -0.5631
 6470TIP3    H240902   1.546   1.645  12.487 -0.4538 -0.2380 -0.5659
 6471TIP3   OH240903   3.413   6.641   3.913 -0.0759 -0.3091 -0.2829
 6471TIP3    H140904   3.470   6.589   3.969  0.7478 -0.7328 -1.4758
 6471TIP3    H240905   3.330   6.593   3.911 -0.2053 -0.1430  0.7688
 6472TIP3   OH240906   0.317   4.185  15.386  0.5363 -0.3365  0.3690
 6472TIP3    H140907   0.317   4.121  15.314  1.9957  0.0171  0.0342
 6472TIP3    H240908   0.233   4.170  15.431  0.1078 -1.3373 -0.7091
 6473TIP3   OH240909   4.108   3.084  12.973  0.5056  0.3880  0.0993
 6473TIP3    H140910   4.169   3.105  12.903  1.5796 -0.3278  0.7786
 6473TIP3    H240911   4.033   3.044  12.929  0.8806  0.5408 -0.6887
 6474TIP3   OH240912   2.857   2.786   0.505 -0.4967 -0.1857  0.4447
 6474TIP3    H140913   2.808   2.711   0.472  0.6477 -0.5232 -0.5211
 6474TIP3    H240914   2.891   2.757   0.590 -2.8442  0.4424  1.6943
 6475TIP3   OH240915   5.726   1.453   5.871  0.0654  0.2882  0.2292
 6475TIP3    H140916   5.700   1.464   5.962 -2.4161 -2.5349  0.0111
 6475TIP3    H240917   5.684   1.525   5.824 -3.1060 -1.0628  0.7202
 6476TIP3   OH240918   2.699   2.820  12.039 -0.0433  0.0053 -0.7034
 6476TIP3    H140919   2.788   2.805  12.071 -0.1151 -0.8620 -0.8946
 6476TIP3    H240920   2.670   2.735  12.007 -0.6768  0.4398 -1.3151
 6477TIP3   OH240921   4.247   2.385   2.807  0.1874 -0.2922 -0.1599
 6477TIP3    H140922   4.159   2.423   2.816  0.0512 -0.4440 -0.7514
 6477TIP3    H240923   4.297   2.452   2.760 -0.7670 -1.7492 -3.6082
 6478TIP3   OH240924   0.526   0.227  12.153 -0.1336 -0.5337  0.2642
 6478TIP3    H140925   0.557   0.142  12.185 -1.5090 -1.3220 -0.4278
 6478TIP3    H240926   0.590   0.290  12.188  1.9667 -2.0095 -0.6736
 6479TIP3   OH240927   3.662   1.690   2.841 -0.4787  0.3830  0.9563
 6479TIP3    H140928   3.619   1.743   2.774  0.3434 -0.0208  0.0901
 6479TIP3    H240929   3.648   1.739   2.922 -0.3806  1.5622  0.2916
 6480TIP3   OH240930   2.478   0.154   4.015 -0.0601 -0.2744  0.3686
 6480TIP3    H140931   2.415   0.087   4.040  0.7370  0.0327  3.6634
 6480TIP3    H240932   2.563   0.116   4.036  0.5784  0.8204 -0.1630
 6481TIP3   OH240933   0.569   2.677   4.940  0.1365  0.0443 -0.0035
 6481TIP3    H140934   0.625   2.710   5.011 -0.7400 -0.4479  0.9526
 6481TIP3    H240935   0.611   2.596   4.911  0.5422  0.2890 -0.0919
 6482TIP3   OH240936   0.165   1.992   3.091  0.3611  0.0970  0.0354
 6482TIP3    H140937   0.073   1.977   3.112  0.0487  1.2330 -0.4479
 6482TIP3    H240938   0.199   1.905   3.070 -0.1896 -0.5700  1.7306
 6483TIP3   OH240939   3.270   1.245   5.909  0.2093 -0.1364 -0.0297
 6483TIP3    H140940   3.346   1.238   5.851 -0.7743  1.4757 -1.6299
 6483TIP3    H240941   3.194   1.237   5.850 -0.8543  3.3098  0.6839
 6484TIP3   OH240942   0.952   1.680  11.769 -0.1965  0.3643 -0.6406
 6484TIP3    H140943   1.009   1.697  11.844  0.2568 -1.2578 -0.5737
 6484TIP3    H240944   0.867   1.661  11.808 -0.0664 -0.0504 -0.5504
 6485TIP3   OH240945   2.958   4.275   2.624  0.5773 -0.4635  0.0351
 6485TIP3    H140946   3.018   4.299   2.554  0.2756 -0.6729 -0.3019
 6485TIP3    H240947   2.964   4.348   2.686  2.3795 -1.2321  0.8144
 6486TIP3   OH240948   2.849   5.022  12.662  0.7614  0.2583 -0.3426
 6486TIP3    H140949   2.826   5.067  12.581 -0.5512  0.3182  0.0370
 6486TIP3    H240950   2.827   5.084  12.732  0.0945 -0.4867  0.1309
 6487TIP3   OH240951   5.123   0.152  11.795  0.1550 -0.7765  0.4591
 6487TIP3    H140952   5.211   0.162  11.832  0.4256  0.8167 -0.5136
 6487TIP3    H240953   5.136   0.093  11.720  0.5482  0.0187 -0.1141
 6488TIP3   OH240954   6.832   5.195   3.628 -0.4514  0.8517 -0.0765
 6488TIP3    H140955   6.742   5.227   3.634 -1.6020 -1.7213 -1.8234
 6488TIP3    H240956   6.860   5.220   3.540  0.2794  0.9894  0.1884
 6489TIP3   OH240957   3.678   6.621   4.130 -0.9836  0.2580 -0.3407
 6489TIP3    H140958   3.765   6.637   4.095 -0.5756  0.8896  0.8918
 6489TIP3    H240959   3.676   6.670   4.212 -2.3286 -0.1465 -0.1073
 6490TIP3   OH240960   4.727   5.424  14.401 -0.3495 -0.8508 -0.0270
 6490TIP3    H140961   4.632   5.423  14.392 -0.3372 -0.2439 -0.2911
 6490TIP3    H240962   4.758   5.466  14.320  0.1806 -1.6760 -0.2597
 6491TIP3   OH240963   2.610   4.279  15.692 -0.2442  0.1648  0.4411
 6491TIP3    H140964   2.636   4.195  15.730  0.0040  0.4281  0.8649
 6491TIP3    H240965   2.626   4.270  15.598 -2.3127 -1.0438  0.1506
 6492TIP3   OH240966   0.183   5.303   1.803  0.0410 -0.6185  0.5202
 6492TIP3    H140967   0.092   5.330   1.820  0.0129 -0.1779 -0.3222
 6492TIP3    H240968   0.196   5.228   1.861  0.1170  1.1217  2.9257
 6493TIP3   OH240969   1.911   2.832   3.101  0.1360  0.4700 -0.0810
 6493TIP3    H140970   1.939   2.903   3.045  0.2517  1.7361  1.4976
 6493TIP3    H240971   1.962   2.756   3.072  0.7921  1.2884 -1.1099
 6494TIP3   OH240972   1.963   2.865   5.974 -0.1846 -0.0561 -0.2734
 6494TIP3    H140973   1.894   2.799   5.985 -0.5437 -0.3314 -3.3468
 6494TIP3    H240974   1.952   2.923   6.049 -3.0801 -0.7109 -0.0718
 6495TIP3   OH240975   4.401   5.593   4.523  0.1352  0.3765  0.3406
 6495TIP3    H140976   4.352   5.650   4.463 -0.3807 -0.7787 -0.3538
 6495TIP3    H240977   4.388   5.505   4.489 -1.2665 -0.4988  2.8703
 6496TIP3   OH240978   1.398   0.094  12.967 -0.2034 -0.2059  0.4382
 6496TIP3    H140979   1.407   0.162  12.899  0.5198 -1.1195 -0.4048
 6496TIP3    H240980   1.482   0.095  13.013 -0.4047 -0.1434  0.8082
 6497TIP3   OH240981   4.715   2.192  14.205  0.0252 -0.7087 -0.4935
 6497TIP3    H140982   4.748   2.246  14.133  0.1540  0.8116  0.6594
 6497TIP3    H240983   4.628   2.164  14.176 -0.1616  0.3718 -1.0138
 6498TIP3   OH240984   1.397   5.066  14.190  0.2670  0.3000 -0.5208
 6498TIP3    H140985   1.310   5.043  14.158  0.9203  1.5191 -3.5086
 6498TIP3    H240986   1.447   4.984  14.188  0.1746  0.2501 -2.4856
 6499TIP3   OH240987   1.957   1.111  14.177  0.9131  0.1088  0.1376
 6499TIP3    H140988   1.973   1.099  14.270 -0.0608  0.9947  0.4406
 6499TIP3    H240989   1.905   1.035  14.151  1.2777 -0.1930  0.2812
 6500TIP3   OH240990   3.270   5.279   4.916  0.1830  0.2705 -0.6274
 6500TIP3    H140991   3.331   5.306   4.985  0.6416 -1.3856 -0.3342
 6500TIP3    H240992   3.184   5.286   4.957  0.4194 -0.2961 -0.0054
 6501TIP3   OH240993   1.639   3.889  12.466  0.2213 -0.2406  0.1794
 6501TIP3    H140994   1.691   3.910  12.544  0.4014 -0.8718  0.2302
 6501TIP3    H240995   1.663   3.799  12.444  0.5542  0.1009 -0.9133
 6502TIP3   OH240996   4.831   0.428  15.048 -0.3258  0.2226  0.0064
 6502TIP3    H140997   4.842   0.521  15.025  0.5009 -0.4255 -2.5110
 6502TIP3    H240998   4.909   0.385  15.013 -0.0565 -1.2926  2.2781
 6503TIP3   OH240999   5.453   1.518  12.216  0.4871  0.4049 -0.1358
 6503TIP3    H141000   5.456   1.450  12.284 -0.1417 -2.1051 -2.4327
 6503TIP3    H241001   5.515   1.488  12.150 -1.2725  0.9605 -2.1529
 6504TIP3   OH241002   3.943   3.570  11.475 -0.5589 -0.1301 -0.0761
 6504TIP3    H141003   3.909   3.492  11.431  0.3704 -0.2040 -0.6747
 6504TIP3    H241004   4.021   3.540  11.521 -2.1058 -0.3244  2.6445
 6505TIP3   OH241005   5.474   2.420   1.976  0.6659  0.6741 -0.0502
 6505TIP3    H141006   5.462   2.515   1.981 -1.7863  0.4533 -0.4847
 6505TIP3    H241007   5.519   2.406   1.892 -1.2257  1.3399 -1.2410
 6506TIP3   OH241008   3.309   3.694  12.875  0.6469 -0.0883 -0.6579
 6506TIP3    H141009   3.243   3.691  12.945  0.8206  0.2523 -0.4760
 6506TIP3    H241010   3.392   3.708  12.921  0.8654 -0.6204 -0.8783
 6507TIP3   OH241011   4.621   4.514  13.113  0.2131 -0.0883  0.0656
 6507TIP3    H141012   4.708   4.508  13.073  0.7675  0.6851  1.0895
 6507TIP3    H241013   4.638   4.512  13.207 -0.9555 -0.6733  0.2802
 6508TIP3   OH241014   3.196   3.095  14.013 -0.0719  0.6239  0.1586
 6508TIP3    H141015   3.102   3.086  14.002  0.0927 -0.3531 -0.6867
 6508TIP3    H241016   3.232   3.077  13.926  0.9888 -0.8368  0.8429
 6509TIP3   OH241017   5.933   3.416   1.239 -0.6019  0.4522 -0.2350
 6509TIP3    H141018   6.021   3.379   1.227 -0.5220  0.2943  0.6997
 6509TIP3    H241019   5.907   3.446   1.152 -0.3012 -0.9787 -0.8426
 6510TIP3   OH241020   4.349   4.976  13.741 -0.1916 -0.4483 -0.1549
 6510TIP3    H141021   4.379   4.983  13.650 -0.1401 -0.0845 -0.1095
 6510TIP3    H241022   4.254   4.968  13.735 -0.1547 -0.8576 -0.2606
 6511TIP3   OH241023   2.750   3.333  15.084  0.5326 -0.5780 -0.4448
 6511TIP3    H141024   2.723   3.339  14.992  0.6353 -0.2479 -0.4572
 6511TIP3    H241025   2.814   3.404  15.094 -1.5431  1.3082  0.6014
 6512TIP3   OH241026   1.735   3.634   0.816  0.2895 -0.0100 -0.4155
 6512TIP3    H141027   1.691   3.688   0.750  1.4996 -0.6796 -1.8344
 6512TIP3    H241028   1.825   3.627   0.785  1.2394  0.6768  2.0028
 6513TIP3   OH241029   0.555   1.784   2.979  0.0543 -0.4982  0.1033
 6513TIP3    H141030   0.619   1.743   2.921  0.5570  0.4993 -0.0737
 6513TIP3    H241031   0.583   1.876   2.984  0.5558 -0.7426  2.6600
 6514TIP3   OH241032   1.571   6.213  15.570  0.3613  0.2040  0.4910
 6514TIP3    H141033   1.574   6.239  15.663  2.2832 -1.4824  0.9651
 6514TIP3    H241034   1.643   6.151  15.560 -0.6769 -0.7349 -1.8308
 6515TIP3   OH241035   3.476   5.278   2.721 -0.2202 -0.7073  0.0663
 6515TIP3    H141036   3.547   5.274   2.657 -0.3021 -3.4606  0.0107
 6515TIP3    H241037   3.495   5.356   2.773 -0.7743  2.3321 -3.8366
 6516TIP3   OH241038   4.958   6.455   4.610 -0.1984  0.4339 -0.1581
 6516TIP3    H141039   4.924   6.499   4.532  2.6867  1.4566 -0.9826
 6516TIP3    H241040   4.979   6.526   4.671 -1.4270 -0.2923  1.1744
 6517TIP3   OH241041   4.412   4.049   1.133 -0.3933 -0.1233 -0.1346
 6517TIP3    H141042   4.436   4.107   1.206  0.9101  0.2546 -0.8231
 6517TIP3    H241043   4.375   3.971   1.175 -0.4985  0.4647  0.8867
 6518TIP3   OH241044   0.202   5.751  12.646  0.0616 -0.2640  0.0346
 6518TIP3    H141045   0.276   5.764  12.706 -0.5605 -1.3772  1.0708
 6518TIP3    H241046   0.200   5.657  12.630 -1.8595 -0.4353  1.0232
 6519TIP3   OH241047   3.015   6.776   1.274  0.0523 -0.3455 -0.3509
 6519TIP3    H141048   2.998   6.793   1.366 -0.2956  1.4977 -0.7098
 6519TIP3    H241049   3.109   6.763   1.268 -0.1039 -2.2451  0.4682
 6520TIP3   OH241050   3.310   3.940   4.172  0.3120 -0.1259 -0.3620
 6520TIP3    H141051   3.391   3.895   4.194  0.9840  1.1087 -0.2706
 6520TIP3    H241052   3.336   4.030   4.153 -0.9509  0.1444 -0.9481
 6521TIP3   OH241053   5.498   5.739  14.344  0.1150 -0.3684 -0.0292
 6521TIP3    H141054   5.540   5.697  14.269 -0.2167  2.1078 -1.7721
 6521TIP3    H241055   5.570   5.776  14.395  0.2829 -0.7545  0.0142
 6522TIP3   OH241056   1.174   6.582   1.182 -0.3851 -0.1207 -0.2864
 6522TIP3    H141057   1.232   6.613   1.112  0.9894  0.0003  0.8562
 6522TIP3    H241058   1.169   6.487   1.169  0.9423 -0.2848  0.1866
 6523TIP3   OH241059   0.529   3.026  16.969  0.7667 -0.5728  0.1824
 6523TIP3    H141060   0.562   3.075  17.044 -0.3697  0.9373 -0.2521
 6523TIP3    H241061   0.435   3.019  16.983  0.5420 -0.3459 -1.0482
 6524TIP3   OH241062   0.542   4.115  17.130  0.4370 -0.0127 -0.1481
 6524TIP3    H141063   0.538   4.055  17.204 -0.5796  1.8282  1.4081
 6524TIP3    H241064   0.627   4.158  17.138  0.9214 -0.8049 -0.9159
 6525TIP3   OH241065   1.454   6.298  13.492 -0.0937  0.5149  0.1968
 6525TIP3    H141066   1.532   6.292  13.548 -0.5056  1.4284  0.8934
 6525TIP3    H241067   1.382   6.316  13.552 -1.0519 -1.3404 -0.3136
 6526TIP3   OH241068   3.990   6.359  11.756  0.3356  0.6684 -0.1301
 6526TIP3    H141069   3.945   6.428  11.708 -0.5101 -0.0976 -0.4597
 6526TIP3    H241070   4.039   6.312  11.690 -1.4358 -0.8671 -0.4426
 6527TIP3   OH241071   2.828   0.910  12.689 -0.4290  0.3619  0.2853
 6527TIP3    H141072   2.847   0.922  12.782  1.0088 -0.5242  0.1492
 6527TIP3    H241073   2.770   0.835  12.685 -1.0656  0.8380  0.5013
 6528TIP3   OH241074   0.820   6.586  11.012 -0.2268  0.5868  0.3601
 6528TIP3    H141075   0.761   6.657  10.983 -0.0352  0.7396  0.3382
 6528TIP3    H241076   0.866   6.561  10.932  0.8510  1.5261  0.6597
 6529TIP3   OH241077   4.161   0.291   5.740 -0.1202  0.0913 -0.8694
 6529TIP3    H141078   4.151   0.242   5.821 -1.6228 -1.0068 -1.6821
 6529TIP3    H241079   4.106   0.369   5.752  0.5315  0.4933 -0.4280
 6530TIP3   OH241080   3.486   0.455  15.536 -0.1536  0.1486  0.6868
 6530TIP3    H141081   3.486   0.506  15.617  4.2469  0.8730  0.4750
 6530TIP3    H241082   3.490   0.363  15.565  0.2905  0.3525  1.2849
 6531TIP3   OH241083   6.176   6.319  12.228  0.1265  0.5108  0.7681
 6531TIP3    H141084   6.207   6.337  12.140  1.1554  0.6839  1.1498
 6531TIP3    H241085   6.245   6.264  12.267 -1.3814 -1.5341  0.7165
 6532TIP3   OH241086   2.748   1.415   0.769  0.2185 -0.1225 -0.1135
 6532TIP3    H141087   2.828   1.432   0.818  0.9941  0.8072 -1.6533
 6532TIP3    H241088   2.682   1.469   0.812  0.9880  1.0494 -0.3733
 6533TIP3   OH241089   0.968   0.521   6.925 -0.4401  0.3790 -0.7836
 6533TIP3    H141090   0.912   0.584   6.971  0.0677 -0.6510  1.3808
 6533TIP3    H241091   0.942   0.436   6.960  1.4959 -0.2420 -0.7295
 6534TIP3   OH241092   4.495   1.575   2.953 -0.1099  0.3891  0.6564
 6534TIP3    H141093   4.526   1.656   2.914  1.6899 -0.5370  0.0642
 6534TIP3    H241094   4.564   1.511   2.934 -1.9245 -1.5429  0.2013
 6535TIP3   OH241095   5.065   6.669  12.405 -0.3598 -0.1942  0.3168
 6535TIP3    H141096   5.091   6.710  12.488 -0.1493 -0.5532  0.4325
 6535TIP3    H241097   5.090   6.733  12.338  1.9377 -0.9805  0.3189
 6536TIP3   OH241098   2.836   0.622  16.167 -0.5897  0.1030 -0.3059
 6536TIP3    H141099   2.840   0.687  16.237 -1.9469 -1.3544  1.2262
 6536TIP3    H241100   2.926   0.592  16.157 -0.4724 -0.2695  1.4922
 6537TIP3   OH241101   5.192   2.485  14.042 -0.0541  0.6913  0.0851
 6537TIP3    H141102   5.120   2.448  14.092  0.5284 -0.2534  0.2538
 6537TIP3    H241103   5.270   2.463  14.093  0.6333 -0.9647 -1.5828
 6538TIP3   OH241104   5.176   4.114  13.207 -0.1880 -0.2567 -0.7434
 6538TIP3    H141105   5.168   4.070  13.122 -0.3386 -0.3192 -0.6974
 6538TIP3    H241106   5.137   4.052  13.269 -1.9015  0.6315 -0.8977
 6539TIP3   OH241107   4.562   0.142  12.480  0.2098 -0.3885  0.0728
 6539TIP3    H141108   4.538   0.061  12.524 -0.6507 -1.8029 -2.7707
 6539TIP3    H241109   4.506   0.146  12.403  1.5729  1.9346 -0.9296
 6540TIP3   OH241110   1.342   2.941   2.010 -0.2365  0.0067 -0.5982
 6540TIP3    H141111   1.293   3.021   1.990  1.4499  0.9256 -1.3112
 6540TIP3    H241112   1.426   2.972   2.042 -0.1719 -1.5219  0.8460
 6541TIP3   OH241113   6.277   0.457  11.254 -0.5045 -0.2982 -0.1562
 6541TIP3    H141114   6.350   0.398  11.234 -0.3497 -0.1777  0.0623
 6541TIP3    H241115   6.245   0.428  11.339 -2.2716 -1.9439 -1.2901
 6542TIP3   OH241116   4.919   0.618  16.595 -0.6537  0.4852 -0.1156
 6542TIP3    H141117   4.922   0.709  16.625  1.7303  0.4425 -0.0196
 6542TIP3    H241118   4.953   0.567  16.668  0.5088 -0.1787 -1.0776
 6543TIP3   OH241119   0.264   2.843  13.672  0.1121 -0.2099 -0.0475
 6543TIP3    H141120   0.325   2.772  13.694 -1.4825 -1.6444 -0.0070
 6543TIP3    H241121   0.233   2.822  13.584  1.5515  1.9178 -1.1322
 6544TIP3   OH241122   5.339   5.647  15.618 -0.2284  0.2652 -0.1607
 6544TIP3    H141123   5.367   5.597  15.695  0.4975 -0.6162 -0.9674
 6544TIP3    H241124   5.397   5.722  15.615  1.0291 -0.7068 -0.9117
 6545TIP3   OH241125   6.045   5.099   1.046 -0.4072  0.3492 -0.4031
 6545TIP3    H141126   6.048   5.183   1.000 -1.5045  0.8824  0.4390
 6545TIP3    H241127   6.136   5.082   1.071 -0.3479  2.1249  0.7983
 6546TIP3   OH241128   2.911   5.705   0.950 -0.5707  0.4202  0.0972
 6546TIP3    H141129   2.987   5.722   0.895 -0.4172  1.3353  0.5741
 6546TIP3    H241130   2.836   5.735   0.898 -0.4277  1.2660  0.3709
 6547TIP3   OH241131   5.789   2.885   4.813 -0.2855  0.1482 -0.2921
 6547TIP3    H141132   5.732   2.887   4.890 -0.2882  1.2403 -0.3111
 6547TIP3    H241133   5.742   2.828   4.751 -0.7697  0.0768  0.1305
 6548TIP3   OH241134   1.108   3.397  14.543  0.2209  0.4022 -0.6916
 6548TIP3    H141135   1.081   3.311  14.510 -1.9631  0.6874  0.1896
 6548TIP3    H241136   1.027   3.445  14.554  1.4385  2.8770 -1.7971
 6549TIP3   OH241137   5.226   1.199   3.375  0.0196 -0.3760 -0.2496
 6549TIP3    H141138   5.302   1.145   3.356 -0.0653  0.1628 -2.3015
 6549TIP3    H241139   5.262   1.284   3.402  0.2585  0.5988 -3.3026
 6550TIP3   OH241140   3.685   2.021  12.035  0.3352 -0.4522  0.2611
 6550TIP3    H141141   3.612   2.044  11.977 -0.5302  0.4688  1.6436
 6550TIP3    H241142   3.757   2.077  12.006  0.6395 -1.6263 -1.3512
 6551TIP3   OH241143   0.905   4.227  14.534 -0.7666  0.2026  0.1255
 6551TIP3    H141144   0.984   4.268  14.500 -0.1059 -0.8215  0.3995
 6551TIP3    H241145   0.845   4.300  14.550 -0.4004  0.8841 -1.3979
 6552TIP3   OH241146   1.116   1.630   2.892  0.1230 -0.2099 -0.1942
 6552TIP3    H141147   1.189   1.682   2.857 -0.8074 -0.4372 -2.6933
 6552TIP3    H241148   1.083   1.682   2.964 -0.2517  2.3757 -2.0817
 6553TIP3   OH241149   5.084   4.083   4.492 -0.1196 -0.5168  0.6848
 6553TIP3    H141150   5.090   3.993   4.525  2.2663 -0.8575 -0.4905
 6553TIP3    H241151   5.023   4.078   4.419  1.3899 -1.6414 -0.5782
 6554TIP3   OH241152   1.995   5.649   2.466 -0.1418  0.4985 -0.2961
 6554TIP3    H141153   1.953   5.662   2.550 -1.8628  0.6401 -1.1419
 6554TIP3    H241154   1.947   5.706   2.406 -0.1985 -1.0178 -1.7523
 6555TIP3   OH241155   2.208   2.010  12.375 -0.5647 -0.6833  0.7614
 6555TIP3    H141156   2.129   2.042  12.332  0.6163  0.7182 -0.4799
 6555TIP3    H241157   2.263   1.978  12.303  0.2542 -1.0786  1.5449
 6556TIP3   OH241158   3.641   1.204  16.831 -0.5199  0.1396 -0.2977
 6556TIP3    H141159   3.627   1.234  16.741 -0.3887  1.2411  0.0370
 6556TIP3    H241160   3.700   1.129  16.822 -1.7947 -0.8131 -1.2442
 6557TIP3   OH241161   3.528   1.634   4.047 -0.2308  0.3103  0.4408
 6557TIP3    H141162   3.545   1.644   3.954 -0.1507  0.1997  0.4426
 6557TIP3    H241163   3.442   1.674   4.061 -1.2055 -1.4953 -0.0623
 6558TIP3   OH241164   2.477   3.952  15.077  0.1941 -0.0977  0.1425
 6558TIP3    H141165   2.487   4.036  15.033 -1.2119  0.7054  1.2755
 6558TIP3    H241166   2.400   3.913  15.035 -1.0246  0.5802  1.6587
 6559TIP3   OH241167   3.191   5.267  13.132 -0.4685  0.1469  0.1709
 6559TIP3    H141168   3.185   5.261  13.037  2.5206 -0.0897 -0.0885
 6559TIP3    H241169   3.116   5.322  13.157 -1.8506 -0.5355 -2.1731
 6560TIP3   OH241170   4.828   0.632  10.508  0.4205 -0.4656 -0.3080
 6560TIP3    H141171   4.906   0.670  10.467 -0.8235 -0.2973 -2.7185
 6560TIP3    H241172   4.859   0.551  10.548  2.4139  1.1309  1.6705
 6561TIP3   OH241173   3.273   2.139   3.859 -0.3299  0.3936  0.7809
 6561TIP3    H141174   3.191   2.173   3.824  0.4700  0.8487 -0.7779
 6561TIP3    H241175   3.314   2.214   3.903  0.5243  0.9903 -0.9365
 6562TIP3   OH241176   3.811   3.845   1.530  0.1938  0.5562  0.6972
 6562TIP3    H141177   3.809   3.757   1.492  0.4247  0.5924  0.5991
 6562TIP3    H241178   3.828   3.830   1.623 -0.7167  0.4499  0.8568
 6563TIP3   OH241179   4.892   6.103  14.963  0.2850 -0.1770  0.2196
 6563TIP3    H141180   4.822   6.162  14.991  0.1579 -0.4259  0.4392
 6563TIP3    H241181   4.961   6.115  15.029  0.4476  0.0658  0.0060
 6564TIP3   OH241182   2.058   5.201   2.359  0.6022 -0.5168  0.1146
 6564TIP3    H141183   2.119   5.149   2.410  0.4568 -0.3715  0.4362
 6564TIP3    H241184   2.104   5.219   2.277  1.6770  1.0731  1.0331
 6565TIP3   OH241185   3.850   5.665  13.634 -0.6639  0.0666  0.4706
 6565TIP3    H141186   3.933   5.669  13.587 -0.6442 -0.3667  0.4644
 6565TIP3    H241187   3.796   5.732  13.593 -0.6074 -0.2228 -0.0945
 6566TIP3   OH241188   0.498   4.461  11.543  0.2923  0.0632  0.4101
 6566TIP3    H141189   0.439   4.485  11.614  0.7649 -0.1189  0.8663
 6566TIP3    H241190   0.583   4.494  11.569  0.6580 -0.7952  0.3626
 6567TIP3   OH241191   6.800   6.438   2.220  0.4249  0.0308  0.3124
 6567TIP3    H141192   6.751   6.371   2.172 -0.4036  0.4178  0.5983
 6567TIP3    H241193   6.777   6.520   2.176  0.9679  0.1979  0.3354
 6568TIP3   OH241194   4.087   4.658  16.367  0.0531  0.5748 -0.2896
 6568TIP3    H141195   3.995   4.672  16.387 -0.1927 -2.1118  0.8652
 6568TIP3    H241196   4.130   4.654  16.452  0.9001 -0.1013 -0.7425
 6569TIP3   OH241197   5.051   0.164  13.397  0.3493 -0.6311 -0.0085
 6569TIP3    H141198   5.057   0.210  13.314  0.4932 -0.8667 -0.1287
 6569TIP3    H241199   5.055   0.071  13.374  1.6216 -0.6852  0.3598
 6570TIP3   OH241200   5.879   2.669  13.314 -0.2301  0.3810 -0.0524
 6570TIP3    H141201   5.874   2.763  13.329  0.0236  0.6099 -1.2597
 6570TIP3    H241202   5.956   2.641  13.363 -0.6358  0.6972  0.7776
 6571TIP3   OH241203   3.943   2.209   5.086 -0.5620  0.2515 -0.0817
 6571TIP3    H141204   3.882   2.258   5.140 -1.0527  1.3428 -1.5592
 6571TIP3    H241205   3.915   2.227   4.996  1.4947  0.1938 -0.7803
 6572TIP3   OH241206   5.844   4.702   0.896  0.2930  1.1299 -0.1274
 6572TIP3    H141207   5.821   4.792   0.872  0.8579  1.1461 -0.6299
 6572TIP3    H241208   5.922   4.711   0.950  0.6073  0.9180 -0.5396
 6573TIP3   OH241209   0.436   1.196  14.010 -0.2929  0.7030  0.3633
 6573TIP3    H141210   0.390   1.150  13.940  0.7592  1.3220 -0.7901
 6573TIP3    H241211   0.370   1.212  14.077 -0.9666 -1.3169  0.2350
 6574TIP3   OH241212   1.908   4.685   0.910 -0.0794 -0.2736  0.0227
 6574TIP3    H141213   1.839   4.751   0.899 -0.3737 -0.7264 -0.9691
 6574TIP3    H241214   1.876   4.610   0.861 -0.4924 -1.7577  2.3771
 6575TIP3   OH241215   2.650   4.426   4.193 -0.1969 -0.3885 -0.5133
 6575TIP3    H141216   2.655   4.348   4.137  1.7341 -1.1640  0.6461
 6575TIP3    H241217   2.728   4.476   4.172 -1.4973  1.4103 -1.3585
 6576TIP3   OH241218   1.267   6.527   4.029  0.0164  0.1913 -0.5223
 6576TIP3    H141219   1.193   6.578   4.063  0.6743 -0.5715  2.2081
 6576TIP3    H241220   1.238   6.436   4.034  0.5023 -0.0080 -1.1690
 6577TIP3   OH241221   3.373   5.040  12.368  0.4279  0.1766  0.2237
 6577TIP3    H141222   3.288   5.004  12.342  1.0337 -2.4071  1.4859
 6577TIP3    H241223   3.351   5.121  12.414 -1.1908  0.5370 -1.0783
 6578TIP3   OH241224   1.768   2.848   4.856  0.1726  0.4838 -0.2118
 6578TIP3    H141225   1.765   2.932   4.903 -2.0060  0.6281 -0.5040
 6578TIP3    H241226   1.780   2.783   4.924 -1.2260  0.8327  0.4123
 6579TIP3   OH241227   3.550   4.679  16.862 -0.0126 -0.3346 -0.5280
 6579TIP3    H141228   3.566   4.702  16.954 -3.5588 -0.8150  0.3474
 6579TIP3    H241229   3.588   4.752  16.813 -3.5191  3.4481  1.7418
 6580TIP3   OH241230   5.733   4.965   1.756 -0.0271 -0.4019  0.1662
 6580TIP3    H141231   5.755   5.020   1.681 -1.1538 -1.3515 -0.8940
 6580TIP3    H241232   5.660   5.011   1.799 -0.5002 -0.6956 -0.3112
 6581TIP3   OH241233   4.658   5.256   0.385 -0.2071  0.6502 -0.8594
 6581TIP3    H141234   4.660   5.161   0.374  0.9370  0.6396 -0.7094
 6581TIP3    H241235   4.672   5.290   0.297  0.4082  0.6561 -0.7667
 6582TIP3   OH241236   1.985   4.522   3.221 -0.0262 -0.1491  0.1627
 6582TIP3    H141237   2.067   4.570   3.229  0.8524 -1.6777  0.6092
 6582TIP3    H241238   2.009   4.439   3.180 -1.4410 -0.3971 -0.2248
 6583TIP3   OH241239   1.187   1.394  13.325  0.2486  0.1833 -0.4737
 6583TIP3    H141240   1.157   1.316  13.371 -1.6912  1.6659  0.9896
 6583TIP3    H241241   1.247   1.362  13.258  2.8078 -2.1809  2.6595
 6584TIP3   OH241242   6.641   1.939   5.950  0.9780  0.2185 -0.3481
 6584TIP3    H141243   6.696   1.873   5.908  1.3346 -0.0412  0.5246
 6584TIP3    H241244   6.673   2.022   5.915  2.1174  0.0918  0.3553
 6585TIP3   OH241245   5.758   6.741  16.612  0.3999 -0.1752 -0.0214
 6585TIP3    H141246   5.798   6.701  16.690 -0.6485  0.4818  0.8831
 6585TIP3    H241247   5.738   6.831  16.638 -0.8369 -0.2178 -0.7182
 6586TIP3   OH241248   1.617   0.113  12.205 -0.3475 -0.1419  0.0783
 6586TIP3    H141249   1.628   0.198  12.163  0.5132  0.1620  0.8795
 6586TIP3    H241250   1.580   0.057  12.137 -1.2674  0.9606 -0.3536
 6587TIP3   OH241251   4.213   4.117   4.328 -0.2444  0.5584  0.0712
 6587TIP3    H141252   4.289   4.137   4.273  0.1267 -0.6522  0.1064
 6587TIP3    H241253   4.178   4.202   4.353  1.3149  1.1486  0.3472
 6588TIP3   OH241254   1.305   2.442  13.922  0.3207  0.3741  0.3202
 6588TIP3    H141255   1.286   2.374  13.858  1.1361  0.2056  0.2399
 6588TIP3    H241256   1.374   2.495  13.881 -1.2360  2.1219 -0.2183
 6589TIP3   OH241257   6.602   3.879  14.593 -0.4770 -0.4170  0.2371
 6589TIP3    H141258   6.628   3.915  14.508  0.1915  1.2263  1.0958
 6589TIP3    H241259   6.512   3.909  14.605 -0.7046 -0.9711 -0.0414
 6590TIP3   OH241260   2.945   2.998   1.936 -0.4409 -0.3469 -0.1291
 6590TIP3    H141261   3.001   2.934   1.892 -1.0152  0.1994 -1.7234
 6590TIP3    H241262   2.867   3.003   1.881 -1.1121  0.5047  0.8759
 6591TIP3   OH241263   3.485   5.310  16.751  0.4245 -0.1980 -0.2204
 6591TIP3    H141264   3.417   5.376  16.736 -2.2900 -2.3568  1.5433
 6591TIP3    H241265   3.550   5.356  16.804 -0.9261  1.3397  0.2066
 6592TIP3   OH241266   5.143   1.996  14.803 -0.1217 -0.2868  0.0256
 6592TIP3    H141267   5.175   1.906  14.804  0.7331 -0.0060 -0.7146
 6592TIP3    H241268   5.212   2.046  14.760  0.1318  1.0112  1.8208
 6593TIP3   OH241269   5.290   1.906   5.284  0.2179  0.3700 -0.3435
 6593TIP3    H141270   5.236   1.968   5.234 -0.5945 -1.1552 -1.4290
 6593TIP3    H241271   5.316   1.955   5.362  2.2738  3.1478 -2.5795
 6594TIP3   OH241272   3.173   2.915  12.749  0.2541 -0.0970 -0.0551
 6594TIP3    H141273   3.250   2.918  12.805  0.8920 -0.7612 -0.8687
 6594TIP3    H241274   3.101   2.895  12.808  0.8137 -0.1383  0.6229
 6595TIP3   OH241275   6.646   3.864  13.863 -0.4482 -0.1796 -0.5398
 6595TIP3    H141276   6.591   3.804  13.813 -1.2677  0.3539 -0.2955
 6595TIP3    H241277   6.728   3.868  13.814 -0.0363 -2.1762 -0.0976
 6596TIP3   OH241278   6.330   4.638  14.852  0.3655 -0.0694  0.1878
 6596TIP3    H141279   6.343   4.650  14.946 -1.1358  1.2368  0.2722
 6596TIP3    H241280   6.399   4.690  14.811  0.9259 -0.5107  0.5639
 6597TIP3   OH241281   5.332   5.073   2.715 -0.5302  0.5115 -0.1596
 6597TIP3    H141282   5.267   5.005   2.699 -1.1415  0.4436  2.2466
 6597TIP3    H241283   5.347   5.112   2.629 -0.3871 -2.4002 -1.5844
 6598TIP3   OH241284   0.226   4.750   2.794 -0.0288  0.8394  0.1611
 6598TIP3    H141285   0.245   4.696   2.870 -0.9735  2.1528  1.3805
 6598TIP3    H241286   0.310   4.787   2.768  0.5539 -0.8235 -0.4273
 6599TIP3   OH241287   6.183   3.946   1.108  0.5565  0.4430  0.1368
 6599TIP3    H141288   6.276   3.925   1.099  0.3194  0.3755 -2.9106
 6599TIP3    H241289   6.156   3.901   1.188  3.3037  1.2201  1.6454
 6600TIP3   OH241290   2.850   5.158   4.826 -0.2338 -0.2682 -0.0085
 6600TIP3    H141291   2.900   5.240   4.828 -2.3475  1.1151 -0.4039
 6600TIP3    H241292   2.761   5.185   4.845 -0.7016 -2.7771  1.7329
 6601TIP3   OH241293   0.808   6.442   2.379 -0.3625  0.0577  0.1377
 6601TIP3    H141294   0.769   6.369   2.428  0.7179  0.1319  1.1602
 6601TIP3    H241295   0.741   6.510   2.382 -2.0280 -1.3348 -2.1364
 6602TIP3   OH241296   3.868   4.864  14.246  0.2482  0.0480  0.0320
 6602TIP3    H141297   3.953   4.829  14.273  0.1276 -0.2048  0.0849
 6602TIP3    H241298   3.845   4.814  14.167  1.0441  1.4274 -1.1231
 6603TIP3   OH241299   1.710   0.953   2.620  0.0158  0.0932  0.4814
 6603TIP3    H141300   1.618   0.957   2.594  0.4285 -0.5162 -1.2304
 6603TIP3    H241301   1.751   0.898   2.553  1.9233  1.6160  0.2996
 6604TIP3   OH241302   5.548   6.312  15.807 -0.0419 -0.1510 -0.3566
 6604TIP3    H141303   5.535   6.407  15.800 -1.0727 -0.2824 -0.4103
 6604TIP3    H241304   5.525   6.291  15.897 -1.6174 -0.5883 -0.8300
 6605TIP3   OH241305   2.582   2.545  12.242 -0.1988 -0.4735 -0.6254
 6605TIP3    H141306   2.606   2.602  12.169 -1.3481  1.4653  0.4206
 6605TIP3    H241307   2.522   2.480  12.204 -0.9010  0.6015 -1.4122
 6606TIP3   OH241308   1.068   2.289  16.381  0.2479 -0.3600  0.4946
 6606TIP3    H141309   1.091   2.315  16.292 -1.7475 -0.6314 -0.1349
 6606TIP3    H241310   1.074   2.371  16.431 -2.7021  0.7784 -0.7907
 6607TIP3   OH241311   4.003   3.937   6.329  0.9559  0.5289  0.1371
 6607TIP3    H141312   4.091   3.958   6.361  1.2130 -1.7475  1.1091
 6607TIP3    H241313   3.950   3.926   6.408 -0.1711  1.6633 -0.4339
 6608TIP3   OH241314   0.443   6.618   2.672 -0.2801  0.2282  0.0638
 6608TIP3    H141315   0.527   6.576   2.689 -0.3208  0.6294  1.4330
 6608TIP3    H241316   0.402   6.624   2.759 -2.3790 -1.2904 -0.7178
 6609TIP3   OH241317   5.681   2.862  13.156 -0.1744  0.4040  0.4370
 6609TIP3    H141318   5.738   2.927  13.116  0.5708 -0.3626  0.2253
 6609TIP3    H241319   5.733   2.782  13.158 -0.0459  0.4569  3.1962
 6610TIP3   OH241320   3.225   4.059  13.796 -0.4129  0.1322  0.0698
 6610TIP3    H141321   3.179   4.111  13.730 -1.0730  1.0236  1.2063
 6610TIP3    H241322   3.316   4.087  13.789 -0.4472  0.0922 -0.5790
 6611TIP3   OH241323   3.576   2.707  15.177 -0.4172 -0.3545 -0.2184
 6611TIP3    H141324   3.651   2.681  15.124 -0.7423  0.7136 -1.2397
 6611TIP3    H241325   3.532   2.625  15.199  1.0511 -1.0080  0.4365
 6612TIP3   OH241326   0.852   3.020  15.841 -0.1241 -0.6063  0.3660
 6612TIP3    H141327   0.925   3.077  15.866 -0.4246  0.7687 -1.6500
 6612TIP3    H241328   0.775   3.061  15.879 -0.3602  0.4917 -1.2150
 6613TIP3   OH241329   6.811   1.938  14.070 -0.0195  0.4618 -0.1186
 6613TIP3    H141330   6.861   1.985  14.137  0.0915  0.1090  0.0491
 6613TIP3    H241331   6.876   1.883  14.026 -0.3698 -0.5561  0.5892
 6614TIP3   OH241332   5.335   3.106  14.448 -0.2211 -0.4772 -0.3601
 6614TIP3    H141333   5.367   3.019  14.475  1.1533 -0.0324 -0.4916
 6614TIP3    H241334   5.413   3.152  14.419 -0.4994  1.6865  2.0350
 6615TIP3   OH241335   3.925   2.522  10.571 -0.5210  0.4476 -0.4452
 6615TIP3    H141336   3.917   2.427  10.573 -3.7588  0.6325 -0.0393
 6615TIP3    H241337   3.911   2.550  10.662  2.8189  1.3185 -0.0335
 6616TIP3   OH241338   2.172   0.028   5.725 -0.4598  0.8543 -0.0311
 6616TIP3    H141339   2.258   0.069   5.731  0.4421 -1.1467  3.0535
 6616TIP3    H241340   2.126   0.057   5.805 -1.8065  0.1534 -0.5190
 6617TIP3   OH241341   5.251   2.448  15.971  0.4747 -0.3546 -0.1673
 6617TIP3    H141342   5.319   2.444  16.038 -0.6298  0.7841  1.0704
 6617TIP3    H241343   5.205   2.364  15.979  1.1864 -0.7829 -0.4480
 6618TIP3   OH241344   1.195   1.099   1.596 -0.3352 -0.0224  0.2769
 6618TIP3    H141345   1.108   1.072   1.567 -0.0714  0.4086 -1.0000
 6618TIP3    H241346   1.255   1.041   1.549  0.1072  0.5356  0.1330
 6619TIP3   OH241347   5.621   4.281   3.221 -0.1878  0.3912 -0.1010
 6619TIP3    H141348   5.527   4.295   3.210 -0.6514 -1.7168  0.5812
 6619TIP3    H241349   5.638   4.302   3.312 -0.8724 -2.7861  0.9061
 6620TIP3   OH241350   4.057   3.984   0.282  0.0348 -1.0152  0.0035
 6620TIP3    H141351   4.063   4.049   0.212  1.3371 -0.4218  0.6326
 6620TIP3    H241352   4.023   4.034   0.357 -1.5939 -1.6992 -0.2456
 6621TIP3   OH241353   0.177   2.520  12.845  0.0480  0.0839 -0.7796
 6621TIP3    H141354   0.114   2.586  12.816 -1.0877  0.3522  2.0244
 6621TIP3    H241355   0.256   2.570  12.868  0.6742 -0.0498 -2.4984
 6622TIP3   OH241356   0.608   4.555  12.920 -0.2341 -0.3728  0.3560
 6622TIP3    H141357   0.601   4.531  13.012 -0.1427 -0.4892  0.3341
 6622TIP3    H241358   0.658   4.483  12.881 -0.9480 -0.7199  0.0638
 6623TIP3   OH241359   3.140   5.103   5.192 -0.0641 -0.3592  0.1373
 6623TIP3    H141360   3.150   5.108   5.287 -0.5374 -2.3156  0.3294
 6623TIP3    H241361   3.115   5.192   5.166  2.3377  0.8118  1.5055
 6624TIP3   OH241362   4.547   2.152  15.147 -0.0331  0.5535 -0.6065
 6624TIP3    H141363   4.518   2.138  15.237  1.6758 -0.3079 -0.1464
 6624TIP3    H241364   4.577   2.243  15.145  0.4028  0.4228 -0.1522
 6625TIP3   OH241365   4.395   1.278   1.533  0.6854  0.5130  0.5187
 6625TIP3    H141366   4.471   1.314   1.579  0.9264 -0.4081  0.8777
 6625TIP3    H241367   4.405   1.309   1.443  1.7776 -0.0058  0.4384
 6626TIP3   OH241368   2.566   5.714   5.475 -0.5298 -0.1304  0.2783
 6626TIP3    H141369   2.530   5.689   5.390  0.8708 -0.2841 -0.2989
 6626TIP3    H241370   2.532   5.802   5.490 -0.5451  0.0237 -0.5955
 6627TIP3   OH241371   6.750   5.288  15.812 -0.5954  0.0941 -0.1691
 6627TIP3    H141372   6.771   5.197  15.833  1.2448  0.4040 -0.5076
 6627TIP3    H241373   6.835   5.330  15.797 -1.4372  1.7043 -0.7268
 6628TIP3   OH241374   6.627   6.528   3.680  0.0984 -0.2028 -0.3396
 6628TIP3    H141375   6.553   6.467   3.686  1.5140 -1.8778  1.5613
 6628TIP3    H241376   6.696   6.477   3.636  0.6982  0.6869 -0.4483
 6629TIP3   OH241377   0.704   0.891   5.245 -0.1929  0.7962  0.0087
 6629TIP3    H141378   0.711   0.918   5.153  0.0707  1.0973  0.1135
 6629TIP3    H241379   0.784   0.841   5.261 -0.3267  0.5866  0.0232
 6630TIP3   OH241380   1.012   3.244  11.921 -0.1280  0.0459  0.4630
 6630TIP3    H141381   1.028   3.286  11.837 -1.5761  0.4382  0.3451
 6630TIP3    H241382   0.986   3.316  11.979  0.3838 -0.2842  1.1197
 6631TIP3   OH241383   2.378   0.762   4.220 -0.4044 -0.0310  0.3363
 6631TIP3    H141384   2.454   0.807   4.184 -0.2774  0.4086  1.1348
 6631TIP3    H241385   2.405   0.737   4.309 -1.7452  1.6036  1.2615
 6632TIP3   OH241386   0.112   1.528   5.194  0.2446 -0.3787  0.0942
 6632TIP3    H141387   0.120   1.619   5.223 -2.0764 -0.4794  1.2589
 6632TIP3    H241388   0.115   1.476   5.274  0.5314 -1.2683 -0.4713
 6633TIP3   OH241389   1.741   3.505   2.374  0.0201 -0.1644 -0.1406
 6633TIP3    H141390   1.746   3.465   2.288 -1.0870 -0.8768  0.1091
 6633TIP3    H241391   1.719   3.597   2.357  3.4446  0.6985 -0.7635
 6634TIP3   OH241392   2.555   1.443  12.025  0.1619  0.3882 -0.3340
 6634TIP3    H141393   2.593   1.449  12.112  1.1331  0.2076 -0.7395
 6634TIP3    H241394   2.627   1.463  11.965 -0.3782  0.0587 -1.1097
 6635TIP3   OH241395   4.295   0.294  13.903  0.4321 -0.5584 -0.0170
 6635TIP3    H141396   4.261   0.224  13.847 -0.6791  0.4619 -0.6576
 6635TIP3    H241397   4.327   0.361  13.842  0.7131 -0.1324  0.5802
 6636TIP3   OH241398   1.091   6.484   5.067 -0.4638  0.2660 -0.4485
 6636TIP3    H141399   1.017   6.448   5.117 -1.1809  1.6206 -0.4795
 6636TIP3    H241400   1.086   6.578   5.083  2.5970  0.2385  1.3554
 6637TIP3   OH241401   3.543   0.314   2.210 -0.0659  0.1749  0.1971
 6637TIP3    H141402   3.472   0.250   2.202 -1.8085  2.1250 -0.5676
 6637TIP3    H241403   3.569   0.309   2.302 -3.3169  1.5284  1.3026
 6638TIP3   OH241404   6.443   2.154  14.314 -0.1969  0.5061  0.8535
 6638TIP3    H141405   6.445   2.155  14.410  0.6259 -0.0826  0.8530
 6638TIP3    H241406   6.530   2.122  14.289 -0.7805 -0.3922 -0.0692
 6639TIP3   OH241407   4.089   1.422   3.203 -0.1388 -0.2505 -0.3405
 6639TIP3    H141408   4.125   1.434   3.116 -0.8066 -1.7990 -0.8683
 6639TIP3    H241409   4.026   1.493   3.214 -0.3203 -0.2669 -1.2693
 6640TIP3   OH241410   2.637   5.166   2.668 -0.2682  0.8706  0.1516
 6640TIP3    H141411   2.640   5.227   2.742 -0.7576  1.0086  0.0624
 6640TIP3    H241412   2.667   5.082   2.704 -0.5315  0.9316  0.5143
 6641TIP3   OH241413   4.137   4.260   1.531  0.5159  0.4400  0.1048
 6641TIP3    H141414   4.185   4.292   1.607  0.1916 -0.8822  0.9018
 6641TIP3    H241415   4.074   4.198   1.567  0.0037  0.1790 -1.1911
 6642TIP3   OH241416   2.153   0.937   0.565 -0.2555 -0.0205  0.3252
 6642TIP3    H141417   2.105   1.016   0.592  0.0193 -0.0159  0.8119
 6642TIP3    H241418   2.229   0.934   0.623  0.5254  0.1606 -0.6546
 6643TIP3   OH241419   2.083   4.497  12.388 -0.0110  0.5050 -0.1971
 6643TIP3    H141420   2.114   4.422  12.336  0.9144 -0.8452  2.1700
 6643TIP3    H241421   1.989   4.500  12.372  0.1022 -0.5043 -1.1507
 6644TIP3   OH241422   1.565   0.192   4.182 -0.1509 -0.0920  0.1194
 6644TIP3    H141423   1.545   0.195   4.089  1.4889  2.5692 -0.2447
 6644TIP3    H241424   1.491   0.237   4.224 -0.1242  0.1424 -0.0808
 6645TIP3   OH241425   0.794   1.710   2.860 -0.0061  0.1365 -0.2786
 6645TIP3    H141426   0.851   1.732   2.934 -3.7937  1.3751  2.5749
 6645TIP3    H241427   0.813   1.777   2.794  1.2891  0.9232  0.8466
 6646TIP3   OH241428   5.301   3.935  11.094  0.4037 -0.5163 -0.0298
 6646TIP3    H141429   5.233   3.979  11.043  1.6036  0.7035 -0.6651
 6646TIP3    H241430   5.279   3.842  11.089 -0.2511 -0.3108 -1.7105
 6647TIP3   OH241431   2.041   2.736   3.406 -0.4240 -0.8575 -0.1217
 6647TIP3    H141432   2.011   2.645   3.402 -3.7942  0.1847 -2.5011
 6647TIP3    H241433   1.986   2.777   3.472  0.4534 -0.3015  0.2900
 6648TIP3   OH241434   3.409   2.320   0.876  0.0153  0.4669 -0.4893
 6648TIP3    H141435   3.334   2.262   0.871  0.6600 -0.4082 -0.1409
 6648TIP3    H241436   3.458   2.304   0.795 -0.4897  1.5137 -1.0348
 6649TIP3   OH241437   3.040   4.543  16.713  0.4523  0.5172  0.4700
 6649TIP3    H141438   3.103   4.515  16.779 -0.0264  1.2223  1.2538
 6649TIP3    H241439   3.000   4.622  16.751 -1.5257 -0.4036  0.4219
 6650TIP3   OH241440   5.125   1.829  11.148  0.1787  0.5112 -0.5958
 6650TIP3    H141441   5.193   1.851  11.084  0.6299 -0.2264 -0.3814
 6650TIP3    H241442   5.100   1.913  11.186  3.1419  0.5906  1.5320
 6651TIP3   OH241443   3.570   6.168  12.340  0.2774 -0.2291  0.4640
 6651TIP3    H141444   3.644   6.113  12.314 -0.8931 -1.8876  0.4647
 6651TIP3    H241445   3.493   6.114  12.322 -1.1662  2.3389 -1.9480
 6652TIP3   OH241446   6.670   0.953   1.020 -0.7278  0.3601 -0.6008
 6652TIP3    H141447   6.645   1.043   1.000 -1.4043 -0.4419 -4.0852
 6652TIP3    H241448   6.588   0.905   1.026 -0.3423 -0.2854 -0.3193
 6653TIP3   OH241449   2.294   6.560   0.018  0.5499 -0.2103 -0.3892
 6653TIP3    H141450   2.281   6.655   0.014  1.1414 -0.0180  1.2823
 6653TIP3    H241451   2.222   6.523  -0.033 -0.4025  1.1015 -0.0479
 6654TIP3   OH241452   5.473   4.344   2.135 -0.4488 -0.5239 -0.8479
 6654TIP3    H141453   5.530   4.370   2.208 -1.8579  1.2255 -0.2937
 6654TIP3    H241454   5.534   4.323   2.064  0.9212  1.1103 -0.2326
 6655TIP3   OH241455   2.840   5.613  13.452  0.6064 -0.2741  0.1758
 6655TIP3    H141456   2.863   5.656  13.370 -2.1239 -0.2809 -0.7077
 6655TIP3    H241457   2.804   5.683  13.506  1.3005 -0.4867  0.9280
 6656TIP3   OH241458   6.462   6.345   2.950 -0.2761  0.0489  0.4093
 6656TIP3    H141459   6.421   6.355   3.036  1.0627 -0.9222  1.2038
 6656TIP3    H241460   6.414   6.274   2.908 -1.4003  1.0077  0.0466
 6657TIP3   OH241461   4.943   4.301   0.641  0.1812 -0.2760 -0.2378
 6657TIP3    H141462   4.987   4.222   0.612  1.1903  0.0154  0.4727
 6657TIP3    H241463   4.988   4.372   0.595  0.8194  0.0704  0.9008
 6658TIP3   OH241464   2.579   3.419   3.669  0.2932  0.2990 -0.8860
 6658TIP3    H141465   2.507   3.465   3.626 -0.4422 -1.4861 -1.6543
 6658TIP3    H241466   2.598   3.471   3.747 -0.2427  2.0709 -1.8912
 6659TIP3   OH241467   5.456   3.278   4.016  0.4057  0.7941 -0.3522
 6659TIP3    H141468   5.439   3.294   3.924 -1.6636 -0.2353 -0.2054
 6659TIP3    H241469   5.369   3.274   4.056  1.1375 -1.0635  1.2189
 6660TIP3   OH241470   0.897   3.865   1.495  0.6718  0.0622 -0.1136
 6660TIP3    H141471   0.942   3.949   1.486 -0.0208  0.2926 -1.8771
 6660TIP3    H241472   0.876   3.859   1.588  2.1881  1.0576  0.3289
 6661TIP3   OH241473   3.421   1.206   2.723  0.6935  0.1550  0.9679
 6661TIP3    H141474   3.483   1.268   2.759 -0.3029  0.8688  1.5024
 6661TIP3    H241475   3.359   1.190   2.794 -2.0649  2.5658 -0.6555
 6662TIP3   OH241476   2.430   2.963   0.706 -0.1879  0.4308 -0.2489
 6662TIP3    H141477   2.398   3.020   0.636 -1.3362  0.1830  0.0531
 6662TIP3    H241478   2.525   2.958   0.691 -0.2504  1.3189 -1.0799
 6663TIP3   OH241479   0.863   4.393   1.621 -0.4128  0.2599  0.1470
 6663TIP3    H141480   0.950   4.355   1.628 -1.2414 -1.8471 -0.3263
 6663TIP3    H241481   0.826   4.357   1.541 -1.3935  1.8858 -0.1988
 6664TIP3   OH241482   3.354   5.299  12.468 -0.1382  0.0615  0.0115
 6664TIP3    H141483   3.260   5.314  12.457 -0.0355  0.9200  0.1802
 6664TIP3    H241484   3.393   5.383  12.444  0.5194 -0.0046  0.8480
 6665TIP3   OH241485   0.750   4.334   5.462  0.0308  0.7840  0.0937
 6665TIP3    H141486   0.769   4.385   5.384 -0.8859  1.9375  0.5860
 6665TIP3    H241487   0.775   4.244   5.439 -0.2972  1.0754 -1.5393
 6666TIP3   OH241488   3.014   3.717  12.836  0.3038 -0.1939 -0.4626
 6666TIP3    H141489   2.922   3.691  12.831 -0.2480  1.8012 -2.0843
 6666TIP3    H241490   3.053   3.685  12.755  1.4450 -2.1832  0.7902
 6667TIP3   OH241491   4.082   6.199   3.889 -0.2059 -0.0265  0.0095
 6667TIP3    H141492   3.991   6.210   3.918 -0.5257  0.9489 -1.2844
 6667TIP3    H241493   4.134   6.238   3.960 -0.8309  0.1445  0.3849
 6668TIP3   OH241494   0.088   2.193  14.599 -0.3572  0.0674  0.1544
 6668TIP3    H141495   0.174   2.233  14.603  0.0357 -0.7620  0.1738
 6668TIP3    H241496   0.051   2.206  14.686 -1.3555  2.7534 -0.5681
 6669TIP3   OH241497   0.371   4.303   4.312 -0.3389 -0.4021 -0.0365
 6669TIP3    H141498   0.422   4.347   4.380 -0.8140  0.0865  0.0128
 6669TIP3    H241499   0.408   4.336   4.230 -2.5322  2.4191 -0.0518
 6670TIP3   OH241500   1.246   2.995   1.524 -0.1552 -0.0034 -0.3763
 6670TIP3    H141501   1.153   3.012   1.535 -0.3196 -0.9457 -0.2772
 6670TIP3    H241502   1.268   2.934   1.594  0.2079 -0.9398 -1.2877
 6671TIP3   OH241503   3.546   0.786  16.259 -0.6214 -0.3371  0.5292
 6671TIP3    H141504   3.614   0.801  16.324 -1.5618 -1.2148  1.7658
 6671TIP3    H241505   3.480   0.853  16.277 -0.0806  0.5970 -0.7479
 6672TIP3   OH241506   5.053   4.220  14.484  0.2721  0.6132  0.2202
 6672TIP3    H141507   5.081   4.211  14.393  0.6285  2.5579  0.0901
 6672TIP3    H241508   4.982   4.283  14.481 -0.0104  0.3579  1.2521
 6673TIP3   OH241509   2.763   1.306   0.235 -0.0636  0.3938  0.2348
 6673TIP3    H141510   2.686   1.312   0.291  0.2887  0.7956  0.6876
 6673TIP3    H241511   2.837   1.314   0.296  0.3277  0.4937 -0.2530
 6674TIP3   OH241512   3.288   0.698   1.383  0.0868 -0.4074  0.4901
 6674TIP3    H141513   3.233   0.773   1.363  1.1652  0.3463  0.2518
 6674TIP3    H241514   3.369   0.736   1.419  1.2025 -1.3531 -0.8912
 6675TIP3   OH241515   6.262   2.277  12.733  0.1089  0.4273  0.0162
 6675TIP3    H141516   6.234   2.355  12.686 -0.3748  0.6854  0.7066
 6675TIP3    H241517   6.347   2.255  12.696 -0.5561  0.2211 -1.4506
 6676TIP3   OH241518   4.256   0.289   2.542 -0.4866  0.3365 -0.4259
 6676TIP3    H141519   4.257   0.248   2.628  0.2638 -1.8783 -1.4101
 6676TIP3    H241520   4.165   0.285   2.514 -0.3576 -1.3012 -0.7313
 6677TIP3   OH241521   0.075   3.854   1.907  0.7009 -0.6446  0.1414
 6677TIP3    H141522   0.051   3.771   1.947 -0.1279 -1.4323 -1.8895
 6677TIP3    H241523  -0.005   3.886   1.867  0.8090  1.5436  1.4824
 6678TIP3   OH241524   3.416   5.285  15.634  0.4170 -0.3246  0.5799
 6678TIP3    H141525   3.366   5.204  15.637 -0.6219  0.0994 -2.2255
 6678TIP3    H241526   3.379   5.339  15.704  0.5396 -1.9329  1.9137
 6679TIP3   OH241527   3.126   6.165   4.281 -0.1087 -0.0542  0.6830
 6679TIP3    H141528   3.088   6.078   4.295  0.1596 -0.1574  0.7768
 6679TIP3    H241529   3.184   6.178   4.356  2.3081 -1.1294 -0.8614
 6680TIP3   OH241530   2.367   2.448   0.874  0.0142 -0.4556 -0.3377
 6680TIP3    H141531   2.372   2.363   0.831  0.1061 -0.4400 -0.3593
 6680TIP3    H241532   2.326   2.506   0.810  0.3936 -0.3693 -0.5041
 6681TIP3   OH241533   4.492   6.564  14.301 -0.1488 -0.1605  0.3858
 6681TIP3    H141534   4.524   6.654  14.304  1.6419 -0.7306 -0.3810
 6681TIP3    H241535   4.459   6.554  14.212  0.4099 -0.4994  0.2155
 6682TIP3   OH241536   1.714   3.738   1.805  0.4691  0.3912  0.5311
 6682TIP3    H141537   1.624   3.770   1.812  0.5359  0.7385 -0.0880
 6682TIP3    H241538   1.764   3.815   1.776  0.8541  0.0439  0.2640
 6683TIP3   OH241539   3.845   0.115  12.487  0.3129  0.4262  0.2151
 6683TIP3    H141540   3.827   0.109  12.393 -1.0625  0.9040  0.4388
 6683TIP3    H241541   3.866   0.025  12.512 -4.9487 -1.0182  0.4990
 6684TIP3   OH241542   2.628   2.296  11.465 -0.4254 -0.5152 -0.6048
 6684TIP3    H141543   2.651   2.387  11.447 -2.5827  0.4218  0.9580
 6684TIP3    H241544   2.556   2.276  11.406  0.4508 -1.4564 -1.3884
 6685TIP3   OH241545   4.456   2.203  12.235 -0.3549 -0.4180  0.0324
 6685TIP3    H141546   4.417   2.121  12.203  0.0135 -0.5020 -0.2163
 6685TIP3    H241547   4.469   2.255  12.156 -2.6675  0.8272  0.3910
 6686TIP3   OH241548   1.615   5.419   0.098 -0.8819  0.5179 -0.2437
 6686TIP3    H141549   1.598   5.477   0.172 -1.9551  0.3138 -0.3166
 6686TIP3    H241550   1.550   5.444   0.033 -2.5183 -1.8660  0.3654
 6687TIP3   OH241551   1.227   0.501   0.716 -0.2997  0.2630  0.2903
 6687TIP3    H141552   1.306   0.480   0.666  0.1933 -0.5276  1.3663
 6687TIP3    H241553   1.167   0.539   0.651  0.1592 -1.0858 -0.9929
 6688TIP3   OH241554   0.425   3.536   0.107 -0.4512  0.6738  0.2153
 6688TIP3    H141555   0.362   3.582   0.163 -1.3722 -0.4041  0.0908
 6688TIP3    H241556   0.374   3.508   0.032  0.8446  2.4958 -1.4732
 6689TIP3   OH241557   3.483   1.072  17.024  0.2256  0.2954 -0.1710
 6689TIP3    H141558   3.388   1.070  17.035  0.2355 -0.2869 -0.1507
 6689TIP3    H241559   3.496   1.110  16.937 -0.0116  0.7343 -0.0158
 6690TIP3   OH241560   6.622   1.515   0.967 -0.1783  0.4285  0.0037
 6690TIP3    H141561   6.559   1.565   1.020  1.1355  1.0673  1.0304
 6690TIP3    H241562   6.685   1.580   0.938  0.2776 -0.2785 -0.6005
 6691TIP3   OH241563   1.757   1.127  15.642  0.3692  0.3457  0.4895
 6691TIP3    H141564   1.755   1.185  15.719 -1.1383  1.8583 -0.6169
 6691TIP3    H241565   1.676   1.146  15.595  0.9592 -0.9791 -1.1841
 6692TIP3   OH241566   2.102   2.009  16.011  0.0907  0.0983  0.0183
 6692TIP3    H141567   2.027   2.042  15.961  0.0701  0.4235  0.2606
 6692TIP3    H241568   2.169   1.992  15.945 -0.0439  0.2245 -0.1530
 6693TIP3   OH241569   0.834   0.610   1.491  0.1941  0.3251  0.4300
 6693TIP3    H141570   0.875   0.616   1.405  1.4621 -3.0763  0.6282
 6693TIP3    H241571   0.753   0.561   1.475 -0.0255  0.4676  1.0667
 6694TIP3   OH241572   5.214   0.389   4.572 -0.2952 -0.9628  0.0982
 6694TIP3    H141573   5.188   0.480   4.590 -0.0880 -1.0600  0.9629
 6694TIP3    H241574   5.308   0.394   4.558 -0.1394 -1.1391  0.9820
 6695TIP3   OH241575   5.388   2.931   4.019 -0.0394 -0.4886  0.3356
 6695TIP3    H141576   5.454   2.991   3.985 -0.6146  0.2561  0.4841
 6695TIP3    H241577   5.309   2.951   3.968 -0.3021 -0.9544  0.5505
 6696TIP3   OH241578   2.530   0.557   5.231 -0.4308  0.1167  0.0316
 6696TIP3    H141579   2.518   0.478   5.282  0.3957 -0.1706 -0.2013
 6696TIP3    H241580   2.469   0.620   5.269 -0.8744 -0.5352  0.4141
 6697TIP3   OH241581   4.434   4.485   4.974  0.5832  0.1061  0.3352
 6697TIP3    H141582   4.513   4.530   4.943  1.2069 -0.5681  0.8881
 6697TIP3    H241583   4.362   4.527   4.928  1.4032 -0.4243 -1.5230
 6698TIP3   OH241584   4.132   4.357   4.401  0.4240 -0.0850  0.0222
 6698TIP3    H141585   4.115   4.428   4.339 -0.2010 -1.7999 -1.9205
 6698TIP3    H241586   4.056   4.355   4.458 -0.4325 -0.2791 -1.0768
 6699TIP3   OH241587   5.106   3.675  13.259 -0.2320  0.4860  0.1547
 6699TIP3    H141588   5.075   3.638  13.342 -0.2689 -0.4679 -0.2782
 6699TIP3    H241589   5.045   3.747  13.241 -0.6004  0.3020  0.6383
 6700TIP3   OH241590   4.089   1.682   0.995 -0.5267 -0.0546  0.5443
 6700TIP3    H141591   4.089   1.593   1.031  0.9464  0.1590  1.1652
 6700TIP3    H241592   4.060   1.737   1.068  0.4703  0.1614  0.7967
 6701TIP3   OH241593   3.832   4.047   3.052 -0.1954 -0.1897  0.1111
 6701TIP3    H141594   3.789   4.040   3.137 -1.5297  0.5414 -0.4728
 6701TIP3    H241595   3.761   4.040   2.988  0.8405 -1.3842 -0.9886
 6702TIP3   OH241596   4.488   5.802  14.323  0.8500 -0.2741 -0.7782
 6702TIP3    H141597   4.436   5.877  14.295  1.2160  0.1488 -0.3278
 6702TIP3    H241598   4.509   5.756  14.241  1.5849  0.7403 -1.1779
 6703TIP3   OH241599   4.074   5.314  13.852 -0.1065  0.3621  0.3870
 6703TIP3    H141600   4.121   5.291  13.772 -0.0228 -3.3579  1.3097
 6703TIP3    H241601   3.982   5.300  13.831 -0.2130  0.8026  0.5471
 6704TIP3   OH241602   6.042   6.333   0.492  0.1307 -0.2371 -0.3361
 6704TIP3    H141603   5.965   6.277   0.491  0.1676 -0.3310  0.6047
 6704TIP3    H241604   6.053   6.362   0.402 -1.4889  0.4359 -0.3427
 6705TIP3   OH241605   2.166   2.378   2.562  0.1268 -0.0948 -0.3364
 6705TIP3    H141606   2.155   2.283   2.565 -2.1638  0.1473  0.7117
 6705TIP3    H241607   2.219   2.399   2.639 -0.5738 -0.4043  0.2378
 6706TIP3   OH241608   3.588   1.250   4.540  0.3140  0.4739 -0.1492
 6706TIP3    H141609   3.661   1.227   4.599 -0.0038  0.4661  0.2422
 6706TIP3    H241610   3.557   1.334   4.573 -0.6228 -0.0794  0.4325
 6707TIP3   OH241611   6.584   3.469   6.278  0.1534 -0.1042 -0.1193
 6707TIP3    H141612   6.587   3.550   6.329  0.6603 -0.0252 -0.2650
 6707TIP3    H241613   6.675   3.452   6.255 -0.1477  0.3690 -1.7771
 6708TIP3   OH241614   2.829   5.107   3.068  0.1826 -0.0461 -0.0825
 6708TIP3    H141615   2.909   5.159   3.066  0.2533 -0.1375 -2.7065
 6708TIP3    H241616   2.855   5.021   3.037 -0.6559 -0.5590  0.5770
 6709TIP3   OH241617   1.507   0.020  15.227 -0.1822 -0.1741  0.2807
 6709TIP3    H141618   1.581  -0.038  15.209 -1.2111 -2.0307  1.6793
 6709TIP3    H241619   1.548   0.099  15.263  1.1425 -1.0232  0.7339
 6710TIP3   OH241620   5.773   5.730   3.427 -0.4756 -0.0289  0.4352
 6710TIP3    H141621   5.775   5.737   3.522  0.0150  1.0016  0.3565
 6710TIP3    H241622   5.713   5.800   3.399  0.0617  0.2403 -0.0610
 6711TIP3   OH241623   4.993   1.970  10.672  0.1372  0.1370  0.0180
 6711TIP3    H141624   5.037   1.952  10.590  2.2884 -0.7498  1.2868
 6711TIP3    H241625   4.910   1.922  10.666  0.8321 -0.9625 -1.1319
 6712TIP3   OH241626   1.548   3.154   5.402 -0.4205  0.0219 -0.1463
 6712TIP3    H141627   1.510   3.147   5.490 -1.1867  0.2395 -0.4466
 6712TIP3    H241628   1.571   3.246   5.393  0.4733 -0.1694  0.1483
 6713TIP3   OH241629   1.375   0.586  12.228  0.2349 -0.0255  0.4729
 6713TIP3    H141630   1.323   0.534  12.167 -0.5332 -0.2159  1.2646
 6713TIP3    H241631   1.338   0.566  12.314  1.3071  0.2092  1.0159
 6714TIP3   OH241632   0.788   0.735   6.313  0.0886  0.8871  0.3005
 6714TIP3    H141633   0.875   0.764   6.338  1.0565 -1.3184 -0.2811
 6714TIP3    H241634   0.784   0.643   6.341 -1.7937  0.7512 -0.2623
 6715TIP3   OH241635   0.484   2.355  14.739  0.3745  0.6271  0.1506
 6715TIP3    H141636   0.517   2.303  14.813  0.0575  1.2760  0.7535
 6715TIP3    H241637   0.388   2.349  14.746  0.3375  1.1978  0.1549
 6716TIP3   OH241638   5.302   0.384  14.542 -0.2333 -0.3848 -0.7057
 6716TIP3    H141639   5.258   0.466  14.565 -0.3188  0.4396 -3.4504
 6716TIP3    H241640   5.374   0.376  14.605 -0.3837  1.6465 -0.2292
 6717TIP3   OH241641   3.536   0.173   3.288 -0.2555  0.2155  0.1101
 6717TIP3    H141642   3.530   0.078   3.297 -2.2091  0.3810  1.0073
 6717TIP3    H241643   3.461   0.197   3.235  0.1443  1.2731  0.0077
 6718TIP3   OH241644   2.181   6.068   1.837 -0.7924  0.1875  0.0153
 6718TIP3    H141645   2.193   5.974   1.853 -0.0504  0.4720  1.2479
 6718TIP3    H241646   2.268   6.106   1.850 -0.7042  0.8568 -2.1320
 6719TIP3   OH241647   2.920   3.440   0.644  0.4461  0.7573 -0.1710
 6719TIP3    H141648   2.841   3.476   0.685 -0.5502  0.9116 -2.1361
 6719TIP3    H241649   2.985   3.440   0.715 -1.3034  0.5578  1.5267
 6720TIP3   OH241650   3.757   0.282   6.003 -0.4040  0.0125 -0.2839
 6720TIP3    H141651   3.816   0.270   6.077  1.6993 -0.6032 -1.9556
 6720TIP3    H241652   3.745   0.377   5.997  0.8384  0.1914 -0.1859
 6721TIP3   OH241653   3.066   5.451   0.165  0.5367 -0.2455  0.7924
 6721TIP3    H141654   2.976   5.485   0.168 -0.2852 -2.2427  0.0437
 6721TIP3    H241655   3.120   5.530   0.164 -1.2536  1.0769 -0.6790
 6722TIP3   OH241656   6.696   3.640  15.749 -0.1615  0.8081 -0.3092
 6722TIP3    H141657   6.767   3.589  15.788  0.7977  2.0018 -0.4260
 6722TIP3    H241658   6.643   3.668  15.823 -0.4466  0.0332 -0.2087
 6723TIP3   OH241659   5.264   0.982  12.059 -0.3323 -0.6743  0.1580
 6723TIP3    H141660   5.286   0.945  12.145 -0.6974 -2.0394 -0.3069
 6723TIP3    H241661   5.278   1.076  12.069  0.8036 -0.9429  1.3542
 6724TIP3   OH241662   6.580   4.642   3.400  0.7541  0.4294 -0.1465
 6724TIP3    H141663   6.586   4.708   3.331  0.2387 -0.0647 -0.6674
 6724TIP3    H241664   6.521   4.682   3.465 -0.8725 -0.1564 -1.2138
 6725TIP3   OH241665   3.158   6.097   1.268 -0.3107 -0.2034  0.3614
 6725TIP3    H141666   3.103   6.053   1.203 -1.6206  0.0818  1.2431
 6725TIP3    H241667   3.132   6.058   1.352  0.8899 -0.0998  0.8052
 6726TIP3   OH241668   3.865   4.408   2.501 -0.7171  0.4793 -0.7228
 6726TIP3    H141669   3.954   4.409   2.467 -0.5565 -1.2892 -0.4533
 6726TIP3    H241670   3.816   4.469   2.446  0.8665  2.2866 -0.2158
 6727TIP3   OH241671   3.490   5.839   4.020  0.0829  0.0807  0.0081
 6727TIP3    H141672   3.548   5.916   4.016 -1.5608  1.4015  0.5789
 6727TIP3    H241673   3.475   5.826   4.113 -1.4756  0.5055 -0.1674
 6728TIP3   OH241674   6.717   2.762   0.247 -0.5339  0.7198  1.1025
 6728TIP3    H141675   6.732   2.820   0.173  0.2216  1.3705  1.7535
 6728TIP3    H241676   6.643   2.801   0.294  0.4639  1.6265  1.9750
 6729TIP3   OH241677   2.936   2.819   3.652 -0.9494 -0.2642 -0.6134
 6729TIP3    H141678   2.892   2.833   3.735 -1.7568 -3.4678 -0.4072
 6729TIP3    H241679   3.010   2.762   3.673 -0.7268 -0.5184 -1.9930
 6730TIP3   OH241680   4.139   6.766   0.265  0.4520  0.0984 -0.3431
 6730TIP3    H141681   4.164   6.855   0.240  1.4328 -0.4284 -1.2895
 6730TIP3    H241682   4.183   6.710   0.202  0.6510 -1.1244  0.8382
 6731TIP3   OH241683   3.178   0.955   3.262  0.3631  0.5931  0.2818
 6731TIP3    H141684   3.129   0.912   3.332  1.6086  0.3137  0.9999
 6731TIP3    H241685   3.238   1.013   3.307  2.3249 -0.7767 -0.4300
 6732TIP3   OH241686   1.228   1.505  16.624  0.0509 -0.1606 -0.5999
 6732TIP3    H141687   1.232   1.501  16.529 -1.9896  0.6300 -0.7704
 6732TIP3    H241688   1.193   1.593  16.643  1.5040  0.1457  0.9442
 6733TIP3   OH241689   0.820   0.937  15.338  0.0638 -0.3486 -0.0671
 6733TIP3    H141690   0.767   1.006  15.297  0.7486 -1.1223 -2.4006
 6733TIP3    H241691   0.829   0.870  15.270  0.3741 -2.2520  1.7429
 6734TIP3   OH241692   4.543   5.813   2.121  0.2558 -0.3436  0.0027
 6734TIP3    H141693   4.632   5.832   2.090 -1.0954  3.8423 -2.0720
 6734TIP3    H241694   4.532   5.866   2.199 -0.1360 -1.6536  0.8640
 6735TIP3   OH241695   4.598   1.301  10.985  0.6373  0.1075  0.2061
 6735TIP3    H141696   4.600   1.360  10.910 -0.7236  0.5627  0.5000
 6735TIP3    H241697   4.552   1.223  10.953  0.5775  0.0570  0.4150
 6736TIP3   OH241698   4.107   5.980  15.498  0.0877  0.0909 -1.1090
 6736TIP3    H141699   4.139   5.895  15.530 -2.6067 -0.0489  1.6830
 6736TIP3    H241700   4.040   5.958  15.434  1.7777  0.2700 -3.0143
 6737TIP3   OH241701   4.132   5.374   4.433  0.0789  0.0948 -0.8016
 6737TIP3    H141702   4.082   5.307   4.386 -1.3159  0.1473  0.5402
 6737TIP3    H241703   4.144   5.338   4.520  0.3707  1.0873 -0.4255
 6738TIP3   OH241704   1.987   2.529   4.492  0.4777 -0.6297 -0.3504
 6738TIP3    H141705   2.029   2.472   4.556  0.4998  0.1112  0.3039
 6738TIP3    H241706   2.018   2.496   4.407  1.8777 -0.5131  0.0851
 6739TIP3   OH241707   6.369   1.079  16.325  0.2304  0.2353 -0.2247
 6739TIP3    H141708   6.433   1.133  16.279  0.2055  1.8681  1.5426
 6739TIP3    H241709   6.329   1.137  16.389 -0.7935 -1.5533  0.8642
 6740TIP3   OH241710   4.247   4.875  12.364  0.3308  0.4101  0.1828
 6740TIP3    H141711   4.183   4.868  12.435 -1.4738  2.2161 -1.1352
 6740TIP3    H241712   4.206   4.829  12.291  1.7110 -0.5667 -0.0142
 6741TIP3   OH241713   5.636   4.693  16.758 -0.1823  1.1068 -0.1000
 6741TIP3    H141714   5.611   4.768  16.703  1.8926 -0.6327 -3.8245
 6741TIP3    H241715   5.583   4.620  16.724  1.2608 -0.0852  0.1098
 6742TIP3   OH241716   3.831   6.222  11.963 -0.1842 -0.1344  0.1148
 6742TIP3    H141717   3.888   6.262  11.897 -0.7909 -0.0628 -0.3818
 6742TIP3    H241718   3.777   6.294  11.995 -1.1288 -0.4860 -0.6226
 6743TIP3   OH241719   3.687   0.063   2.553 -0.6378 -0.3468  0.4306
 6743TIP3    H141720   3.768   0.112   2.544 -0.6991 -0.0315  1.4220
 6743TIP3    H241721   3.650   0.060   2.465  0.4237 -0.4708 -0.0282
 6744TIP3   OH241722   4.214   1.175  13.408 -0.1371 -0.0025  0.2358
 6744TIP3    H141723   4.282   1.214  13.352  0.0229  0.6040  0.8465
 6744TIP3    H241724   4.156   1.248  13.429 -0.8500 -0.4679 -0.0768
 6745TIP3   OH241725   5.668   5.542  14.897  0.4130  0.2327  0.7076
 6745TIP3    H141726   5.701   5.599  14.828  2.7474  1.2357  2.4967
 6745TIP3    H241727   5.696   5.454  14.871 -1.6287  0.0599 -1.1697
 6746TIP3   OH241728   2.598   4.852   3.483  0.2828  0.4672 -0.4983
 6746TIP3    H141729   2.642   4.856   3.399 -0.3542 -0.7810 -0.9192
 6746TIP3    H241730   2.605   4.760   3.510 -1.2358  0.4167 -0.1476
 6747TIP3   OH241731   5.318   4.360   4.089  0.7533 -0.2575 -0.1049
 6747TIP3    H141732   5.357   4.273   4.082  0.0414 -0.5768 -0.2453
 6747TIP3    H241733   5.277   4.361   4.175 -0.3421 -0.5450 -0.6044
 6748TIP3   OH241734   4.986   2.457   1.745  0.3917 -0.6032 -0.0997
 6748TIP3    H141735   4.893   2.459   1.764  0.0965 -2.5617 -1.0996
 6748TIP3    H241736   5.025   2.515   1.810 -1.2546 -1.7476  2.0204
 6749TIP3   OH241737   0.397   3.261  14.889 -0.6614  0.0980 -0.3366
 6749TIP3    H141738   0.483   3.219  14.879 -0.8155 -0.3589  0.2255
 6749TIP3    H241739   0.364   3.228  14.972 -0.2732  2.2567  0.7513
 6750TIP3   OH241740   6.089   2.649   5.685 -0.1806 -0.0705 -0.3474
 6750TIP3    H141741   6.112   2.720   5.744  0.8747 -0.5129 -0.1983
 6750TIP3    H241742   6.104   2.684   5.597 -1.2546  0.4172 -0.3525
 6751TIP3   OH241743   5.322   6.058   1.131 -0.2854 -0.2189  0.5453
 6751TIP3    H141744   5.274   6.129   1.175  1.0498  1.3580 -0.4165
 6751TIP3    H241745   5.347   6.000   1.202  0.8868  1.6964  1.7936
 6752TIP3   OH241746   0.181   1.577  15.284 -0.4583  0.0350 -0.2902
 6752TIP3    H141747   0.212   1.648  15.228 -0.3098  0.6210  0.5224
 6752TIP3    H241748   0.237   1.580  15.361 -2.0449  0.6653  0.8903
 6753TIP3   OH241749   4.038   6.509  11.978 -0.7786  0.1256  0.3115
 6753TIP3    H141750   4.023   6.459  11.898  0.0417 -0.1928  0.3464
 6753TIP3    H241751   4.067   6.595  11.947  1.3439 -0.5528  0.2219
 6754TIP3   OH241752   5.763   2.140  14.211 -0.4561  0.3953 -0.0421
 6754TIP3    H141753   5.737   2.093  14.290 -1.2053  0.4236 -0.2574
 6754TIP3    H241754   5.804   2.073  14.156 -0.8461  0.1458 -0.0387
 6755TIP3   OH241755   1.450   0.966  16.969  0.1845 -0.2062 -0.3544
 6755TIP3    H141756   1.472   1.035  16.906  1.5335  0.0660  0.3947
 6755TIP3    H241757   1.492   0.888  16.934 -0.1981 -0.3557 -0.4855
 6756TIP3   OH241758   2.968   5.727  12.274 -0.2424 -0.6786 -0.1837
 6756TIP3    H141759   3.012   5.728  12.359 -1.5434  0.2096  0.5237
 6756TIP3    H241760   3.019   5.787  12.220  0.6771 -1.3542 -0.0922
 6757TIP3   OH241761   6.013   5.411  11.263  0.3128 -0.0000 -0.2732
 6757TIP3    H141762   5.997   5.398  11.357 -1.2684 -1.1105 -0.6647
 6757TIP3    H241763   6.008   5.506  11.252  1.2732  0.2157  0.8731
 6758TIP3   OH241764   3.332   3.902  11.571  0.0213  0.3129 -0.8069
 6758TIP3    H141765   3.289   3.980  11.537 -0.4883 -0.3316 -1.6844
 6758TIP3    H241766   3.418   3.933  11.600  0.1629  1.0491 -1.9374
 6759TIP3   OH241767   6.627   3.981   1.458  0.5910 -0.1806 -0.3452
 6759TIP3    H141768   6.700   3.922   1.440 -0.2257 -0.9150 -1.3708
 6759TIP3    H241769   6.624   4.041   1.384 -0.4601 -0.8201 -0.8550
 6760TIP3   OH241770   0.390   2.905   5.357 -0.3526  0.1657  0.0447
 6760TIP3    H141771   0.411   2.862   5.274  0.6513 -0.7861  0.7676
 6760TIP3    H241772   0.308   2.864   5.385 -0.8225  0.6526 -0.5536
 6761TIP3   OH241773   4.820   3.755   3.414  0.2136  0.4580  0.7469
 6761TIP3    H141774   4.883   3.766   3.342 -2.4699 -0.7597 -2.0483
 6761TIP3    H241775   4.792   3.844   3.436 -1.3150  0.8574 -2.2389
 6762TIP3   OH241776   5.512   6.469  16.608 -0.0317  0.2813 -0.4666
 6762TIP3    H141777   5.549   6.493  16.523  0.8560 -0.3607 -0.2840
 6762TIP3    H241778   5.559   6.523  16.671  1.3026 -1.1486 -0.1471
 6763TIP3   OH241779   5.248   5.421   0.347  0.1333 -0.5329 -0.0677
 6763TIP3    H141780   5.299   5.450   0.271  1.2481 -0.7684  0.5649
 6763TIP3    H241781   5.298   5.451   0.423 -0.1828 -1.5822  0.5862
 6764TIP3   OH241782   3.082   1.953  10.707 -0.0146  0.6799 -0.1534
 6764TIP3    H141783   3.005   1.995  10.746 -0.1872  0.1731  0.0615
 6764TIP3    H241784   3.061   1.945  10.614 -0.8493 -0.7842  0.1361
 6765TIP3   OH241785   1.792   6.510   5.651  0.3196 -0.7027  0.6696
 6765TIP3    H141786   1.719   6.482   5.706 -0.3894 -0.5239 -0.1620
 6765TIP3    H241787   1.867   6.516   5.711 -0.3533 -0.8474  1.5368
 6766TIP3   OH241788   2.837   6.601   0.177 -0.3476 -0.4343  0.3081
 6766TIP3    H141789   2.804   6.519   0.213 -0.3774 -0.5255  0.0678
 6766TIP3    H241790   2.869   6.579   0.090 -0.8812 -0.0797  0.0183
 6767TIP3   OH241791   2.144   2.838   4.773 -0.7482 -0.0344  0.4692
 6767TIP3    H141792   2.135   2.930   4.748 -1.7390 -0.3607 -0.4839
 6767TIP3    H241793   2.210   2.803   4.712 -0.3722  0.0398  0.8310
 6768TIP3   OH241794   4.142   1.168   5.488  0.3782  0.4413  0.3671
 6768TIP3    H141795   4.107   1.101   5.430  1.5341  0.8967 -0.8892
 6768TIP3    H241796   4.108   1.251   5.453  2.1607  0.8346 -0.5188
 6769TIP3   OH241797   4.316   3.044  14.212  0.0627 -0.4377 -0.2522
 6769TIP3    H141798   4.396   2.991  14.217 -0.3700 -1.0345  0.8194
 6769TIP3    H241799   4.297   3.050  14.119  0.9528 -0.9080 -0.4805
 6770TIP3   OH241800   2.692   5.407  15.304 -0.0059 -0.2685  0.5434
 6770TIP3    H141801   2.697   5.408  15.208  1.2756  0.4301  0.5995
 6770TIP3    H241802   2.719   5.319  15.328 -0.6976 -0.5698  0.2617
 6771TIP3   OH241803   4.972   5.195  11.994 -0.1592 -0.0490 -0.4376
 6771TIP3    H141804   5.009   5.114  11.958 -2.0795 -0.7129 -1.0365
 6771TIP3    H241805   5.024   5.265  11.954  1.6310 -0.9643  0.2082
 6772TIP3   OH241806   6.179   2.428   1.581  0.0526  0.1188 -1.0029
 6772TIP3    H141807   6.193   2.487   1.655 -1.8656 -0.8260  0.2059
 6772TIP3    H241808   6.129   2.479   1.518  1.3817  0.8142 -1.5267
 6773TIP3   OH241809   0.928   2.547  14.092  0.4040 -0.5582  0.2282
 6773TIP3    H141810   0.915   2.626  14.145 -0.9262  0.1258 -1.0274
 6773TIP3    H241811   0.863   2.485  14.126  0.2257 -0.4676  0.0571
 6774TIP3   OH241812   0.564   6.665   3.273 -0.0720  0.1725  0.2522
 6774TIP3    H141813   0.553   6.757   3.296 -0.5262 -0.1816  1.5676
 6774TIP3    H241814   0.545   6.661   3.179 -1.7522  1.1672  0.5045
 6775TIP3   OH241815   2.509   2.144  15.228  0.1888 -0.1341  0.3265
 6775TIP3    H141816   2.571   2.140  15.301 -0.0965 -0.2946  0.5600
 6775TIP3    H241817   2.563   2.126  15.150 -0.1083 -3.9217  0.8146
 6776TIP3   OH241818   5.365   2.690  16.816  0.2739 -0.4418 -0.1685
 6776TIP3    H141819   5.359   2.689  16.911 -4.2687  1.0910 -0.2189
 6776TIP3    H241820   5.372   2.783  16.793 -2.0855 -0.4652 -1.2872
 6777TIP3   OH241821   3.872   5.956  13.904  0.6145 -0.0486 -0.2630
 6777TIP3    H141822   3.921   5.954  13.986 -0.9726 -0.8475  0.7133
 6777TIP3    H241823   3.859   6.049  13.886 -0.3418  0.1482  1.2545
 6778TIP3   OH241824   2.505   2.001  12.478 -0.0994  0.1002 -0.0550
 6778TIP3    H141825   2.562   2.070  12.445 -0.9836  0.5424 -0.7118
 6778TIP3    H241826   2.447   2.046  12.541 -0.2854 -0.1652 -0.0361
 6779TIP3   OH241827   6.772   2.265  14.123 -0.0275 -0.0253 -0.0008
 6779TIP3    H141828   6.856   2.220  14.126 -0.0468 -0.0945 -0.4653
 6779TIP3    H241829   6.778   2.324  14.048 -1.5390 -2.3596 -2.1290
 6780TIP3   OH241830   0.032   4.175   4.049 -0.5009 -0.5749 -0.3373
 6780TIP3    H141831  -0.050   4.150   4.007  0.6859 -1.9313 -1.9679
 6780TIP3    H241832   0.064   4.095   4.090  0.0652 -0.0891  0.1854
 6781TIP3   OH241833   0.846   1.346   3.179  0.1332  0.1280  0.3086
 6781TIP3    H141834   0.761   1.391   3.178 -0.5434 -1.1075 -0.8236
 6781TIP3    H241835   0.841   1.284   3.106  2.8700  1.5515 -1.2738
 6782TIP3   OH241836   6.537   5.033  16.636  0.1358 -0.4392 -0.0229
 6782TIP3    H141837   6.628   5.052  16.662  0.7542 -2.3580 -0.5701
 6782TIP3    H241838   6.489   5.031  16.719  1.0366 -1.3989  0.5175
 6783TIP3   OH241839   6.561   1.179  13.708 -0.1252  0.1137 -0.0946
 6783TIP3    H141840   6.534   1.263  13.743  1.4797  0.4889  0.3194
 6783TIP3    H241841   6.482   1.143  13.668 -0.9400  1.6025  0.1182
 6784TIP3   OH241842   6.250   3.379  14.493 -0.1903  0.2529 -0.0924
 6784TIP3    H141843   6.208   3.454  14.535 -0.9867  0.5879 -1.4064
 6784TIP3    H241844   6.307   3.418  14.427  1.1504 -0.2523  0.7466
 6785TIP3   OH241845   1.742   5.389  12.019  0.1849 -0.1177 -0.5173
 6785TIP3    H141846   1.775   5.357  11.935  1.8229  0.4031 -0.1056
 6785TIP3    H241847   1.745   5.484  12.011 -0.2031 -0.0651 -0.0670
 6786TIP3   OH241848   6.698   0.041  12.065  0.0593  1.0387  0.4838
 6786TIP3    H141849   6.608   0.048  12.098  0.5711 -0.6274  2.4636
 6786TIP3    H241850   6.751   0.030  12.144  1.9408  1.3623 -0.6884
 6787TIP3   OH241851   2.950   6.567  17.072  0.0383 -0.0405 -0.5760
 6787TIP3    H141852   2.985   6.651  17.042  3.2904 -1.0058  0.2045
 6787TIP3    H241853   2.886   6.542  17.005 -0.8521  2.8704 -0.9565
 6788TIP3   OH241854   4.529   3.699  11.906  0.3265  0.6991  0.5712
 6788TIP3    H141855   4.585   3.630  11.872  1.2627  0.5863  2.2711
 6788TIP3    H241856   4.562   3.779  11.864 -0.6549  0.1848 -1.2674
 6789TIP3   OH241857   6.417   2.015  15.650 -0.2659  0.3813  0.5410
 6789TIP3    H141858   6.325   1.999  15.632  0.2796 -0.4192 -1.9947
 6789TIP3    H241859   6.426   2.110  15.649 -1.2073  0.5001  1.8388
 6790TIP3   OH241860   6.499   1.220  12.009  0.2766 -0.2746  0.0923
 6790TIP3    H141861   6.514   1.212  11.914  3.4865 -0.7190  0.5460
 6790TIP3    H241862   6.540   1.143  12.047 -0.7014  0.0443  1.9267
 6791TIP3   OH241863   0.145   0.246   2.066  0.2116 -0.2215 -0.1902
 6791TIP3    H141864   0.137   0.339   2.044  0.6598 -0.0652  0.2593
 6791TIP3    H241865   0.060   0.223   2.103 -0.6858 -0.5923 -2.3550
 6792TIP3   OH241866   5.191   3.877   5.934 -0.4821 -0.5649 -0.3040
 6792TIP3    H141867   5.257   3.911   5.994  0.9729 -1.8711 -1.1037
 6792TIP3    H241868   5.207   3.922   5.851 -2.8447  1.6562  0.3299
 6793TIP3   OH241869   4.026   6.066   2.759  0.1789 -0.7112  0.1800
 6793TIP3    H141870   4.085   6.123   2.809  1.7155 -2.8876  1.0602
 6793TIP3    H241871   3.947   6.061   2.813  0.5849 -0.5244  0.8147
 6794TIP3   OH241872   5.568   6.816  14.989 -0.1805 -0.4936 -0.1675
 6794TIP3    H141873   5.500   6.771  14.941 -0.7864  0.4145 -0.1786
 6794TIP3    H241874   5.553   6.909  14.972  0.0158 -0.1892  1.1884
 6795TIP3   OH241875   2.001   4.072  13.641 -0.1009  0.4632  0.1121
 6795TIP3    H141876   2.039   4.050  13.556 -1.6840 -1.8215 -0.1090
 6795TIP3    H241877   1.910   4.044  13.634 -1.2019  3.2832  1.4874
 6796TIP3   OH241878   1.266   4.890   0.729 -0.2523 -0.4004  0.2530
 6796TIP3    H141879   1.351   4.927   0.704 -0.9700  1.2656  0.1602
 6796TIP3    H241880   1.258   4.909   0.822 -1.4834  1.5588 -0.1897
 6797TIP3   OH241881   4.945   3.463   4.367 -0.8395  0.4201  0.4876
 6797TIP3    H141882   4.992   3.504   4.295 -2.3393  0.2084 -0.6743
 6797TIP3    H241883   4.986   3.497   4.446 -0.5703  2.4017 -0.4475
 6798TIP3   OH241884   4.918   4.465   5.763 -0.3930 -0.8621  0.3025
 6798TIP3    H141885   4.921   4.370   5.777  1.1489 -0.8943 -0.0633
 6798TIP3    H241886   4.910   4.474   5.668 -0.2465 -0.6131  0.3155
 6799TIP3   OH241887   2.248   2.619   2.683  0.0730 -0.1576 -0.3103
 6799TIP3    H141888   2.343   2.625   2.686  0.1961 -1.0756 -1.7409
 6799TIP3    H241889   2.222   2.669   2.606 -0.4221 -1.5403 -1.0698
 6800TIP3   OH241890   6.131   3.093   2.564 -0.8311  0.1290 -0.7278
 6800TIP3    H141891   6.111   3.184   2.584  0.2866 -0.0848  1.6367
 6800TIP3    H241892   6.191   3.065   2.633  0.6453 -1.7680 -2.6427
 6801TIP3   OH241893   2.560   4.470  13.870 -0.2808 -0.1138 -0.5101
 6801TIP3    H141894   2.500   4.444  13.939  0.8999  0.5764  0.8144
 6801TIP3    H241895   2.511   4.454  13.789 -0.8517 -3.2673  0.3091
 6802TIP3   OH241896   4.372   1.073  14.485  0.2383 -0.2842 -0.1944
 6802TIP3    H141897   4.359   1.163  14.515  0.1931 -0.2974 -0.1738
 6802TIP3    H241898   4.284   1.041  14.466  0.1854 -0.5538  0.4642
 6803TIP3   OH241899   6.749   1.570   4.313  0.1981 -0.1441  0.1417
 6803TIP3    H141900   6.741   1.526   4.397 -0.1743  2.3915  1.5474
 6803TIP3    H241901   6.844   1.579   4.300  0.2606 -0.7676  0.1727
 6804TIP3   OH241902   5.834   3.703  11.708  0.4410  0.2240  0.4446
 6804TIP3    H141903   5.822   3.641  11.780 -0.8426 -0.4006 -0.2759
 6804TIP3    H241904   5.893   3.658  11.648 -0.2460 -0.1779  0.0677
 6805TIP3   OH241905   5.722   4.351  14.900 -0.1643 -0.0826 -0.6730
 6805TIP3    H141906   5.666   4.287  14.857  0.0890 -0.0750 -1.0120
 6805TIP3    H241907   5.662   4.421  14.927 -0.1804  0.4463 -1.9952
 6806TIP3   OH241908   1.901   2.633  11.977 -0.0239 -1.0233  0.2583
 6806TIP3    H141909   1.880   2.553  12.025 -1.8153 -0.9090 -0.2724
 6806TIP3    H241910   1.895   2.703  12.042  0.4657 -1.1891  0.4866
 6807TIP3   OH241911   1.367   1.869   4.103  0.0200 -0.2777 -0.0676
 6807TIP3    H141912   1.286   1.862   4.052 -0.3878  0.3032  0.4960
 6807TIP3    H241913   1.379   1.962   4.118  2.3031 -0.0483 -2.5026
 6808TIP3   OH241914   0.132   3.718  12.478 -0.6540 -0.0402 -0.6882
 6808TIP3    H141915   0.091   3.739  12.562 -3.4104 -0.5502 -1.8269
 6808TIP3    H241916   0.217   3.762  12.482 -0.9076  0.3709  2.1462
 6809TIP3   OH241917   1.701   5.410  10.722  0.7330  0.4426 -0.1176
 6809TIP3    H141918   1.675   5.367  10.641 -0.0633  2.0176 -0.7430
 6809TIP3    H241919   1.619   5.442  10.759  1.1995  0.5881  0.8200
 6810TIP3   OH241920   1.646   2.434   5.931 -0.0721  0.0869  0.0988
 6810TIP3    H141921   1.640   2.369   5.860  1.2290  0.3523 -0.2789
 6810TIP3    H241922   1.567   2.419   5.984 -1.6583  0.5843 -1.9759
 6811TIP3   OH241923   5.672   4.167   4.032 -0.3301 -0.1406 -0.1938
 6811TIP3    H141924   5.719   4.240   4.071 -1.4608  0.2287  0.5487
 6811TIP3    H241925   5.726   4.091   4.050  0.5155  0.4124 -0.3508
 6812TIP3   OH241926   2.346   3.731  11.540 -0.0343 -0.1977  0.1853
 6812TIP3    H141927   2.355   3.787  11.463 -0.4673  2.0050  1.6171
 6812TIP3    H241928   2.252   3.719  11.550  0.0061 -0.2619  0.4924
 6813TIP3   OH241929   3.604   2.208   3.690 -0.2911  0.3758  0.1330
 6813TIP3    H141930   3.684   2.245   3.654 -1.7312  2.9121 -0.7264
 6813TIP3    H241931   3.622   2.114   3.698  3.1030  1.0053  1.0844
 6814TIP3   OH241932   1.363   2.116   3.562 -0.3644  0.1088  0.7819
 6814TIP3    H141933   1.381   2.168   3.483 -0.1244 -0.6372  0.3228
 6814TIP3    H241934   1.429   2.046   3.559 -1.5148 -1.0142  0.6398
 6815TIP3   OH241935   3.189   0.893   2.489 -0.2097  0.6520  0.7778
 6815TIP3    H141936   3.262   0.865   2.543 -0.5280  0.9370  1.3603
 6815TIP3    H241937   3.207   0.856   2.403  0.3135  0.2209  1.0716
 6816TIP3   OH241938   5.032   1.567  11.238 -0.0005  0.4350 -0.0858
 6816TIP3    H141939   5.042   1.656  11.205 -0.0527  0.6661  0.5173
 6816TIP3    H241940   4.940   1.562  11.266 -0.9251 -0.7748 -2.9488
 6817TIP3   OH241941   4.526   3.755   0.556  0.2917  0.6014  0.5847
 6817TIP3    H141942   4.463   3.826   0.543  0.6389  0.7047 -0.6939
 6817TIP3    H241943   4.604   3.782   0.507  0.4386 -0.6463  0.0817
 6818TIP3   OH241944   1.871   6.735  11.676  0.0225 -0.7849 -0.0715
 6818TIP3    H141945   1.872   6.647  11.712 -0.8343 -0.7457  0.0791
 6818TIP3    H241946   1.856   6.793  11.751 -0.1797 -0.5793 -0.2637
 6819TIP3   OH241947   3.134   4.716   4.650  0.0341 -0.0133 -0.2926
 6819TIP3    H141948   3.186   4.727   4.571  0.1788 -0.7366 -0.3107
 6819TIP3    H241949   3.110   4.805   4.677 -1.6147  0.1774 -2.1903
 6820TIP3   OH241950   4.850   5.848  11.969  0.2110  0.9860  0.0793
 6820TIP3    H141951   4.867   5.834  12.062  0.2341 -0.0556 -0.0711
 6820TIP3    H241952   4.785   5.919  11.967 -0.0313  0.7991  0.8952
 6821TIP3   OH241953   5.279   2.183  16.424 -0.0705  0.1858 -0.3945
 6821TIP3    H141954   5.269   2.269  16.383 -2.0311  1.3952  2.3872
 6821TIP3    H241955   5.224   2.186  16.502  0.2393 -3.4284  0.1421
 6822TIP3   OH241956   0.709   4.061   3.109  0.2412  0.4049 -0.2064
 6822TIP3    H141957   0.619   4.087   3.131  0.3880 -0.7587  2.0234
 6822TIP3    H241958   0.702   3.971   3.078  0.7217  0.0271  0.7641
 6823TIP3   OH241959   0.958   4.833   2.216  0.2047 -0.6024 -0.1543
 6823TIP3    H141960   0.945   4.813   2.309 -0.3122  0.7413  0.0890
 6823TIP3    H241961   0.874   4.812   2.176 -0.7794  2.0416  0.3158
 6824TIP3   OH241962   2.648   4.931  15.551  0.0412 -0.0445  0.5921
 6824TIP3    H141963   2.604   5.014  15.535  0.7725  0.5348  1.4898
 6824TIP3    H241964   2.578   4.872  15.580 -0.7645 -0.2459 -1.5836
 6825TIP3   OH241965   3.433   2.291  12.022 -0.6121 -0.2323  0.9299
 6825TIP3    H141966   3.423   2.382  12.048  0.5738  0.2612 -0.2805
 6825TIP3    H241967   3.526   2.279  12.006 -0.9020 -1.3264 -0.1161
 6826TIP3   OH241968   2.305   0.387   3.115 -0.3102 -0.5359 -0.4683
 6826TIP3    H141969   2.299   0.295   3.089 -1.1152 -0.0353 -2.1960
 6826TIP3    H241970   2.257   0.435   3.047  0.6876  1.2356 -0.0054
 6827TIP3   OH241971   6.568   1.852  14.205 -0.1930  0.3269 -0.3718
 6827TIP3    H141972   6.583   1.831  14.297 -1.3683  0.8004 -0.0588
 6827TIP3    H241973   6.656   1.861  14.168  0.2946 -0.1278  0.6349
 6828TIP3   OH241974   4.420   3.386  14.253  0.0630  0.3388 -0.5437
 6828TIP3    H141975   4.371   3.402  14.333  0.2861 -1.1792 -0.0740
 6828TIP3    H241976   4.500   3.341  14.282  1.8749  2.8427 -1.2522
 6829TIP3   OH241977   4.843   2.035  14.473  0.5290  1.1974 -0.2771
 6829TIP3    H141978   4.829   2.096  14.400  0.6207  0.3159 -1.0485
 6829TIP3    H241979   4.792   1.958  14.450 -1.8141  1.9523  1.9981
 6830TIP3   OH241980   2.328   1.746   4.542  0.4990  0.0266 -0.1491
 6830TIP3    H141981   2.374   1.813   4.493  0.7740 -1.2731 -1.7358
 6830TIP3    H241982   2.393   1.677   4.556 -0.4080 -0.9504 -0.6505
 6831TIP3   OH241983   0.970   4.384  16.047  0.3228 -0.5804  0.0458
 6831TIP3    H141984   0.981   4.302  15.999  0.8923 -0.5233  0.0792
 6831TIP3    H241985   0.998   4.452  15.985 -0.0903 -0.4124  0.0398
 6832TIP3   OH241986   6.825   1.038  11.907 -0.5914 -0.1471 -0.5168
 6832TIP3    H141987   6.801   1.049  11.999 -2.6856 -0.3633 -0.9878
 6832TIP3    H241988   6.797   0.950  11.885 -1.2180  0.3142 -1.6685
 6833TIP3   OH241989   1.871   5.474   2.947 -0.1742 -0.1026  0.1063
 6833TIP3    H141990   1.792   5.432   2.981  0.0723 -0.9166 -0.3139
 6833TIP3    H241991   1.931   5.476   3.021  1.0850 -3.6052 -0.6135
 6834TIP3   OH241992   3.074   2.081  16.789  0.3808  0.0282  0.4239
 6834TIP3    H141993   3.072   2.172  16.818 -0.5618  0.2677 -0.3435
 6834TIP3    H241994   2.987   2.066  16.752  1.3449 -0.4140 -1.7746
 6835TIP3   OH241995   4.377   6.541   3.202  0.3302  0.2007  0.5539
 6835TIP3    H141996   4.404   6.452   3.226  0.0931  0.2340  0.9704
 6835TIP3    H241997   4.318   6.529   3.128  0.7819  0.0588  0.2146
 6836TIP3   OH241998   2.762   1.582  14.001 -0.5351 -0.0102  0.2832
 6836TIP3    H141999   2.801   1.628  13.926 -0.7680 -0.5148 -0.1586
 6836TIP3    H242000   2.777   1.640  14.075  0.3386  0.1753 -0.0236
 6837TIP3   OH242001   6.549   2.851  12.266  0.3213 -0.2992  0.0925
 6837TIP3    H142002   6.485   2.889  12.205  0.9469  0.3343 -0.1884
 6837TIP3    H242003   6.540   2.757  12.254  0.9965 -0.1925 -1.6016
 6838TIP3   OH242004   0.475   3.132   1.349 -0.8828 -0.7875 -0.6714
 6838TIP3    H142005   0.566   3.109   1.331 -1.2701 -1.2480 -2.2610
 6838TIP3    H242006   0.475   3.163   1.439  0.4945 -2.6118  0.0169
 6839TIP3   OH242007   3.021   0.597  14.877  0.0557 -0.2897 -0.5962
 6839TIP3    H142008   2.996   0.662  14.811  2.2630  0.6291 -0.6325
 6839TIP3    H242009   2.944   0.587  14.933 -1.8238 -0.9241 -3.1177
 6840TIP3   OH242010   2.575   0.151   3.396 -0.0648  0.1388  0.2004
 6840TIP3    H142011   2.483   0.160   3.422 -0.9554 -1.7214 -1.9877
 6840TIP3    H242012   2.595   0.058   3.411  1.4838  0.5011  0.5809
 6841TIP3   OH242013   4.937   4.103  12.649 -0.5511  0.1413  0.6294
 6841TIP3    H142014   5.023   4.076  12.680 -0.0562  0.2794 -0.5488
 6841TIP3    H242015   4.938   4.081  12.556 -1.4554  0.9766  0.4109
 6842TIP3   OH242016   2.906   0.078  12.154 -0.3339  0.2042 -0.0454
 6842TIP3    H142017   2.889   0.154  12.098 -0.1521 -0.7894 -1.5020
 6842TIP3    H242018   2.836   0.080  12.219 -2.3558 -0.1986 -2.0703
 6843TIP3   OH242019   5.269   1.687   0.773  0.1555 -0.2560 -0.2567
 6843TIP3    H142020   5.202   1.726   0.717 -1.2819 -1.0504  0.8396
 6843TIP3    H242021   5.224   1.670   0.856  2.2446  1.0501  1.2448
 6844TIP3   OH242022   4.416   0.126  15.567  0.0766  0.5587  0.4969
 6844TIP3    H142023   4.322   0.144  15.565  0.1346  0.8511 -0.6711
 6844TIP3    H242024   4.447   0.151  15.480  1.1704  0.0943  0.7294
 6845TIP3   OH242025   3.552   1.268   0.914 -0.2542  0.1857 -0.3428
 6845TIP3    H142026   3.544   1.248   1.007 -2.2853 -0.8603 -0.6793
 6845TIP3    H242027   3.603   1.195   0.878 -2.6053 -1.4604 -0.5810
 6846TIP3   OH242028   1.526   6.750   0.513  0.3763  0.0047  0.0846
 6846TIP3    H142029   1.495   6.800   0.438  4.2457  0.1793 -1.6278
 6846TIP3    H242030   1.568   6.814   0.570  0.0934 -0.5334  0.9237
 6847TIP3   OH242031   6.698   2.881  13.172 -0.5453  0.0432  0.1157
 6847TIP3    H142032   6.614   2.875  13.217 -0.4839  1.4796  0.4594
 6847TIP3    H242033   6.753   2.933  13.230 -0.0025  0.6919 -0.9484
 6848TIP3   OH242034   2.791   5.185  11.834  0.6428 -0.0939 -0.1422
 6848TIP3    H142035   2.700   5.172  11.808  0.7230  1.1483 -1.1224
 6848TIP3    H242036   2.785   5.210  11.927  0.1082 -1.2752  0.1681
 6849TIP3   OH242037   3.839   4.710  14.028  0.5700 -0.6657 -0.1937
 6849TIP3    H142038   3.921   4.665  14.047  0.2514 -0.7713  1.0299
 6849TIP3    H242039   3.777   4.639  14.010  0.0878 -0.7818  1.6539
 6850TIP3   OH242040   2.801   4.634  12.882  0.4090 -0.2307  0.4524
 6850TIP3    H142041   2.815   4.664  12.792 -1.8276 -1.1022 -0.2373
 6850TIP3    H242042   2.856   4.556  12.890 -1.4760 -1.8335 -1.1740
 6851TIP3   OH242043   4.728   0.786   4.484  0.6162  0.6330  0.4640
 6851TIP3    H142044   4.645   0.795   4.436  1.3018 -0.1365 -0.9153
 6851TIP3    H242045   4.756   0.876   4.501 -1.3059  0.9443  2.4824
 6852TIP3   OH242046   0.155   5.479   5.002 -0.2380  0.3586  0.1213
 6852TIP3    H142047   0.104   5.550   4.963  0.6858  0.2704 -1.3436
 6852TIP3    H242048   0.234   5.474   4.947 -1.0440 -2.9378 -0.9575
 6853TIP3   OH242049   4.994   5.278   0.820  0.6968 -0.6188  0.0462
 6853TIP3    H142050   4.905   5.241   0.817  0.6423 -0.5612  0.7623
 6853TIP3    H242051   5.023   5.278   0.729 -0.5019  0.4754 -0.3667
 6854TIP3   OH242052   5.661   1.866   1.761 -0.5442  0.3280 -0.1277
 6854TIP3    H142053   5.581   1.820   1.736  0.1719  0.3859 -2.7607
 6854TIP3    H242054   5.732   1.814   1.723  0.5486  1.4228  0.3329
 6855TIP3   OH242055   6.685   0.588  10.409  0.6730 -0.3168 -0.0146
 6855TIP3    H142056   6.605   0.566  10.362  0.7423 -1.8443  0.5250
 6855TIP3    H242057   6.753   0.536  10.366  1.4419  1.0967 -0.5812
 6856TIP3   OH242058   6.451   3.335  16.099 -0.0502 -0.2451 -0.0741
 6856TIP3    H142059   6.532   3.293  16.069  0.1400 -0.3758  0.6039
 6856TIP3    H242060   6.405   3.360  16.019  1.0509  0.5684 -0.4804
 6857TIP3   OH242061   5.800   2.150  10.919  0.1515  0.3005 -0.0086
 6857TIP3    H142062   5.797   2.183  10.830 -0.9510  0.9148  0.2443
 6857TIP3    H242063   5.751   2.214  10.971 -0.2980 -0.6869  0.8281
 6858TIP3   OH242064   6.445   6.415   0.198  0.4542 -0.5890 -0.3824
 6858TIP3    H142065   6.463   6.497   0.153  0.8895  0.2360  1.2083
 6858TIP3    H242066   6.465   6.347   0.134  4.9618  0.3456 -0.3082
 6859TIP3   OH242067   0.930   3.311   5.224 -0.1064  0.0572 -0.0291
 6859TIP3    H142068   0.941   3.217   5.209 -0.1069  0.1542 -0.6595
 6859TIP3    H242069   0.950   3.352   5.139 -0.3176  0.6092  0.1795
 6860TIP3   OH242070   1.219   2.647   0.984  0.0234 -0.1495 -0.2754
 6860TIP3    H142071   1.287   2.606   1.037 -0.1379  0.1333  0.1626
 6860TIP3    H242072   1.214   2.737   1.016 -1.1814 -0.4085  0.3580
 6861TIP3   OH242073   4.504   5.296   3.863 -0.0204 -0.2796  0.0275
 6861TIP3    H142074   4.530   5.250   3.783 -0.4313 -1.5619  0.6087
 6861TIP3    H242075   4.576   5.281   3.924 -1.0183 -1.9106  0.8839
 6862TIP3   OH242076   6.493   2.466  12.719  0.4463 -0.6427  0.2812
 6862TIP3    H142077   6.517   2.378  12.690  3.5142 -0.5015  1.9232
 6862TIP3    H242078   6.483   2.516  12.638  3.6982 -1.4161 -0.7844
 6863TIP3   OH242079   4.404   4.939   2.950 -0.1341  0.4946  0.0615
 6863TIP3    H142080   4.310   4.958   2.946 -0.4725 -0.8594  0.9613
 6863TIP3    H242081   4.425   4.944   3.043 -0.1219 -2.6292  0.3158
 6864TIP3   OH242082   5.093   1.672  13.768  0.0657 -0.1317  0.4344
 6864TIP3    H142083   5.056   1.600  13.717  0.4896 -3.0700  3.8870
 6864TIP3    H242084   5.018   1.726  13.790 -0.8926 -1.4818  0.6136
 6865TIP3   OH242085   2.018   3.006   2.164  0.4461 -0.1001  0.3424
 6865TIP3    H142086   1.928   3.020   2.132  0.6448  2.1948  0.6522
 6865TIP3    H242087   2.008   2.941   2.233 -0.9817  0.0154  0.2872
 6866TIP3   OH242088   5.244   6.287   1.787  0.6317  0.3354  0.0766
 6866TIP3    H142089   5.283   6.368   1.820  1.7008 -0.2718  0.3545
 6866TIP3    H242090   5.318   6.238   1.751 -0.2965  0.4327 -2.1411
 6867TIP3   OH242091   5.884   6.704  13.276  0.0864 -0.1585 -0.3226
 6867TIP3    H142092   5.843   6.728  13.358 -0.3426 -0.1626 -0.5345
 6867TIP3    H242093   5.856   6.614  13.261  0.5571 -0.3232 -0.2312
 6868TIP3   OH242094   1.366   3.400   4.617 -0.3104 -0.4361 -0.4437
 6868TIP3    H142095   1.396   3.487   4.591  4.5339 -1.5725  0.4278
 6868TIP3    H242096   1.336   3.360   4.535  0.1161  1.0888 -1.3954
 6869TIP3   OH242097   6.138   6.328   3.710  0.3691 -0.0892  0.3622
 6869TIP3    H142098   6.142   6.258   3.776  0.1095 -1.2940 -0.8478
 6869TIP3    H242099   6.054   6.371   3.725  1.8886  2.2814  3.2941
 6870TIP3   OH242100   3.924   5.295  15.297 -0.5645 -0.3840  0.2048
 6870TIP3    H142101   3.990   5.271  15.362 -0.5013  0.5714  0.5155
 6870TIP3    H242102   3.912   5.389  15.310  0.0711  0.0063 -1.7086
 6871TIP3   OH242103   4.091   6.192   1.453  0.4327 -0.2148  0.3375
 6871TIP3    H142104   4.112   6.100   1.463 -0.1006 -0.4133 -0.2922
 6871TIP3    H242105   4.006   6.193   1.409 -0.7657  0.5436  2.5182
 6872TIP3   OH242106   2.026   2.990   0.559 -0.4043 -0.3080  0.5632
 6872TIP3    H142107   1.986   2.983   0.646 -4.9415  1.6311 -1.0947
 6872TIP3    H242108   2.020   2.902   0.522 -2.2116 -0.3208  0.8119
 6873TIP3   OH242109   2.799   2.121  15.213  0.3387 -0.2376 -0.4318
 6873TIP3    H142110   2.833   2.188  15.273  0.6232 -1.4357  0.7837
 6873TIP3    H242111   2.783   2.044  15.268 -1.2459 -0.7773 -1.5630
 6874TIP3   OH242112   3.133   6.294   3.694  0.5863 -0.9808 -0.4968
 6874TIP3    H142113   3.224   6.323   3.703 -0.0551  0.9107  0.2267
 6874TIP3    H242114   3.126   6.221   3.755  1.2673 -0.2575  0.4716
 6875TIP3   OH242115   1.373   6.372   2.213  0.2381  0.2083 -0.2342
 6875TIP3    H142116   1.283   6.403   2.205  0.5831  1.6501  1.1245
 6875TIP3    H242117   1.413   6.429   2.278  0.9024 -3.1811  2.6174
 6876TIP3   OH242118   2.437   4.009  11.043 -0.2154 -0.4001 -0.1814
 6876TIP3    H142119   2.461   4.087  10.993 -2.0340  0.9607  0.9173
 6876TIP3    H242120   2.356   3.978  11.002 -0.4294 -0.6778  0.4339
 6877TIP3   OH242121   3.090   4.987  17.137 -0.0614  0.2525  0.2194
 6877TIP3    H142122   3.142   5.032  17.204 -1.4756  1.3501  0.6293
 6877TIP3    H242123   3.091   4.895  17.163  0.3088  0.5072  1.1371
 6878TIP3   OH242124   6.595   1.282   3.348 -0.0430  0.4214  0.1263
 6878TIP3    H142125   6.645   1.364   3.344 -0.9542  0.9701 -0.3944
 6878TIP3    H242126   6.648   1.220   3.299 -0.4423  1.3302 -1.5437
 6879TIP3   OH242127   0.933   5.819   1.723 -0.3095  0.8471  0.2746
 6879TIP3    H142128   0.870   5.770   1.671  2.0182 -0.3701 -1.6471
 6879TIP3    H242129   0.931   5.907   1.685 -0.9726  0.8644  0.3467
 6880TIP3   OH242130   0.857   2.865  15.585  0.2443 -0.3656  0.3520
 6880TIP3    H142131   0.856   2.930  15.655 -1.9336 -1.1488  1.1237
 6880TIP3    H242132   0.856   2.916  15.505 -0.9433  0.5893  0.9399
 6881TIP3   OH242133   4.050   2.115   4.529  0.0558  0.2634  1.2039
 6881TIP3    H142134   4.083   2.026   4.540 -0.1381 -0.0632 -0.5045
 6881TIP3    H242135   3.982   2.124   4.596 -1.4894 -1.7124  0.0533
 6882TIP3   OH242136   6.653   3.201   2.745  0.0229  0.0194  0.4828
 6882TIP3    H142137   6.727   3.260   2.733 -0.4901  0.7775  0.9522
 6882TIP3    H242138   6.686   3.116   2.717  0.4048  0.7372 -1.3748
 6883TIP3   OH242139   6.640   3.650  14.123  0.7997  0.5731 -0.1992
 6883TIP3    H142140   6.710   3.668  14.062 -1.2766  0.6302 -2.7327
 6883TIP3    H242141   6.563   3.692  14.085 -0.7373  0.1469  2.1946
 6884TIP3   OH242142   1.089   1.730  16.610 -0.4163 -0.1571  0.0727
 6884TIP3    H142143   1.096   1.825  16.608 -0.1402 -0.1807 -0.0338
 6884TIP3    H242144   1.047   1.707  16.527 -1.0819 -0.0786  0.3825
 6885TIP3   OH242145   4.417   2.982  14.486  0.4224 -0.7257 -0.2142
 6885TIP3    H142146   4.329   2.961  14.455  0.7402 -1.7648 -0.4383
 6885TIP3    H242147   4.428   2.929  14.565  0.1372  0.8719  0.9468
 6886TIP3   OH242148   2.670   3.809  16.386 -0.2728  1.0466  0.3604
 6886TIP3    H142149   2.598   3.856  16.345  0.1459  1.1945 -0.2292
 6886TIP3    H242150   2.677   3.848  16.474 -1.3317  0.5595  0.6761
 6887TIP3   OH242151   2.303   4.108  15.896  0.1819 -0.0370 -0.3888
 6887TIP3    H142152   2.311   4.073  15.985  2.6266  1.5209  0.1078
 6887TIP3    H242153   2.224   4.162  15.898  1.3690  1.7797  1.5775
 6888TIP3   OH242154   4.362   6.547   1.049  0.2870  0.2181 -0.2081
 6888TIP3    H142155   4.412   6.588   0.979 -0.3093  0.9071 -0.2393
 6888TIP3    H242156   4.345   6.458   1.017 -1.6522  1.0876 -1.8701
 6889TIP3   OH242157   0.859   0.535   6.684  0.6467 -0.0679 -0.0774
 6889TIP3    H142158   0.887   0.490   6.764 -0.2353 -1.3180 -0.4369
 6889TIP3    H242159   0.822   0.618   6.715  0.8799 -0.2649  0.7516
 6890TIP3   OH242160   4.601   5.738  12.404  0.0681  0.0144 -0.2483
 6890TIP3    H142161   4.546   5.663  12.382  2.9026 -2.1459 -0.5231
 6890TIP3    H242162   4.560   5.812  12.359 -1.0402 -1.9993 -2.7955
 6891TIP3   OH242163   2.274   1.260  15.565 -0.8022 -0.4432 -0.3075
 6891TIP3    H142164   2.265   1.272  15.659 -2.2135 -2.0784 -0.1849
 6891TIP3    H242165   2.346   1.318  15.540  0.5861 -1.0454  2.0040
 6892TIP3   OH242166   0.746   3.938  12.323 -0.5295 -0.4037  0.0641
 6892TIP3    H142167   0.780   4.023  12.354 -0.8026 -0.0585 -0.5640
 6892TIP3    H242168   0.670   3.961  12.270  0.6289 -0.8691 -1.8834
 6893TIP3   OH242169   1.840   0.459  11.176 -0.7359  0.1925 -0.1164
 6893TIP3    H142170   1.864   0.421  11.091 -0.1114 -0.5701  0.3818
 6893TIP3    H242171   1.827   0.383  11.232 -0.5100  0.7083  0.6386
 6894TIP3   OH242172   6.813   3.595  14.322 -0.4755  0.2333  0.1957
 6894TIP3    H142173   6.744   3.614  14.259  0.5291  1.2889 -0.6312
 6894TIP3    H242174   6.808   3.500  14.335  0.7041 -0.4320 -3.1958
 6895TIP3   OH242175   2.966   0.310   4.502  0.6830 -0.3407  0.4798
 6895TIP3    H142176   2.912   0.231   4.508 -0.3909  0.4434  1.8198
 6895TIP3    H242177   3.025   0.305   4.578  0.0621  0.5014  1.0402
 6896TIP3   OH242178   1.059   1.995   0.894  0.5321 -0.3409  0.5187
 6896TIP3    H142179   1.114   1.995   0.815  1.9848 -1.6256  1.4604
 6896TIP3    H242180   1.110   2.045   0.958 -0.8762  1.1484  0.5267
 6897TIP3   OH242181   4.549   2.150  11.676  0.0452 -0.7151 -0.2171
 6897TIP3    H142182   4.518   2.237  11.653  1.0583 -0.2329  0.1804
 6897TIP3    H242183   4.638   2.146  11.640  0.1667 -1.4177  0.1491
 6898TIP3   OH242184   5.506   2.247  13.696 -0.3590  0.4980 -0.0557
 6898TIP3    H142185   5.510   2.334  13.735  0.1101 -0.1155  1.3284
 6898TIP3    H242186   5.513   2.187  13.770  2.9751 -0.7597 -1.1892
 6899TIP3   OH242187   2.396   6.480  11.294 -0.4592  0.1265 -0.8648
 6899TIP3    H142188   2.367   6.428  11.370 -0.3107 -0.7378 -1.3840
 6899TIP3    H242189   2.471   6.431  11.260  0.4598  1.3456 -0.6456
 6900TIP3   OH242190   1.243   6.283  15.165  0.2249 -0.0320  0.3787
 6900TIP3    H142191   1.234   6.328  15.249  0.4800  0.5642  0.0896
 6900TIP3    H242192   1.294   6.205  15.185 -0.5895 -0.4311  0.9627
 6901TIP3   OH242193   0.784   4.765   2.024 -0.0162 -0.4150  0.4999
 6901TIP3    H142194   0.697   4.759   1.984 -0.1098  2.1099  0.1560
 6901TIP3    H242195   0.843   4.728   1.958 -0.8096 -2.7417  0.9921
 6902TIP3   OH242196   5.725   4.326  15.418  0.1016 -0.1736  0.6199
 6902TIP3    H142197   5.671   4.341  15.341  1.1965  1.4884  0.1087
 6902TIP3    H242198   5.784   4.255  15.393  1.2200  1.1175 -0.5483
 6903TIP3   OH242199   2.800   2.569   1.826 -0.1454  0.2558 -0.2560
 6903TIP3    H142200   2.830   2.485   1.860  0.9701  0.1564 -1.3708
 6903TIP3    H242201   2.751   2.609   1.898 -0.1724 -1.0738  0.4952
 6904TIP3   OH242202   0.347   0.967  10.833 -0.0021 -0.0785 -0.2164
 6904TIP3    H142203   0.395   0.901  10.782 -1.5599 -0.3392 -1.4404
 6904TIP3    H242204   0.257   0.961  10.801 -0.8019  0.6436  1.7282
 6905TIP3   OH242205   3.544   1.455  14.734  0.2821 -1.0105 -0.3861
 6905TIP3    H142206   3.536   1.360  14.726  1.7600 -1.3772  1.6976
 6905TIP3    H242207   3.462   1.483  14.773 -0.5651 -1.2518 -1.9149
 6906TIP3   OH242208   5.835   4.777   0.077 -0.4546  0.0054 -0.4215
 6906TIP3    H142209   5.848   4.870   0.064  1.9194  0.1860  2.3948
 6906TIP3    H242210   5.858   4.761   0.168 -0.0388 -3.4568 -0.9735
 6907TIP3   OH242211   5.746   5.707  16.438 -0.3546 -0.2631  0.4379
 6907TIP3    H142212   5.828   5.747  16.468 -0.3482  1.8091 -1.9587
 6907TIP3    H242213   5.735   5.630  16.494  3.3198 -0.7659  0.7341
 6908TIP3   OH242214   5.688   6.501  13.853 -0.0799 -0.3741 -0.2412
 6908TIP3    H142215   5.782   6.520  13.856 -0.4986  2.2141 -0.9904
 6908TIP3    H242216   5.646   6.586  13.865 -2.3260 -1.3089 -0.9479
 6909TIP3   OH242217   0.881   0.737   3.435  0.1492  0.2516  0.1375
 6909TIP3    H142218   0.870   0.796   3.360  0.7187 -1.1842 -1.1450
 6909TIP3    H242219   0.905   0.794   3.508 -0.2417  1.6847 -0.8139
 6910TIP3   OH242220   3.617   0.779   0.611  0.0266 -0.0905  0.7241
 6910TIP3    H142221   3.563   0.781   0.532  1.2776 -1.0598 -0.1806
 6910TIP3    H242222   3.613   0.688   0.641 -0.1144  0.1806  1.5727
 6911TIP3   OH242223   5.273   0.479   0.504  0.0196 -0.1085  0.1277
 6911TIP3    H142224   5.317   0.521   0.578  0.1179 -1.5849  0.9491
 6911TIP3    H242225   5.295   0.534   0.429  0.9145  0.7617  0.9884
 6912TIP3   OH242226   6.262   4.890   0.972 -0.4638 -0.5760 -0.3971
 6912TIP3    H142227   6.315   4.947   0.917 -0.8609  0.0598 -0.1357
 6912TIP3    H242228   6.208   4.839   0.911 -0.3289 -0.4479 -0.6203
 6913TIP3   OH242229   1.074   2.394  11.889 -0.0205  0.1912  0.3591
 6913TIP3    H142230   1.023   2.449  11.949 -0.2202  0.3316  0.0634
 6913TIP3    H242231   1.122   2.456  11.834 -2.3254  0.1934 -1.8178
 6914TIP3   OH242232   1.441   3.954  17.044  0.2955 -0.5308 -0.5923
 6914TIP3    H142233   1.444   3.896  16.967 -0.9075 -0.3527 -0.7907
 6914TIP3    H242234   1.356   3.937  17.084  1.0812 -0.9320  0.9747
 6915TIP3   OH242235   4.683   5.549  11.063  0.4800 -0.0693  0.0068
 6915TIP3    H142236   4.667   5.461  11.030  1.5681  0.6296 -2.6337
 6915TIP3    H242237   4.602   5.597  11.043  0.3458 -0.1609  0.3236
 6916TIP3   OH242238   4.781   4.429   4.219 -0.1771 -0.2501 -0.0396
 6916TIP3    H142239   4.792   4.462   4.308  0.1162  0.3422 -0.2896
 6916TIP3    H242240   4.692   4.453   4.195 -0.5880 -1.2443  0.4264
 6917TIP3   OH242241   1.749   3.982  12.730  0.1771  0.4384 -0.1644
 6917TIP3    H142242   1.818   4.045  12.708 -0.4677  2.5071  3.0528
 6917TIP3    H242243   1.795   3.913  12.780  0.4323 -0.2212 -1.2678
 6918TIP3   OH242244   5.095   2.562   0.813 -0.4857  0.0338 -0.0733
 6918TIP3    H142245   5.031   2.573   0.883  0.2629 -0.8167  0.7914
 6918TIP3    H242246   5.133   2.649   0.800 -1.6237  0.4872 -0.4207
 6919TIP3   OH242247   5.628   2.503   0.712 -0.2158  0.3627  0.1002
 6919TIP3    H142248   5.573   2.581   0.709  0.0479  0.5507  0.1131
 6919TIP3    H242249   5.662   2.495   0.623 -0.2482  0.2584  0.0976
 6920TIP3   OH242250   1.663   6.812   2.683  0.0616  0.1371  0.4804
 6920TIP3    H142251   1.623   6.731   2.650  0.0585 -0.1856  1.2318
 6920TIP3    H242252   1.755   6.804   2.660 -0.2761  0.8510 -1.1987
 6921TIP3   OH242253   3.341   5.869   4.582  0.3932  0.4135 -0.4335
 6921TIP3    H142254   3.435   5.889   4.585  0.5137 -0.2501  0.7680
 6921TIP3    H242255   3.331   5.791   4.637 -0.8350  0.3591 -0.7044
 6922TIP3   OH242256   4.528   4.893   2.100  0.1391 -0.0115  0.7258
 6922TIP3    H142257   4.568   4.837   2.167 -0.9708 -1.2539  0.4062
 6922TIP3    H242258   4.507   4.974   2.145  1.2062 -0.0678  1.3667
 6923TIP3   OH242259   5.743   5.566   3.906  0.5052 -0.3437  0.7960
 6923TIP3    H142260   5.671   5.514   3.871  0.6771 -0.3379  0.4284
 6923TIP3    H242261   5.767   5.523   3.988  0.1892 -0.4373  0.8387
 6924TIP3   OH242262   2.619   5.411   5.793  0.2459  0.0905  0.1557
 6924TIP3    H142263   2.691   5.434   5.734 -0.1965 -1.6606 -1.1681
 6924TIP3    H242264   2.663   5.371   5.869  0.7202  0.0586 -0.1301
 6925TIP3   OH242265   5.187   0.749  11.253 -0.4834 -0.2631  0.4231
 6925TIP3    H142266   5.113   0.789  11.298  0.2070  0.3588  1.0436
 6925TIP3    H242267   5.256   0.816  11.256  1.3624 -2.0724  3.1610
 6926TIP3   OH242268   6.422   5.481  15.258 -0.7079 -0.4527  0.2455
 6926TIP3    H142269   6.333   5.476  15.291 -0.6308 -0.2393  0.4900
 6926TIP3    H242270   6.420   5.549  15.191 -0.3515  0.8511  1.5033
 6927TIP3   OH242271   2.068   3.590  16.971  0.3038 -0.4271  0.0110
 6927TIP3    H142272   2.162   3.580  16.953  0.4001  0.3886  0.0120
 6927TIP3    H242273   2.025   3.535  16.905  0.8009 -1.7441  0.7524
 6928TIP3   OH242274   2.930   2.251  15.008 -0.6084  0.0170  0.1968
 6928TIP3    H142275   3.016   2.250  15.049 -1.4460 -1.1832  2.0811
 6928TIP3    H242276   2.871   2.213  15.074 -2.5425  0.5672 -1.1082
 6929TIP3   OH242277   3.598   1.399   2.817  0.2088  0.3411  0.0875
 6929TIP3    H142278   3.616   1.482   2.861  1.1954 -0.6347  1.6380
 6929TIP3    H242279   3.624   1.413   2.726 -0.3494  1.9329  0.1493
 6930TIP3   OH242280   1.429   1.367  12.486 -0.1321  0.6965 -0.0236
 6930TIP3    H142281   1.503   1.369  12.425 -1.0402 -0.0159 -1.1891
 6930TIP3    H242282   1.452   1.301  12.550 -0.2303 -0.3609 -1.0444
 6931TIP3   OH242283   4.850   5.807  16.842 -0.5814  0.5740 -0.2887
 6931TIP3    H142284   4.912   5.879  16.845  1.0348 -0.7121 -1.1536
 6931TIP3    H242285   4.815   5.809  16.753  1.1956 -1.0139 -1.0954
 6932TIP3   OH242286   4.811   3.053   3.366  0.1508 -0.5945 -0.0249
 6932TIP3    H142287   4.892   3.045   3.315 -0.8226 -0.0535 -1.7583
 6932TIP3    H242288   4.745   3.078   3.301 -1.6504 -2.0850  1.1305
 6933TIP3   OH242289   6.840   2.442  12.591  0.2354 -0.2283 -0.1402
 6933TIP3    H142290   6.905   2.376  12.612  0.5879  0.0457 -0.3470
 6933TIP3    H242291   6.891   2.523  12.581  0.0570 -0.2680 -1.6300
 6934TIP3   OH242292   0.164   2.235  12.662  0.0128 -0.4105 -0.1721
 6934TIP3    H142293   0.154   2.165  12.727  0.6675 -0.1145  0.2518
 6934TIP3    H242294   0.245   2.279  12.686 -0.5563  0.7050 -0.2489
 6935TIP3   OH242295   3.456   4.937   1.073  0.5184  0.4872 -0.1608
 6935TIP3    H142296   3.380   4.880   1.085 -1.4104  2.4340 -2.0462
 6935TIP3    H242297   3.519   4.884   1.024 -0.4801 -0.5464 -0.3573
 6936TIP3   OH242298   6.294   1.110  12.272 -0.1566  0.2598  0.0342
 6936TIP3    H142299   6.296   1.025  12.228 -1.0915  0.1858  0.1276
 6936TIP3    H242300   6.232   1.163  12.222 -1.8797 -0.0842  1.6797
 6937TIP3   OH242301   2.672   5.584   4.394  0.4793 -0.1889  0.3084
 6937TIP3    H142302   2.592   5.532   4.398 -0.3374  0.8761 -1.0271
 6937TIP3    H242303   2.648   5.660   4.340  2.2576  0.3989  0.2873
 6938TIP3   OH242304   2.614   6.134  16.383 -0.5325  0.4887 -0.6749
 6938TIP3    H142305   2.653   6.070  16.324 -1.7712 -0.8957 -0.0672
 6938TIP3    H242306   2.540   6.169  16.334  0.1165  1.4550 -0.9889
 6939TIP3   OH242307   5.135   5.863  11.236  0.1018 -0.3817  0.1940
 6939TIP3    H142308   5.168   5.778  11.209  2.0562  0.3114  0.2636
 6939TIP3    H242309   5.160   5.922  11.164  1.0837  0.5917  1.3003
 6940TIP3   OH242310   1.008   2.879  13.611 -0.1824  0.0939  0.4761
 6940TIP3    H142311   1.039   2.914  13.694  0.5051  0.0347  0.2476
 6940TIP3    H242312   1.035   2.787  13.611 -0.2539  0.0700  0.2292
 6941TIP3   OH242313   4.038   0.569  14.258 -0.0099 -0.7809 -0.1802
 6941TIP3    H142314   4.052   0.551  14.165 -0.8543  0.3592 -0.5467
 6941TIP3    H242315   4.086   0.651  14.274  0.6633 -1.3071  0.5470
 6942TIP3   OH242316   2.721   0.885   6.393  0.3061  0.2190 -0.3402
 6942TIP3    H142317   2.780   0.928   6.456  0.3842 -0.6574  0.2011
 6942TIP3    H242318   2.691   0.956   6.337  0.5779  0.9554  0.4176
 6943TIP3   OH242319   6.340   6.054   4.925 -0.0184  0.4353  0.3368
 6943TIP3    H142320   6.295   6.008   4.853 -0.5031  0.1777  0.7955
 6943TIP3    H242321   6.272   6.110   4.963  0.5211  1.3971 -0.0952
 6944TIP3   OH242322   2.366   4.311  12.560  0.1564  0.0962 -0.0679
 6944TIP3    H142323   2.288   4.267  12.595  0.0162  0.4867  0.1212
 6944TIP3    H242324   2.433   4.297  12.626  0.4989 -0.9728 -0.6194
 6945TIP3   OH242325   2.375   6.038  16.611  0.0753 -0.1670 -0.6294
 6945TIP3    H142326   2.331   6.077  16.687  0.8734 -0.9162  0.2405
 6945TIP3    H242327   2.437   6.105  16.582  1.6448 -0.8048  1.0300
 6946TIP3   OH242328   6.032   2.230  15.674  0.3848 -0.3432 -0.0491
 6946TIP3    H142329   5.957   2.196  15.625  0.2469 -1.0455  0.6274
 6946TIP3    H242330   6.001   2.240  15.764  0.8998  0.0390  0.0966
 6947TIP3   OH242331   2.857   4.711   5.536  0.3786  0.1701  0.6179
 6947TIP3    H142332   2.881   4.791   5.583 -0.1254  0.4553  0.3943
 6947TIP3    H242333   2.940   4.678   5.502  0.3886  1.6116 -0.8777
 6948TIP3   OH242334   3.835   1.892   6.152 -0.5385  0.3155  0.0167
 6948TIP3    H142335   3.828   1.877   6.246  1.1005 -0.3728  0.0655
 6948TIP3    H242336   3.818   1.807   6.112 -0.8130  0.5116 -0.2904
 6949TIP3   OH242337   2.476   3.775   2.797 -0.2828 -0.0835  0.0791
 6949TIP3    H142338   2.512   3.704   2.849  0.9620  0.5609  0.1329
 6949TIP3    H242339   2.484   3.746   2.706 -1.2626 -0.6635  0.1612
 6950TIP3   OH242340   5.761   5.721  15.243 -0.1025 -0.2134  0.7259
 6950TIP3    H142341   5.683   5.700  15.191  2.2511 -2.6238 -2.1744
 6950TIP3    H242342   5.806   5.788  15.192  0.6753 -0.2389  1.3670
 6951TIP3   OH242343   1.568   3.065   5.099  0.4784 -0.3289 -0.1008
 6951TIP3    H142344   1.495   3.089   5.157 -0.5493  0.9872 -1.8225
 6951TIP3    H242345   1.538   2.986   5.056  0.7789 -0.6947  0.3508
 6952TIP3   OH242346   3.042   3.519   5.542 -0.4162 -0.5184  0.0526
 6952TIP3    H142347   2.949   3.539   5.531 -0.2159 -0.1771 -1.1364
 6952TIP3    H242348   3.055   3.435   5.498 -0.8311 -2.4450  3.2716
 6953TIP3   OH242349   3.035   0.605   1.278  0.0432  0.4811 -0.0038
 6953TIP3    H142350   3.045   0.700   1.267 -0.7192  0.4282 -1.3307
 6953TIP3    H242351   3.074   0.587   1.363  0.2268  1.9839  0.2600
 6954TIP3   OH242352   6.371   1.090  14.293 -0.8263  0.0762 -0.4235
 6954TIP3    H142353   6.370   1.181  14.321  0.1669  0.4998 -1.6528
 6954TIP3    H242354   6.387   1.040  14.373 -0.0889  1.0742  0.0734
 6955TIP3   OH242355   6.259   5.909   1.006  0.0082  0.0032  0.3704
 6955TIP3    H142356   6.202   5.910   0.929  0.8211  1.0087 -0.2430
 6955TIP3    H242357   6.247   5.996   1.045 -0.4886 -0.5392  1.4662
 6956TIP3   OH242358   3.472   1.129   6.525  0.1632  0.7396  0.4424
 6956TIP3    H142359   3.482   1.062   6.458 -0.2452  3.0882 -2.1657
 6956TIP3    H242360   3.394   1.103   6.574  0.9400 -1.4653  0.5860
 6957TIP3   OH242361   4.215   4.131  14.212 -0.5166 -0.3252 -0.1278
 6957TIP3    H142362   4.123   4.132  14.186 -0.9442  2.1782  1.1512
 6957TIP3    H242363   4.214   4.153  14.305  1.3930  0.6999 -0.3003
 6958TIP3   OH242364   3.486   0.127  14.188 -0.2237 -0.0631  0.5856
 6958TIP3    H142365   3.452   0.088  14.269 -0.4934 -1.7331 -0.2982
 6958TIP3    H242366   3.419   0.192  14.164  0.2837  1.1002  2.1274
 6959TIP3   OH242367   0.254   6.619  11.795 -0.0316  0.4683  0.4082
 6959TIP3    H142368   0.276   6.587  11.707 -1.2757  1.2173 -0.2052
 6959TIP3    H242369   0.170   6.662  11.784  1.2792  3.5078  1.2707
 6960TIP3   OH242370   1.675   0.137  15.631  0.2287 -0.2664 -0.0344
 6960TIP3    H142371   1.653   0.216  15.680  0.2193 -0.1988 -0.1462
 6960TIP3    H242372   1.596   0.116  15.583 -0.5519 -1.6622  1.7410
 6961TIP3   OH242373   5.637   0.892  12.339 -0.1972  0.1719 -0.1324
 6961TIP3    H142374   5.715   0.888  12.395  1.4618 -0.7512 -2.3479
 6961TIP3    H242375   5.670   0.872  12.252 -2.3791  3.0561 -1.7665
 6962TIP3   OH242376   1.807   3.720   5.582 -0.2519  0.3549  0.7534
 6962TIP3    H142377   1.711   3.720   5.584 -0.3743  0.1784 -2.0215
 6962TIP3    H242378   1.830   3.812   5.566  0.1630  0.6461  2.7490
 6963TIP3   OH242379   2.150   6.371  11.136  0.7470  0.3250  0.0147
 6963TIP3    H142380   2.196   6.303  11.185  1.7360 -0.5698 -2.0253
 6963TIP3    H242381   2.105   6.423  11.203  2.3616 -0.5313  1.8583
 6964TIP3   OH242382   4.960   2.537  15.677  0.4976  0.1255  0.5608
 6964TIP3    H142383   4.933   2.534  15.768  1.8598  1.3743  1.0467
 6964TIP3    H242384   5.053   2.514  15.678  0.0850 -1.8975 -0.7935
 6965TIP3   OH242385   6.484   6.553  17.124  0.1466  0.1320 -0.1915
 6965TIP3    H142386   6.392   6.549  17.101  0.1645 -0.9377 -0.1140
 6965TIP3    H242387   6.525   6.605  17.054 -0.7483  1.9870  0.6007
 6966TIP3   OH242388   6.373   3.467  10.392 -0.3825  0.0628  0.4099
 6966TIP3    H142389   6.374   3.562  10.380  0.6690 -0.0306 -0.3472
 6966TIP3    H242390   6.314   3.453  10.466 -0.9226  1.2641  0.2239
 6967TIP3   OH242391   1.439   3.038  16.707 -0.6672 -0.1601 -0.1410
 6967TIP3    H142392   1.516   3.065  16.658  0.4187 -0.0020  1.5456
 6967TIP3    H242393   1.388   3.118  16.718  0.0069  0.2061  0.4988
 6968TIP3   OH242394   1.128   1.369   6.150  0.9126 -0.1573 -0.1214
 6968TIP3    H142395   1.071   1.436   6.189 -1.0047 -0.7560 -1.7580
 6968TIP3    H242396   1.183   1.339   6.223 -1.3106 -0.0204  1.7185
 6969TIP3   OH242397   5.873   6.675   3.584  0.2303 -0.3191  0.1077
 6969TIP3    H142398   5.941   6.741   3.597  2.2369 -2.3138  0.2474
 6969TIP3    H242399   5.813   6.687   3.657  0.4454  1.4254  0.0332
 6970TIP3   OH242400   1.325   5.463  11.186  0.4968  0.4529 -0.3810
 6970TIP3    H142401   1.238   5.473  11.226  0.8521 -1.0158  0.8821
 6970TIP3    H242402   1.319   5.510  11.103 -1.2138  1.1526  0.0907
 6971TIP3   OH242403   5.798   0.776  12.555 -0.1903  0.1662 -0.0291
 6971TIP3    H142404   5.866   0.837  12.585  0.2739  0.0194 -0.7726
 6971TIP3    H242405   5.783   0.718  12.631 -2.0565  2.3649  1.4256
 6972TIP3   OH242406   1.055   1.516  15.079 -0.0160  0.4820  0.2238
 6972TIP3    H142407   1.018   1.500  15.166 -0.1567 -0.6548 -0.0271
 6972TIP3    H242408   0.979   1.515  15.020  0.0320  1.6311  0.1138
 6973TIP3   OH242409   2.202   1.482  13.688 -0.0204  0.0562 -0.1581
 6973TIP3    H142410   2.194   1.406  13.747  1.6797 -0.8633 -1.0366
 6973TIP3    H242411   2.129   1.472  13.626 -1.6276  0.8478  1.5060
 6974TIP3   OH242412   1.445   2.908  13.643  0.3766  0.3675 -0.3840
 6974TIP3    H142413   1.435   2.954  13.560  1.3725  1.2835 -0.0226
 6974TIP3    H242414   1.530   2.864  13.636 -0.5475 -1.4317 -0.7125
 6975TIP3   OH242415   1.100   4.362  10.381 -0.2855  0.0829  0.0856
 6975TIP3    H142416   1.104   4.296  10.311 -1.7271  0.6727 -0.5920
 6975TIP3    H242417   1.072   4.312  10.459  3.1496 -0.9504  0.8360
 6976TIP3   OH242418   6.081   3.272   4.447 -0.0061 -0.1861  0.2350
 6976TIP3    H142419   5.989   3.258   4.469 -0.4041  0.8188 -0.6982
 6976TIP3    H242420   6.080   3.291   4.353  0.8838  2.0753  0.6323
 6977TIP3   OH242421   2.676   3.343  15.749  0.7079 -0.1429 -0.4258
 6977TIP3    H142422   2.691   3.437  15.738  1.0973 -0.0927  0.4299
 6977TIP3    H242423   2.642   3.314  15.664  1.4568  0.5979 -1.0062
 6978TIP3   OH242424   3.066   4.903   0.773  0.1542 -0.5378  0.8857
 6978TIP3    H142425   3.160   4.895   0.759 -0.0109 -2.4159  0.5808
 6978TIP3    H242426   3.052   4.873   0.863 -0.0849  0.5024  1.2108
 6979TIP3   OH242427   1.947   0.590   1.802  0.4899 -0.1724  0.0118
 6979TIP3    H142428   1.967   0.680   1.775 -3.4410  0.8304 -0.0820
 6979TIP3    H242429   2.032   0.546   1.802  2.7788  3.7769  1.1436
 6980TIP3   OH242430   2.365   2.473   1.864 -0.0563 -0.7599  0.0839
 6980TIP3    H142431   2.396   2.418   1.792  0.5747 -1.1658  0.6523
 6980TIP3    H242432   2.424   2.452   1.937 -0.9409 -0.6565  0.8426
 6981TIP3   OH242433   4.963   2.222   4.303  0.2906 -0.6342  0.3796
 6981TIP3    H142434   4.960   2.169   4.383  0.9497 -0.7270  0.3476
 6981TIP3    H242435   4.917   2.170   4.238  1.2507 -1.3506  0.2514
 6982TIP3   OH242436   6.687   5.811   3.472 -0.4192  0.0834  0.0644
 6982TIP3    H142437   6.736   5.756   3.411 -0.3337 -0.7445  0.8652
 6982TIP3    H242438   6.601   5.821   3.431 -0.1414  0.1140 -0.5197
 6983TIP3   OH242439   2.592   3.265   5.190  0.3653 -0.0951 -0.3873
 6983TIP3    H142440   2.673   3.224   5.221 -0.5143 -0.9234  0.9345
 6983TIP3    H242441   2.589   3.349   5.236 -0.3231 -0.7948  0.9218
 6984TIP3   OH242442   5.501   5.048   1.217  0.1085  0.0483 -0.3399
 6984TIP3    H142443   5.566   5.003   1.162  2.0645  2.3084 -0.0258
 6984TIP3    H242444   5.431   5.072   1.157 -0.0596 -1.6273 -0.8734
 6985TIP3   OH242445   5.680   6.022  15.998 -0.2841 -0.0701  0.3489
 6985TIP3    H142446   5.756   6.039  15.943 -1.7663  1.2208 -1.4666
 6985TIP3    H242447   5.642   5.941  15.963  0.4187 -0.9126  1.4849
 6986TIP3   OH242448   1.796   4.371  10.830  0.1333 -0.2294 -0.1269
 6986TIP3    H142449   1.829   4.376  10.740  1.4651 -1.8250  0.2201
 6986TIP3    H242450   1.718   4.315  10.823  1.0904 -1.6212 -0.1253
 6987TIP3   OH242451   6.245   2.591   5.430 -0.0620  0.8079  0.8929
 6987TIP3    H142452   6.294   2.652   5.375  1.3139 -0.2349  0.9050
 6987TIP3    H242453   6.297   2.583   5.510 -0.5821  0.1589  1.1770
 6988TIP3   OH242454   1.063   1.419  12.957  0.4460 -0.3116  0.1863
 6988TIP3    H142455   0.985   1.395  13.007  0.2937 -0.0035  0.1002
 6988TIP3    H242456   1.069   1.352  12.888 -0.0587 -0.0251 -0.1427
 6989TIP3   OH242457   3.921   5.597  11.984  0.1478  0.5200  0.4035
 6989TIP3    H142458   3.835   5.557  11.976  0.5314 -0.1091 -0.9072
 6989TIP3    H242459   3.949   5.578  12.073  0.4501 -2.5065 -0.2133
 6990TIP3   OH242460   6.434   3.690   0.759 -0.0760 -0.2657 -0.2917
 6990TIP3    H142461   6.403   3.640   0.684 -1.1791  0.6271 -0.4556
 6990TIP3    H242462   6.392   3.649   0.834 -0.5592  0.0673 -0.3739
 6991TIP3   OH242463   3.787   3.989   5.831  0.5415  0.2837 -0.4054
 6991TIP3    H142464   3.797   3.894   5.824  1.1176  0.2053  1.0949
 6991TIP3    H242465   3.693   4.005   5.823  0.6313 -0.1132 -3.3644
 6992TIP3   OH242466   5.237   5.210  13.988 -0.6459  0.5626  0.2089
 6992TIP3    H142467   5.202   5.122  14.002 -1.6589  0.6168 -1.6540
 6992TIP3    H242468   5.163   5.261  13.956  0.4565  1.4851 -1.0015
 6993TIP3   OH242469   4.938   1.801   3.656  0.1162  0.5372  0.4150
 6993TIP3    H142470   5.003   1.738   3.625 -2.9036 -1.7720 -1.8498
 6993TIP3    H242471   4.892   1.828   3.577 -1.4333  2.4113  1.8667
 6994TIP3   OH242472   0.756   5.934  14.509  0.2766 -0.0691 -0.0425
 6994TIP3    H142473   0.801   5.858  14.546  1.8709  0.5416 -0.6643
 6994TIP3    H242474   0.788   5.940  14.419  0.7740  1.7878  0.2355
 6995TIP3   OH242475   0.910   3.992  11.397 -0.3771  0.4219 -0.1149
 6995TIP3    H142476   0.974   4.033  11.339 -1.2473 -1.2796 -2.4349
 6995TIP3    H242477   0.930   3.899  11.394 -2.1906 -0.0164  0.0732
 6996TIP3   OH242478   3.590   4.023  10.578  0.1688 -0.3461 -0.5247
 6996TIP3    H142479   3.536   4.046  10.502 -1.0941  1.3868  0.8281
 6996TIP3    H242480   3.646   4.099  10.591  2.5268 -1.8350 -1.4570
 6997TIP3   OH242481   6.564   0.758  16.085  0.4840  0.8111 -0.5164
 6997TIP3    H142482   6.543   0.665  16.077  2.3751  0.2371  0.5102
 6997TIP3    H242483   6.610   0.765  16.169  0.3395  2.6832 -0.5570
 6998TIP3   OH242484   4.634   2.189   5.477 -1.2459  0.3771  0.2471
 6998TIP3    H142485   4.724   2.180   5.446 -1.1653  0.9725  0.2801
 6998TIP3    H242486   4.631   2.141   5.559 -0.4280  1.8998  1.2271
 6999TIP3   OH242487   3.674   3.319  15.457  0.4500  0.0978 -0.2338
 6999TIP3    H142488   3.598   3.261  15.457  0.9632 -0.5904 -0.3631
 6999TIP3    H242489   3.639   3.404  15.431 -0.2738 -0.2123 -0.3057
 7000TIP3   OH242490   4.025   5.133  14.060  0.0500 -0.0505  0.3966
 7000TIP3    H142491   4.026   5.222  14.026  1.2728 -0.1914  0.0129
 7000TIP3    H242492   4.001   5.079  13.985  1.8725 -0.2733 -0.0789
 7001TIP3   OH242493   1.565   0.628   4.618  0.0955 -0.2138 -0.1934
 7001TIP3    H142494   1.586   0.693   4.685 -0.0648  0.6642 -0.9868
 7001TIP3    H242495   1.629   0.558   4.631 -1.3342 -1.2143  2.3900
 7002TIP3   OH242496   3.217   2.515  14.522 -0.4500  0.3027  0.2093
 7002TIP3    H142497   3.194   2.448  14.586  0.6040 -0.9785 -0.7082
 7002TIP3    H242498   3.139   2.522  14.466 -0.0999 -1.1555 -0.5033
 7003TIP3   OH242499   4.757   1.205   4.274  1.0898  0.3406 -0.3517
 7003TIP3    H142500   4.681   1.155   4.245  0.3240  1.4880 -0.3750
 7003TIP3    H242501   4.809   1.218   4.196  2.1744 -1.8465 -0.0537
 7004TIP3   OH242502   6.635   1.637  13.310 -0.3590 -0.2922  0.0975
 7004TIP3    H142503   6.697   1.638  13.237  0.5808 -0.3525  0.8756
 7004TIP3    H242504   6.686   1.669  13.385 -1.3780  0.0191  0.6741
 7005TIP3   OH242505   0.573   2.419   1.221  0.6310 -0.2473  0.6419
 7005TIP3    H142506   0.609   2.487   1.165 -0.2909 -1.2026 -1.1845
 7005TIP3    H242507   0.555   2.464   1.304  0.5726  1.5938 -0.3077
 7006TIP3   OH242508   0.586   5.479   2.941  0.0754  0.3524 -0.3387
 7006TIP3    H142509   0.546   5.415   3.000 -1.2790 -0.0536 -1.6442
 7006TIP3    H242510   0.574   5.563   2.985 -1.4028  0.1216 -0.2601
 7007TIP3   OH242511   4.850   5.766  13.283 -0.3493  0.3558 -0.1468
 7007TIP3    H142512   4.902   5.704  13.335  0.7600  2.6682  1.6989
 7007TIP3    H242513   4.771   5.780  13.335 -0.2850  0.9570 -0.1990
 7008TIP3   OH242514   3.897   3.876  11.620 -0.2102  0.7264 -0.3306
 7008TIP3    H142515   3.902   3.782  11.633 -0.2704  0.6956 -0.5335
 7008TIP3    H242516   3.986   3.907  11.635 -0.2494  0.6738  0.0195
 7009TIP3   OH242517   0.440   0.730   0.215  0.2376  0.0897  0.0373
 7009TIP3    H142518   0.513   0.704   0.271  1.2543 -0.7663 -1.6081
 7009TIP3    H242519   0.362   0.704   0.263  1.0999 -1.1812  0.8027
 7010TIP3   OH242520   0.363   3.305   6.207 -0.2920  0.2936  0.4070
 7010TIP3    H142521   0.357   3.221   6.251 -1.1291 -1.5509 -2.9194
 7010TIP3    H242522   0.296   3.359   6.248  0.7788 -0.2912  3.1361
 7011TIP3   OH242523   3.047   2.815   4.838 -0.8261  0.7745 -0.4108
 7011TIP3    H142524   3.097   2.836   4.759 -1.1455 -1.0580 -1.1591
 7011TIP3    H242525   2.956   2.824   4.812 -0.9343  0.0253 -0.3017
 7012TIP3   OH242526   4.255   5.845  10.991  0.1555 -0.2973  0.3463
 7012TIP3    H142527   4.187   5.881  10.935  0.6440 -2.2536 -1.6722
 7012TIP3    H242528   4.315   5.918  11.009 -1.3408  0.9365  0.4349
 7013TIP3   OH242529   0.899   3.264  15.319 -0.3689  0.3030 -0.8111
 7013TIP3    H142530   0.850   3.337  15.357 -0.9275  0.3553 -1.6227
 7013TIP3    H242531   0.906   3.285  15.226  1.9486  0.7160 -0.6058
 7014TIP3   OH242532   2.689   2.905  14.117  0.5683  0.6520  0.1577
 7014TIP3    H142533   2.716   2.821  14.079  1.9621 -0.1889  2.8151
 7014TIP3    H242534   2.617   2.882  14.176  1.9009  1.0179  2.0014
 7015TIP3   OH242535   0.531   4.781   1.249 -0.4710  0.3217  0.2037
 7015TIP3    H142536   0.531   4.870   1.214 -2.4156  0.6546  0.9280
 7015TIP3    H242537   0.619   4.770   1.285  1.1162  0.5200 -3.2165
 7016TIP3   OH242538   5.877   6.098   3.659 -0.2643  0.3907  0.0878
 7016TIP3    H142539   5.846   6.014   3.691  1.6962  0.1962  1.6882
 7016TIP3    H242540   5.819   6.162   3.699 -0.1988 -0.0741  0.9400
 7017TIP3   OH242541   1.222   4.170   5.991 -0.6363  0.6492 -0.3106
 7017TIP3    H142542   1.205   4.262   6.012  0.7891  0.8832 -0.0157
 7017TIP3    H242543   1.168   4.121   6.053 -0.7242  1.3044  0.1484
 7018TIP3   OH242544   1.857   1.988  13.450  0.6838 -0.0944  0.2013
 7018TIP3    H142545   1.841   1.895  13.438  1.1100 -0.0495 -0.8485
 7018TIP3    H242546   1.774   2.030  13.427  1.1375 -0.0925 -1.6077
 7019TIP3   OH242547   6.687   1.855  15.174  0.1638  0.0597  0.5455
 7019TIP3    H142548   6.613   1.844  15.233  0.7164 -0.4524  1.1665
 7019TIP3    H242549   6.708   1.766  15.145 -1.8589  0.4788 -2.7195
 7020TIP3   OH242550   0.303   5.791   1.157  0.1654  0.0755  0.3538
 7020TIP3    H142551   0.318   5.749   1.073  1.1479  0.8927  0.0954
 7020TIP3    H242552   0.209   5.786   1.171  0.0154 -0.2225 -0.7091
 7021TIP3   OH242553   4.308   2.795   4.448 -0.5210  0.2739  0.2465
 7021TIP3    H142554   4.393   2.753   4.463 -0.9942 -0.5983  0.5659
 7021TIP3    H242555   4.316   2.881   4.490 -0.2233 -0.2930  1.3786
 7022TIP3   OH242556   5.585   0.047   2.574  0.9581  0.4782 -0.2084
 7022TIP3    H142557   5.676   0.026   2.597 -0.2529 -2.7437  2.4803
 7022TIP3    H242558   5.559  -0.024   2.515 -0.5657 -0.3488  1.3836
 7023TIP3   OH242559   3.758   4.651   2.391 -0.0609 -0.6191 -0.4597
 7023TIP3    H142560   3.665   4.664   2.370 -0.1132 -0.8993 -0.4103
 7023TIP3    H242561   3.805   4.677   2.312 -0.2041 -0.8390 -0.6181
 7024TIP3   OH242562   2.036   3.115   3.344  0.4744 -0.1120  0.0704
 7024TIP3    H142563   1.991   3.040   3.305  2.6774 -0.2694 -2.4442
 7024TIP3    H242564   1.980   3.190   3.324 -0.0917 -0.6705 -0.4746
 7025TIP3   OH242565   6.325   6.744   3.017  0.0950  0.7283  0.3348
 7025TIP3    H142566   6.314   6.836   3.040 -0.7451  0.9641 -0.8790
 7025TIP3    H242567   6.372   6.745   2.934 -0.7826  0.1304 -0.1965
 7026TIP3   OH242568   4.605   3.982  12.052  0.2071 -0.3910 -0.0706
 7026TIP3    H142569   4.656   3.968  11.971 -0.0107 -0.0871 -0.2649
 7026TIP3    H242570   4.552   4.060  12.033  1.0883  0.4545  0.8160
 7027TIP3   OH242571   0.631   0.593   1.176 -0.2462 -0.0852 -0.4079
 7027TIP3    H142572   0.619   0.591   1.271 -1.3605 -1.9519 -0.5486
 7027TIP3    H242573   0.593   0.676   1.148 -0.0888  0.3873  0.7331
 7028TIP3   OH242574   3.393   5.866   5.803  0.0321  0.2864  0.1868
 7028TIP3    H142575   3.389   5.900   5.713  2.0085  0.2450  0.0347
 7028TIP3    H242576   3.396   5.945   5.857 -2.0657  0.3242  0.3318
 7029TIP3   OH242577   1.708   4.462   5.980  0.4236  0.1277  0.4568
 7029TIP3    H142578   1.748   4.440   6.064  0.3589 -0.4372  0.3449
 7029TIP3    H242579   1.675   4.378   5.946 -2.2242  0.7396  1.2482
 7030TIP3   OH242580   4.667   3.266  13.043 -0.7473 -0.3720 -0.0512
 7030TIP3    H142581   4.728   3.227  12.980 -1.1385  1.5533 -1.7464
 7030TIP3    H242582   4.607   3.195  13.065 -0.6455 -1.1289 -1.9693
 7031TIP3   OH242583   5.551   5.436   0.628 -0.1806 -0.2738  0.0749
 7031TIP3    H142584   5.558   5.517   0.679  0.7117 -0.5176  0.3643
 7031TIP3    H242585   5.605   5.452   0.550 -1.1024 -0.1013 -0.5367
 7032TIP3   OH242586   5.720   1.771  12.108 -0.0311  0.4304  0.8074
 7032TIP3    H142587   5.699   1.854  12.151 -2.3192  0.8180 -0.8727
 7032TIP3    H242588   5.775   1.724  12.172  0.6232  2.8366  2.1475
 7033TIP3   OH242589   1.552   0.584   1.287 -0.5264 -0.2988  0.4354
 7033TIP3    H142590   1.476   0.603   1.342  0.0485 -0.1490  1.2104
 7033TIP3    H242591   1.588   0.503   1.324 -0.4955 -0.5518 -0.1357
 7034TIP3   OH242592   4.495   3.045   0.905  0.1106  0.5530  0.1324
 7034TIP3    H142593   4.509   2.957   0.869  1.9213  1.3875 -1.3742
 7034TIP3    H242594   4.425   3.082   0.851 -0.2893  0.2239  0.4227
 7035TIP3   OH242595   0.337   4.489  16.244 -0.5202 -1.0934 -0.2996
 7035TIP3    H142596   0.405   4.500  16.311 -1.2637 -1.6346  0.5725
 7035TIP3    H242597   0.255   4.498  16.292 -1.1062  1.1000 -1.5863
 7036TIP3   OH242598   1.460   1.138   1.051  0.0211  0.5715  0.3527
 7036TIP3    H142599   1.375   1.127   1.094  0.1979  2.2438  1.2401
 7036TIP3    H242600   1.518   1.170   1.120  1.2980 -0.1919 -0.3261
 7037TIP3   OH242601   4.149   0.463   4.556 -0.1429 -0.5223  0.2714
 7037TIP3    H142602   4.058   0.492   4.551  0.5957  1.8774 -0.4593
 7037TIP3    H242603   4.143   0.371   4.581 -2.7641 -0.4853  0.0726
 7038TIP3   OH242604   2.879   3.198  14.770 -0.3790  0.5891  0.0575
 7038TIP3    H142605   2.800   3.251  14.782  0.5233  1.9134  0.2932
 7038TIP3    H242606   2.883   3.182  14.676  0.7605  3.2674 -0.4303
 7039TIP3   OH242607   5.658   4.240  15.958 -0.1707  0.4980  0.0204
 7039TIP3    H142608   5.668   4.308  15.891  2.3532  1.7948  1.5395
 7039TIP3    H242609   5.621   4.287  16.033  1.0425  0.1214  0.8877
 7040TIP3   OH242610   1.733   4.474   0.578 -0.4828 -0.0115 -0.2725
 7040TIP3    H142611   1.787   4.457   0.501  1.2933  0.0508  0.9006
 7040TIP3    H242612   1.795   4.485   0.649 -1.8538  3.1571  0.6297
 7041TIP3   OH242613   1.472   6.229  11.182  0.0692  0.2117  0.0176
 7041TIP3    H142614   1.472   6.308  11.236 -0.8928 -0.0503  0.4166
 7041TIP3    H242615   1.565   6.207  11.172  0.3219  1.0976  0.3352
 7042TIP3   OH242616   1.005   3.369   2.055 -0.7514 -0.0311  1.0147
 7042TIP3    H142617   0.997   3.457   2.093  0.3161  0.6003 -0.1561
 7042TIP3    H242618   0.944   3.369   1.981  0.7941  0.5272 -0.3285
 7043TIP3   OH242619   1.866   1.172  15.323  0.2211 -0.1156  0.0308
 7043TIP3    H142620   1.799   1.130  15.270 -1.2757  1.9628  0.1708
 7043TIP3    H242621   1.839   1.155  15.413  1.4050 -1.5211  0.1707
 7044TIP3   OH242622   4.671   0.050  11.957 -0.5143  0.5125  0.4624
 7044TIP3    H142623   4.592   0.104  11.951 -0.8722  0.0382  0.8298
 7044TIP3    H242624   4.676   0.004  11.874 -1.2669 -0.3233  0.8624
 7045TIP3   OH242625   5.976   2.228   0.731 -0.1475 -0.8953  0.5239
 7045TIP3    H142626   6.055   2.201   0.778 -0.0884 -0.5942  0.5951
 7045TIP3    H242627   6.009   2.261   0.647 -0.1844 -0.5637  0.6428
 7046TIP3   OH242628   5.645   1.189  14.570  0.4788 -0.2524 -0.1274
 7046TIP3    H142629   5.680   1.100  14.557  0.9637  0.0204 -0.7686
 7046TIP3    H242630   5.556   1.184  14.536  0.5111 -0.4906 -0.1845
 7047TIP3   OH242631   4.809   0.097  16.317  0.5681 -0.0619  0.3728
 7047TIP3    H142632   4.730   0.068  16.272  1.0176 -0.5906 -0.0856
 7047TIP3    H242633   4.824   0.186  16.284 -0.0186  0.1749  0.7236
 7048TIP3   OH242634   5.024   1.724  10.854 -0.1704  0.0052 -0.2412
 7048TIP3    H142635   5.115   1.734  10.881 -0.0625 -1.1799 -0.1518
 7048TIP3    H242636   5.025   1.739  10.759  0.2339 -0.6979 -0.3513
 7049TIP3   OH242637   4.864   5.203  11.329 -0.2879 -0.0890 -0.1951
 7049TIP3    H142638   4.864   5.137  11.259 -0.4303  0.5253 -0.7904
 7049TIP3    H242639   4.778   5.243  11.324 -1.7406 -2.4584  2.7335
 7050TIP3   OH242640   3.830   0.584  15.970  0.3633  0.6117  0.3080
 7050TIP3    H142641   3.874   0.641  16.032 -1.7780  0.0613  2.5131
 7050TIP3    H242642   3.866   0.497  15.988  0.4209  0.5946  0.1099
 7051TIP3   OH242643   1.951   2.252  11.426  0.4138  0.1509 -0.6866
 7051TIP3    H142644   1.972   2.293  11.510  1.8846  0.0171 -0.9554
 7051TIP3    H242645   1.991   2.309  11.360  0.0152 -0.1951 -1.2379
 7052TIP3   OH242646   4.838   0.313  13.147  0.0187 -0.4514 -0.4774
 7052TIP3    H142647   4.844   0.236  13.091  1.3426 -0.7950  0.1028
 7052TIP3    H242648   4.925   0.354  13.143  0.3970 -0.8621  1.7914
 7053TIP3   OH242649   4.908   5.898  16.310  0.1225  0.4061 -0.2414
 7053TIP3    H142650   4.890   5.829  16.246  0.0454  1.1088 -0.9863
 7053TIP3    H242651   5.002   5.912  16.305  0.2050  0.0549  0.2315
 7054TIP3   OH242652   2.377   0.881  16.786  0.1584  1.0571 -0.7288
 7054TIP3    H142653   2.303   0.822  16.800  1.1435 -0.6832 -2.4293
 7054TIP3    H242654   2.431   0.870  16.864  0.5178 -0.6515 -1.1788
 7055TIP3   OH242655   6.420   3.922   3.881  0.0818  0.2013 -0.0221
 7055TIP3    H142656   6.434   3.981   3.807  1.4111 -1.0685 -0.8238
 7055TIP3    H242657   6.443   3.976   3.958  0.7774  0.8994 -0.6910
 7056TIP3   OH242658   4.132   5.564   2.300 -0.0729  0.2108  0.0986
 7056TIP3    H142659   4.202   5.526   2.248 -1.2818 -0.2323 -1.2754
 7056TIP3    H242660   4.128   5.656   2.274  0.0120  0.2426  0.1973
 7057TIP3   OH242661   2.424   3.796   1.233 -0.2546 -0.0025 -0.1839
 7057TIP3    H142662   2.361   3.861   1.200 -0.3759 -0.2995 -0.5548
 7057TIP3    H242663   2.443   3.741   1.157  0.5696  0.1691 -0.1104
 7058TIP3   OH242664   6.836   5.365  10.968  0.0138 -0.0442  0.3311
 7058TIP3    H142665   6.906   5.390  10.908 -0.5148 -0.7212 -0.5810
 7058TIP3    H242666   6.777   5.440  10.969 -0.1444 -0.1588 -0.2525
 7059TIP3   OH242667   0.784   3.882   5.152  0.4294  0.0920  0.5597
 7059TIP3    H142668   0.693   3.906   5.134  0.8606  0.4847 -1.3639
 7059TIP3    H242669   0.808   3.935   5.228 -1.2081 -0.7438  1.7262
 7060TIP3   OH242670   1.288   4.423  12.664 -0.3763 -0.4772 -0.5948
 7060TIP3    H142671   1.298   4.419  12.569  0.9943  1.7080 -0.5997
 7060TIP3    H242672   1.259   4.512  12.682 -1.2936 -1.0523  1.0149
 7061TIP3   OH242673   1.377   5.572   5.445 -0.4333 -0.1130 -0.1506
 7061TIP3    H142674   1.433   5.498   5.468  1.4539  1.1001 -0.6930
 7061TIP3    H242675   1.331   5.543   5.366  0.7756 -0.4766 -0.7308
 7062TIP3   OH242676   4.482   4.057  14.601  0.9280  0.0063 -0.1810
 7062TIP3    H142677   4.483   3.981  14.543  1.8841  0.4604 -0.7782
 7062TIP3    H242678   4.397   4.098  14.587  0.5038 -0.7983 -0.0400
 7063TIP3   OH242679   5.166   0.071  15.513  0.2981  0.0244 -0.0171
 7063TIP3    H142680   5.106   0.135  15.474 -0.8416 -0.9701  0.0469
 7063TIP3    H242681   5.172   0.001  15.448  4.6079  1.8099 -1.8827
 7064TIP3   OH242682   2.486   0.177  14.918  0.0500  0.0097 -0.1082
 7064TIP3    H142683   2.414   0.202  14.860  0.2295 -0.1137 -0.3857
 7064TIP3    H242684   2.514   0.091  14.886  0.0672 -0.1166  0.2393
 7065TIP3   OH242685   3.329   6.636  11.723  0.3241 -0.2687 -0.0125
 7065TIP3    H142686   3.337   6.553  11.770 -1.6760  0.7932  2.4157
 7065TIP3    H242687   3.242   6.633  11.683 -0.0717  0.9077  0.7107
 7066TIP3   OH242688   0.681   2.028   3.349 -0.2034  0.4688  0.2713
 7066TIP3    H142689   0.676   1.944   3.302 -0.5979  0.7867 -0.2646
 7066TIP3    H242690   0.734   2.009   3.426 -0.2324 -0.2606  0.1180
 7067TIP3   OH242691   3.536   1.315   6.103  0.1015  0.2464 -0.1939
 7067TIP3    H142692   3.498   1.227   6.096  1.8514 -0.4327 -2.9060
 7067TIP3    H242693   3.604   1.306   6.170 -0.5688 -0.1158  0.4465
 7068TIP3   OH242694   2.526   3.505   5.273  0.1609  0.1848 -0.6039
 7068TIP3    H142695   2.574   3.587   5.263  0.7978 -0.3391 -2.3557
 7068TIP3    H242696   2.435   3.528   5.259  0.0476  0.9121  1.0621
 7069TIP3   OH242697   3.109   1.284  12.995 -0.4559 -0.0392  0.2518
 7069TIP3    H142698   3.188   1.246  13.035 -0.2032  0.7200  0.4857
 7069TIP3    H242699   3.110   1.251  12.905  0.1598  0.0131  0.2353
 7070TIP3   OH242700   1.699   5.349  14.086  0.1395  0.3154 -0.4132
 7070TIP3    H142701   1.655   5.413  14.029 -1.0775 -0.8904 -0.8880
 7070TIP3    H242702   1.640   5.338  14.160 -1.8852 -3.2749 -2.2877
 7071TIP3   OH242703   5.620   2.867  14.585 -0.4892 -0.6770 -0.0313
 7071TIP3    H142704   5.593   2.936  14.524  0.2738 -0.2022  0.1555
 7071TIP3    H242705   5.604   2.786  14.538 -1.8553 -0.4003 -0.0759
 7072TIP3   OH242706   6.556   3.098  14.313  0.2207  0.3481  0.3401
 7072TIP3    H142707   6.463   3.078  14.323  0.7752 -1.9176  1.8214
 7072TIP3    H242708   6.559   3.170  14.251 -2.4881  0.1228 -0.1683
 7073TIP3   OH242709   2.407   2.204   0.011  0.3763 -0.1212  0.1656
 7073TIP3    H142710   2.357   2.147  -0.047 -1.6419  0.9981  0.7164
 7073TIP3    H242711   2.407   2.158   0.095 -0.7159  0.3711  0.4487
 7074TIP3   OH242712   3.681   4.429   1.346 -0.6801  0.0994 -0.4292
 7074TIP3    H142713   3.752   4.370   1.371 -0.4914  0.6247  0.3142
 7074TIP3    H242714   3.725   4.503   1.304 -0.7753  0.4171  0.0142
 7075TIP3   OH242715   6.761   0.109   3.517  0.7932  0.1380 -0.4310
 7075TIP3    H142716   6.720   0.124   3.602 -1.1108  0.8547 -1.4083
 7075TIP3    H242717   6.841   0.059   3.537  0.4119  0.2873  1.7425
 7076TIP3   OH242718   0.140   0.849  16.376 -0.3250 -0.0725 -0.2245
 7076TIP3    H142719   0.187   0.932  16.386  0.3616 -0.5857  1.0321
 7076TIP3    H242720   0.184   0.804  16.305  1.0024 -0.4608  0.8044
 7077TIP3   OH242721   5.753   1.388  11.489 -0.2768  0.4253  0.6734
 7077TIP3    H142722   5.750   1.467  11.435  0.3808  0.9928  1.4550
 7077TIP3    H242723   5.758   1.420  11.579 -1.2992 -0.5100  1.0925
 7078TIP3   OH242724   3.854   3.964   4.047  0.1754 -0.2294 -0.2885
 7078TIP3    H142725   3.771   4.012   4.047  1.1762  1.6600 -2.0968
 7078TIP3    H242726   3.906   4.007   4.115 -0.2969 -1.4886  0.9247
 7079TIP3   OH242727   1.411   6.513   0.331 -0.6848 -0.0710  0.2024
 7079TIP3    H142728   1.387   6.443   0.393 -1.9529 -0.4871 -0.7350
 7079TIP3    H242729   1.328   6.553   0.306 -0.0413  1.1903  0.0191
 7080TIP3   OH242730   1.448   1.567  11.912  0.3851 -0.0301 -0.6921
 7080TIP3    H142731   1.445   1.662  11.912  0.7142 -0.0190 -0.2846
 7080TIP3    H242732   1.510   1.545  11.842 -0.8220  0.0064 -1.8161
 7081TIP3   OH242733   1.920   6.042   1.762 -0.3341  0.2032  0.3229
 7081TIP3    H142734   2.005   6.082   1.746  0.2255 -0.9903  0.2630
 7081TIP3    H242735   1.879   6.037   1.676  0.0683 -0.3995  0.1626
 7082TIP3   OH242736   2.532   1.539  12.328  0.4578 -0.1849 -0.2004
 7082TIP3    H142737   2.542   1.473  12.396  0.1458 -0.5497 -0.5071
 7082TIP3    H242738   2.440   1.536  12.304  0.8132 -0.9996 -1.5739
 7083TIP3   OH242739   6.845   4.289  11.796 -0.7590  0.1623 -0.3558
 7083TIP3    H142740   6.771   4.275  11.854 -0.4360  0.9031  0.2509
 7083TIP3    H242741   6.886   4.204  11.788  0.0175  0.3040  1.6467
 7084TIP3   OH242742   1.777   0.199  14.251  0.5717  0.4491 -0.0020
 7084TIP3    H142743   1.723   0.259  14.303  0.4056 -0.5947  1.0540
 7084TIP3    H242744   1.792   0.124  14.308  1.8212  0.0153 -0.8540
 7085TIP3   OH242745   3.856   1.890  14.852 -0.1840  0.4662 -0.1854
 7085TIP3    H142746   3.799   1.875  14.928  0.8970  0.5609  0.6585
 7085TIP3    H242747   3.943   1.862  14.880  0.7390  2.7577 -0.5211
 7086TIP3   OH242748   1.512   1.219  13.566  0.3197  0.1579  0.5495
 7086TIP3    H142749   1.547   1.222  13.477 -0.2474 -2.0822  0.1819
 7086TIP3    H242750   1.533   1.131  13.596  0.8919  1.0148  2.8379
 7087TIP3   OH242751   0.092   6.470  10.506  0.3460  0.2591  0.0041
 7087TIP3    H142752   0.137   6.403  10.454 -0.1417 -0.5518  0.6085
 7087TIP3    H242753   0.124   6.553  10.470  1.0589 -0.2890 -0.6738
 7088TIP3   OH242754   4.062   0.880  16.489  0.2045 -0.1737 -0.0169
 7088TIP3    H142755   4.151   0.914  16.485 -0.2490  1.1254  0.3559
 7088TIP3    H242756   4.067   0.807  16.551  1.0753 -0.3415 -0.2779
 7089TIP3   OH242757   6.741   4.540  14.776  0.2950  0.0405  0.5183
 7089TIP3    H142758   6.830   4.556  14.807  0.1632 -2.6874  2.7543
 7089TIP3    H242759   6.744   4.452  14.737 -1.3531 -0.0499  0.5037
 7090TIP3   OH242760   5.763   6.349   3.008  0.3129  0.6900  0.1503
 7090TIP3    H142761   5.767   6.422   3.069  2.7488  0.2787  0.5949
 7090TIP3    H242762   5.736   6.274   3.062  0.7861  0.6742  0.3729
 7091TIP3   OH242763   1.905   4.296  12.783 -0.5354 -0.2397  0.1980
 7091TIP3    H142764   1.937   4.234  12.718  0.7506  1.4646 -0.9132
 7091TIP3    H242765   1.963   4.284  12.859 -1.7460 -1.9138  0.9078
 7092TIP3   OH242766   2.630   4.748  12.004  0.2755 -0.3702  0.6673
 7092TIP3    H142767   2.647   4.825  12.059  1.4266 -0.5546  0.5790
 7092TIP3    H242768   2.540   4.722  12.026 -0.4307  1.4501  0.1491
 7093TIP3   OH242769   0.291   3.189   5.724  0.2733  0.1606 -0.0715
 7093TIP3    H142770   0.263   3.116   5.779 -0.2278  0.6335  0.3055
 7093TIP3    H242771   0.304   3.262   5.784 -0.3748  0.7137 -0.5786
 7094TIP3   OH242772   4.325   2.805   0.194 -0.4109 -0.4325 -0.2837
 7094TIP3    H142773   4.258   2.865   0.160 -1.9039 -1.7627  0.1577
 7094TIP3    H242774   4.350   2.843   0.278  1.4411  1.5118 -1.6012
 7095TIP3   OH242775   1.329   0.162   2.042  0.3278  0.2663 -0.3402
 7095TIP3    H142776   1.420   0.171   2.071  0.4620 -0.1508 -0.6292
 7095TIP3    H242777   1.336   0.134   1.951 -0.0812 -1.1912  0.0505
 7096TIP3   OH242778   1.525   1.542   1.335 -0.0540  0.1668 -0.1523
 7096TIP3    H142779   1.569   1.601   1.274  0.5769  0.7065  0.7997
 7096TIP3    H242780   1.432   1.562   1.325  0.1608  1.5923  0.3864
 7097TIP3   OH242781   5.023   6.715  13.274 -0.2815  0.6031  0.3103
 7097TIP3    H142782   5.006   6.625  13.247  0.5762  0.2731  0.8377
 7097TIP3    H242783   5.114   6.731  13.248  0.2618  0.6011  2.0889
 7098TIP3   OH242784   3.172   6.587   6.613  0.6911  0.0292 -0.3840
 7098TIP3    H142785   3.112   6.513   6.620  1.4090 -0.5272  0.0172
 7098TIP3    H242786   3.238   6.558   6.549  0.2800  0.8213 -1.1919
 7099TIP3   OH242787   1.540   0.863  15.691 -0.3119  0.2498  0.5051
 7099TIP3    H142788   1.634   0.862  15.674 -0.6872 -0.1369 -1.9010
 7099TIP3    H242789   1.532   0.904  15.777  2.0921 -0.6031  1.2216
 7100TIP3   OH242790   3.147   0.417   5.246 -0.0797 -0.3758  0.1555
 7100TIP3    H142791   3.192   0.336   5.270 -0.2112 -0.2913  0.7133
 7100TIP3    H242792   3.150   0.470   5.326  1.4880  0.8565 -0.6759
 7101TIP3   OH242793   6.554   1.051  10.500  0.0667  0.2437 -0.1191
 7101TIP3    H142794   6.470   1.085  10.470 -0.5622 -0.2804  0.9888
 7101TIP3    H242795   6.564   1.084  10.589  1.0596  0.3317 -0.2479
 7102TIP3   OH242796   5.399   2.261  14.182 -0.4084 -0.6663 -0.1002
 7102TIP3    H142797   5.326   2.200  14.170 -1.1688 -0.2390  1.9706
 7102TIP3    H242798   5.472   2.220  14.136 -1.3041 -2.3489 -0.1177
 7103TIP3   OH242799   5.628   4.826  13.753 -0.4918 -0.0917 -0.1815
 7103TIP3    H142800   5.657   4.754  13.697  0.8002  0.6099 -0.4658
 7103TIP3    H242801   5.599   4.894  13.692 -1.2766 -0.1862  0.0746
 7104TIP3   OH242802   2.915   2.839  16.925  0.1429 -0.0668 -0.2763
 7104TIP3    H142803   2.886   2.884  16.846  2.5536 -0.6909 -1.6308
 7104TIP3    H242804   2.948   2.908  16.983 -0.5833  0.2949 -0.2898
 7105TIP3   OH242805   2.677   2.230   5.467  0.3657  0.5632 -0.1458
 7105TIP3    H142806   2.615   2.170   5.424 -1.4422  2.2067  0.0390
 7105TIP3    H242807   2.629   2.263   5.543  2.0587  0.7485  0.8944
 7106TIP3   OH242808   1.529   3.400  16.865  0.3110  0.4558 -0.4438
 7106TIP3    H142809   1.502   3.336  16.799  1.3982  0.3146 -0.7673
 7106TIP3    H242810   1.600   3.357  16.912  1.2352  1.5186 -0.8360
 7107TIP3   OH242811   1.349   6.633  16.495 -0.3326 -0.1148 -0.6623
 7107TIP3    H142812   1.264   6.592  16.515  0.0778 -1.1105 -0.8808
 7107TIP3    H242813   1.410   6.560  16.493  0.6740  0.6891  0.2156
 7108TIP3   OH242814   2.144   4.512  16.698 -0.3703 -0.1346  0.8452
 7108TIP3    H142815   2.064   4.459  16.694 -1.3440  1.3039  0.7916
 7108TIP3    H242816   2.203   4.470  16.636 -1.7148 -0.2171 -0.4354
 7109TIP3   OH242817   0.272   6.589   6.547 -0.0729  0.1261  0.4458
 7109TIP3    H142818   0.276   6.494   6.558 -0.1163  0.1052  0.2841
 7109TIP3    H242819   0.363   6.616   6.533  0.4166  0.5086  3.6794
 7110TIP3   OH242820   3.702   5.729  11.576  0.1683 -0.1381 -0.2386
 7110TIP3    H142821   3.656   5.675  11.639 -0.3227 -1.8898 -1.9934
 7110TIP3    H242822   3.785   5.750  11.618 -1.1434  0.9857  1.9839
 7111TIP3   OH242823   2.834   3.580   0.137  0.3673 -0.2655 -0.5528
 7111TIP3    H142824   2.917   3.562   0.181  0.5949 -0.8485 -1.1968
 7111TIP3    H242825   2.826   3.510   0.072 -1.2720 -1.0062  0.3886
 7112TIP3   OH242826   4.653   6.317  14.325  0.6541  0.7039  0.1811
 7112TIP3    H142827   4.595   6.391  14.342 -0.7393 -0.7089  2.0729
 7112TIP3    H242828   4.741   6.354  14.325 -0.0977  2.6131 -0.8304
 7113TIP3   OH242829   4.922   1.249   1.220 -0.0748  0.4863 -0.1025
 7113TIP3    H142830   4.870   1.329   1.217 -0.5570  0.1491 -1.3517
 7113TIP3    H242831   5.009   1.275   1.192 -0.2773  0.5578 -0.6929
 7114TIP3   OH242832   3.268   3.899  11.144  0.4470 -0.2236  0.1169
 7114TIP3    H142833   3.257   3.808  11.172  0.1027 -0.2076  0.0388
 7114TIP3    H242834   3.362   3.915  11.151  0.5478 -0.6854 -0.1733
 7115TIP3   OH242835   0.326   6.079  14.178 -0.3571 -0.1991 -0.8998
 7115TIP3    H142836   0.343   5.992  14.141 -2.7696 -0.7694 -0.8600
 7115TIP3    H242837   0.365   6.075  14.266  1.2450 -0.5186 -1.5898
 7116TIP3   OH242838   0.068   6.845   0.323 -0.5913  0.8350 -0.1699
 7116TIP3    H142839   0.095   6.793   0.247 -0.8235  1.2644 -0.5523
 7116TIP3    H242840   0.113   6.928   0.312 -0.1637  0.6989  0.4822
 7117TIP3   OH242841   3.026   5.210  11.207 -0.2955  0.0518  0.5013
 7117TIP3    H142842   3.041   5.262  11.128  2.4823 -0.1786  0.7864
 7117TIP3    H242843   2.997   5.274  11.273 -0.3763  0.6217 -0.0768
 7118TIP3   OH242844   6.132   4.353  17.069 -0.3077  0.6072  0.0014
 7118TIP3    H142845   6.129   4.439  17.111  1.7592  0.8737 -0.2865
 7118TIP3    H242846   6.221   4.322  17.084  0.5510  0.6665 -3.9526
 7119TIP3   OH242847   2.165   2.960  16.190  0.7093 -0.2335 -0.6209
 7119TIP3    H142848   2.252   3.002  16.190  0.3757  0.5274  1.0556
 7119TIP3    H242849   2.179   2.877  16.236  0.1024  1.0030  1.9258
 7120TIP3   OH242850   5.888   6.065  10.982 -0.3581 -0.5641  0.7376
 7120TIP3    H142851   5.878   5.973  10.960  1.0111 -0.6719  0.4616
 7120TIP3    H242852   5.933   6.104  10.907  2.6978 -0.5441  2.4013
 7121TIP3   OH242853   5.116   0.125  11.244 -0.2833 -0.3146 -0.1348
 7121TIP3    H142854   5.190   0.152  11.298 -0.4049  0.8705 -0.5303
 7121TIP3    H242855   5.154   0.109  11.158 -0.6883  1.9648 -0.8018
 7122TIP3   OH242856   2.652   1.192  16.406  0.0293  0.1413  0.0813
 7122TIP3    H142857   2.731   1.246  16.393  0.2702 -0.3769 -0.6758
 7122TIP3    H242858   2.584   1.255  16.429  0.1537  0.8695 -1.4182
 7123TIP3   OH242859   2.264   1.700  15.187 -0.0727 -0.1234  0.5073
 7123TIP3    H142860   2.292   1.646  15.113 -1.4038 -0.7849  0.4555
 7123TIP3    H242861   2.344   1.743  15.217  0.9119 -1.5754  0.0904
 7124TIP3   OH242862   6.202   6.375  13.366  0.1868  0.3916 -0.7579
 7124TIP3    H142863   6.163   6.408  13.447  0.7535 -0.0334 -0.2972
 7124TIP3    H242864   6.295   6.361  13.388  0.0257 -1.2403 -0.9879
 7125TIP3   OH242865   4.083   3.995   1.040 -0.5590  0.1109  0.3540
 7125TIP3    H142866   3.994   4.023   1.019  0.1684  1.8319 -0.5683
 7125TIP3    H242867   4.103   4.037   1.124 -0.7486 -0.6463  0.7943
 7126TIP3   OH242868   6.302   0.125   0.413 -0.8409  0.1837  0.1562
 7126TIP3    H142869   6.322   0.052   0.473 -0.5181  1.3511  1.5159
 7126TIP3    H242870   6.353   0.198   0.447 -0.7516  0.9295 -1.5041
 7127TIP3   OH242871   3.774   5.134   1.671  0.3226 -0.1737  0.1120
 7127TIP3    H142872   3.759   5.199   1.603  0.8815 -1.3608 -1.1975
 7127TIP3    H242873   3.691   5.087   1.680  0.4828 -0.5610 -0.3713
 7128TIP3   OH242874   3.751   2.864  14.450  0.1827 -0.1653  0.0823
 7128TIP3    H142875   3.737   2.782  14.498  0.0474  0.5189  1.2751
 7128TIP3    H242876   3.836   2.854  14.408 -0.1231 -1.1629 -0.3194
 7129TIP3   OH242877   1.925   6.015  10.658  0.3235 -0.8703 -0.5518
 7129TIP3    H142878   1.939   5.967  10.576  1.2227 -1.1515 -0.2530
 7129TIP3    H242879   2.001   5.991  10.712  0.6506  0.6623 -0.2908
 7130TIP3   OH242880   2.982   4.433  15.796 -0.9292  0.3952  0.1144
 7130TIP3    H142881   2.893   4.457  15.819 -1.7125 -0.4276 -1.8636
 7130TIP3    H242882   3.019   4.399  15.877 -2.2965  1.0328  1.0427
 7131TIP3   OH242883   5.232   1.141  17.111 -0.3814 -0.4516 -0.8124
 7131TIP3    H142884   5.155   1.194  17.131 -0.7901 -0.8935 -1.1771
 7131TIP3    H242885   5.235   1.075  17.180  0.6477  0.5602  0.1622
 7132TIP3   OH242886   6.296   2.684  12.443  0.4793  0.2312  0.3187
 7132TIP3    H142887   6.285   2.754  12.507  1.4820 -2.2044  3.4599
 7132TIP3    H242888   6.390   2.669  12.440  0.5440  0.7669 -2.4518
 7133TIP3   OH242889   2.646   3.988   4.326 -0.4070 -0.2523 -0.0774
 7133TIP3    H142890   2.691   3.909   4.355  0.6700  0.1452 -0.6231
 7133TIP3    H242891   2.561   3.957   4.296  0.1054 -1.2475 -0.5510
 7134TIP3   OH242892   1.204   1.102   0.144 -0.3234 -0.1204  0.1866
 7134TIP3    H142893   1.200   1.066   0.233 -1.5946  1.5223  0.8541
 7134TIP3    H242894   1.241   1.190   0.155 -1.6451  0.5894 -0.6950
 7135TIP3   OH242895   0.334   1.220   1.953  0.5037  0.3771 -0.3128
 7135TIP3    H142896   0.297   1.286   2.011  0.4094 -0.8937  1.1090
 7135TIP3    H242897   0.303   1.245   1.866  0.0250  1.8786  0.2518
 7136TIP3   OH242898   1.196   1.771  11.612 -0.1584 -0.2133 -0.0411
 7136TIP3    H142899   1.126   1.729  11.661  0.5372  0.4689  1.6493
 7136TIP3    H242900   1.208   1.717  11.534 -1.3795 -1.3194  0.5113
 7137TIP3   OH242901   0.603   5.013   0.690 -0.4416 -0.6217  0.3512
 7137TIP3    H142902   0.696   4.992   0.698 -0.4693 -0.1711  2.4950
 7137TIP3    H242903   0.559   4.948   0.746 -1.1853  0.6018  1.2224
 7138TIP3   OH242904   2.861   1.030  14.892  0.7599  0.4744 -0.4083
 7138TIP3    H142905   2.951   1.043  14.863  1.2779 -1.4997  0.2188
 7138TIP3    H242906   2.834   1.116  14.926  2.2508  1.1753 -0.9085
 7139TIP3   OH242907   0.612   6.333   6.296 -0.1859  0.0064 -0.0132
 7139TIP3    H142908   0.682   6.278   6.263 -0.5323 -0.1977 -0.4222
 7139TIP3    H242909   0.572   6.371   6.217 -1.6823 -1.2906  0.0810
 7140TIP3   OH242910   5.225   1.263   3.028  0.1474  0.3960  0.0338
 7140TIP3    H142911   5.225   1.204   3.103  0.9425  0.0206 -0.2525
 7140TIP3    H242912   5.313   1.299   3.026  0.5348 -0.5455 -1.4482
 7141TIP3   OH242913   5.182   3.017  12.551 -0.6284 -0.2955 -0.2332
 7141TIP3    H142914   5.118   3.055  12.491  0.6602  0.4438 -1.1915
 7141TIP3    H242915   5.188   2.925  12.526 -2.7516 -0.9177  1.2019
 7142TIP3   OH242916   5.889   5.947  12.424 -0.5385 -0.5943  0.2934
 7142TIP3    H142917   5.835   6.026  12.422  0.8822  0.4296  1.0153
 7142TIP3    H242918   5.949   5.957  12.350  0.0411 -0.7048  0.7411
 7143TIP3   OH242919   3.490   3.701  11.415  0.9400 -0.1853  0.1957
 7143TIP3    H142920   3.422   3.761  11.445  0.2312  0.2389 -2.0510
 7143TIP3    H242921   3.557   3.758  11.376  0.6561 -0.7684 -1.2043
 7144TIP3   OH242922   3.655   5.432   5.395  0.0807  0.9268 -0.2488
 7144TIP3    H142923   3.642   5.383   5.313  1.7552 -0.1098  0.0597
 7144TIP3    H242924   3.603   5.384   5.460  2.5853 -1.2652  0.3008
 7145TIP3   OH242925   2.003   0.238  12.329  0.4628 -0.3953 -0.2451
 7145TIP3    H142926   2.084   0.286  12.347  0.1757  0.1706 -0.4360
 7145TIP3    H242927   2.023   0.185  12.252  0.7894 -0.5948 -0.0232
 7146TIP3   OH242928   1.919   2.721  14.904 -0.0331 -0.3290 -0.1050
 7146TIP3    H142929   1.950   2.795  14.957 -1.7330 -1.1947  2.2449
 7146TIP3    H242930   1.896   2.761  14.820  0.5080  1.5488  0.5760
 7147TIP3   OH242931   4.311   6.034  16.224 -0.0574 -1.0984 -0.2930
 7147TIP3    H142932   4.364   6.094  16.276  0.2781 -0.4090 -1.4161
 7147TIP3    H242933   4.373   5.972  16.186  0.0485  0.0136 -2.0195
 7148TIP3   OH242934   4.521   2.497  13.959  0.2221 -0.5406  0.0152
 7148TIP3    H142935   4.453   2.499  14.027  0.5232  3.5969  0.4476
 7148TIP3    H242936   4.592   2.447  13.998 -0.2898  0.2374  2.0413
 7149TIP3   OH242937   2.869   0.858   4.095  0.2218 -0.0737  0.1986
 7149TIP3    H142938   2.783   0.854   4.053  0.9794 -3.1378 -1.3269
 7149TIP3    H242939   2.859   0.807   4.175  0.2097  1.1463  1.0095
 7150TIP3   OH242940   2.211   1.889  11.947 -0.7052 -0.0179 -0.4316
 7150TIP3    H142941   2.152   1.819  11.975 -0.5252 -0.1806 -0.4561
 7150TIP3    H242942   2.299   1.855  11.967 -0.5722 -0.1397 -1.1919
 7151TIP3   OH242943   3.524   1.351  11.921  0.0454 -0.2848  0.0185
 7151TIP3    H142944   3.501   1.437  11.886  0.4547 -0.4651 -0.7102
 7151TIP3    H242945   3.613   1.336  11.891  0.7058 -0.1148  1.8229
 7152TIP3   OH242946   6.296   3.127  14.370 -0.2316 -0.1248  0.7891
 7152TIP3    H142947   6.229   3.137  14.302 -0.0608  1.2048  0.7799
 7152TIP3    H242948   6.277   3.198  14.432 -0.5656 -1.4909  2.3122
 7153TIP3   OH242949   0.363   4.976  16.414 -0.0475 -0.4006 -0.3888
 7153TIP3    H142950   0.432   5.031  16.377 -1.0375  0.7074 -0.6471
 7153TIP3    H242951   0.405   4.891  16.429  0.8181 -0.4327 -2.5933
 7154TIP3   OH242952   6.609   4.301   6.231  0.4382 -0.3277  0.0629
 7154TIP3    H142953   6.572   4.269   6.149  1.2466 -0.9174 -0.0891
 7154TIP3    H242954   6.570   4.245   6.299 -2.2573  1.8050  0.4375
 7155TIP3   OH242955   6.370   4.168   1.584  0.1679 -0.6274  0.3085
 7155TIP3    H142956   6.353   4.074   1.582 -0.1337 -0.5697 -0.1312
 7155TIP3    H242957   6.346   4.195   1.673 -3.0273 -0.4077 -0.4805
 7156TIP3   OH242958   0.964   1.100  16.377  0.0060 -0.0819  0.5149
 7156TIP3    H142959   1.003   1.013  16.387  2.0523  0.9135  1.8448
 7156TIP3    H242960   1.025   1.147  16.321 -0.3905  0.8941  0.8852
 7157TIP3   OH242961   1.850   4.667  15.550 -0.1945 -0.3737 -0.6699
 7157TIP3    H142962   1.787   4.636  15.615 -0.2187  0.2087 -0.4085
 7157TIP3    H242963   1.821   4.756  15.530  1.4162  0.4946  0.5941
 7158TIP3   OH242964   3.355   5.666  14.402  0.6103  0.1457 -0.1642
 7158TIP3    H142965   3.399   5.585  14.376  1.4005  1.0361 -1.7249
 7158TIP3    H242966   3.327   5.649  14.492  2.7274 -1.0611  0.3484
 7159TIP3   OH242967   5.783   0.392   6.355 -0.2294  0.0866  0.2586
 7159TIP3    H142968   5.825   0.334   6.418  0.8979 -0.4513 -0.9426
 7159TIP3    H242969   5.728   0.335   6.302  0.5103  0.1412 -0.6149
 7160TIP3   OH242970   5.101   3.791  12.290 -0.0201  0.2283  0.5251
 7160TIP3    H142971   5.192   3.787  12.321  1.1623  0.6529 -2.5887
 7160TIP3    H242972   5.060   3.712  12.326  2.5856 -1.8857 -0.7787
 7161TIP3   OH242973   1.143   6.583   0.089 -0.3277 -0.4973  0.8634
 7161TIP3    H142974   1.127   6.594   0.182 -0.3270 -1.6886  1.0197
 7161TIP3    H242975   1.209   6.650   0.068 -0.1210 -0.4094  1.7657
 7162TIP3   OH242976   6.021   6.755   0.746  0.0380 -0.0898  0.2011
 7162TIP3    H142977   5.948   6.706   0.781  0.1266  1.3669  2.7029
 7162TIP3    H242978   6.076   6.774   0.823  1.4088  1.4841 -1.0856
 7163TIP3   OH242979   0.621   3.821  11.713 -0.2295  0.3533  0.2023
 7163TIP3    H142980   0.662   3.868  11.785  1.5930 -0.5148 -0.1895
 7163TIP3    H242981   0.681   3.833  11.639 -1.3464  0.0691 -0.7920
 7164TIP3   OH242982   6.754   6.569  14.464 -0.4415  0.0077 -0.2977
 7164TIP3    H142983   6.817   6.626  14.421 -0.1683 -0.5172 -0.5954
 7164TIP3    H242984   6.778   6.572  14.557  0.7937 -1.1311 -0.5488
 7165TIP3   OH242985   0.149   3.874   2.405  0.3237 -0.1656  0.0413
 7165TIP3    H142986   0.129   3.948   2.463 -3.0750 -1.6667  0.9993
 7165TIP3    H242987   0.194   3.811   2.461  0.3833 -0.1239  0.0412
 7166TIP3   OH242988   4.178   2.667   6.770  0.3908 -0.3583  0.7584
 7166TIP3    H142989   4.193   2.738   6.708 -1.4953  0.9009  1.6744
 7166TIP3    H242990   4.140   2.709   6.847 -0.3470 -2.2830  1.5152
 7167TIP3   OH242991   0.554   2.966   3.805 -0.5566 -0.0560 -0.2394
 7167TIP3    H142992   0.460   2.946   3.807 -0.4115 -0.7889 -0.7830
 7167TIP3    H242993   0.558   3.058   3.778 -1.1655  0.3989  1.0896
 7168TIP3   OH242994   0.991   3.494   4.679  0.0568  0.0835 -0.4432
 7168TIP3    H142995   1.039   3.548   4.616  0.9774  0.7909  0.8382
 7168TIP3    H242996   1.057   3.438   4.718 -0.4552 -0.1261  0.1368
 7169TIP3   OH242997   5.888   6.792  15.019  0.1987  0.6243 -0.5775
 7169TIP3    H142998   5.882   6.873  15.069 -1.8085 -0.4033  1.0338
 7169TIP3    H242999   5.809   6.791  14.965  1.3287  0.7415 -2.3170
 7170TIP3   OH243000   1.226   4.481   2.903 -0.2737 -0.4386 -0.4083
 7170TIP3    H143001   1.177   4.562   2.915  2.5103  1.2835  0.3971
 7170TIP3    H243002   1.226   4.440   2.989  1.1782  0.5391  0.0949
 7171TIP3   OH243003   0.489   4.122  15.584 -0.3306 -0.1893 -0.4648
 7171TIP3    H143004   0.474   4.202  15.634  0.0708 -0.5517  0.2450
 7171TIP3    H243005   0.433   4.131  15.507 -0.0537  0.9134 -0.5479
 7172TIP3   OH243006   0.177   2.699  12.189  0.0773 -0.0302  0.5736
 7172TIP3    H143007   0.092   2.709  12.232 -0.4870 -0.4812 -0.4114
 7172TIP3    H243008   0.230   2.770  12.225 -1.0613  0.9448  0.3743
 7173TIP3   OH243009   1.491   1.254  11.633 -0.6106  0.2575  0.0808
 7173TIP3    H143010   1.533   1.286  11.554 -2.2969 -0.9113 -1.3599
 7173TIP3    H243011   1.557   1.199  11.675 -0.1019 -0.1351 -1.1945
 7174TIP3   OH243012   4.102   0.151   3.810  0.0053  0.1220  0.5208
 7174TIP3    H143013   4.127   0.126   3.721 -2.1278 -1.4505  0.2717
 7174TIP3    H243014   4.052   0.231   3.799 -2.4702 -1.3922 -0.1377
 7175TIP3   OH243015   6.661   6.065   2.246 -0.4855  0.4178 -0.0144
 7175TIP3    H143016   6.602   6.133   2.280 -0.9069  0.0015  0.0971
 7175TIP3    H243017   6.740   6.112   2.221 -0.0517  0.7299  1.7747
 7176TIP3   OH243018   3.817   1.349   5.318  0.0927 -0.3010 -0.3789
 7176TIP3    H143019   3.911   1.362   5.324 -0.1350  1.0455  0.7689
 7176TIP3    H243020   3.783   1.377   5.403 -1.6907  2.6588 -1.8910
 7177TIP3   OH243021   2.152   4.270  17.093  0.1329  0.5600 -0.3475
 7177TIP3    H143022   2.098   4.248  17.169  0.6869  0.7747  0.1125
 7177TIP3    H243023   2.104   4.232  17.019 -1.1754  1.6205 -0.0870
 7178TIP3   OH243024   5.201   0.746  15.800  0.0703 -0.1923  0.5551
 7178TIP3    H143025   5.128   0.706  15.846 -0.9389 -0.6749 -1.3822
 7178TIP3    H243026   5.173   0.750  15.708  1.6174  1.5865  0.1037
 7179TIP3   OH243027   1.610   6.368   5.235  0.0122 -0.2034 -0.5065
 7179TIP3    H143028   1.537   6.357   5.295  0.2382  0.1053 -0.1729
 7179TIP3    H243029   1.642   6.279   5.219  0.0508 -0.2742 -0.0490
 7180TIP3   OH243030   5.200   3.000   0.010  0.7530  0.3322 -0.4260
 7180TIP3    H143031   5.116   2.956  -0.006  0.2796  0.3001  1.7677
 7180TIP3    H243032   5.221   2.978   0.101  3.0466  0.5300 -0.8622
 7181TIP3   OH243033   1.022   3.943   3.533 -0.3840  0.0545 -0.4346
 7181TIP3    H143034   1.052   3.935   3.443  0.0949  0.4762 -0.3119
 7181TIP3    H243035   1.080   4.007   3.573 -0.6536 -0.0557  0.1504
 7182TIP3   OH243036   3.929   5.306   2.871 -0.3758  0.5995 -0.2816
 7182TIP3    H143037   4.015   5.343   2.851  0.0571  0.1983  0.7158
 7182TIP3    H243038   3.904   5.347   2.954 -1.1667  0.7405 -0.5863
 7183TIP3   OH243039   1.081   4.705   4.019  0.0978  0.5494 -0.8783
 7183TIP3    H143040   1.083   4.797   3.991  1.7257  0.3968 -1.3706
 7183TIP3    H243041   1.129   4.659   3.951  2.6414 -0.1059  1.2110
 7184TIP3   OH243042   6.138   6.835  15.501  0.3817 -0.1370 -0.1996
 7184TIP3    H143043   6.156   6.754  15.549 -1.1758  0.0121  0.6911
 7184TIP3    H243044   6.217   6.850  15.449  0.5381 -2.4823 -0.7586
 7185TIP3   OH243045   2.386   0.448  11.102 -0.0214 -0.0618  0.0584
 7185TIP3    H143046   2.347   0.451  11.015 -0.9052 -1.1144  0.3885
 7185TIP3    H243047   2.467   0.498  11.094 -0.6725  0.8626 -1.0534
 7186TIP3   OH243048   4.152   5.537  16.992  0.0857 -0.4227  0.2311
 7186TIP3    H143049   4.235   5.528  16.944 -0.7182  1.0820 -1.5436
 7186TIP3    H243050   4.119   5.448  17.000  0.6640 -0.7984 -1.2934
 7187TIP3   OH243051   3.299   1.885   2.386 -0.3884 -0.4985  0.1673
 7187TIP3    H143052   3.371   1.908   2.327  0.7815 -1.2222  1.2738
 7187TIP3    H243053   3.237   1.958   2.378  0.6529  0.3355 -0.4970
 7188TIP3   OH243054   2.242   2.095  14.643  0.4670  0.1598  0.1677
 7188TIP3    H143055   2.164   2.149  14.637 -0.7201 -1.3172  1.4432
 7188TIP3    H243056   2.310   2.155  14.674 -0.0412  1.5317 -1.2461
 7189TIP3   OH243057   0.353   3.701  13.973 -0.2206 -0.4265  0.6008
 7189TIP3    H143058   0.402   3.619  13.971 -1.2384 -1.0846  1.2696
 7189TIP3    H243059   0.363   3.737  13.885  0.8325 -0.9051  0.5045
 7190TIP3   OH243060   1.996   5.038   3.541  0.1147  0.6127 -0.6128
 7190TIP3    H143061   2.057   5.104   3.508  0.8933 -0.5959 -1.6967
 7190TIP3    H243062   2.032   4.955   3.511 -1.0694 -0.2889  0.3448
 7191TIP3   OH243063   4.075   3.544   2.965 -0.2465 -0.8985 -0.3210
 7191TIP3    H143064   4.132   3.499   3.027 -1.3015 -1.1155  0.5416
 7191TIP3    H243065   4.028   3.608   3.019  0.0752  0.1217 -1.2406
 7192TIP3   OH243066   5.057   5.975   1.550 -0.3979 -0.1656 -0.5726
 7192TIP3    H143067   4.964   5.995   1.549 -0.5265 -0.3725  1.6984
 7192TIP3    H243068   5.099   6.054   1.516 -1.2778  1.2002  1.2961
 7193TIP3   OH243069   5.234   5.410  14.882  0.6380  0.4244  0.1199
 7193TIP3    H143070   5.234   5.430  14.789 -1.4424  1.0830  0.2051
 7193TIP3    H243071   5.257   5.317  14.887 -0.5123  0.0370 -1.1658
 7194TIP3   OH243072   1.821   0.466  13.333 -0.8321 -0.0659  0.6978
 7194TIP3    H143073   1.890   0.488  13.394 -0.1690  3.0712 -0.9498
 7194TIP3    H243074   1.861   0.405  13.271  0.0762  0.6591  0.5559
 7195TIP3   OH243075   4.539   2.333  15.644 -0.1843 -0.0088  0.0512
 7195TIP3    H143076   4.482   2.400  15.682  0.7453  1.3249 -0.8168
 7195TIP3    H243077   4.543   2.356  15.551  0.2937 -1.1982 -0.2437
 7196TIP3   OH243078   0.444   2.688   2.857  0.0213 -0.0129  0.1992
 7196TIP3    H143079   0.406   2.710   2.943  1.1494  0.0956  0.6849
 7196TIP3    H243080   0.522   2.637   2.878 -0.0575 -0.5550 -0.7982
 7197TIP3   OH243081   3.825   0.976  11.123  0.2954  0.3390  0.3213
 7197TIP3    H143082   3.776   0.904  11.084 -0.9398  1.1907  0.2435
 7197TIP3    H243083   3.892   0.997  11.059  1.7229 -1.7465  1.0193
 7198TIP3   OH243084   3.155   2.748   4.210 -0.3938 -0.1180 -0.1837
 7198TIP3    H143085   3.249   2.739   4.196 -0.3926  0.2628 -0.4215
 7198TIP3    H243086   3.140   2.842   4.214 -0.3364 -0.1276  2.7572
 7199TIP3   OH243087   1.446   0.559  14.094  0.1359 -0.2388 -0.2598
 7199TIP3    H143088   1.441   0.652  14.075  2.1053 -0.2865 -1.2164
 7199TIP3    H243089   1.432   0.516  14.010  0.0738 -0.7743  0.0193
 7200TIP3   OH243090   5.713   2.474  14.737  0.1744 -0.1665  0.1103
 7200TIP3    H143091   5.709   2.381  14.714 -0.5921  0.0236 -0.6130
 7200TIP3    H243092   5.623   2.505  14.726  0.1651  0.3895  1.5678
 7201TIP3   OH243093   4.570   3.208   4.033 -0.4869 -0.1420  0.5442
 7201TIP3    H143094   4.503   3.153   4.074  0.5297 -2.7342 -0.9950
 7201TIP3    H243095   4.652   3.162   4.050  0.6862  1.9481  0.7654
 7202TIP3   OH243096   5.773   5.992   3.129  0.7066 -0.0292 -0.0031
 7202TIP3    H143097   5.813   6.030   3.207  1.5757 -0.0947 -0.4040
 7202TIP3    H243098   5.844   5.944   3.086 -0.2836 -1.8544  0.3117
 7203TIP3   OH243099   6.586   2.434  13.929  0.2404 -0.4891  0.0289
 7203TIP3    H143100   6.656   2.498  13.934 -0.2102  0.1286 -1.0952
 7203TIP3    H243101   6.507   2.486  13.915 -0.5342 -1.1438  1.7618
 7204TIP3   OH243102   2.974   0.862  11.129 -0.1690  0.7001 -0.2718
 7204TIP3    H143103   3.019   0.909  11.059  0.0258  2.6279  1.0788
 7204TIP3    H243104   2.919   0.799  11.084  2.4682 -0.5235 -2.0563
 7205TIP3   OH243105   0.680   3.824  13.251 -0.1227 -0.0216 -0.5611
 7205TIP3    H143106   0.747   3.762  13.222  0.6902  1.4388 -1.9693
 7205TIP3    H243107   0.716   3.910  13.230 -0.9494  1.0132  1.8822
 7206TIP3   OH243108   4.450   3.633  11.343  0.6931  0.0480  0.1451
 7206TIP3    H143109   4.421   3.622  11.252 -2.0937 -0.7518  1.0069
 7206TIP3    H243110   4.499   3.554  11.362  0.2171 -0.3648 -0.3100
 7207TIP3   OH243111   0.645   0.884   1.344  0.3358  0.6076 -0.4881
 7207TIP3    H143112   0.620   0.977   1.347  1.7460  1.1036 -2.0148
 7207TIP3    H243113   0.664   0.869   1.251 -2.3116 -1.9431 -0.7730
 7208TIP3   OH243114   2.826   3.177   0.698  0.0042 -0.0812  0.5213
 7208TIP3    H143115   2.747   3.213   0.739  0.7612 -0.3063  2.2621
 7208TIP3    H243116   2.869   3.253   0.658 -1.8745 -0.1955 -1.9197
 7209TIP3   OH243117   0.834   0.850  12.608  0.2800 -0.3171 -0.2050
 7209TIP3    H143118   0.905   0.803  12.652 -0.5636  0.4291  2.1047
 7209TIP3    H243119   0.771   0.782  12.585  0.1072 -0.6018  1.0417
 7210TIP3   OH243120   4.686   1.030   2.888 -0.1915 -0.1445 -0.1655
 7210TIP3    H143121   4.631   1.036   2.810 -0.2013 -0.5797 -0.1911
 7210TIP3    H243122   4.642   1.085   2.953  1.2381  2.5118 -1.2872
 7211TIP3   OH243123   3.407   5.009  16.897  0.0426 -0.3149  0.2389
 7211TIP3    H143124   3.426   4.933  16.953  0.3001 -0.7045 -0.3703
 7211TIP3    H243125   3.465   5.078  16.929  2.2627 -1.3410 -1.3002
 7212TIP3   OH243126   3.911   1.153   0.583 -0.3582  0.2064 -0.4538
 7212TIP3    H143127   3.899   1.191   0.670 -0.1309 -0.1591 -0.2616
 7212TIP3    H243128   3.906   1.059   0.597  2.4487 -0.0241 -0.3617
 7213TIP3   OH243129   0.837   6.504  13.100 -0.7712 -0.0819  0.2804
 7213TIP3    H143130   0.895   6.493  13.176 -1.1075  0.3420  0.6073
 7213TIP3    H243131   0.861   6.589  13.063  0.0367 -0.7033 -0.6671
 7214TIP3   OH243132   2.789   0.553  17.098  0.5351  0.3293 -0.3493
 7214TIP3    H143133   2.875   0.515  17.118 -0.0187 -1.6600 -1.4192
 7214TIP3    H243134   2.774   0.530  17.006  0.0560  3.1390 -1.0566
 7215TIP3   OH243135   4.923   6.184   3.486 -0.2144 -0.5544 -0.6316
 7215TIP3    H143136   4.960   6.272   3.481  1.0315 -1.0838 -1.1794
 7215TIP3    H243137   4.909   6.159   3.394  0.6601 -1.4020 -0.5509
 7216TIP3   OH243138   1.839   3.262   2.456 -0.3956  0.3240 -0.0621
 7216TIP3    H143139   1.815   3.188   2.402 -1.4185 -0.9540  2.0173
 7216TIP3    H243140   1.816   3.339   2.403 -0.6126 -0.8268 -1.7133
 7217TIP3   OH243141   5.708   0.516  11.695 -0.0298 -0.1833  0.7940
 7217TIP3    H143142   5.616   0.505  11.718 -0.1273 -2.5851 -0.4013
 7217TIP3    H243143   5.708   0.580  11.624 -0.9673 -1.1949 -0.1476
 7218TIP3   OH243144   2.992   0.442  10.716  0.4096 -0.1281 -0.5479
 7218TIP3    H143145   2.897   0.439  10.711  0.4087  0.5169 -1.0284
 7218TIP3    H243146   3.022   0.364  10.669  0.1385  0.1366 -1.1653
 7219TIP3   OH243147   0.228   0.774   0.654  0.1494 -0.2988 -0.2397
 7219TIP3    H143148   0.193   0.700   0.605 -0.4023 -0.9045  1.0157
 7219TIP3    H243149   0.160   0.841   0.648  0.5247  0.0252 -1.1317
 7220TIP3   OH243150   4.894   1.163   2.538  0.5562 -0.3293  0.4199
 7220TIP3    H143151   4.988   1.178   2.528  0.4298 -0.7058 -2.0996
 7220TIP3    H243152   4.884   1.068   2.529  0.0277 -0.4483  1.9994
 7221TIP3   OH243153   5.133   3.158  16.334 -0.5007 -0.0007  0.2547
 7221TIP3    H143154   5.191   3.084  16.317 -0.6193  0.3440 -2.0678
 7221TIP3    H243155   5.092   3.138  16.417  1.1063 -1.4521  0.7595
 7222TIP3   OH243156   5.558   5.193  14.597  0.4448  0.6382  0.1594
 7222TIP3    H143157   5.604   5.125  14.548 -0.5714 -0.7318  1.0600
 7222TIP3    H243158   5.591   5.275  14.560  2.0031 -0.3174 -0.6690
 7223TIP3   OH243159   3.861   0.887   0.594  0.0093 -0.1192  0.2254
 7223TIP3    H143160   3.928   0.818   0.594  0.6389  0.4419 -1.1623
 7223TIP3    H243161   3.784   0.845   0.630 -0.2748 -2.2733 -2.5055
 7224TIP3   OH243162   3.410   1.767   5.524  0.2267 -0.0051 -0.1952
 7224TIP3    H143163   3.402   1.862   5.531  0.8743  0.0415  0.0090
 7224TIP3    H243164   3.342   1.742   5.461 -2.0672  0.2091  2.0431
 7225TIP3   OH243165   4.311   0.383   4.870  0.3280 -0.4019 -0.2620
 7225TIP3    H143166   4.331   0.331   4.948  1.0448 -0.8201 -0.7062
 7225TIP3    H243167   4.386   0.443   4.861 -1.1635  1.7925  1.0789
 7226TIP3   OH243168   1.133   6.652  14.337 -0.0755  0.4236  0.4804
 7226TIP3    H143169   1.124   6.686  14.247  1.7904 -1.9405 -0.7035
 7226TIP3    H243170   1.079   6.573  14.338 -0.3598  0.6132  1.5895
 7227TIP3   OH243171   6.169   5.907  11.104 -0.3609 -0.5792  0.2861
 7227TIP3    H143172   6.129   5.854  11.035 -2.6710 -0.8146  1.7412
 7227TIP3    H243173   6.117   5.890  11.182  2.2339 -0.4083  2.1990
 7228TIP3   OH243174   4.366   1.052   5.194 -0.7210 -0.8263 -0.1655
 7228TIP3    H143175   4.374   0.985   5.126  1.7896 -2.2732  1.3912
 7228TIP3    H243176   4.378   1.004   5.276 -1.6172  1.1558  1.1988
 7229TIP3   OH243177   4.361   4.487   0.203 -0.3111  0.3797  0.0425
 7229TIP3    H143178   4.417   4.562   0.223  1.1783 -0.9104  0.9601
 7229TIP3    H243179   4.403   4.447   0.126 -0.0233 -0.5254  0.6582
 7230TIP3   OH243180   2.660   1.208  12.280 -0.1364 -0.9166 -0.1220
 7230TIP3    H143181   2.599   1.145  12.317  1.0200 -0.4923  2.7769
 7230TIP3    H243182   2.732   1.213  12.343  2.3397 -0.4626 -2.7503
 7231TIP3   OH243183   6.425   4.273   5.188  0.1964 -0.0506  0.4450
 7231TIP3    H143184   6.374   4.251   5.110  0.1456 -1.1570  0.7715
 7231TIP3    H243185   6.488   4.338   5.157 -0.3565  0.1437 -0.3278
 7232TIP3   OH243186   5.390   3.361  11.932 -0.2114 -0.5881 -0.0920
 7232TIP3    H143187   5.432   3.331  12.013 -0.8234  0.0826  0.4813
 7232TIP3    H243188   5.451   3.426  11.896 -0.6317  0.1959  0.6048
 7233TIP3   OH243189   0.084   4.957   3.429  0.2432  0.3336  0.6658
 7233TIP3    H143190   0.111   4.943   3.338 -1.2310  0.3791  0.1990
 7233TIP3    H243191   0.128   5.038   3.454 -1.6800  1.9931 -1.0259
 7234TIP3   OH243192   4.270   4.209   5.785 -0.0711  0.1655 -0.0978
 7234TIP3    H143193   4.214   4.130   5.788  0.8900 -0.5295  0.0869
 7234TIP3    H243194   4.343   4.184   5.729  0.6221  0.6776  0.5716
 7235TIP3   OH243195   5.542   1.388   1.561  0.1601  0.0147  0.0415
 7235TIP3    H143196   5.464   1.426   1.520 -0.8589 -0.4552  1.4867
 7235TIP3    H243197   5.514   1.301   1.590  0.9284  0.1912  1.3900
 7236TIP3   OH243198   1.418   1.121  12.656  0.2228 -0.2652  0.3178
 7236TIP3    H143199   1.427   1.040  12.706  1.1153  0.0991  0.7667
 7236TIP3    H243200   1.428   1.094  12.565  0.6399 -0.6421  0.4738
 7237TIP3   OH243201   5.660   2.042  12.874  0.7141 -0.5669 -0.3702
 7237TIP3    H143202   5.580   2.018  12.920  0.9392  2.6009  2.0253
 7237TIP3    H243203   5.728   1.986  12.911  0.0148 -1.7857 -0.8696
 7238TIP3   OH243204   1.895   2.686   4.128  0.2575 -0.5928 -0.3057
 7238TIP3    H143205   1.880   2.592   4.144 -0.7772 -0.2779  0.7849
 7238TIP3    H243206   1.963   2.689   4.061 -1.8692 -2.1710 -2.7268
 7239TIP3   OH243207   0.448   3.238   2.526 -0.2012 -0.5140  0.3627
 7239TIP3    H143208   0.523   3.213   2.580  0.9146 -0.1247 -0.9258
 7239TIP3    H243209   0.477   3.220   2.436 -1.7295 -0.5041 -0.1554
 7240TIP3   OH243210   1.295   5.347  16.679  0.2766  0.2664 -0.8086
 7240TIP3    H143211   1.201   5.368  16.678 -0.4181 -2.3872  0.6739
 7240TIP3    H243212   1.309   5.305  16.764  2.5955 -0.4181 -1.4793
 7241TIP3   OH243213   4.797   5.634  14.818  0.4804  0.3007 -0.0811
 7241TIP3    H143214   4.764   5.650  14.907 -0.0497 -0.8841 -0.0382
 7241TIP3    H243215   4.718   5.615  14.766  0.9566 -1.6513 -0.1825
 7242TIP3   OH243216   5.530   1.961   5.145 -0.1290  0.6513  0.1570
 7242TIP3    H143217   5.598   1.894   5.142 -0.0566  0.6480  1.4100
 7242TIP3    H243218   5.472   1.932   5.215 -1.2091  0.8730 -0.6119
 7243TIP3   OH243219   6.457   5.732  11.255  0.0817  0.8695  0.0047
 7243TIP3    H143220   6.388   5.681  11.212  0.3551  1.8708 -1.6991
 7243TIP3    H243221   6.416   5.763  11.336 -0.8119 -0.1650 -0.0255
 7244TIP3   OH243222   3.113   0.922  14.666  0.2027 -0.1527  0.7078
 7244TIP3    H143223   3.068   0.971  14.597  1.4070 -0.0048 -0.0074
 7244TIP3    H243224   3.128   0.835  14.628  0.2915 -0.2844  1.0382
 7245TIP3   OH243225   4.497   6.285  12.070  0.9873  0.5387 -0.2588
 7245TIP3    H143226   4.408   6.321  12.069  0.7638 -0.0158 -0.3161
 7245TIP3    H243227   4.541   6.333  12.141  0.6003  0.7025 -0.1288
 7246TIP3   OH243228   1.044   4.125   1.123 -0.3390  0.4678 -0.4159
 7246TIP3    H143229   0.983   4.148   1.193  0.1462  0.2957  0.0636
 7246TIP3    H243230   1.050   4.205   1.069  0.0829  0.9426  0.3205
 7247TIP3   OH243231   2.821   2.259   2.709 -0.3139 -0.2612  0.2325
 7247TIP3    H143232   2.809   2.173   2.749 -1.3939  0.1326  0.7972
 7247TIP3    H243233   2.736   2.281   2.671  0.1041  0.3164 -0.4033
 7248TIP3   OH243234   4.531   4.742  14.082 -0.0649 -0.1304  0.4875
 7248TIP3    H143235   4.620   4.726  14.113 -0.7443 -0.9830  2.1433
 7248TIP3    H243236   4.502   4.658  14.046 -0.0456  0.2767 -0.5157
 7249TIP3   OH243237   1.805   3.620  14.946 -0.2113  0.3993  0.1906
 7249TIP3    H143238   1.852   3.696  14.981  0.4972  0.4864 -0.9027
 7249TIP3    H243239   1.730   3.609  15.005  0.8637  0.5877  1.6742
 7250TIP3   OH243240   5.111   2.339   5.744 -0.0142  0.0226  0.5778
 7250TIP3    H143241   5.045   2.400   5.775  0.5619  1.2259 -0.4608
 7250TIP3    H243242   5.063   2.260   5.723 -0.8171  0.1917  1.6951
 7251TIP3   OH243243   5.673   3.058  16.163  0.7391 -0.1619 -0.2025
 7251TIP3    H143244   5.708   3.133  16.115  0.2814 -0.5007 -1.0910
 7251TIP3    H243245   5.692   3.078  16.255  0.7074  0.9960 -0.4250
 7252TIP3   OH243246   0.691   1.984  11.068 -0.0156 -0.0073  0.1270
 7252TIP3    H143247   0.741   1.902  11.070 -0.5472 -0.3433 -0.3090
 7252TIP3    H243248   0.652   1.986  10.981 -0.5736  0.3752  0.3840
 7253TIP3   OH243249   1.466   2.424  15.061  0.1203  0.4847  0.2533
 7253TIP3    H143250   1.491   2.335  15.035 -0.7703  0.4402 -0.5192
 7253TIP3    H243251   1.526   2.446  15.132  0.4296 -0.6875  0.3773
 7254TIP3   OH243252   2.364   4.880   1.310 -0.0612  0.1718 -0.4450
 7254TIP3    H143253   2.379   4.813   1.378 -0.8207  1.4109  1.0215
 7254TIP3    H243254   2.400   4.960   1.348  1.7569  0.4582 -2.6042
 7255TIP3   OH243255   4.458   6.834  12.831  0.3501 -0.3296 -0.2015
 7255TIP3    H143256   4.448   6.815  12.925  1.5113 -0.4988 -0.1062
 7255TIP3    H243257   4.549   6.861  12.821 -0.0711  0.8670 -1.0964
 7256TIP3   OH243258   1.764   4.206   3.355 -1.1268 -0.1595  0.6506
 7256TIP3    H143259   1.854   4.221   3.326 -1.0055 -1.5954  0.1934
 7256TIP3    H243260   1.732   4.292   3.382 -0.0904  0.6150 -0.5115
 7257TIP3   OH243261   6.217   0.390   2.378 -0.1082  1.0092 -0.3465
 7257TIP3    H143262   6.167   0.454   2.327 -1.3197  0.8746  0.6389
 7257TIP3    H243263   6.225   0.429   2.465 -2.0091 -0.6679  0.6740
 7258TIP3   OH243264   3.566   1.135   0.540  0.2738  0.6204 -0.2609
 7258TIP3    H143265   3.656   1.123   0.512 -0.0185  1.0758 -1.4367
 7258TIP3    H243266   3.549   1.228   0.528  0.6636  1.2458  3.1260
 7259TIP3   OH243267   6.364   0.479   6.274 -1.0558 -0.4101 -0.4173
 7259TIP3    H143268   6.374   0.566   6.236  0.1808  0.1107  1.0256
 7259TIP3    H243269   6.279   0.480   6.317 -2.2697 -0.8536 -2.6609
 7260TIP3   OH243270   3.855   2.876  14.111  0.1926 -0.3657 -0.4151
 7260TIP3    H143271   3.822   2.937  14.045 -1.6037  0.3533  1.0645
 7260TIP3    H243272   3.778   2.848  14.160  1.4396 -0.8147  1.4380
 7261TIP3   OH243273   5.982   5.898   6.454  0.1907 -0.0639  0.2766
 7261TIP3    H143274   5.948   5.817   6.493  1.3507 -1.4163 -1.3779
 7261TIP3    H243275   5.903   5.946   6.426 -0.4943 -0.9793  0.5769
 7262TIP3   OH243276   2.453   6.432   0.203 -0.1742  0.3320 -0.0596
 7262TIP3    H143277   2.384   6.370   0.228 -0.3232 -0.2534 -1.8087
 7262TIP3    H243278   2.411   6.492   0.141  0.8500  0.0109 -1.0921
 7263TIP3   OH243279   1.183   3.988   6.246 -0.3848  0.4164 -0.2734
 7263TIP3    H143280   1.094   3.992   6.212  0.1560 -0.8226 -1.9584
 7263TIP3    H243281   1.198   4.074   6.286 -2.7281  0.2321  1.1838
 7264TIP3   OH243282   0.908   4.599   0.355 -0.4452  0.8345 -0.2229
 7264TIP3    H143283   0.923   4.668   0.290  0.4833  0.4872 -0.3949
 7264TIP3    H243284   0.986   4.599   0.409  0.0215 -0.7251 -0.8405
 7265TIP3   OH243285   3.908   1.660  11.762 -0.0264  0.1042 -0.2814
 7265TIP3    H143286   3.969   1.605  11.812 -1.5065 -1.3253  0.0566
 7265TIP3    H243287   3.930   1.749  11.786  1.5654 -0.3990  0.2331
 7266TIP3   OH243288   3.237   1.058   1.787  0.3944  0.4850 -0.2731
 7266TIP3    H143289   3.181   0.996   1.833 -1.0981  1.3820 -0.7898
 7266TIP3    H243290   3.307   1.078   1.849 -0.5274  0.2314  0.8861
 7267TIP3   OH243291   2.844   4.295   0.676  0.1364  0.3693  0.0339
 7267TIP3    H143292   2.902   4.223   0.700 -0.2834  0.4055  1.2060
 7267TIP3    H243293   2.815   4.274   0.587 -0.0807 -0.9843  0.4086
 7268TIP3   OH243294   3.534   2.029   5.447  0.1301  0.1605  0.5019
 7268TIP3    H143295   3.572   1.957   5.397  0.9211  1.0218 -0.1696
 7268TIP3    H243296   3.586   2.032   5.528 -1.8890 -1.9843  2.0161
 7269TIP3   OH243297   4.508   2.123  16.972 -0.3374  0.6758  0.5191
 7269TIP3    H143298   4.512   2.128  17.067 -0.3709  0.8723  0.5097
 7269TIP3    H243299   4.421   2.156  16.949 -0.8303 -0.5559  0.5068
 7270TIP3   OH243300   4.941   4.700  13.623  0.0017 -0.0701 -0.2717
 7270TIP3    H143301   4.991   4.715  13.543 -0.1630 -0.1878 -0.3948
 7270TIP3    H243302   4.987   4.752  13.690  0.8186 -0.8866 -0.1874
 7271TIP3   OH243303   3.433   3.748   5.203 -0.4907 -0.2076 -0.6714
 7271TIP3    H143304   3.388   3.701   5.134 -2.0179  1.8406 -1.1874
 7271TIP3    H243305   3.382   3.729   5.282 -1.4290  0.8748 -0.9744
 7272TIP3   OH243306   1.474   2.536  12.709 -0.1013 -0.6152 -0.1750
 7272TIP3    H143307   1.395   2.530  12.655 -1.1609 -5.2782  1.3746
 7272TIP3    H243308   1.543   2.497  12.655  0.2668  0.1040 -0.2287
 7273TIP3   OH243309   6.738   0.223  12.711  0.5377  0.1081  0.1382
 7273TIP3    H143310   6.647   0.207  12.738  0.0832 -0.7755 -1.7631
 7273TIP3    H243311   6.743   0.318  12.701 -0.8643  0.0361 -1.8013
 7274TIP3   OH243312   4.838   1.043  11.882  0.0450 -0.2487 -0.0304
 7274TIP3    H143313   4.858   1.132  11.911  2.2118 -0.6711 -0.0613
 7274TIP3    H243314   4.881   0.987  11.946 -1.9672 -1.3343  0.4531
 7275TIP3   OH243315   5.713   2.284   1.727  0.5917 -0.3716  0.3137
 7275TIP3    H143316   5.637   2.333   1.696  1.0067 -0.4821 -0.9266
 7275TIP3    H243317   5.779   2.351   1.746  0.4128 -0.3209  0.7955
 7276TIP3   OH243318   6.570   5.643  15.478  0.1186 -0.2286 -0.3711
 7276TIP3    H143319   6.575   5.601  15.563 -2.8806  0.7629  0.4232
 7276TIP3    H243320   6.551   5.572  15.417 -2.9068 -0.4447  0.6579
 7277TIP3   OH243321   4.983   6.772  15.836 -0.3422 -0.2263 -0.3385
 7277TIP3    H143322   4.955   6.779  15.745  1.9839 -1.6664 -1.2567
 7277TIP3    H243323   5.068   6.816  15.839 -0.8211  0.7059  1.4156
 7278TIP3   OH243324   0.942   4.299   2.049  0.1263 -0.1131  0.4764
 7278TIP3    H143325   0.896   4.310   1.966  3.0563 -1.0124 -1.3799
 7278TIP3    H243326   0.881   4.248   2.103 -1.3151 -0.7133 -1.6065
 7279TIP3   OH243327   0.637   5.351   1.297  0.3948 -0.2853 -0.4372
 7279TIP3    H143328   0.545   5.377   1.299  0.4114 -0.1165 -1.2574
 7279TIP3    H243329   0.658   5.348   1.203  1.2815 -0.1100 -0.2485
 7280TIP3   OH243330   5.900   0.425   3.328  0.4271 -0.5388  0.0652
 7280TIP3    H143331   5.971   0.488   3.316 -0.9412  0.8213 -1.4238
 7280TIP3    H243332   5.887   0.422   3.423 -0.1765  2.3764  0.1817
 7281TIP3   OH243333   5.588   6.711   6.186 -0.3564 -0.2770  0.6820
 7281TIP3    H143334   5.682   6.696   6.184 -0.3071 -0.2247  1.9958
 7281TIP3    H243335   5.574   6.772   6.259 -1.4174 -0.3679  0.5795
 7282TIP3   OH243336   5.616   2.619   4.911 -0.2039  0.5310 -0.2956
 7282TIP3    H143337   5.696   2.573   4.888 -0.1684  0.3096  0.2622
 7282TIP3    H243338   5.551   2.591   4.846 -0.1551 -0.2201 -0.0193
 7283TIP3   OH243339   6.399   1.102   1.991 -0.4711  0.8906 -0.1282
 7283TIP3    H143340   6.473   1.154   1.958  0.0674  0.5890  0.5769
 7283TIP3    H243341   6.337   1.100   1.918  1.2183 -0.8516 -1.6212
 7284TIP3   OH243342   3.570   0.369   5.464  0.0772  0.6739 -0.3339
 7284TIP3    H143343   3.620   0.354   5.384  0.9855 -2.0164  0.6287
 7284TIP3    H243344   3.629   0.343   5.535 -1.5085  0.7228  1.0760
 7285TIP3   OH243345   0.523   5.381  12.519  0.3234 -0.3785  0.5560
 7285TIP3    H143346   0.596   5.351  12.574  0.8086 -0.9309 -0.3448
 7285TIP3    H243347   0.542   5.473  12.502  1.5384 -0.8240 -0.7155
 7286TIP3   OH243348   4.836   5.558  13.810 -0.3001  0.0632  0.2820
 7286TIP3    H143349   4.741   5.566  13.813 -0.3367 -0.5959  1.5571
 7286TIP3    H243350   4.854   5.509  13.730 -1.1062 -0.6515  0.5303
 7287TIP3   OH243351   1.746   5.845   1.128 -0.4091  0.0866 -0.1137
 7287TIP3    H143352   1.704   5.931   1.133 -0.2354  0.1518  0.2581
 7287TIP3    H243353   1.766   5.823   1.219 -0.6156 -0.4308 -0.1901
 7288TIP3   OH243354   5.791   6.760  12.085 -0.4873 -0.0196  0.1534
 7288TIP3    H143355   5.817   6.789  12.173  1.0503 -2.3551  0.5617
 7288TIP3    H243356   5.718   6.700  12.101 -1.2538  0.7789 -0.3268
 7289TIP3   OH243357   5.591   3.327   3.210 -0.0191  0.5166 -0.1497
 7289TIP3    H143358   5.664   3.311   3.271  0.0975  1.6084  0.0323
 7289TIP3    H243359   5.513   3.306   3.261  0.1821 -1.4672 -0.6168
 7290TIP3   OH243360   4.017   2.029  10.650 -0.5795 -0.2246  0.9759
 7290TIP3    H143361   4.054   1.995  10.731 -0.1155  0.6922  1.1595
 7290TIP3    H243362   4.093   2.047  10.594 -0.9142 -1.2871  0.1522
 7291TIP3   OH243363   6.028   2.837   2.619  0.4653 -0.0513  0.0982
 7291TIP3    H143364   5.952   2.799   2.575  2.1124 -0.6976 -2.3851
 7291TIP3    H243365   6.034   2.927   2.586  1.4185 -0.3785 -0.6928
 7292TIP3   OH243366   5.389   2.179   6.407  0.0577 -0.3181  0.3026
 7292TIP3    H143367   5.301   2.217   6.414 -0.6043 -1.7198 -0.0954
 7292TIP3    H243368   5.440   2.245   6.360 -0.8655  0.3642  0.2261
 7293TIP3   OH243369   6.221   6.153   2.057 -0.6010  0.0470  0.4741
 7293TIP3    H143370   6.308   6.191   2.042 -0.3568 -1.2344 -1.7367
 7293TIP3    H243371   6.237   6.059   2.067 -1.7584 -0.3320 -0.8513
 7294TIP3   OH243372   2.760   5.067  11.220 -0.0953 -0.4061 -0.1053
 7294TIP3    H143373   2.852   5.044  11.210 -0.6467 -2.8693 -0.1601
 7294TIP3    H243374   2.721   5.047  11.134 -0.9747 -1.1765  0.4470
 7295TIP3   OH243375   1.496   2.312  14.487  0.1916  0.1207  0.0944
 7295TIP3    H143376   1.471   2.292  14.577  0.6386  1.3717  0.5107
 7295TIP3    H243377   1.554   2.388  14.494 -1.4130  1.5611 -1.4204
 7296TIP3   OH243378   0.059   2.125  12.419  0.5087  0.1405  0.2350
 7296TIP3    H143379   0.107   2.154  12.341 -0.5791  0.0478 -0.4957
 7296TIP3    H243380   0.106   2.165  12.492  1.5689  0.2165 -0.4576
 7297TIP3   OH243381   4.739   5.284   1.367 -0.1980 -0.5182 -0.1784
 7297TIP3    H143382   4.716   5.221   1.435  1.0705 -1.1716 -0.3239
 7297TIP3    H243383   4.823   5.320   1.396 -1.0703  1.4090  0.0906
 7298TIP3   OH243384   5.766   1.734  12.538 -0.2178 -0.1053 -0.2775
 7298TIP3    H143385   5.724   1.667  12.592 -1.7501  0.5758 -0.5876
 7298TIP3    H243386   5.859   1.712  12.541 -0.6968 -2.4190 -0.6181
 7299TIP3   OH243387   0.989   0.337  13.074 -0.3315 -0.5579 -0.1618
 7299TIP3    H143388   1.039   0.260  13.099  0.2098  0.0703  0.7213
 7299TIP3    H243389   0.996   0.396  13.148 -0.0114  0.7069 -1.1602
 7300TIP3   OH243390   1.390   2.142   6.477  0.0878  0.4622 -0.4679
 7300TIP3    H143391   1.470   2.131   6.425 -0.0347  2.9927 -1.2982
 7300TIP3    H243392   1.323   2.095   6.428  1.0179 -1.9326  0.3812
 7301TIP3   OH243393   5.363   0.130  11.423  0.5606 -0.1892  0.3174
 7301TIP3    H143394   5.380   0.197  11.490  0.7078  2.2625 -1.9928
 7301TIP3    H243395   5.449   0.093  11.404  1.0058  1.1532 -0.4558
 7302TIP3   OH243396   3.808   1.285   4.340 -0.3016 -0.3704  0.0247
 7302TIP3    H143397   3.734   1.274   4.399 -1.5712 -1.5628 -1.7049
 7302TIP3    H243398   3.787   1.363   4.289  1.3958  1.4341  1.8775
 7303TIP3   OH243399   2.789   5.350  16.172  0.0068  0.2214  0.4488
 7303TIP3    H143400   2.766   5.440  16.194 -0.2004  0.8123 -1.8849
 7303TIP3    H243401   2.870   5.358  16.120 -1.2669 -0.6448 -1.8197
 7304TIP3   OH243402   5.671   3.045  11.883  0.3201 -0.0768 -0.4752
 7304TIP3    H143403   5.717   2.972  11.840 -1.0717 -0.4155 -1.4792
 7304TIP3    H243404   5.715   3.123  11.851  1.0063 -0.4337 -0.4202
 7305TIP3   OH243405   1.916   1.452   3.826 -0.4971  0.4033  0.3499
 7305TIP3    H143406   1.921   1.513   3.752 -0.7212  0.6330  0.5247
 7305TIP3    H243407   1.960   1.373   3.794 -1.3825  0.1799 -0.3505
 7306TIP3   OH243408   1.415   5.056  16.795  0.2830 -0.4171  0.7394
 7306TIP3    H143409   1.494   5.103  16.771 -0.4540  0.8762  0.7673
 7306TIP3    H243410   1.435   5.016  16.879  0.4130  1.1720  1.4903
 7307TIP3   OH243411   2.545   4.120   0.031 -0.2203 -0.1056  1.0408
 7307TIP3    H143412   2.544   4.216   0.026  0.9862 -0.1398 -0.1374
 7307TIP3    H243413   2.480   4.092  -0.034 -1.5571 -0.0933  2.3182
 7308TIP3   OH243414   2.980   6.264  12.938  0.2224 -0.7493 -0.9614
 7308TIP3    H143415   3.076   6.267  12.946  0.4100  0.3882 -3.0921
 7308TIP3    H243416   2.964   6.265  12.844 -1.9439  1.2984 -0.6472
 7309TIP3   OH243417   5.184   3.851   2.901 -0.0044  0.3436  0.2500
 7309TIP3    H143418   5.179   3.822   2.810 -0.1148 -1.8430  0.8942
 7309TIP3    H243419   5.277   3.874   2.914 -0.2295  1.9996 -0.7297
 7310TIP3   OH243420   0.302   0.696  11.210  0.1846  0.4129 -0.2947
 7310TIP3    H143421   0.359   0.659  11.277 -0.4480 -0.8661 -0.4355
 7310TIP3    H243422   0.326   0.649  11.130 -0.0662  0.9120 -0.6711
 7311TIP3   OH243423   2.657   4.202   6.352 -0.8207 -0.5043 -0.0988
 7311TIP3    H143424   2.581   4.144   6.344 -0.1986 -1.2662 -0.6655
 7311TIP3    H243425   2.632   4.266   6.418 -1.5837 -1.3405  0.4462
 7312TIP3   OH243426   3.056   5.508  13.632  0.3648  1.0079  0.5267
 7312TIP3    H143427   2.997   5.475  13.564 -0.0522  1.6429  0.5762
 7312TIP3    H243428   3.120   5.437  13.645 -2.6360 -1.5177  3.3327
 7313TIP3   OH243429   6.584   2.124  14.845  0.3192  0.0970  0.0311
 7313TIP3    H143430   6.678   2.140  14.843  0.3890 -0.1828  0.6339
 7313TIP3    H243431   6.575   2.033  14.816  0.2922 -0.0608  0.5170
 7314TIP3   OH243432   5.992   2.914   5.161 -0.4294 -0.0117  0.2373
 7314TIP3    H143433   6.018   2.949   5.075  0.8675  0.6028  0.8653
 7314TIP3    H243434   5.961   2.990   5.209  0.6561 -0.0252  0.9727
 7315TIP3   OH243435   4.678   3.614   3.098  0.0753  0.1982  0.2095
 7315TIP3    H143436   4.762   3.639   3.060  0.5646 -1.1297  0.3755
 7315TIP3    H243437   4.644   3.547   3.040  0.6148 -1.5130  1.7814
 7316TIP3   OH243438   6.246   2.644   1.753  0.2762 -0.0949 -0.2629
 7316TIP3    H143439   6.314   2.701   1.717 -0.0382 -0.1197 -0.9078
 7316TIP3    H243440   6.165   2.692   1.740  0.1401 -0.1744  0.2807
 7317TIP3   OH243441   1.249   2.728  14.274  0.5596  0.0752  0.9131
 7317TIP3    H143442   1.234   2.691  14.360 -0.2416 -0.0592  0.7182
 7317TIP3    H243443   1.243   2.653  14.214  0.5026  0.2636  0.6810
 7318TIP3   OH243444   1.538   1.992   5.734  0.5519  0.5704 -0.7458
 7318TIP3    H143445   1.487   2.072   5.719 -1.0961 -0.0819  0.8448
 7318TIP3    H243446   1.542   1.985   5.830  1.5145 -0.7392 -0.8613
 7319TIP3   OH243447   3.863   5.030  12.040  0.2337 -0.1090 -0.2970
 7319TIP3    H143448   3.932   5.094  12.055 -0.0609  0.1972 -0.2290
 7319TIP3    H243449   3.893   4.951  12.086  1.2161 -0.4493 -1.4663
 7320TIP3   OH243450   2.598   1.913  16.736  0.2552 -0.3775 -0.4638
 7320TIP3    H143451   2.607   1.838  16.678 -1.2325 -0.7318 -0.2819
 7320TIP3    H243452   2.624   1.880  16.822  0.4237 -0.4477 -0.5422
 7321TIP3   OH243453   5.905   2.827  11.592 -0.5667  0.0679 -0.3430
 7321TIP3    H143454   5.848   2.749  11.588  0.4903 -0.7228 -0.4935
 7321TIP3    H243455   5.984   2.797  11.637 -0.7862  1.5054  1.0810
 7322TIP3   OH243456   2.278   4.375  16.203  0.1363 -0.4454 -0.7349
 7322TIP3    H143457   2.362   4.330  16.203  0.0721 -0.5652 -0.2685
 7322TIP3    H243458   2.220   4.318  16.152  0.3612 -0.3104 -1.1490
 7323TIP3   OH243459   1.514   5.804   5.200  0.3156 -0.0904 -0.4338
 7323TIP3    H143460   1.555   5.724   5.234  2.2040  0.6205 -0.8801
 7323TIP3    H243461   1.428   5.806   5.241  1.2285 -0.9873  1.6944
 7324TIP3   OH243462   0.623   2.922  14.221 -0.7023  0.2362  0.3615
 7324TIP3    H143463   0.603   2.903  14.313  0.5672 -1.3078  0.3596
 7324TIP3    H243464   0.702   2.975  14.224  0.2435 -1.1218  0.1471
 7325TIP3   OH243465   3.181   2.315  15.111 -0.1919 -0.0503  0.3676
 7325TIP3    H143466   3.271   2.337  15.086  0.7360 -2.3664  1.3676
 7325TIP3    H243467   3.141   2.399  15.131  1.0206  1.2887 -2.2454
 7326TIP3   OH243468   0.499   6.813  11.675 -0.1975  0.1801 -0.6299
 7326TIP3    H143469   0.495   6.750  11.747 -2.3583  1.2075  0.2303
 7326TIP3    H243470   0.410   6.819  11.643  0.3994  1.0912 -2.2399
 7327TIP3   OH243471   1.596   3.179  11.789  0.0271  0.3329 -0.2812
 7327TIP3    H143472   1.561   3.267  11.800 -0.8151 -0.2567  2.3722
 7327TIP3    H243473   1.524   3.121  11.812  1.0048 -1.0486 -0.5382
 7328TIP3   OH243474   0.244   1.485   6.352  0.0736 -0.3986  0.1425
 7328TIP3    H143475   0.150   1.499   6.337 -0.2370 -2.4642 -0.1198
 7328TIP3    H243476   0.280   1.574   6.362 -2.1029  0.4208  1.5814
 7329TIP3   OH243477   0.724   2.246   5.867  0.1095 -0.4307  0.0081
 7329TIP3    H143478   0.762   2.163   5.894  1.9930  0.8497  1.6459
 7329TIP3    H243479   0.761   2.262   5.780  1.2191 -0.4871  0.4492
 7330TIP3   OH243480   0.658   0.658  14.154  0.0095 -0.5022  0.2685
 7330TIP3    H143481   0.690   0.646  14.244  0.5567  0.7364  0.2639
 7330TIP3    H243482   0.699   0.739  14.125 -0.1360 -0.9101 -1.1302
 7331TIP3   OH243483   2.591   4.023   2.839 -0.0161 -0.2907  0.0680
 7331TIP3    H143484   2.574   3.937   2.801  0.2914 -0.1478 -0.3975
 7331TIP3    H243485   2.651   4.065   2.777 -0.2191  0.2837  0.2613
 7332TIP3   OH243486   0.911   4.779   1.568  0.2044  0.2848  0.6101
 7332TIP3    H143487   0.861   4.848   1.610 -0.4250 -0.2227  0.7081
 7332TIP3    H243488   0.922   4.712   1.636 -2.2789 -1.3120 -0.4265
 7333TIP3   OH243489   0.845   0.645  14.841  0.3585  0.0456  0.1044
 7333TIP3    H143490   0.793   0.566  14.858  1.5103 -0.7931 -0.1033
 7333TIP3    H243491   0.833   0.663  14.748  0.3214 -0.0734  0.0860
 7334TIP3   OH243492   6.634   0.707  13.641  0.0483  0.2604  0.3523
 7334TIP3    H143493   6.689   0.629  13.650  0.3162  0.4496  0.3850
 7334TIP3    H243494   6.545   0.673  13.635  0.2212 -0.0946 -0.3623
 7335TIP3   OH243495   6.555   0.963   0.606 -0.1570 -0.8821  0.0991
 7335TIP3    H143496   6.505   1.028   0.656  1.1133  0.7196 -0.6026
 7335TIP3    H243497   6.536   0.982   0.515  0.5179 -1.2449 -0.1299
 7336TIP3   OH243498   4.447   0.924  12.698 -0.1960 -0.4008  1.0208
 7336TIP3    H143499   4.444   0.998  12.758  1.2648 -1.9269  3.0985
 7336TIP3    H243500   4.357   0.916  12.666 -0.9398  0.7043  2.7092
 7337TIP3   OH243501   2.867   0.289  11.988 -0.5035  0.0212 -0.5181
 7337TIP3    H143502   2.953   0.330  11.992 -0.2579 -0.5599  0.5903
 7337TIP3    H243503   2.809   0.352  12.031 -0.2322 -0.4945  0.6491
 7338TIP3   OH243504   1.492   4.827  13.798 -0.1950 -0.1112 -0.3307
 7338TIP3    H143505   1.547   4.776  13.857 -1.2995 -2.8925 -1.5240
 7338TIP3    H243506   1.550   4.853  13.727  0.4859  0.8252  0.5280
 7339TIP3   OH243507   5.025   6.039   2.777  0.7302  0.2402  0.5575
 7339TIP3    H143508   5.100   6.021   2.720  0.8876  1.8155  0.2000
 7339TIP3    H243509   4.953   5.990   2.738  1.7780 -2.3622  1.6366
 7340TIP3   OH243510   5.024   3.243  14.274 -0.0303  0.0196 -0.3979
 7340TIP3    H143511   4.990   3.276  14.191 -0.2820  2.5175  0.6330
 7340TIP3    H243512   5.116   3.270  14.275  0.0628 -0.3005  0.0005
 7341TIP3   OH243513   1.543   3.680   0.356 -0.4075  0.4587 -0.3809
 7341TIP3    H143514   1.488   3.696   0.279 -0.5577 -1.1398 -0.6477
 7341TIP3    H243515   1.525   3.589   0.379  2.1735 -0.1718 -0.5319
 7342TIP3   OH243516   4.314   3.640  16.448  0.4388  0.8048  0.0736
 7342TIP3    H143517   4.309   3.550  16.479  1.2152  0.2338 -1.3607
 7342TIP3    H243518   4.336   3.633  16.355  0.4981  2.4714 -0.0824
 7343TIP3   OH243519   0.217   2.842   2.745 -0.2772 -0.3060 -0.4809
 7343TIP3    H143520   0.210   2.773   2.679 -1.1395  0.6343 -1.4080
 7343TIP3    H243521   0.299   2.886   2.725 -0.5081 -0.0587 -0.9044
 7344TIP3   OH243522   0.006   2.051  15.073 -0.4152 -0.4544 -0.4051
 7344TIP3    H143523  -0.057   1.985  15.102 -0.2110 -1.0843 -1.3496
 7344TIP3    H243524   0.084   2.001  15.050 -0.6193 -0.0296 -2.1634
 7345TIP3   OH243525   3.785   1.412   5.579  0.1030 -0.1604  0.2091
 7345TIP3    H143526   3.730   1.489   5.593 -0.3449 -0.4527  0.0475
 7345TIP3    H243527   3.863   1.430   5.632  0.5055  0.9193 -0.6962
 7346TIP3   OH243528   5.453   6.667   0.240 -0.5276  0.4319  0.3645
 7346TIP3    H143529   5.510   6.687   0.166 -0.6298  1.2860  0.5007
 7346TIP3    H243530   5.369   6.644   0.199 -0.2667 -0.2246  0.1857
 7347TIP3   OH243531   5.834   6.703  14.685 -0.0235  0.5122  0.6034
 7347TIP3    H143532   5.874   6.656  14.758 -2.2542 -1.2388  0.7873
 7347TIP3    H243533   5.814   6.636  14.620 -2.9985  1.1560  0.7031
 7348TIP3   OH243534   4.541   1.805   0.238  0.5433 -0.6977 -0.0707
 7348TIP3    H143535   4.618   1.838   0.284 -0.4934  0.6970  0.7438
 7348TIP3    H243536   4.473   1.802   0.305 -0.6210 -0.0218 -1.1717
 7349TIP3   OH243537   4.601   0.553  13.040  0.3734  0.2469  0.6747
 7349TIP3    H143538   4.533   0.541  13.107 -0.9413 -0.5598 -0.7486
 7349TIP3    H243539   4.630   0.464  13.020 -1.8082  0.0758 -2.3197
 7350TIP3   OH243540   3.697   0.220  13.131 -0.3745 -0.6023 -0.0075
 7350TIP3    H143541   3.642   0.260  13.198  0.1426 -0.3427  0.2695
 7350TIP3    H243542   3.639   0.207  13.056 -0.3375  1.5532 -0.4590
 7351TIP3   OH243543   4.505   2.671  11.324  0.0204 -0.7289  0.3171
 7351TIP3    H143544   4.597   2.670  11.352  0.6169 -1.8221 -1.5119
 7351TIP3    H243545   4.489   2.762  11.299  1.1033 -0.8018 -0.7508
 7352TIP3   OH243546   5.544   3.359  15.522  0.6702 -0.1884  0.1871
 7352TIP3    H143547   5.569   3.376  15.613  0.3582  1.3946  0.0082
 7352TIP3    H243548   5.449   3.371  15.522  0.5961 -0.7329 -0.2523
 7353TIP3   OH243549   4.361   3.539  14.949 -1.1493  0.4483 -0.2820
 7353TIP3    H143550   4.371   3.614  14.890 -1.8278  1.4171  0.7768
 7353TIP3    H243551   4.450   3.510  14.967 -0.8161  1.6005  0.0163
 7354TIP3   OH243552   4.585   4.662   0.267 -0.2906 -0.0785 -0.4246
 7354TIP3    H143553   4.648   4.689   0.333 -0.3015  0.3476 -0.5853
 7354TIP3    H243554   4.580   4.736   0.206  2.0045 -1.5968 -2.6483
 7355TIP3   OH243555   0.023   0.300   4.571 -0.1696  0.2104 -0.3235
 7355TIP3    H143556   0.117   0.301   4.588 -0.0846  2.1871 -0.7210
 7355TIP3    H243557  -0.015   0.260   4.649  1.0758 -2.1144 -0.8267
 7356TIP3   OH243558   5.237   1.462   5.369 -0.8558 -0.2285  0.2293
 7356TIP3    H143559   5.284   1.383   5.342  1.2989  0.8646  0.5677
 7356TIP3    H243560   5.184   1.434   5.443 -1.6686 -1.7591 -0.8645
 7357TIP3   OH243561   5.298   4.783   1.153 -0.2379 -0.1317  0.5256
 7357TIP3    H143562   5.341   4.731   1.085 -0.9875 -0.6294  0.4248
 7357TIP3    H243563   5.335   4.751   1.235  0.2232  0.0509  0.3922
 7358TIP3   OH243564   0.406   6.489   5.512  0.2376 -0.7071 -0.0410
 7358TIP3    H143565   0.368   6.576   5.529 -0.7711 -0.8735 -1.3295
 7358TIP3    H243566   0.478   6.482   5.575 -0.3823  0.5960  0.8575
 7359TIP3   OH243567   4.690   5.919   0.346 -0.4061 -0.0569 -0.2754
 7359TIP3    H143568   4.629   5.967   0.402 -1.8673 -0.8563 -1.1277
 7359TIP3    H243569   4.683   5.961   0.261  0.6705  0.1926 -0.2556
 7360TIP3   OH243570   2.272   3.037  11.582 -0.6915  0.4309  0.4052
 7360TIP3    H143571   2.357   3.011  11.616 -0.8983 -1.1772 -0.2123
 7360TIP3    H243572   2.288   3.121  11.538 -0.1747  1.9800  3.2718
 7361TIP3   OH243573   3.780   0.455   3.052  0.9122 -0.4581  0.2471
 7361TIP3    H143574   3.851   0.424   2.996  2.0533  0.5696  1.0439
 7361TIP3    H243575   3.700   0.438   3.003  1.5631 -3.0008 -0.0728
 7362TIP3   OH243576   1.507   6.799  11.999  0.1486 -0.3044  0.2370
 7362TIP3    H143577   1.435   6.746  11.966 -0.7778  1.3579 -0.5855
 7362TIP3    H243578   1.570   6.803  11.927  0.8218 -1.3147  0.7594
 7363TIP3   OH243579   1.958   1.328   0.523  0.3612 -0.4221 -0.0639
 7363TIP3    H143580   1.893   1.320   0.453  0.0241  0.3564  0.1416
 7363TIP3    H243581   2.027   1.382   0.485  0.7315 -0.9697 -0.1720
 7364TIP3   OH243582   4.867   4.236   2.770 -0.2593  0.0176  0.4416
 7364TIP3    H143583   4.919   4.190   2.835 -1.8014 -0.3925  1.4486
 7364TIP3    H243584   4.864   4.326   2.800  2.6917  0.8761 -1.4872
 7365TIP3   OH243585   0.746   5.334   4.996 -0.4024 -0.0039 -0.4540
 7365TIP3    H143586   0.691   5.396   5.043 -2.4222 -1.8314 -0.2357
 7365TIP3    H243587   0.741   5.253   5.047  0.1825 -1.0615 -1.9678
 7366TIP3   OH243588   0.548   1.250   0.596 -0.1170  0.0679 -0.9021
 7366TIP3    H143589   0.636   1.281   0.617 -0.9097  1.5902  0.5409
 7366TIP3    H243590   0.535   1.273   0.504 -0.1149  2.9781 -0.3007
 7367TIP3   OH243591   1.570   0.074  11.386  0.0909 -0.5199  0.3175
 7367TIP3    H143592   1.550   0.106  11.474 -0.1330 -0.6465  0.3112
 7367TIP3    H243593   1.506   0.005  11.370 -1.7746  1.4581 -1.1096
 7368TIP3   OH243594   3.044   6.265  16.909  0.0442 -0.1480 -0.0865
 7368TIP3    H143595   3.109   6.302  16.848  2.2311 -2.1764  0.8792
 7368TIP3    H243596   3.067   6.303  16.994  0.9708 -1.9751  0.5259
 7369TIP3   OH243597   1.002   3.631   2.026 -0.4544  0.3206  0.1451
 7369TIP3    H143598   1.090   3.609   1.996 -1.2618 -1.8238 -0.9077
 7369TIP3    H243599   0.955   3.655   1.947 -1.4509 -1.0343  0.2903
 7370TIP3   OH243600   1.952   3.368  11.619 -0.2307  0.3824  0.7585
 7370TIP3    H143601   1.918   3.304  11.682 -0.9122 -1.1651 -1.0758
 7370TIP3    H243602   2.047   3.364  11.630 -0.2657 -0.8842  0.7757
 7371TIP3   OH243603   4.438   0.163  14.480  0.1759  0.7611 -0.1360
 7371TIP3    H143604   4.444   0.183  14.573  0.8990  1.9526 -0.4178
 7371TIP3    H243605   4.345   0.170  14.459  0.0017  0.4093  0.4968
 7372TIP3   OH243606   5.475   1.129   1.556  0.0293 -0.2680  0.3519
 7372TIP3    H143607   5.509   1.151   1.469 -0.4069 -0.4557  0.1253
 7372TIP3    H243608   5.401   1.070   1.538 -0.7076  0.4948  0.8006
 7373TIP3   OH243609   2.289   4.428   3.560 -0.3957  0.0844  0.1149
 7373TIP3    H143610   2.314   4.346   3.603 -0.5470  0.4032  0.8374
 7373TIP3    H243611   2.195   4.419   3.544 -0.2290 -0.2729 -0.7028
 7374TIP3   OH243612   4.451   2.316  14.873  0.3190  0.1027 -0.4302
 7374TIP3    H143613   4.538   2.276  14.884  0.3442 -0.1130 -1.3377
 7374TIP3    H243614   4.409   2.264  14.805 -0.6440  0.0356  0.1932
 7375TIP3   OH243615   3.815   6.456   2.073  0.1625  0.1663  0.1230
 7375TIP3    H143616   3.723   6.473   2.054  0.5346  0.0643 -1.9155
 7375TIP3    H243617   3.862   6.534   2.043  0.7172  0.5470  1.8296
 7376TIP3   OH243618   0.881   4.246  16.796  0.1500 -0.1636  0.2355
 7376TIP3    H143619   0.940   4.321  16.795  1.6271 -1.2805 -1.7641
 7376TIP3    H243620   0.903   4.199  16.876  0.4781  0.5459  0.5683
 7377TIP3   OH243621   2.508   6.003   0.227  0.2297  0.2635 -0.0143
 7377TIP3    H143622   2.586   6.022   0.175 -0.8758  1.1689 -1.4172
 7377TIP3    H243623   2.526   6.043   0.312  2.3389 -1.8207  0.6078
 7378TIP3   OH243624   6.532   0.026  16.159 -0.2113 -0.2643  0.1558
 7378TIP3    H143625   6.449   0.070  16.177  0.5158  0.7011  1.2485
 7378TIP3    H243626   6.555  -0.017  16.242  0.6702 -0.0189  0.0471
 7379TIP3   OH243627   6.043   6.008  13.231  0.0993 -0.2408  0.2280
 7379TIP3    H143628   5.973   5.956  13.270 -0.9699  0.4999 -0.6611
 7379TIP3    H243629   6.121   5.953  13.240 -0.3361 -0.6160  2.2491
 7380TIP3   OH243630   1.605   1.381  16.494 -0.1270 -0.6454 -0.0270
 7380TIP3    H143631   1.639   1.292  16.497  0.3455 -0.4997 -0.7778
 7380TIP3    H243632   1.666   1.433  16.546  1.2846 -0.2561 -1.9299
 7381TIP3   OH243633   5.709   1.350   2.107  0.6148 -0.0123 -0.3189
 7381TIP3    H143634   5.749   1.428   2.070 -0.6783 -0.3277 -2.5436
 7381TIP3    H243635   5.696   1.291   2.032  0.0997 -1.7195  1.0342
 7382TIP3   OH243636   3.419   6.262  17.037 -0.1155  0.1701 -0.0760
 7382TIP3    H143637   3.328   6.279  17.061 -0.3766  0.2585 -1.0983
 7382TIP3    H243638   3.425   6.289  16.945  0.5849 -1.1605 -0.4444
 7383TIP3   OH243639   2.728   0.808  15.932  0.0293  0.2474  0.1039
 7383TIP3    H143640   2.783   0.748  15.983  0.4617  1.7367  1.4879
 7383TIP3    H243641   2.640   0.798  15.969  0.0208  0.1914  0.0682
 7384TIP3   OH243642   3.620   0.184   6.267  0.4671  0.1245 -0.0677
 7384TIP3    H143643   3.546   0.244   6.258 -0.5034 -0.6679  1.8922
 7384TIP3    H243644   3.658   0.205   6.353  0.7828 -1.3018  0.1747
 7385TIP3   OH243645   4.543   6.516  12.851 -0.2968  0.5491  0.1450
 7385TIP3    H143646   4.561   6.481  12.764 -0.6563 -0.5451  0.4917
 7385TIP3    H243647   4.457   6.558  12.843 -0.3435  0.4217 -0.0199
 7386TIP3   OH243648   4.495   4.080   3.951  0.4465 -0.4405  0.2064
 7386TIP3    H143649   4.466   4.116   4.035  0.4763  0.2218 -0.0615
 7386TIP3    H243650   4.503   3.986   3.967 -2.0520 -0.7333  0.2710
 7387TIP3   OH243651   0.274   2.583  16.903  0.5945 -0.4038  0.4553
 7387TIP3    H143652   0.344   2.587  16.968  0.0469 -2.2491  1.2168
 7387TIP3    H243653   0.195   2.565  16.955 -0.2261  0.2658 -0.5205
 7388TIP3   OH243654   1.604   1.792  13.315 -0.0662 -0.3163 -1.0874
 7388TIP3    H143655   1.684   1.796  13.263  1.3529 -2.3899  0.7354
 7388TIP3    H243656   1.546   1.732  13.267  1.0105 -1.7769 -0.6302
 7389TIP3   OH243657   1.393   2.783   2.216 -0.7749  0.1396 -0.3853
 7389TIP3    H143658   1.418   2.693   2.195  1.5975  0.5921  0.1061
 7389TIP3    H243659   1.362   2.819   2.133  0.3471 -0.5318 -1.1281
 7390TIP3   OH243660   4.391   0.783   0.784 -0.1347 -0.4631 -1.0655
 7390TIP3    H143661   4.305   0.819   0.806 -0.0134 -0.5657 -0.4137
 7390TIP3    H243662   4.398   0.705   0.838  0.5783 -0.1792 -0.7419
 7391TIP3   OH243663   6.477   3.434   5.000  0.4349  0.0857 -0.0565
 7391TIP3    H143664   6.424   3.383   5.062  2.3548 -0.9276  0.8344
 7391TIP3    H243665   6.494   3.516   5.045  0.0931  0.1851 -0.1079
 7392TIP3   OH243666   2.055   1.638  11.919 -0.3760  0.1333  0.2212
 7392TIP3    H143667   2.024   1.552  11.890  0.0367 -0.0377  0.2875
 7392TIP3    H243668   1.994   1.661  11.990 -0.0809 -0.4140  0.6640
 7393TIP3   OH243669   0.405   6.025   4.591 -0.1693 -0.4829 -0.2812
 7393TIP3    H143670   0.326   6.072   4.619 -0.0754 -1.4872  1.8443
 7393TIP3    H243671   0.475   6.089   4.599  0.2561 -1.2489  4.2913
 7394TIP3   OH243672   3.188   4.157  15.161  0.2725  0.1948 -0.1217
 7394TIP3    H143673   3.220   4.067  15.168  1.6142  0.5206 -1.5290
 7394TIP3    H243674   3.102   4.155  15.202  1.4743 -1.0426  2.6158
 7395TIP3   OH243675   3.063   1.180   6.243 -0.3070 -0.5868  0.1743
 7395TIP3    H143676   3.131   1.214   6.302  1.9317 -1.5447 -1.7238
 7395TIP3    H243677   3.029   1.257   6.198  1.5505 -0.3298 -0.8636
 7396TIP3   OH243678   6.052   0.987   5.300  0.2167 -0.8528  0.4225
 7396TIP3    H143679   5.963   0.961   5.323 -0.5200 -0.4617 -1.7950
 7396TIP3    H243680   6.046   1.080   5.280  1.0719 -0.8666  0.0412
 7397TIP3   OH243681   5.157   6.226  12.228  0.4638 -0.0181 -0.5572
 7397TIP3    H143682   5.239   6.182  12.252  0.5378 -0.2974 -1.3050
 7397TIP3    H243683   5.179   6.319  12.226  0.1366  0.1773  1.7397
 7398TIP3   OH243684   5.759   5.503  16.631 -0.6843 -0.3231 -0.1014
 7398TIP3    H143685   5.820   5.444  16.585 -2.1472 -2.1336  0.1755
 7398TIP3    H243686   5.772   5.484  16.723  0.2758  1.3165  0.1341
 7399TIP3   OH243687   6.390   1.884  11.113 -0.5648  0.1273  0.6610
 7399TIP3    H143688   6.331   1.888  11.039  1.0162 -0.6473 -0.7051
 7399TIP3    H243689   6.454   1.816  11.090 -0.6125 -0.8956  3.1880
 7400TIP3   OH243690   2.748   4.061   5.255  0.1500  0.1930 -0.6692
 7400TIP3    H143691   2.780   4.141   5.295 -1.2201  0.8699 -0.8439
 7400TIP3    H243692   2.652   4.071   5.256 -0.1843 -2.2731  1.0487
 7401TIP3   OH243693   2.209   1.787   1.455 -0.0747 -0.0357  0.0293
 7401TIP3    H143694   2.195   1.726   1.383  0.5878  0.2156 -0.3176
 7401TIP3    H243695   2.227   1.871   1.413 -3.0660  0.9686  0.4829
 7402TIP3   OH243696   5.856   0.876  16.791 -0.0517 -0.2830 -0.0390
 7402TIP3    H143697   5.775   0.860  16.840 -0.5635  0.1400 -0.7277
 7402TIP3    H243698   5.865   0.801  16.733  1.3638 -1.5486  1.7117
 7403TIP3   OH243699   4.905   1.475   3.152  0.1567 -0.6818  0.0124
 7403TIP3    H143700   4.999   1.494   3.153  0.5432 -2.2397  2.2198
 7403TIP3    H243701   4.865   1.553   3.115  2.3285 -0.1036 -1.3285
 7404TIP3   OH243702   6.537   1.394  16.254  0.1999  0.0461  0.1305
 7404TIP3    H143703   6.580   1.344  16.323  0.3811 -1.0783 -0.7559
 7404TIP3    H243704   6.609   1.443  16.212  0.0068  1.1888  1.0645
 7405TIP3   OH243705   2.053   0.373   1.178 -0.4020  0.0211 -0.6091
 7405TIP3    H143706   2.016   0.459   1.158 -0.2734  0.1112 -0.4630
 7405TIP3    H243707   2.143   0.392   1.205 -1.1625  0.1080  2.0710
 7406TIP3   OH243708   6.011   0.464  15.959 -0.1191 -0.4045 -0.3560
 7406TIP3    H143709   5.967   0.421  15.886  1.4400 -1.1869 -0.8926
 7406TIP3    H243710   5.962   0.437  16.036  0.8179 -3.2937 -0.6631
 7407TIP3   OH243711   1.767   5.236   5.794 -0.0889 -0.6503  0.7483
 7407TIP3    H143712   1.723   5.265   5.874  1.1879  0.0415  1.2305
 7407TIP3    H243713   1.779   5.316   5.743 -0.1263 -0.9580  0.2440
 7408TIP3   OH243714   1.776   1.476   3.051  0.0353 -0.5070  0.0001
 7408TIP3    H143715   1.770   1.386   3.019  0.8917 -0.8644  0.7938
 7408TIP3    H243716   1.827   1.469   3.132  1.7334  0.8983 -0.8722
 7409TIP3   OH243717   3.330   1.002   0.790  0.4703  0.2487 -0.0939
 7409TIP3    H143718   3.341   0.976   0.698  1.6871  1.0355 -0.1895
 7409TIP3    H243719   3.403   0.961   0.835  0.0965  0.1902  0.4601
 7410TIP3   OH243720   0.974   0.803  13.704 -0.2839 -0.3014 -0.3531
 7410TIP3    H143721   0.914   0.877  13.696 -0.5296 -0.3357  1.0067
 7410TIP3    H243722   1.061   0.843  13.712 -0.4185 -0.1520  0.4107
 7411TIP3   OH243723   4.169   6.210  11.586 -0.7630 -0.0113  0.4148
 7411TIP3    H143724   4.244   6.263  11.612 -1.6012  0.5270  1.8240
 7411TIP3    H243725   4.186   6.125  11.625 -1.6443  0.5758  2.1579
 7412TIP3   OH243726   6.254   6.776   1.477  0.4992 -0.2261  0.1810
 7412TIP3    H143727   6.336   6.740   1.511  0.3205 -1.6469 -0.8202
 7412TIP3    H243728   6.191   6.760   1.548  0.8143 -0.2691  0.4555
 7413TIP3   OH243729   4.891   2.687  12.368 -0.5253 -0.6457  0.0410
 7413TIP3    H143730   4.840   2.740  12.306 -1.0849 -0.3360  0.7564
 7413TIP3    H243731   4.945   2.631  12.312  1.2061  1.6824 -0.7901
 7414TIP3   OH243732   0.657   0.530   4.012 -0.1089 -0.4987  0.2362
 7414TIP3    H143733   0.724   0.596   4.027 -0.4019 -0.2214  0.3232
 7414TIP3    H243734   0.685   0.485   3.932  0.4248 -0.6945  0.5273
 7415TIP3   OH243735   6.477   6.226   6.018 -0.2109  0.0719 -0.1140
 7415TIP3    H143736   6.538   6.269   6.078  1.4258 -0.2071 -1.5141
 7415TIP3    H243737   6.440   6.154   6.070 -1.8526  2.0986  1.7752
 7416TIP3   OH243738   6.724   3.922  16.002 -0.5334 -0.4206 -0.3875
 7416TIP3    H143739   6.665   3.960  15.937  0.8213 -0.2811 -1.5622
 7416TIP3    H243740   6.807   3.910  15.957 -0.3966 -3.2416  0.3959
 7417TIP3   OH243741   1.678   3.565   2.642  0.1490  0.0715  0.1697
 7417TIP3    H143742   1.593   3.521   2.638  0.8469 -1.4382  0.9799
 7417TIP3    H243743   1.719   3.547   2.558  0.0272  0.0056  0.1252
 7418TIP3   OH243744   0.924   3.338  15.063 -0.2234 -0.4733 -0.0122
 7418TIP3    H143745   0.836   3.343  15.025 -0.2475  0.5703  0.1388
 7418TIP3    H243746   0.983   3.357  14.989 -0.0351 -2.2262 -0.3626
 7419TIP3   OH243747   0.965   4.889  12.692 -0.6615  0.0806 -0.4128
 7419TIP3    H143748   0.978   4.796  12.707 -0.7123  0.3133  1.3434
 7419TIP3    H243749   0.940   4.896  12.600 -1.2098 -1.6831 -0.4278
 7420TIP3   OH243750   4.596   1.133   1.344 -0.2490 -0.0598  0.2078
 7420TIP3    H143751   4.615   1.070   1.274  0.6613 -0.0922  0.4708
 7420TIP3    H243752   4.541   1.199   1.302  0.2722 -0.0889 -0.5341
 7421TIP3   OH243753   2.916   5.432   4.798 -0.0555 -0.2634 -0.3909
 7421TIP3    H143754   2.861   5.467   4.868 -0.6448 -0.6698 -0.6423
 7421TIP3    H243755   2.994   5.487   4.799 -0.5425  0.4312 -0.1434
 7422TIP3   OH243756   3.326   3.862   3.583 -0.4450 -0.4994 -0.0521
 7422TIP3    H143757   3.247   3.900   3.545  0.1800  1.2016  0.2590
 7422TIP3    H243758   3.317   3.876   3.677 -0.1860 -1.1581  0.0839
 7423TIP3   OH243759   2.962   0.121  14.448 -0.2067  0.3799  0.0644
 7423TIP3    H143760   3.031   0.063  14.479 -1.2543 -0.6524  0.5424
 7423TIP3    H243761   2.928   0.079  14.369 -1.0691  0.2546  0.4904
 7424TIP3   OH243762   1.740   1.629  12.565 -0.3891  0.1577 -0.2055
 7424TIP3    H143763   1.690   1.589  12.636 -0.7855  0.6565 -0.1994
 7424TIP3    H243764   1.776   1.554  12.516 -1.4576 -0.2298 -0.4309
 7425TIP3   OH243765   1.170   5.751   1.622 -0.0846 -0.3758 -0.3671
 7425TIP3    H143766   1.246   5.788   1.669 -0.7454  3.3036 -1.8630
 7425TIP3    H243767   1.094   5.786   1.668 -0.8669 -1.4458 -0.7900
 7426TIP3   OH243768   1.870   0.192   5.323 -0.4986 -0.3229  0.1248
 7426TIP3    H143769   1.825   0.201   5.239 -0.3865  0.9539  0.1855
 7426TIP3    H243770   1.882   0.282   5.354  1.1147 -0.6772  0.6339
 7427TIP3   OH243771   1.070   2.119   4.658 -0.0651  0.1090  0.0036
 7427TIP3    H143772   1.031   2.105   4.572  1.4729  0.5138 -0.7984
 7427TIP3    H243773   1.141   2.182   4.643  2.1730 -2.0141  0.9893
 7428TIP3   OH243774   5.671   1.621   2.725 -0.5347  0.5651  0.1526
 7428TIP3    H143775   5.650   1.615   2.819 -0.4770  0.9142  0.1887
 7428TIP3    H243776   5.586   1.621   2.681 -0.5968  1.3084  0.2596
 7429TIP3   OH243777   3.009   3.218   4.063 -0.1899  0.7866  0.2886
 7429TIP3    H143778   2.953   3.219   3.985 -0.6288 -3.0091  0.3622
 7429TIP3    H243779   3.017   3.310   4.087 -0.0267  2.1998 -4.1674
 7430TIP3   OH243780   2.806   4.443  17.107 -0.2430  0.2251  0.7115
 7430TIP3    H143781   2.824   4.350  17.117 -0.0574  0.3957  2.0851
 7430TIP3    H243782   2.731   4.447  17.048 -0.5857 -0.8124  1.0650
 7431TIP3   OH243783   2.086   2.055  14.999 -0.4795  0.2112 -0.3771
 7431TIP3    H143784   2.002   2.076  14.959  0.0198  2.3085 -0.4712
 7431TIP3    H243785   2.115   1.976  14.954 -2.3028 -0.4612 -0.4466
 7432TIP3   OH243786   1.021   4.071  16.953 -0.3070 -0.2536 -0.1307
 7432TIP3    H143787   1.107   4.101  16.982  0.3959 -1.0412 -1.3160
 7432TIP3    H243788   1.039   4.013  16.879 -2.0176  1.6620 -2.1823
 7433TIP3   OH243789   1.392   6.165   3.451 -0.3716 -0.4145  0.3185
 7433TIP3    H143790   1.337   6.206   3.384  0.0891 -2.0128 -1.1233
 7433TIP3    H243791   1.365   6.073   3.450  2.3499 -1.2882 -0.5132
 7434TIP3   OH243792   5.129   0.783  15.533 -0.1815 -0.1234 -0.4212
 7434TIP3    H143793   5.111   0.697  15.495 -2.5836 -0.7529  1.8904
 7434TIP3    H243794   5.137   0.841  15.457  0.0404 -2.0710 -1.9870
 7435TIP3   OH243795   0.445   1.295   5.977  0.3204  0.0871  0.0257
 7435TIP3    H143796   0.355   1.292   6.010 -0.0501 -0.5995 -1.0187
 7435TIP3    H243797   0.463   1.207   5.945  1.3650  0.2184  0.1990
 7436TIP3   OH243798   3.826   1.900   1.551  0.7558  0.2366  0.4313
 7436TIP3    H143799   3.777   1.891   1.633  1.2879  0.2896  0.7605
 7436TIP3    H243800   3.766   1.869   1.484 -0.0409  1.0814  0.7260
 7437TIP3   OH243801   6.532   3.253  13.563 -0.4692 -0.4205 -0.6792
 7437TIP3    H143802   6.499   3.254  13.473 -0.3907 -1.7599 -0.7379
 7437TIP3    H243803   6.622   3.284  13.557  0.0153 -1.8543 -1.2919
 7438TIP3   OH243804   3.220   2.312  14.728  0.2929  0.3836 -0.0051
 7438TIP3    H143805   3.239   2.242  14.666  0.0444 -0.2551  0.6189
 7438TIP3    H243806   3.297   2.316  14.784  0.3641  0.7069 -0.1258
 7439TIP3   OH243807   6.605   5.052   2.575  0.3814 -0.7424  0.0720
 7439TIP3    H143808   6.532   4.995   2.551 -0.4473  0.4196 -0.2153
 7439TIP3    H243809   6.631   5.093   2.492  2.3356 -2.1930 -0.1252
 7440TIP3   OH243810   5.267   1.675  11.864 -0.0813  0.0930 -0.3185
 7440TIP3    H143811   5.237   1.614  11.797  2.1581 -2.0102  0.4381
 7440TIP3    H243812   5.362   1.674  11.856  0.0743  3.4442 -0.1320
 7441TIP3   OH243813   2.061   5.320  16.343 -0.1091  0.2834 -0.0129
 7441TIP3    H143814   2.138   5.268  16.368 -0.0774 -0.8926 -2.2758
 7441TIP3    H243815   2.092   5.372  16.269 -1.1704  0.7078 -0.1604
 7442TIP3   OH243816   6.719   0.186   3.788  0.3119 -0.1388  0.1536
 7442TIP3    H143817   6.780   0.234   3.845  0.0425 -0.2693  0.5612
 7442TIP3    H243818   6.697   0.108   3.838  0.3183 -0.4160 -0.2737
 7443TIP3   OH243819   1.692   5.142   2.629  0.3347  0.2905  0.7253
 7443TIP3    H143820   1.747   5.133   2.707  0.0233  0.6002  0.9849
 7443TIP3    H243821   1.744   5.103   2.558  1.0936  0.9983  0.8683
 7444TIP3   OH243822   3.900   5.523  13.391 -0.1923  0.1797  0.4629
 7444TIP3    H143823   3.842   5.533  13.467 -0.2620  1.9694  0.2208
 7444TIP3    H243824   3.947   5.606  13.386  0.0595 -0.0295 -1.2564
 7445TIP3   OH243825   6.549   5.372  12.026  1.1519 -0.0748  0.0916
 7445TIP3    H143826   6.643   5.370  12.012  1.2454 -1.6264  0.7538
 7445TIP3    H243827   6.531   5.461  12.055  2.4380  0.1877  0.1241
 7446TIP3   OH243828   5.407   2.435  11.769  0.0990 -0.0724  0.5056
 7446TIP3    H143829   5.316   2.464  11.768 -0.1627 -0.8222  1.3387
 7446TIP3    H243830   5.426   2.419  11.861  0.8596 -0.5638  0.2700
 7447TIP3   OH243831   6.823   0.401   1.326 -0.0370  0.8996 -0.1551
 7447TIP3    H143832   6.907   0.429   1.362 -0.2506  1.5927 -0.1753
 7447TIP3    H243833   6.770   0.380   1.403  0.7895 -1.5063 -0.1858
 7448TIP3   OH243834   2.356   4.278   3.111  0.4240 -0.1858 -0.0620
 7448TIP3    H143835   2.281   4.236   3.070 -1.9133  2.1343  1.5486
 7448TIP3    H243836   2.386   4.344   3.048  1.1651 -1.0912 -0.6905
 7449TIP3   OH243837   4.572   5.853  11.267  0.1828 -0.1222  0.0325
 7449TIP3    H143838   4.645   5.914  11.277 -0.3453  0.5469 -0.1091
 7449TIP3    H243839   4.567   5.836  11.173 -1.0575  1.3846 -0.2119
 7450TIP3   OH243840   4.574   2.924  11.539 -0.0549 -0.2704 -0.2469
 7450TIP3    H143841   4.643   2.861  11.518  0.6766 -0.3283  2.0101
 7450TIP3    H243842   4.542   2.955  11.454  1.0071 -2.1168 -1.3799
 7451TIP3   OH243843   3.882   0.636  12.270 -0.1052 -0.6302  0.3151
 7451TIP3    H143844   3.813   0.642  12.336  1.7912  2.5180  2.2735
 7451TIP3    H243845   3.962   0.616  12.319  0.9631 -0.8044 -1.3989
 7452TIP3   OH243846   2.917   1.142   3.672 -0.0521 -0.5835  0.2161
 7452TIP3    H143847   2.868   1.073   3.628  0.6239 -0.4334 -0.8167
 7452TIP3    H243848   2.954   1.194   3.601 -1.3558  1.4566  0.9431
 7453TIP3   OH243849   4.065   6.296   2.345  0.4165 -0.3262  0.5630
 7453TIP3    H143850   3.972   6.293   2.367  0.3599  0.1358  0.3770
 7453TIP3    H243851   4.074   6.241   2.268  0.1742  0.2250  0.1385
 7454TIP3   OH243852   6.001   0.780   1.194 -0.0207 -0.0940  0.5393
 7454TIP3    H143853   6.045   0.838   1.132  0.3999  0.5699  1.4171
 7454TIP3    H243854   5.910   0.811   1.196  0.4514  1.3717  1.8772
 7455TIP3   OH243855   2.479   3.313   4.374  0.5200 -0.4082 -0.3492
 7455TIP3    H143856   2.462   3.219   4.368 -2.5160  0.0996 -1.0291
 7455TIP3    H243857   2.502   3.327   4.466 -1.9385 -1.4753  0.5052
 7456TIP3   OH243858   6.366   6.589  13.376  0.2938 -0.4847 -0.2044
 7456TIP3    H143859   6.291   6.568  13.432  0.9591 -0.9293  0.5328
 7456TIP3    H243860   6.327   6.605  13.289 -0.9330  1.7439  0.6714
 7457TIP3   OH243861   1.458   1.917   0.680  0.7678 -0.3441 -0.0846
 7457TIP3    H143862   1.405   1.850   0.724  0.6715 -0.8524 -0.9582
 7457TIP3    H243863   1.455   1.992   0.739 -1.6504 -0.0312 -0.5014
 7458TIP3   OH243864   6.734   6.227   3.119 -0.1013  0.5784  0.3808
 7458TIP3    H143865   6.707   6.294   3.182  1.4937  1.7050 -0.0690
 7458TIP3    H243866   6.752   6.276   3.039  1.7703 -0.2741  0.2315
 7459TIP3   OH243867   4.057   0.117  11.125  0.4204  0.0927 -0.0267
 7459TIP3    H143868   4.008   0.035  11.127  0.2591  0.1793 -0.3125
 7459TIP3    H243869   4.128   0.101  11.063  2.3857 -0.9285  2.3148
 7460TIP3   OH243870   2.316   5.771   3.111  0.5761 -0.1283 -0.7702
 7460TIP3    H143871   2.380   5.711   3.148 -0.3805 -0.2743  0.7698
 7460TIP3    H243872   2.326   5.763   3.016  1.8506 -1.1835 -0.5669
 7461TIP3   OH243873   3.461   6.005  15.457 -0.1176 -0.4114 -0.0042
 7461TIP3    H143874   3.440   6.036  15.369  1.3245 -1.4992 -0.7940
 7461TIP3    H243875   3.449   5.910  15.452  0.1331 -0.5027  0.9247
 7462TIP3   OH243876   3.526   5.730   1.047  0.2753 -0.3800  0.1000
 7462TIP3    H143877   3.499   5.638   1.049 -0.4072 -0.1868  0.0385
 7462TIP3    H243878   3.448   5.778   1.074 -0.0953  0.3311 -2.0431
 7463TIP3   OH243879   4.780   6.698  12.109  0.3765 -0.1870  0.0902
 7463TIP3    H143880   4.742   6.697  12.197 -1.3845 -0.3316 -0.6199
 7463TIP3    H243881   4.717   6.748  12.057  0.4780 -1.5794 -1.4520
 7464TIP3   OH243882   5.195   4.684  11.791 -0.2537  0.0359 -0.3071
 7464TIP3    H143883   5.213   4.598  11.754  0.4923 -0.2650  0.6936
 7464TIP3    H243884   5.123   4.669  11.852 -1.8200  0.6216 -1.9253
 7465TIP3   OH243885   4.734   3.403   5.169  0.2726 -0.0340  0.2091
 7465TIP3    H143886   4.828   3.387   5.173  0.0815 -1.0473  1.2931
 7465TIP3    H243887   4.720   3.482   5.222  0.8660  2.1904 -2.7154
 7466TIP3   OH243888   3.512   2.842   2.425 -0.5058  0.4226 -0.0685
 7466TIP3    H143889   3.577   2.912   2.438 -0.9041  0.6225  0.8943
 7466TIP3    H243890   3.542   2.771   2.481  0.2773 -0.4707 -1.5612
 7467TIP3   OH243891   5.700   5.213  12.696  0.3194 -0.0397  0.3552
 7467TIP3    H143892   5.676   5.261  12.617 -2.2826  1.2993  1.8153
 7467TIP3    H243893   5.796   5.209  12.693  0.5907  3.5146 -0.9183
 7468TIP3   OH243894   3.268   4.475  13.428  0.0301  0.1369  0.0669
 7468TIP3    H143895   3.259   4.570  13.424 -1.5737  0.0103 -0.0656
 7468TIP3    H243896   3.359   4.461  13.454  0.4426  1.6885 -0.4014
 7469TIP3   OH243897   6.605   1.854  12.343 -0.1331  0.2064 -0.5432
 7469TIP3    H143898   6.693   1.825  12.319 -0.8024 -0.3942 -2.5233
 7469TIP3    H243899   6.583   1.805  12.422  0.6817 -0.9089 -0.9844
 7470TIP3   OH243900   6.557   6.158   0.250 -0.1442  0.7629  0.1098
 7470TIP3    H143901   6.467   6.128   0.239 -0.2364  0.1127  2.0983
 7470TIP3    H243902   6.548   6.245   0.289  0.1071  1.2692 -0.9448
 7471TIP3   OH243903   1.143   4.750  14.571  0.1102 -0.5835  0.0120
 7471TIP3    H143904   1.199   4.711  14.505  0.1606 -2.4420  1.0718
 7471TIP3    H243905   1.054   4.734  14.540  0.1217  1.0071 -0.9200
 7472TIP3   OH243906   2.822   5.996   5.735  0.4922  0.3184 -0.0627
 7472TIP3    H143907   2.888   5.965   5.797 -0.3203  0.2849  0.8183
 7472TIP3    H243908   2.866   5.996   5.650  1.3373 -0.5824  0.3553
 7473TIP3   OH243909   1.977   4.093  13.949  0.5365  0.4792 -0.2654
 7473TIP3    H143910   1.992   4.030  13.879 -1.6679 -2.4381  1.6192
 7473TIP3    H243911   2.026   4.058  14.024 -0.4257  1.2086  0.7345
 7474TIP3   OH243912   0.498   2.067   5.820  0.1181  0.7168  0.2639
 7474TIP3    H143913   0.508   1.977   5.852  0.3763  0.0343 -1.6104
 7474TIP3    H243914   0.582   2.109   5.842 -0.1749  0.6754  1.5680
 7475TIP3   OH243915   5.889   5.499  15.133  0.0210  0.3499 -0.0696
 7475TIP3    H143916   5.852   5.581  15.165  0.7821  0.1086  1.4972
 7475TIP3    H243917   5.849   5.487  15.047  0.5020  2.7848 -0.7140
 7476TIP3   OH243918   4.471   4.766   0.677 -0.1581 -0.6236 -0.1639
 7476TIP3    H143919   4.424   4.771   0.594  0.0711  1.7210 -0.2158
 7476TIP3    H243920   4.420   4.821   0.737  2.3020  1.8767 -0.1726
 7477TIP3   OH243921   3.594   5.284   0.132  0.2824  0.4594  0.1217
 7477TIP3    H143922   3.552   5.346   0.072  1.4855  0.0105 -1.2342
 7477TIP3    H243923   3.686   5.285   0.107  0.4517 -1.3291  0.5574
 7478TIP3   OH243924   6.241   1.274  12.818 -0.1344  0.6530  0.0517
 7478TIP3    H143925   6.269   1.250  12.730  1.4381  0.5523  0.5428
 7478TIP3    H243926   6.225   1.190  12.861 -0.3147  0.6822  0.0415
 7479TIP3   OH243927   5.511   4.257   4.731 -0.5000  0.5800 -0.3437
 7479TIP3    H143928   5.476   4.177   4.771 -1.2765  1.2127  0.2710
 7479TIP3    H243929   5.479   4.328   4.787 -0.9253  1.4319 -1.6177
 7480TIP3   OH243930   2.220   0.789  10.448 -0.4018 -0.2062  0.3671
 7480TIP3    H143931   2.141   0.760  10.494 -1.4063  1.2845 -0.3424
 7480TIP3    H243932   2.251   0.863  10.499  1.7754 -1.9588  1.8027
 7481TIP3   OH243933   5.524   1.694   2.235  0.3782 -0.0097 -0.2575
 7481TIP3    H143934   5.511   1.605   2.268 -1.9621  0.2792 -0.2897
 7481TIP3    H243935   5.481   1.694   2.149  0.8208  1.0216 -0.4962
 7482TIP3   OH243936   4.295   0.460  11.096  0.2709 -0.5009 -0.3551
 7482TIP3    H143937   4.242   0.476  11.018 -0.2576 -0.4210  0.0114
 7482TIP3    H243938   4.379   0.502  11.077 -0.4294  1.0235 -0.2090
 7483TIP3   OH243939   5.805   6.424  13.536 -0.0369  0.4258 -0.0713
 7483TIP3    H143940   5.890   6.385  13.560  0.3515  0.9155 -0.6202
 7483TIP3    H243941   5.774   6.464  13.617  0.7582  1.1451 -0.1085
 7484TIP3   OH243942   6.639   5.325  15.201  0.0531  0.3770 -0.5949
 7484TIP3    H143943   6.565   5.378  15.230  0.5695  1.0544 -0.4846
 7484TIP3    H243944   6.676   5.373  15.128 -0.4784 -0.6898 -1.6050
 7485TIP3   OH243945   0.727   1.630  13.237  1.1119 -0.1256 -0.1855
 7485TIP3    H143946   0.776   1.578  13.301  0.4741 -1.5194 -0.7898
 7485TIP3    H243947   0.787   1.640  13.163  1.7318  1.2099  0.4675
 7486TIP3   OH243948   1.910   4.372  16.629  0.2608 -0.4048 -0.6775
 7486TIP3    H143949   1.821   4.395  16.657 -0.1425 -1.7421 -0.7820
 7486TIP3    H243950   1.906   4.278  16.613  1.7601 -0.5182 -0.4971
 7487TIP3   OH243951   4.915   4.544  13.139  0.2871 -0.0421 -0.0159
 7487TIP3    H143952   4.881   4.631  13.157 -0.4546 -0.0508 -1.2544
 7487TIP3    H243953   4.958   4.517  13.221 -0.1252  1.1667  0.6175
 7488TIP3   OH243954   3.132   1.664  15.915  0.2021  0.6531  0.0063
 7488TIP3    H143955   3.121   1.580  15.960 -0.3481  0.7222  0.0004
 7488TIP3    H243956   3.157   1.725  15.985 -0.4838  0.7239  0.1979
 7489TIP3   OH243957   6.729   2.329   2.265 -0.1279 -0.0614  0.2336
 7489TIP3    H143958   6.796   2.325   2.196 -1.2230 -0.1353 -0.8652
 7489TIP3    H243959   6.656   2.377   2.225  0.4903  3.0956  2.5109
 7490TIP3   OH243960   6.136   4.876  15.803  0.1753  0.1318  0.3183
 7490TIP3    H143961   6.153   4.805  15.741  1.0056  0.5601  0.0405
 7490TIP3    H243962   6.220   4.892  15.845 -0.5453 -0.6639  2.1271
 7491TIP3   OH243963   5.642   0.604   3.863  0.1971 -0.1303  0.1658
 7491TIP3    H143964   5.596   0.684   3.838 -0.0751 -0.4177 -0.2717
 7491TIP3    H243965   5.596   0.534   3.816  2.1949 -0.2320 -1.8194
 7492TIP3   OH243966   5.327   5.737  11.856  0.0045  0.3110 -0.5365
 7492TIP3    H143967   5.365   5.656  11.891 -1.6517 -0.4865 -0.4591
 7492TIP3    H243968   5.299   5.714  11.768 -0.9252  0.6477 -0.3390
 7493TIP3   OH243969   0.022   5.891   2.767  0.2063  0.3054 -0.5359
 7493TIP3    H143970  -0.063   5.879   2.808 -0.0638  0.4862 -1.0324
 7493TIP3    H243971   0.069   5.809   2.784 -0.4188 -0.1782 -1.0867
 7494TIP3   OH243972   2.959   3.516   3.027 -0.2927 -0.7651  0.1269
 7494TIP3    H143973   2.978   3.546   3.116  1.4172 -2.8113  0.5349
 7494TIP3    H243974   3.034   3.547   2.976  0.1890 -2.0339  0.0351
 7495TIP3   OH243975   6.421   4.224  13.496 -0.5359 -0.2291 -0.7347
 7495TIP3    H143976   6.505   4.177  13.500  0.9225  2.2621  0.1963
 7495TIP3    H243977   6.443   4.307  13.452 -2.4961  0.5394 -0.3375
 7496TIP3   OH243978   5.293   1.983   1.190 -0.0223 -0.0429 -0.1624
 7496TIP3    H143979   5.364   2.022   1.139  0.1050 -0.2694 -0.1592
 7496TIP3    H243980   5.310   1.889   1.186  0.5710 -0.0123  1.1457
 7497TIP3   OH243981   5.970   3.607  16.968  0.1951  0.3624 -0.4062
 7497TIP3    H143982   5.890   3.634  17.012 -0.6124 -0.6196 -1.2019
 7497TIP3    H243983   6.013   3.689  16.943  0.4302  0.9267  1.7035
 7498TIP3   OH243984   0.354   5.576  11.234  0.2550  0.3832  0.4677
 7498TIP3    H143985   0.260   5.574  11.216 -0.4456  0.9864  3.4102
 7498TIP3    H243986   0.380   5.666  11.215  0.3514  0.1121 -0.7319
 7499TIP3   OH243987   0.510   3.885  16.975  0.1454 -0.2401  0.3986
 7499TIP3    H143988   0.555   3.920  16.899  0.8306 -1.0421  0.4187
 7499TIP3    H243989   0.509   3.957  17.038  1.4840 -0.2292  0.4309
 7500TIP3   OH243990   6.744   5.658  16.476 -0.2092  0.2812  0.1401
 7500TIP3    H143991   6.747   5.562  16.477 -1.3832  0.2140 -0.3027
 7500TIP3    H243992   6.704   5.681  16.559  3.0123  0.6058  1.7402
 7501TIP3   OH243993   1.013   4.088   3.910  0.0076 -0.8888 -0.2370
 7501TIP3    H143994   0.918   4.097   3.909  0.1811  2.4719 -2.2679
 7501TIP3    H243995   1.039   4.119   3.997 -0.6178  3.5895 -1.4207
 7502TIP3   OH243996   5.708   0.896  15.238 -0.4176  0.2690  0.0512
 7502TIP3    H143997   5.737   0.887  15.329 -1.4389 -1.3692  0.2626
 7502TIP3    H243998   5.677   0.809  15.214 -0.8778  0.8532 -1.6280
 7503TIP3   OH243999   2.531   1.166  16.071 -0.3953  0.3066  0.2188
 7503TIP3    H144000   2.611   1.127  16.107 -0.8536 -0.7679  0.1082
 7503TIP3    H244001   2.533   1.142  15.978 -0.3633  1.1291 -0.0025
 7504TIP3   OH244002   5.451   1.748   0.148 -0.1634  1.0769  0.4048
 7504TIP3    H144003   5.399   1.774   0.225 -0.2678  0.8032  0.4271
 7504TIP3    H244004   5.501   1.672   0.178 -2.2981 -0.8469 -0.5913
 7505TIP3   OH244005   2.603   1.768  11.092 -0.0280  0.2666 -0.2283
 7505TIP3    H144006   2.689   1.743  11.059  0.7169  2.1804  0.1125
 7505TIP3    H244007   2.541   1.719  11.039  1.2668 -1.2981 -0.3648
 7506TIP3   OH244008   2.926   6.654  16.704 -0.1384  0.5545 -0.2474
 7506TIP3    H144009   2.872   6.607  16.768 -0.7131  0.1242 -1.0227
 7506TIP3    H244010   2.883   6.637  16.620  0.0626  1.8905 -0.6395
 7507TIP3   OH244011   6.265   6.565   2.026  0.1175 -0.4337  0.1740
 7507TIP3    H144012   6.250   6.658   2.006  0.0075 -0.7430 -1.2707
 7507TIP3    H244013   6.179   6.525   2.015  0.0014 -0.6102  1.5340
 7508TIP3   OH244014   3.670   2.329  16.874  0.4851  0.0758 -0.0790
 7508TIP3    H144015   3.730   2.367  16.938  0.5438  0.8515 -0.5729
 7508TIP3    H244016   3.587   2.321  16.921  0.0486  2.2995 -0.3873
 7509TIP3   OH244017   0.081   0.994   0.503  0.1257  0.1718 -0.3232
 7509TIP3    H144018   0.016   0.948   0.451 -0.4744  1.7255 -1.0303
 7509TIP3    H244019   0.047   1.084   0.510  1.9492  0.9110 -0.3193
 7510TIP3   OH244020   6.074   3.996   3.098  0.3414 -0.0190 -0.5692
 7510TIP3    H144021   6.087   3.903   3.078  1.7213  0.1987 -0.7978
 7510TIP3    H244022   6.133   4.012   3.171  0.5313  0.8144 -0.9030
 7511TIP3   OH244023   2.899   0.995  15.809  0.4377 -0.1927  0.1950
 7511TIP3    H144024   2.908   0.948  15.726 -0.5730  0.3062 -0.2071
 7511TIP3    H244025   2.846   0.938  15.864 -0.9905  0.5397 -0.3756
 7512TIP3   OH244026   5.793   0.862  14.175 -0.0362 -0.4534  0.2890
 7512TIP3    H144027   5.731   0.897  14.239  0.1364 -1.1731  0.8687
 7512TIP3    H244028   5.878   0.896  14.203  0.0154 -0.6264  0.3492
 7513TIP3   OH244029   6.772   1.939   5.304  0.2336 -0.6374  0.1890
 7513TIP3    H144030   6.691   1.895   5.279 -0.3435  0.2642  0.4354
 7513TIP3    H244031   6.788   1.911   5.394  0.6137 -1.3984 -0.0999
 7514TIP3   OH244032   0.008   3.066  12.803  0.3682 -0.2235 -0.5953
 7514TIP3    H144033  -0.061   3.111  12.852  1.3821  1.1305 -0.3711
 7514TIP3    H244034  -0.036   3.034  12.724 -0.5755  0.4027 -0.3414
 7515TIP3   OH244035   0.575   2.680   2.152  0.2607  0.0312 -0.0805
 7515TIP3    H144036   0.598   2.601   2.202  1.0420  0.7795  0.7608
 7515TIP3    H244037   0.489   2.660   2.115  0.3870 -1.1661  0.2246
 7516TIP3   OH244038   4.995   2.957   4.251  0.1768 -0.1277 -0.1878
 7516TIP3    H144039   5.024   3.048   4.257  2.4805 -0.6345 -2.1225
 7516TIP3    H244040   5.012   2.921   4.338  1.1390  0.8283  0.0439
 7517TIP3   OH244041   6.348   3.481  13.369  0.4264  0.0487 -0.0900
 7517TIP3    H144042   6.267   3.442  13.335  0.5004 -0.6409  0.5077
 7517TIP3    H244043   6.346   3.462  13.463  1.1767  0.2274 -0.0337
 7518TIP3   OH244044   5.592   6.620   4.679  0.1377 -0.5322 -0.2199
 7518TIP3    H144045   5.569   6.713   4.679 -0.0217 -0.5705 -0.0017
 7518TIP3    H244046   5.559   6.586   4.596 -1.7656 -0.8760  0.6396
 7519TIP3   OH244047   3.894   3.550  11.057  0.1355  0.3281  0.5851
 7519TIP3    H144048   3.827   3.490  11.089  1.5271 -1.1674  0.7877
 7519TIP3    H244049   3.852   3.593  10.982 -0.7530 -1.2569  0.1078
 7520TIP3   OH244050   2.863   0.785  16.382 -0.0271 -0.3833  0.3776
 7520TIP3    H144051   2.930   0.851  16.399  0.3292 -0.6450  0.0266
 7520TIP3    H244052   2.872   0.723  16.454 -1.5536  0.8533  1.7067
 7521TIP3   OH244053   3.850   5.798   4.556  0.1342 -0.6830 -0.4025
 7521TIP3    H144054   3.880   5.839   4.475  1.8383  0.9014  0.9238
 7521TIP3    H244055   3.840   5.706   4.535 -0.6120 -0.1413 -2.6861
 7522TIP3   OH244056   5.060   5.145   1.471  0.2017  0.8986 -0.3485
 7522TIP3    H144057   5.079   5.072   1.412  2.3269  1.2727 -0.2161
 7522TIP3    H244058   5.073   5.109   1.559  1.5472  1.4510 -0.2911
 7523TIP3   OH244059   5.927   0.418   3.056  0.1440 -0.0565 -0.4714
 7523TIP3    H144060   5.933   0.511   3.037  0.9069 -0.2614 -1.2692
 7523TIP3    H244061   5.882   0.414   3.140 -2.4839  0.9316 -1.6931
 7524TIP3   OH244062   1.660   3.253   1.253 -0.0966  0.2919 -0.4606
 7524TIP3    H144063   1.593   3.230   1.317  0.2376  2.0615  0.5986
 7524TIP3    H244064   1.735   3.282   1.305  1.2540 -0.9100 -1.6388
 7525TIP3   OH244065   5.053   2.201  10.802 -0.0887 -0.6426 -0.6440
 7525TIP3    H144066   5.048   2.264  10.730  3.6911 -0.2624 -0.7294
 7525TIP3    H244067   5.046   2.115  10.759  0.4887 -0.3823 -1.2850
 7526TIP3   OH244068   1.890   3.334   1.406 -0.1461 -0.7894  0.3310
 7526TIP3    H144069   1.958   3.376   1.354  0.9410 -1.5800  1.0870
 7526TIP3    H244070   1.879   3.389   1.483 -1.3365  0.0591 -0.4131
 7527TIP3   OH244071   4.513   3.811  17.125 -0.4654 -0.0508  0.1844
 7527TIP3    H144072   4.423   3.844  17.121 -0.1562  0.8525  0.2990
 7527TIP3    H244073   4.562   3.869  17.066  0.5058  1.0969  2.0186
 7528TIP3   OH244074   0.848   6.326   6.664  0.2667  0.1116 -0.4091
 7528TIP3    H144075   0.793   6.371   6.599 -0.5635 -1.9895 -1.2632
 7528TIP3    H244076   0.926   6.380   6.671 -0.3895  1.3285 -1.8680
 7529TIP3   OH244077   0.034   0.877  16.786 -0.2710 -0.8049 -0.0824
 7529TIP3    H144078  -0.016   0.811  16.833 -0.2626 -1.8339 -1.4403
 7529TIP3    H244079   0.104   0.828  16.743  2.1783  0.6047  1.9801
 7530TIP3   OH244080   1.367   0.261   3.424 -0.0511  0.1744  0.0180
 7530TIP3    H144081   1.347   0.224   3.338 -1.3407 -1.3391  0.9252
 7530TIP3    H244082   1.282   0.272   3.467  0.6688 -2.7685  2.5216
 7531TIP3   OH244083   2.077   4.832   3.818 -0.0853 -0.0024  0.6971
 7531TIP3    H144084   1.981   4.836   3.828 -0.0575 -1.7916  2.1877
 7531TIP3    H244085   2.099   4.742   3.840  1.8509  0.0296 -0.8414
 7532TIP3   OH244086   5.537   1.704  11.594  0.0014  0.0097 -0.2532
 7532TIP3    H144087   5.550   1.708  11.689  0.3167  2.8071 -0.3498
 7532TIP3    H244088   5.609   1.755  11.557 -0.3308 -0.7083 -2.0077
 7533TIP3   OH244089   5.371   3.868  14.639  0.2336  0.4054 -0.2141
 7533TIP3    H144090   5.456   3.909  14.623 -0.1004  1.3161  0.2166
 7533TIP3    H244091   5.390   3.774  14.643  1.3192  0.6279  0.4477
 7534TIP3   OH244092   3.240   2.899  11.288  0.1697  1.0643 -0.3976
 7534TIP3    H144093   3.282   2.908  11.202 -0.5150 -0.6194 -0.9495
 7534TIP3    H244094   3.146   2.905  11.269 -0.0848 -1.1669 -0.0786
 7535TIP3   OH244095   5.993   6.432  17.024  0.2544  0.0036 -0.3530
 7535TIP3    H144096   5.990   6.341  17.054  0.9247 -0.3011 -1.1548
 7535TIP3    H244097   6.076   6.438  16.976  0.0425  0.9440 -0.6200
 7536TIP3   OH244098   2.300   2.182  13.345  0.4527  0.2186  0.0413
 7536TIP3    H144099   2.210   2.150  13.334  0.7918 -0.4550 -0.9432
 7536TIP3    H244100   2.293   2.277  13.335  0.0040  0.0712 -1.1937
 7537TIP3   OH244101   0.069   4.145  15.508  0.0851  0.2658 -1.1849
 7537TIP3    H144102   0.009   4.172  15.439 -1.1272  0.8914  0.0795
 7537TIP3    H244103   0.027   4.069  15.549 -1.9803  2.9908  2.2788
 7538TIP3   OH244104   2.596   5.424   5.273 -0.0227 -0.2564 -0.0092
 7538TIP3    H144105   2.676   5.475   5.285 -0.9114  1.2029 -0.0653
 7538TIP3    H244106   2.548   5.470   5.205 -2.1568  0.5053  1.8827
 7539TIP3   OH244107   0.585   2.748  13.243  1.0229 -0.2463  0.0381
 7539TIP3    H144108   0.508   2.718  13.292 -0.1878  1.2520 -0.8682
 7539TIP3    H244109   0.648   2.773  13.310  1.4034 -2.9807  0.8168
 7540TIP3   OH244110   0.950   3.488   4.969 -0.5832 -0.4595  0.0586
 7540TIP3    H144111   0.883   3.556   4.962  2.6419  2.8888 -1.4846
 7540TIP3    H244112   0.965   3.459   4.879 -0.9382 -2.3945  0.5566
 7541TIP3   OH244113   5.111   4.843   5.004  0.1920 -0.7025 -0.3163
 7541TIP3    H144114   5.170   4.846   4.929  0.1792  0.7651 -0.2827
 7541TIP3    H244115   5.076   4.754   5.003  1.7405 -1.3426 -0.8413
 7542TIP3   OH244116   1.258   2.680   4.059  0.9589 -0.2034  0.4314
 7542TIP3    H144117   1.353   2.676   4.070  1.2217  1.9774 -0.6857
 7542TIP3    H244118   1.245   2.690   3.965 -0.2696  1.2923  0.7213
 7543TIP3   OH244119   4.589   6.089  11.688  0.0620 -0.3996 -0.0723
 7543TIP3    H144120   4.630   6.005  11.672  0.4058 -0.2175 -0.1503
 7543TIP3    H244121   4.651   6.136  11.745 -0.6911 -0.6751  1.0165
 7544TIP3   OH244122   1.185   1.517  11.887 -0.5426  0.3186 -0.1214
 7544TIP3    H144123   1.279   1.533  11.884 -0.4891  0.1381  0.3993
 7544TIP3    H244124   1.154   1.572  11.960 -0.9821  1.0618 -0.8456
 7545TIP3   OH244125   5.926   3.028   6.331  0.4419 -0.3888  0.0823
 7545TIP3    H144126   5.975   3.017   6.413 -0.1642  0.4447  0.5655
 7545TIP3    H244127   5.840   2.992   6.350  0.1943  0.1111 -0.0861
 7546TIP3   OH244128   0.771   0.863  10.121 -0.0708 -0.6272  0.1824
 7546TIP3    H144129   0.861   0.882  10.096 -0.0663  0.3373  0.8556
 7546TIP3    H244130   0.747   0.935  10.180 -1.8426  0.0891 -1.3296
 7547TIP3   OH244131   6.460   6.760  10.692  0.2252  0.2087 -0.1353
 7547TIP3    H144132   6.511   6.814  10.631 -0.8168  0.0971 -1.1414
 7547TIP3    H244133   6.369   6.774  10.666 -0.4023  1.4067  2.4473
 7548TIP3   OH244134   0.477   0.602  11.403 -0.3166  0.4929  0.2938
 7548TIP3    H144135   0.488   0.593  11.498 -2.4851 -2.5733  0.3832
 7548TIP3    H244136   0.558   0.642  11.373  0.8026  0.7297  3.3228
 7549TIP3   OH244137   3.007   0.741   1.556 -0.2377  0.2060 -0.2923
 7549TIP3    H144138   2.994   0.833   1.538  0.0605  0.2936 -0.0808
 7549TIP3    H244139   3.054   0.740   1.640 -3.1032 -0.2096  1.4340
 7550TIP3   OH244140   6.307   2.150  13.168 -0.1793 -0.7594 -0.0487
 7550TIP3    H144141   6.379   2.118  13.222 -1.0646 -0.6929  1.2351
 7550TIP3    H244142   6.229   2.139  13.224 -0.8161  1.6336 -0.3658
 7551TIP3   OH244143   6.159   6.643   2.747  0.0104 -0.3229 -0.2310
 7551TIP3    H144144   6.132   6.596   2.826 -0.5667  2.7857  1.5537
 7551TIP3    H244145   6.249   6.669   2.764  0.1552 -0.3215 -0.9645
 7552TIP3   OH244146   5.836   4.711   6.413 -0.0201 -0.1894 -0.1472
 7552TIP3    H144147   5.900   4.643   6.392 -2.0214 -2.1450 -0.2332
 7552TIP3    H244148   5.854   4.780   6.349  1.8351 -0.7609 -0.3087
 7553TIP3   OH244149   4.037   1.201   2.994  0.0894 -0.3618 -0.2773
 7553TIP3    H144150   3.982   1.166   2.924 -0.0328 -0.8877  0.0772
 7553TIP3    H244151   4.075   1.280   2.957 -0.0396 -0.5915 -0.9120
 7554TIP3   OH244152   0.175   3.895  13.479  0.1676  0.1582  0.0743
 7554TIP3    H144153   0.252   3.870  13.428 -0.9520 -0.2279 -1.4936
 7554TIP3    H244154   0.102   3.889  13.417 -1.2683 -0.4147  1.7372
 7555TIP3   OH244155   2.475   6.351  13.130  0.3921 -0.2908 -0.3358
 7555TIP3    H144156   2.416   6.402  13.075  2.2402 -0.0219 -2.2236
 7555TIP3    H244157   2.476   6.264  13.089 -1.4535 -1.4495  1.8716
 7556TIP3   OH244158   4.426   5.994   2.676 -0.1618 -0.4895 -0.6566
 7556TIP3    H144159   4.468   5.908   2.675  0.1499 -0.3397 -0.5416
 7556TIP3    H244160   4.351   5.983   2.735  0.9882 -0.1753  0.9500
 7557TIP3   OH244161   3.795   6.693  15.749  0.3472 -0.5340  0.0531
 7557TIP3    H144162   3.866   6.647  15.704  1.2983  0.7372  0.2326
 7557TIP3    H244163   3.815   6.786  15.738 -3.6476  0.1864 -3.8674
 7558TIP3   OH244164   2.468   1.392  16.194 -0.2538  0.0351 -0.3215
 7558TIP3    H144165   2.489   1.409  16.286 -1.4277  0.6735 -0.1467
 7558TIP3    H244166   2.503   1.304  16.177 -2.7041 -1.5028  1.7025
 7559TIP3   OH244167   6.580   4.288  14.956 -0.2584  0.2513 -0.7650
 7559TIP3    H144168   6.610   4.367  15.001 -2.2480  0.9268 -0.5206
 7559TIP3    H244169   6.616   4.295  14.867  1.3023  0.3535 -0.1515
 7560TIP3   OH244170   5.198   6.082  16.495  0.0205  0.2016 -0.1227
 7560TIP3    H144171   5.281   6.128  16.493  0.6740 -0.8769  0.7716
 7560TIP3    H244172   5.136   6.141  16.452  0.9135  1.6783  0.5444
 7561TIP3   OH244173   1.554   2.644   5.173  0.0439 -0.0501 -0.1449
 7561TIP3    H144174   1.617   2.585   5.132 -0.6249 -1.3309  0.6048
 7561TIP3    H244175   1.577   2.643   5.266 -0.0934  0.7284 -0.0965
 7562TIP3   OH244176   3.912   4.422  10.419  0.5064 -0.1436 -0.0262
 7562TIP3    H144177   3.984   4.454  10.366  0.2446 -1.1219 -1.0047
 7562TIP3    H244178   3.866   4.502  10.448  2.2533  0.5231  1.0918
 7563TIP3   OH244179   3.427   0.039  15.354  0.7765  0.1486 -0.1529
 7563TIP3    H144180   3.446   0.095  15.429  0.5292 -0.1410  0.1299
 7563TIP3    H244181   3.388  -0.040  15.392  0.9632 -0.1459 -0.5581
 7564TIP3   OH244182   0.687   4.306  16.567 -0.4507  0.8267  0.7111
 7564TIP3    H144183   0.764   4.335  16.518 -1.7056  1.0712 -1.2218
 7564TIP3    H244184   0.719   4.231  16.618  0.6158 -0.5125 -1.7503
 7565TIP3   OH244185   5.129   2.583   1.964  0.9060 -0.0764  0.6925
 7565TIP3    H144186   5.076   2.644   2.014  1.7555  1.0277  0.2780
 7565TIP3    H244187   5.163   2.521   2.029 -1.4704 -1.2941  0.8730
 7566TIP3   OH244188   6.145   5.806   4.342  0.2786 -0.2021  0.6752
 7566TIP3    H144189   6.136   5.742   4.272  0.6416  0.8914 -0.4024
 7566TIP3    H244190   6.083   5.875   4.320  0.6078  0.2985  1.2729
 7567TIP3   OH244191   3.129   0.267  10.961 -0.0850 -0.3439  0.1442
 7567TIP3    H144192   3.198   0.265  10.894  1.1816 -2.4715  1.4178
 7567TIP3    H244193   3.085   0.183  10.953 -0.7112 -0.1377  1.2088
 7568TIP3   OH244194   0.681   0.412  10.358 -0.0980 -0.3138 -0.1040
 7568TIP3    H144195   0.737   0.337  10.381 -0.0069 -0.4088 -0.6244
 7568TIP3    H244196   0.637   0.385  10.278  0.2833  0.3681 -0.5546
 7569TIP3   OH244197   5.615   6.226   5.286  0.1677 -0.1304  0.2815
 7569TIP3    H144198   5.608   6.176   5.205  0.1523 -1.6419  1.1820
 7569TIP3    H244199   5.524   6.238   5.314 -0.0415  2.6688 -1.1843
 7570TIP3   OH244200   0.478   5.375  15.596  0.0307 -0.3204 -0.0780
 7570TIP3    H144201   0.528   5.400  15.673  0.2961  1.4399 -0.7732
 7570TIP3    H244202   0.434   5.456  15.568 -1.1047 -1.2149 -1.0117
 7571TIP3   OH244203   0.060   6.387   4.726 -0.5836  0.3224  0.2223
 7571TIP3    H144204   0.070   6.396   4.821 -0.9041  2.0406  0.1368
 7571TIP3    H244205  -0.028   6.418   4.709 -1.1285 -1.5340 -0.4902
 7572TIP3   OH244206   6.504   4.860   4.047 -0.1782  0.7785  0.2965
 7572TIP3    H144207   6.595   4.829   4.049 -0.4646 -0.0642  0.7247
 7572TIP3    H244208   6.453   4.787   4.083 -0.6422  2.4760  3.5191
 7573TIP3   OH244209   6.307   0.472  12.726 -0.0333  0.0078 -0.3302
 7573TIP3    H144210   6.335   0.561  12.704 -0.6331  0.1698 -0.4764
 7573TIP3    H244211   6.336   0.458  12.816  0.6713  0.0921 -0.5382
 7574TIP3   OH244212   6.442   3.351  13.060 -0.2386  0.1372  0.3664
 7574TIP3    H144213   6.348   3.341  13.073 -0.1448 -1.5579  0.0195
 7574TIP3    H244214   6.479   3.350  13.148 -0.3744 -1.7366  0.4466
 7575TIP3   OH244215   5.976   3.398   3.205  0.3502 -0.2705  0.5312
 7575TIP3    H144216   5.989   3.307   3.177  0.8070 -0.1078  0.1960
 7575TIP3    H244217   6.060   3.423   3.244  0.7894  0.5203 -0.8552
 7576TIP3   OH244218   1.792   5.620  16.626  0.9345  0.7569 -0.4030
 7576TIP3    H144219   1.792   5.528  16.600  1.6602  1.2433 -2.3222
 7576TIP3    H244220   1.882   5.648  16.612  0.7501  1.7196  0.3035
 7577TIP3   OH244221   3.859   5.488   3.071 -0.0782 -0.0764  0.0886
 7577TIP3    H144222   3.887   5.579   3.064  0.0173 -0.1585 -0.8091
 7577TIP3    H244223   3.775   5.492   3.116 -1.7879  0.8280 -2.8801
 7578TIP3   OH244224   3.223   4.601   2.732 -0.3159 -0.2547  0.2339
 7578TIP3    H144225   3.216   4.611   2.827 -0.2798 -2.0057  0.4558
 7578TIP3    H244226   3.277   4.524   2.721  0.5068  0.5076 -1.2461
 7579TIP3   OH244227   3.430   1.364  13.976 -0.3544  0.2730 -0.4142
 7579TIP3    H144228   3.477   1.406  13.904  0.9848  0.0375  0.3052
 7579TIP3    H244229   3.450   1.417  14.053 -1.0495  0.0047 -0.0370
 7580TIP3   OH244230   1.435   0.171  16.860  0.4027  0.2286  0.5951
 7580TIP3    H144231   1.437   0.186  16.766 -0.8047  3.1923  0.9604
 7580TIP3    H244232   1.521   0.200  16.891 -0.2757  2.2640  0.7120
 7581TIP3   OH244233   5.412   0.570  15.710 -0.6330 -0.0337  0.4418
 7581TIP3    H144234   5.392   0.477  15.722 -1.9930  0.1490 -0.1210
 7581TIP3    H244235   5.332   0.615  15.740 -0.7777  0.8286 -1.1473
 7582TIP3   OH244236   4.404   2.638  12.033  0.0055  0.0820  0.1759
 7582TIP3    H144237   4.400   2.588  11.952  1.3402 -0.3212  0.3412
 7582TIP3    H244238   4.323   2.616  12.079 -0.6118  0.0694 -0.8869
 7583TIP3   OH244239   2.929   4.467   2.840  0.5580  0.1060 -0.0495
 7583TIP3    H144240   2.843   4.442   2.874 -0.0214  2.1749  0.1527
 7583TIP3    H244241   2.977   4.497   2.917  0.5834  1.2115 -0.4695
 7584TIP3   OH244242   0.849   4.007  11.672  0.1527  0.0606  0.0764
 7584TIP3    H144243   0.937   4.030  11.703  1.0311 -2.1002 -0.6467
 7584TIP3    H244244   0.855   4.010  11.577 -1.2917  2.2535 -0.0189
 7585TIP3   OH244245   3.576   0.024  11.148  0.1248 -0.3043  0.1286
 7585TIP3    H144246   3.593   0.009  11.055  1.0532 -0.9709  0.3849
 7585TIP3    H244247   3.656  -0.004  11.191 -0.1601  0.3509  1.1065
 7586TIP3   OH244248   6.805   0.798   5.581 -0.0952  0.5130  0.1297
 7586TIP3    H144249   6.750   0.749   5.643  1.4888 -2.1272 -0.3996
 7586TIP3    H244250   6.846   0.866   5.633 -0.5888 -0.1699  1.4455
 7587TIP3   OH244251   0.026   0.797   6.235  0.0880 -0.1584 -0.0769
 7587TIP3    H144252   0.007   0.852   6.312 -1.5331 -0.3402 -0.3183
 7587TIP3    H244253  -0.025   0.836   6.164  0.6390 -0.7007 -0.7849
 7588TIP3   OH244254   6.381   6.012   0.672  0.0673 -0.2416  0.8624
 7588TIP3    H144255   6.390   5.954   0.597 -1.8100  0.3337  0.1270
 7588TIP3    H244256   6.296   5.989   0.710  0.1828  0.6814  1.7441
 7589TIP3   OH244257   4.204   1.070   0.065  0.4970 -0.4444  0.1835
 7589TIP3    H144258   4.148   1.000   0.101 -0.9472 -0.3774 -1.7901
 7589TIP3    H244259   4.282   1.024   0.034 -0.8578 -1.4107 -1.9903
 7590TIP3   OH244260   1.529   3.945  15.158  0.5144  0.4410  0.6944
 7590TIP3    H144261   1.459   3.890  15.123  0.3864 -0.0307  1.6316
 7590TIP3    H244262   1.536   4.019  15.098  0.3650 -0.3683 -0.3282
 7591TIP3   OH244263   0.335   6.746  12.726 -0.4867  0.6344  0.1483
 7591TIP3    H144264   0.359   6.816  12.786  1.1722  0.2351  0.0061
 7591TIP3    H244265   0.407   6.743  12.663  0.8012 -2.7652  1.5485
 7592TIP3   OH244266   6.114   4.700   3.527 -0.1554  1.2721  0.6772
 7592TIP3    H144267   6.087   4.614   3.560  0.4554  0.4937 -0.7432
 7592TIP3    H244268   6.034   4.739   3.492 -0.2036  0.6778  0.0970
 7593TIP3   OH244269   6.269   6.118  13.008 -0.0878 -0.1262  0.2856
 7593TIP3    H144270   6.234   6.060  12.941 -2.6409  0.3745  1.0666
 7593TIP3    H244271   6.264   6.067  13.089  2.7788 -0.6606  0.2258
 7594TIP3   OH244272   5.905   1.168  12.353  0.1960  0.1605  0.0423
 7594TIP3    H144273   5.817   1.174  12.316 -1.0936 -1.5492  2.5580
 7594TIP3    H244274   5.932   1.078  12.335 -0.3495 -0.6261  2.7490
 7595TIP3   OH244275   4.093   0.810   5.516  0.0425 -0.1735  0.0045
 7595TIP3    H144276   4.178   0.810   5.471  0.5404  3.2638  0.7223
 7595TIP3    H244277   4.039   0.750   5.464  1.5809  1.0053 -3.1931
 7596TIP3   OH244278   1.669   1.555  14.090 -0.0081 -0.3819  0.1080
 7596TIP3    H144279   1.598   1.596  14.041  1.5920  1.7047 -0.6307
 7596TIP3    H244280   1.695   1.621  14.154  1.9337 -0.6386 -0.3548
 7597TIP3   OH244281   6.689   2.332  10.320  0.0638 -0.3553 -0.2145
 7597TIP3    H144282   6.672   2.271  10.248 -3.0989 -0.0699  0.1583
 7597TIP3    H244283   6.603   2.347  10.360  1.3212  1.4775  2.0441
 7598TIP3   OH244284   5.977   4.903  14.309 -0.5507 -1.2574 -0.0748
 7598TIP3    H144285   5.935   4.904  14.394 -0.8323 -0.3392 -0.2105
 7598TIP3    H244286   5.962   4.815  14.275 -0.6700 -1.5426  0.6992
 7599TIP3   OH244287   2.843   6.435   3.603  0.3156  0.1919  0.1057
 7599TIP3    H144288   2.909   6.504   3.605  0.0847  0.4043  0.4307
 7599TIP3    H244289   2.879   6.369   3.543  0.1807  0.9493 -0.8334
 7600TIP3   OH244290   3.121   1.611  15.325  0.6084  0.1403 -0.2639
 7600TIP3    H144291   3.143   1.609  15.418 -0.4856  2.1458  0.0973
 7600TIP3    H244292   3.107   1.519  15.302  1.1367 -0.4159  1.4828
 7601TIP3   OH244293   0.275   4.735  11.564 -0.4300  0.2075  0.0978
 7601TIP3    H144294   0.290   4.692  11.649  0.2041  0.7325  0.2646
 7601TIP3    H244295   0.362   4.764  11.537 -0.2395 -1.8944 -1.8161
 7602TIP3   OH244296   3.931   4.277  12.476 -0.1962 -1.1794 -0.0658
 7602TIP3    H144297   3.990   4.280  12.551 -0.7705 -2.1352  0.4501
 7602TIP3    H244298   3.857   4.224  12.506 -0.5726 -1.3338 -1.2146
 7603TIP3   OH244299   2.729   3.213  11.392  0.6016  0.5702 -0.1546
 7603TIP3    H144300   2.696   3.269  11.462 -1.9019 -0.1022 -0.7140
 7603TIP3    H244301   2.711   3.124  11.421 -1.6088  0.2857 -2.0394
 7604TIP3   OH244302   1.375   0.452   4.178 -0.5824 -0.2628 -0.2828
 7604TIP3    H144303   1.348   0.501   4.256 -0.1131 -0.1632 -0.1762
 7604TIP3    H244304   1.450   0.501   4.145 -0.3395 -0.7040 -0.3871
 7605TIP3   OH244305   2.626   6.305  10.718  0.6524 -0.5919  0.0157
 7605TIP3    H144306   2.715   6.321  10.750 -0.0360  0.1723  1.6200
 7605TIP3    H244307   2.624   6.350  10.633  0.9211  2.0522  1.3129
 7606TIP3   OH244308   0.762   2.073  14.036 -0.0070 -0.2450  0.0151
 7606TIP3    H144309   0.720   1.987  14.039  0.3876 -0.4472 -0.1936
 7606TIP3    H244310   0.801   2.078  13.948 -0.2910  0.2745 -0.0911
 7607TIP3   OH244311   1.069   3.499   3.819 -0.0881  0.0690 -0.1273
 7607TIP3    H144312   1.132   3.437   3.783  0.0892  0.6693 -0.8810
 7607TIP3    H244313   1.116   3.583   3.818 -0.6999  0.4124 -0.1675
 7608TIP3   OH244314   6.397   5.455   3.165  0.2195  0.5315  0.0272
 7608TIP3    H144315   6.404   5.398   3.088 -0.4986  1.6119 -0.8687
 7608TIP3    H244316   6.325   5.418   3.216  0.5394 -0.0488  0.0689
 7609TIP3   OH244317   1.675   5.175  16.848  0.2456  0.7599  0.3133
 7609TIP3    H144318   1.736   5.105  16.825  1.1168  1.2116  1.1811
 7609TIP3    H244319   1.659   5.164  16.942 -0.1851  1.2854  0.3125
 7610TIP3   OH244320   5.351   3.852  13.841  0.6183 -0.2008 -0.3111
 7610TIP3    H144321   5.352   3.757  13.834 -1.4086 -0.3364  0.4703
 7610TIP3    H244322   5.282   3.871  13.905  1.4140  1.7763  0.0537
 7611TIP3   OH244323   3.936   0.882  14.025 -0.0973 -0.3469  0.2143
 7611TIP3    H144324   3.913   0.789  14.025  1.1900 -0.7148  2.2803
 7611TIP3    H244325   4.014   0.887  13.971  0.4749 -0.6650  1.0001
 7612TIP3   OH244326   4.281   6.305  16.763 -0.2946  0.1750 -0.1462
 7612TIP3    H144327   4.273   6.390  16.806 -1.2814  0.3453 -0.6444
 7612TIP3    H244328   4.346   6.258  16.815 -0.5705  0.8187  0.8025
 7613TIP3   OH244329   5.948   3.914  12.346  0.1440  0.0571 -0.0054
 7613TIP3    H144330   5.965   3.840  12.288 -0.1935 -1.5482  1.8265
 7613TIP3    H244331   5.883   3.966  12.299  0.8543 -0.4427 -1.6219
 7614TIP3   OH244332   3.573   5.462   2.920 -0.2430  0.2647 -0.0259
 7614TIP3    H144333   3.584   5.545   2.966 -0.6885 -0.0595  0.7012
 7614TIP3    H244334   3.570   5.397   2.991 -0.2815 -0.3247 -0.5628
 7615TIP3   OH244335   6.558   3.367  14.174  0.9334  0.5002 -0.2839
 7615TIP3    H144336   6.503   3.329  14.106  0.0341 -0.6593  1.0312
 7615TIP3    H244337   6.607   3.436  14.130 -1.5055  1.5490 -1.5465
 7616TIP3   OH244338   6.284   5.121  15.447 -0.0969  0.0232 -0.2794
 7616TIP3    H144339   6.266   5.077  15.364  0.2809  0.0979 -0.4065
 7616TIP3    H244340   6.219   5.192  15.451 -0.5601 -0.4048 -0.1774
 7617TIP3   OH244341   1.337   1.301  14.002  0.4914  0.2545 -0.1879
 7617TIP3    H144342   1.308   1.392  13.996  1.0263  0.6962  2.4842
 7617TIP3    H244343   1.417   1.298  13.950  0.9017  1.5591  0.3169
 7618TIP3   OH244344   3.345   0.116  13.937 -0.4083  0.0647  0.2049
 7618TIP3    H144345   3.369   0.056  14.007  0.6436  0.3821  0.1422
 7618TIP3    H244346   3.344   0.202  13.978  0.7087  0.3156 -0.2538
 7619TIP3   OH244347   5.758   0.174   3.605  0.0338  0.1594  0.5061
 7619TIP3    H144348   5.706   0.192   3.526  1.5906 -0.3526 -0.7002
 7619TIP3    H244349   5.838   0.225   3.593  0.6183 -0.5157  1.4017
 7620TIP3   OH244350   1.462   6.006   6.028  0.8131  0.2987  0.2565
 7620TIP3    H144351   1.554   6.022   6.049  0.1440  1.2387  2.7638
 7620TIP3    H244352   1.448   5.914   6.051  1.0465  0.2300  0.1302
 7621TIP3   OH244353   4.441   1.572   1.844 -0.2025  0.0351 -0.0042
 7621TIP3    H144354   4.535   1.584   1.834  0.0202  0.0575  1.7135
 7621TIP3    H244355   4.412   1.536   1.760  1.6625 -1.8410  0.0693
 7622TIP3   OH244356   0.458   3.595   6.427  0.7644  0.6524  0.0696
 7622TIP3    H144357   0.550   3.599   6.456  1.4141 -0.5522 -1.6866
 7622TIP3    H244358   0.455   3.652   6.350  0.8557 -1.6507 -1.7590
 7623TIP3   OH244359   1.780   4.567  13.757  0.2124  0.4565 -0.1454
 7623TIP3    H144360   1.799   4.659  13.737  0.3875  1.2170  2.8803
 7623TIP3    H244361   1.848   4.518  13.711  1.5871  2.0777  0.0263
 7624TIP3   OH244362   3.181   3.764  12.617 -0.1289 -0.2656 -0.7040
 7624TIP3    H144363   3.254   3.721  12.574 -0.3791 -0.7764 -0.6198
 7624TIP3    H244364   3.209   3.773  12.708 -0.8106 -1.9218 -0.3136
 7625TIP3   OH244365   3.883   1.078   0.868  0.1459  0.0451  0.0002
 7625TIP3    H144366   3.873   1.169   0.897 -0.2448 -0.2231  0.7410
 7625TIP3    H244367   3.796   1.040   0.879  0.4962 -0.6315  0.4579
 7626TIP3   OH244368   3.277   4.918  16.103 -0.0986  0.5757  0.0790
 7626TIP3    H144369   3.261   5.010  16.123 -1.0093  0.8138 -1.5676
 7626TIP3    H244370   3.259   4.910  16.009 -2.3300 -1.7480  0.5852
 7627TIP3   OH244371   3.258   0.588  13.823  0.1641 -0.0693  0.4756
 7627TIP3    H144372   3.234   0.667  13.870 -1.3804 -0.0177 -0.3207
 7627TIP3    H244373   3.213   0.517  13.869 -2.7969  0.1677 -1.7392
 7628TIP3   OH244374   4.298   0.027   2.288 -0.3673 -0.3499 -0.2919
 7628TIP3    H144375   4.212   0.002   2.322 -0.7837  0.5502 -0.6560
 7628TIP3    H244376   4.289   0.120   2.267  0.3694 -0.5089 -1.3439
 7629TIP3   OH244377   1.778   4.307   4.452  0.1400 -0.4566  0.1813
 7629TIP3    H144378   1.869   4.277   4.458 -0.1970 -1.5271  0.1407
 7629TIP3    H244379   1.760   4.348   4.537 -0.0539 -2.3652  1.1095
 7630TIP3   OH244380   2.050   1.059   5.668  0.4115 -0.4216 -0.7476
 7630TIP3    H144381   1.995   1.136   5.685  1.9078  0.5675 -0.1887
 7630TIP3    H244382   2.055   1.055   5.572  0.5597  0.3766 -0.7837
 7631TIP3   OH244383   1.410   2.357   0.479  0.0603 -0.0935 -0.0248
 7631TIP3    H144384   1.325   2.313   0.486  0.1031 -0.4050 -1.3331
 7631TIP3    H244385   1.448   2.323   0.399  1.6089 -0.2510  0.7399
 7632TIP3   OH244386   4.677   3.030  14.837 -0.3039  0.0957  0.3547
 7632TIP3    H144387   4.650   3.121  14.853  0.6560  0.4101  0.2390
 7632TIP3    H244388   4.670   2.988  14.923 -0.3216  0.3940  0.5018
 7633TIP3   OH244389   5.612   1.091  16.491  0.2701 -0.3847 -0.1253
 7633TIP3    H144390   5.651   1.005  16.478 -0.3426 -0.7236  0.2155
 7633TIP3    H244391   5.541   1.076  16.553  0.3309  0.4176  0.1479
 7634TIP3   OH244392   0.749   5.952  12.439  0.2990 -0.5924  0.2832
 7634TIP3    H144393   0.829   5.993  12.471  0.5521 -0.0219 -1.0022
 7634TIP3    H244394   0.688   5.956  12.513  0.3062  2.1577  0.2366
 7635TIP3   OH244395   4.101   5.799  12.141 -0.4745 -0.2876 -0.6031
 7635TIP3    H144396   4.006   5.787  12.141 -0.3428 -1.7480  0.6802
 7635TIP3    H244397   4.128   5.770  12.228  1.1433  0.2268 -0.9045
 7636TIP3   OH244398   5.454   2.181  15.427  0.3139 -0.1322  0.5969
 7636TIP3    H144399   5.411   2.258  15.390  1.5447 -0.3174 -1.3685
 7636TIP3    H244400   5.401   2.107  15.397 -1.2819 -0.1399  3.0634
 7637TIP3   OH244401   3.741   6.787   2.841  0.0432  1.0955  0.3169
 7637TIP3    H144402   3.732   6.692   2.832 -0.4311  1.1962 -0.3422
 7637TIP3    H244403   3.817   6.809   2.788 -1.2275  1.3597 -1.5036
 7638TIP3   OH244404   2.262   5.901  15.169 -0.3196 -0.1722 -0.1808
 7638TIP3    H144405   2.286   5.957  15.243  0.1300 -1.3294  0.5797
 7638TIP3    H244406   2.334   5.839  15.161 -1.4839 -1.6062 -0.0144
 7639TIP3   OH244407   3.651   4.107   1.151 -0.0831 -0.4231 -0.3697
 7639TIP3    H144408   3.727   4.107   1.209 -1.1373  0.8460  1.1017
 7639TIP3    H244409   3.679   4.058   1.074  2.0262 -0.4583  0.3674
 7640TIP3   OH244410   0.344   5.226  13.126  0.5903  0.3415  0.3325
 7640TIP3    H144411   0.300   5.256  13.206  1.7368  2.4248  0.2384
 7640TIP3    H244412   0.420   5.177  13.159 -0.0699 -0.6169  0.4835
 7641TIP3   OH244413   1.409   4.415   5.740 -0.1202 -0.4624  0.1247
 7641TIP3    H144414   1.346   4.435   5.809 -1.0421  0.9309 -1.0571
 7641TIP3    H244415   1.429   4.500   5.700  2.4904 -0.8489  0.3961
 7642TIP3   OH244416   1.624   3.202   0.655 -0.0259  0.4473  0.2291
 7642TIP3    H144417   1.532   3.179   0.669  0.2926 -0.8249  0.3898
 7642TIP3    H244418   1.639   3.187   0.562  0.1517  0.0917  0.3106
 7643TIP3   OH244419   6.785   6.517  16.058 -0.0942 -0.0047  0.5854
 7643TIP3    H144420   6.696   6.497  16.026 -0.9786  1.8808  1.7506
 7643TIP3    H244421   6.789   6.475  16.143 -0.2813  0.8203  1.0085
 7644TIP3   OH244422   3.722   3.560   0.106 -0.1718  0.3802 -0.1577
 7644TIP3    H144423   3.737   3.577   0.013 -1.1628  0.2026 -0.3619
 7644TIP3    H244424   3.810   3.549   0.143  0.3139  1.8623 -0.7875
 7645TIP3   OH244425   2.722   0.036   4.131 -0.3313  0.3191 -0.2547
 7645TIP3    H144426   2.661   0.008   4.199 -1.2142 -0.3905 -1.3108
 7645TIP3    H244427   2.773   0.106   4.172  0.6925 -1.5323  1.8735
 7646TIP3   OH244428   4.354   2.586   0.867 -0.6038 -0.1848 -0.0754
 7646TIP3    H144429   4.368   2.595   0.962 -1.0195 -0.2067 -0.0108
 7646TIP3    H244430   4.264   2.616   0.853 -0.3409  0.4161 -0.5524
 7647TIP3   OH244431   1.083   4.223   1.624 -0.4515  0.3485  0.2529
 7647TIP3    H144432   1.086   4.172   1.705 -0.3883 -1.8676 -1.0518
 7647TIP3    H244433   1.173   4.253   1.611  0.3680 -2.2133 -0.6550
 7648TIP3   OH244434   0.367   1.017  11.608  0.0715 -0.0823  0.0819
 7648TIP3    H144435   0.448   1.053  11.642  0.3629 -0.1506 -0.5258
 7648TIP3    H244436   0.344   0.947  11.669  0.1173  0.3711  0.6180
 7649TIP3   OH244437   2.677   0.184  12.364  0.3359  0.1049  0.0775
 7649TIP3    H144438   2.689   0.151  12.453 -0.6154 -1.8334 -0.4473
 7649TIP3    H244439   2.583   0.177  12.348  0.7445 -2.2202 -1.9513
 7650TIP3   OH244440   5.323   5.156   4.586 -0.7292  0.7764 -0.2340
 7650TIP3    H144441   5.391   5.129   4.524  0.8775 -0.3806  1.9002
 7650TIP3    H244442   5.248   5.100   4.566  0.5070 -1.1352  0.1843
 7651TIP3   OH244443   4.031   1.702   3.745  0.4472 -0.1537  0.6742
 7651TIP3    H144444   4.116   1.730   3.779 -1.0957  3.8021  1.8853
 7651TIP3    H244445   4.044   1.695   3.651  2.3541 -0.6894  0.9443
 7652TIP3   OH244446   0.473   0.418  13.614  0.4260  0.3837  0.0138
 7652TIP3    H144447   0.443   0.488  13.672  0.8582  2.2891 -1.8963
 7652TIP3    H244448   0.567   0.412  13.629  0.1435 -1.1073  1.4449
 7653TIP3   OH244449   4.081   5.227   0.846 -0.2069  0.4877 -0.1287
 7653TIP3    H144450   4.157   5.176   0.818 -1.3736 -1.3042 -0.1861
 7653TIP3    H244451   4.062   5.285   0.772  1.2838  1.2418  0.0293
 7654TIP3   OH244452   5.427   5.764  10.722 -0.1059 -0.0092  0.2291
 7654TIP3    H144453   5.355   5.807  10.676 -1.5910 -0.1073  2.3285
 7654TIP3    H244454   5.391   5.679  10.749  1.3566 -0.7574 -0.0801
 7655TIP3   OH244455   4.364   6.772  15.933  0.3226 -0.0062 -0.1722
 7655TIP3    H144456   4.268   6.778  15.928  0.3598  0.9713  0.0612
 7655TIP3    H244457   4.382   6.750  16.024  0.3499  0.7806  0.0193
 7656TIP3   OH244458   2.770   3.445  16.920 -0.3997 -0.1697  0.2169
 7656TIP3    H144459   2.677   3.446  16.944 -0.5621 -0.2606 -0.3732
 7656TIP3    H244460   2.816   3.418  16.999 -0.8478  0.2107  0.6131
 7657TIP3   OH244461   2.232   0.656  14.750 -0.6388  0.1842  0.0567
 7657TIP3    H144462   2.196   0.729  14.700  0.7345 -0.1330 -1.4893
 7657TIP3    H244463   2.295   0.696  14.809 -1.6659  0.4691  1.0064
 7658TIP3   OH244464   2.640   2.206  10.891  0.0255 -0.6506 -0.1773
 7658TIP3    H144465   2.692   2.283  10.867 -0.2522 -0.3603  0.1344
 7658TIP3    H244466   2.601   2.176  10.809 -1.5664  0.8074 -0.0136
 7659TIP3   OH244467   5.464   2.281  16.712  0.2639  0.0508  0.6279
 7659TIP3    H144468   5.475   2.318  16.625 -0.4855 -2.6132 -0.6775
 7659TIP3    H244469   5.553   2.266  16.744  0.5754 -1.3839 -0.8125
 7660TIP3   OH244470   0.562   2.427   6.012  0.1979  0.1346  0.1151
 7660TIP3    H144471   0.594   2.345   5.974  0.6491  0.2247  0.3018
 7660TIP3    H244472   0.635   2.488   6.004 -0.4904  0.8534 -1.0040
 7661TIP3   OH244473   2.284   6.568  16.123 -0.1771 -0.2418  0.5454
 7661TIP3    H144474   2.294   6.521  16.041  1.5971  0.7219  0.1548
 7661TIP3    H244475   2.199   6.613  16.116 -0.1961 -0.4441 -0.6018
 7662TIP3   OH244476   0.696   3.884   5.413 -0.7355 -0.0138 -0.1570
 7662TIP3    H144477   0.697   3.789   5.417 -1.5103 -0.0958 -1.3018
 7662TIP3    H244478   0.603   3.907   5.415 -0.6707  0.5644 -1.9768
 7663TIP3   OH244479   5.802   4.705   1.824  0.5992 -0.3179  0.5270
 7663TIP3    H144480   5.787   4.721   1.731  0.3972 -1.9043  0.2577
 7663TIP3    H244481   5.808   4.792   1.863  2.9037  0.4330 -1.2938
 7664TIP3   OH244482   4.231   3.261   2.872  0.2268 -0.1708  0.0260
 7664TIP3    H144483   4.284   3.184   2.852  1.7845  0.6270  0.9500
 7664TIP3    H244484   4.241   3.273   2.967 -1.1312  0.3741  0.1316
 7665TIP3   OH244485   0.622   4.429   4.795 -0.2570 -0.7481  0.2194
 7665TIP3    H144486   0.572   4.473   4.864 -0.2759  0.3535 -0.4783
 7665TIP3    H244487   0.698   4.393   4.841  1.4072  2.5929  0.4383
 7666TIP3   OH244488   0.492   5.409  16.695  0.2713 -0.0196  0.5178
 7666TIP3    H144489   0.489   5.479  16.630 -1.7814 -0.4992  0.0386
 7666TIP3    H244490   0.435   5.439  16.766  0.2429 -0.7420  0.8105
 7667TIP3   OH244491   3.161   5.588   2.836 -0.3751  0.2445  0.3384
 7667TIP3    H144492   3.219   5.663   2.849 -1.2603  0.9000  0.6279
 7667TIP3    H244493   3.200   5.539   2.763  0.5212  0.6758  0.5249
 7668TIP3   OH244494   5.185   0.233   3.367  0.0769 -0.2040 -0.4748
 7668TIP3    H144495   5.266   0.183   3.375 -0.5329 -1.3323 -1.1172
 7668TIP3    H244496   5.159   0.251   3.458  0.9606  0.0622 -0.2600
 7669TIP3   OH244497   1.311   1.950   1.744 -0.1215  0.0762  0.1293
 7669TIP3    H144498   1.315   1.914   1.655  1.7681  0.0592  0.1767
 7669TIP3    H244499   1.296   2.044   1.731 -0.5781 -0.0357 -0.1724
 7670TIP3   OH244500   1.833   5.516   4.232  0.1094  0.6128  0.0215
 7670TIP3    H144501   1.799   5.585   4.289 -0.6166  1.2389 -1.1348
 7670TIP3    H244502   1.898   5.560   4.178 -1.6868  0.8898 -2.0249
 7671TIP3   OH244503   2.095   4.310  15.868 -1.0866 -0.1363  0.7175
 7671TIP3    H144504   2.171   4.315  15.811  0.4719 -0.7740  2.6083
 7671TIP3    H244505   2.026   4.356  15.821  1.0067  2.2351 -0.2742
 7672TIP3   OH244506   0.207   1.135   3.174  0.5004 -0.3646  0.1736
 7672TIP3    H144507   0.230   1.212   3.226  2.0676  0.1190 -1.1731
 7672TIP3    H244508   0.290   1.099   3.145 -0.2962 -1.0480 -1.3940
 7673TIP3   OH244509   6.243   5.880   4.712  0.2538  0.2448 -0.4556
 7673TIP3    H144510   6.290   5.895   4.630 -1.5059  0.3113 -1.5294
 7673TIP3    H244511   6.273   5.794   4.743 -1.1686 -1.2167 -2.8065
 7674TIP3   OH244512   2.429   1.344   5.128  0.1245  0.0668 -0.7352
 7674TIP3    H144513   2.419   1.360   5.222  0.0653  0.3670 -0.7920
 7674TIP3    H244514   2.414   1.429   5.088  1.5108  0.2392 -0.9349
 7675TIP3   OH244515   2.827   0.622   0.428  0.4347  0.5100  0.6810
 7675TIP3    H144516   2.859   0.667   0.350 -0.9872 -0.0509 -0.2637
 7675TIP3    H244517   2.830   0.529   0.405 -1.1581  0.4036  0.7929
 7676TIP3   OH244518   3.607   2.263   2.301 -0.1861  0.2564  0.2956
 7676TIP3    H144519   3.671   2.193   2.308 -1.0628 -0.4748  1.2036
 7676TIP3    H244520   3.659   2.344   2.305  0.8270 -0.3175 -0.7845
 7677TIP3   OH244521   2.704   3.871   5.512  0.3193  0.1442  0.1206
 7677TIP3    H144522   2.699   3.857   5.418 -0.2833 -0.9928  0.3074
 7677TIP3    H244523   2.613   3.885   5.539  0.4434  0.0533  0.5984
 7678TIP3   OH244524   5.613   6.790   1.291 -0.4127 -0.1770  0.0415
 7678TIP3    H144525   5.549   6.756   1.353 -0.8688  0.8501  0.1627
 7678TIP3    H244526   5.596   6.743   1.210 -1.3554  0.1180  0.0615
 7679TIP3   OH244527   1.778   0.986   4.217  0.1852 -0.1222  0.3671
 7679TIP3    H144528   1.737   1.048   4.158  1.2069 -0.4974 -0.7709
 7679TIP3    H244529   1.807   1.038   4.291 -1.1909  0.3388  0.6138
 7680TIP3   OH244530   6.019   6.735  12.852 -0.1264  0.3434  0.2646
 7680TIP3    H144531   5.976   6.653  12.874 -1.0039 -0.0297 -2.4345
 7680TIP3    H244532   5.950   6.801  12.855 -0.1680  0.3667 -0.6460
 7681TIP3   OH244533   0.564   5.515  14.512 -0.6328 -0.4055  0.3129
 7681TIP3    H144534   0.522   5.429  14.517 -1.6596  0.1273  0.9937
 7681TIP3    H244535   0.505   5.574  14.559  0.1899  0.6291  0.0802
 7682TIP3   OH244536   1.664   0.872   3.606 -0.4318 -0.3104  0.7424
 7682TIP3    H144537   1.708   0.872   3.691 -1.0114  0.4144  1.0586
 7682TIP3    H244538   1.714   0.811   3.553  0.7296  0.2103  1.2062
 7683TIP3   OH244539   1.766   0.704  16.540 -0.4510 -0.0979 -0.3575
 7683TIP3    H144540   1.818   0.647  16.483  0.8655  1.5653 -0.9062
 7683TIP3    H244541   1.737   0.775  16.484  0.5907  1.4133  0.9213
 7684TIP3   OH244542   2.849   5.281  12.138  0.2678 -0.2845  0.0167
 7684TIP3    H144543   2.768   5.326  12.115 -0.2671  0.1921  2.5243
 7684TIP3    H244544   2.917   5.347  12.127 -0.3409  0.8324  2.3209
 7685TIP3   OH244545   1.808   0.986  13.316 -0.8117 -0.2159  0.4771
 7685TIP3    H144546   1.877   0.921  13.327  0.0008  0.6163  0.3950
 7685TIP3    H244547   1.739   0.939  13.269 -0.1904 -0.9875  0.3084
 7686TIP3   OH244548   4.714   2.810  16.012 -0.1168  0.1903  0.1025
 7686TIP3    H144549   4.678   2.798  15.924 -0.6806  2.5095 -0.0432
 7686TIP3    H244550   4.800   2.850  15.997  1.4338 -2.6438  0.5634
 7687TIP3   OH244551   5.203   2.974   2.684  0.5509 -0.2682 -0.2728
 7687TIP3    H144552   5.289   2.937   2.706  1.0697  1.9472  1.8138
 7687TIP3    H244553   5.140   2.906   2.709  1.5697 -0.7275  1.1545
 7688TIP3   OH244554   5.174   5.701   5.388 -0.0982 -1.1505 -0.3481
 7688TIP3    H144555   5.169   5.787   5.346  1.2651 -1.0498 -0.3347
 7688TIP3    H244556   5.119   5.709   5.466  0.1327 -0.2504 -0.2720
 7689TIP3   OH244557   2.347   5.086  14.952 -0.0919 -0.2897  0.3994
 7689TIP3    H144558   2.412   5.073  15.021  0.6172  1.2451  0.0731
 7689TIP3    H244559   2.266   5.106  15.000  0.5003  1.2274  0.8435
 7690TIP3   OH244560   2.853   2.444  12.882 -0.1132  0.2007  0.2904
 7690TIP3    H144561   2.871   2.371  12.824 -1.4492 -0.4881  0.7107
 7690TIP3    H244562   2.849   2.406  12.969  2.7959  1.3606  1.0279
 7691TIP3   OH244563   0.738   2.659   5.983 -0.6688 -0.3696 -0.0510
 7691TIP3    H144564   0.767   2.729   6.040 -1.8465 -0.6049  0.8687
 7691TIP3    H244565   0.724   2.701   5.898 -0.8344  0.3877  0.3484
 7692TIP3   OH244566   3.772   4.436  15.099  0.4913 -0.2289 -0.9362
 7692TIP3    H144567   3.700   4.439  15.037 -1.3003  0.7649  1.0597
 7692TIP3    H244568   3.773   4.524  15.139  0.4332 -1.2777  1.5841
 7693TIP3   OH244569   4.436   6.321   1.801 -0.2613  0.1551  0.3775
 7693TIP3    H144570   4.480   6.387   1.854  1.6890 -1.5031  0.9544
 7693TIP3    H244571   4.486   6.319   1.719 -1.0543  0.2225 -0.1166
 7694TIP3   OH244572   1.308   6.458  12.579  0.6106 -0.0220  0.3671
 7694TIP3    H144573   1.237   6.415  12.626  0.3826 -1.5160 -1.2713
 7694TIP3    H244574   1.275   6.546  12.561 -0.7886 -0.6574 -0.2791
 7695TIP3   OH244575   2.273   6.544   1.306  0.1422 -0.2212  0.6841
 7695TIP3    H144576   2.277   6.636   1.280  0.3177 -1.1662 -3.3252
 7695TIP3    H244577   2.182   6.531   1.332  0.0449  1.0091  1.0526
 7696TIP3   OH244578   0.907   0.951  16.911 -0.5133 -0.2003 -0.0465
 7696TIP3    H144579   0.852   1.024  16.884  1.5280  0.9619 -1.2773
 7696TIP3    H244580   0.983   0.955  16.853  1.2744 -1.2346  2.0690
 7697TIP3   OH244581   6.522   5.705   2.145 -0.6792 -0.2298  0.2914
 7697TIP3    H144582   6.592   5.765   2.170  0.0767 -0.4221 -1.2297
 7697TIP3    H244583   6.475   5.750   2.075 -0.1022 -1.3656 -0.8671
 7698TIP3   OH244584   1.563   4.487   2.649 -1.0311 -0.3258  0.1306
 7698TIP3    H144585   1.626   4.506   2.718 -1.7186 -2.3320  1.4015
 7698TIP3    H244586   1.488   4.543   2.669 -1.6750 -1.6642  1.7701
 7699TIP3   OH244587   5.575   0.124   4.126  0.5628 -0.2497 -0.8380
 7699TIP3    H144588   5.621   0.043   4.104 -0.5483 -1.3516  0.6711
 7699TIP3    H244589   5.488   0.113   4.089 -0.3641 -0.8379  1.3536
 7700TIP3   OH244590   2.904   1.512  11.861  0.5450  0.7713 -0.0558
 7700TIP3    H144591   2.945   1.494  11.946  1.2061 -0.7666 -0.6612
 7700TIP3    H244592   2.885   1.605  11.863  0.9241  0.8424  1.6218
 7701TIP3   OH244593   0.022   5.423  14.161 -0.4388 -0.3510 -0.1742
 7701TIP3    H144594  -0.031   5.498  14.190  1.4775  1.1884 -0.4512
 7701TIP3    H244595  -0.031   5.346  14.184 -2.0248  1.0349  1.0852
 7702TIP3   OH244596   1.696   2.752  12.419  0.0811  0.7701 -0.3335
 7702TIP3    H144597   1.703   2.722  12.510  2.4135  1.6681 -0.1533
 7702TIP3    H244598   1.664   2.675  12.371 -2.0906  0.5380  1.3194
 7703TIP3   OH244599   3.307   3.244   4.343 -0.2374  0.1276  0.1609
 7703TIP3    H144600   3.332   3.327   4.384  1.6203 -1.5713  2.7203
 7703TIP3    H244601   3.349   3.246   4.257  1.2025  1.1778  0.8496
 7704TIP3   OH244602   5.936   3.808   3.625 -0.4380  0.1172  0.6605
 7704TIP3    H144603   5.989   3.738   3.662 -1.3303  0.0390  1.8399
 7704TIP3    H244604   5.920   3.867   3.698  1.6584  2.4768 -0.6275
 7705TIP3   OH244605   5.609   5.041  13.561  0.2983  0.3497  0.4628
 7705TIP3    H144606   5.586   5.053  13.469  1.5746 -3.0447 -0.4493
 7705TIP3    H244607   5.684   5.099  13.575  0.3306  0.6254 -0.7370
 7706TIP3   OH244608   5.790   4.106  11.156  0.0352 -0.0855 -0.3288
 7706TIP3    H144609   5.841   4.028  11.132 -0.2688 -0.5061  0.3699
 7706TIP3    H244610   5.701   4.075  11.165 -0.1549  0.4262 -0.3988
 7707TIP3   OH244611   3.546   6.153  13.823 -0.0856 -0.0411  0.0030
 7707TIP3    H144612   3.534   6.103  13.904  2.2546 -1.2298 -0.3013
 7707TIP3    H244613   3.564   6.242  13.851  1.1966 -0.5471  0.8420
 7708TIP3   OH244614   1.602   5.243   1.284  0.6433  0.1019  0.2423
 7708TIP3    H144615   1.692   5.245   1.319  0.0669  0.5496  1.8055
 7708TIP3    H244616   1.562   5.168   1.327  0.1742  0.0923 -0.2084
 7709TIP3   OH244617   5.388   0.548  16.854  0.0648  0.4845 -0.3943
 7709TIP3    H144618   5.328   0.476  16.873  0.2660  0.0085 -1.4916
 7709TIP3    H244619   5.379   0.607  16.929 -1.6773  0.3779 -0.4756
 7710TIP3   OH244620   4.258   3.946  12.671 -0.0873  0.1634 -0.4906
 7710TIP3    H144621   4.328   3.925  12.609  1.3427 -1.9214  1.6810
 7710TIP3    H244622   4.200   3.870  12.668  0.9456 -0.8077  1.8768
 7711TIP3   OH244623   0.700   4.914   1.032 -0.2459  0.3684  0.0911
 7711TIP3    H144624   0.629   4.976   1.046  0.4348  0.8973  1.4062
 7711TIP3    H244625   0.779   4.963   1.055  0.3874 -0.6952  0.2365
 7712TIP3   OH244626   2.910   4.666   1.642 -0.7984  0.0134 -0.0633
 7712TIP3    H144627   2.817   4.689   1.645 -0.9359 -0.1147 -1.9946
 7712TIP3    H244628   2.911   4.571   1.629 -0.3823 -0.0102  0.1193
 7713TIP3   OH244629   4.089   3.452  13.095 -0.2491 -0.0915 -0.3021
 7713TIP3    H144630   4.116   3.539  13.064  0.0029 -0.0329  0.0856
 7713TIP3    H244631   4.056   3.408  13.016  0.4359  0.0402 -0.6652
 7714TIP3   OH244632   6.819   1.538  16.705 -0.2417  0.2187 -0.1852
 7714TIP3    H144633   6.807   1.508  16.614 -0.0887 -2.0148  0.4623
 7714TIP3    H244634   6.873   1.471  16.745 -0.0422  1.3281  1.5039
 7715TIP3   OH244635   2.051   6.452  14.726  0.0805  0.2498 -0.1539
 7715TIP3    H144636   1.997   6.480  14.653 -2.5349 -0.5550  1.3237
 7715TIP3    H244637   2.052   6.527  14.786 -3.3371 -1.0527  1.8387
 7716TIP3   OH244638   5.496   2.889  14.916 -0.5496 -0.5096 -0.0689
 7716TIP3    H144639   5.551   2.811  14.928 -0.0285 -0.4004 -1.5065
 7716TIP3    H244640   5.512   2.942  14.994  0.9624 -0.7507 -0.1805
 7717TIP3   OH244641   2.330   6.234  15.947  0.0666 -0.2112  0.8674
 7717TIP3    H144642   2.271   6.300  15.912 -0.7657 -1.1954  0.3890
 7717TIP3    H244643   2.279   6.153  15.948  0.9731 -0.7953  1.7160
 7718TIP3   OH244644   6.389   1.431  14.770  0.6465 -0.1772  0.1516
 7718TIP3    H144645   6.325   1.475  14.825  0.8523 -1.5162  1.5204
 7718TIP3    H244646   6.343   1.418  14.686 -0.0369  0.9492  0.3304
 7719TIP3   OH244647   3.939   0.948   4.884 -0.5911 -0.3416 -0.4881
 7719TIP3    H144648   3.977   0.865   4.914 -1.5374 -0.9795 -1.0265
 7719TIP3    H244649   4.015   0.998   4.853  0.0180 -0.9210  0.0249
 7720TIP3   OH244650   4.660   3.603  17.066 -0.1206  0.1134 -0.0585
 7720TIP3    H144651   4.637   3.601  16.973 -2.0041 -0.7748  0.3843
 7720TIP3    H244652   4.621   3.683  17.099 -0.1654  0.0073  0.1438
 7721TIP3   OH244653   1.558   1.055  14.114  0.1866 -1.4052 -0.0856
 7721TIP3    H144654   1.603   1.137  14.095  0.4195 -1.4598  0.2171
 7721TIP3    H244655   1.535   1.061  14.207  0.5284 -1.8308  0.0311
 7722TIP3   OH244656   0.586   4.482  16.350  0.0746 -0.2414  0.0837
 7722TIP3    H144657   0.639   4.436  16.416 -0.2423  0.1107  0.5866
 7722TIP3    H244658   0.648   4.500  16.279 -0.0422 -2.4674 -0.6514
 7723TIP3   OH244659   0.572   3.748   0.958  0.8059  0.1332  0.3162
 7723TIP3    H144660   0.558   3.774   1.049  0.4700 -1.6722  0.8266
 7723TIP3    H244661   0.601   3.828   0.914 -1.6630  1.7378  1.3765
 7724TIP3   OH244662   4.714   6.688  13.946 -0.3926 -0.2771 -0.2837
 7724TIP3    H144663   4.626   6.651  13.942 -0.8686  0.8897 -0.8489
 7724TIP3    H244664   4.709   6.755  14.015 -0.0742  0.1082 -0.6300
 7725TIP3   OH244665   6.532   6.057  13.178 -0.4524  0.1082  0.2092
 7725TIP3    H144666   6.608   6.012  13.142 -0.4833  0.7655 -0.7138
 7725TIP3    H244667   6.457   6.006  13.149 -0.3458 -1.1497  2.0096
 7726TIP3   OH244668   5.538   6.310   5.676  0.6019 -0.1147 -0.8758
 7726TIP3    H144669   5.584   6.238   5.718 -0.6863 -0.5243 -0.0835
 7726TIP3    H244670   5.485   6.269   5.608 -2.2687 -0.4446  1.3176
 7727TIP3   OH244671   1.163   3.683  13.175 -0.1979 -0.0588 -0.5380
 7727TIP3    H144672   1.213   3.602  13.187  0.6280  0.6217  0.7843
 7727TIP3    H244673   1.095   3.680  13.242 -0.5546  0.0608 -0.8918
 7728TIP3   OH244674   4.757   3.082  14.553  0.0414  0.1518  0.0259
 7728TIP3    H144675   4.703   3.081  14.631 -2.3393  1.4320 -1.4755
 7728TIP3    H244676   4.846   3.065  14.584 -0.7919  0.7457  2.9893
 7729TIP3   OH244677   3.744   1.418  11.786  0.0916 -0.2985 -0.5134
 7729TIP3    H144678   3.805   1.490  11.769 -2.2234  1.8485 -0.3414
 7729TIP3    H244679   3.777   1.346  11.731  2.1085  1.0902 -1.2689
 7730TIP3   OH244680   2.774   5.714  15.957  0.4559  0.0964 -0.3350
 7730TIP3    H144681   2.776   5.670  15.873  2.3533 -0.0194 -0.2742
 7730TIP3    H244682   2.682   5.712  15.983  0.0329 -1.0133 -1.7865
 7731TIP3   OH244683   4.080   0.866   0.153 -0.1389  0.5387  0.2733
 7731TIP3    H144684   3.997   0.900   0.188  0.1182  1.0718  0.3823
 7731TIP3    H244685   4.083   0.776   0.185 -1.9262 -0.3962 -1.9245
 7732TIP3   OH244686   2.991   5.691  14.202  0.4676 -0.1487  0.1654
 7732TIP3    H144687   3.085   5.703  14.213  0.5462  2.0587 -1.9814
 7732TIP3    H244688   2.953   5.775  14.228 -0.8832 -0.9110  0.7250
 7733TIP3   OH244689   5.392   4.927   5.041  0.3002  0.1048 -0.2703
 7733TIP3    H144690   5.374   4.899   4.951 -0.1508 -0.2955 -0.0603
 7733TIP3    H244691   5.420   4.848   5.086  1.1083  0.4202 -0.1963
 7734TIP3   OH244692   0.999   6.248   2.303 -0.3295  0.6749  0.5797
 7734TIP3    H144693   0.911   6.275   2.275 -0.5933 -0.2051  0.5106
 7734TIP3    H244694   1.024   6.311   2.370  0.0671  2.5056 -1.1799
 7735TIP3   OH244695   2.245   0.030   5.136 -0.0044 -0.3075 -0.2547
 7735TIP3    H144696   2.262   0.119   5.168 -1.9712 -0.2027  0.6922
 7735TIP3    H244697   2.192  -0.010   5.205 -2.6025 -0.8311 -2.3822
 7736TIP3   OH244698   5.361   1.609  16.412 -0.7251  0.4567 -0.0256
 7736TIP3    H144699   5.274   1.608  16.451 -0.1356 -1.5369  1.4230
 7736TIP3    H244700   5.420   1.633  16.483 -0.0745  2.2907 -1.1064
 7737TIP3   OH244701   3.120   2.050  13.634  0.3540  0.0524  0.1655
 7737TIP3    H144702   3.199   2.003  13.661  1.1330  1.1473 -0.1606
 7737TIP3    H244703   3.100   2.014  13.548 -0.0424 -0.8667  0.6260
 7738TIP3   OH244704   1.867   5.091  16.462  0.0104 -0.5837  0.5884
 7738TIP3    H144705   1.944   5.139  16.491  1.0658 -2.3580  0.8883
 7738TIP3    H244706   1.860   5.111  16.368 -0.1069  0.7936  0.8713
 7739TIP3   OH244707   4.463   1.509   2.246 -0.8740 -0.1759  0.3478
 7739TIP3    H144708   4.499   1.576   2.188 -0.5222 -0.9855 -0.3779
 7739TIP3    H244709   4.410   1.454   2.189  0.2471 -1.5548  0.5838
 7740TIP3   OH244710   6.840   1.988   1.995  0.3497  0.4058 -0.3763
 7740TIP3    H144711   6.845   1.907   2.047  0.6851  1.1354  0.7513
 7740TIP3    H244712   6.761   1.977   1.941 -0.0114 -0.3696  0.2879
 7741TIP3   OH244713   5.808   0.448   4.863  0.1360  0.0200  0.3684
 7741TIP3    H144714   5.881   0.478   4.917 -0.1244 -0.7413  1.1661
 7741TIP3    H244715   5.776   0.527   4.820  0.5077  0.6052  1.1449
 7742TIP3   OH244716   4.592   5.473   1.116 -0.2032 -0.8187 -0.6023
 7742TIP3    H144717   4.616   5.393   1.162 -0.7912 -1.6578 -1.7006
 7742TIP3    H244718   4.546   5.525   1.181  1.6798 -0.5804  0.6170
 7743TIP3   OH244719   3.741   1.514   3.105  0.1747 -0.3685  0.7887
 7743TIP3    H144720   3.787   1.490   3.024 -1.6778  0.8482 -0.7117
 7743TIP3    H244721   3.675   1.445   3.116 -1.5209  0.9665 -0.4602
 7744TIP3   OH244722   5.074   0.324   2.446  0.0891  0.2900  0.3061
 7744TIP3    H144723   5.118   0.401   2.409 -0.5509  1.4200  1.7821
 7744TIP3    H244724   5.030   0.357   2.524 -0.7699 -1.4615  0.6104
 7745TIP3   OH244725   6.801   6.450   3.278  0.2423  0.2199  0.2297
 7745TIP3    H144726   6.861   6.404   3.219 -1.6621 -2.8679  0.4838
 7745TIP3    H244727   6.823   6.418   3.365 -1.5215 -0.7662  0.3583
 7746TIP3   OH244728   1.002   3.087   5.816 -0.0154  0.0499 -0.0580
 7746TIP3    H144729   1.044   3.048   5.740 -0.3501 -0.5564  0.0640
 7746TIP3    H244730   0.949   3.159   5.781  1.2933  0.9888 -0.1907
 7747TIP3   OH244731   4.452   1.474   4.427 -0.1053  0.1978 -0.2324
 7747TIP3    H144732   4.426   1.550   4.480  0.3351  1.3508 -1.5862
 7747TIP3    H244733   4.548   1.472   4.434 -0.1499 -0.5168  0.1637
 7748TIP3   OH244734   3.854   2.373  13.360 -0.3480 -0.4038 -0.0113
 7748TIP3    H144735   3.761   2.365  13.382 -0.3960  0.0300 -0.0636
 7748TIP3    H244736   3.856   2.428  13.282 -0.0938 -0.9796 -0.4199
 7749TIP3   OH244737   3.518   5.967   3.388 -0.1683  0.2797 -0.4614
 7749TIP3    H144738   3.461   5.921   3.451  1.0181 -2.2950 -1.1412
 7749TIP3    H244739   3.470   5.963   3.305  0.4245 -0.8216 -0.7706
 7750TIP3   OH244740   4.989   0.554   1.220 -0.0725  0.4421  0.0755
 7750TIP3    H144741   4.898   0.584   1.223 -0.0146  0.6226  0.0170
 7750TIP3    H244742   4.988   0.484   1.154 -0.1509  0.5079  0.0053
 7751TIP3   OH244743   3.386   6.469  12.978 -0.4446 -0.3766  0.1828
 7751TIP3    H144744   3.401   6.462  13.072 -0.1677  0.0489  0.1689
 7751TIP3    H244745   3.338   6.389  12.956 -1.5971  0.0883  0.8957
 7752TIP3   OH244746   2.591   3.130  12.579  0.0438  0.3686  0.0000
 7752TIP3    H144747   2.658   3.187  12.542  0.4451  0.1390  0.3597
 7752TIP3    H244748   2.619   3.116  12.669 -0.5919  0.4222  0.2067
 7753TIP3   OH244749   4.393   3.801   1.253  0.3458 -0.0907  0.3533
 7753TIP3    H144750   4.403   3.831   1.343 -0.8480  0.0106  0.4646
 7753TIP3    H244751   4.413   3.707   1.256  1.7642  0.1852  0.4313
 7754TIP3   OH244752   1.625   1.027  14.747  0.1556  0.1516 -0.0712
 7754TIP3    H144753   1.603   0.949  14.695  1.1900 -0.3240  0.1795
 7754TIP3    H244754   1.707   1.058  14.708  0.7508  0.0010  1.0456
 7755TIP3   OH244755   5.427   2.116  17.033 -0.1140  0.1690 -0.2580
 7755TIP3    H144756   5.494   2.050  17.049  0.5123  0.2441 -2.2501
 7755TIP3    H244757   5.351   2.086  17.082  0.5301 -1.4044 -0.1585
 7756TIP3   OH244758   1.370   2.564  14.642 -0.3039  0.2216  0.5649
 7756TIP3    H144759   1.310   2.598  14.575 -0.5238 -1.6577 -0.2519
 7756TIP3    H244760   1.326   2.486  14.675  1.0922 -0.4305  0.9139
 7757TIP3   OH244761   3.396   2.797  11.496  0.1642  0.0634 -0.3146
 7757TIP3    H144762   3.322   2.742  11.523  0.3580  0.2074  0.5410
 7757TIP3    H244763   3.357   2.863  11.438 -0.0577 -1.0169 -1.4445
 7758TIP3   OH244764   2.178   6.031   0.915  0.4359 -0.4773 -0.2488
 7758TIP3    H144765   2.148   6.003   0.828 -0.5635  2.4108 -0.9747
 7758TIP3    H244766   2.104   6.013   0.973  1.4835 -3.4049  0.3657
 7759TIP3   OH244767   0.057   0.720   1.482  0.6951 -0.3623  0.1234
 7759TIP3    H144768  -0.031   0.742   1.513  1.1140 -0.8909  1.8105
 7759TIP3    H244769   0.101   0.804   1.471 -0.5324  0.0277 -2.5400
 7760TIP3   OH244770   3.554   4.130  15.690  0.2587 -0.8641  1.2228
 7760TIP3    H144771   3.485   4.188  15.723  1.5494  0.3967  1.8048
 7760TIP3    H244772   3.518   4.095  15.608 -0.4739  0.9864  0.7001
 7761TIP3   OH244773   1.506   6.006  12.973 -0.1992  0.2289  0.1859
 7761TIP3    H144774   1.572   5.969  12.913 -0.1910 -1.2768  1.0932
 7761TIP3    H244775   1.436   6.036  12.915  0.6418  0.5434 -0.7013
 7762TIP3   OH244776   3.066   2.942   0.705  0.0037 -0.4704  0.1544
 7762TIP3    H144777   2.973   2.926   0.721 -0.5911  2.9786  1.0553
 7762TIP3    H244778   3.099   2.978   0.788  1.6340  0.1846 -0.7256
 7763TIP3   OH244779   4.650   4.777   3.768  0.1005  0.6657 -0.2509
 7763TIP3    H144780   4.700   4.758   3.848 -0.0091 -0.3645 -0.4153
 7763TIP3    H244781   4.559   4.765   3.793  0.0647  0.3615 -0.5230
 7764TIP3   OH244782   6.313   3.550   6.055 -0.4361 -0.0835  0.5028
 7764TIP3    H144783   6.310   3.637   6.095 -0.5480  0.0327  0.2445
 7764TIP3    H244784   6.222   3.529   6.037 -0.2765  0.5903 -1.2347
 7765TIP3   OH244785   4.804   1.502   1.198 -0.3351 -0.5722 -0.1365
 7765TIP3    H144786   4.794   1.576   1.258  1.3267  1.1898 -1.8551
 7765TIP3    H244787   4.729   1.510   1.138 -0.6383 -0.8259  0.2064
 7766TIP3   OH244788   6.198   1.242  11.265  0.1714  0.4228 -0.2219
 7766TIP3    H144789   6.200   1.146  11.258 -0.1463  0.4796 -1.2501
 7766TIP3    H244790   6.105   1.263  11.268  0.2420  0.6293  1.4095
 7767TIP3   OH244791   6.306   2.487   0.211  0.3494  0.3811  0.1682
 7767TIP3    H144792   6.296   2.514   0.119 -1.0699 -0.1446  0.1397
 7767TIP3    H244793   6.223   2.511   0.252  0.5107 -0.4789  1.0332
 7768TIP3   OH244794   4.697   1.352   1.519  0.0365 -0.3596  0.7625
 7768TIP3    H144795   4.784   1.344   1.559 -0.7273 -2.1764  2.1792
 7768TIP3    H244796   4.683   1.269   1.474 -0.4212  0.4595 -0.6711
 7769TIP3   OH244797   6.179   3.059  15.682 -0.2509 -0.1252  0.0545
 7769TIP3    H144798   6.250   3.016  15.634 -0.3981 -0.6186  0.2644
 7769TIP3    H244799   6.124   2.986  15.713 -1.9046  0.3031 -1.7095
 7770TIP3   OH244800   6.353   6.075  15.855  0.0594 -0.4636 -0.1803
 7770TIP3    H144801   6.306   6.124  15.922  2.0568  0.3344  0.7299
 7770TIP3    H244802   6.346   6.129  15.776  0.1890  0.0808  0.1763
 7771TIP3   OH244803   2.554   0.568   0.840  0.2961  0.4141  0.3829
 7771TIP3    H144804   2.611   0.562   0.916  1.2414 -1.3367 -0.4189
 7771TIP3    H244805   2.611   0.547   0.766 -0.3312  3.0571 -0.9832
 7772TIP3   OH244806   3.802   3.784  15.950  0.1982 -0.1422  0.1330
 7772TIP3    H144807   3.801   3.689  15.943  1.7100 -0.0777 -1.7732
 7772TIP3    H244808   3.883   3.804  15.999  0.2026  0.1692  0.0053
 7773TIP3   OH244809   0.041   1.227  10.009 -0.4702 -0.1209 -0.2666
 7773TIP3    H144810   0.025   1.319  10.030 -1.3033 -0.1314 -0.8115
 7773TIP3    H244811   0.136   1.220  10.003 -0.1716  0.0283  2.7762
 7774TIP3   OH244812   5.818   0.199  10.991 -0.6106  0.0024  0.2769
 7774TIP3    H144813   5.879   0.193  10.917 -0.0896  2.1938  0.4636
 7774TIP3    H244814   5.835   0.285  11.029 -3.3462  0.3875  0.7905
 7775TIP3   OH244815   1.613   3.741   2.333  0.0144 -0.1394  0.4184
 7775TIP3    H144816   1.540   3.744   2.271 -0.4866  1.0661  1.0217
 7775TIP3    H244817   1.584   3.795   2.406  1.5202  0.3784  0.6706
 7776TIP3   OH244818   5.227   0.757  13.533 -0.4454 -0.1742  0.2823
 7776TIP3    H144819   5.180   0.805  13.464 -2.6786 -1.2065  0.9861
 7776TIP3    H244820   5.168   0.760  13.608  0.4215 -1.9371  1.0950
 7777TIP3   OH244821   1.443   2.789  13.209  0.2905 -0.0183  0.1021
 7777TIP3    H144822   1.428   2.751  13.296 -0.4449  0.4266  0.1842
 7777TIP3    H244823   1.357   2.824  13.184  0.3984 -0.4995 -0.9764
 7778TIP3   OH244824   6.360   0.152   2.341  0.6643 -0.7234  0.3309
 7778TIP3    H144825   6.318   0.238   2.350 -0.8672 -1.5078  0.8832
 7778TIP3    H244826   6.291   0.089   2.360  2.1542 -2.0743  1.4902
 7779TIP3   OH244827   5.968   6.402   5.794 -0.0992  0.4399 -0.1863
 7779TIP3    H144828   5.996   6.331   5.852  0.8987  1.5212  0.7010
 7779TIP3    H244829   5.935   6.470   5.853  1.3373  1.7335 -0.8065
 7780TIP3   OH244830   1.828   2.248  11.724  0.1018 -0.1072 -0.4741
 7780TIP3    H144831   1.773   2.310  11.676  0.4700 -0.1608 -0.9751
 7780TIP3    H244832   1.821   2.166  11.675 -2.2821 -1.2153  1.4667
 7781TIP3   OH244833   0.682   3.734  12.884 -0.0416  0.0575 -0.7259
 7781TIP3    H144834   0.698   3.828  12.882 -0.0896  0.1741  1.6699
 7781TIP3    H244835   0.721   3.705  12.967  0.0963 -2.0613 -1.4744
 7782TIP3   OH244836   4.927   0.432   6.024  0.1860 -0.5039  0.1727
 7782TIP3    H144837   4.898   0.341   6.018 -4.0020  0.7295 -1.8164
 7782TIP3    H244838   4.946   0.458   5.934 -1.4782  1.2859  0.2679
 7783TIP3   OH244839   3.184   1.082  16.887 -0.2322  0.1878 -0.2487
 7783TIP3    H144840   3.237   1.158  16.861 -2.0000  1.6856  0.3475
 7783TIP3    H244841   3.115   1.077  16.821  0.3912 -1.5501 -0.8324
 7784TIP3   OH244842   2.759   2.747  13.815  0.1957 -0.2734  0.0210
 7784TIP3    H144843   2.806   2.679  13.864  1.6014  1.0506  0.5881
 7784TIP3    H244844   2.823   2.779  13.752 -0.4845  0.4715 -0.3029
 7785TIP3   OH244845   3.794   4.257   3.530 -0.0488  0.4078 -0.1063
 7785TIP3    H144846   3.810   4.338   3.482  2.0907 -0.6521 -1.3659
 7785TIP3    H244847   3.881   4.232   3.563 -0.7947 -0.9689  0.9334
 7786TIP3   OH244848   4.716   4.237   2.290  0.1142  0.0405 -0.2180
 7786TIP3    H144849   4.665   4.267   2.214  0.3796 -0.3540 -0.5553
 7786TIP3    H244850   4.694   4.299   2.360 -0.6127  0.0360 -0.4411
 7787TIP3   OH244851   2.331   4.099  10.785  0.3730  0.7877  0.7476
 7787TIP3    H144852   2.249   4.104  10.737  0.0146 -1.0553  1.1241
 7787TIP3    H244853   2.376   4.181  10.763 -1.2906  1.5726  0.0856
 7788TIP3   OH244854   3.958   1.068  13.133  0.1030  0.1495 -0.5556
 7788TIP3    H144855   3.962   1.133  13.203 -0.1958  0.7763 -1.0967
 7788TIP3    H244856   4.003   0.991  13.167  2.4891  1.4062 -0.7042
 7789TIP3   OH244857   1.186   4.332   2.627 -0.3169 -0.4312  0.0248
 7789TIP3    H144858   1.180   4.316   2.721 -1.3655 -2.6246 -0.3384
 7789TIP3    H244859   1.272   4.298   2.602  0.9249  2.1868  0.4675
 7790TIP3   OH244860   1.504   6.574   2.604  0.0575 -0.2298  0.1137
 7790TIP3    H144861   1.445   6.510   2.565  0.3265 -1.7086  1.9721
 7790TIP3    H244862   1.480   6.576   2.697  0.1253  2.3366  0.1445
 7791TIP3   OH244863   1.870   6.431  13.055  0.0907  0.4781 -0.7025
 7791TIP3    H144864   1.848   6.513  13.098 -1.0465 -0.4717  0.5951
 7791TIP3    H244865   1.966   6.427  13.058  0.1386  1.5706 -0.4675
 7792TIP3   OH244866   0.777   3.656   5.857 -0.3099 -0.5084 -0.6260
 7792TIP3    H144867   0.754   3.745   5.829 -0.8205 -0.1744  0.7669
 7792TIP3    H244868   0.701   3.626   5.907  0.0954 -1.5116 -0.5846
 7793TIP3   OH244869   1.424   2.290  11.605  0.0834 -0.1927 -0.0408
 7793TIP3    H144870   1.347   2.301  11.548  0.7912 -2.2751 -1.5234
 7793TIP3    H244871   1.487   2.243  11.550  1.5322 -0.6010  1.8962
 7794TIP3   OH244872   2.251   4.566   0.334  0.4355 -0.4659  0.2171
 7794TIP3    H144873   2.223   4.587   0.423  1.5283  1.0678  0.2517
 7794TIP3    H244874   2.171   4.575   0.281  0.2607  1.1840  0.6901
 7795TIP3   OH244875   6.412   3.611   0.177 -0.3738  0.9690  0.1692
 7795TIP3    H144876   6.410   3.689   0.232  2.3582  1.3690 -0.1834
 7795TIP3    H244877   6.401   3.645   0.088  0.0091  0.8786  0.0854
 7796TIP3   OH244878   6.438   4.976  12.258 -0.6924 -0.5659  0.6283
 7796TIP3    H144879   6.397   5.063  12.260 -1.1527 -0.7921  1.7367
 7796TIP3    H244880   6.367   4.915  12.278 -0.6587 -1.3452 -1.4422
 7797TIP3   OH244881   5.441   5.270   0.144 -0.6607 -0.8021  0.0538
 7797TIP3    H144882   5.349   5.251   0.160 -1.2972  0.7658 -1.4654
 7797TIP3    H244883   5.445   5.365   0.129  0.7641 -1.1490 -2.3743
 7798TIP3   OH244884   1.708   4.044  16.389 -0.0587  0.3158  0.2169
 7798TIP3    H144885   1.741   4.118  16.338  0.1549  0.2391  0.2409
 7798TIP3    H244886   1.642   4.004  16.333  0.4808 -0.0287 -0.1849
 7799TIP3   OH244887   5.925   3.036  10.921 -0.1953  0.1334  0.4275
 7799TIP3    H144888   5.929   2.966  10.987 -0.1793  0.0486  0.3368
 7799TIP3    H244889   5.944   2.991  10.838  1.3501  0.5035  0.5522
 7800TIP3   OH244890   0.180   3.045  11.240 -0.3111  0.0694 -0.3094
 7800TIP3    H144891   0.103   3.097  11.221 -1.6533 -1.7392 -0.1051
 7800TIP3    H244892   0.254   3.100  11.214 -1.6521  1.8108 -0.5968
 7801TIP3   OH244893   5.129   5.492  13.802 -0.6209  0.0212  0.5478
 7801TIP3    H144894   5.168   5.566  13.849 -1.6551  0.5393  0.6149
 7801TIP3    H244895   5.038   5.517  13.788 -0.6832 -0.7162 -0.5235
 7802TIP3   OH244896   3.781   1.891   2.515 -0.7538  0.2946  0.3671
 7802TIP3    H144897   3.861   1.849   2.545 -0.7179  0.2212  0.1669
 7802TIP3    H244898   3.809   1.976   2.480 -0.6447 -0.1141 -0.5580
 7803TIP3   OH244899   2.840   4.803  15.918 -0.3184  0.0520  0.2163
 7803TIP3    H144900   2.896   4.726  15.906  1.2973  1.2504 -0.2766
 7803TIP3    H244901   2.887   4.874  15.875 -1.3868  1.5024  1.3382
 7804TIP3   OH244902   1.507   2.617  13.814 -0.0766  0.9058  0.7718
 7804TIP3    H144903   1.579   2.602  13.752  1.0889  1.0239  2.0351
 7804TIP3    H244904   1.547   2.605  13.900 -1.0060  3.2267  1.6123
 7805TIP3   OH244905   0.543   4.137  12.250 -0.4636  0.0618 -0.2219
 7805TIP3    H144906   0.583   4.222  12.266 -0.1804 -0.1715  0.3218
 7805TIP3    H244907   0.450   4.157  12.239 -0.4649  0.3988  0.3339
 7806TIP3   OH244908   0.875   5.895   3.307  0.0403 -0.2395 -0.0301
 7806TIP3    H144909   0.848   5.940   3.226  0.9288  0.3951  0.0147
 7806TIP3    H244910   0.970   5.889   3.301 -0.0309 -1.9274  0.0909
 7807TIP3   OH244911   4.773   2.416  11.698  0.5476 -0.3445 -0.9548
 7807TIP3    H144912   4.765   2.507  11.724 -0.9285 -0.7013 -0.0192
 7807TIP3    H244913   4.685   2.391  11.669  0.4177 -1.9764  0.6456
 7808TIP3   OH244914   0.509   1.852   0.620  0.6158  0.1808  0.2394
 7808TIP3    H144915   0.415   1.866   0.610  0.7286  2.6182  1.7656
 7808TIP3    H244916   0.541   1.835   0.531 -1.3392 -1.5250 -0.1905
 7809TIP3   OH244917   4.082   5.120  14.531 -0.0168  0.6248  0.4179
 7809TIP3    H144918   3.997   5.139  14.491  0.0957  0.3059  0.0186
 7809TIP3    H244919   4.145   5.137  14.460  0.1628 -0.2609  0.3633
 7810TIP3   OH244920   4.485   6.806   3.399  0.1217  0.0308  0.4952
 7810TIP3    H144921   4.519   6.718   3.411  0.3034  0.1061  0.5389
 7810TIP3    H244922   4.441   6.803   3.314  0.6756  0.0648  0.2024
 7811TIP3   OH244923   1.910   4.181  13.088 -0.4027 -0.3717  0.0585
 7811TIP3    H144924   1.853   4.255  13.107  0.8170  0.1788  1.7792
 7811TIP3    H244925   1.993   4.203  13.129  0.9625 -1.3255 -2.0349
 7812TIP3   OH244926   6.699   0.153   1.198  0.2571 -0.0724  0.2193
 7812TIP3    H144927   6.752   0.231   1.216 -0.2274  0.3233 -0.0515
 7812TIP3    H244928   6.611   0.177   1.227  0.0184 -0.3719 -0.2530
 7813TIP3   OH244929   1.001   2.109   6.311 -0.8929 -0.2260  0.2258
 7813TIP3    H144930   1.004   2.030   6.257 -0.4722  0.0465 -0.1538
 7813TIP3    H244931   0.935   2.090   6.378  0.3098 -1.4972  1.0932
 7814TIP3   OH244932   0.798   6.458  13.546 -0.2982  0.4253  0.2145
 7814TIP3    H144933   0.795   6.432  13.638 -1.1929  0.6467  0.2571
 7814TIP3    H244934   0.779   6.551  13.546  1.3743  0.7883 -0.0724
 7815TIP3   OH244935   5.579   0.461  13.429 -0.6591  0.6503 -0.5033
 7815TIP3    H144936   5.648   0.406  13.465  0.2927  0.1952 -2.8196
 7815TIP3    H244937   5.530   0.492  13.505  0.8957 -0.5960  1.0803
 7816TIP3   OH244938   4.445   4.364  11.652 -0.2339 -0.6183  0.1994
 7816TIP3    H144939   4.419   4.382  11.561  1.9286  0.5165 -0.2570
 7816TIP3    H244940   4.444   4.268  11.658  0.1205 -0.7391 -1.2039
 7817TIP3   OH244941   3.881   5.236   2.567  0.3093  0.5285 -0.2527
 7817TIP3    H144942   3.964   5.246   2.521 -0.0620  0.3269 -0.9861
 7817TIP3    H244943   3.891   5.156   2.618  1.2035  1.4437  1.1029
 7818TIP3   OH244944   4.418   6.581   4.894 -0.2651 -0.5531 -0.1287
 7818TIP3    H144945   4.441   6.599   4.803 -1.0170 -0.9022 -0.3964
 7818TIP3    H244946   4.414   6.485   4.899  1.8360 -0.6470  0.8026
 7819TIP3   OH244947   3.209   4.900  13.586 -0.2959  0.1100  0.1325
 7819TIP3    H144948   3.190   4.968  13.650 -1.8774 -0.8868  0.8100
 7819TIP3    H244949   3.152   4.827  13.612 -1.3396 -0.1954 -2.6257
 7820TIP3   OH244950   1.505   0.702  15.451 -0.3794  0.2843 -0.4674
 7820TIP3    H144951   1.525   0.735  15.538  0.1079 -0.6915 -0.1887
 7820TIP3    H244952   1.561   0.752  15.392  1.2717 -0.8384  0.0711
 7821TIP3   OH244953   1.123   0.322  16.809 -0.5070 -0.6338  0.2749
 7821TIP3    H144954   1.028   0.318  16.793 -0.4306  0.1420 -0.4845
 7821TIP3    H244955   1.147   0.234  16.835 -1.4368 -0.8521  0.4192
 7822TIP3   OH244956   2.315   1.451   3.899 -0.2222 -0.2167 -0.6022
 7822TIP3    H144957   2.339   1.534   3.857  1.6209 -1.3403 -1.9230
 7822TIP3    H244958   2.268   1.403   3.832  1.0731 -1.2750 -0.7882
 7823TIP3   OH244959   6.501   6.612  14.027 -0.2886 -0.2984  0.4094
 7823TIP3    H144960   6.556   6.592  13.951 -0.1560  1.5769 -0.0148
 7823TIP3    H244961   6.533   6.696  14.059 -0.5005 -0.9336  2.4183
 7824TIP3   OH244962   6.777   4.296  13.393 -0.4076  0.4821  0.2436
 7824TIP3    H144963   6.756   4.389  13.380  0.3077  0.5056 -0.8998
 7824TIP3    H244964   6.723   4.250  13.329 -1.0657  0.0532  1.0857
 7825TIP3   OH244965   0.382   4.075   1.182  0.0122  0.6576 -0.3069
 7825TIP3    H144966   0.467   4.099   1.145  0.7584  1.2249  1.6126
 7825TIP3    H244967   0.378   4.122   1.266 -1.4407 -0.7013  0.4545
 7826TIP3   OH244968   3.869   4.675  16.755  0.2386  0.0535  0.0975
 7826TIP3    H144969   3.890   4.718  16.838 -0.4322 -1.2536  0.9839
 7826TIP3    H244970   3.793   4.620  16.775  0.5705 -0.9246 -1.1834
 7827TIP3   OH244971   6.473   3.413   2.918  0.1130  0.1830 -0.1924
 7827TIP3    H144972   6.566   3.427   2.931  0.2740 -1.0529  0.0601
 7827TIP3    H244973   6.465   3.382   2.828  0.1238 -1.1091  0.2314
 7828TIP3   OH244974   3.219   4.677   0.021 -0.6061 -0.0867  0.1783
 7828TIP3    H144975   3.149   4.664   0.085  1.0995  0.4125  2.2215
 7828TIP3    H244976   3.289   4.619   0.049  0.3551  0.4659 -0.9815
 7829TIP3   OH244977   0.564   3.156  16.733 -0.3608  0.6897  0.2886
 7829TIP3    H144978   0.582   3.112  16.816  1.5852 -2.1800 -1.4878
 7829TIP3    H244979   0.636   3.217  16.722  1.2618 -1.3039 -0.7104
 7830TIP3   OH244980   1.160   5.687  11.300 -0.2569 -0.0966  0.2542
 7830TIP3    H144981   1.219   5.737  11.244 -0.4599  0.7745  0.7928
 7830TIP3    H244982   1.074   5.699  11.262 -0.6109  1.6569  1.4899
 7831TIP3   OH244983   2.362   5.744   3.657 -0.1861 -0.1752 -0.0959
 7831TIP3    H144984   2.431   5.779   3.713 -0.9289  1.2861 -0.0134
 7831TIP3    H244985   2.374   5.650   3.658  0.7409 -0.0639  1.3133
 7832TIP3   OH244986   1.969   3.946   2.073 -0.4020 -0.3969  0.2946
 7832TIP3    H144987   1.887   3.948   2.022 -0.6172  0.6318  0.6578
 7832TIP3    H244988   1.943   3.972   2.161  0.2793 -0.3126  0.4749
 7833TIP3   OH244989   1.909   0.677   5.713 -0.0290 -0.5169  0.1946
 7833TIP3    H144990   1.998   0.707   5.734 -0.1118 -0.6199  0.6996
 7833TIP3    H244991   1.915   0.581   5.714  0.1379 -0.5374 -1.0075
 7834TIP3   OH244992   1.684   5.003  11.280 -0.4159 -0.3450 -0.3760
 7834TIP3    H144993   1.724   5.011  11.193 -0.2245 -1.7215 -0.4351
 7834TIP3    H244994   1.755   5.020  11.341 -0.4451  0.1747 -0.4814
 7835TIP3   OH244995   2.150   3.449   2.169 -0.0666 -0.2455  0.6898
 7835TIP3    H144996   2.200   3.368   2.181  0.5011 -0.4132 -2.0739
 7835TIP3    H244997   2.061   3.420   2.150 -0.1164 -0.1744  0.8142
 7836TIP3   OH244998   5.722   4.377   0.108 -0.5908 -0.1318  0.0070
 7836TIP3    H144999   5.667   4.455   0.104 -0.4515 -0.0693 -0.8180
 7836TIP3    H245000   5.784   4.395   0.179  0.4514  1.2092 -1.1750
 7837TIP3   OH245001   4.462   1.221  15.064 -0.4146 -0.5097  0.3419
 7837TIP3    H145002   4.409   1.173  15.001 -2.0979  1.1429  0.4037
 7837TIP3    H245003   4.473   1.308  15.026 -1.1955  0.4278  2.1064
 7838TIP3   OH245004   0.684   5.345  14.728  0.1096 -0.3221  0.5750
 7838TIP3    H145005   0.638   5.266  14.702 -0.6913 -0.3697  1.9968
 7838TIP3    H245006   0.658   5.411  14.664  0.6078 -1.1440 -0.4895
 7839TIP3   OH245007   5.580   5.071   0.820 -0.7490 -0.4653 -0.2526
 7839TIP3    H145008   5.642   5.137   0.852  0.5034 -1.6739 -0.1167
 7839TIP3    H245009   5.554   5.022   0.898 -1.6790 -0.1442 -0.3518
 7840TIP3   OH245010   3.901   6.267   1.753 -0.0609 -0.0369  0.5970
 7840TIP3    H145011   3.984   6.305   1.782  1.4241 -1.4779 -1.4442
 7840TIP3    H245012   3.865   6.332   1.692 -0.7495  0.8240  1.8790
 7841TIP3   OH245013   0.106   2.341  17.087 -0.0592  0.2519 -0.0836
 7841TIP3    H145014   0.037   2.384  17.036 -0.7703 -0.1127  0.5645
 7841TIP3    H245015   0.072   2.254  17.105 -0.6959  0.9957  2.6899
 7842TIP3   OH245016   5.497   6.164   4.125 -0.2880 -0.3530  0.2692
 7842TIP3    H145017   5.444   6.099   4.078 -2.5939 -1.1361  3.5977
 7842TIP3    H245018   5.478   6.247   4.080 -1.8412 -1.1194 -0.6049
 7843TIP3   OH245019   3.430   6.579   3.629 -0.0556  0.1180  0.3512
 7843TIP3    H145020   3.442   6.586   3.724  0.4350  2.5885  0.1972
 7843TIP3    H245021   3.362   6.644   3.609  1.0605  0.9054 -1.1282
 7844TIP3   OH245022   0.086   0.186   4.818  0.4242 -0.4338 -0.0294
 7844TIP3    H145023   0.144   0.173   4.893 -0.9997  0.1145  1.2077
 7844TIP3    H245024   0.040   0.103   4.807 -1.0026  0.1720  1.1646
 7845TIP3   OH245025   4.094   4.845   5.480  0.8767  0.0074  0.1565
 7845TIP3    H145026   4.160   4.792   5.435 -0.7862 -2.3675  0.3067
 7845TIP3    H245027   4.025   4.783   5.502 -2.1359  2.5850 -1.2928
 7846TIP3   OH245028   4.222   0.173   0.211  0.0334  0.0013  0.4221
 7846TIP3    H145029   4.178   0.250   0.176 -1.3855 -1.1537 -0.4238
 7846TIP3    H245030   4.298   0.161   0.154 -0.2569  0.2290 -0.0152
 7847TIP3   OH245031   0.311   3.897   4.441 -0.1908 -0.7295  0.5276
 7847TIP3    H145032   0.303   3.990   4.458  1.3901 -0.8010  1.9576
 7847TIP3    H245033   0.377   3.890   4.372  0.3677 -0.7960  1.0544
 7848TIP3   OH245034   2.955   4.096   6.387  0.5067  0.6128  0.4189
 7848TIP3    H145035   3.048   4.106   6.367  0.6912  0.9392  1.3854
 7848TIP3    H245036   2.950   4.013   6.435  0.3030  0.6245  0.4196
 7849TIP3   OH245037   3.194   6.168   0.251 -0.3667  0.5121 -0.1748
 7849TIP3    H145038   3.178   6.153   0.345 -0.0801 -2.2223 -0.4665
 7849TIP3    H245039   3.115   6.213   0.221 -1.4265 -0.4385  1.0151
 7850TIP3   OH245040   0.186   6.482   2.368  0.3957 -0.0445  0.1168
 7850TIP3    H145041   0.101   6.477   2.324 -0.1218  0.7725  0.9767
 7850TIP3    H245042   0.175   6.552   2.432  2.3605  1.4593 -1.1027
 7851TIP3   OH245043   4.751   0.420   0.542 -0.4129 -0.6492  0.4625
 7851TIP3    H145044   4.735   0.473   0.620  0.5876 -0.1338  0.3379
 7851TIP3    H245045   4.844   0.398   0.547 -0.0633  0.3096 -1.1178
 7852TIP3   OH245046   1.668   3.021  16.244 -0.0953 -0.8402 -0.6888
 7852TIP3    H145047   1.708   3.090  16.296 -1.7044 -0.4575  0.0903
 7852TIP3    H245048   1.730   3.006  16.172  1.5697 -0.5152  0.6292
 7853TIP3   OH245049   1.142   0.445  16.485 -0.1635 -0.0013 -0.2019
 7853TIP3    H145050   1.064   0.470  16.534  0.4648  0.9277  0.3560
 7853TIP3    H245051   1.128   0.353  16.461 -0.7973 -0.2537  1.0976
 7854TIP3   OH245052   0.031   0.912  14.093  0.2411  1.0328 -0.7459
 7854TIP3    H145053   0.014   1.005  14.082  0.3460  0.8772 -2.3959
 7854TIP3    H245054  -0.052   0.875  14.124  0.0717  1.5931 -0.5320
 7855TIP3   OH245055   6.782   0.102   2.802  0.2707  0.6654 -0.1914
 7855TIP3    H145056   6.724   0.168   2.838 -0.3323  0.6379 -1.0860
 7855TIP3    H245057   6.823   0.144   2.727 -1.3908 -0.4735 -1.8059
 7856TIP3   OH245058   2.716   1.151  14.269 -0.3825 -0.0547  0.0613
 7856TIP3    H145059   2.703   1.242  14.295 -1.1504  0.3102 -1.4604
 7856TIP3    H245060   2.811   1.140  14.267 -0.1863  1.4022 -1.7811
 7857TIP3   OH245061   1.142   0.747   3.229 -0.1396  0.7007 -0.1120
 7857TIP3    H145062   1.144   0.733   3.135 -0.1264 -2.0734  0.1920
 7857TIP3    H245063   1.111   0.663   3.265  0.1047  1.5655  2.3604
 7858TIP3   OH245064   1.888   2.473   5.634 -0.2708 -0.6202 -0.1687
 7858TIP3    H145065   1.979   2.463   5.664  0.0551  1.1454 -0.4442
 7858TIP3    H245066   1.893   2.538   5.564 -1.8811  0.4424  0.6366
 7859TIP3   OH245067   4.774   6.072  14.350  0.2532 -0.6251 -0.0889
 7859TIP3    H145068   4.719   6.015  14.295 -0.4459  0.5731 -0.6776
 7859TIP3    H245069   4.735   6.159  14.341  1.3137 -0.0349  0.7575
 7860TIP3   OH245070   0.521   1.357  12.161 -0.1439  0.0474 -0.5325
 7860TIP3    H145071   0.558   1.399  12.239 -0.5737  2.1342 -1.3838
 7860TIP3    H245072   0.597   1.341  12.105  0.2640 -2.0856  0.4933
 7861TIP3   OH245073   1.580   0.244   6.411 -0.3113 -0.1162 -0.4626
 7861TIP3    H145074   1.609   0.209   6.327 -1.1566 -0.2578 -0.7114
 7861TIP3    H245075   1.492   0.207   6.423  0.5219 -1.6523  1.3993
 7862TIP3   OH245076   2.166   3.439   4.471 -1.0003  0.3383  0.1625
 7862TIP3    H145077   2.186   3.474   4.558 -0.7067 -1.7476  0.9909
 7862TIP3    H245078   2.211   3.498   4.411  3.0517 -0.8720  1.6725
 7863TIP3   OH245079   0.218   6.643   3.686 -0.0864  0.0311 -0.4717
 7863TIP3    H145080   0.214   6.562   3.634  1.0015  0.2630 -0.9421
 7863TIP3    H245081   0.297   6.635   3.738  0.8241  1.3758 -1.5592
 7864TIP3   OH245082   5.192   1.092  12.777  0.0163  0.1241 -0.4662
 7864TIP3    H145083   5.207   1.168  12.720 -0.3514  0.6972  0.1784
 7864TIP3    H245084   5.097   1.092  12.791  0.2635  1.0259  1.4994
 7865TIP3   OH245085   4.631   6.052   2.271  0.1306  0.5930 -0.6289
 7865TIP3    H145086   4.661   6.073   2.359  0.4271 -1.1939 -0.2713
 7865TIP3    H245087   4.696   6.091   2.213  1.5211 -0.6500  0.0490
 7866TIP3   OH245088   4.848   2.691  14.040  0.1183  0.5676  0.4136
 7866TIP3    H145089   4.897   2.631  14.096  0.6598  0.5054 -0.1102
 7866TIP3    H245090   4.856   2.776  14.083 -1.1761  0.1728  1.4885
 7867TIP3   OH245091   4.168   5.068   3.282 -0.1268 -0.2539  0.0848
 7867TIP3    H145092   4.098   5.025   3.331 -0.2352  0.3219  0.4489
 7867TIP3    H245093   4.143   5.160   3.281  0.0736 -0.2068 -0.7378
 7868TIP3   OH245094   2.247   1.238  14.485 -0.0561 -0.3442 -0.2400
 7868TIP3    H145095   2.252   1.174  14.413 -2.9744  0.1483 -1.0444
 7868TIP3    H245096   2.296   1.314  14.453  0.4065 -0.8849 -0.8417
 7869TIP3   OH245097   0.416   4.177  16.347 -0.0754 -0.0450  0.1306
 7869TIP3    H145098   0.368   4.252  16.313 -1.5118  0.1442  2.4013
 7869TIP3    H245099   0.472   4.213  16.416  1.1042 -0.7219 -0.4376
 7870TIP3   OH245100   6.198   6.589  17.120  0.5754 -0.4220  0.1127
 7870TIP3    H145101   6.224   6.631  17.203  1.0230  0.5171 -0.4805
 7870TIP3    H245102   6.103   6.600  17.116  0.6093 -0.0499  0.2794
 7871TIP3   OH245103   5.534   4.953  10.662 -0.2538 -0.4274 -0.4802
 7871TIP3    H145104   5.517   4.924  10.752 -0.5330 -1.5309 -0.8733
 7871TIP3    H245105   5.538   4.872  10.611 -0.7353  0.2135 -1.5725
 7872TIP3   OH245106   4.591   4.458   2.433  0.1274  0.3731 -0.1725
 7872TIP3    H145107   4.637   4.533   2.394  0.1325  0.7629  0.5663
 7872TIP3    H245108   4.610   4.465   2.527  0.0781 -0.5216 -0.0904
 7873TIP3   OH245109   4.511   0.559  15.087  0.9760  0.3186  0.7479
 7873TIP3    H145110   4.592   0.549  15.136  1.4647  1.2283  0.1605
 7873TIP3    H245111   4.534   0.537  14.997  0.8519  1.6156  0.3785
 7874TIP3   OH245112   1.366   5.376  13.492 -0.0409 -0.4040  0.5854
 7874TIP3    H145113   1.437   5.345  13.436  1.3730  1.6591  1.1059
 7874TIP3    H245114   1.328   5.450  13.444  0.1271  0.3623  1.5974
 7875TIP3   OH245115   1.992   4.367   5.423 -0.4584  0.3808  0.0921
 7875TIP3    H145116   1.936   4.307   5.374 -1.2832  0.9863  0.2896
 7875TIP3    H245117   1.947   4.380   5.506  0.2110  0.5071  0.4406
 7876TIP3   OH245118   4.283   0.961   2.419  0.6021 -0.1057  0.0318
 7876TIP3    H145119   4.218   1.006   2.474  1.0641  0.5864  0.0193
 7876TIP3    H245120   4.283   0.871   2.451  1.0053  0.3228  1.3163
 7877TIP3   OH245121   5.519   6.171   1.759 -0.1787  0.1224 -0.1237
 7877TIP3    H145122   5.520   6.083   1.796 -0.3304  0.1842  0.0281
 7877TIP3    H245123   5.611   6.194   1.749 -0.0835  0.7896  1.8570
 7878TIP3   OH245124   0.699   1.754  16.321  0.5177  0.3457 -0.3959
 7878TIP3    H145125   0.658   1.834  16.287  1.1756  0.3837 -1.1445
 7878TIP3    H245126   0.656   1.683  16.274 -0.3665  0.2144  0.5799
 7879TIP3   OH245127   6.299   0.907   4.059  0.4339  0.5593 -0.4067
 7879TIP3    H145128   6.386   0.869   4.045  0.5846  0.4776  0.6920
 7879TIP3    H245129   6.249   0.879   3.983  0.4875 -2.0213  0.4089
 7880TIP3   OH245130   4.029   1.608  14.558 -0.0640  0.1433  0.4352
 7880TIP3    H145131   3.953   1.651  14.518  0.6365  1.2864  0.3045
 7880TIP3    H245132   3.991   1.552  14.626 -1.1157 -0.2998 -0.4837
 7881TIP3   OH245133   5.497   4.577   4.322 -0.1026  0.5364  0.1841
 7881TIP3    H145134   5.467   4.504   4.268 -0.9573  0.7676  0.3345
 7881TIP3    H245135   5.545   4.536   4.393  2.2880  0.2719 -1.4529
 7882TIP3   OH245136   4.941   2.014  13.965 -0.0159 -0.3101  0.6567
 7882TIP3    H145137   5.005   2.010  13.894 -0.3118  1.6896  0.2282
 7882TIP3    H245138   4.860   1.982  13.925 -0.0708  0.3766  0.1902
 7883TIP3   OH245139   5.329   3.486  14.906 -0.0790  0.0753 -0.4948
 7883TIP3    H145140   5.271   3.414  14.929 -0.1692 -0.0036 -0.9760
 7883TIP3    H245141   5.417   3.448  14.908 -0.2169 -0.3324 -1.8687
 7884TIP3   OH245142   6.117   5.154   4.838 -0.5526 -0.5855 -0.2872
 7884TIP3    H145143   6.031   5.164   4.796 -1.1880  2.1758  1.4100
 7884TIP3    H245144   6.099   5.101   4.916 -0.6738 -0.2840 -0.1071
 7885TIP3   OH245145   2.990   4.186  12.259 -0.0849  0.7496  0.3053
 7885TIP3    H145146   2.974   4.095  12.285 -1.3430  1.0939  0.8192
 7885TIP3    H245147   2.970   4.188  12.165  0.7969  0.3223  0.0980
 7886TIP3   OH245148   5.167   4.369   3.643 -0.4165  0.3466 -0.3068
 7886TIP3    H145149   5.134   4.349   3.731  1.5244 -1.4297  0.1116
 7886TIP3    H245150   5.184   4.463   3.644 -3.8617  1.1212 -0.1029
 7887TIP3   OH245151   6.222   2.740   4.851  0.3191 -0.0477  0.7614
 7887TIP3    H145152   6.207   2.706   4.939 -0.8011  1.0612  1.0340
 7887TIP3    H245153   6.317   2.737   4.839  0.3816 -1.5186  1.4494
 7888TIP3   OH245154   6.204   6.760  11.700  0.3130 -0.0487  0.4089
 7888TIP3    H145155   6.150   6.788  11.774 -0.9737 -3.1688  0.7903
 7888TIP3    H245156   6.142   6.724  11.638  1.7944 -2.2770  0.1292
 7889TIP3   OH245157   6.274   1.917  14.103  0.2969  0.1441 -0.1875
 7889TIP3    H145158   6.235   2.002  14.126  0.3752  0.3424 -0.7706
 7889TIP3    H245159   6.351   1.910  14.159 -0.2992 -0.0293  0.6309
 7890TIP3   OH245160   0.098   1.001   1.858  0.2145  0.3203 -0.0040
 7890TIP3    H145161   0.181   0.998   1.811 -0.3073 -1.0782 -0.9159
 7890TIP3    H245162   0.038   1.046   1.797 -0.3028 -0.9189 -0.4404
 7891TIP3   OH245163   5.253   1.914   5.759  0.3552 -0.1213 -0.2847
 7891TIP3    H145164   5.343   1.916   5.793  0.2611  1.3539 -0.0558
 7891TIP3    H245165   5.197   1.916   5.836  0.1408  3.2534 -0.3977
 7892TIP3   OH245166   5.285   3.243  11.494  0.8028  0.3297  0.3439
 7892TIP3    H145167   5.322   3.327  11.523 -0.2849  0.9011  0.1251
 7892TIP3    H245168   5.355   3.180  11.509  0.7876  0.8254  2.9281
 7893TIP3   OH245169   3.998   1.444   0.577  0.3739  0.1304  0.1357
 7893TIP3    H145170   4.025   1.353   0.563  2.6830  0.8901 -0.7697
 7893TIP3    H245171   3.903   1.439   0.586  0.4561 -2.3935  0.3680
 7894TIP3   OH245172   0.443   6.808  15.428 -0.1997 -0.1186 -0.3678
 7894TIP3    H145173   0.365   6.770  15.388 -0.5086  0.8378 -0.7158
 7894TIP3    H245174   0.414   6.840  15.513  0.0315 -0.5551 -0.1211
 7895TIP3   OH245175   2.699   1.527   1.735  0.3212 -0.2959  0.4573
 7895TIP3    H145176   2.606   1.508   1.719 -0.4758  2.9726  0.4040
 7895TIP3    H245177   2.745   1.447   1.712 -2.5429 -2.2889  1.2031
 7896TIP3   OH245178   1.965   1.157  13.527  0.2049  0.1163 -0.4513
 7896TIP3    H145179   1.948   1.073  13.486 -0.3796 -0.5613  1.0882
 7896TIP3    H245180   1.926   1.222  13.468  0.8225 -0.6562 -1.7421
 7897TIP3   OH245181   2.186   4.871   5.116 -0.0810  0.2990 -0.2081
 7897TIP3    H145182   2.244   4.865   5.192  1.1361 -0.6288 -1.1565
 7897TIP3    H245183   2.125   4.798   5.127 -0.8069  1.0131  0.5741
 7898TIP3   OH245184   6.440   4.673   1.469 -0.1526  0.4184 -0.3833
 7898TIP3    H145185   6.448   4.664   1.564  2.1153 -0.4166 -0.5943
 7898TIP3    H245186   6.449   4.583   1.436  0.3284  0.8481 -1.4502
 7899TIP3   OH245187   3.154   1.355   2.280 -0.1282 -0.3560 -0.4349
 7899TIP3    H145188   3.181   1.264   2.265  0.3063 -0.5335  1.2198
 7899TIP3    H245189   3.207   1.384   2.355 -2.2327  0.3101  0.8894
 7900TIP3   OH245190   4.065   1.078  15.014 -0.2549  0.1074 -0.0409
 7900TIP3    H145191   4.057   1.087  15.108  0.8646  0.2716  0.0565
 7900TIP3    H245192   4.096   0.988  15.001 -2.8867 -0.8386 -0.4484
 7901TIP3   OH245193   6.770   2.875  13.565  0.2585 -0.3308  0.2709
 7901TIP3    H145194   6.769   2.780  13.571  0.7105 -0.2559  2.1249
 7901TIP3    H245195   6.680   2.902  13.585  0.4418 -0.3243  1.1107
 7902TIP3   OH245196   5.326   4.347  15.529  0.0866 -0.0529  0.0603
 7902TIP3    H145197   5.353   4.257  15.551  0.3312  0.0185  0.0538
 7902TIP3    H245198   5.347   4.397  15.608  2.3214  0.4923 -0.8232
 7903TIP3   OH245199   4.077   3.286  14.322 -0.3780 -0.3505  0.2614
 7903TIP3    H145200   4.061   3.273  14.415 -1.3954 -1.7641 -0.0565
 7903TIP3    H245201   4.156   3.235  14.304  0.8519  1.3410  0.6337
 7904TIP3   OH245202   6.176   6.317  16.393 -0.0998 -0.1258 -0.2304
 7904TIP3    H145203   6.187   6.371  16.314  0.4826 -1.4778 -1.1180
 7904TIP3    H245204   6.112   6.251  16.368  0.1179 -0.5872  0.4199
 7905TIP3   OH245205   1.933   0.754  13.093 -0.5017 -0.0115  0.0334
 7905TIP3    H145206   1.938   0.764  13.188 -1.3680  0.5625  0.0236
 7905TIP3    H245207   2.004   0.808  13.059  0.9918 -1.6442  0.4125
 7906TIP3   OH245208   3.396   3.595  13.813  0.1045  0.1699 -0.6096
 7906TIP3    H145209   3.398   3.687  13.840  0.6749 -0.2668  0.9176
 7906TIP3    H245210   3.455   3.551  13.874 -0.8137 -1.3589 -0.7796
 7907TIP3   OH245211   0.328   1.849  13.627 -0.2579  0.0723  0.2074
 7907TIP3    H145212   0.234   1.861  13.642 -0.3581  0.7630 -0.8711
 7907TIP3    H245213   0.353   1.780  13.688 -1.7336 -1.0356 -0.3589
 7908TIP3   OH245214   4.949   1.436   3.898  0.3256 -0.0141  0.1888
 7908TIP3    H145215   4.918   1.515   3.942  1.7761  0.1623  0.9566
 7908TIP3    H245216   4.904   1.365   3.943 -0.3664  0.3253  0.0435
 7909TIP3   OH245217   6.081   4.509   2.157 -0.9238 -0.0393  0.9256
 7909TIP3    H145218   5.995   4.487   2.124 -1.4848  1.0714  1.5899
 7909TIP3    H245219   6.116   4.426   2.190 -0.6381 -1.0354 -1.6559
 7910TIP3   OH245220   4.484   3.466  15.414 -0.2256 -0.1881  0.2798
 7910TIP3    H145221   4.495   3.488  15.322  0.7343  0.0147  0.4324
 7910TIP3    H245222   4.404   3.413  15.417 -1.3139  1.3330 -0.4119
 7911TIP3   OH245223   1.780   1.642  16.512  0.4802 -1.0338 -0.1210
 7911TIP3    H145224   1.726   1.719  16.527 -0.1898 -1.6048  0.4610
 7911TIP3    H245225   1.863   1.662  16.555 -0.0289 -1.0216  0.8739
 7912TIP3   OH245226   6.090   6.038   3.862 -0.2017 -0.2226 -0.3534
 7912TIP3    H145227   6.089   5.946   3.888 -1.3701  0.1651  1.1314
 7912TIP3    H245228   6.042   6.041   3.779  0.6624 -1.0590 -0.8945
 7913TIP3   OH245229   1.780   2.730  16.292 -0.0097  0.2570  0.9506
 7913TIP3    H145230   1.847   2.714  16.359  0.1617 -0.2442  0.6646
 7913TIP3    H245231   1.805   2.813  16.252  0.0864  0.3833  1.2665
 7914TIP3   OH245232   2.104   5.496  14.953  0.1340 -0.3348  0.2492
 7914TIP3    H145233   2.080   5.404  14.960  0.7003 -0.4851  0.2646
 7914TIP3    H245234   2.168   5.499  14.883  2.4214 -0.4296  2.2105
 7915TIP3   OH245235   1.368   6.051   5.000  0.0443 -0.3888  0.2193
 7915TIP3    H145236   1.390   6.099   4.920 -0.1697 -0.8419 -0.1154
 7915TIP3    H245237   1.383   6.114   5.070 -2.2470  0.8850 -0.3426
 7916TIP3   OH245238   5.119   4.210   5.003 -0.1887  0.5321  0.6104
 7916TIP3    H145239   5.042   4.239   5.051 -0.7318 -0.4354  0.3376
 7916TIP3    H245240   5.144   4.286   4.950 -0.5560  1.0581  1.1812
 7917TIP3   OH245241   6.260   5.956  12.368  0.2402  0.0391 -0.3438
 7917TIP3    H145242   6.257   5.868  12.329  0.6785 -0.7263  1.2740
 7917TIP3    H245243   6.191   6.004  12.322 -0.0376 -1.1567 -1.2338
 7918TIP3   OH245244   4.476   4.284  11.396  0.7862  0.7166  0.6629
 7918TIP3    H145245   4.416   4.221  11.356 -0.1490  1.2532  1.1831
 7918TIP3    H245246   4.546   4.230  11.433  1.7907  0.1972 -1.7863
 7919TIP3   OH245247   1.254   3.496  11.861 -0.0031  0.0563 -0.5163
 7919TIP3    H145248   1.294   3.509  11.775  1.8820  0.2847  0.3423
 7919TIP3    H245249   1.170   3.454  11.842  0.2759  0.2686 -2.4623
 7920TIP3   OH245250   6.582   2.586  14.811  0.5744  0.7185 -0.0765
 7920TIP3    H145251   6.489   2.567  14.807  0.8126 -0.8989  1.0544
 7920TIP3    H245252   6.587   2.682  14.808 -1.3019  0.9904  2.3551
 7921TIP3   OH245253   6.718   4.476  14.068 -0.0803 -0.1250 -0.2620
 7921TIP3    H145254   6.783   4.546  14.066 -0.8799  0.7503  1.4507
 7921TIP3    H245255   6.767   4.399  14.097  0.1203  0.7244  1.8989
 7922TIP3   OH245256   4.589   3.313   5.446 -0.5071  0.0516 -0.2406
 7922TIP3    H145257   4.648   3.334   5.374 -0.6530  0.9903 -0.1049
 7922TIP3    H245258   4.640   3.327   5.525 -0.8821  0.8478 -0.1235
 7923TIP3   OH245259   0.754   1.904  10.659  0.2021  0.2289  0.2626
 7923TIP3    H145260   0.688   1.971  10.675 -0.9637 -0.4693 -1.3658
 7923TIP3    H245261   0.822   1.947  10.607 -0.0689  0.3925  0.0463
 7924TIP3   OH245262   4.746   6.358  16.135  0.0890  0.2547 -0.2529
 7924TIP3    H145263   4.783   6.410  16.207 -0.0891  0.8233 -0.5659
 7924TIP3    H245264   4.721   6.275  16.176  0.4949  0.3627  0.2282
 7925TIP3   OH245265   6.826   2.629   1.945  0.2842  0.3414  0.6727
 7925TIP3    H145266   6.758   2.691   1.973  0.0401 -0.0554  0.9807
 7925TIP3    H245267   6.787   2.542   1.961  0.4883  0.1027 -0.0628
 7926TIP3   OH245268   6.024   6.513   1.219 -0.1864  0.0920  0.1607
 7926TIP3    H145269   6.077   6.492   1.296 -1.3790 -2.6750  0.3655
 7926TIP3    H245270   6.086   6.516   1.147  0.7950  1.5573  0.9973
 7927TIP3   OH245271   5.435   1.055  13.121 -0.1347  0.1594  0.1691
 7927TIP3    H145272   5.414   1.126  13.060  1.1311  0.8937  0.5500
 7927TIP3    H245273   5.470   1.100  13.199  2.0830 -0.8887 -0.1380
 7928TIP3   OH245274   5.897   4.287   5.773 -0.5297  0.5912 -0.3564
 7928TIP3    H145275   5.967   4.223   5.785 -1.2515 -0.2561 -0.5371
 7928TIP3    H245276   5.920   4.359   5.832  1.2920  1.0434 -1.5331
 7929TIP3   OH245277   2.293   4.469   4.381 -0.1060  0.0498 -0.0203
 7929TIP3    H145278   2.293   4.477   4.286  0.9351 -1.8823 -0.2194
 7929TIP3    H245279   2.386   4.465   4.405 -0.3561  0.4076  1.0785
 7930TIP3   OH245280   3.640   0.660  12.439 -0.1088 -0.5625  0.3523
 7930TIP3    H145281   3.630   0.581  12.492 -1.0692  0.3076  1.5341
 7930TIP3    H245282   3.678   0.724  12.499 -1.9570  0.6855  0.2719
 7931TIP3   OH245283   3.923   4.614   5.479 -0.0534  0.4056 -0.6368
 7931TIP3    H145284   3.962   4.529   5.456  1.2151  0.6300  0.5613
 7931TIP3    H245285   3.884   4.600   5.565 -0.8556  0.7427 -0.9432
 7932TIP3   OH245286   4.666   6.095   0.135  0.1266  0.4915 -0.1730
 7932TIP3    H145287   4.645   6.188   0.129 -0.1457  0.3205 -2.9481
 7932TIP3    H245288   4.705   6.073   0.051 -0.9649 -2.1946 -0.0947
 7933TIP3   OH245289   1.769   6.802  14.579  0.3199 -0.4772  0.1230
 7933TIP3    H145290   1.818   6.872  14.536  0.6744 -0.7234  0.1214
 7933TIP3    H245291   1.731   6.844  14.657  1.1914 -0.4645  0.5557
 7934TIP3   OH245292   6.130   5.625   4.570  0.1353  0.1265 -0.1347
 7934TIP3    H145293   6.104   5.685   4.641  1.6987  0.1523  0.4510
 7934TIP3    H245294   6.151   5.682   4.497 -1.1307  0.1177 -0.5338
 7935TIP3   OH245295   3.800   4.598   4.936 -0.6866 -0.3322 -0.4066
 7935TIP3    H145296   3.734   4.571   5.000 -0.8958  2.2032  0.5491
 7935TIP3    H245297   3.883   4.591   4.983 -0.5101 -1.0947 -0.8010
 7936TIP3   OH245298   5.831   3.478  16.771  0.7334 -0.3654 -0.7273
 7936TIP3    H145299   5.842   3.551  16.711  0.2435  0.5195  0.2305
 7936TIP3    H245300   5.867   3.508  16.854  0.3102 -1.1121 -0.2515
 7937TIP3   OH245301   2.135   1.993   1.846 -0.4503  0.2185 -0.5610
 7937TIP3    H145302   2.039   1.988   1.844 -0.6195  1.6181  1.2148
 7937TIP3    H245303   2.154   2.085   1.865  1.2582 -0.0284 -0.8951
 7938TIP3   OH245304   0.150   0.493  16.337 -0.1017 -0.1888 -0.3741
 7938TIP3    H145305   0.097   0.419  16.365  1.0231 -0.8347  0.1559
 7938TIP3    H245306   0.104   0.530  16.262 -1.1241 -0.8935 -0.1077
 7939TIP3   OH245307   0.565   4.798  11.451 -0.3936  0.3013  0.1015
 7939TIP3    H145308   0.585   4.872  11.394 -0.5723  0.8472  0.7391
 7939TIP3    H245309   0.598   4.722  11.404  0.9020  0.9117 -0.0058
 7940TIP3   OH245310   4.126   0.484  14.015 -0.3033  0.5847 -0.1314
 7940TIP3    H145311   4.161   0.402  13.980 -1.0179  0.2387 -0.0673
 7940TIP3    H245312   4.201   0.542  14.021 -0.0474  0.4342 -1.5973
 7941TIP3   OH245313   0.328   1.306   3.348  0.4513 -0.4043  0.7685
 7941TIP3    H145314   0.423   1.306   3.358  0.6637  0.1339 -0.9104
 7941TIP3    H245315   0.295   1.279   3.434  2.0863  0.0220  1.5740
 7942TIP3   OH245316   5.733   5.229  16.015 -0.1855 -0.5097 -0.4141
 7942TIP3    H145317   5.798   5.179  16.064  0.3924 -0.0571 -0.7056
 7942TIP3    H245318   5.650   5.185  16.033  0.2027 -1.0970 -0.0426
 7943TIP3   OH245319   4.604   4.013   3.143  0.0239 -0.5494 -0.1418
 7943TIP3    H145320   4.584   3.923   3.119 -0.3637 -0.7023  0.7093
 7943TIP3    H245321   4.542   4.066   3.093  0.0272 -0.7766 -0.3867
 7944TIP3   OH245322   2.583   1.583   6.073 -0.3582 -0.2513 -0.1012
 7944TIP3    H145323   2.628   1.573   6.157 -2.0514  1.8811  1.1829
 7944TIP3    H245324   2.632   1.650   6.027 -1.8666  1.8308  1.1578
 7945TIP3   OH245325   5.041   3.952  11.315 -0.6659 -0.1963  0.0228
 7945TIP3    H145326   5.028   3.992  11.229  1.9541 -0.9765 -0.8334
 7945TIP3    H245327   5.101   3.880  11.300 -1.5908 -1.5556  2.2651
 7946TIP3   OH245328   1.922   6.484   2.319  0.7558  0.0855  0.2997
 7946TIP3    H145329   1.839   6.448   2.353  2.2707 -2.7045  1.3408
 7946TIP3    H245330   1.978   6.491   2.396  1.5456  1.9855 -0.3834
 7947TIP3   OH245331   5.371   6.481   6.110 -0.5147  0.3560  0.5717
 7947TIP3    H145332   5.360   6.387   6.121  2.4762  0.0548  1.9405
 7947TIP3    H245333   5.463   6.493   6.087 -1.0453  2.9157 -0.6575
 7948TIP3   OH245334   4.010   6.555   3.744 -0.4841  0.5459  0.2789
 7948TIP3    H145335   4.067   6.538   3.818 -0.0613  1.0099  0.0619
 7948TIP3    H245336   3.990   6.468   3.709 -0.0451  0.3709  0.4569
 7949TIP3   OH245337   0.487   4.272   0.923  0.5494 -0.1317 -0.5035
 7949TIP3    H145338   0.465   4.258   0.831 -0.0267 -2.4782 -0.0744
 7949TIP3    H245339   0.410   4.244   0.971  2.3474 -3.3219  0.8209
 7950TIP3   OH245340   0.079   5.537   0.859 -0.3909  0.1000 -0.3233
 7950TIP3    H145341   0.011   5.605   0.856 -0.3605  0.2174  1.0865
 7950TIP3    H245342   0.114   5.535   0.770 -0.8181  1.4955 -0.5515
 7951TIP3   OH245343   2.715   2.003   3.914  0.4227  0.5792 -0.0204
 7951TIP3    H145344   2.686   2.081   3.866  1.4755 -0.5452 -2.6029
 7951TIP3    H245345   2.810   2.008   3.914  0.5678 -1.2853 -1.3261
 7952TIP3   OH245346   0.306   2.246   1.869 -0.0730 -0.2002  0.6655
 7952TIP3    H145347   0.220   2.278   1.840  0.9392  2.1659  0.0487
 7952TIP3    H245348   0.309   2.268   1.962  0.0922  0.2982  0.5458
 7953TIP3   OH245349   5.037   3.337  15.746 -0.2369  0.6324  0.1865
 7953TIP3    H145350   5.104   3.347  15.814  0.4656 -0.1090 -0.3770
 7953TIP3    H245351   4.969   3.400  15.770  0.1385  0.6041  1.3983
 7954TIP3   OH245352   3.106   1.858   5.858 -0.1120 -0.7915 -0.0647
 7954TIP3    H145353   3.110   1.842   5.952  1.0294  0.6765  0.1800
 7954TIP3    H245354   3.131   1.775   5.818 -1.0785 -1.5758  0.8929
 7955TIP3   OH245355   2.389   2.477   2.862  0.0050 -0.7586 -0.1213
 7955TIP3    H145356   2.370   2.559   2.907 -0.2254 -1.0524  0.3327
 7955TIP3    H245357   2.484   2.476   2.853  0.1388 -1.0759  1.1338
 7956TIP3   OH245358   2.202   3.258  13.176  0.4497  0.0728 -0.0849
 7956TIP3    H145359   2.225   3.291  13.089  0.6299 -1.5573 -0.7015
 7956TIP3    H245360   2.276   3.283  13.232  0.8439  0.1820 -0.6508
 7957TIP3   OH245361   0.632   4.521   4.276 -0.0418  0.2212 -0.0272
 7957TIP3    H145362   0.593   4.512   4.189  0.3637  1.5299 -0.3545
 7957TIP3    H245363   0.566   4.564   4.328 -1.3352 -2.8281  1.1027
 7958TIP3   OH245364   1.641   1.520  11.697 -0.0231 -0.0850 -0.2822
 7958TIP3    H145365   1.630   1.506  11.603 -0.4848  1.9619 -0.5834
 7958TIP3    H245366   1.705   1.591  11.704  0.0740 -0.2616  0.9634
 7959TIP3   OH245367   5.396   6.551   4.132 -0.6119  0.0742  0.1890
 7959TIP3    H145368   5.322   6.612   4.130 -1.5877 -1.1003 -0.8863
 7959TIP3    H245369   5.368   6.480   4.188 -0.0770 -0.1224  0.2138
 7960TIP3   OH245370   1.553   0.299   0.242  0.0913  0.2623  0.6570
 7960TIP3    H145371   1.622   0.342   0.293  1.4690  0.8570 -1.5855
 7960TIP3    H245372   1.529   0.363   0.175  0.2180 -1.4072 -1.0493
 7961TIP3   OH245373   3.278   1.695   0.265  0.3261 -0.6074  0.1639
 7961TIP3    H145374   3.246   1.761   0.327 -0.1458 -0.5982 -0.0856
 7961TIP3    H245375   3.371   1.689   0.283  0.8824  1.8174 -1.3344
 7962TIP3   OH245376   3.599   5.443   4.637  0.6100 -0.0884  0.5197
 7962TIP3    H145377   3.554   5.366   4.601  2.8066 -1.9345  1.4609
 7962TIP3    H245378   3.614   5.421   4.729  2.2213  1.0048  0.5517
 7963TIP3   OH245379   3.096   0.100   6.154 -0.4679 -0.0680  0.2049
 7963TIP3    H145380   3.081   0.191   6.178  1.1208  0.7966 -1.8111
 7963TIP3    H245381   3.121   0.057   6.237  0.4864  1.7226  0.9009
 7964TIP3   OH245382   0.008   0.549  16.100 -0.4984 -0.1122 -0.0689
 7964TIP3    H145383   0.066   0.542  16.024 -0.0740 -0.0135  0.2432
 7964TIP3    H245384  -0.080   0.556  16.062 -0.1212  2.9173 -0.7042
 7965TIP3   OH245385   3.555   6.371  13.487  0.0089 -0.3425  0.0539
 7965TIP3    H145386   3.607   6.441  13.447 -0.0765 -1.0773 -1.4210
 7965TIP3    H245387   3.524   6.408  13.569  3.8029 -0.2428  1.6475
 7966TIP3   OH245388   4.995   1.327   0.848 -0.1514  0.4826 -0.2407
 7966TIP3    H145389   4.909   1.347   0.810 -0.6550 -1.7755 -0.4295
 7966TIP3    H245390   4.990   1.234   0.870  2.4436  0.1563 -0.7518
 7967TIP3   OH245391   6.165   2.374  13.577  0.0469 -0.1488  0.0764
 7967TIP3    H145392   6.072   2.350  13.576  0.1578 -0.7131 -2.2032
 7967TIP3    H245393   6.208   2.301  13.622 -0.4347 -0.7702 -0.4503
 7968TIP3   OH245394   3.498   6.111   3.685  0.3738 -0.2268 -0.0741
 7968TIP3    H145395   3.564   6.127   3.617 -0.5793  1.0726 -0.7305
 7968TIP3    H245396   3.439   6.047   3.646 -0.8538  1.3869 -1.0234
 7969TIP3   OH245397   1.168   0.795   1.587  0.1958 -0.2906  0.0549
 7969TIP3    H145398   1.215   0.800   1.671 -2.6180  1.6972  1.7014
 7969TIP3    H245399   1.121   0.711   1.592  0.4205 -0.4060  0.2622
 7970TIP3   OH245400   5.506   5.650  14.641  0.1960  0.3141 -0.0176
 7970TIP3    H145401   5.566   5.724  14.653 -0.7664  0.9379  1.2194
 7970TIP3    H245402   5.423   5.691  14.616 -0.4860 -0.2842  1.1724
 7971TIP3   OH245403   1.172   2.393  16.141  0.4972 -0.5919  0.0861
 7971TIP3    H145404   1.238   2.461  16.141  0.2806 -0.2557 -2.4513
 7971TIP3    H245405   1.213   2.320  16.095 -0.5641 -0.6851 -0.7685
 7972TIP3   OH245406   2.531   0.001   4.327  0.0148 -0.5400  0.0982
 7972TIP3    H145407   2.579  -0.058   4.385  1.0688  0.6265  0.4684
 7972TIP3    H245408   2.449   0.018   4.372  0.7137  0.1510  1.1581
 7973TIP3   OH245409   2.251   4.034  11.545  0.2930 -0.0691 -0.2845
 7973TIP3    H145410   2.159   4.024  11.569 -0.0869  0.9395 -1.2435
 7973TIP3    H245411   2.268   4.128  11.550  0.9074 -0.0997 -1.3629
 7974TIP3   OH245412   2.284   6.120   4.989  0.0429  0.9104 -0.2022
 7974TIP3    H145413   2.302   6.123   4.895  0.4237 -0.3937 -0.1876
 7974TIP3    H245414   2.308   6.208   5.020  0.3905  1.2020 -1.2345
 7975TIP3   OH245415   4.510   5.558  12.995 -0.2302 -0.1421 -0.7389
 7975TIP3    H145416   4.544   5.521  12.914  2.3044 -0.5322  0.4103
 7975TIP3    H245417   4.501   5.652  12.976  0.1974 -0.2453 -1.5141
 7976TIP3   OH245418   2.341   3.916  17.112  0.0617  0.4528  0.2337
 7976TIP3    H145419   2.395   3.883  17.041 -1.1632 -0.3200 -0.3842
 7976TIP3    H245420   2.396   3.910  17.189  0.2841 -2.0934 -0.0279
 7977TIP3   OH245421   5.850   1.912  15.728  0.1203  0.0468  0.0974
 7977TIP3    H145422   5.848   1.939  15.636 -0.5833 -1.0417 -0.2360
 7977TIP3    H245423   5.852   1.993  15.778  0.6124  0.6492 -0.8856
 7978TIP3   OH245424   0.335   5.937  13.441  0.8101  0.6597 -0.5851
 7978TIP3    H145425   0.368   5.876  13.376  0.9290  1.6009 -1.4439
 7978TIP3    H245426   0.314   5.883  13.517  1.2037 -0.3882 -1.2012
 7979TIP3   OH245427   2.492   6.651  16.618  0.4505 -0.4156 -0.3292
 7979TIP3    H145428   2.479   6.613  16.531 -0.4825 -1.5339  0.2666
 7979TIP3    H245429   2.415   6.623  16.669  1.5169 -0.7650  1.1728
 7980TIP3   OH245430   4.035   2.856  10.675 -0.7025  0.6133  0.1420
 7980TIP3    H145431   3.972   2.876  10.744  0.1764 -1.8230  1.7889
 7980TIP3    H245432   4.105   2.920  10.687 -0.8596  0.6167  1.1481
 7981TIP3   OH245433   4.121   5.646  11.359 -0.1186  0.1606  0.2217
 7981TIP3    H145434   4.217   5.641  11.358 -0.1643 -1.0277 -0.7559
 7981TIP3    H245435   4.096   5.591  11.433 -0.0510  0.5071  0.5047
 7982TIP3   OH245436   6.246   4.808   1.966  0.3782  0.1582  0.5661
 7982TIP3    H145437   6.240   4.715   1.985  1.6463  0.5061  3.0327
 7982TIP3    H245438   6.300   4.812   1.886 -1.9332 -1.2372 -1.1973
 7983TIP3   OH245439   0.876   6.263  15.414  0.6586  0.3701  0.0471
 7983TIP3    H145440   0.815   6.277  15.486  1.0585  1.4320  0.2113
 7983TIP3    H245441   0.940   6.335  15.424 -0.0179  1.3397 -2.1322
 7984TIP3   OH245442   5.139   2.752  14.353  0.4069  0.1654 -0.1005
 7984TIP3    H145443   5.146   2.661  14.326 -3.3876 -0.2978 -0.0942
 7984TIP3    H245444   5.157   2.752  14.447  1.1063 -0.4261 -0.2298
 7985TIP3   OH245445   4.505   3.813  10.890 -0.4998  0.2655  0.0956
 7985TIP3    H145446   4.456   3.886  10.851  0.4604  2.7542  3.1622
 7985TIP3    H245447   4.575   3.795  10.827 -1.5918  0.9686 -1.3919
 7986TIP3   OH245448   1.785   0.623  12.273  0.0640 -0.3135  0.2082
 7986TIP3    H145449   1.759   0.686  12.205 -0.7287  0.4070  1.1364
 7986TIP3    H245450   1.851   0.670  12.324 -1.3261  0.2351  1.5757
 7987TIP3   OH245451   6.406   0.620  15.003  0.1792 -0.1155 -0.0076
 7987TIP3    H145452   6.437   0.608  14.914 -0.3760  0.6666 -0.3144
 7987TIP3    H245453   6.463   0.688  15.040  0.1584 -0.1563  0.1005
 7988TIP3   OH245454   0.760   2.542  15.227 -0.2054  0.1137 -0.4742
 7988TIP3    H145455   0.850   2.535  15.258 -1.0321 -0.7630  1.9786
 7988TIP3    H245456   0.763   2.514  15.136  1.6410 -2.4791  0.2887
 7989TIP3   OH245457   0.029   2.063   5.644  0.1585 -0.8444 -0.3588
 7989TIP3    H145458   0.021   1.997   5.574  0.1076 -0.4529 -0.7246
 7989TIP3    H245459  -0.025   2.136   5.614 -0.2910 -0.8778  0.3430
 7990TIP3   OH245460   0.882   6.708   0.834 -0.5100 -0.5424 -0.0188
 7990TIP3    H145461   0.790   6.699   0.808 -0.9471  0.6067  1.0071
 7990TIP3    H245462   0.895   6.803   0.844  1.3196 -0.5080 -1.8974
 7991TIP3   OH245463   3.321   0.714   3.157 -0.9232  0.0870  0.2109
 7991TIP3    H145464   3.269   0.791   3.179  0.4478  1.2141 -0.3071
 7991TIP3    H245465   3.306   0.701   3.063  0.0605  0.7174 -0.0508
 7992TIP3   OH245466   3.319   3.906  14.767 -0.0931 -0.2137 -0.3167
 7992TIP3    H145467   3.230   3.871  14.762 -0.1923  0.1124 -1.0502
 7992TIP3    H245468   3.362   3.871  14.689 -0.1020  1.0339 -0.9013
 7993TIP3   OH245469   1.070   5.213   4.993  0.0303 -0.2202 -0.3469
 7993TIP3    H145470   1.028   5.175   4.916  0.9011  1.8737 -1.9300
 7993TIP3    H245471   1.157   5.238   4.963 -0.0894  1.9410  0.9012
 7994TIP3   OH245472   5.632   3.827  14.937 -0.0268  0.1384 -0.0577
 7994TIP3    H145473   5.554   3.786  14.974 -0.9767  2.2397  0.4130
 7994TIP3    H245474   5.697   3.823  15.007  0.2418 -1.3162 -0.3385
 7995TIP3   OH245475   0.693   0.424  11.826 -0.5307  0.0354 -0.3290
 7995TIP3    H145476   0.749   0.424  11.903 -1.3937 -0.7267  0.3165
 7995TIP3    H245477   0.696   0.334  11.794 -1.4423 -0.0305 -0.2415
 7996TIP3   OH245478   3.485   0.578  15.261 -0.2771  0.0715 -0.0443
 7996TIP3    H145479   3.511   0.522  15.334  2.2050  0.5504 -0.4813
 7996TIP3    H245480   3.426   0.643  15.300 -1.8719 -1.7903  0.7815
 7997TIP3   OH245481   1.930   2.257  12.994  0.0385 -0.2750 -0.0171
 7997TIP3    H145482   1.886   2.209  13.065 -1.0827  2.9081  1.6415
 7997TIP3    H245483   1.861   2.276  12.931  0.6142 -1.2858 -1.0005
 7998TIP3   OH245484   3.524   0.727   0.335 -0.9955 -0.5206 -0.5954
 7998TIP3    H145485   3.499   0.785   0.263 -0.4317  1.1727  0.5170
 7998TIP3    H245486   3.604   0.685   0.305 -1.9789 -1.5973 -1.8467
 7999TIP3   OH245487   5.703   0.367   5.209  0.2281  0.2506  0.0127
 7999TIP3    H145488   5.681   0.283   5.248  0.3516  0.4885  0.6074
 7999TIP3    H245489   5.683   0.357   5.116 -0.7389 -0.1032  0.2496
 8000TIP3   OH245490   4.209   3.216   5.671  0.3309 -0.9860 -0.5294
 8000TIP3    H145491   4.155   3.155   5.721  1.8984  1.0799  4.2719
 8000TIP3    H245492   4.276   3.161   5.630  0.2348 -2.7431  1.5191
 8001TIP3   OH245493   3.077   2.714   3.072 -0.3280  0.0754 -0.1752
 8001TIP3    H145494   3.119   2.686   2.990  0.9059  0.2674  0.3637
 8001TIP3    H245495   3.105   2.805   3.082 -0.7949  0.1700  0.2643
 8002TIP3   OH245496   2.524   3.347   4.920  0.0759 -0.1468  0.0534
 8002TIP3    H145497   2.551   3.284   4.986  0.0824 -0.4856 -0.2669
 8002TIP3    H245498   2.429   3.341   4.918 -0.0198  0.7884  0.9290
 8003TIP3   OH245499   3.774   1.087  14.533  0.2970 -0.0785 -0.2089
 8003TIP3    H145500   3.830   1.010  14.532  0.7218  0.2318 -0.9550
 8003TIP3    H245501   3.776   1.120  14.444  1.2373  1.5850  0.3810
 8004TIP3   OH245502   3.611   1.537  13.846 -0.1613 -0.8304  0.1005
 8004TIP3    H145503   3.697   1.503  13.869 -1.4971 -2.1227  3.9930
 8004TIP3    H245504   3.611   1.627  13.880  0.1618 -0.1295 -1.6061
 8005TIP3   OH245505   0.406   3.227  12.205  0.5338  0.2339 -0.2160
 8005TIP3    H145506   0.477   3.277  12.245  0.3360  0.9674 -0.7680
 8005TIP3    H245507   0.355   3.292  12.155 -0.6843 -0.2278  0.3876
 8006TIP3   OH245508   0.778   2.682  12.599  0.1074 -0.5488  0.0684
 8006TIP3    H145509   0.784   2.595  12.559  0.1765 -0.5159  0.0043
 8006TIP3    H245510   0.777   2.666  12.693  0.3376 -0.6076  0.0616
 8007TIP3   OH245511   3.799   6.686  13.548 -0.2455  0.0893 -0.1831
 8007TIP3    H145512   3.837   6.663  13.633  0.4589  0.9143 -0.2534
 8007TIP3    H245513   3.829   6.617  13.489 -2.6216 -1.7858  0.6526
 8008TIP3   OH245514   1.438   3.230   3.262  0.8195  0.1492  0.3241
 8008TIP3    H145515   1.410   3.139   3.268 -0.9074  0.7144  1.7194
 8008TIP3    H245516   1.456   3.256   3.352  1.4427  1.1687 -0.0703
 8009TIP3   OH245517   0.574   6.591  14.220  0.5841 -0.5316 -0.8363
 8009TIP3    H145518   0.603   6.534  14.291  1.2584  0.9046  0.0765
 8009TIP3    H245519   0.526   6.661  14.263 -3.7493 -2.3030 -2.1722
 8010TIP3   OH245520   1.186   1.098  14.143 -0.2208  0.4555  0.1766
 8010TIP3    H145521   1.155   1.134  14.226 -0.8249 -0.3548  0.3128
 8010TIP3    H245522   1.221   1.174  14.096  0.8135  0.8200  1.4611
 8011TIP3   OH245523   0.418   3.243  10.345 -0.1399 -0.6607 -0.0656
 8011TIP3    H145524   0.435   3.149  10.353  2.3250 -0.2302  0.4828
 8011TIP3    H245525   0.355   3.262  10.414 -0.1332 -1.7781  0.2735
 8012TIP3   OH245526   1.445   3.694  15.230 -0.4248  0.0636 -0.6192
 8012TIP3    H145527   1.398   3.614  15.253  1.5683 -1.2792 -0.9870
 8012TIP3    H245528   1.443   3.746  15.310 -0.0243 -1.2722  0.3030
 8013TIP3   OH245529   2.401   3.100   4.179  0.0884  0.1938  0.0713
 8013TIP3    H145530   2.468   3.150   4.132  0.0036 -0.5592 -0.8682
 8013TIP3    H245531   2.450   3.032   4.226 -0.0119 -0.5112 -0.8114
 8014TIP3   OH245532   4.751   6.599   0.529 -0.4729  0.2123 -0.2224
 8014TIP3    H145533   4.730   6.547   0.607  0.1388  0.3550  0.0373
 8014TIP3    H245534   4.814   6.663   0.559 -2.3494  2.1448 -0.1654
 8015TIP3   OH245535   2.735   6.063   5.316 -0.0193  0.1945 -0.3091
 8015TIP3    H145536   2.663   6.079   5.377  1.1289 -1.8257  1.7142
 8015TIP3    H245537   2.777   6.148   5.305 -1.6531  1.0571 -0.1817
 8016TIP3   OH245538   3.933   0.987   1.514 -0.6044  0.1766  0.9007
 8016TIP3    H145539   4.003   0.986   1.579  1.2223 -0.4273 -0.9706
 8016TIP3    H245540   3.889   1.071   1.527  1.9766  1.6697  0.6472
 8017TIP3   OH245541   1.142   5.141  11.181 -0.5516  0.1824  0.1700
 8017TIP3    H145542   1.082   5.069  11.157  1.1229 -1.1616 -0.1615
 8017TIP3    H245543   1.218   5.097  11.218 -0.2095  1.9203  1.6379
 8018TIP3   OH245544   6.027   0.377  13.480  0.1451  0.1391  0.2839
 8018TIP3    H145545   6.089   0.430  13.430 -1.4738 -0.3727 -2.4858
 8018TIP3    H245546   6.073   0.295  13.497  0.2929 -0.2412 -1.7561
 8019TIP3   OH245547   0.338   1.192  10.517 -0.1723 -0.0000  0.4852
 8019TIP3    H145548   0.271   1.225  10.457 -1.0345  0.3789  1.6199
 8019TIP3    H245549   0.391   1.269  10.539  1.4635 -0.5072 -1.3482
 8020TIP3   OH245550   5.424   2.122   0.739  0.2113  0.7666  0.0591
 8020TIP3    H145551   5.341   2.144   0.699  1.2622  1.2972 -1.9810
 8020TIP3    H245552   5.477   2.201   0.730  1.1799  0.2112  0.6427
 8021TIP3   OH245553   5.797   0.077   1.736  0.2851  0.0149  0.2023
 8021TIP3    H145554   5.712   0.036   1.723  1.6782 -3.2491  0.3730
 8021TIP3    H245555   5.805   0.086   1.831  0.1848  0.1976  0.1935
 8022TIP3   OH245556   5.698   0.616   6.478  0.1451  0.5176  0.5476
 8022TIP3    H145557   5.741   0.537   6.445 -1.6816 -0.2145 -0.2152
 8022TIP3    H245558   5.648   0.587   6.554  0.0753  1.0955  0.7284
 8023TIP3   OH245559   5.396   1.679   3.258 -0.2976  0.0040 -0.1466
 8023TIP3    H145560   5.409   1.767   3.223 -3.2279  0.4018 -0.4793
 8023TIP3    H245561   5.475   1.632   3.234 -0.3965  1.3746 -3.7457
 8024TIP3   OH245562   1.886   4.580   5.818  0.1573  0.2808  0.6836
 8024TIP3    H145563   1.851   4.571   5.730  0.8969  0.5101  0.3544
 8024TIP3    H245564   1.831   4.524   5.872 -0.2714  0.0994  0.0685
 8025TIP3   OH245565   5.907   1.742   0.322 -0.0505 -0.3188 -0.3482
 8025TIP3    H145566   5.818   1.730   0.356  0.2292 -0.3553  0.3878
 8025TIP3    H245567   5.947   1.655   0.330 -0.1451 -0.4558 -1.2765
 8026TIP3   OH245568   4.312   0.079   3.955  0.9116 -0.5925  0.3571
 8026TIP3    H145569   4.369   0.059   3.880 -1.0163 -0.3797 -1.2684
 8026TIP3    H245570   4.233   0.117   3.915  0.9636  2.3731  2.7048
 8027TIP3   OH245571   6.514   5.432   4.779  0.2144  0.2215 -0.1027
 8027TIP3    H145572   6.610   5.431   4.768 -0.0191 -1.9337 -3.3035
 8027TIP3    H245573   6.491   5.340   4.793 -1.4499  0.6543  0.1564
 8028TIP3   OH245574   6.021   2.154   4.432  0.0321  0.1703  0.2255
 8028TIP3    H145575   5.982   2.095   4.496 -0.7660 -0.4876 -0.8327
 8028TIP3    H245576   6.026   2.102   4.352 -0.0220  1.3269 -0.5450
 8029TIP3   OH245577   0.389   6.375  14.497 -0.1505 -0.0442 -0.0282
 8029TIP3    H145578   0.339   6.456  14.485  0.1512  0.5850  2.4457
 8029TIP3    H245579   0.474   6.405  14.530  0.6550 -1.2964 -0.9026
 8030TIP3   OH245580   6.665   2.418  14.621 -0.1519  0.0336  0.1478
 8030TIP3    H145581   6.759   2.435  14.629 -0.1710  1.0096 -1.3129
 8030TIP3    H245582   6.624   2.483  14.679  0.0117  1.1234 -0.9155
 8031TIP3   OH245583   6.288   0.760  12.054  0.0829  0.0474  0.4011
 8031TIP3    H145584   6.207   0.793  12.093  0.9486  3.7029 -0.5008
 8031TIP3    H245585   6.259   0.714  11.975 -1.2082 -0.5771  1.2057
 8032TIP3   OH245586   1.770   0.208   3.599 -0.2917 -0.2181 -0.5960
 8032TIP3    H145587   1.783   0.291   3.553 -1.3018 -0.2278 -0.9137
 8032TIP3    H245588   1.846   0.201   3.657  1.0046 -0.1620 -2.1815
 8033TIP3   OH245589   5.324   3.019   1.552 -0.4261 -0.1545 -0.4263
 8033TIP3    H145590   5.293   2.961   1.621  0.2457  1.0586  0.9371
 8033TIP3    H245591   5.419   3.014   1.558 -0.3605  0.7738 -0.5470
 8034TIP3   OH245592   6.370   4.945   3.265 -0.5216  0.5138 -0.5007
 8034TIP3    H145593   6.335   4.990   3.189 -1.6769  0.0909 -0.2382
 8034TIP3    H245594   6.455   4.986   3.281 -0.4521  0.8779 -1.7583
 8035TIP3   OH245595   6.731   0.041   4.964  0.7965  0.5527 -0.1339
 8035TIP3    H145596   6.730   0.003   4.876 -0.9197 -0.8792  0.4662
 8035TIP3    H245597   6.697   0.130   4.951 -0.7434 -0.0912 -0.7595
 8036TIP3   OH245598   4.693   3.857   5.300 -0.0186 -0.4685  0.3404
 8036TIP3    H145599   4.741   3.938   5.318  0.2077 -0.7722  1.1320
 8036TIP3    H245600   4.686   3.855   5.204  1.2872 -0.2516  0.2155
 8037TIP3   OH245601   1.989   2.839   4.449  0.1904 -0.7845 -0.3579
 8037TIP3    H145602   2.020   2.750   4.468 -2.8140 -1.6227  1.1781
 8037TIP3    H245603   1.998   2.886   4.532  0.0688 -0.1886 -0.6759
 8038TIP3   OH245604   3.000   5.112  13.471  0.1080  0.0225  0.3109
 8038TIP3    H145605   2.923   5.079  13.423 -0.4228  1.6409 -0.0086
 8038TIP3    H245606   2.963   5.149  13.551  0.6098  0.3651  0.3840
 8039TIP3   OH245607   0.305   3.980   0.762  0.2055  0.3353 -0.7314
 8039TIP3    H145608   0.370   4.050   0.761  0.9054 -0.2938 -0.2026
 8039TIP3    H245609   0.312   3.939   0.676 -0.2527  0.9498 -1.0660
 8040TIP3   OH245610   1.172   0.774   2.024 -0.0654  0.2420 -0.2708
 8040TIP3    H145611   1.112   0.778   1.949 -0.8227 -1.6867  0.1730
 8040TIP3    H245612   1.115   0.766   2.100  0.7392  0.1994  0.3413
 8041TIP3   OH245613   2.325   3.716   4.029  0.5147  0.4485  1.0069
 8041TIP3    H145614   2.363   3.630   4.048  1.7559  1.4014  3.2271
 8041TIP3    H245615   2.239   3.714   4.071 -0.4136 -0.3961 -0.8066
 8042TIP3   OH245616   5.511   0.848  14.835 -0.6742 -0.3235 -0.0343
 8042TIP3    H145617   5.540   0.919  14.892 -2.2450 -0.2212  0.6973
 8042TIP3    H245618   5.550   0.769  14.872 -0.2378 -0.0398  0.1126
 8043TIP3   OH245619   6.118   0.830  16.030  0.0507 -0.5603 -0.4523
 8043TIP3    H145620   6.167   0.758  15.991  0.1215  0.2282 -1.9053
 8043TIP3    H245621   6.136   0.824  16.124 -0.7341 -3.0045 -0.3860
 8044TIP3   OH245622   1.292   4.043  12.895  0.1991  0.1310 -0.1762
 8044TIP3    H145623   1.355   4.111  12.923 -0.0253  0.4682 -0.4818
 8044TIP3    H245624   1.342   3.988  12.834  0.5679 -0.3607  0.5521
 8045TIP3   OH245625   4.767   5.052   4.192  0.2785 -0.2094 -0.2946
 8045TIP3    H145626   4.759   4.964   4.227 -1.3537 -0.3105 -0.8555
 8045TIP3    H245627   4.770   5.109   4.269 -0.6714 -0.6221  0.0617
 8046TIP3   OH245628   6.319   5.506  11.185 -0.1835  0.3580  0.0667
 8046TIP3    H145629   6.246   5.444  11.176 -1.7751  1.9049  1.5672
 8046TIP3    H245630   6.389   5.469  11.130 -1.2031 -2.4912  0.5239
 8047TIP3   OH245631   2.240   3.654  11.234 -0.4296 -0.0973  0.2731
 8047TIP3    H145632   2.153   3.663  11.195  0.2065  0.4162 -1.0861
 8047TIP3    H245633   2.270   3.743  11.250 -0.1247 -0.2681  0.6980
 8048TIP3   OH245634   3.453   5.421  17.112  0.5349 -0.0096  0.6608
 8048TIP3    H145635   3.407   5.486  17.166 -1.9899 -1.9264  1.0135
 8048TIP3    H245636   3.430   5.445  17.022  0.6049  0.2855  0.7204
 8049TIP3   OH245637   6.376   0.805   4.790  0.0565  0.3471 -0.3882
 8049TIP3    H145638   6.330   0.723   4.774 -1.8403  1.5054 -1.1481
 8049TIP3    H245639   6.354   0.860   4.715 -1.9109  2.8863  1.8483
 8050TIP3   OH245640   0.714   1.515  13.775 -0.2403  0.5635 -0.3481
 8050TIP3    H145641   0.677   1.433  13.805 -2.3396  1.2764 -0.8181
 8050TIP3    H245642   0.766   1.492  13.698 -0.4740 -0.3567 -0.2327
 8051TIP3   OH245643   6.478   3.351   1.101  0.4867 -0.0061 -0.5633
 8051TIP3    H145644   6.435   3.283   1.049 -1.1877 -0.1537  0.8883
 8051TIP3    H245645   6.511   3.305   1.178 -0.9453  0.7969  0.5979
 8052TIP3   OH245646   0.946   4.952  16.339 -0.3325  0.1835 -0.5082
 8052TIP3    H145647   0.907   5.022  16.391 -1.3598  0.5876 -1.7635
 8052TIP3    H245648   1.025   4.991  16.301 -0.1038  0.1895 -0.0323
 8053TIP3   OH245649   2.767   4.052   4.938  0.2375  0.0699 -0.0162
 8053TIP3    H145650   2.817   4.132   4.959 -1.1360  1.2918 -1.2101
 8053TIP3    H245651   2.678   4.083   4.921 -0.1150 -1.5886 -1.4779
 8054TIP3   OH245652   5.864   3.582   1.036  0.5626 -0.4087  0.4294
 8054TIP3    H145653   5.773   3.583   1.007  1.0273 -0.7894 -1.1452
 8054TIP3    H245654   5.869   3.649   1.104 -1.1219 -1.1345  1.3231
 8055TIP3   OH245655   6.037   2.800  16.019 -0.4368  0.1726  0.2206
 8055TIP3    H145656   6.095   2.876  16.026  0.5954 -0.6656  1.0341
 8055TIP3    H245657   6.036   2.778  15.926 -0.8825  1.2692 -0.0463
 8056TIP3   OH245658   3.777   1.245   0.294  0.6177 -0.1999 -0.0817
 8056TIP3    H145659   3.746   1.331   0.265 -0.4201  0.2291  2.0937
 8056TIP3    H245660   3.868   1.241   0.264  0.2532  1.0373 -1.4610
 8057TIP3   OH245661   2.070   3.345  16.415  0.1131 -0.6819  0.0945
 8057TIP3    H145662   2.118   3.320  16.336  1.8890 -0.5208  1.0707
 8057TIP3    H245663   2.083   3.440  16.421  2.1193 -0.9947  1.8459
 8058TIP3   OH245664   2.600   5.571   4.014 -0.2063  0.4161  0.3953
 8058TIP3    H145665   2.647   5.631   4.072 -1.5423  0.7007  1.2234
 8058TIP3    H245666   2.507   5.585   4.034 -0.5589 -2.4154  1.1344
 8059TIP3   OH245667   0.159   2.401   2.825  0.5368 -0.5400 -0.3814
 8059TIP3    H145668   0.208   2.436   2.899  0.4399 -0.4787 -0.3462
 8059TIP3    H245669   0.114   2.323   2.860 -2.1699  1.2760  0.5498
 8060TIP3   OH245670   3.884   4.185   0.136  0.3544 -0.5174  0.5559
 8060TIP3    H145671   3.909   4.277   0.144  0.7970 -0.1763 -3.0586
 8060TIP3    H245672   3.949   4.148   0.077 -2.1901 -2.0440 -1.4872
 8061TIP3   OH245673   0.094   5.682  14.411 -0.2739 -0.2509  0.0259
 8061TIP3    H145674   0.113   5.593  14.441  0.3161 -0.0475  0.2641
 8061TIP3    H245675   0.135   5.688  14.325  0.5494  0.1028  0.4289
 8062TIP3   OH245676   3.834   6.500  16.441  0.4854 -0.7002  0.2321
 8062TIP3    H145677   3.787   6.560  16.382  2.1630  0.0052 -0.4416
 8062TIP3    H245678   3.880   6.440  16.382  2.2746  0.0750  0.7582
 8063TIP3   OH245679   0.615   3.377   6.260  0.3067 -0.0627  0.1922
 8063TIP3    H145680   0.532   3.341   6.226 -0.8288  0.6478  2.0501
 8063TIP3    H245681   0.592   3.413   6.346  3.1438 -2.4800  2.1652
 8064TIP3   OH245682   0.239   0.030   3.947 -0.1099  0.0425 -0.5438
 8064TIP3    H145683   0.166   0.020   4.008 -0.0777 -1.2085 -0.6846
 8064TIP3    H245684   0.198   0.063   3.866 -1.0388 -3.0663 -1.5071
 8065TIP3   OH245685   3.713   1.313  17.072 -0.9995  0.2296  1.2638
 8065TIP3    H145686   3.670   1.398  17.081 -0.5055  0.5594  0.5726
 8065TIP3    H245687   3.684   1.280  16.987  1.8268  1.4877 -0.3073
 8066TIP3   OH245688   2.921   5.325   3.486 -0.2325 -0.5792 -0.1508
 8066TIP3    H145689   2.838   5.354   3.522 -1.3981 -1.9520 -1.6041
 8066TIP3    H245690   2.898   5.254   3.426  1.9802 -0.9560 -0.6351
 8067TIP3   OH245691   3.767   1.137  15.938  0.0745  0.4648  0.0912
 8067TIP3    H145692   3.679   1.116  15.908  0.2740 -2.7597  1.4198
 8067TIP3    H245693   3.822   1.068  15.902  1.6746  1.1365  1.1290
 8068TIP3   OH245694   5.095   0.901  12.587  0.5757 -0.1705 -0.5569
 8068TIP3    H145695   5.026   0.883  12.651 -0.7215  0.5830 -1.6835
 8068TIP3    H245696   5.158   0.955  12.633 -0.5073  0.6420  0.0021
 8069TIP3   OH245697   6.668   6.216   4.132  0.5342  0.2053  0.2493
 8069TIP3    H145698   6.575   6.200   4.148  0.7076 -0.5756  0.5424
 8069TIP3    H245699   6.672   6.306   4.100 -0.0499  1.2019  2.7644
 8070TIP3   OH245700   4.729   6.026  12.264 -0.0551  0.9728  0.1458
 8070TIP3    H145701   4.793   5.955  12.271 -2.0024 -1.0255 -0.9979
 8070TIP3    H245702   4.661   6.004  12.327 -1.9815  0.2602 -2.0332
 8071TIP3   OH245703   0.873   4.906  16.782  0.1467 -0.0771 -0.0242
 8071TIP3    H145704   0.901   4.866  16.864  1.7810  0.5903 -0.2084
 8071TIP3    H245705   0.886   5.000  16.795  1.5502 -0.0263 -1.3891
 8072TIP3   OH245706   2.234   1.707  15.478 -0.0688 -0.2619 -0.4870
 8072TIP3    H145707   2.319   1.717  15.436 -0.4454  4.4080 -0.7022
 8072TIP3    H245708   2.171   1.717  15.406 -0.7829 -0.6583  0.0775
 8073TIP3   OH245709   5.091   4.835   0.954  0.2332 -0.2851 -0.2640
 8073TIP3    H145710   5.108   4.757   1.006  1.6872  0.9436  1.2550
 8073TIP3    H245711   5.145   4.903   0.995 -0.6166  1.4127 -1.7935
 8074TIP3   OH245712   0.101   4.100   0.207  0.2385 -0.4319  0.3304
 8074TIP3    H145713   0.161   4.130   0.275 -0.4876 -0.3379  0.9478
 8074TIP3    H245714   0.050   4.031   0.249 -0.6330  0.0423  0.0742
 8075TIP3   OH245715   1.959   5.958   2.385 -0.2350  0.2654  0.1146
 8075TIP3    H145716   1.923   6.000   2.307 -0.0208  1.5325  0.6834
 8075TIP3    H245717   2.020   6.022   2.421  0.4358 -0.7055  0.7730
 8076TIP3   OH245718   3.106   6.562  14.311 -0.5009 -0.0207  0.3410
 8076TIP3    H145719   3.136   6.645  14.349 -0.7161  0.6110 -0.8383
 8076TIP3    H245720   3.136   6.564  14.221  1.6002 -2.3083  0.8702
 8077TIP3   OH245721   5.859   5.077  13.373  0.1879  0.4210 -0.5105
 8077TIP3    H145722   5.775   5.061  13.330  0.2320  0.5232 -0.6326
 8077TIP3    H245723   5.920   5.097  13.302  0.5425 -0.6183 -0.5150
 8078TIP3   OH245724   3.451   6.732  13.537 -0.0243 -0.3376 -0.4306
 8078TIP3    H145725   3.464   6.754  13.629  0.3329  0.6351 -0.6942
 8078TIP3    H245726   3.470   6.639  13.531  0.9370 -0.2035  0.3027
 8079TIP3   OH245727   3.002   6.292  14.339  0.0098  0.0362 -0.3647
 8079TIP3    H145728   3.042   6.379  14.345  1.8704 -0.7874 -0.1858
 8079TIP3    H245729   2.995   6.276  14.245  0.2663  0.1093 -0.3971
 8080TIP3   OH245730   1.840   3.230  14.360 -0.1194 -0.6783  0.0903
 8080TIP3    H145731   1.822   3.266  14.447 -0.0335 -2.3950  0.8608
 8080TIP3    H245732   1.924   3.269  14.335 -0.8188  0.9317  0.1139
 8081TIP3   OH245733   2.518   4.608   2.205 -0.6976 -0.5943  0.3021
 8081TIP3    H145734   2.545   4.674   2.268  0.5919 -0.4248 -0.4108
 8081TIP3    H245735   2.521   4.525   2.254  3.3797 -0.9600 -0.2117
 8082TIP3   OH245736   1.057   2.392  10.769  0.1306 -0.2738 -0.1583
 8082TIP3    H145737   1.115   2.403  10.845  0.8658  0.0920 -0.7591
 8082TIP3    H245738   1.109   2.421  10.694 -1.2952  1.4078 -0.5727
 8083TIP3   OH245739   5.132   0.262   3.684 -0.3492 -0.0813  0.3150
 8083TIP3    H145740   5.085   0.179   3.693 -0.4347 -0.0845 -0.1304
 8083TIP3    H245741   5.063   0.328   3.680 -0.2922 -0.0232  0.2953
 8084TIP3   OH245742   2.283   1.127  11.680  0.2673 -0.3255 -0.3103
 8084TIP3    H145743   2.274   1.145  11.773 -0.4043 -0.4719 -0.3435
 8084TIP3    H245744   2.264   1.211  11.638  1.2262 -0.0890 -0.2958
 8085TIP3   OH245745   2.888   4.482  14.925  0.3920 -0.0520  0.3548
 8085TIP3    H145746   2.881   4.577  14.934 -0.4268 -0.2244  1.8231
 8085TIP3    H245747   2.962   4.458  14.980 -0.6440 -0.4512  1.6224
 8086TIP3   OH245748   0.892   2.460   3.683  0.1602 -0.5120 -0.1266
 8086TIP3    H145749   0.938   2.390   3.729 -2.4360 -3.0639 -1.0768
 8086TIP3    H245750   0.900   2.437   3.591  0.8954  1.6302 -0.6515
 8087TIP3   OH245751   2.598   3.297  11.640 -0.0774  0.1666 -0.0297
 8087TIP3    H145752   2.546   3.233  11.689  0.6877 -0.6801 -0.2964
 8087TIP3    H245753   2.605   3.373  11.698  0.7111 -0.7670  1.1421
 8088TIP3   OH245754   3.190   1.693  16.748  0.1776  0.0519  0.7752
 8088TIP3    H145755   3.270   1.730  16.710 -0.0507  0.2131  0.4433
 8088TIP3    H245756   3.193   1.718  16.840  0.4689  0.1259  0.7459
 8089TIP3   OH245757   2.841   5.938   0.293 -0.2253  0.2092 -0.0907
 8089TIP3    H145758   2.766   5.881   0.310 -0.3113  0.6435  1.0766
 8089TIP3    H245759   2.859   5.980   0.377  1.6268 -0.2364 -0.2161
 8090TIP3   OH245760   3.197   0.741  16.307 -0.5108 -0.0784 -0.8637
 8090TIP3    H145761   3.145   0.817  16.333 -0.1721  0.6784 -2.2778
 8090TIP3    H245762   3.288   0.769  16.319 -0.3882 -0.3861 -1.0709
 8091TIP3   OH245763   0.435   5.224   4.005 -0.4107 -0.3100 -0.0018
 8091TIP3    H145764   0.425   5.301   4.061 -0.7345  0.8678 -1.6147
 8091TIP3    H245765   0.348   5.183   4.005 -0.8593  0.5865 -0.8553
 8092TIP3   OH245766   5.943   2.573   0.530  0.5201  0.2714 -0.2605
 8092TIP3    H145767   6.003   2.500   0.542 -1.6046 -1.4170  0.8636
 8092TIP3    H245768   5.919   2.568   0.437  0.0403 -0.7967 -0.0969
 8093TIP3   OH245769   3.039   1.767  12.439  0.5930 -0.2960  0.7350
 8093TIP3    H145770   3.101   1.700  12.468  0.4965 -0.5336  0.3961
 8093TIP3    H245771   3.068   1.847  12.484  1.1016 -0.4212  0.6422
 8094TIP3   OH245772   0.519   5.337  10.412 -0.3328  0.2994  0.3313
 8094TIP3    H145773   0.612   5.355  10.426 -0.0407 -0.9203  0.1019
 8094TIP3    H245774   0.475   5.371  10.491  0.3931  0.2411  0.7654
 8095TIP3   OH245775   0.257   1.208  11.301  0.4027 -0.2062 -0.1180
 8095TIP3    H145776   0.350   1.185  11.290  0.9005  1.4007  0.4381
 8095TIP3    H245777   0.210   1.132  11.268  1.8785 -0.3153 -2.2015
 8096TIP3   OH245778   5.399   3.988   2.029  0.2855 -0.2381 -0.1007
 8096TIP3    H145779   5.321   4.025   2.070 -0.9156 -0.8402 -1.7215
 8096TIP3    H245780   5.422   4.051   1.961  1.4851  0.1204  0.6033
 8097TIP3   OH245781   3.047   2.556   4.069  0.5476 -0.6840  0.0449
 8097TIP3    H145782   3.071   2.626   4.130 -1.0764 -0.7079  0.7550
 8097TIP3    H245783   3.083   2.585   3.985  1.3761  0.1592  0.6693
 8098TIP3   OH245784   6.732   1.689  12.571  0.7650 -0.2538 -0.0293
 8098TIP3    H145785   6.803   1.738  12.530  0.3939 -0.8141 -1.4017
 8098TIP3    H245786   6.716   1.616  12.512  0.0165 -0.9550  1.0014
 8099TIP3   OH245787   0.313   4.161   4.593 -0.4963 -0.0844 -0.2636
 8099TIP3    H145788   0.315   4.237   4.650 -1.5364 -1.3039  1.4742
 8099TIP3    H245789   0.402   4.125   4.598  0.4559  1.7644 -2.2782
 8100TIP3   OH245790   4.837   5.722  16.102 -0.6806  0.3177 -0.3825
 8100TIP3    H145791   4.878   5.651  16.053  0.1184  0.2749  0.3312
 8100TIP3    H245792   4.782   5.767  16.037 -1.6661 -1.2929 -0.7222
 8101TIP3   OH245793   6.644   3.612  12.384 -0.4363 -0.0671  0.0661
 8101TIP3    H145794   6.555   3.577  12.382  0.7006 -3.3014 -0.0608
 8101TIP3    H245795   6.667   3.613  12.477 -0.2866 -0.1339  0.0294
 8102TIP3   OH245796   0.044   5.551  15.554 -0.1607 -0.0739  0.1949
 8102TIP3    H145797  -0.049   5.534  15.570  0.2833 -2.7178  0.4624
 8102TIP3    H245798   0.062   5.508  15.469  0.7894  0.4880  0.0966
 8103TIP3   OH245799   4.919   4.513   1.705 -0.1096  0.1927  0.0852
 8103TIP3    H145800   4.873   4.465   1.636 -1.4071  2.1795 -0.5219
 8103TIP3    H245801   4.873   4.491   1.786  0.3332 -0.8148  0.0718
 8104TIP3   OH245802   0.707   2.367  14.205 -0.4071 -0.2874  0.1002
 8104TIP3    H145803   0.649   2.303  14.165 -1.1936  1.2830 -1.3913
 8104TIP3    H245804   0.763   2.316  14.264 -2.2115 -2.0584  0.3601
 8105TIP3   OH245805   2.457   2.367  10.509  0.1111  0.5174 -0.0897
 8105TIP3    H145806   2.409   2.446  10.532  2.4402  1.6835  1.1276
 8105TIP3    H245807   2.546   2.398  10.489  1.1018 -1.7597  0.4296
 8106TIP3   OH245808   4.011   1.938  13.000 -0.3837  0.0501  0.2899
 8106TIP3    H145809   4.069   1.925  13.074 -0.9401  0.5606  0.8286
 8106TIP3    H245810   4.069   1.954  12.926  0.2418 -2.4103  0.1738
 8107TIP3   OH245811   5.151   3.697   0.019  0.0891 -0.3712  0.1622
 8107TIP3    H145812   5.145   3.641   0.096  0.0498 -0.4856  0.0753
 8107TIP3    H245813   5.150   3.637  -0.056 -0.4382 -0.2280  0.0482
 8108TIP3   OH245814   5.229   1.977   3.570  0.0637 -0.4027 -0.0537
 8108TIP3    H145815   5.258   2.048   3.627  0.5010 -0.3545 -0.3303
 8108TIP3    H245816   5.185   1.915   3.628 -0.8542  0.3698  0.1048
 8109TIP3   OH245817   4.508   1.898  11.741  0.0595  0.1150  0.0642
 8109TIP3    H145818   4.510   1.985  11.700 -0.6637 -0.7086 -1.8398
 8109TIP3    H245819   4.595   1.862  11.725 -0.6827 -0.8108 -2.2780
 8110TIP3   OH245820   0.959   2.997  14.998  0.4423 -0.6235 -0.2252
 8110TIP3    H145821   0.997   3.081  15.024 -0.0057 -0.9259  1.5297
 8110TIP3    H245822   0.868   3.001  15.029  0.0050 -1.2155 -1.3876
 8111TIP3   OH245823   2.851   4.440  11.657 -0.0687 -0.7721  0.6682
 8111TIP3    H145824   2.905   4.518  11.669  1.3491 -1.6110  0.1400
 8111TIP3    H245825   2.832   4.439  11.563 -1.7557 -0.0343  0.9860
 8112TIP3   OH245826   3.490   5.944  13.310  0.1911  0.2892  0.2551
 8112TIP3    H145827   3.507   6.009  13.242 -0.8832 -1.7807 -2.1551
 8112TIP3    H245828   3.462   5.995  13.386  1.6640  2.7240 -0.7254
 8113TIP3   OH245829   3.222   4.831  14.784 -0.2415  0.0326  0.0532
 8113TIP3    H145830   3.256   4.899  14.727  0.5197  0.3466  0.8575
 8113TIP3    H245831   3.222   4.870  14.871  1.6394 -1.4492  0.7980
 8114TIP3   OH245832   4.292   2.235   5.275  0.3355 -0.0633 -0.6342
 8114TIP3    H145833   4.352   2.282   5.333 -1.7602  2.1271 -0.0961
 8114TIP3    H245834   4.290   2.285   5.194 -1.7570  0.7747 -0.1394
 8115TIP3   OH245835   6.829   3.134  11.879 -0.6264 -0.1787  0.3290
 8115TIP3    H145836   6.748   3.101  11.841 -0.8735 -0.2268  0.8858
 8115TIP3    H245837   6.846   3.077  11.953 -0.7431  0.5666  0.9514
 8116TIP3   OH245838   2.964   4.193  11.715 -0.0107 -0.0899 -0.0921
 8116TIP3    H145839   2.928   4.274  11.678 -0.1470 -0.1067  0.0052
 8116TIP3    H245840   2.909   4.123  11.680 -0.5322 -0.0556  0.6333
 8117TIP3   OH245841   0.088   5.984  14.263  0.1422 -0.1062  0.0933
 8117TIP3    H145842   0.162   6.025  14.219  0.2948 -0.5127 -0.0322
 8117TIP3    H245843   0.122   5.960  14.350 -0.0438  0.3344  0.2912
 8118TIP3   OH245844   0.700   0.970  16.571  0.2272 -0.1924  0.6980
 8118TIP3    H145845   0.744   0.925  16.499  0.5352  0.1848  0.6500
 8118TIP3    H245846   0.741   1.056  16.574  0.4946 -0.3382  1.5777
 8119TIP3   OH245847   6.250   4.427   3.161 -0.2525 -0.0269 -0.0942
 8119TIP3    H145848   6.264   4.506   3.214 -0.6845  0.2765 -0.4244
 8119TIP3    H245849   6.309   4.362   3.198  0.4163  0.5799 -0.0934
 8120TIP3   OH245850   3.357   5.771  16.992  0.4310 -0.4672  0.7375
 8120TIP3    H145851   3.290   5.715  16.953  0.3746  0.1298 -0.0373
 8120TIP3    H245852   3.399   5.813  16.918 -0.3826  1.5045  1.3406
 8121TIP3   OH245853   2.286   4.854   0.575  0.1180 -0.1309 -0.1090
 8121TIP3    H145854   2.254   4.765   0.588 -0.3079 -0.3726 -2.4316
 8121TIP3    H245855   2.299   4.862   0.481  0.0443  2.3058  0.0145
 8122TIP3   OH245856   0.411   5.479   1.431  0.2235 -0.2143  0.6660
 8122TIP3    H145857   0.471   5.502   1.502  0.5152  0.7132  0.1422
 8122TIP3    H245858   0.337   5.437   1.474  1.5203 -1.9956  1.2811
 8123TIP3   OH245859   1.682   1.667   4.889  0.3389  0.0591 -0.3197
 8123TIP3    H145860   1.711   1.606   4.822 -1.6094 -1.7096  0.3254
 8123TIP3    H245861   1.592   1.689   4.865  0.0418  0.4207  0.9972
 8124TIP3   OH245862   0.883   2.412  12.521  0.3401  0.0833  0.0692
 8124TIP3    H145863   0.964   2.393  12.569  1.2325 -1.0530 -1.7671
 8124TIP3    H245864   0.911   2.422  12.430 -1.4161  1.0950 -0.4085
 8125TIP3   OH245865   3.782   3.289   4.924  0.4655  0.7419 -0.0135
 8125TIP3    H145866   3.810   3.205   4.889 -0.4307  0.8167 -0.9616
 8125TIP3    H245867   3.797   3.283   5.018 -2.9933 -1.8994  0.5468
 8126TIP3   OH245868   3.921   4.150  10.266 -0.1534  0.1213  0.1362
 8126TIP3    H145869   3.972   4.136  10.346  1.2202 -1.4708 -0.9410
 8126TIP3    H245870   3.913   4.245  10.259  2.0221  0.4207  0.8056
 8127TIP3   OH245871   4.078   1.666   5.529  0.3203 -0.0345 -0.3380
 8127TIP3    H145872   4.125   1.657   5.611  1.2582  2.0676 -0.5862
 8127TIP3    H245873   4.011   1.732   5.546 -0.3834 -0.5831 -0.9026
 8128TIP3   OH245874   1.352   2.472   5.516 -0.5507  0.4150  0.3651
 8128TIP3    H145875   1.307   2.489   5.598  0.8166  0.7595  1.0786
 8128TIP3    H245876   1.375   2.379   5.520 -0.6787  0.3778  0.2621
 8129TIP3   OH245877   1.881   4.868  14.758  0.4592  0.0595 -0.4127
 8129TIP3    H145878   1.838   4.798  14.808 -0.9939  1.8207  0.9235
 8129TIP3    H245879   1.952   4.897  14.815  0.1779  0.5855 -0.3215
 8130TIP3   OH245880   2.545   5.637  13.657  0.2925  0.1296  0.4255
 8130TIP3    H145881   2.558   5.596  13.572  1.8352 -2.0222  1.5979
 8130TIP3    H245882   2.594   5.719  13.653  0.8992 -0.2703 -0.5432
 8131TIP3   OH245883   3.020   3.829   0.483  0.0295  0.0454  0.2965
 8131TIP3    H145884   3.029   3.903   0.423 -0.4820 -0.1726 -0.0558
 8131TIP3    H245885   3.044   3.752   0.431 -3.2711 -0.5473 -0.6327
 8132TIP3   OH245886   1.365   2.240  12.678 -0.2606 -0.1258  0.5405
 8132TIP3    H145887   1.403   2.198  12.601  0.4006 -0.1344  0.8686
 8132TIP3    H245888   1.400   2.192  12.753 -2.7797 -1.7040  0.8171
 8133TIP3   OH245889   5.786   5.991   3.908 -0.0037  0.3856  0.7131
 8133TIP3    H145890   5.742   6.075   3.920  0.3201  0.6390  0.1597
 8133TIP3    H245891   5.765   5.941   3.987 -0.2684  0.9520  1.0036
 8134TIP3   OH245892   6.719   3.413   2.245  0.1208 -0.5001 -0.0719
 8134TIP3    H145893   6.778   3.438   2.174 -0.1738 -0.8036 -0.4314
 8134TIP3    H245894   6.649   3.363   2.201 -1.1279  0.9824  0.1333
 8135TIP3   OH245895   1.370   1.031  15.485  0.6433 -0.1117  0.0635
 8135TIP3    H145896   1.312   0.955  15.482  0.5322  0.0101 -1.0156
 8135TIP3    H245897   1.447   1.000  15.532  0.8498 -1.0724 -0.8817
 8136TIP3   OH245898   4.451   1.401  16.176 -0.3124  1.0028 -0.3011
 8136TIP3    H145899   4.456   1.466  16.107 -0.6264  0.4522 -0.8507
 8136TIP3    H245900   4.430   1.319  16.131 -0.3609  0.6040  0.4237
 8137TIP3   OH245901   6.312   1.076   3.117  0.0089 -0.1584 -0.7400
 8137TIP3    H145902   6.371   1.151   3.117  0.1056 -0.2196  0.0204
 8137TIP3    H245903   6.356   1.010   3.063  1.1800 -0.5947  0.6642
 8138TIP3   OH245904   4.944   0.880  12.088 -0.0162  0.0694 -0.1467
 8138TIP3    H145905   4.907   0.842  12.169  1.3776 -1.1888 -0.0527
 8138TIP3    H245906   5.034   0.902  12.112  0.5278 -0.6658 -1.4339
 8139TIP3   OH245907   5.353   1.268  16.377  0.0924 -0.4670 -0.9452
 8139TIP3    H145908   5.358   1.275  16.472 -0.0889 -0.7456 -0.9149
 8139TIP3    H245909   5.439   1.235  16.351  0.1177 -0.4591 -0.8711
 8140TIP3   OH245910   3.214   6.832  16.355 -0.2408  0.0998 -0.2194
 8140TIP3    H145911   3.267   6.889  16.410 -1.4070 -0.8673  2.0226
 8140TIP3    H245912   3.244   6.743  16.377 -1.4727 -0.3638 -0.3083
 8141TIP3   OH245913   2.277   5.577   0.926 -0.1433  0.1094  0.2647
 8141TIP3    H145914   2.346   5.546   0.984  0.4034  0.5225 -0.1586
 8141TIP3    H245915   2.246   5.497   0.882  2.8836  0.2719 -2.6012
 8142TIP3   OH245916   4.040   5.093   2.243 -0.2961  0.3319 -0.9555
 8142TIP3    H145917   4.074   5.031   2.178 -1.3284  0.7585 -1.9340
 8142TIP3    H245918   4.024   5.173   2.193 -0.9127  0.7310 -0.1301
 8143TIP3   OH245919   5.417   5.787   3.164  0.0389  0.0755 -0.1045
 8143TIP3    H145920   5.426   5.738   3.083  0.1817 -0.5437  0.2753
 8143TIP3    H245921   5.379   5.725   3.226 -1.5171  0.9807 -0.0984
 8144TIP3   OH245922   6.323   0.300  13.209 -0.1832  0.3998  0.2008
 8144TIP3    H145923   6.264   0.226  13.218  0.4387 -0.1527 -0.1402
 8144TIP3    H245924   6.410   0.263  13.224  0.2208  0.8713 -0.8908
 8145TIP3   OH245925   4.731   6.230   4.341  0.1512  0.1572 -0.3436
 8145TIP3    H145926   4.816   6.220   4.299 -0.5056 -1.3080 -1.4337
 8145TIP3    H245927   4.717   6.148   4.388 -0.4411  0.5761  0.2177
 8146TIP3   OH245928   4.321   6.013  11.737  0.1740  0.1515 -0.2566
 8146TIP3    H145929   4.403   6.062  11.731 -0.9229  1.8823 -3.1228
 8146TIP3    H245930   4.343   5.926  11.704  0.7953  0.7714 -1.5551
 8147TIP3   OH245931   4.597   4.675   3.326  0.2411 -0.2681 -0.3905
 8147TIP3    H145932   4.596   4.620   3.248  0.6238 -1.1826  0.2283
 8147TIP3    H245933   4.576   4.615   3.398  0.3687  0.4598  0.2694
 8148TIP3   OH245934   0.994   0.400   2.362 -0.3780  0.2031 -0.1344
 8148TIP3    H145935   1.022   0.405   2.453  0.2244 -3.9311  0.0847
 8148TIP3    H245936   1.076   0.398   2.312 -0.5436 -1.5277 -0.3808
 8149TIP3   OH245937   5.619   3.237   2.317 -0.2283 -0.5217  0.1590
 8149TIP3    H145938   5.524   3.241   2.304 -0.1845 -0.5966 -0.1965
 8149TIP3    H245939   5.656   3.271   2.235  0.0579 -1.1803  0.0065
 8150TIP3   OH245940   2.795   5.272  15.588  0.0520 -0.2723 -0.0656
 8150TIP3    H145941   2.700   5.262  15.583  0.0110 -0.0197  0.2050
 8150TIP3    H245942   2.826   5.238  15.504 -0.2987 -0.1084 -0.2672
 8151TIP3   OH245943   2.604   2.702   1.602  0.5743  0.4746  0.7082
 8151TIP3    H145944   2.668   2.647   1.646  1.9295  1.9925  0.7268
 8151TIP3    H245945   2.581   2.769   1.666 -1.3972 -0.2652  0.8517
 8152TIP3   OH245946   0.378   0.215  14.390 -0.5615 -0.2474 -0.0998
 8152TIP3    H145947   0.345   0.305  14.392  0.3776  0.1205  2.6650
 8152TIP3    H245948   0.306   0.164  14.353 -1.4957  1.4699 -0.7734
 8153TIP3   OH245949   6.729   6.282  13.535  0.3978 -0.1858  0.3485
 8153TIP3    H145950   6.707   6.254  13.624 -1.8669 -1.0904 -0.4243
 8153TIP3    H245951   6.701   6.209  13.479 -2.6239  2.1215 -1.4865
 8154TIP3   OH245952   2.961   1.759   4.750 -0.4876  0.3191 -0.4189
 8154TIP3    H145953   2.904   1.687   4.778 -2.3748  1.0843 -2.0367
 8154TIP3    H245954   2.991   1.798   4.832  0.3467 -2.0609  0.5016
 8155TIP3   OH245955   6.433   4.654   5.189 -0.4013 -0.7516  0.4628
 8155TIP3    H145956   6.428   4.747   5.168  3.1167 -0.6154 -0.4340
 8155TIP3    H245957   6.442   4.651   5.284  0.8560 -0.0187  0.3862
 8156TIP3   OH245958   3.470   5.126  16.238  0.2725 -0.2710 -0.1407
 8156TIP3    H145959   3.401   5.110  16.302 -0.1061 -0.6773 -0.6372
 8156TIP3    H245960   3.506   5.212  16.261  0.6272 -0.7246  1.0384
 8157TIP3   OH245961   1.663   4.385  12.880 -0.1994  0.5322  0.3557
 8157TIP3    H145962   1.735   4.366  12.819  0.3910 -1.0073  1.4554
 8157TIP3    H245963   1.629   4.470  12.852 -0.5711 -0.5052 -2.6851
 8158TIP3   OH245964   6.299   3.517  16.260 -0.5885 -0.2921 -0.0804
 8158TIP3    H145965   6.244   3.519  16.182 -1.1994 -2.3502  0.2572
 8158TIP3    H245966   6.369   3.455  16.238  0.8925  1.2643 -0.0005
 8159TIP3   OH245967   0.900   0.361   0.426  0.1938 -0.7366  0.4541
 8159TIP3    H145968   0.883   0.330   0.337  3.1813  0.9741 -0.8512
 8159TIP3    H245969   0.888   0.284   0.481 -1.1692 -1.9851 -1.4687
 8160TIP3   OH245970   0.763   5.570   0.959 -0.1725  0.0988 -0.2067
 8160TIP3    H145971   0.840   5.513   0.951 -0.3334 -0.1176 -0.2009
 8160TIP3    H245972   0.688   5.511   0.952 -0.3425  0.3582 -0.6111
 8161TIP3   OH245973   6.644   4.455  12.036  0.1088  0.5174 -0.0243
 8161TIP3    H145974   6.581   4.452  12.108  0.2400 -2.2454  0.0889
 8161TIP3    H245975   6.704   4.526  12.060 -2.0463  2.2164  0.5972
 8162TIP3   OH245976   3.519   5.742   4.344 -0.1457 -0.4461  0.5483
 8162TIP3    H145977   3.426   5.724   4.356 -0.2095 -0.5402 -0.0462
 8162TIP3    H245978   3.538   5.812   4.407 -0.6836 -0.2185  0.4671
 8163TIP3   OH245979   5.874   1.804  11.111  0.2566  0.5692 -0.3327
 8163TIP3    H145980   5.787   1.844  11.111 -0.0912 -0.1742 -0.8211
 8163TIP3    H245981   5.869   1.735  11.046  0.8989 -0.1698  0.3856
 8164TIP3   OH245982   4.805   1.292   0.417  0.0407  0.0619 -0.0158
 8164TIP3    H145983   4.767   1.379   0.406  0.7802  0.3324 -0.4233
 8164TIP3    H245984   4.733   1.240   0.454 -0.5097  0.7498 -0.0937
 8165TIP3   OH245985   0.432   4.418   4.062  0.9155  0.4085  0.3552
 8165TIP3    H145986   0.436   4.356   3.989 -0.6455  0.3404  0.2910
 8165TIP3    H245987   0.381   4.492   4.028 -0.1264  0.2336  1.4547
 8166TIP3   OH245988   5.125   3.470  13.481  0.6202  0.2471 -0.5987
 8166TIP3    H145989   5.118   3.434  13.393  2.5930  1.4194 -1.2703
 8166TIP3    H245990   5.034   3.485  13.508 -0.0289 -0.6066 -2.2071
 8167TIP3   OH245991   2.064   6.796   3.907  0.0488 -0.1892  0.1237
 8167TIP3    H145992   1.982   6.793   3.957  0.9284 -0.8758  1.5767
 8167TIP3    H245993   2.040   6.763   3.820 -1.4236  0.6351  0.1801
 8168TIP3   OH245994   5.867   1.918   4.443  0.0074  0.4592  0.4260
 8168TIP3    H145995   5.948   1.868   4.455  0.0531  0.8312  1.8982
 8168TIP3    H245996   5.797   1.855   4.460  0.0466  0.5896  1.1355
 8169TIP3   OH245997   5.977   3.907   6.241  0.3901 -0.1611  0.1686
 8169TIP3    H145998   5.908   3.923   6.176  1.9584 -1.4689 -1.9528
 8169TIP3    H245999   5.948   3.827   6.286 -1.1310  1.2183  1.8310
 8170TIP3   OH246000   6.631   5.059   4.651  0.0081 -0.1283 -0.2473
 8170TIP3    H146001   6.633   5.078   4.745 -0.9797 -1.8706  0.1878
 8170TIP3    H246002   6.545   5.088   4.622 -0.2465 -0.8691 -0.2748
 8171TIP3   OH246003   5.888   6.242   5.553 -0.4303  0.1438  0.4590
 8171TIP3    H146004   5.873   6.153   5.584 -0.3028  0.3954  1.2541
 8171TIP3    H246005   5.918   6.290   5.630 -0.9994  1.0059  0.1537
 8172TIP3   OH246006   1.698   4.007  12.233 -0.0439  0.3370 -0.5519
 8172TIP3    H146007   1.692   3.983  12.326  3.3278 -1.3895 -0.6325
 8172TIP3    H246008   1.718   4.101  12.234 -0.1761  0.3735  0.4607
 8173TIP3   OH246009   1.646   4.319   1.376 -0.0509  0.0238 -0.1910
 8173TIP3    H146010   1.563   4.271   1.371  0.3253 -0.6289 -0.2733
 8173TIP3    H246011   1.690   4.300   1.293 -0.6030  1.8668 -0.9669
 8174TIP3   OH246012   2.783   6.568   1.184  0.3016 -0.3049 -0.3645
 8174TIP3    H146013   2.696   6.602   1.163 -0.1393 -1.0664  0.1705
 8174TIP3    H246014   2.836   6.646   1.199  0.2148  0.2451 -2.5107
 8175TIP3   OH246015   6.628   6.815  14.370 -0.2563  0.1593 -0.6575
 8175TIP3    H146016   6.644   6.878  14.441  0.0255  1.7944 -2.1016
 8175TIP3    H246017   6.631   6.730  14.413  1.1357  1.0163  1.1017
 8176TIP3   OH246018   0.025   6.496  11.047 -0.0561 -0.0660  0.2703
 8176TIP3    H146019   0.022   6.410  11.004 -1.6914  0.0207  0.1089
 8176TIP3    H246020  -0.065   6.510  11.076 -0.3299  2.4479 -1.4723
 8177TIP3   OH246021   2.593   3.166   3.924 -0.2151  0.4535  0.4733
 8177TIP3    H146022   2.598   3.090   3.866 -0.9104 -0.6638  1.8027
 8177TIP3    H246023   2.680   3.205   3.922  0.1249 -0.3353 -0.3039
 8178TIP3   OH246024   6.645   2.841   2.665  0.2225 -0.1872 -0.4284
 8178TIP3    H146025   6.680   2.751   2.669  0.3876 -0.0850  1.7497
 8178TIP3    H246026   6.717   2.893   2.630  0.9351 -0.5969  0.3763
 8179TIP3   OH246027   2.223   3.865  15.261 -1.1686  0.3098 -0.0792
 8179TIP3    H146028   2.289   3.902  15.319 -0.1386  0.2837 -1.1953
 8179TIP3    H246029   2.151   3.839  15.319  0.1667 -0.5002  1.2708
 8180TIP3   OH246030   4.575   5.761  15.648  0.7620  0.4487 -0.0509
 8180TIP3    H146031   4.577   5.855  15.630 -1.7975  0.7603  0.7827
 8180TIP3    H246032   4.653   5.726  15.606  0.1344  2.4610 -3.1820
 8181TIP3   OH246033   0.997   3.702  15.447 -0.3679  0.8055  0.5350
 8181TIP3    H146034   0.967   3.776  15.396  0.6568  1.5697  1.0059
 8181TIP3    H246035   0.970   3.625  15.397 -1.4914  1.4733  0.0694
 8182TIP3   OH246036   5.491   4.573   3.638  0.1277  0.3574 -0.2186
 8182TIP3    H146037   5.532   4.509   3.697  0.4073  0.4836 -0.2728
 8182TIP3    H246038   5.405   4.590   3.677 -0.4606 -0.9703 -0.8634
 8183TIP3   OH246039   5.768   4.036  16.710 -0.0816 -0.4789  0.3226
 8183TIP3    H146040   5.703   4.035  16.640  1.9436 -0.6346 -1.7156
 8183TIP3    H246041   5.812   3.951  16.704  0.5142 -0.2725  1.4255
 8184TIP3   OH246042   1.760   0.834   1.055 -0.1704 -0.0277  0.4668
 8184TIP3    H146043   1.705   0.865   1.127 -0.1112  0.6299  0.2358
 8184TIP3    H246044   1.810   0.911   1.029 -1.8402  0.3918 -1.8161
 8185TIP3   OH246045   2.138   3.667  16.582  0.3835 -0.1907  0.5439
 8185TIP3    H146046   2.106   3.753  16.556 -0.8233 -0.7452  0.0923
 8185TIP3    H246047   2.210   3.648  16.522  0.8388  0.6099  0.8289
 8186TIP3   OH246048   6.359   2.766   2.167 -0.1723  0.0347  0.5524
 8186TIP3    H146049   6.274   2.729   2.141  0.6811 -0.9279 -1.0498
 8186TIP3    H246050   6.338   2.826   2.239 -2.3470  0.5803 -0.4394
 8187TIP3   OH246051   4.136   2.859   2.750 -0.5604 -0.5053 -0.1556
 8187TIP3    H146052   4.201   2.895   2.811 -1.0059  0.0771 -0.0229
 8187TIP3    H246053   4.076   2.810   2.806  0.2267 -1.7628 -0.3682
 8188TIP3   OH246054   6.797   4.811   1.010  0.3161 -0.0104 -0.3943
 8188TIP3    H146055   6.818   4.719   0.991  0.3361 -0.1372  0.2254
 8188TIP3    H246056   6.803   4.818   1.105  0.2047  0.6110 -0.4283
 8189TIP3   OH246057   0.609   1.870  13.886 -0.1914 -0.1796 -0.3124
 8189TIP3    H146058   0.568   1.787  13.862 -1.6757  0.9251 -1.9691
 8189TIP3    H246059   0.648   1.901  13.804  0.7137  0.5551  0.3847
 8190TIP3   OH246060   1.803   5.858   3.896  0.6143 -0.0105  0.3790
 8190TIP3    H146061   1.773   5.767   3.896  0.4741  0.0326  1.1321
 8190TIP3    H246062   1.809   5.881   3.803  1.4119 -1.0294  0.1650
 8191TIP3   OH246063   0.413   2.313   5.624  0.4283 -0.0771 -0.0763
 8191TIP3    H146064   0.464   2.247   5.670 -0.5956  0.3409  1.7470
 8191TIP3    H246065   0.384   2.373   5.693 -1.4818  0.3730 -1.2134
 8192TIP3   OH246066   2.806   6.700   2.405 -0.1581 -0.5869  0.5323
 8192TIP3    H146067   2.771   6.641   2.337  1.2741 -0.0121 -0.7528
 8192TIP3    H246068   2.768   6.785   2.384 -1.0873 -0.7250  1.5375
 8193TIP3   OH246069   2.118   2.875  16.989  0.2028  0.1526  0.4448
 8193TIP3    H146070   2.186   2.851  17.052  0.1192 -1.0684  0.1136
 8193TIP3    H246071   2.144   2.829  16.909 -0.4708  0.4962  0.0264
 8194TIP3   OH246072   4.680   2.011  13.787  0.0511  0.2753  0.1996
 8194TIP3    H146073   4.590   2.024  13.756 -1.3719 -1.0329  3.3168
 8194TIP3    H246074   4.720   2.098  13.781 -2.1328  1.3860  0.6822
 8195TIP3   OH246075   2.048   0.543  13.452 -0.0129  0.0703  0.0408
 8195TIP3    H146076   2.104   0.470  13.423  0.5844  0.1112  1.0445
 8195TIP3    H246077   2.099   0.586  13.520 -1.3245  0.0253  1.0900
 8196TIP3   OH246078   5.661   2.375   0.455  0.4821 -0.4428  0.6988
 8196TIP3    H146079   5.672   2.301   0.515  1.6470 -1.0932 -0.2922
 8196TIP3    H246080   5.716   2.354   0.380 -0.8979  0.3759 -0.5991
 8197TIP3   OH246081   6.523   1.472  11.660  0.0257  0.3696  0.1600
 8197TIP3    H146082   6.594   1.438  11.714 -1.8181 -1.9400  1.2912
 8197TIP3    H246083   6.496   1.552  11.705  0.2350 -0.1237  1.2128
 8198TIP3   OH246084   1.640   1.890   5.061  0.1550 -0.1806  0.1177
 8198TIP3    H146085   1.607   1.833   5.131 -0.0721 -0.6704 -0.3842
 8198TIP3    H246086   1.668   1.829   4.992 -0.4091  0.3233 -0.5664
 8199TIP3   OH246087   5.781   2.050  14.900 -0.6231  0.2734 -0.5057
 8199TIP3    H146088   5.836   2.126  14.919 -0.3257 -0.2257  0.7541
 8199TIP3    H246089   5.704   2.086  14.856 -1.6443  1.6462  2.1918
 8200TIP3   OH246090   5.439   6.751   4.415 -0.0401 -1.2012  0.2793
 8200TIP3    H146091   5.440   6.824   4.476 -2.3629 -1.2433  0.4321
 8200TIP3    H246092   5.530   6.744   4.385  0.4569  1.0205  1.0885
 8201TIP3   OH246093   0.101   0.093   1.745  0.0242 -0.0403  0.2543
 8201TIP3    H146094   0.047   0.055   1.815 -0.9911 -2.5271 -1.7313
 8201TIP3    H246095   0.110   0.185   1.770 -3.4578  0.0640  1.7468
 8202TIP3   OH246096   3.237   1.817  12.776 -0.0539  0.7395 -0.1410
 8202TIP3    H146097   3.277   1.744  12.728  2.5581  1.2826  1.0371
 8202TIP3    H246098   3.223   1.782  12.864  0.4827  1.4320  0.2183
 8203TIP3   OH246099   3.568   0.706  13.784  0.5989  0.2522  0.1527
 8203TIP3    H146100   3.596   0.726  13.695 -0.8222  2.3183  0.1072
 8203TIP3    H246101   3.628   0.755  13.840  0.3273  0.4592  0.2619
 8204TIP3   OH246102   2.115   1.843  14.796  0.1948 -0.0602  0.0771
 8204TIP3    H146103   2.208   1.824  14.785  0.0054 -0.7272 -0.4126
 8204TIP3    H246104   2.087   1.878  14.711  0.0793  0.5139  0.3432
 8205TIP3   OH246105   0.896   2.728   0.614  0.1367  0.0529 -0.3743
 8205TIP3    H146106   0.836   2.763   0.548 -1.7539 -1.2272  0.6012
 8205TIP3    H246107   0.856   2.647   0.644  2.0144 -0.5017  0.8556
 8206TIP3   OH246108   6.618   3.707  13.084 -0.6003 -0.4860  0.5161
 8206TIP3    H146109   6.553   3.756  13.134 -0.7142  0.4931 -0.5742
 8206TIP3    H246110   6.583   3.703  12.995  1.7045  1.8284 -0.6042
 8207TIP3   OH246111   3.921   0.049   4.622 -0.3520  0.4406  0.0790
 8207TIP3    H146112   3.963  -0.007   4.556  0.4299  1.3819 -0.2587
 8207TIP3    H246113   3.914  -0.006   4.699  0.7933 -0.0076 -0.1081
 8208TIP3   OH246114   4.658   5.127  11.819 -0.0014 -0.0421  0.0944
 8208TIP3    H146115   4.742   5.083  11.831 -0.0398 -0.3115 -0.5993
 8208TIP3    H246116   4.682   5.215  11.790  0.0352 -0.5340 -1.4462
 8209TIP3   OH246117   5.673   2.135   4.494 -0.0832 -0.5916 -0.1609
 8209TIP3    H146118   5.641   2.148   4.583  0.8249 -0.8002  0.1997
 8209TIP3    H246119   5.734   2.061   4.500  1.9501  0.9772 -0.4598
 8210TIP3   OH246120   6.837   2.208   2.953  0.2213  0.2080 -0.1819
 8210TIP3    H146121   6.745   2.195   2.933 -0.9373  3.1733  2.4025
 8210TIP3    H246122   6.862   2.129   3.002 -1.7725  0.4836  1.3928
 8211TIP3   OH246123   6.060   4.979   4.114 -0.0136 -0.1784  0.5022
 8211TIP3    H146124   6.120   4.992   4.187 -0.0916 -1.8647  0.9069
 8211TIP3    H246125   6.101   5.025   4.040 -0.1893  1.9908  1.6778
 8212TIP3   OH246126   1.689   6.343  14.660  0.0421 -0.3791  0.2703
 8212TIP3    H146127   1.770   6.329  14.709  0.3319  0.5356  0.0678
 8212TIP3    H246128   1.650   6.422  14.698  0.0459  0.0913 -0.6665
 8213TIP3   OH246129   1.539   5.848   4.682  0.3107  0.3188 -0.0243
 8213TIP3    H146130   1.614   5.791   4.666  1.0323  0.7924  1.5323
 8213TIP3    H246131   1.532   5.854   4.777  0.0294  2.5221 -0.1303
 8214TIP3   OH246132   6.578   4.646   0.093 -0.7896  0.0701  0.3646
 8214TIP3    H146133   6.579   4.706   0.018 -0.3329 -0.5956 -0.1768
 8214TIP3    H246134   6.561   4.702   0.168 -2.2729  0.6221 -0.3518
 8215TIP3   OH246135   4.473   6.019  17.029  0.1131  0.7347  0.3352
 8215TIP3    H146136   4.496   6.111  17.022  1.9735  0.4204  1.4612
 8215TIP3    H246137   4.554   5.977  17.060 -1.1837 -0.9804  1.5793
 8216TIP3   OH246138   1.600   0.732  12.451 -0.2722 -0.5547 -1.4481
 8216TIP3    H146139   1.534   0.765  12.390 -0.1715 -1.1397 -1.8742
 8216TIP3    H246140   1.680   0.723  12.398 -0.2866 -1.4320 -1.3249
 8217TIP3   OH246141   4.713   0.761  10.303 -0.0526 -0.0111 -0.2127
 8217TIP3    H146142   4.743   0.851  10.314 -0.5000 -0.0141  1.1886
 8217TIP3    H246143   4.750   0.714  10.377 -2.2235 -0.3258  0.7385
 8218TIP3   OH246144   1.130   5.859  12.463  0.1157  0.5387  0.4246
 8218TIP3    H146145   1.106   5.951  12.470  2.0769  1.1026  0.3622
 8218TIP3    H246146   1.092   5.831  12.379 -0.6825  1.2081  0.5454
 8219TIP3   OH246147   2.399   0.577  16.923  0.1366  0.1515 -0.0163
 8219TIP3    H146148   2.346   0.586  17.002 -1.5003 -1.3803 -0.8781
 8219TIP3    H246149   2.467   0.644  16.932  1.5979 -1.5760  3.8832
 8220TIP3   OH246150   3.920   4.440   6.798 -0.0404  0.2582  0.2965
 8220TIP3    H146151   3.867   4.463   6.874  1.1179  0.5682  1.0274
 8220TIP3    H246152   3.909   4.345   6.789  0.9937 -0.0324  1.7908
 8221TIP3   OH246153   4.492   6.293  13.819 -0.0087 -0.0100 -0.3320
 8221TIP3    H146154   4.428   6.242  13.770  1.6637 -2.4810 -0.0978
 8221TIP3    H246155   4.537   6.345  13.753 -1.2009  0.6253 -0.6770
 8222TIP3   OH246156   2.115   5.627   3.775 -0.4804 -0.0028 -1.0581
 8222TIP3    H146157   2.057   5.698   3.804  0.5119  1.0009 -1.4699
 8222TIP3    H246158   2.105   5.627   3.679 -0.0776 -0.0643 -1.0988
 8223TIP3   OH246159   1.016   6.184  13.973 -0.5962 -0.7597  0.2170
 8223TIP3    H146160   1.005   6.216  13.883 -1.0415  0.0227  0.5364
 8223TIP3    H246161   0.957   6.109  13.979  0.5462 -1.7519 -0.5802
 8224TIP3   OH246162   2.300   1.721  13.627  0.2713  0.3397  0.0104
 8224TIP3    H146163   2.264   1.637  13.654  1.4131 -0.3767 -0.6064
 8224TIP3    H246164   2.381   1.730  13.677 -0.4222  1.6817  0.9913
 8225TIP3   OH246165   2.419   0.074  15.938  0.1910 -0.5561 -0.1638
 8225TIP3    H146166   2.446  -0.017  15.939  0.2246 -0.5446  0.8635
 8225TIP3    H246167   2.355   0.081  16.009  1.4590  0.5854  0.9300
 8226TIP3   OH246168   5.514   6.278   3.116  0.3441  0.2463 -0.6463
 8226TIP3    H146169   5.532   6.277   3.210  0.0399 -1.9253 -0.5517
 8226TIP3    H246170   5.474   6.363   3.100 -2.0734 -0.3226  1.7174
 8227TIP3   OH246171   2.625   6.775   6.004 -0.0962  0.0889  0.5267
 8227TIP3    H146172   2.561   6.760   5.934  0.8361  0.5086 -0.4415
 8227TIP3    H246173   2.578   6.827   6.069 -0.8026  0.2049 -0.0641
 8228TIP3   OH246174   2.648   2.157   0.244 -0.3819 -0.2655 -0.0757
 8228TIP3    H146175   2.739   2.153   0.272 -1.2056 -1.2835  2.7884
 8228TIP3    H246176   2.632   2.250   0.227  0.9013  0.0576  0.4139
 8229TIP3   OH246177   1.884   3.772   2.503  0.2662  0.3804 -0.7219
 8229TIP3    H146178   1.943   3.711   2.458  1.8720  0.5274  1.0676
 8229TIP3    H246179   1.936   3.806   2.576 -1.7045  1.3778  0.2847
 8230TIP3   OH246180   0.136   2.463   0.394  0.1959  0.2965  0.5835
 8230TIP3    H146181   0.060   2.422   0.435  0.4730 -1.1695 -0.2873
 8230TIP3    H246182   0.105   2.492   0.308  0.3649  0.6508  0.6389
 8231TIP3   OH246183   0.691   0.736   2.847  0.1359  0.0544  0.5774
 8231TIP3    H146184   0.741   0.723   2.927 -0.5790 -1.8395  0.7773
 8231TIP3    H246185   0.709   0.657   2.795 -1.2697  0.1383 -0.0725
 8232TIP3   OH246186   4.299   5.447  14.887  0.5014  0.3335  0.1228
 8232TIP3    H146187   4.267   5.537  14.885 -1.3570 -0.1672  2.3156
 8232TIP3    H246188   4.316   5.430  14.979  2.5105 -1.0558 -0.4448
 8233TIP3   OH246189   1.673   1.663  16.840 -0.1251  0.3721  0.4757
 8233TIP3    H146190   1.605   1.628  16.782  0.6934 -0.8326  0.1871
 8233TIP3    H246191   1.687   1.594  16.905  1.6112  0.0700 -0.1621
 8234TIP3   OH246192   4.664   1.077  14.389  0.2128 -0.7550 -0.3400
 8234TIP3    H146193   4.681   1.016  14.460  1.2406  0.8281  0.8598
 8234TIP3    H246194   4.570   1.091  14.391 -0.0685 -2.3935 -0.7691
 8235TIP3   OH246195   3.302   1.378  13.672  0.0720  0.0674  0.6415
 8235TIP3    H146196   3.289   1.378  13.577 -0.9484  1.7933  0.7208
 8235TIP3    H246197   3.367   1.310  13.688 -0.6251 -1.0961 -1.1537
 8236TIP3   OH246198   6.703   2.185   2.660 -0.1630  0.6711 -0.0061
 8236TIP3    H146199   6.627   2.241   2.673 -0.5136  0.3537 -0.6107
 8236TIP3    H246200   6.763   2.238   2.608 -1.0833  0.0324 -1.8050
 8237TIP3   OH246201   4.398   6.388   3.859 -0.7868 -0.2189 -0.3409
 8237TIP3    H146202   4.387   6.333   3.782  1.4787 -0.9392 -0.2278
 8237TIP3    H246203   4.487   6.423   3.851 -1.4188  1.7871  0.6555
 8238TIP3   OH246204   0.825   6.260  10.814  0.3929  0.0591 -0.4283
 8238TIP3    H146205   0.884   6.333  10.834 -0.0855  0.6936 -1.2597
 8238TIP3    H246206   0.876   6.204  10.755 -0.2266  1.3081 -2.2807
 8239TIP3   OH246207   1.557   6.230   0.258 -0.1088 -0.5857 -0.0989
 8239TIP3    H146208   1.463   6.220   0.248 -0.0776  0.1645 -1.4491
 8239TIP3    H246209   1.586   6.270   0.176  1.2632  0.0116  0.6306
 8240TIP3   OH246210   5.653   0.167   3.345 -0.2353 -0.0126  0.0416
 8240TIP3    H146211   5.563   0.134   3.341 -0.0242 -0.5852 -3.9728
 8240TIP3    H246212   5.651   0.248   3.294  1.6355 -0.4977 -0.8930
 8241TIP3   OH246213   6.787   3.731   4.281  0.1090  0.2062  0.0881
 8241TIP3    H146214   6.694   3.731   4.257  0.3616  1.5305 -1.0021
 8241TIP3    H246215   6.787   3.710   4.375 -1.1994 -0.9437 -0.1252
 8242TIP3   OH246216   0.986   6.542  16.414  0.5631  0.3678  0.1548
 8242TIP3    H146217   0.954   6.453  16.400 -1.6312  1.3389 -1.6030
 8242TIP3    H246218   1.076   6.540  16.382  0.4557 -1.1478 -0.1225
 8243TIP3   OH246219   2.202   6.436   1.589 -0.5864  0.1127  0.2062
 8243TIP3    H146220   2.265   6.376   1.548 -0.9511 -2.3902  2.9963
 8243TIP3    H246221   2.240   6.523   1.575 -0.0426 -0.5854 -4.0467
 8244TIP3   OH246222   0.848   2.225   4.140  0.2192 -0.1308  0.3164
 8244TIP3    H146223   0.884   2.313   4.139 -0.1534  0.0316  0.8974
 8244TIP3    H246224   0.769   2.231   4.195 -0.1356 -0.6947 -0.1113
 8245TIP3   OH246225   2.051   6.683  15.411 -0.1442  0.5631  0.4656
 8245TIP3    H146226   2.097   6.726  15.339 -1.1217  3.8262  1.6047
 8245TIP3    H246227   2.008   6.754  15.458 -1.2368 -1.6449  3.0994
 8246TIP3   OH246228   3.951   6.476   0.246 -0.1230 -0.0530  0.2712
 8246TIP3    H146229   3.900   6.411   0.199  0.8456 -0.1012 -0.7448
 8246TIP3    H246230   4.040   6.441   0.248  0.3903  1.1667 -0.1988
 8247TIP3   OH246231   2.385   2.531  15.592  0.0583  0.1142 -0.4136
 8247TIP3    H146232   2.346   2.467  15.652 -1.3819  0.1479 -1.2614
 8247TIP3    H246233   2.329   2.608  15.598 -0.0293  0.1748 -1.6717
 8248TIP3   OH246234   1.504   5.938   3.877 -0.3271  0.5934  0.1175
 8248TIP3    H146235   1.575   5.947   3.813 -1.2293  1.4570 -0.7921
 8248TIP3    H246236   1.524   6.002   3.945  0.6117 -0.2935  0.7002
 8249TIP3   OH246237   0.563   5.669  15.618 -0.1981 -0.0121  0.1781
 8249TIP3    H146238   0.568   5.695  15.710  0.7911 -1.2875  0.5150
 8249TIP3    H246239   0.469   5.666  15.599 -0.3948  1.2094  0.8407
 8250TIP3   OH246240   5.002   0.495   3.698 -1.0131  0.5047  0.5141
 8250TIP3    H146241   4.964   0.576   3.732  0.9571  1.3514  0.7755
 8250TIP3    H246242   5.082   0.522   3.654 -0.8325 -1.1958 -0.2953
 8251TIP3   OH246243   1.721   1.647   1.046  0.1582  0.7892  0.2512
 8251TIP3    H146244   1.671   1.622   0.968  0.7591  0.5058 -0.0441
 8251TIP3    H246245   1.771   1.569   1.069  0.5644  1.1113  0.4731
 8252TIP3   OH246246   2.735   5.934   2.389  0.3467 -0.0718  0.9885
 8252TIP3    H146247   2.706   5.993   2.320  1.2079 -0.0062  0.6792
 8252TIP3    H246248   2.657   5.922   2.444 -0.5880 -0.7558 -0.4245
 8253TIP3   OH246249   2.333   6.718  11.108 -0.0548 -0.4107  0.0014
 8253TIP3    H146250   2.322   6.697  11.015  0.2428  0.2280 -0.1803
 8253TIP3    H246251   2.365   6.636  11.147  2.0625 -0.0625 -0.8668
 8254TIP3   OH246252   6.051   3.891   4.401 -0.6699  0.9077  0.0555
 8254TIP3    H146253   6.104   3.950   4.456 -0.4460 -0.2548  1.1250
 8254TIP3    H246254   6.098   3.808   4.404 -1.4796  0.4160 -0.6817
 8255TIP3   OH246255   1.912   3.688   4.418  0.1199  0.0217  0.1736
 8255TIP3    H146256   1.888   3.606   4.461 -0.4069  0.2528  0.3331
 8255TIP3    H246257   1.834   3.712   4.368  0.4787  0.1282 -0.3353
 8256TIP3   OH246258   1.051   2.339   0.860  0.5568  0.1621 -0.2600
 8256TIP3    H146259   1.141   2.312   0.841  2.0308  1.2171  4.0081
 8256TIP3    H246260   1.056   2.434   0.868  0.3603 -0.0001  4.4117
 8257TIP3   OH246261   3.686   0.473  12.621  0.8020 -0.0301 -0.1012
 8257TIP3    H146262   3.649   0.420  12.692  1.9706  1.5114  1.7560
 8257TIP3    H246263   3.777   0.445  12.614  0.7468 -0.0320 -0.8690
 8258TIP3   OH246264   3.835   3.802   0.769  0.4171 -0.5794 -0.3968
 8258TIP3    H146265   3.855   3.750   0.691  2.1161 -2.4556  1.1732
 8258TIP3    H246266   3.759   3.759   0.808 -0.9556  0.8477 -1.3470
 8259TIP3   OH246267   0.135   1.216   6.321 -0.8994  0.0344 -0.2557
 8259TIP3    H146268   0.123   1.138   6.376  0.1745  0.1355  0.1441
 8259TIP3    H246269   0.176   1.280   6.379 -2.7075  1.2875 -0.2787
 8260TIP3   OH246270   3.265   1.483  14.847 -0.1735  0.4960 -0.1227
 8260TIP3    H146271   3.186   1.526  14.816  0.9323  1.1234 -2.2937
 8260TIP3    H246272   3.234   1.417  14.909 -2.0740  3.1165  1.9180
 8261TIP3   OH246273   1.615   1.721  11.116  0.0164 -0.3277 -0.1063
 8261TIP3    H146274   1.583   1.801  11.075  1.2525 -0.0424 -0.5674
 8261TIP3    H246275   1.624   1.659  11.044  0.0202 -0.5549  0.0895
 8262TIP3   OH246276   1.597   0.865   3.208  0.1885 -0.6878 -0.3332
 8262TIP3    H146277   1.596   0.770   3.194 -0.3402 -0.9456  1.2308
 8262TIP3    H246278   1.512   0.884   3.246  1.8348 -0.3374  3.6214
 8263TIP3   OH246279   4.075   3.922   0.723 -0.3305 -0.3456 -0.2449
 8263TIP3    H146280   4.004   3.921   0.659 -0.2012  2.7554 -0.5762
 8263TIP3    H246281   4.033   3.895   0.805 -1.4822 -0.3189 -0.8028
 8264TIP3   OH246282   5.694   6.547   2.824  0.1228 -0.4890  0.1059
 8264TIP3    H146283   5.704   6.466   2.874 -1.5942 -1.9079 -1.7154
 8264TIP3    H246284   5.601   6.569   2.833  0.7205  1.9236  1.3948
 8265TIP3   OH246285   3.299   2.181  13.102  0.1812  0.0861  0.2145
 8265TIP3    H146286   3.361   2.117  13.067 -0.6931 -1.1570  0.8522
 8265TIP3    H246287   3.325   2.264  13.063  1.0334 -0.7456 -1.0551
 8266TIP3   OH246288   1.147   6.806   1.854  0.4738 -0.7397 -0.3451
 8266TIP3    H146289   1.168   6.878   1.795  0.9852  0.2835  1.0518
 8266TIP3    H246290   1.066   6.833   1.898 -0.3185 -1.8232 -1.0696
 8267TIP3   OH246291   1.501   1.719  10.553 -0.2991 -0.4961  0.3478
 8267TIP3    H146292   1.535   1.696  10.467  0.4709 -0.7716  0.7209
 8267TIP3    H246293   1.578   1.741  10.605 -0.8661  1.7302  0.3819
 8268TIP3   OH246294   6.813   4.504  16.912 -0.1830 -0.0425 -0.3998
 8268TIP3    H146295   6.771   4.503  16.998 -1.2926 -0.3389 -0.9366
 8268TIP3    H246296   6.828   4.412  16.891  1.4258  0.0720  0.0910
 8269TIP3   OH246297   0.091   1.687  16.005 -0.4515 -0.1630  0.3465
 8269TIP3    H146298  -0.001   1.713  16.007  0.4266  3.7417 -0.3624
 8269TIP3    H246299   0.118   1.703  15.914  0.8624 -1.5748  0.4567
 8270TIP3   OH246300   3.381   4.880   0.743  0.1353 -0.1114  0.4000
 8270TIP3    H146301   3.452   4.855   0.802  0.7955 -1.9942 -1.0647
 8270TIP3    H246302   3.411   4.960   0.701  1.4266 -0.8619 -0.1719
 8271TIP3   OH246303   1.815   6.056  15.571  0.0331 -0.3559  0.2684
 8271TIP3    H146304   1.782   5.966  15.567 -2.0534  0.4169 -1.7811
 8271TIP3    H246305   1.901   6.052  15.531 -1.5842 -0.9179 -3.5421
 8272TIP3   OH246306   0.637   1.627  14.073 -0.5365  0.3020  0.0523
 8272TIP3    H146307   0.547   1.642  14.045  0.2069  1.1155 -2.0232
 8272TIP3    H246308   0.682   1.710  14.058  0.7681 -0.3354  0.2754
 8273TIP3   OH246309   1.831   6.050  15.220  0.1959 -0.3071 -0.0930
 8273TIP3    H146310   1.868   6.138  15.229  0.6629 -0.4401 -0.6408
 8273TIP3    H246311   1.895   6.003  15.167  0.1239 -1.0820  0.4952
 8274TIP3   OH246312   6.020   1.471   5.535 -0.0617  0.7287 -0.6474
 8274TIP3    H146313   5.957   1.408   5.571  0.6069  0.8387  0.7856
 8274TIP3    H246314   5.988   1.557   5.562  0.5464  0.8055 -0.1460
 8275TIP3   OH246315   3.588   1.337  10.855  0.6442 -0.2857 -0.1897
 8275TIP3    H146316   3.680   1.312  10.852  0.2338 -2.7751  2.8634
 8275TIP3    H246317   3.588   1.421  10.900  1.4414  0.6632 -1.8401
 8276TIP3   OH246318   3.617   2.669   0.112 -0.1298 -0.2167 -0.2825
 8276TIP3    H146319   3.652   2.699   0.196  1.0956  0.1850 -0.9098
 8276TIP3    H246320   3.556   2.739   0.086  0.9979  0.6533 -0.6585
 8277TIP3   OH246321   2.589   6.142  13.805  0.4465  0.7904  0.3320
 8277TIP3    H146322   2.638   6.084  13.864  0.4062 -0.0575 -0.4357
 8277TIP3    H246323   2.634   6.226  13.811  0.9288  0.4962  0.9580
 8278TIP3   OH246324   2.379   4.215  15.270 -0.3708  0.2370 -0.2250
 8278TIP3    H146325   2.389   4.122  15.289  0.2708  0.4725  0.6430
 8278TIP3    H246326   2.395   4.222  15.175 -3.5257 -0.9454 -0.9514
 8279TIP3   OH246327   0.719   3.665   0.668 -0.1204 -0.2092 -1.1071
 8279TIP3    H146328   0.723   3.727   0.741 -1.0500 -1.2748 -0.1204
 8279TIP3    H246329   0.710   3.721   0.590  0.1443  0.9210 -0.3518
 8280TIP3   OH246330   6.470   0.926   2.946  0.3014 -0.2417 -0.1451
 8280TIP3    H146331   6.462   0.925   2.851 -0.3658  0.2786 -0.0974
 8280TIP3    H246332   6.508   0.841   2.968  2.4018  0.4131 -1.0338
 8281TIP3   OH246333   5.571   1.749  11.872  0.4445 -0.2408 -0.2049
 8281TIP3    H146334   5.629   1.766  11.946 -0.7738 -0.9791  0.9686
 8281TIP3    H246335   5.535   1.835  11.849  0.4295 -0.0787  0.4236
 8282TIP3   OH246336   6.828   6.752  16.733  0.4784  0.1292 -0.2411
 8282TIP3    H146337   6.898   6.807  16.769 -0.1390  0.1097  1.0309
 8282TIP3    H246338   6.749   6.778  16.780 -0.4010  0.1505 -1.6589
 8283TIP3   OH246339   5.355   2.452  15.482 -0.0519 -0.1156  0.1598
 8283TIP3    H146340   5.351   2.536  15.437 -2.1450 -0.0521  0.3849
 8283TIP3    H246341   5.351   2.474  15.575  2.6061 -0.3448  0.4181
 8284TIP3   OH246342   4.674   0.050  16.796 -0.0604  0.0901  0.6744
 8284TIP3    H146343   4.769   0.055  16.796  0.0154 -0.8051  2.5382
 8284TIP3    H246344   4.645   0.122  16.852 -0.3440 -1.1678  2.1828
 8285TIP3   OH246345   5.725   2.969  11.423 -0.0249 -0.2623 -0.1044
 8285TIP3    H146346   5.793   2.927  11.475 -0.0092 -0.3378 -0.1841
 8285TIP3    H246347   5.773   3.018  11.356  0.0278  1.5736  1.2276
 8286TIP3   OH246348   4.264   3.605   0.620  0.5893  0.2251 -0.4048
 8286TIP3    H146349   4.352   3.641   0.616  1.9549 -2.9235 -2.3326
 8286TIP3    H246350   4.223   3.633   0.538 -0.0503  1.1751  0.2153
 8287TIP3   OH246351   1.047   4.255  13.301 -0.2211  0.1404  0.6614
 8287TIP3    H146352   1.133   4.214  13.306 -0.0329  0.2956 -0.9625
 8287TIP3    H246353   0.985   4.182  13.295 -0.3058  0.0043  2.4482
 8288TIP3   OH246354   1.745   1.039  11.716  0.8098  0.1772  0.1124
 8288TIP3    H146355   1.729   0.991  11.634  0.1499  1.5425 -0.6014
 8288TIP3    H246356   1.689   0.996  11.780 -0.4788  0.5241 -0.7271
 8289TIP3   OH246357   1.375   3.355   2.595 -0.1428 -0.2304  0.0025
 8289TIP3    H146358   1.351   3.264   2.583  0.9441 -0.5687  0.2278
 8289TIP3    H246359   1.385   3.365   2.690  0.5563 -0.1129 -0.0735
 8290TIP3   OH246360   6.475   3.645  14.854  0.6081  0.3925 -0.3959
 8290TIP3    H146361   6.571   3.652  14.857  0.6281 -0.0950  0.4566
 8290TIP3    H246362   6.458   3.552  14.869  0.0069  0.4017 -0.9734
 8291TIP3   OH246363   2.380   0.559   3.556  0.0106 -0.4877 -0.1904
 8291TIP3    H146364   2.329   0.528   3.482 -0.8348 -0.2838  0.2983
 8291TIP3    H246365   2.442   0.488   3.575 -0.1941 -0.7996 -0.6908
 8292TIP3   OH246366   2.096   4.403  14.706  0.6173 -0.0146  0.3531
 8292TIP3    H146367   2.160   4.339  14.737 -0.0232 -0.9318 -0.1511
 8292TIP3    H246368   2.011   4.366  14.731  0.0395 -0.9467 -2.5951
 8293TIP3   OH246369   1.299   6.686  12.886 -0.1482 -0.0712  0.7500
 8293TIP3    H146370   1.317   6.752  12.952 -1.5548  1.0152  0.0876
 8293TIP3    H246371   1.374   6.690  12.826  0.1962  0.2784  1.2008
 8294TIP3   OH246372   1.504   6.029   6.487 -0.0753 -0.1489  0.0520
 8294TIP3    H146373   1.564   5.974   6.436  1.5886 -0.1125  1.8797
 8294TIP3    H246374   1.444   6.065   6.421  0.9739 -1.3449 -1.6594
 8295TIP3   OH246375   2.741   5.918  14.531  0.2869  0.4326 -0.0883
 8295TIP3    H146376   2.651   5.887  14.540  0.2601  0.8268  1.1720
 8295TIP3    H246377   2.742   6.001  14.578  0.5367  2.0700 -2.7770
 8296TIP3   OH246378   0.949   0.117   2.330 -0.0872  0.2107  0.1447
 8296TIP3    H146379   0.953   0.212   2.339  0.4287  0.3276 -1.0532
 8296TIP3    H246380   0.862   0.101   2.294 -0.2231  0.2234  0.4714
 8297TIP3   OH246381   2.278   0.098  13.213  0.1585  0.2158 -0.1164
 8297TIP3    H146382   2.283   0.072  13.121  0.0140 -0.9443  0.1861
 8297TIP3    H246383   2.222   0.032  13.254 -1.3093  1.7410  0.4541
 8298TIP3   OH246384   3.156   0.699   2.814  0.2987  0.1086  0.3439
 8298TIP3    H146385   3.168   0.784   2.771  0.4342 -0.6554 -1.1674
 8298TIP3    H246386   3.064   0.677   2.798  0.2756 -0.0603  0.6966
 8299TIP3   OH246387   2.358   6.533  16.837 -0.1238  0.5139 -1.0301
 8299TIP3    H146388   2.397   6.597  16.897  0.2034 -0.9841  0.4043
 8299TIP3    H246389   2.422   6.462  16.832 -0.7740 -0.0277 -2.0779
 8300TIP3   OH246390   3.430   0.637   5.992 -0.1930 -0.0035 -0.1688
 8300TIP3    H146391   3.477   0.606   6.069  0.0379 -1.7421 -0.9543
 8300TIP3    H246392   3.371   0.566   5.969  0.4748 -0.0007 -2.1742
 8301TIP3   OH246393   5.736   0.469   2.382  0.1720  0.2182 -0.2173
 8301TIP3    H146394   5.789   0.433   2.454  0.1872 -0.3550 -0.5154
 8301TIP3    H246395   5.769   0.426   2.304 -0.3635  0.2779 -0.4780
 8302TIP3   OH246396   3.014   4.021  16.606 -0.2846  0.2115  0.3071
 8302TIP3    H146397   3.029   4.106  16.647  0.5539 -0.2219  0.9324
 8302TIP3    H246398   3.050   3.958  16.669 -0.7288 -0.5925 -0.2323
 8303TIP3   OH246399   3.904   5.837   5.971 -0.0346 -0.8648  0.1028
 8303TIP3    H146400   3.828   5.862   6.024  0.8056  1.3524  0.3558
 8303TIP3    H246401   3.869   5.828   5.882 -0.7591 -0.8719  0.3742
 8304TIP3   OH246402   6.405   1.528  12.546  0.0916 -0.3149 -0.0073
 8304TIP3    H146403   6.341   1.597  12.562  0.7054  0.5694 -1.2103
 8304TIP3    H246404   6.451   1.556  12.467  1.2978 -1.4170  0.2735
 8305TIP3   OH246405   6.203   3.775  13.353 -0.2532 -0.5464 -0.3946
 8305TIP3    H146406   6.270   3.708  13.343 -0.8606 -0.9560 -2.0631
 8305TIP3    H246407   6.136   3.734  13.408  0.2786 -0.5737  0.2490
 8306TIP3   OH246408   3.613   2.281   1.069  0.7121  0.0132  0.4028
 8306TIP3    H146409   3.576   2.196   1.092  2.8173 -1.0618  0.0280
 8306TIP3    H246410   3.556   2.315   1.001  0.0600 -1.2839  0.2833
 8307TIP3   OH246411   6.655   4.087  13.567  0.0843 -0.0894 -0.4009
 8307TIP3    H146412   6.650   4.142  13.646 -0.4545 -1.3662  0.4941
 8307TIP3    H246413   6.732   4.119  13.520 -0.5091  1.7599 -0.1825
 8308TIP3   OH246414   3.991   0.031   1.795  0.0042 -0.0022 -0.5574
 8308TIP3    H146415   4.042   0.049   1.873  1.5035 -0.2019 -1.4586
 8308TIP3    H246416   4.030   0.087   1.727  0.3649 -1.6527 -1.7681
 8309TIP3   OH246417   0.204   2.574  14.093  0.6139  0.3897 -0.2837
 8309TIP3    H146418   0.266   2.623  14.147  0.2487  0.9843 -0.3938
 8309TIP3    H246419   0.119   2.596  14.129  0.4935 -0.9415  0.2855
 8310TIP3   OH246420   2.972   4.332   1.325 -0.3583 -0.1638  0.2912
 8310TIP3    H146421   2.997   4.420   1.354 -2.3509  0.8888 -0.9767
 8310TIP3    H246422   2.999   4.330   1.233 -0.2810 -0.9291  0.3262
 8311TIP3   OH246423   4.468   5.747   3.754 -0.0669 -0.3222 -0.1301
 8311TIP3    H146424   4.541   5.709   3.803 -0.3981  0.6532  1.1854
 8311TIP3    H246425   4.393   5.691   3.776 -0.0743 -0.2778 -0.0379
 8312TIP3   OH246426   4.388   2.922   6.106  0.0526 -0.4912 -0.1486
 8312TIP3    H146427   4.358   2.989   6.169  1.3696  0.2853 -0.3040
 8312TIP3    H246428   4.395   2.969   6.023 -0.8490 -1.3078 -0.7058
 8313TIP3   OH246429   6.019   6.248   2.201 -0.3832 -0.1981 -0.4165
 8313TIP3    H146430   6.032   6.215   2.290 -1.9476 -1.1332 -0.4847
 8313TIP3    H246431   6.087   6.206   2.149 -0.8241 -1.4027 -0.0418
 8314TIP3   OH246432   2.781   5.035  13.305  0.2898  0.0088 -0.2545
 8314TIP3    H146433   2.724   4.983  13.362  1.6705 -1.1330  0.1624
 8314TIP3    H246434   2.769   4.998  13.218  1.7875 -1.5948  0.1498
 8315TIP3   OH246435   0.871   3.073  12.445  0.1311 -0.2401  0.0242
 8315TIP3    H146436   0.843   3.163  12.462  0.6339  0.0608 -0.6802
 8315TIP3    H246437   0.894   3.073  12.352 -0.6244 -1.2979 -0.1786
 8316TIP3   OH246438   5.314   3.599   3.421 -0.2864  0.1424 -0.2065
 8316TIP3    H146439   5.273   3.594   3.335  3.1563  0.8483 -2.0739
 8316TIP3    H246440   5.359   3.516   3.431  0.4076  0.5723  0.3212
 8317TIP3   OH246441   2.178   6.626  14.156  0.1436  0.5682  0.7872
 8317TIP3    H146442   2.142   6.681  14.226 -0.1062 -0.3541  1.4019
 8317TIP3    H246443   2.262   6.667  14.134 -0.1085  1.2828  1.1104
 8318TIP3   OH246444   4.217   5.985  13.665 -0.2314 -0.7577  0.0875
 8318TIP3    H146445   4.223   5.985  13.569 -1.4087 -1.8365 -0.0142
 8318TIP3    H246446   4.234   6.075  13.690  0.4227 -0.5272 -1.1228
 8319TIP3   OH246447   5.678   4.525   0.747 -0.4821  0.2488  1.0155
 8319TIP3    H146448   5.740   4.596   0.765  0.2378  0.0827 -0.5771
 8319TIP3    H246449   5.636   4.551   0.665 -0.2481 -1.1099  0.4391
 8320TIP3   OH246450   4.925   0.288   5.246  0.9323  0.0166  0.3812
 8320TIP3    H146451   4.912   0.333   5.163  1.1152 -0.3108  0.1677
 8320TIP3    H246452   4.994   0.224   5.227  0.8672 -0.1639  0.7448
 8321TIP3   OH246453   5.532   2.399  11.364  0.2963 -0.2129  1.1527
 8321TIP3    H146454   5.599   2.335  11.388  0.4225 -0.6014 -0.1936
 8321TIP3    H246455   5.449   2.358  11.390  0.4213 -0.6853  0.8126
 8322TIP3   OH246456   5.048   6.784  12.067  0.1551 -0.4433  0.1604
 8322TIP3    H146457   5.097   6.745  11.995  0.7152  1.7159 -0.7193
 8322TIP3    H246458   4.964   6.738  12.068  0.6497 -1.4154 -0.9824
 8323TIP3   OH246459   1.946   3.345   1.792 -0.5393 -0.4629 -0.0125
 8323TIP3    H146460   1.974   3.412   1.855  1.2258 -0.1440 -1.0502
 8323TIP3    H246461   1.915   3.395   1.716 -1.2062 -0.8411  0.0058
 8324TIP3   OH246462   1.708   5.028   0.526 -0.0193 -0.4436  0.7022
 8324TIP3    H146463   1.784   5.046   0.582  1.1000 -1.9876 -0.2595
 8324TIP3    H246464   1.731   5.065   0.441  0.1959 -1.9480  0.0765
 8325TIP3   OH246465   4.908   0.867  16.685 -0.2272  0.4642 -0.0477
 8325TIP3    H146466   4.914   0.914  16.768  2.3348  0.6598 -0.2631
 8325TIP3    H246467   4.971   0.911  16.628 -1.5369  0.0054 -1.9658
 8326TIP3   OH246468   0.410   4.222   0.675  0.5622 -0.4956  0.3026
 8326TIP3    H146469   0.465   4.202   0.599 -1.1041 -1.6885 -0.6664
 8326TIP3    H246470   0.327   4.253   0.638 -0.0486 -0.4080  1.6537
 8327TIP3   OH246471   4.953   0.124   6.539 -0.1415  0.5488 -0.0123
 8327TIP3    H146472   5.011   0.079   6.600 -0.0661 -1.0031 -1.1881
 8327TIP3    H246473   5.006   0.138   6.461 -0.8956  0.4838 -0.5478
 8328TIP3   OH246474   5.431   6.471  16.258  0.1360  0.9376 -0.4900
 8328TIP3    H146475   5.510   6.490  16.310  0.3751  1.2411 -0.9622
 8328TIP3    H246476   5.407   6.555  16.219 -0.3300  0.8097 -0.4786
 8329TIP3   OH246477   6.076   5.005  11.938  0.3740  0.2494 -0.0080
 8329TIP3    H146478   6.099   5.097  11.922 -1.6124  0.7775 -0.0325
 8329TIP3    H246479   5.981   5.004  11.940  0.3153 -2.0386 -1.1579
 8330TIP3   OH246480   6.763   3.710   5.310  0.6911  0.5470  0.5857
 8330TIP3    H146481   6.746   3.633   5.364 -3.9166 -0.3719 -1.6283
 8330TIP3    H246482   6.734   3.784   5.364 -0.2616  0.0506  0.7810
 8331TIP3   OH246483   0.102   4.696  13.104  0.1728 -0.0382 -0.0392
 8331TIP3    H146484   0.010   4.688  13.078  0.9143 -1.5215 -2.6842
 8331TIP3    H246485   0.101   4.750  13.182 -2.6637  3.0141 -1.9290
 8332TIP3   OH246486   4.474   4.733  16.279  0.1816 -0.0527  0.6702
 8332TIP3    H146487   4.416   4.704  16.209  1.8369  0.6687 -1.0855
 8332TIP3    H246488   4.422   4.798  16.327 -0.7071  0.0666 -0.3977
 8333TIP3   OH246489   2.065   4.024  11.842  0.4927 -0.2449 -0.5701
 8333TIP3    H146490   2.020   4.021  11.757 -0.0884  1.3568 -0.3375
 8333TIP3    H246491   2.034   4.104  11.883  0.8112 -0.9697  1.1597
 8334TIP3   OH246492   4.278   5.322  15.163  0.5508 -0.7898 -0.2506
 8334TIP3    H146493   4.328   5.245  15.192  0.2511 -1.1347 -0.6305
 8334TIP3    H246494   4.195   5.286  15.131  1.2473 -0.5677 -2.5019
 8335TIP3   OH246495   5.024   2.614  16.419 -0.0720  0.4286 -0.0765
 8335TIP3    H146496   5.057   2.617  16.509  1.1484 -1.2537 -0.4147
 8335TIP3    H246497   5.010   2.521  16.402  0.0173  0.6896 -1.7337
 8336TIP3   OH246498   5.838   0.782   0.743 -0.2721 -0.2116 -0.1891
 8336TIP3    H146499   5.872   0.770   0.654  0.3936 -0.4068  0.0819
 8336TIP3    H246500   5.886   0.858   0.776  1.0486 -1.3987  0.7319
 8337TIP3   OH246501   6.319   0.166   4.068  0.4925 -0.1488 -0.5590
 8337TIP3    H146502   6.318   0.202   3.979 -2.4621 -1.6149 -1.2507
 8337TIP3    H246503   6.295   0.074   4.057 -0.2788 -0.2987  1.7626
 8338TIP3   OH246504   2.967   0.631  16.774  0.0056  0.2252 -0.0935
 8338TIP3    H146505   2.996   0.574  16.845 -1.7766 -1.3502 -0.5330
 8338TIP3    H246506   3.045   0.645  16.720  0.4271 -2.2270 -0.2101
 8339TIP3   OH246507   5.004   3.653   1.178 -0.1014 -0.2814 -0.3301
 8339TIP3    H146508   5.058   3.575   1.185  0.2006 -0.0308  0.2122
 8339TIP3    H246509   4.914   3.621   1.184 -0.0031 -0.6457 -0.7388
 8340TIP3   OH246510   2.844   5.221  13.677 -0.1939  0.4991 -0.0350
 8340TIP3    H146511   2.791   5.299  13.686 -0.1100  0.4661  0.8450
 8340TIP3    H246512   2.861   5.192  13.767  2.4183  1.2617 -0.1972
 8341TIP3   OH246513   5.229   0.569   5.717  0.2338  0.0047 -0.0305
 8341TIP3    H146514   5.212   0.620   5.637 -1.3235  0.1256  0.3403
 8341TIP3    H246515   5.297   0.618   5.762 -1.5985  2.1883  0.5949
 8342TIP3   OH246516   5.442   4.585  15.375 -0.3937 -0.5982 -0.8047
 8342TIP3    H146517   5.410   4.505  15.333 -1.4858 -0.6939  0.1548
 8342TIP3    H246518   5.492   4.555  15.451 -0.8758 -0.3885 -0.3941
 8343TIP3   OH246519   2.805   0.744  13.325 -0.3610  0.2220 -0.0511
 8343TIP3    H146520   2.805   0.837  13.347  1.2700  0.4547 -0.8184
 8343TIP3    H246521   2.898   0.721  13.319 -0.7332 -1.2158 -0.8492
 8344TIP3   OH246522   3.618   3.723  11.874 -0.0886  0.4614 -0.0516
 8344TIP3    H146523   3.536   3.715  11.826  0.6448 -1.5964 -1.0987
 8344TIP3    H246524   3.666   3.792  11.829 -1.5774  2.4351  1.2114
 8345TIP3   OH246525   6.448   3.851   0.346 -0.5167 -0.3805 -0.2729
 8345TIP3    H146526   6.526   3.856   0.401  0.5172 -2.4610 -1.4219
 8345TIP3    H246527   6.452   3.929   0.290  1.2164 -0.8423 -0.8507
 8346TIP3   OH246528   2.424   3.558  14.497 -0.0426  0.1193 -0.3629
 8346TIP3    H146529   2.360   3.619  14.534 -0.8476 -0.9762  0.1115
 8346TIP3    H246530   2.499   3.563  14.557 -1.0954 -1.1790  1.1822
 8347TIP3   OH246531   3.134   0.737  11.962  0.2736 -0.0190 -0.1349
 8347TIP3    H146532   3.139   0.719  11.868 -0.2528  0.0165 -0.1732
 8347TIP3    H246533   3.105   0.828  11.967  1.0901  0.2394  0.0618
 8348TIP3   OH246534   0.936   0.960   4.693 -0.3108  0.1650  0.0392
 8348TIP3    H146535   0.883   0.883   4.713  2.2946 -1.8995 -0.4256
 8348TIP3    H246536   0.890   1.003   4.621 -1.9844 -0.7632  0.4849
 8349TIP3   OH246537   4.155   4.635  12.555 -0.2860 -0.2110  0.1357
 8349TIP3    H146538   4.218   4.602  12.619 -0.5355 -1.1208 -0.0725
 8349TIP3    H246539   4.093   4.687  12.607  0.0386 -0.1732  0.4885
 8350TIP3   OH246540   2.402   5.501   5.948  0.3990  0.1903 -0.1686
 8350TIP3    H146541   2.472   5.508   5.883  1.2806  0.8424  0.8117
 8350TIP3    H246542   2.323   5.530   5.902  1.2803  2.1903 -0.5484
 8351TIP3   OH246543   1.303   6.446   2.512  0.0511  0.1894  0.1307
 8351TIP3    H146544   1.290   6.368   2.567 -0.7639 -0.7605 -1.3348
 8351TIP3    H246545   1.215   6.479   2.496 -0.1915 -1.7878 -3.6207
 8352TIP3   OH246546   1.055   6.537   1.852  0.3596  0.1973 -0.1610
 8352TIP3    H146547   1.109   6.615   1.839 -0.0187  0.3028 -1.2126
 8352TIP3    H246548   1.114   6.474   1.894  0.9557  0.7062 -0.2095
 8353TIP3   OH246549   3.879   2.612  12.649  0.2809  0.4066 -0.2820
 8353TIP3    H146550   3.918   2.542  12.702  0.0572  1.0178  0.7237
 8353TIP3    H246551   3.785   2.602  12.663  0.3005  2.3426  1.8623
 8354TIP3   OH246552   5.120   0.367   5.522  0.0145  0.6912  0.4222
 8354TIP3    H146553   5.060   0.304   5.562  0.2636  0.3927  0.3383
 8354TIP3    H246554   5.077   0.452   5.532 -0.9173  0.3645 -0.5509
 8355TIP3   OH246555   3.248   3.235   3.900  0.2602 -0.2279  0.2630
 8355TIP3    H146556   3.203   3.172   3.956 -0.4800 -0.7534 -0.8758
 8355TIP3    H246557   3.331   3.252   3.945 -0.8060  0.3321  2.1305
 8356TIP3   OH246558   0.359   0.610  13.314 -0.7342  0.1323  0.1861
 8356TIP3    H146559   0.291   0.644  13.256 -0.1236 -0.4981 -0.9267
 8356TIP3    H246560   0.364   0.517  13.293  1.2292  0.3656 -0.5590
 8357TIP3   OH246561   2.898   2.240   5.815  0.0422 -0.1834 -0.6849
 8357TIP3    H146562   2.884   2.326   5.774  0.1606 -0.4263 -1.2417
 8357TIP3    H246563   2.965   2.256   5.881  0.2558  0.1038 -0.9674
 8358TIP3   OH246564   5.016   2.879   0.887  0.1903 -0.2839  0.3111
 8358TIP3    H146565   5.096   2.847   0.845  0.5663 -0.4977  1.1739
 8358TIP3    H246566   4.959   2.902   0.814  0.5781 -1.2701 -0.3222
 8359TIP3   OH246567   4.110   5.724   2.005 -0.3804 -0.7356 -0.1684
 8359TIP3    H146568   4.026   5.679   1.998 -0.5004 -0.7382  1.1000
 8359TIP3    H246569   4.104   5.773   2.087  1.4612 -2.0499  0.8323
 8360TIP3   OH246570   1.994   0.452   5.076 -0.6777  0.4021 -0.3664
 8360TIP3    H146571   1.948   0.373   5.104  1.2730 -0.7103 -0.1758
 8360TIP3    H246572   2.002   0.442   4.981  0.6257 -0.2557 -0.2066
 8361TIP3   OH246573   3.404   1.943  10.714  0.7092 -0.1884  0.1559
 8361TIP3    H146574   3.476   1.992  10.755  2.8179 -2.6757 -0.3239
 8361TIP3    H246575   3.405   1.973  10.622  0.3450  0.5849  0.3905
 8362TIP3   OH246576   3.043   3.985  12.543 -0.3144  0.1311 -0.0633
 8362TIP3    H146577   2.996   3.974  12.460 -1.6116 -0.1935  0.7040
 8362TIP3    H246578   3.077   3.897  12.562 -0.8941 -0.0295  0.2568
 8363TIP3   OH246579   5.107   2.954   2.356 -0.9221  0.1084 -0.1773
 8363TIP3    H146580   5.082   2.892   2.425  0.0774  0.2246  0.3102
 8363TIP3    H246581   5.201   2.966   2.368 -0.6134 -0.3086 -1.9322
 8364TIP3   OH246582   3.452   1.637  11.962 -0.0102  0.1336  0.2341
 8364TIP3    H146583   3.379   1.578  11.941  0.3412 -0.3961  0.5011
 8364TIP3    H246584   3.427   1.678  12.045 -0.6998  1.0968 -0.4243
 8365TIP3   OH246585   1.635   3.226   4.612 -0.4816 -0.2784 -0.2450
 8365TIP3    H146586   1.636   3.320   4.631 -0.7629 -0.7654  2.6168
 8365TIP3    H246587   1.566   3.191   4.668 -0.2686 -2.2347 -1.1295
 8366TIP3   OH246588   0.888   3.440  11.475 -0.5016 -0.4725  0.2038
 8366TIP3    H146589   0.858   3.519  11.431  0.8642 -1.1991 -2.2399
 8366TIP3    H246590   0.977   3.426  11.441 -0.4628 -2.6864  1.0582
 8367TIP3   OH246591   2.690   1.913   3.173  0.6437  0.3178 -0.6377
 8367TIP3    H146592   2.747   1.840   3.148  0.1202 -0.0239 -0.8602
 8367TIP3    H246593   2.744   1.991   3.161  1.0058  0.0138 -1.0290
 8368TIP3   OH246594   0.100   0.243  11.250  0.2027 -0.1349  0.2648
 8368TIP3    H146595   0.111   0.229  11.156  1.9245  0.6791  0.2977
 8368TIP3    H246596   0.043   0.319  11.257 -1.2986 -1.1873 -0.0588
 8369TIP3   OH246597   3.525   1.799  13.907  0.5088 -0.4712  0.5730
 8369TIP3    H146598   3.600   1.830  13.958 -0.3379  2.1646  0.3405
 8369TIP3    H246599   3.454   1.791  13.970 -0.0951  1.1595  0.1388
 8370TIP3   OH246600   2.104   0.402  13.835 -0.6429  0.4199 -0.0581
 8370TIP3    H146601   2.162   0.441  13.771 -0.7529  0.8740  0.1115
 8370TIP3    H246602   2.028   0.461  13.838 -1.1416 -0.1966 -0.3264
 8371TIP3   OH246603   3.961   3.181   1.817  0.0338 -0.4960 -0.0644
 8371TIP3    H146604   3.941   3.097   1.776 -0.6541 -0.0601 -0.6407
 8371TIP3    H246605   3.958   3.244   1.745 -0.1270  0.1207  0.4741
 8372TIP3   OH246606   4.261   2.470  15.710 -0.3110  0.2973  0.7197
 8372TIP3    H146607   4.184   2.487  15.654  0.1009  0.7501  0.2834
 8372TIP3    H246608   4.241   2.386  15.752 -0.9691  0.3214  0.4738
 8373TIP3   OH246609   0.308   0.810   1.219 -0.2648 -0.5076  0.1369
 8373TIP3    H146610   0.260   0.872   1.164  3.1574  1.6936 -0.6862
 8373TIP3    H246611   0.298   0.844   1.308 -1.3340 -0.9239  0.1926
 8374TIP3   OH246612   1.311   6.332   0.076 -0.1099  0.3305 -0.2080
 8374TIP3    H146613   1.396   6.375   0.071 -0.3698  1.1023  1.4262
 8374TIP3    H246614   1.248   6.404   0.089 -0.9205 -0.2984 -0.5226
 8375TIP3   OH246615   1.054   6.241  13.647 -0.2132 -0.3646 -0.6192
 8375TIP3    H146616   1.075   6.150  13.669 -1.9751 -0.9731 -1.2687
 8375TIP3    H246617   1.003   6.234  13.566  1.6423  1.4001 -2.0215
 8376TIP3   OH246618   2.362   0.131  14.091  0.2494 -0.0369  0.2808
 8376TIP3    H146619   2.314   0.151  14.172  0.0974 -0.8161  0.4019
 8376TIP3    H246620   2.364   0.035  14.089 -2.0277 -0.1561 -1.9347
 8377TIP3   OH246621   4.691   0.557  14.560  0.1172 -0.2133  0.3462
 8377TIP3    H146622   4.653   0.599  14.483  2.0927  0.7851 -0.1525
 8377TIP3    H246623   4.670   0.464  14.549 -3.0367  0.3336  0.7017
 8378TIP3   OH246624   0.647   4.760   2.402 -0.0290  0.5311  0.3002
 8378TIP3    H146625   0.721   4.789   2.455 -1.0240  0.5110  1.7392
 8378TIP3    H246626   0.677   4.678   2.362  0.5494  0.2544  1.2621
 8379TIP3   OH246627   2.361   5.884  16.177 -0.7482  0.2020  0.0330
 8379TIP3    H146628   2.303   5.839  16.239 -1.0476  2.1267  1.2490
 8379TIP3    H246629   2.322   5.971  16.166  1.0010  0.9805 -0.4122
 8380TIP3   OH246630   4.581   1.851  16.101  0.7005 -0.1938  0.0996
 8380TIP3    H146631   4.557   1.816  16.015 -0.7533  1.0075 -0.0450
 8380TIP3    H246632   4.652   1.795  16.131 -0.2719 -2.0624 -0.8930
 8381TIP3   OH246633   3.593   3.262   5.449  0.3684 -0.2650  0.1904
 8381TIP3    H146634   3.576   3.180   5.496 -0.7578  0.9369  2.0191
 8381TIP3    H246635   3.682   3.286   5.473  0.9208 -1.2373 -0.8385
 8382TIP3   OH246636   3.660   0.980   1.977 -0.3655 -0.1604  0.3098
 8382TIP3    H146637   3.754   0.967   1.992 -0.5340 -1.1548  0.5506
 8382TIP3    H246638   3.652   0.992   1.883 -0.1936 -1.9815  0.0320
 8383TIP3   OH246639   2.686   4.915   2.782  0.1941 -0.5979  0.2133
 8383TIP3    H146640   2.696   4.848   2.850 -0.9760 -2.0441 -0.9852
 8383TIP3    H246641   2.765   4.906   2.729  0.1761 -0.8282  0.2229
 8384TIP3   OH246642   1.026   4.346  11.228  0.5551  0.0041 -0.4479
 8384TIP3    H146643   1.025   4.397  11.309 -1.3711  0.2524 -0.5847
 8384TIP3    H246644   1.099   4.382  11.179 -0.3736  2.2827 -0.2876
 8385TIP3   OH246645   0.843   1.892  15.419 -0.2780  0.6994 -0.1740
 8385TIP3    H146646   0.916   1.853  15.370  0.0501  0.2857  0.6175
 8385TIP3    H246647   0.835   1.981  15.384  0.2618  0.5736 -0.6323
 8386TIP3   OH246648   5.014   4.288   2.048  0.0707 -0.2559 -0.1003
 8386TIP3    H146649   5.066   4.360   2.084 -1.6455 -0.1004  2.3231
 8386TIP3    H246650   5.050   4.209   2.089 -1.0216 -0.2284  0.9728
 8387TIP3   OH246651   2.408   5.876   0.963 -0.0211  0.7960  0.0608
 8387TIP3    H146652   2.342   5.945   0.969 -0.4207  0.3322  1.2067
 8387TIP3    H246653   2.360   5.795   0.979  0.5632  0.2960 -0.6248
 8388TIP3   OH246654   5.216   5.257   2.274  0.1180  0.3105 -0.3157
 8388TIP3    H146655   5.231   5.167   2.247 -2.1510 -0.0029 -0.7016
 8388TIP3    H246656   5.207   5.306   2.192  1.9824  1.0514 -0.1222
 8389TIP3   OH246657   4.294   6.506  13.395 -0.5278 -0.0547 -0.5150
 8389TIP3    H146658   4.363   6.452  13.434  0.4121  0.6119 -1.2235
 8389TIP3    H246659   4.316   6.509  13.302 -0.3191  1.8838 -0.4281
 8390TIP3   OH246660   4.192   2.068   3.511  0.4664  0.5220  0.8833
 8390TIP3    H146661   4.238   2.143   3.473 -0.8495  0.2711 -1.3853
 8390TIP3    H246662   4.195   2.001   3.443 -0.8861 -0.4568  1.7332
 8391TIP3   OH246663   4.990   5.089   1.742  0.0406  1.2714  0.7012
 8391TIP3    H146664   4.919   5.032   1.715 -0.7115  2.8395 -0.8141
 8391TIP3    H246665   4.988   5.088   1.837 -0.2312 -0.8171  0.7099
 8392TIP3   OH246666   0.567   1.383  12.638  0.1752 -0.1832 -0.1356
 8392TIP3    H146667   0.489   1.423  12.675  0.3998 -0.8271  1.1034
 8392TIP3    H246668   0.639   1.438  12.670  0.2043  0.9784 -2.0550
 8393TIP3   OH246669   1.032   4.714   3.215  0.2038 -0.6000  0.1340
 8393TIP3    H146670   1.101   4.670   3.266 -0.2204 -2.1245 -0.5464
 8393TIP3    H246671   1.059   4.702   3.124  0.4321  1.2219 -0.0639
 8394TIP3   OH246672   3.589   1.297  13.407 -0.7519  0.5338 -0.1577
 8394TIP3    H146673   3.597   1.339  13.493  1.5317 -2.1191  1.0847
 8394TIP3    H246674   3.555   1.210  13.426  0.9097 -0.5383 -1.7454
 8395TIP3   OH246675   0.738   1.745   5.092  0.1438 -0.0775 -0.1065
 8395TIP3    H146676   0.757   1.705   5.177  0.7526 -0.8742 -0.6121
 8395TIP3    H246677   0.823   1.776   5.061  0.2686 -1.5453 -1.3151
 8396TIP3   OH246678   2.303   2.882  15.229 -0.1422  0.1238  0.3504
 8396TIP3    H146679   2.319   2.975  15.217  0.8918 -0.0030  0.7034
 8396TIP3    H246680   2.211   2.877  15.256 -0.5579  0.9345 -0.8300
 8397TIP3   OH246681   5.794   2.754   0.664  0.0403 -0.1914  0.1371
 8397TIP3    H146682   5.771   2.737   0.755 -1.8887 -0.6389 -0.3916
 8397TIP3    H246683   5.853   2.682   0.640  1.1173  0.3050  1.1969
 8398TIP3   OH246684   6.715   3.961   1.108 -0.5048  0.4847 -0.1894
 8398TIP3    H146685   6.754   4.040   1.145  1.1398 -1.5718  2.9588
 8398TIP3    H246686   6.773   3.937   1.035 -0.2619  1.4803 -0.3289
 8399TIP3   OH246687   4.494   6.108  16.511  0.1148  0.1176 -0.1131
 8399TIP3    H146688   4.542   6.106  16.594  1.2034  1.0508 -0.6750
 8399TIP3    H246689   4.475   6.201  16.497  2.6035  0.4396 -2.2836
 8400TIP3   OH246690   5.666   1.307   4.097  0.6437  0.1107 -0.3603
 8400TIP3    H146691   5.651   1.399   4.074  0.2158 -0.0403 -0.6824
 8400TIP3    H246692   5.761   1.300   4.105  0.6137  1.1899  2.1586
 8401TIP3   OH246693   6.226   2.371  15.521 -0.4519 -0.2684  0.2227
 8401TIP3    H146694   6.186   2.395  15.438 -0.6762  1.0018  0.6834
 8401TIP3    H246695   6.165   2.309  15.561 -0.4014 -0.7864 -0.4813
 8402TIP3   OH246696   3.711   5.432   2.668 -0.2797  0.0655  0.1685
 8402TIP3    H146697   3.705   5.426   2.764 -2.7179  0.6368  0.1311
 8402TIP3    H246698   3.778   5.369   2.644 -1.3514 -1.9355  2.0788
 8403TIP3   OH246699   4.644   0.195  13.751  0.3688 -1.3473 -0.1483
 8403TIP3    H146700   4.714   0.159  13.697  1.0287  1.0373 -1.0176
 8403TIP3    H246701   4.662   0.289  13.754 -0.6724 -1.1365  2.7601
 8404TIP3   OH246702   0.954   0.551  15.540  0.0726 -0.0859 -0.1705
 8404TIP3    H146703   0.904   0.591  15.469  0.2018  0.3944  0.0087
 8404TIP3    H246704   0.894   0.551  15.614 -1.1625 -3.2487 -0.9696
 8405TIP3   OH246705   5.073   3.013  12.817 -0.1594 -0.4595  0.7323
 8405TIP3    H146706   5.152   3.005  12.870 -0.0605 -2.0590  0.4004
 8405TIP3    H246707   5.103   3.039  12.731 -0.3172  2.1187  1.3942
 8406TIP3   OH246708   2.375   4.558   0.765 -0.2622  0.6324  0.0382
 8406TIP3    H146709   2.463   4.572   0.800 -0.1154  2.9384 -1.0668
 8406TIP3    H246710   2.318   4.614   0.818 -1.2636 -1.4186  1.2454
 8407TIP3   OH246711   2.090   5.648   4.705 -0.1044 -0.0774  0.4135
 8407TIP3    H146712   2.059   5.707   4.637  0.8166  0.4697  0.4428
 8407TIP3    H246713   2.183   5.669   4.714 -0.4083  0.5686  2.5352
 8408TIP3   OH246714   2.476   2.546  16.722  0.6587 -0.0852 -0.0618
 8408TIP3    H146715   2.482   2.474  16.784 -3.1487  0.5018  1.2469
 8408TIP3    H246716   2.514   2.621  16.768  0.0411 -0.1764  0.6002
 8409TIP3   OH246717   6.123   3.592   4.487 -0.2876 -0.4142 -0.9988
 8409TIP3    H146718   6.062   3.577   4.559  1.0933  1.6630  0.7338
 8409TIP3    H246719   6.110   3.517   4.428 -2.5688 -1.3876  0.6050
 8410TIP3   OH246720   3.652   2.938  11.857 -0.8340 -0.1084  0.1868
 8410TIP3    H146721   3.625   3.009  11.799  3.5175  1.2543 -0.5754
 8410TIP3    H246722   3.645   2.974  11.945  1.4618  1.4861 -0.1973
 8411TIP3   OH246723   0.938   0.540   2.916  0.7211 -0.6968 -0.4347
 8411TIP3    H146724   0.964   0.470   2.976 -2.9900 -1.6545  0.3218
 8411TIP3    H246725   0.982   0.618   2.949  0.2449 -1.5547  2.5070
 8412TIP3   OH246726   0.120   2.278   1.330 -0.0256 -0.1721  0.3287
 8412TIP3    H146727   0.093   2.256   1.241  1.0899 -0.4789  0.0537
 8412TIP3    H246728   0.120   2.194   1.376  2.2604 -0.5318 -0.1903
 8413TIP3   OH246729   0.072   0.962   5.762  0.4284 -0.2110 -0.5263
 8413TIP3    H146730   0.109   1.023   5.699  1.2024  0.4435  0.5283
 8413TIP3    H246731  -0.006   1.007   5.795  0.1612 -0.4471 -0.8300
 8414TIP3   OH246732   0.852   6.370  16.055  0.0966  0.1906  0.2143
 8414TIP3    H146733   0.833   6.366  15.961  0.3460 -0.6495  0.1936
 8414TIP3    H246734   0.773   6.408  16.094 -0.4856 -0.5618 -0.2003
 8415TIP3   OH246735   6.408   4.265  12.325  0.4425 -0.4860 -0.5752
 8415TIP3    H146736   6.328   4.237  12.370 -0.4520  0.2184 -1.6725
 8415TIP3    H246737   6.478   4.251  12.389 -0.7277  0.1439  0.8917
 8416TIP3   OH246738   3.689   2.038   0.894 -0.7737  0.2732  0.4232
 8416TIP3    H146739   3.620   2.070   0.952 -0.6175  0.3816  0.5505
 8416TIP3    H246740   3.752   1.995   0.952 -1.5654 -1.3509  0.1505
 8417TIP3   OH246741   3.525   2.651  15.869 -0.4684 -0.3394  0.6559
 8417TIP3    H146742   3.604   2.632  15.918 -0.5526 -2.4258  0.0756
 8417TIP3    H246743   3.474   2.709  15.925  1.9271  2.0045  0.5629
 8418TIP3   OH246744   0.260   4.318   5.590 -0.1023  0.4435  0.1644
 8418TIP3    H146745   0.224   4.365   5.666  0.5308  1.2269 -0.0086
 8418TIP3    H246746   0.303   4.242   5.628  2.5421  2.1758  0.9496
 8419TIP3   OH246747   6.449   3.863   1.061  0.3963 -0.2992 -0.1412
 8419TIP3    H146748   6.439   3.773   1.090  1.5783  0.3472  2.6274
 8419TIP3    H246749   6.544   3.876   1.054  0.4566  1.5050  2.5952
 8420TIP3   OH246750   1.522   2.702  12.011 -0.2622 -0.2143 -0.2630
 8420TIP3    H146751   1.524   2.625  11.954 -0.1999 -0.8368  0.5675
 8420TIP3    H246752   1.432   2.735  12.004  0.2027  0.8376 -2.1500
 8421TIP3   OH246753   0.701   5.874   5.731 -0.2140  0.3728  0.0796
 8421TIP3    H146754   0.738   5.835   5.810 -0.2870  0.4397  0.1470
 8421TIP3    H246755   0.766   5.858   5.663 -0.1245  0.3690  0.1673
 8422TIP3   OH246756   5.668   1.623   4.347  0.4424 -0.3650  0.6134
 8422TIP3    H146757   5.751   1.619   4.299  0.0230 -1.3040 -0.0788
 8422TIP3    H246758   5.683   1.568   4.424  0.4481 -0.5924  0.4521
 8423TIP3   OH246759   5.635   4.265  12.031  0.2209  0.5343  0.5155
 8423TIP3    H146760   5.641   4.194  11.968 -3.2363  0.2278  0.3380
 8423TIP3    H246761   5.722   4.270  12.071  1.8448 -0.8131 -2.5455
 8424TIP3   OH246762   4.100   2.923  15.886  0.1758  0.3497 -0.0103
 8424TIP3    H146763   4.074   2.906  15.977 -0.4536  1.6378  0.0756
 8424TIP3    H246764   4.022   2.906  15.835 -0.3059  2.2326  0.0184
 8425TIP3   OH246765   3.464   0.281   6.810  0.6160  0.7508  0.1776
 8425TIP3    H146766   3.387   0.243   6.853  1.8509 -2.6075 -0.3200
 8425TIP3    H246767   3.433   0.304   6.722 -0.3318  1.6691  0.7234
 8426TIP3   OH246768   3.495   2.176   0.236 -0.2734  0.0635 -0.2666
 8426TIP3    H146769   3.534   2.263   0.226  0.8226 -0.3478  0.3030
 8426TIP3    H246770   3.404   2.188   0.208 -0.5573  1.7361  1.2088
 8427TIP3   OH246771   3.082   4.002   0.271  0.2522 -0.0618 -0.1039
 8427TIP3    H146772   3.137   4.018   0.194 -0.3655  2.4291 -0.1305
 8427TIP3    H246773   2.994   4.023   0.241 -0.0925  0.2717  1.0971
 8428TIP3   OH246774   5.986   0.509   0.224  0.1928  0.3848 -0.2171
 8428TIP3    H146775   6.072   0.468   0.231 -0.0063 -0.0232 -0.1733
 8428TIP3    H246776   5.979   0.534   0.132  0.7282  1.2307 -0.0397
 8429TIP3   OH246777   6.016   0.812  12.030 -0.9574  0.1048  0.6482
 8429TIP3    H146778   6.051   0.814  11.941 -0.7168  0.6403  0.7493
 8429TIP3    H246779   5.998   0.904  12.051 -1.8938 -0.1046  0.8117
 8430TIP3   OH246780   2.639   5.919   2.722 -0.7109 -0.2011 -0.7486
 8430TIP3    H146781   2.636   5.833   2.679  2.2740 -1.4465  1.2539
 8430TIP3    H246782   2.598   5.905   2.807 -3.0837  1.2852 -1.5312
 8431TIP3   OH246783   4.332   2.571   0.586  0.3858 -0.5599  0.4530
 8431TIP3    H146784   4.369   2.539   0.668 -0.9119 -0.6584  1.0350
 8431TIP3    H246785   4.238   2.552   0.593  0.3254 -1.1295 -1.3158
 8432TIP3   OH246786   4.628   5.598  16.208  0.3054 -0.0619 -0.2949
 8432TIP3    H146787   4.609   5.533  16.140  1.7467 -2.0218  1.0347
 8432TIP3    H246788   4.709   5.640  16.178  1.0261 -1.0316  0.2097
 8433TIP3   OH246789   5.663   3.079  12.584 -0.3422  0.4117  0.1074
 8433TIP3    H146790   5.585   3.059  12.532 -0.0662 -1.9448  0.4984
 8433TIP3    H246791   5.731   3.096  12.519  0.2057 -3.2880 -0.5092
 8434TIP3   OH246792   3.845   4.944   4.954 -0.4893  0.2954 -0.5273
 8434TIP3    H146793   3.814   4.915   4.868  1.4914  3.0802 -2.3802
 8434TIP3    H246794   3.936   4.914   4.958 -0.2260  1.1365  0.0793
 8435TIP3   OH246795   0.191   3.578  13.636  0.5128  0.7782  0.2974
 8435TIP3    H146796   0.240   3.570  13.554 -0.2381  0.8286 -0.1665
 8435TIP3    H246797   0.225   3.658  13.677  0.0102  1.4488 -0.5770
 8436TIP3   OH246798   3.845   3.791   2.275 -0.3808  0.6103 -0.0143
 8436TIP3    H146799   3.937   3.768   2.268 -0.6690 -0.9166  0.7213
 8436TIP3    H246800   3.798   3.708   2.263 -1.8106  1.6440 -2.5661
 8437TIP3   OH246801   2.004   6.093  16.412  0.1419 -0.1100  0.3190
 8437TIP3    H146802   1.923   6.114  16.458 -0.0988 -0.1438 -0.0844
 8437TIP3    H246803   1.987   6.119  16.321 -0.1651 -1.9999 -0.2057
 8438TIP3   OH246804   6.453   1.683  12.920 -0.5628 -0.1557  0.3893
 8438TIP3    H146805   6.378   1.703  12.864 -0.1222  1.3679  0.2936
 8438TIP3    H246806   6.434   1.726  13.003  0.0260 -0.0644  0.4847
 8439TIP3   OH246807   6.601   0.987   1.698 -0.0062  0.1672 -0.4193
 8439TIP3    H146808   6.524   1.035   1.727 -0.0868 -0.0816 -0.2150
 8439TIP3    H246809   6.654   1.052   1.652 -2.2605 -0.4356 -4.3929
 8440TIP3   OH246810   3.751   6.183  13.614 -0.4530 -0.5861  0.0667
 8440TIP3    H146811   3.694   6.184  13.691 -0.2505  0.7655  0.2251
 8440TIP3    H246812   3.730   6.265  13.569  1.7767  0.2559  0.4542
 8441TIP3   OH246813   5.408   2.770   2.640  0.1103 -0.3331  0.6531
 8441TIP3    H146814   5.355   2.694   2.667  0.7909 -0.9396  0.3266
 8441TIP3    H246815   5.497   2.746   2.663  0.4029  0.1342  0.0401
 8442TIP3   OH246816   4.039   4.016  13.236 -0.5964  0.0579 -0.4422
 8442TIP3    H146817   3.991   4.044  13.158  1.2848 -3.0071 -2.9650
 8442TIP3    H246818   3.975   3.967  13.287 -1.2426 -0.2174 -1.4755
 8443TIP3   OH246819   4.540   6.109   3.871 -0.0186  0.2411 -0.0551
 8443TIP3    H146820   4.555   6.077   3.960  0.9816  0.7505 -0.0279
 8443TIP3    H246821   4.546   6.204   3.878 -2.1949  0.4275 -0.2718
 8444TIP3   OH246822   3.097   0.690   1.830 -0.6752  0.9623  0.2737
 8444TIP3    H146823   3.071   0.614   1.882 -1.5383  1.3156  0.3813
 8444TIP3    H246824   3.080   0.765   1.887 -2.1187  1.3873 -0.6518
 8445TIP3   OH246825   1.514   0.386   6.773 -0.0849  0.1689 -0.6112
 8445TIP3    H146826   1.514   0.459   6.836 -1.0404  1.0206 -1.5601
 8445TIP3    H246827   1.421   0.372   6.753  0.1062 -1.1679 -0.6313
 8446TIP3   OH246828   1.723   1.159   4.915  0.4740 -0.2046  0.3598
 8446TIP3    H146829   1.691   1.167   4.825 -1.8937  1.3756  1.2295
 8446TIP3    H246830   1.748   1.067   4.924  0.7757 -0.3982 -1.8778
 8447TIP3   OH246831   4.817   3.179  10.899  0.1532 -0.4578 -0.0897
 8447TIP3    H146832   4.904   3.214  10.881  0.1980 -0.0684  0.8209
 8447TIP3    H246833   4.820   3.089  10.867  0.5499 -0.1260 -1.0133
 8448TIP3   OH246834   0.594   0.983   6.094  0.5597  0.0248  0.3749
 8448TIP3    H146835   0.569   0.994   6.002  1.1199 -1.1281  0.0544
 8448TIP3    H246836   0.517   1.010   6.144 -0.0718 -0.1605 -0.4722
 8449TIP3   OH246837   0.141   5.642  13.998 -0.0540  0.1022  0.0569
 8449TIP3    H146838   0.077   5.655  13.928  1.3198  0.5510 -1.1430
 8449TIP3    H246839   0.110   5.563  14.043 -2.2507  1.1007  0.4391
 8450TIP3   OH246840   4.791   0.478  12.017 -0.1597  0.0793  0.1334
 8450TIP3    H146841   4.776   0.432  11.935  0.1744  1.1580 -0.5527
 8450TIP3    H246842   4.784   0.410  12.084 -0.2898 -0.8458 -0.7915
 8451TIP3   OH246843   5.050   2.788   5.423 -0.1041 -0.7022 -0.6141
 8451TIP3    H146844   5.031   2.867   5.372  2.2808 -0.1253 -0.7754
 8451TIP3    H246845   5.005   2.717   5.377 -0.6367  0.2905 -1.6511
 8452TIP3   OH246846   0.706   3.268  10.480  0.1206  0.2825  0.0603
 8452TIP3    H146847   0.703   3.355  10.439  0.3977  0.7994  1.1117
 8452TIP3    H246848   0.771   3.219  10.429  0.4601  0.9127 -0.1179
 8453TIP3   OH246849   2.256   3.769  12.260  0.6686  0.3960  0.2151
 8453TIP3    H146850   2.195   3.737  12.193  0.0911  0.6556  0.6097
 8453TIP3    H246851   2.249   3.704  12.330 -1.0045  1.6630  1.3063
 8454TIP3   OH246852   6.680   6.684   2.744 -0.3973 -1.0554 -0.1544
 8454TIP3    H146853   6.681   6.777   2.767  0.2297 -1.2105  0.4526
 8454TIP3    H246854   6.766   6.667   2.707  0.5787 -2.0239  2.3611
 8455TIP3   OH246855   1.177   2.568   5.692  0.0668  0.4745  0.1732
 8455TIP3    H146856   1.180   2.664   5.685  0.3001  0.4148 -0.7139
 8455TIP3    H246857   1.182   2.550   5.786  1.9260  1.2693  0.2640
 8456TIP3   OH246858   4.199   1.619   0.635 -0.6479  0.3533 -0.1606
 8456TIP3    H146859   4.131   1.561   0.602 -2.2912  1.7117  0.6935
 8456TIP3    H246860   4.154   1.679   0.694  1.0785  2.0722 -0.4603
 8457TIP3   OH246861   5.011   6.242  16.376 -0.3749  0.3307  0.1558
 8457TIP3    H146862   4.962   6.209  16.301  0.8777 -0.7259 -0.2391
 8457TIP3    H246863   5.059   6.318  16.342  0.2992 -0.2304 -0.1676
 8458TIP3   OH246864   5.311   4.024  13.596 -0.1214 -0.2621 -0.3798
 8458TIP3    H146865   5.377   4.087  13.624 -0.5245  0.3705 -0.8238
 8458TIP3    H246866   5.230   4.054  13.635 -0.1492 -1.0764  0.2196
 8459TIP3   OH246867   4.142   5.917  15.177 -0.2684  0.0280  0.7199
 8459TIP3    H146868   4.110   5.968  15.103  1.2374  2.3378  1.5624
 8459TIP3    H246869   4.075   5.849  15.190 -2.0788  1.4177 -0.8394
 8460TIP3   OH246870   0.294   4.809   4.008 -0.2116 -0.5692 -0.0844
 8460TIP3    H146871   0.298   4.874   3.938 -0.9826 -0.0345  0.3503
 8460TIP3    H246872   0.245   4.736   3.970 -3.0949  0.8206  0.6860
 8461TIP3   OH246873   0.144   2.074  16.186 -0.2395  0.0823 -0.0159
 8461TIP3    H146874   0.152   2.169  16.194  4.9842 -0.1582  1.6470
 8461TIP3    H246875   0.054   2.054  16.212 -1.6593  4.4877 -0.7899
 8462TIP3   OH246876   1.064   1.302   5.283 -0.0009  0.2266  0.1386
 8462TIP3    H146877   1.136   1.241   5.303 -0.4795 -0.2465  0.4658
 8462TIP3    H246878   0.985   1.251   5.302 -0.5133 -0.0946 -2.4735
 8463TIP3   OH246879   6.151   2.526   1.105 -0.6204 -0.4217 -0.0378
 8463TIP3    H146880   6.174   2.475   1.028  2.5967  1.7206 -0.6843
 8463TIP3    H246881   6.119   2.609   1.071  0.7166  0.5061  0.8557
 8464TIP3   OH246882   6.385   1.428  12.988  0.0668 -0.2115  0.2464
 8464TIP3    H146883   6.393   1.377  12.907  0.7334 -0.6440  0.5765
 8464TIP3    H246884   6.425   1.512  12.967 -0.1892 -0.1527 -0.0158
 8465TIP3   OH246885   4.002   4.497  14.398  0.4081  0.1880 -0.7072
 8465TIP3    H146886   4.032   4.493  14.307 -0.8242  0.5892 -1.1517
 8465TIP3    H246887   4.043   4.422  14.440 -0.2630 -0.9391 -1.9935
 8466TIP3   OH246888   4.264   2.276  12.685 -0.1149 -0.2642 -0.0176
 8466TIP3    H146889   4.177   2.241  12.707  0.4159 -0.6623  1.5543
 8466TIP3    H246890   4.245   2.351  12.627 -1.4767 -0.5864 -0.0345
 8467TIP3   OH246891   2.804   2.387  12.059  0.5783 -0.1029 -0.5947
 8467TIP3    H146892   2.857   2.387  12.139  0.8020  1.0124 -0.7243
 8467TIP3    H246893   2.789   2.295  12.040  1.9916 -0.4343 -0.2174
 8468TIP3   OH246894   0.218   0.706  15.266  0.4952  0.2178  0.2069
 8468TIP3    H146895   0.194   0.615  15.246 -1.2940  0.2335  1.9348
 8468TIP3    H246896   0.134   0.753  15.266  1.5059  2.3696 -2.5272
 8469TIP3   OH246897   6.459   2.411   2.158  0.1315 -0.0542  0.3156
 8469TIP3    H146898   6.447   2.340   2.095  0.9003  0.3203 -0.2736
 8469TIP3    H246899   6.372   2.425   2.196 -0.4947  0.1477 -1.1373
 8470TIP3   OH246900   2.387   0.221   2.067 -0.3173 -0.0397 -0.9652
 8470TIP3    H146901   2.316   0.174   2.112  1.0158  0.2319  1.5911
 8470TIP3    H246902   2.462   0.214   2.126  1.2314  1.4112 -2.6371
 8471TIP3   OH246903   0.605   3.864   1.961  0.4345 -0.4527  0.6432
 8471TIP3    H146904   0.639   3.860   2.050  0.9444  1.8386  0.6058
 8471TIP3    H246905   0.523   3.816   1.965  0.8463 -1.0948  2.1430
 8472TIP3   OH246906   5.087   3.895  11.995  0.7276  0.2016 -0.7516
 8472TIP3    H146907   5.070   3.845  12.076 -0.3510 -0.4793 -1.3667
 8472TIP3    H246908   5.156   3.957  12.019  1.5927 -1.0839  0.2491
 8473TIP3   OH246909   3.649   4.751  12.445 -0.4454  0.5084  0.1761
 8473TIP3    H146910   3.567   4.765  12.397 -0.4187  1.0304  0.2862
 8473TIP3    H246911   3.696   4.833  12.438  0.2157  0.1140 -0.1429
 8474TIP3   OH246912   5.865   0.947  16.116 -0.2179 -0.3887 -0.4817
 8474TIP3    H146913   5.944   0.977  16.161 -1.0427  1.6143 -0.2946
 8474TIP3    H246914   5.897   0.882  16.053  1.4406 -0.3548  0.2840
 8475TIP3   OH246915   0.023   4.545   1.896  0.2285  0.6178  0.0977
 8475TIP3    H146916  -0.011   4.614   1.953 -0.5636 -0.2758  0.7356
 8475TIP3    H246917   0.090   4.501   1.948  0.0399  0.2902  0.0696
 8476TIP3   OH246918   6.290   0.347   4.548  0.0862 -0.0730  0.0276
 8476TIP3    H146919   6.271   0.341   4.454  0.6116  2.3417 -0.3004
 8476TIP3    H246920   6.309   0.257   4.575  1.9768 -0.5878 -2.6271
 8477TIP3   OH246921   2.988   6.747   1.913  0.1711  0.2601  0.0371
 8477TIP3    H146922   3.030   6.815   1.860  0.2090  0.0259 -0.2362
 8477TIP3    H246923   3.060   6.701   1.954  0.1416  2.8140  3.3986
 8478TIP3   OH246924   6.459   4.225   2.538  0.4276 -0.0657  0.5903
 8478TIP3    H146925   6.416   4.149   2.577 -0.3961 -0.5877 -1.2237
 8478TIP3    H246926   6.432   4.298   2.594  0.8326 -1.0052  2.0819
 8479TIP3   OH246927   2.438   1.735   0.380 -0.1689  0.2318 -0.8056
 8479TIP3    H146928   2.512   1.683   0.412 -0.2182  0.9151  0.4835
 8479TIP3    H246929   2.460   1.825   0.402 -0.5174  0.6706 -2.1606
 8480TIP3   OH246930   5.682   2.069   1.961  0.6414 -0.1452 -0.7331
 8480TIP3    H146931   5.669   2.008   1.888  1.1094  0.9716 -1.8006
 8480TIP3    H246932   5.741   2.136   1.925  1.6013 -0.0202  0.9609
 8481TIP3   OH246933   6.727   4.029  16.949 -0.0367 -0.2384  0.4186
 8481TIP3    H146934   6.691   4.036  17.037 -1.9695 -0.1463 -0.3292
 8481TIP3    H246935   6.775   4.110  16.936 -0.3050  0.0435  1.1441
 8482TIP3   OH246936   0.699   6.241   7.011  0.6494 -0.4498  0.3120
 8482TIP3    H146937   0.770   6.261   7.072  1.9231  0.4737 -1.3594
 8482TIP3    H246938   0.680   6.325   6.969 -0.5268 -0.9546 -0.2108
 8483TIP3   OH246939   1.308   2.161  16.082  0.0836  0.5218  0.4286
 8483TIP3    H146940   1.375   2.148  16.149  0.2844  0.7315  0.2635
 8483TIP3    H246941   1.271   2.073  16.069  0.7804  0.2835  0.0274
 8484TIP3   OH246942   4.593   4.504  10.851  0.8433  0.0140  0.2866
 8484TIP3    H146943   4.532   4.450  10.802 -0.9767  1.4258  0.8666
 8484TIP3    H246944   4.643   4.551  10.785  1.5142 -1.3313 -0.1979
 8485TIP3   OH246945   4.755   4.851  15.817 -0.1271  0.5569 -0.3029
 8485TIP3    H146946   4.678   4.833  15.871  0.8081  0.0457  0.9336
 8485TIP3    H246947   4.813   4.900  15.875  0.5595  0.7622 -1.1485
 8486TIP3   OH246948   6.536   6.346  10.949  0.2503 -0.1940 -0.5318
 8486TIP3    H146949   6.599   6.295  10.898  0.3281 -1.4709  0.7456
 8486TIP3    H246950   6.460   6.288  10.958 -0.2522  0.4917 -0.2772
 8487TIP3   OH246951   3.539   4.700   1.572  0.0433  0.0622  0.2070
 8487TIP3    H146952   3.523   4.758   1.646 -0.6573  0.5762 -0.3347
 8487TIP3    H246953   3.517   4.612   1.604 -0.7181  0.3448  0.4581
 8488TIP3   OH246954   1.003   2.828  12.587  0.2144  0.3242 -0.4877
 8488TIP3    H146955   0.994   2.890  12.514  0.8202  0.1777 -0.6892
 8488TIP3    H246956   0.915   2.793  12.598  0.0160  0.6899 -0.8465
 8489TIP3   OH246957   3.371   1.859  15.612 -0.0181 -0.8437  0.4478
 8489TIP3    H146958   3.324   1.919  15.553 -1.7663 -1.5088  1.1012
 8489TIP3    H246959   3.460   1.857  15.577 -0.6965 -0.2977 -1.4702
 8490TIP3   OH246960   0.342   3.976   2.222 -0.3751  0.1748 -0.3744
 8490TIP3    H146961   0.346   3.898   2.166  1.0793  0.3039 -0.5039
 8490TIP3    H246962   0.264   3.963   2.276  0.5569 -2.0556  0.5444
 8491TIP3   OH246963   1.039   6.621   2.974  0.1536 -0.5051  0.2422
 8491TIP3    H146964   1.083   6.537   2.963  0.3984 -0.1630 -2.0083
 8491TIP3    H246965   0.959   6.613   2.922  0.8943  1.0762 -1.2839
 8492TIP3   OH246966   0.474   3.913   0.175 -0.2463  0.0547 -0.1559
 8492TIP3    H146967   0.471   3.963   0.256 -1.7849  0.0484 -0.1625
 8492TIP3    H246968   0.397   3.856   0.180 -0.4880  0.1998 -1.6919
 8493TIP3   OH246969   5.635   0.302   1.556  0.0114  0.5427 -0.0350
 8493TIP3    H146970   5.566   0.326   1.494 -0.1563 -1.3447 -0.6498
 8493TIP3    H246971   5.619   0.356   1.633 -0.6283  1.9258 -1.1083
 8494TIP3   OH246972   0.579   0.934  11.359  0.0684  0.3533 -0.4528
 8494TIP3    H146973   0.632   0.897  11.430 -1.2464  0.1674  0.4601
 8494TIP3    H246974   0.489   0.923  11.388 -0.5577 -0.4823 -2.5098
 8495TIP3   OH246975   1.046   5.231  12.179 -0.5892  0.0175 -0.1532
 8495TIP3    H146976   1.006   5.193  12.101  0.2315 -0.2840 -0.4281
 8495TIP3    H246977   1.033   5.325  12.168  1.4524  0.1777 -1.7659
 8496TIP3   OH246978   5.886   1.516  10.444 -1.2816  0.0071  0.1536
 8496TIP3    H146979   5.822   1.502  10.374 -1.5859 -0.2141  0.4713
 8496TIP3    H246980   5.917   1.428  10.466  0.2194  0.2134 -0.9908
 8497TIP3   OH246981   2.982   1.564  12.661 -0.2667  0.1179  0.1167
 8497TIP3    H146982   3.067   1.562  12.617  0.3797 -0.0757  1.3291
 8497TIP3    H246983   2.919   1.585  12.591  0.8035  0.5859 -0.7373
 8498TIP3   OH246984   0.055   2.413   3.106  0.1652 -0.2743  0.6313
 8498TIP3    H146985   0.072   2.493   3.056  1.1685 -0.4141  0.7211
 8498TIP3    H246986   0.055   2.343   3.041  0.4409 -0.3336  0.6931
 8499TIP3   OH246987   3.492   4.040   5.840  0.4153 -0.3019 -0.1543
 8499TIP3    H146988   3.435   4.111   5.809  0.6036 -0.7836 -1.7033
 8499TIP3    H246989   3.506   4.059   5.933  0.7721  1.8895 -0.6130
 8500TIP3   OH246990   4.916   2.038   4.553 -0.4248 -0.5296  0.0380
 8500TIP3    H146991   4.928   1.959   4.605 -2.9130 -0.0758  1.4441
 8500TIP3    H246992   4.935   2.110   4.613 -0.0834 -0.0269 -0.6552
 8501TIP3   OH246993   3.655   4.333  13.802  0.0437  0.2751  0.1014
 8501TIP3    H146994   3.665   4.404  13.865 -0.0018  1.1636 -0.8635
 8501TIP3    H246995   3.734   4.337  13.748  0.2789 -0.7388  0.3483
 8502TIP3   OH246996   2.732   2.818   1.402 -0.3282  0.1825  0.1371
 8502TIP3    H146997   2.688   2.756   1.461 -0.0221 -0.2821 -0.1154
 8502TIP3    H246998   2.690   2.902   1.420 -1.6449 -0.3295 -0.4242
 8503TIP3   OH246999   2.691   6.840   0.051  0.1022  0.6914  0.4678
 8503TIP3    H147000   2.751   6.771   0.078 -0.4414 -1.5110 -3.2541
 8503TIP3    H247001   2.748   6.907   0.013  0.4418  0.4190  0.4902
 8504TIP3   OH247002   1.582   6.665  12.784  0.3478  0.4896 -0.3827
 8504TIP3    H147003   1.637   6.598  12.743  0.6141 -0.0516  0.8225
 8504TIP3    H247004   1.568   6.730  12.715  0.3130 -0.6574 -1.5056
 8505TIP3   OH247005   3.725   3.553   5.013 -0.0007 -0.2116 -0.0676
 8505TIP3    H147006   3.662   3.532   5.082 -0.4838  0.4225 -0.3085
 8505TIP3    H247007   3.739   3.469   4.968  0.3069 -0.6219  0.7792
 8506TIP3   OH247008   0.075   5.222  14.947  0.1874 -0.7682 -0.2443
 8506TIP3    H147009   0.069   5.174  15.030 -0.1189 -1.0327 -0.4173
 8506TIP3    H247010  -0.013   5.216  14.910 -0.8354  2.6511  1.2364
 8507TIP3   OH247011   1.258   0.199   0.434 -0.0146  0.2214 -0.0930
 8507TIP3    H147012   1.349   0.197   0.462  0.1931 -0.5646 -0.7717
 8507TIP3    H247013   1.225   0.283   0.465  0.9053  0.4641  0.2599
 8508TIP3   OH247014   0.855   0.947  14.799 -0.2745 -0.3011  0.0627
 8508TIP3    H147015   0.833   0.859  14.829  0.6329 -0.5707 -0.0229
 8508TIP3    H247016   0.771   0.993  14.795 -0.6029 -0.7411  1.4238
 8509TIP3   OH247017   2.555   2.715  14.512 -0.0650  0.8325 -0.5629
 8509TIP3    H147018   2.569   2.621  14.520 -0.8852  0.7889  0.5492
 8509TIP3    H247019   2.527   2.727  14.421  0.3336  0.0567 -0.7993
 8510TIP3   OH247020   1.651   4.634   4.441 -0.3001  0.1550 -0.0301
 8510TIP3    H147021   1.731   4.624   4.389 -1.3576  1.2344 -1.9392
 8510TIP3    H247022   1.627   4.544   4.466  1.4696 -0.1895  0.5935
 8511TIP3   OH247023   1.481   2.645  13.466  0.6080 -0.0874 -0.0349
 8511TIP3    H147024   1.472   2.567  13.412  0.6393 -1.4781  1.8946
 8511TIP3    H247025   1.560   2.631  13.518 -0.7859 -0.0138  2.2255
 8512TIP3   OH247026   3.050   5.994   3.599  0.1881 -0.2043 -0.0798
 8512TIP3    H147027   2.971   6.035   3.563 -0.9015 -2.0538  0.0921
 8512TIP3    H247028   3.053   6.024   3.690 -0.9869 -1.0116  0.2453
 8513TIP3   OH247029   0.719   4.247  15.792 -0.9113  0.7913  0.8936
 8513TIP3    H147030   0.700   4.332  15.833  0.1960  1.8216 -0.6280
 8513TIP3    H247031   0.721   4.266  15.698  1.6348 -0.4004  0.6234
 8514TIP3   OH247032   6.775   2.369  13.500  0.1554 -0.1336  0.1746
 8514TIP3    H147033   6.865   2.386  13.475  0.3964  1.2842  1.7934
 8514TIP3    H247034   6.772   2.276  13.521  0.8956 -0.4677 -1.1054
 8515TIP3   OH247035   0.048   3.288   1.157  0.5161  0.1374 -0.0648
 8515TIP3    H147036   0.025   3.285   1.064  0.0377 -1.4092  0.0811
 8515TIP3    H247037   0.144   3.289   1.158  0.5284 -0.2775 -0.5745
 8516TIP3   OH247038   4.872   5.850  15.557  0.1173  0.6250  0.2587
 8516TIP3    H147039   4.889   5.798  15.478 -0.5229  1.3218 -0.3517
 8516TIP3    H247040   4.898   5.939  15.533 -1.3533  1.1053  0.3616
 8517TIP3   OH247041   2.354   2.606  14.003 -0.1978 -0.0519  0.0921
 8517TIP3    H147042   2.325   2.526  13.959  1.7838 -0.4714 -0.5432
 8517TIP3    H247043   2.376   2.665  13.931 -0.0584  0.4610  0.5565
 8518TIP3   OH247044   5.529   1.433   2.369 -0.3451 -0.0422  0.0987
 8518TIP3    H147045   5.530   1.421   2.464 -2.2710  1.5726  0.3760
 8518TIP3    H247046   5.538   1.344   2.334 -1.2220 -0.8439  1.7974
 8519TIP3   OH247047   1.787   2.155  15.597 -0.2127 -0.2681 -0.3206
 8519TIP3    H147048   1.794   2.089  15.529  0.5680  0.2881 -0.7976
 8519TIP3    H247049   1.808   2.238  15.553  1.6470 -0.0582  0.8422
 8520TIP3   OH247050   4.196   6.772  12.028 -0.6223  0.3850 -0.2614
 8520TIP3    H147051   4.144   6.802  12.102 -1.1183 -0.4153 -0.2767
 8520TIP3    H247052   4.161   6.818  11.952 -0.3928  0.8832 -0.0698
 8521TIP3   OH247053   4.946   5.525  10.980  0.0053 -0.0277 -0.1981
 8521TIP3    H147054   4.858   5.546  11.012  0.4564  0.9252  0.4787
 8521TIP3    H247055   4.944   5.430  10.967 -0.6990 -0.2419  1.1964
 8522TIP3   OH247056   2.281   1.807  13.117 -0.7496 -0.1241 -0.6345
 8522TIP3    H147057   2.212   1.873  13.114 -2.5078 -1.8881 -1.1738
 8522TIP3    H247058   2.323   1.819  13.202 -1.8673  0.8491 -0.1959
 8523TIP3   OH247059   6.811   6.247   0.678  0.5537 -0.0726 -0.4080
 8523TIP3    H147060   6.751   6.177   0.700 -0.2746  0.4548 -0.9429
 8523TIP3    H247061   6.881   6.241   0.744 -1.0394  0.4843  1.4150
 8524TIP3   OH247062   5.735   4.004   1.573 -0.5866  0.1840  0.3736
 8524TIP3    H147063   5.650   4.009   1.530 -0.2477 -0.8416 -0.4543
 8524TIP3    H247064   5.724   3.936   1.640 -0.2790 -0.3456 -0.1020
 8525TIP3   OH247065   5.786   6.603   5.912  0.9613  0.5585  0.7480
 8525TIP3    H147066   5.699   6.566   5.897  1.8458 -1.5088  0.2862
 8525TIP3    H247067   5.780   6.647   5.996 -0.4526  0.1949  0.8590
 8526TIP3   OH247068   3.000   4.135  16.901  0.3058 -0.2739  0.2983
 8526TIP3    H147069   2.921   4.189  16.904  0.5232  0.1006 -0.5186
 8526TIP3    H247070   2.967   4.045  16.895 -0.0566 -0.2557  1.5735
 8527TIP3   OH247071   0.442   3.152  15.848 -0.3201 -0.6156 -0.1969
 8527TIP3    H147072   0.360   3.198  15.867  0.0936  0.6152 -1.2592
 8527TIP3    H247073   0.486   3.207  15.783  0.6733 -2.0133 -0.7544
 8528TIP3   OH247074   6.052   5.031  12.317 -0.0164  0.1583  0.2644
 8528TIP3    H147075   6.013   4.949  12.287 -0.5788  0.0860  1.1545
 8528TIP3    H247076   5.980   5.095  12.314  0.6066  0.8372 -1.1916
 8529TIP3   OH247077   5.460   0.678   5.859 -0.4967 -0.6252  0.5332
 8529TIP3    H147078   5.480   0.679   5.952 -0.8186  1.4527  0.6143
 8529TIP3    H247079   5.429   0.766   5.839 -0.8123 -1.1264 -1.4679
 8530TIP3   OH247080   5.078   4.544   6.305 -0.3138 -0.5002  0.4987
 8530TIP3    H147081   5.071   4.465   6.359 -1.3576  0.4464  1.7995
 8530TIP3    H247082   5.016   4.606   6.344 -0.4967  0.5203 -1.3022
 8531TIP3   OH247083   5.371   3.452  13.200 -0.0690 -0.7524  0.1607
 8531TIP3    H147084   5.443   3.496  13.154  0.2855 -0.3151  1.0939
 8531TIP3    H247085   5.312   3.524  13.225 -1.3107 -1.2014 -1.3896
 8532TIP3   OH247086   5.418   5.747   0.363 -0.8637  0.0055  0.2803
 8532TIP3    H147087   5.336   5.786   0.334 -1.4655 -0.3505  1.4037
 8532TIP3    H247088   5.429   5.778   0.453  1.5544  2.0756 -0.6142
 8533TIP3   OH247089   3.286   2.851   4.660 -0.0227 -0.2134  0.5123
 8533TIP3    H147090   3.346   2.903   4.713  0.2865 -0.4879  0.4393
 8533TIP3    H247091   3.299   2.882   4.570 -1.2100  0.8886  0.6927
 8534TIP3   OH247092   0.407   2.149   0.005 -0.5704  0.0626 -0.4765
 8534TIP3    H147093   0.382   2.210  -0.065  0.4790  0.9652 -0.1026
 8534TIP3    H247094   0.503   2.146   0.001 -0.4104  0.9302  1.5629
 8535TIP3   OH247095   2.335   5.765   2.834  0.2780  0.7658  0.2043
 8535TIP3    H147096   2.413   5.718   2.804 -0.3328 -0.7966  0.9719
 8535TIP3    H247097   2.279   5.772   2.757  0.5380  0.5800  0.0009
 8536TIP3   OH247098   5.889   1.874   3.445 -0.0382  0.4339  0.0752
 8536TIP3    H147099   5.795   1.857   3.454 -0.1996  0.7023 -0.9019
 8536TIP3    H247100   5.930   1.789   3.458 -0.3757  0.4146  1.0360
 8537TIP3   OH247101   1.136   0.965   5.442 -0.1958  0.1430  0.2394
 8537TIP3    H147102   1.113   0.924   5.526  0.5572 -3.7231 -1.2477
 8537TIP3    H247103   1.230   0.951   5.434  0.1339  2.3626 -0.4109
 8538TIP3   OH247104   1.536   5.186  15.992 -0.2400  0.2872  0.0871
 8538TIP3    H147105   1.544   5.186  16.087 -1.4579 -1.6102  0.2352
 8538TIP3    H247106   1.442   5.196  15.975 -0.3480 -1.7692 -0.8009
 8539TIP3   OH247107   4.394   3.109   5.389  0.1412  0.4719 -0.8497
 8539TIP3    H147108   4.461   3.177   5.387  0.3719  0.2344 -3.3527
 8539TIP3    H247109   4.317   3.150   5.351 -0.6834  0.2249  0.4676
 8540TIP3   OH247110   6.777   1.267  11.754  0.9994 -0.7603  0.2140
 8540TIP3    H147111   6.795   1.202  11.822 -2.4829 -4.3180 -1.8208
 8540TIP3    H247112   6.849   1.257  11.692 -0.0514 -3.9598 -0.7166
 8541TIP3   OH247113   3.477   2.089   1.519  0.0484  0.4437  0.0446
 8541TIP3    H147114   3.485   2.056   1.608 -0.3963  0.5699  0.1354
 8541TIP3    H247115   3.383   2.107   1.508 -0.5556 -2.9417 -1.6279
 8542TIP3   OH247116   0.941   0.060   0.143  0.2651 -0.2219  0.8662
 8542TIP3    H147117   1.015   0.121   0.131  1.0022 -1.0926  0.8939
 8542TIP3    H247118   0.871   0.098   0.090  1.2861 -0.2952 -0.6149
 8543TIP3   OH247119   6.531   1.856   0.341 -0.1471  0.0691 -0.3595
 8543TIP3    H147120   6.490   1.865   0.254  0.2370  2.1758 -0.3845
 8543TIP3    H247121   6.624   1.875   0.325 -0.3167  2.0873  0.6955
 8544TIP3   OH247122   4.670   3.222  12.588 -0.1628 -0.8654  0.1849
 8544TIP3    H147123   4.578   3.195  12.593  0.4632 -3.2876 -0.0212
 8544TIP3    H247124   4.683   3.246  12.497 -0.4121 -1.2320  0.0517
 8545TIP3   OH247125   2.220   3.740   0.804  0.7293  0.3431  0.3454
 8545TIP3    H147126   2.133   3.712   0.776  0.8253 -0.2810  0.6523
 8545TIP3    H247127   2.279   3.700   0.740  0.9238 -0.8070  1.2022
 8546TIP3   OH247128   4.665   4.842   4.665  0.6944  0.1315  0.0772
 8546TIP3    H147129   4.572   4.819   4.673  0.3319 -0.0163 -3.0688
 8546TIP3    H247130   4.670   4.932   4.697 -0.8769  0.6487 -0.9969
 8547TIP3   OH247131   5.388   3.555  14.570 -0.1950 -0.5176 -0.0741
 8547TIP3    H147132   5.315   3.563  14.631 -0.6231  0.3219 -0.6783
 8547TIP3    H247133   5.347   3.533  14.486  0.2465 -0.1305 -0.3963
 8548TIP3   OH247134   2.008   5.345  14.650 -0.3411  0.2661  0.3873
 8548TIP3    H147135   2.055   5.286  14.591 -1.4545 -1.8055  1.4384
 8548TIP3    H247136   1.965   5.407  14.592 -1.1471 -1.5021 -1.0306
 8549TIP3   OH247137   0.717   2.481  12.034 -0.0816  0.2333 -0.5245
 8549TIP3    H147138   0.809   2.502  12.049  0.3015 -0.3466 -1.8957
 8549TIP3    H247139   0.669   2.549  12.081  1.0370  0.6128  0.1218
 8550TIP3   OH247140   5.201   5.654  11.614  0.1080 -0.0026  0.5010
 8550TIP3    H147141   5.114   5.670  11.579 -0.3673  0.1521  1.7161
 8550TIP3    H247142   5.233   5.577  11.567 -0.6847 -0.0628  0.0555
 8551TIP3   OH247143   5.002   5.724   5.040  0.5596 -0.4493  0.1276
 8551TIP3    H147144   4.997   5.678   5.123 -1.2788  0.1771  0.4192
 8551TIP3    H247145   5.051   5.666   4.982  0.0555 -1.8467  1.0615
 8552TIP3   OH247146   6.531   6.536  12.243 -0.7315  0.1259  0.2169
 8552TIP3    H147147   6.478   6.593  12.298 -1.1471 -0.2991  0.2595
 8552TIP3    H247148   6.490   6.540  12.156  1.6119  3.1410 -0.9227
 8553TIP3   OH247149   3.993   1.943   5.887  0.3264  0.0757 -0.1677
 8553TIP3    H147150   3.923   1.931   5.951  0.8445 -0.7237  0.2651
 8553TIP3    H247151   4.009   1.855   5.852  1.3186  0.2005 -0.0374
 8554TIP3   OH247152   6.395   0.556  11.547 -0.1909  0.0273  0.3068
 8554TIP3    H147153   6.411   0.627  11.610 -0.8548  0.3378  0.1303
 8554TIP3    H247154   6.480   0.543  11.504  0.1364  0.1730  0.8918
 8555TIP3   OH247155   4.865   4.659   0.844  0.0968 -0.3835  0.1600
 8555TIP3    H147156   4.959   4.677   0.846  0.1206 -0.4577 -0.1866
 8555TIP3    H247157   4.829   4.726   0.786 -0.0566 -0.3968  0.2380
 8556TIP3   OH247158   4.196   6.769   4.179  0.0892 -0.2101  0.4552
 8556TIP3    H147159   4.135   6.841   4.193 -0.0357  0.3456 -2.4271
 8556TIP3    H247160   4.272   6.809   4.138  0.7885 -1.4836  0.4417
 8557TIP3   OH247161   4.028   0.836  16.994 -0.0146  0.1276 -0.4115
 8557TIP3    H147162   3.995   0.787  17.069  1.7884 -1.3475 -0.4944
 8557TIP3    H247163   4.111   0.872  17.023  0.1930  0.4487 -1.3581
 8558TIP3   OH247164   4.570   3.195   5.731  0.0119  0.0304 -0.1852
 8558TIP3    H147165   4.655   3.235   5.717  0.2869 -0.2442  0.6518
 8558TIP3    H247166   4.580   3.105   5.699 -0.0318  0.0597 -0.2827
 8559TIP3   OH247167   6.031   2.861   2.904  0.0748  0.0714 -0.0881
 8559TIP3    H147168   6.025   2.834   2.813  0.3628 -0.9996  0.1953
 8559TIP3    H247169   6.068   2.785   2.949 -0.2107  0.5274  0.9425
 8560TIP3   OH247170   4.313   4.644  10.840 -0.2960 -0.5623  0.3634
 8560TIP3    H147171   4.341   4.690  10.761 -1.3323  0.5200  0.5987
 8560TIP3    H247172   4.221   4.625  10.825 -0.1584 -1.6185  0.7439
 8561TIP3   OH247173   5.829   0.995   4.114 -0.6835  0.2577  0.1879
 8561TIP3    H147174   5.843   1.033   4.201  1.2327 -0.9426  0.4642
 8561TIP3    H247175   5.740   0.959   4.118  0.3255 -2.3414  2.7448
 8562TIP3   OH247176   1.371   0.478   1.772 -0.2053  0.6810  0.2862
 8562TIP3    H147177   1.454   0.526   1.773 -0.1603  0.6055  1.1162
 8562TIP3    H247178   1.346   0.476   1.680  1.3074 -0.3351 -0.1439
 8563TIP3   OH247179   1.308   3.467  11.226  0.0960  1.0275  0.2554
 8563TIP3    H147180   1.323   3.504  11.139 -0.4302  0.1088 -0.2501
 8563TIP3    H247181   1.333   3.375  11.217 -3.6785 -0.1376 -0.1027
 8564TIP3   OH247182   0.547   2.371  11.674 -0.4971  0.0329 -0.1691
 8564TIP3    H147183   0.541   2.343  11.765  2.2774  2.4169  0.9108
 8564TIP3    H247184   0.580   2.294  11.628 -2.4578 -1.3733  0.6492
 8565TIP3   OH247185   2.981   2.338  12.260 -1.0770 -0.9323 -0.3024
 8565TIP3    H147186   2.984   2.392  12.340 -1.7156  1.1720 -1.6118
 8565TIP3    H247187   3.071   2.308  12.248 -0.6001  0.1790  0.2922
 8566TIP3   OH247188   2.007   3.960  12.108 -0.3829 -0.0460  0.8243
 8566TIP3    H147189   2.066   3.956  12.032 -1.2109  2.9565 -0.1295
 8566TIP3    H247190   1.923   3.930  12.074 -0.4182 -0.1067  0.9654
 8567TIP3   OH247191   2.000   4.245   2.146 -0.1006 -0.3400 -0.2598
 8567TIP3    H147192   2.050   4.209   2.219 -1.6125  1.6631  1.8967
 8567TIP3    H247193   2.032   4.334   2.135 -1.5318  0.2021 -0.3668
 8568TIP3   OH247194   4.373   1.992   1.347 -0.0501 -0.0927  0.1773
 8568TIP3    H147195   4.387   2.083   1.374 -0.2006 -0.3808  1.2368
 8568TIP3    H247196   4.287   1.969   1.383 -0.5783 -0.2821 -1.1248
 8569TIP3   OH247197   6.835   0.557  14.448  0.2377  0.0281 -0.7669
 8569TIP3    H147198   6.921   0.520  14.429 -0.0610 -1.7033  0.9910
 8569TIP3    H247199   6.781   0.534  14.372  0.4617 -1.8885 -0.3768
 8570TIP3   OH247200   6.648   2.584   4.928 -0.5723 -0.1348 -0.0859
 8570TIP3    H147201   6.743   2.572   4.933 -0.6932 -1.0138  0.2630
 8570TIP3    H247202   6.634   2.632   4.846  0.2447  0.9544  0.3767
 8571TIP3   OH247203   0.969   4.004   0.746  0.1770  0.5768  0.5276
 8571TIP3    H147204   1.036   4.073   0.753  2.6108 -1.6672  0.9172
 8571TIP3    H247205   0.947   4.001   0.653  0.9040  1.1212  0.3296
 8572TIP3   OH247206   5.143   3.598  14.702  0.2085 -0.4197  0.6882
 8572TIP3    H147207   5.093   3.522  14.673 -0.4507  0.8604 -1.8525
 8572TIP3    H247208   5.185   3.570  14.783 -2.7837 -2.3098  1.7599
 8573TIP3   OH247209   4.115   6.182   4.446  0.2726  0.3638  0.1508
 8573TIP3    H147210   4.111   6.116   4.515  2.8075  1.5960  1.6196
 8573TIP3    H247211   4.146   6.134   4.369  1.4273 -0.2981  1.0017
 8574TIP3   OH247212   3.483   6.132   2.566 -0.0676  0.2061 -0.3510
 8574TIP3    H147213   3.520   6.208   2.612 -0.2958 -0.5914  1.2317
 8574TIP3    H247214   3.546   6.112   2.497  1.0106  0.6271  0.4823
 8575TIP3   OH247215   2.316   4.348   5.724  0.5426  0.1491  0.2644
 8575TIP3    H147216   2.325   4.426   5.779 -0.1440  0.6140 -0.2782
 8575TIP3    H247217   2.223   4.326   5.728  0.6762 -0.4574  0.1595
 8576TIP3   OH247218   3.541   1.726  13.504 -0.1309  0.1790  0.2298
 8576TIP3    H147219   3.618   1.669  13.510  0.9007  1.6506  1.4630
 8576TIP3    H247220   3.477   1.685  13.563  0.9687  0.7990  1.9167
 8577TIP3   OH247221   4.917   1.471  16.511 -0.4338  0.0417 -0.1024
 8577TIP3    H147222   4.924   1.376  16.519  1.5910  0.2382  0.8644
 8577TIP3    H247223   4.827   1.485  16.480 -2.2082 -1.9412  3.5298
 8578TIP3   OH247224   5.628   1.529  16.356  0.2699 -0.0097 -0.1749
 8578TIP3    H147225   5.543   1.569  16.337 -0.0724  0.2707  1.7890
 8578TIP3    H247226   5.613   1.478  16.435  1.9171 -0.0425  0.1340
 8579TIP3   OH247227   6.389   1.884  10.276  0.1263  0.3101 -0.2371
 8579TIP3    H147228   6.335   1.939  10.219  1.2913  1.4290 -0.3232
 8579TIP3    H247229   6.477   1.889  10.237  0.7267  0.2386  1.0521
 8580TIP3   OH247230   4.073   2.551   0.800  0.4112 -0.2366 -0.1788
 8580TIP3    H147231   4.026   2.531   0.719 -0.7121  0.1758  0.3479
 8580TIP3    H247232   4.004   2.573   0.863  1.2688 -0.4345  0.8596
 8581TIP3   OH247233   5.943   4.098   2.784  0.7497  0.2432  0.4801
 8581TIP3    H147234   5.923   4.129   2.873  1.8683  0.3508  0.7021
 8581TIP3    H247235   5.984   4.013   2.797 -0.1588 -0.2849 -0.0098
 8582TIP3   OH247236   1.028   5.630  12.963 -0.1884 -0.2720 -0.3694
 8582TIP3    H147237   1.094   5.560  12.960  1.2219  1.0183 -0.7675
 8582TIP3    H247238   1.054   5.683  13.039 -1.3550 -0.2614  0.0434
 8583TIP3   OH247239   1.305   2.744   5.926 -0.6197 -0.3148 -0.1344
 8583TIP3    H147240   1.333   2.729   6.017 -0.5684 -2.4307 -0.4599
 8583TIP3    H247241   1.387   2.749   5.877 -0.6648  0.3626 -0.1575
 8584TIP3   OH247242   0.154   5.550  10.830 -0.0808  0.0665  0.3133
 8584TIP3    H147243   0.179   5.634  10.867  0.2992  0.4866 -0.8506
 8584TIP3    H247244   0.223   5.489  10.858 -0.3053  0.1485  1.0743
 8585TIP3   OH247245   0.809   4.571  13.654 -0.4411  0.2240 -0.0163
 8585TIP3    H147246   0.840   4.660  13.673  0.1792  0.0798 -0.3262
 8585TIP3    H247247   0.778   4.538  13.738 -0.3578  0.6130  0.1697
 8586TIP3   OH247248   6.234   4.129  15.925 -0.0999 -0.2271 -0.1742
 8586TIP3    H147249   6.163   4.096  15.981  1.2702 -1.8242  0.7249
 8586TIP3    H247250   6.295   4.169  15.987  0.5944 -0.4224 -0.7330
 8587TIP3   OH247251   0.195   4.621  16.793  0.2325  0.1425  0.7477
 8587TIP3    H147252   0.239   4.537  16.802  0.6911  0.1728 -0.9503
 8587TIP3    H247253   0.107   4.607  16.828 -0.1933 -1.4807 -0.8413
 8588TIP3   OH247254   3.250   3.107   5.216  0.4742  0.0014  0.1339
 8588TIP3    H147255   3.231   3.066   5.131 -0.4118  0.3978  0.1319
 8588TIP3    H247256   3.216   3.046   5.281 -2.8959  1.6200  0.0993
 8589TIP3   OH247257   4.933   0.001  10.845  0.0075  0.0962  0.3547
 8589TIP3    H147258   4.858  -0.056  10.832  0.3470 -0.3198  0.1898
 8589TIP3    H247259   4.951   0.037  10.758  1.8625 -2.1658 -0.2962
 8590TIP3   OH247260   3.712   0.078   5.301  0.4448  0.9053 -0.4717
 8590TIP3    H147261   3.762   0.008   5.261  0.9919  1.5687 -0.9635
 8590TIP3    H247262   3.622   0.043   5.306  0.7177  0.1577 -0.6445
 8591TIP3   OH247263   6.284   0.551  11.817 -0.6485  0.0384 -0.2054
 8591TIP3    H147264   6.219   0.491  11.780 -1.4792 -1.4890  3.3861
 8591TIP3    H247265   6.366   0.501  11.817 -0.3589  0.4764 -0.9106
 8592TIP3   OH247266   4.929   6.119   0.288  0.0436  0.2866 -0.4578
 8592TIP3    H147267   4.917   6.101   0.381 -1.3483  2.2596 -0.1921
 8592TIP3    H247268   4.846   6.094   0.248 -0.1609  1.4318 -0.7973
 8593TIP3   OH247269   3.552   3.671   2.471  0.1860  0.7460 -0.1477
 8593TIP3    H147270   3.463   3.706   2.474 -0.4644 -0.8736  0.6573
 8593TIP3    H247271   3.609   3.748   2.469 -1.2421  1.8524 -2.7829
 8594TIP3   OH247272   2.640   0.896  16.655 -1.0810  0.4206 -0.6506
 8594TIP3    H147273   2.562   0.897  16.711 -0.2667 -1.0162  0.6039
 8594TIP3    H247274   2.607   0.877  16.568 -2.1125 -0.7221 -0.0445
 8595TIP3   OH247275   1.335   1.734   4.327  0.0661 -0.3013 -0.1560
 8595TIP3    H147276   1.405   1.772   4.380  0.0092 -1.3065  0.6707
 8595TIP3    H247277   1.339   1.782   4.244 -0.4896  2.0095  1.0703
 8596TIP3   OH247278   4.118   4.994   4.048 -0.3640 -0.1093  0.0432
 8596TIP3    H147279   4.092   4.918   4.101 -0.9004  0.3153  0.3924
 8596TIP3    H247280   4.036   5.031   4.017 -0.0598 -0.2126 -0.8957
 8597TIP3   OH247281   3.700   4.016  11.824 -0.4550 -0.1346  0.3444
 8597TIP3    H147282   3.745   4.078  11.881  1.5482 -0.4932 -0.7397
 8597TIP3    H247283   3.608   4.043  11.826 -0.0598  1.2316  1.9270
 8598TIP3   OH247284   0.641   3.413   3.595 -0.1108  0.3508 -0.3195
 8598TIP3    H147285   0.734   3.427   3.614 -0.4348  1.1046  0.8701
 8598TIP3    H247286   0.633   3.427   3.501  1.0315 -0.0342 -0.4854
 8599TIP3   OH247287   5.015   4.690  15.929  0.0978 -0.0337 -0.2711
 8599TIP3    H147288   5.023   4.761  15.865  0.9800  0.9579  0.8819
 8599TIP3    H247289   4.933   4.707  15.975  0.1605  0.0643 -0.1961
 8600TIP3   OH247290   6.524   0.546   2.630 -0.3109  0.4974  0.3751
 8600TIP3    H147291   6.525   0.615   2.564 -1.7169 -0.1348 -0.3514
 8600TIP3    H247292   6.431   0.536   2.653 -0.3994 -2.2552 -0.7585
 8601TIP3   OH247293   3.230   0.372  15.729 -0.4833  0.4250 -0.5039
 8601TIP3    H147294   3.163   0.308  15.753  0.4799 -0.9683 -1.3828
 8601TIP3    H247295   3.186   0.457  15.738 -2.2293 -0.4135 -0.6344
 8602TIP3   OH247296   5.738   6.526  15.580 -0.8830 -0.0284  0.5556
 8602TIP3    H147297   5.724   6.433  15.566  1.2718 -0.1568 -1.2585
 8602TIP3    H247298   5.815   6.531  15.637  0.4007  0.5947 -1.1644
 8603TIP3   OH247299   6.078   1.106  15.881 -0.0955 -0.0834  0.0246
 8603TIP3    H147300   6.011   1.087  15.815  0.2233 -0.9868 -0.0411
 8603TIP3    H247301   6.078   1.030  15.939 -0.6014  0.8211  1.2831
 8604TIP3   OH247302   6.117   2.109  14.506  0.7384  0.1871 -0.4278
 8604TIP3    H147303   6.053   2.164  14.461  1.3600  1.2391 -0.0624
 8604TIP3    H247304   6.065   2.050  14.559  0.0495  1.2197  0.0878
 8605TIP3   OH247305   3.511   0.114  11.514 -0.6420 -0.4523 -0.1819
 8605TIP3    H147306   3.482   0.146  11.429  0.9004  1.0877 -0.1911
 8605TIP3    H247307   3.607   0.113  11.508 -0.5110 -0.6383  1.4116
 8606TIP3   OH247308   4.627   3.775   4.775  0.0460  0.0734  0.1929
 8606TIP3    H147309   4.654   3.752   4.864 -1.0518 -4.3437 -0.4180
 8606TIP3    H247310   4.533   3.786   4.781 -0.0216 -0.1548 -0.4105
 8607TIP3   OH247311   1.293   0.291  13.573  0.3303 -0.2826 -0.1449
 8607TIP3    H147312   1.350   0.335  13.637  0.4596  1.2066 -1.2390
 8607TIP3    H247313   1.354   0.241  13.518  0.5831  1.0053 -1.0763
 8608TIP3   OH247314   1.624   5.310  10.470  0.0326 -0.1845  0.0619
 8608TIP3    H147315   1.653   5.219  10.476 -0.2860 -0.3830 -1.1819
 8608TIP3    H247316   1.537   5.306  10.429  0.5440  0.7366 -1.2029
 8609TIP3   OH247317   1.019   0.312  12.096 -0.0227  0.4004  0.1713
 8609TIP3    H147318   1.083   0.336  12.030  0.8782 -1.5544  0.2619
 8609TIP3    H247319   1.055   0.346  12.178  0.1610  0.5654  0.0232
 8610TIP3   OH247320   5.070   2.077   5.558 -0.1687  0.0868  0.2432
 8610TIP3    H147321   5.154   2.036   5.578 -0.5613 -0.5887  0.5629
 8610TIP3    H247322   5.005   2.019   5.598 -0.8404  0.1124 -0.7559
 8611TIP3   OH247323   4.378   0.262   5.501  0.0044 -0.1107 -0.2874
 8611TIP3    H147324   4.473   0.274   5.501 -0.2511  3.1938  2.0935
 8611TIP3    H247325   4.365   0.174   5.465  3.9133 -0.6768 -0.7374
 8612TIP3   OH247326   2.192   5.629  12.061 -0.8819  0.2820 -0.9897
 8612TIP3    H147327   2.195   5.577  12.141 -1.0741  0.1065 -1.0956
 8612TIP3    H247328   2.252   5.702  12.077 -2.0721  1.0989 -0.1071
 8613TIP3   OH247329   2.398   6.644  15.429  0.3734 -0.7412 -0.6078
 8613TIP3    H147330   2.485   6.656  15.391  0.4217 -0.7007 -0.4848
 8613TIP3    H247331   2.351   6.592  15.365  0.1459  0.1318 -1.1607
 8614TIP3   OH247332   3.701   5.949  12.494  0.4018  0.3717  0.2701
 8614TIP3    H147333   3.777   5.955  12.436  1.5142 -0.1088  1.6148
 8614TIP3    H247334   3.724   6.001  12.571 -0.6904  0.3216  0.6589
 8615TIP3   OH247335   2.762   4.736   1.098 -0.3761  0.5733 -0.3599
 8615TIP3    H147336   2.818   4.798   1.050 -1.0434  2.5397  1.2498
 8615TIP3    H247337   2.744   4.780   1.181  0.5454 -2.5665  1.6843
 8616TIP3   OH247338   2.281   2.197  11.829 -0.5682 -0.5064 -0.1632
 8616TIP3    H147339   2.342   2.154  11.889 -1.0939 -1.3419 -0.2006
 8616TIP3    H247340   2.289   2.149  11.747 -0.7057 -0.1256 -0.4029
 8617TIP3   OH247341   5.399   5.190   5.116 -0.0884  0.0094  0.7476
 8617TIP3    H147342   5.483   5.200   5.072 -1.0649 -1.0209 -1.5200
 8617TIP3    H247343   5.390   5.095   5.129 -1.0251  0.0746  0.6562
 8618TIP3   OH247344   3.230   2.152   6.742  0.1098  0.1885 -0.0845
 8618TIP3    H147345   3.227   2.122   6.651 -0.6061  0.3289 -0.1152
 8618TIP3    H247346   3.183   2.084   6.791 -3.2062  2.0396 -0.4043
 8619TIP3   OH247347   5.971   2.137  15.196  0.5820 -0.3725 -0.5221
 8619TIP3    H147348   5.987   2.230  15.209 -0.4840 -0.0554 -1.3563
 8619TIP3    H247349   5.933   2.131  15.108  1.2178 -1.6624 -0.7277
 8620TIP3   OH247350   2.193   1.260   2.037  0.2328 -0.3486  0.0356
 8620TIP3    H147351   2.123   1.311   2.077 -0.5958 -0.8878 -0.6829
 8620TIP3    H247352   2.201   1.182   2.092 -0.2402 -0.6268 -0.2766
 8621TIP3   OH247353   6.501   0.373   3.429  0.5215 -0.0090  0.1945
 8621TIP3    H147354   6.574   0.432   3.414  1.7551 -1.0711  1.6995
 8621TIP3    H247355   6.467   0.398   3.515 -0.9516  0.5140 -0.5181
 8622TIP3   OH247356   3.415   1.727  11.108  0.4937 -0.4029  0.0335
 8622TIP3    H147357   3.395   1.675  11.186  2.0276 -0.3913  0.4765
 8622TIP3    H247358   3.395   1.670  11.034  1.2027 -1.2736  0.4984
 8623TIP3   OH247359   3.870   4.146   5.456 -0.1516  0.1717 -0.1055
 8623TIP3    H147360   3.847   4.204   5.528  0.9189  1.6446 -0.8821
 8623TIP3    H247361   3.800   4.160   5.392 -0.5951 -0.4073  0.2504
 8624TIP3   OH247362   4.872   0.890   0.090 -0.3186  0.1629 -0.1583
 8624TIP3    H147363   4.786   0.848   0.102 -0.6567  0.4345 -1.5202
 8624TIP3    H247364   4.854   0.967   0.037  1.0098 -0.7738 -2.0698
 8625TIP3   OH247365   2.010   3.819  12.807 -0.8043  0.1303 -1.0964
 8625TIP3    H147366   1.986   3.728  12.787 -0.2220 -0.2000 -0.3246
 8625TIP3    H247367   1.950   3.845  12.876 -0.6150  0.1457 -0.9360
 8626TIP3   OH247368   4.917   4.446  14.450 -0.1106  0.1371 -0.4176
 8626TIP3    H147369   5.004   4.480  14.430  0.4565 -1.4106 -0.6937
 8626TIP3    H247370   4.898   4.478  14.539  1.3167 -0.5856  0.1769
 8627TIP3   OH247371   3.054   5.413  11.450  0.0078 -0.0247  0.4921
 8627TIP3    H147372   2.997   5.452  11.516 -1.3900 -1.4721  0.2031
 8627TIP3    H247373   3.070   5.324  11.481  0.1637 -0.3966 -0.6039
 8628TIP3   OH247374   3.067   0.719   5.114  0.1284  0.3275  0.3504
 8628TIP3    H147375   3.146   0.739   5.065  0.3385 -0.2061  0.4654
 8628TIP3    H247376   3.016   0.661   5.056  0.3781 -0.3054  0.7492
 8629TIP3   OH247377   5.420   2.913  16.685  0.5039  0.5836 -0.1727
 8629TIP3    H147378   5.426   2.883  16.594  2.1214  1.5687 -0.4261
 8629TIP3    H247379   5.426   3.008  16.679  0.4966  0.6632  0.9654
 8630TIP3   OH247380   6.135   3.668   3.776 -0.5806 -0.7682  0.2019
 8630TIP3    H147381   6.215   3.671   3.829  0.0383 -2.2597 -0.6003
 8630TIP3    H247382   6.103   3.578   3.785 -2.7233  0.0322  1.2533
 8631TIP3   OH247383   1.944   0.663  15.798  0.0188  0.0940  0.2353
 8631TIP3    H147384   1.914   0.743  15.754 -0.2707  0.6261  1.3700
 8631TIP3    H247385   1.875   0.642  15.861  0.7488 -0.2374  0.9528
 8632TIP3   OH247386   4.733   1.762  12.175  0.5130 -0.6445 -0.4433
 8632TIP3    H147387   4.769   1.841  12.133  0.6553 -0.7739 -0.5665
 8632TIP3    H247388   4.799   1.695  12.159  0.5641 -0.6965 -0.0094
 8633TIP3   OH247389   6.100   0.121  13.491  0.3179 -0.0117 -0.0464
 8633TIP3    H147390   6.109   0.080  13.405 -0.6180 -2.9585  1.1237
 8633TIP3    H247391   6.170   0.082  13.544  0.1346  0.8253  0.8343
 8634TIP3   OH247392   1.465   5.821   1.664 -0.0603  0.1261 -0.4094
 8634TIP3    H147393   1.545   5.770   1.649  0.8456  1.4523 -0.2973
 8634TIP3    H247394   1.497   5.905   1.697 -1.6059 -0.2353  2.3086
 8635TIP3   OH247395   5.314   1.849   2.347 -0.4335  0.3467  0.8145
 8635TIP3    H147396   5.330   1.848   2.441  0.1913  1.5137  0.7453
 8635TIP3    H247397   5.384   1.796   2.309 -0.5180  0.1163  0.9818
 8636TIP3   OH247398   0.838   4.163  15.531 -0.1378 -0.4803 -0.4397
 8636TIP3    H147399   0.900   4.228  15.564 -1.6045 -0.3487  2.3860
 8636TIP3    H247400   0.787   4.209  15.465 -0.9434  1.2301  1.2867
 8637TIP3   OH247401   4.948   5.545   0.387  0.1971  0.7086  0.0266
 8637TIP3    H147402   5.007   5.620   0.385 -0.3581  1.3239  2.6420
 8637TIP3    H247403   4.864   5.582   0.413 -0.2501 -0.7144  0.6849
 8638TIP3   OH247404   1.620   3.744  16.750 -0.6092  0.3690 -0.1445
 8638TIP3    H147405   1.567   3.696  16.813  0.0682  1.6039  1.4512
 8638TIP3    H247406   1.565   3.818  16.724 -0.0868  1.1349  0.8101
 8639TIP3   OH247407   3.618   5.417   3.192 -0.7204 -0.5690 -0.4371
 8639TIP3    H147408   3.633   5.323   3.207 -2.2338 -0.7343  0.1951
 8639TIP3    H247409   3.554   5.442   3.258  1.3314  1.4824  0.9499
 8640TIP3   OH247410   5.741   4.639  12.929  0.1073 -0.3091  0.1091
 8640TIP3    H147411   5.721   4.661  12.838 -0.7920  0.7751  0.5492
 8640TIP3    H247412   5.659   4.656  12.976 -0.0627 -2.7482  0.8288
 8641TIP3   OH247413   1.535   4.551  16.413  0.0180 -0.5286 -0.1671
 8641TIP3    H147414   1.552   4.636  16.373  1.1547 -0.8341 -0.3779
 8641TIP3    H247415   1.529   4.490  16.339 -0.2919 -0.7154  0.0066
 8642TIP3   OH247416   0.133   3.445   4.374  0.1610  0.4437  0.2436
 8642TIP3    H147417   0.155   3.532   4.343  1.2972 -0.0844 -0.4937
 8642TIP3    H247418   0.152   3.447   4.468 -1.8318  1.5832  0.6934
 8643TIP3   OH247419   6.801   1.252   2.538  0.3902 -0.0969  1.0147
 8643TIP3    H147420   6.774   1.169   2.577 -0.2538  0.6856  2.3391
 8643TIP3    H247421   6.895   1.245   2.528  0.2274 -1.3200  0.2688
 8644TIP3   OH247422   5.846   3.202  13.365  0.2098  0.1924 -0.1627
 8644TIP3    H147423   5.802   3.209  13.280  1.4488 -0.6468 -0.8927
 8644TIP3    H247424   5.859   3.293  13.393 -0.0141  0.4754 -0.9577
 8645TIP3   OH247425   1.269   0.666  11.292  0.4012  0.0402  0.6880
 8645TIP3    H147426   1.216   0.603  11.341 -0.6836  0.3463 -0.0519
 8645TIP3    H247427   1.206   0.730  11.259  0.9552 -0.5585 -1.7218
 8646TIP3   OH247428   3.101   1.388  15.991 -0.1627 -0.0747  0.1499
 8646TIP3    H147429   3.051   1.428  16.062 -0.9053  2.2078 -1.5434
 8646TIP3    H247430   3.149   1.317  16.033 -1.1961  0.6473  2.7575
 8647TIP3   OH247431   1.006   6.096   1.622 -0.0212  0.2149 -0.3925
 8647TIP3    H147432   1.094   6.134   1.628 -0.0288  0.1166  0.4319
 8647TIP3    H247433   0.957   6.139   1.691 -1.5145  2.5087 -2.7005
 8648TIP3   OH247434   3.279   2.101   2.603 -0.3682  0.1688 -0.0270
 8648TIP3    H147435   3.206   2.162   2.591 -1.3508 -0.9076  0.3724
 8648TIP3    H247436   3.304   2.076   2.514  0.3317  1.4358 -0.2255
 8649TIP3   OH247437   2.850   6.446  13.484  0.0755 -0.0146  0.2897
 8649TIP3    H147438   2.786   6.397  13.433 -0.8501 -0.3517  1.6920
 8649TIP3    H247439   2.833   6.537  13.462 -0.6709 -0.1227  0.3763
 8650TIP3   OH247440   3.116   4.304   6.221  0.1718 -0.1144 -0.1624
 8650TIP3    H147441   3.186   4.365   6.197  0.3670 -0.2266  0.1088
 8650TIP3    H247442   3.162   4.224   6.244 -0.0680 -0.2783 -0.2500
 8651TIP3   OH247443   6.157   1.946  15.468 -0.5017  0.2818 -0.7494
 8651TIP3    H147444   6.064   1.969  15.465 -0.6089 -0.0307  0.0297
 8651TIP3    H247445   6.193   1.982  15.387 -0.7010  2.9659  0.2706
 8652TIP3   OH247446   1.194   3.660   2.371 -0.3208 -0.1918  0.4998
 8652TIP3    H147447   1.207   3.703   2.286 -0.4304 -1.0347  0.0419
 8652TIP3    H247448   1.217   3.726   2.435  0.1442  0.3382 -0.1994
 8653TIP3   OH247449   6.572   3.140   0.515  0.0863  0.7295 -0.2048
 8653TIP3    H147450   6.635   3.101   0.575 -2.0595  1.8701  3.1063
 8653TIP3    H247451   6.609   3.225   0.493  0.0776  1.0956  1.1211
 8654TIP3   OH247452   0.886   1.871   2.207  0.9243 -0.2102 -0.3747
 8654TIP3    H147453   0.814   1.871   2.270  0.9942  0.6986 -0.2925
 8654TIP3    H247454   0.965   1.878   2.260  0.9931  0.3565 -0.5444
 8655TIP3   OH247455   2.677   5.600  10.948 -0.3771  0.6242  0.5383
 8655TIP3    H147456   2.697   5.523  11.000  1.0144  0.5700 -0.0505
 8655TIP3    H247457   2.624   5.567  10.875 -1.7285  0.5965  1.4957
 8656TIP3   OH247458   4.480   1.947   2.461 -0.0800 -0.3920  0.4493
 8656TIP3    H147459   4.553   1.952   2.398 -2.2382 -0.7690 -2.2886
 8656TIP3    H247460   4.440   1.862   2.443 -1.3813 -0.0567  1.6655
 8657TIP3   OH247461   4.413   0.593  14.000  0.5217  0.6620  0.0664
 8657TIP3    H147462   4.438   0.501  14.011 -1.4267  0.2419  1.6073
 8657TIP3    H247463   4.406   0.604  13.905  0.0609 -0.9954 -0.1329
 8658TIP3   OH247464   4.209   3.131   4.573 -0.8949 -0.0300  0.4350
 8658TIP3    H147465   4.301   3.129   4.549 -0.9170  0.7701  0.2667
 8658TIP3    H247466   4.205   3.085   4.657 -0.4204 -0.4805  0.2147
 8659TIP3   OH247467   2.014   5.453   3.315  0.2831 -0.2742  0.6697
 8659TIP3    H147468   2.028   5.506   3.236  1.9290 -1.8264 -0.1664
 8659TIP3    H247469   2.036   5.513   3.387 -1.3251  1.1982  0.0128
 8660TIP3   OH247470   2.049   5.467  10.498  0.1311  0.1943 -0.2977
 8660TIP3    H147471   1.968   5.486  10.451 -0.5458 -0.6484  0.4949
 8660TIP3    H247472   2.024   5.469  10.591  1.1194  0.3523 -0.0231
 8661TIP3   OH247473   3.431   4.055  15.444  0.0007 -0.1366 -0.2742
 8661TIP3    H147474   3.430   4.115  15.369  0.8877  1.6599  1.0882
 8661TIP3    H247475   3.350   4.075  15.491 -1.0345 -1.9186 -1.1557
 8662TIP3   OH247476   1.088   2.907   2.870  0.3208  0.3881  0.7949
 8662TIP3    H147477   1.158   2.842   2.874 -0.6733 -0.8238 -0.7051
 8662TIP3    H247478   1.132   2.988   2.845  1.1861 -0.4131 -0.3607
 8663TIP3   OH247479   4.385   2.445   3.663  0.5212  0.2079 -0.1691
 8663TIP3    H147480   4.369   2.535   3.693  2.4398  0.4837  0.1658
 8663TIP3    H247481   4.406   2.397   3.743  0.7412 -0.2241 -0.4837
 8664TIP3   OH247482   4.083   5.365  13.285  0.2287 -0.0208  0.1970
 8664TIP3    H147483   4.143   5.412  13.227  0.5170 -1.3471 -0.6275
 8664TIP3    H247484   4.011   5.426  13.299  0.3231  0.4793 -1.2763
 8665TIP3   OH247485   6.035   0.335  12.879 -0.4176 -0.1547 -0.5077
 8665TIP3    H147486   6.035   0.430  12.869 -1.2124 -0.2511 -1.5985
 8665TIP3    H247487   6.028   0.301  12.790 -0.5994 -1.2314 -0.0986
 8666TIP3   OH247488   4.800   1.276  11.168  0.5733 -0.3953  0.3139
 8666TIP3    H147489   4.793   1.195  11.218  0.5468 -0.9917 -0.6366
 8666TIP3    H247490   4.716   1.284  11.122  0.7300 -0.0507  0.0783
 8667TIP3   OH247491   1.400   6.372   6.430  0.0287 -0.6508 -0.2664
 8667TIP3    H147492   1.341   6.346   6.501  1.1469 -0.8466  0.6208
 8667TIP3    H247493   1.372   6.320   6.355 -1.6776  0.1316 -0.2117
 8668TIP3   OH247494   0.019   2.943   1.274  0.9340  0.0923  0.5032
 8668TIP3    H147495  -0.034   2.940   1.195 -1.1229  0.5706  1.7874
 8668TIP3    H247496   0.038   2.852   1.294  1.4485 -0.0337 -0.4826
 8669TIP3   OH247497   1.868   0.024  15.101  0.1484  0.2083 -0.8507
 8669TIP3    H147498   1.961   0.001  15.106  0.1075  0.2978  2.6217
 8669TIP3    H247499   1.821  -0.056  15.122 -0.3022  1.0983  1.9795
 8670TIP3   OH247500   4.919   1.851  14.960  0.1072  1.1085  0.3252
 8670TIP3    H147501   4.949   1.884  14.875  1.2726  2.3966  1.2014
 8670TIP3    H247502   4.996   1.810  14.999 -0.3347  0.7955  0.8801
 8671TIP3   OH247503   2.305   1.286  11.395  0.0190 -0.3088  0.2814
 8671TIP3    H147504   2.343   1.207  11.358  0.4969 -0.1534  0.4374
 8671TIP3    H247505   2.243   1.316  11.329  1.5315  0.4964 -0.8347
 8672TIP3   OH247506   3.912   2.009  11.498 -0.1515  0.0222  0.2566
 8672TIP3    H147507   3.973   1.941  11.528 -1.7875 -0.9940  1.4244
 8672TIP3    H247508   3.961   2.057  11.432  1.2638 -1.9405 -0.2122
 8673TIP3   OH247509   3.532   3.504   2.733  0.6305 -0.0065 -0.0832
 8673TIP3    H147510   3.531   3.558   2.654  1.5008  0.2033  0.0376
 8673TIP3    H247511   3.595   3.547   2.791  0.3270 -0.4019  0.5542
 8674TIP3   OH247512   6.018   4.877  16.070  0.3750 -0.2262  0.4644
 8674TIP3    H147513   6.059   4.883  15.983  0.1125  0.7015  0.3933
 8674TIP3    H247514   5.924   4.883  16.052  0.2344 -1.4438  0.7027
 8675TIP3   OH247515   3.430   1.071   1.098 -0.4883  0.2238 -0.4273
 8675TIP3    H147516   3.434   1.014   1.174 -1.1297 -0.8041 -1.1333
 8675TIP3    H247517   3.465   1.017   1.026 -0.2325  1.0451 -0.9397
 8676TIP3   OH247518   2.059   4.511  11.609  0.2474 -0.7389  0.1859
 8676TIP3    H147519   2.030   4.493  11.519 -0.9330 -0.9188  0.5887
 8676TIP3    H247520   2.054   4.607  11.616  1.0385 -0.6622 -0.1550
 8677TIP3   OH247521   3.567   2.115   2.672 -0.5908 -0.5336 -0.4925
 8677TIP3    H147522   3.583   2.034   2.624  1.7486 -1.2041  1.2087
 8677TIP3    H247523   3.500   2.093   2.736  0.6317 -1.4138  0.5181
 8678TIP3   OH247524   5.427   2.500   4.744 -0.4638 -1.0345  0.8686
 8678TIP3    H147525   5.386   2.423   4.782 -0.8071 -1.8791 -1.0694
 8678TIP3    H247526   5.353   2.556   4.717 -0.2259 -0.2677  1.7560
 8679TIP3   OH247527   3.147   2.747  16.557  0.0048  0.0566  0.4425
 8679TIP3    H147528   3.086   2.794  16.500  0.0562  0.0091  0.3487
 8679TIP3    H247529   3.090   2.694  16.613  0.0044 -1.1645 -0.6614
 8680TIP3   OH247530   5.253   4.941  10.885  0.1413 -0.4263  1.0476
 8680TIP3    H147531   5.192   4.903  10.947 -0.0467 -1.5861  0.1794
 8680TIP3    H247532   5.296   4.866  10.844  0.2623  0.3006 -0.2152
 8681TIP3   OH247533   6.668   0.708   1.650 -0.9104 -0.0252 -0.3719
 8681TIP3    H147534   6.592   0.720   1.594  0.4401  1.6415 -1.9782
 8681TIP3    H247535   6.665   0.781   1.712 -0.0541  0.7220 -1.1814
 8682TIP3   OH247536   2.958   4.077  15.284  0.5928  0.1697  0.4394
 8682TIP3    H147537   2.871   4.062  15.245  1.0760 -1.6269 -0.0712
 8682TIP3    H247538   2.957   4.024  15.364  0.8277  1.0723  1.0525
 8683TIP3   OH247539   0.041   2.098  13.505 -0.2215 -0.8466  0.1315
 8683TIP3    H147540   0.051   2.026  13.566 -1.4725 -0.6380  0.6203
 8683TIP3    H247541   0.112   2.158  13.525 -0.4959 -0.8845  1.2470
 8684TIP3   OH247542   0.485   3.329   2.886 -0.2307 -0.1934 -0.5212
 8684TIP3    H147543   0.575   3.318   2.914 -1.2493 -1.2039  2.8260
 8684TIP3    H247544   0.440   3.250   2.915 -2.9256  1.8729  1.5238
 8685TIP3   OH247545   5.352   0.943  15.649  0.4061  0.2985  0.0362
 8685TIP3    H147546   5.423   0.932  15.587 -0.6094 -3.2051 -0.7172
 8685TIP3    H247547   5.278   0.896  15.611 -1.7030  1.8895  1.8153
 8686TIP3   OH247548   0.240   5.739   3.885  0.2447 -0.3277  0.3974
 8686TIP3    H147549   0.218   5.646   3.880 -3.3044  0.3366  0.8223
 8686TIP3    H247550   0.253   5.756   3.978 -2.3824  0.1112  0.7586
 8687TIP3   OH247551   1.352   2.335  15.409  0.7480 -0.1106  0.1025
 8687TIP3    H147552   1.298   2.330  15.488 -0.7743  1.2223 -0.7931
 8687TIP3    H247553   1.439   2.358  15.442 -0.2531  2.2997  1.3387
 8688TIP3   OH247554   6.560   0.357   6.125 -0.2588 -0.1783  0.0709
 8688TIP3    H147555   6.488   0.398   6.173  0.4265 -0.4453  1.3517
 8688TIP3    H247556   6.541   0.377   6.033 -1.7666  0.0665  0.4055
 8689TIP3   OH247557   4.505   0.568   4.816  0.0035  0.2659  0.0530
 8689TIP3    H147558   4.470   0.573   4.727  0.9592 -1.5091 -0.4726
 8689TIP3    H247559   4.594   0.534   4.804  0.2324  0.2387  1.6790
 8690TIP3   OH247560   1.681   6.539   0.348  0.1920  0.3645  0.3145
 8690TIP3    H147561   1.604   6.484   0.336  0.0968  0.9310 -2.1956
 8690TIP3    H247562   1.651   6.612   0.404 -0.4848 -0.4889  1.0901
 8691TIP3   OH247563   4.255   1.544  15.918 -0.7035  0.1296  0.7165
 8691TIP3    H147564   4.254   1.637  15.897 -0.3228 -0.0368 -0.0702
 8691TIP3    H247565   4.336   1.511  15.879 -1.0357 -0.6095  0.6297
 8692TIP3   OH247566   2.788   1.879  12.728  0.1026  0.8646  0.0567
 8692TIP3    H147567   2.741   1.818  12.670  2.0980 -1.0509  0.3219
 8692TIP3    H247568   2.858   1.915  12.673  0.1491  1.3873  0.4582
 8693TIP3   OH247569   4.003   0.353  14.891  0.1398 -0.1034 -0.2656
 8693TIP3    H147570   4.068   0.415  14.926  0.4858 -1.2124  1.1627
 8693TIP3    H247571   3.920   0.399  14.900  0.3499  0.0569  1.0955
 8694TIP3   OH247572   2.096   0.570   4.339  0.6416  0.0079  0.5118
 8694TIP3    H147573   2.068   0.654   4.302  0.2202 -1.4438 -2.7653
 8694TIP3    H247574   2.181   0.553   4.299 -0.2460 -2.0821 -0.6553
 8695TIP3   OH247575   4.646   6.126   5.055 -0.6743 -0.1835  0.5644
 8695TIP3    H147576   4.713   6.059   5.041 -0.5993 -0.0806  0.4322
 8695TIP3    H247577   4.694   6.202   5.087 -0.0460  1.3858 -3.5010
 8696TIP3   OH247578   2.454   6.420   1.095 -0.3268  0.6969  0.3407
 8696TIP3    H147579   2.377   6.394   1.046 -0.0277  3.0594 -1.5614
 8696TIP3    H247580   2.419   6.457   1.177 -1.1284  0.6910  0.0072
 8697TIP3   OH247581   1.315   4.497  13.178 -0.0454 -0.2176  0.0245
 8697TIP3    H147582   1.255   4.571  13.166 -0.2464 -0.3177  0.3810
 8697TIP3    H247583   1.282   4.430  13.118  0.8618  0.4031 -1.1940
 8698TIP3   OH247584   5.630   0.865   1.814  0.0007 -0.4994  0.5865
 8698TIP3    H147585   5.583   0.813   1.880 -0.0806  0.1867  1.0855
 8698TIP3    H247586   5.722   0.853   1.836 -0.0312 -0.1413  0.9444
 8699TIP3   OH247587   0.497   5.050   5.611  0.4494 -0.6494  0.0188
 8699TIP3    H147588   0.554   5.125   5.592 -0.0241  0.0281  1.1631
 8699TIP3    H247589   0.450   5.035   5.529 -1.2720  1.9276  0.4201
 8700TIP3   OH247590   0.421   2.741   3.136 -0.2577  0.1734  0.3604
 8700TIP3    H147591   0.332   2.721   3.166 -0.6254 -1.1863 -1.4739
 8700TIP3    H247592   0.475   2.734   3.215 -1.3606 -2.0171  0.9886
 8701TIP3   OH247593   3.282   3.028  15.204  0.0285 -0.4274  0.6708
 8701TIP3    H147594   3.278   3.070  15.118 -1.3167  0.1536  0.9750
 8701TIP3    H247595   3.202   3.058  15.248  1.1793  0.1066  2.4984
 8702TIP3   OH247596   1.623   1.189   1.543 -0.0162  0.2263 -0.4099
 8702TIP3    H147597   1.703   1.137   1.542  0.6751  1.2768 -1.6660
 8702TIP3    H247598   1.651   1.277   1.569 -0.9369  0.3579  0.1887
 8703TIP3   OH247599   2.175   4.863   5.809  0.6635 -0.4493  0.4707
 8703TIP3    H147600   2.138   4.891   5.892  1.4151 -0.2720  0.7531
 8703TIP3    H247601   2.134   4.921   5.744  0.6528 -0.0748  0.8087
 8704TIP3   OH247602   5.332   4.467   1.121 -0.1936 -0.0272  0.1683
 8704TIP3    H147603   5.331   4.533   1.190  0.5978  0.1925 -0.0187
 8704TIP3    H247604   5.329   4.384   1.167  2.1151  0.0644  0.5940
 8705TIP3   OH247605   3.890   2.837  16.056  0.2826 -0.2691  0.2197
 8705TIP3    H147606   3.862   2.746  16.046  1.1283 -0.5206  0.0915
 8705TIP3    H247607   3.871   2.859  16.147 -1.4203 -0.0461 -0.1534
 8706TIP3   OH247608   1.626   3.413  14.551  0.2992  0.1436 -0.0909
 8706TIP3    H147609   1.630   3.509  14.548  0.3324  0.1522  0.2477
 8706TIP3    H247610   1.535   3.393  14.530  0.2408  0.2569  0.0559
 8707TIP3   OH247611   0.308   5.839   1.712  0.0561 -0.0178 -0.0929
 8707TIP3    H147612   0.404   5.834   1.711 -0.0025 -1.6915 -0.7408
 8707TIP3    H247613   0.283   5.831   1.620 -0.7684 -1.7972  0.2604
 8708TIP3   OH247614   1.937   6.241  16.173 -0.0443  0.1278  0.0286
 8708TIP3    H147615   1.940   6.336  16.178  0.8566  0.0457  2.7894
 8708TIP3    H247616   1.846   6.221  16.155 -0.3382  1.4999 -0.1322
 8709TIP3   OH247617   6.031   0.270   4.801 -0.1439  0.1037 -0.3340
 8709TIP3    H147618   5.968   0.281   4.872 -0.8118  1.7020 -1.1087
 8709TIP3    H247619   6.033   0.356   4.758  0.1129 -0.8406 -2.3194
 8710TIP3   OH247620   6.785   0.882  15.263  0.3010  0.2280 -0.1346
 8710TIP3    H147621   6.767   0.969  15.300 -4.0662 -0.1616 -0.7817
 8710TIP3    H247622   6.764   0.821  15.334 -5.3253 -0.3948 -1.8174
 8711TIP3   OH247623   3.755   5.000  12.482  0.5891  0.1121 -0.3394
 8711TIP3    H147624   3.753   4.973  12.574  2.3406  2.1507  0.3755
 8711TIP3    H247625   3.690   5.070  12.476  0.3824 -0.1059 -0.7055
 8712TIP3   OH247626   2.086   4.000  17.002 -0.9084 -0.0334  0.3627
 8712TIP3    H147627   2.168   3.990  17.050 -0.2708  2.5787 -0.0103
 8712TIP3    H247628   2.113   4.019  16.912 -1.8984  0.6025  0.1824
 8713TIP3   OH247629   6.448   6.633   3.256 -0.3691  0.0637 -0.2142
 8713TIP3    H147630   6.525   6.689   3.269 -1.3030  1.2573  0.4300
 8713TIP3    H247631   6.419   6.653   3.168  1.8521 -2.7765 -1.7505
 8714TIP3   OH247632   0.394   5.534  12.025 -0.0853  0.3873 -0.3229
 8714TIP3    H147633   0.364   5.622  12.003  1.6049  0.9335 -0.5590
 8714TIP3    H247634   0.418   5.540  12.118  0.8251  0.4179 -0.5554
 8715TIP3   OH247635   6.686   5.923  16.732  0.0705  0.3310 -0.1147
 8715TIP3    H147636   6.725   5.975  16.661  1.0779  2.5675  1.9572
 8715TIP3    H247637   6.596   5.908  16.703  0.3257  1.5443 -1.6871
 8716TIP3   OH247638   6.745   5.064   1.746 -0.2567  0.3354  0.4363
 8716TIP3    H147639   6.702   5.002   1.805  2.4511 -1.3023  0.8837
 8716TIP3    H247640   6.756   5.143   1.798  0.1597 -0.3488  1.4203
 8717TIP3   OH247641   1.319   3.847   5.379 -0.8953 -0.7026  0.3730
 8717TIP3    H147642   1.259   3.812   5.444  0.1456 -1.4889  0.9505
 8717TIP3    H247643   1.406   3.839   5.420 -0.3965  0.5270 -0.3629
 8718TIP3   OH247644   6.547   3.853  13.506  0.9898  0.3054  0.2024
 8718TIP3    H147645   6.510   3.810  13.583  1.8695  0.0362  0.4839
 8718TIP3    H247646   6.580   3.937  13.538  0.0486  0.8340 -0.1779
 8719TIP3   OH247647   3.542   3.774   2.053 -0.0378 -0.4475 -0.3456
 8719TIP3    H147648   3.578   3.724   2.126 -0.5050  1.2102  1.0855
 8719TIP3    H247649   3.589   3.857   2.055 -0.6826 -0.0389 -1.3740
 8720TIP3   OH247650   4.227   4.734  11.794  0.1227 -0.4673 -0.1939
 8720TIP3    H147651   4.179   4.652  11.782 -0.1083 -0.4314  0.4484
 8720TIP3    H247652   4.237   4.769  11.706 -0.2485 -0.9195 -0.4205
 8721TIP3   OH247653   4.631   1.027  15.435 -0.1331  0.0434  0.3973
 8721TIP3    H147654   4.669   1.058  15.352 -0.3148 -1.0472 -0.1148
 8721TIP3    H247655   4.575   1.098  15.464 -1.4171 -0.2073 -1.3176
 8722TIP3   OH247656   4.535   4.346  16.051  0.0043  0.2829  0.4330
 8722TIP3    H147657   4.523   4.341  16.146  1.3697 -0.0790  0.6027
 8722TIP3    H247658   4.606   4.284  16.032 -1.5151 -1.0865 -1.0922
 8723TIP3   OH247659   0.361   1.164  16.913  0.4219 -0.2529 -0.0251
 8723TIP3    H147660   0.312   1.125  16.841 -1.3776 -0.6693  1.3578
 8723TIP3    H247661   0.349   1.258  16.903  0.8658 -0.2682 -0.7201
 8724TIP3   OH247662   4.282   0.630   3.520 -0.1933 -0.5902 -0.3170
 8724TIP3    H147663   4.305   0.628   3.613  1.6361 -1.2915 -0.7457
 8724TIP3    H247664   4.266   0.539   3.497  2.1791 -0.8219 -1.2931
 8725TIP3   OH247665   4.706   4.467   5.907  0.6434  0.3069  0.1219
 8725TIP3    H147666   4.654   4.388   5.893 -0.4092  1.2245 -1.4383
 8725TIP3    H247667   4.794   4.442   5.880  0.6935 -0.7739  1.1726
 8726TIP3   OH247668   0.455   5.901   2.373 -0.1010  0.1348 -0.6359
 8726TIP3    H147669   0.371   5.947   2.377  0.1585  0.5581  0.0585
 8726TIP3    H247670   0.432   5.808   2.374 -0.7079  0.1618 -3.2947
 8727TIP3   OH247671   0.621   2.518  13.923 -0.0290 -0.3353  0.3098
 8727TIP3    H147672   0.677   2.467  13.981  0.9539  0.2135 -0.1317
 8727TIP3    H247673   0.584   2.586  13.980 -0.1549 -0.6275  0.5796
 8728TIP3   OH247674   2.704   0.338   1.749 -1.4486 -0.7289 -0.0035
 8728TIP3    H147675   2.640   0.268   1.739 -2.0214 -0.2487  0.2641
 8728TIP3    H247676   2.787   0.293   1.762 -1.8453 -1.3579  0.3744
 8729TIP3   OH247677   5.081   3.631   4.003  0.5439  0.0572 -0.0545
 8729TIP3    H147678   5.021   3.698   4.035  1.2510  0.4391  0.5053
 8729TIP3    H247679   5.119   3.668   3.924  0.0298 -0.2016 -0.4322
 8730TIP3   OH247680   5.870   6.805   0.045 -0.0456 -0.7317 -0.1078
 8730TIP3    H147681   5.901   6.815  -0.045 -2.0481  0.5373 -0.7395
 8730TIP3    H247682   5.899   6.885   0.090 -0.0524 -0.8223  0.0606
 8731TIP3   OH247683   0.171   0.062  14.305  0.5596 -0.1605 -0.1016
 8731TIP3    H147684   0.119  -0.017  14.322  1.3862 -1.0909 -1.7106
 8731TIP3    H247685   0.154   0.082  14.213  0.4783  1.4893  0.2412
 8732TIP3   OH247686   3.665   5.497   1.208 -0.6506 -0.2152 -0.5732
 8732TIP3    H147687   3.616   5.415   1.197 -2.2686  0.3951  1.4102
 8732TIP3    H247688   3.612   5.548   1.269  1.8310  1.0606  0.6441
 8733TIP3   OH247689   0.796   5.159   3.195 -0.7854 -0.0674 -0.4888
 8733TIP3    H147690   0.786   5.072   3.233  1.0585  0.6144  1.7535
 8733TIP3    H247691   0.877   5.154   3.145  0.0463  0.6785  0.7468
 8734TIP3   OH247692   4.115   0.700   2.991 -0.5179  0.5059 -0.5954
 8734TIP3    H147693   4.029   0.704   3.032 -0.4745  0.2600 -0.4798
 8734TIP3    H247694   4.172   0.663   3.059  0.1667  2.7260  0.1632
 8735TIP3   OH247695   2.956   5.014  14.749 -0.3548  0.6376  0.4889
 8735TIP3    H147696   3.027   5.044  14.805  0.1607 -1.0061  0.7728
 8735TIP3    H247697   2.902   4.959  14.806 -1.1046  0.8029 -0.0549
 8736TIP3   OH247698   0.843   6.080   4.080  0.0821  0.3826 -0.2833
 8736TIP3    H147699   0.798   6.116   4.004  1.9249  2.5408 -0.4825
 8736TIP3    H247700   0.932   6.062   4.049  0.0862 -1.4387  0.6736
 8737TIP3   OH247701   6.446   5.673   4.258  0.3552 -0.0091 -0.5809
 8737TIP3    H147702   6.380   5.737   4.285 -0.0214 -0.3540 -0.6726
 8737TIP3    H247703   6.468   5.626   4.338 -0.9076 -1.1666 -0.8733
 8738TIP3   OH247704   0.868   2.015  12.936  0.2283  0.0559 -0.3491
 8738TIP3    H147705   0.844   2.069  12.861  1.2668  2.9765  1.2536
 8738TIP3    H247706   0.888   2.078  13.006  3.2975 -2.3049  1.1956
 8739TIP3   OH247707   5.316   6.614  11.602  0.5235 -0.2862 -0.0672
 8739TIP3    H147708   5.240   6.556  11.598  0.1483  0.2074 -0.1069
 8739TIP3    H247709   5.376   6.581  11.535  0.2780 -0.5781 -0.1402
 8740TIP3   OH247710   3.060   5.250  11.769  0.1806  0.0845  0.4065
 8740TIP3    H147711   3.095   5.226  11.855 -0.4222 -0.2590  0.5553
 8740TIP3    H247712   2.971   5.216  11.769  1.0558 -2.5124 -1.4481
 8741TIP3   OH247713   2.599   5.800  12.405 -0.6982 -0.2559  0.3003
 8741TIP3    H147714   2.680   5.821  12.451 -1.4109  1.7274  0.7609
 8741TIP3    H247715   2.533   5.794  12.474 -1.2542 -0.0885 -0.2005
 8742TIP3   OH247716   5.682   5.065  15.601  0.2832 -0.0194  0.0522
 8742TIP3    H147717   5.765   5.111  15.616  1.2581 -0.8241 -2.3358
 8742TIP3    H247718   5.657   5.089  15.512  0.7280 -3.7089 -1.2547
 8743TIP3   OH247719   4.620   4.929  17.013  0.0310 -0.0194  0.4541
 8743TIP3    H147720   4.680   4.859  16.987 -0.9813 -1.5492  1.9990
 8743TIP3    H247721   4.533   4.893  16.998 -0.5282  1.1675  0.7054
 8744TIP3   OH247722   5.070   1.303  16.897  0.1153 -0.2215 -0.4695
 8744TIP3    H147723   5.141   1.354  16.935  0.5805 -1.0857 -0.1464
 8744TIP3    H247724   5.094   1.294  16.804 -0.4212  0.8890 -0.7232
 8745TIP3   OH247725   2.812   5.611   5.000  0.4261 -0.3017 -0.1803
 8745TIP3    H147726   2.727   5.637   5.035  1.1352 -0.7452  1.9931
 8745TIP3    H247727   2.847   5.691   4.960  0.0723  0.5826  1.2122
 8746TIP3   OH247728   3.026   2.335   0.694  0.2899 -0.0817 -0.5738
 8746TIP3    H147729   3.081   2.296   0.626  0.5130 -2.0369  0.6603
 8746TIP3    H247730   3.088   2.381   0.750  0.1767  0.9959 -1.3004
 8747TIP3   OH247731   0.002   3.879   3.069  0.2201  0.3693 -0.3403
 8747TIP3    H147732   0.090   3.844   3.087  0.5278  1.2497 -0.0586
 8747TIP3    H247733  -0.028   3.830   2.993  1.7640  1.4004 -1.6727
 8748TIP3   OH247734   6.520   1.788   5.364 -0.5605 -0.6126  0.1872
 8748TIP3    H147735   6.448   1.824   5.416  1.3046  1.9657  1.1660
 8748TIP3    H247736   6.562   1.725   5.422 -2.1166 -2.3826 -0.5046
 8749TIP3   OH247737   4.548   1.272   1.786  0.2115  0.5100 -0.3744
 8749TIP3    H147738   4.593   1.189   1.770 -1.1075  0.0183 -1.7068
 8749TIP3    H247739   4.455   1.249   1.787 -0.1610  1.9389 -0.6129
 8750TIP3   OH247740   2.170   3.542  14.868  0.1793  0.3884 -0.7774
 8750TIP3    H147741   2.193   3.508  14.781  1.3783 -0.7457 -0.0463
 8750TIP3    H247742   2.135   3.467  14.915  1.6536  0.4038  0.4426
 8751TIP3   OH247743   3.799   5.112   4.586 -0.1245  0.1059 -0.9824
 8751TIP3    H147744   3.884   5.076   4.560 -0.2442  0.3829 -1.7568
 8751TIP3    H247745   3.814   5.143   4.676  0.6032  0.1788 -1.1218
 8752TIP3   OH247746   4.807   5.078   5.678  0.6752  0.0925  0.4004
 8752TIP3    H147747   4.723   5.031   5.675  1.5436 -1.6219  1.6070
 8752TIP3    H247748   4.791   5.153   5.736  0.2565 -0.8480  1.5332
 8753TIP3   OH247749   3.917   3.435   5.886 -0.1483 -0.6207  0.0266
 8753TIP3    H147750   3.993   3.395   5.927 -0.6305 -1.8397 -0.2222
 8753TIP3    H247751   3.943   3.449   5.795  0.5194  1.0142  0.4369
 8754TIP3   OH247752   1.396   5.758  15.272 -0.1412  0.0664  0.6637
 8754TIP3    H147753   1.461   5.690  15.295  0.7677  1.4837  2.5805
 8754TIP3    H247754   1.449   5.835  15.251 -1.1701  0.9007  1.0562
 8755TIP3   OH247755   2.732   0.346   1.006 -0.2510  0.1008  0.2981
 8755TIP3    H147756   2.784   0.366   0.929 -0.4851 -1.5287 -0.3261
 8755TIP3    H247757   2.797   0.338   1.077 -0.0096  1.3087  0.2369
 8756TIP3   OH247758   4.216   5.710  14.834  0.2016 -0.1095 -0.1122
 8756TIP3    H147759   4.202   5.715  14.740  0.9424 -0.8931 -0.2791
 8756TIP3    H247760   4.305   5.745  14.847 -0.1896  0.7325  0.3938
 8757TIP3   OH247761   6.554   0.480   0.869  0.7653 -0.4327 -0.4099
 8757TIP3    H147762   6.639   0.491   0.912  0.1688  2.1130  0.2949
 8757TIP3    H247763   6.517   0.401   0.908  1.8872 -0.3340  0.9170
 8758TIP3   OH247764   6.123   1.683  14.037 -0.1656  0.1753  0.3741
 8758TIP3    H147765   6.153   1.771  14.014  1.6781 -0.8238 -1.3842
 8758TIP3    H247766   6.133   1.632  13.956 -0.1846 -1.8817  1.5883
 8759TIP3   OH247767   1.606   3.987  15.967  0.4609  0.2273 -0.4452
 8759TIP3    H147768   1.695   4.015  15.947  0.2706 -0.1872 -2.0105
 8759TIP3    H247769   1.594   3.907  15.915 -0.5809 -0.1244  0.3107
 8760TIP3   OH247770   3.296   5.793  14.166  0.2200  0.1319 -0.2163
 8760TIP3    H147771   3.307   5.765  14.257 -1.3386  0.7206  0.1798
 8760TIP3    H247772   3.345   5.728  14.115  1.3153 -0.0741  1.0343
 8761TIP3   OH247773   5.644   5.660   1.233  0.1406  0.0542 -0.2540
 8761TIP3    H147774   5.674   5.731   1.290  0.4568 -0.6429  0.4684
 8761TIP3    H247775   5.641   5.699   1.146 -0.8352  1.2929  0.2981
 8762TIP3   OH247776   5.194   2.759  12.374 -0.4856 -0.3667  0.0377
 8762TIP3    H147777   5.199   2.712  12.291  0.4663 -2.4324  1.1709
 8762TIP3    H247778   5.182   2.690  12.440 -1.1836  1.1919  1.6307
 8763TIP3   OH247779   6.539   2.351  14.975  0.5218  0.3131 -0.3943
 8763TIP3    H147780   6.565   2.423  14.918  0.7513  0.9134  0.4466
 8763TIP3    H247781   6.547   2.273  14.920 -1.2050  1.0611 -1.7766
 8764TIP3   OH247782   2.012   1.368   1.420  0.0093  0.4938  0.6088
 8764TIP3    H147783   2.055   1.304   1.476  0.3453  0.8554  0.7655
 8764TIP3    H247784   1.965   1.315   1.355  4.3225 -0.0995 -2.4988
 8765TIP3   OH247785   1.972   6.489   5.146  0.2497  0.0958  0.5853
 8765TIP3    H147786   1.928   6.478   5.231 -0.5409 -0.6313  0.1082
 8765TIP3    H247787   1.912   6.544   5.096 -0.3349 -1.1923 -0.1937
 8766TIP3   OH247788   6.653   6.404   5.305  0.3079 -0.4026 -0.3116
 8766TIP3    H147789   6.658   6.489   5.263  1.6456 -1.1405 -1.7549
 8766TIP3    H247790   6.620   6.345   5.237 -0.9963 -0.9990  0.7818
 8767TIP3   OH247791   3.714   6.684  13.981  0.2090  0.0447  0.2025
 8767TIP3    H147792   3.788   6.628  13.956 -1.1789 -1.8216  0.0639
 8767TIP3    H247793   3.671   6.637  14.052 -1.1635  0.8256 -0.0712
 8768TIP3   OH247794   2.889   5.773   5.464 -0.4479 -0.2911  0.0019
 8768TIP3    H147795   2.819   5.817   5.415  0.4373  1.4683  0.2226
 8768TIP3    H247796   2.950   5.843   5.486  0.4006 -1.4481  1.5352
 8769TIP3   OH247797   6.733   6.738  16.317 -0.2997  0.2104  0.1156
 8769TIP3    H147798   6.736   6.660  16.262  1.2033 -0.6502  1.3464
 8769TIP3    H247799   6.799   6.796  16.280  1.2457 -0.6755  1.3884
 8770TIP3   OH247800   3.269   3.650   5.465  0.7029 -0.9089 -0.0052
 8770TIP3    H147801   3.178   3.630   5.488  1.0486 -1.1441  1.2749
 8770TIP3    H247802   3.313   3.565   5.468  1.0584 -0.7308 -0.1383
 8771TIP3   OH247803   6.328   0.810  16.272 -0.5887  0.3395  0.0060
 8771TIP3    H147804   6.384   0.792  16.196  0.3366 -1.4132  1.0552
 8771TIP3    H247805   6.342   0.903  16.290 -0.4524  0.6753 -1.6533
 8772TIP3   OH247806   2.420   0.939  13.685  0.1422  0.0877  0.5179
 8772TIP3    H147807   2.502   0.900  13.715 -0.1774 -1.2425 -0.2400
 8772TIP3    H247808   2.354   0.903  13.745  0.0350  0.7255  0.7881
 8773TIP3   OH247809   4.588   4.150  17.040 -0.3343  0.1517 -0.2925
 8773TIP3    H147810   4.640   4.075  17.010  0.2546 -0.4301  2.0357
 8773TIP3    H247811   4.508   4.145  16.988  0.1294 -1.4738 -0.9384
 8774TIP3   OH247812   0.676   4.954   3.865  0.1636  0.0881  0.4416
 8774TIP3    H147813   0.592   4.933   3.824 -0.3656  0.5380  1.2747
 8774TIP3    H247814   0.728   4.992   3.794 -0.4056 -0.0144 -0.0399
 8775TIP3   OH247815   0.652   2.154   4.951  0.1005  0.0283  0.2944
 8775TIP3    H147816   0.612   2.235   4.917 -0.9610  0.2776  1.9978
 8775TIP3    H247817   0.736   2.183   4.987 -0.4397  0.4995  1.2447
 8776TIP3   OH247818   1.008   4.359  10.855 -0.1244 -0.3129  0.0653
 8776TIP3    H147819   1.083   4.394  10.901 -0.5478  0.9105 -0.1144
 8776TIP3    H247820   0.949   4.434  10.846 -0.7349 -0.8978 -1.0461
 8777TIP3   OH247821   2.476   3.267  13.877  0.2678 -0.2304 -0.3890
 8777TIP3    H147822   2.469   3.232  13.966 -0.1279  0.5155 -0.1130
 8777TIP3    H247823   2.421   3.346  13.878  0.2152 -0.2414 -1.3101
 8778TIP3   OH247824   2.068   2.768  12.418  0.8321  0.0149  0.4117
 8778TIP3    H147825   2.052   2.688  12.468  3.4623  0.0949  1.5274
 8778TIP3    H247826   2.156   2.757  12.383  0.6399  1.7711 -0.7454
 8779TIP3   OH247827   5.519   5.039   1.941 -0.1085  0.1133  0.4311
 8779TIP3    H147828   5.505   4.957   1.989 -1.0447 -0.0876 -0.1689
 8779TIP3    H247829   5.553   5.099   2.007 -1.0979 -0.2393  1.2938
 8780TIP3   OH247830   3.773   6.496  12.138  0.3216  0.4015 -0.1599
 8780TIP3    H147831   3.865   6.502  12.115  0.5456 -2.7887 -0.5382
 8780TIP3    H247832   3.772   6.486  12.233  0.4065 -0.1303 -0.2151
 8781TIP3   OH247833   0.388   1.471   5.067 -0.5098  0.8472  0.1937
 8781TIP3    H147834   0.293   1.474   5.080 -0.4470  1.6667  0.5429
 8781TIP3    H247835   0.405   1.383   5.033 -1.3740  0.6424  0.2655
 8782TIP3   OH247836   1.842   0.152  15.977 -0.3197 -0.0732 -0.3762
 8782TIP3    H147837   1.906   0.216  15.949 -0.8663 -0.1451 -1.8871
 8782TIP3    H247838   1.789   0.197  16.043 -0.3577  0.8483 -1.0284
 8783TIP3   OH247839   4.382   0.209  15.887 -0.7440  0.2421 -0.5058
 8783TIP3    H147840   4.376   0.224  15.792 -1.0620 -0.4620 -0.6044
 8783TIP3    H247841   4.389   0.114  15.896 -2.2243  0.1729  0.2352
 8784TIP3   OH247842   5.353   5.829  12.355  0.4220  0.0508  0.7423
 8784TIP3    H147843   5.302   5.878  12.419  0.9514  3.0260 -0.9667
 8784TIP3    H247844   5.287   5.799  12.291  0.4225  1.5758 -0.0234
 8785TIP3   OH247845   0.306   5.218  15.215  0.3409 -0.2379  0.0980
 8785TIP3    H147846   0.279   5.134  15.178  1.1519  0.1356 -1.4168
 8785TIP3    H247847   0.336   5.269  15.140  0.4870  1.1733  1.0765
 8786TIP3   OH247848   1.969   5.435  13.793 -0.6534 -0.1981  0.0769
 8786TIP3    H147849   2.062   5.414  13.781 -0.3375  0.9860  0.2501
 8786TIP3    H247850   1.923   5.352  13.780  0.3343 -0.5960 -1.0784
 8787TIP3   OH247851   0.720   0.529   2.463 -0.0645 -0.6551  0.1198
 8787TIP3    H147852   0.718   0.500   2.554 -3.3530 -0.5330  0.2181
 8787TIP3    H247853   0.653   0.476   2.420 -1.2226  1.7664 -1.3117
 8788TIP3   OH247854   4.638   2.925  15.114 -0.3184  0.2733 -0.2328
 8788TIP3    H147855   4.609   2.835  15.099 -1.4880  0.5088  0.4931
 8788TIP3    H247856   4.716   2.917  15.170 -0.5719 -0.2773  0.0413
 8789TIP3   OH247857   1.420   1.465  13.652 -0.1870  0.5956 -0.2063
 8789TIP3    H147858   1.393   1.527  13.584 -0.4121  0.3167 -0.3694
 8789TIP3    H247859   1.459   1.392  13.605 -1.2266 -0.0454 -0.0917
 8790TIP3   OH247860   5.459   0.794   3.388  0.3154  0.2686  0.4167
 8790TIP3    H147861   5.369   0.788   3.354 -0.4650 -1.5615  2.5414
 8790TIP3    H247862   5.461   0.877   3.435  0.1306  0.8652 -0.5864
 8791TIP3   OH247863   3.944   2.093  16.709 -0.0412  0.5364 -0.4311
 8791TIP3    H147864   3.945   2.024  16.643 -0.2782  2.2646 -2.3470
 8791TIP3    H247865   3.897   2.055  16.783 -2.2946 -0.6175 -2.3312
 8792TIP3   OH247866   0.844   4.961  14.573 -0.2149 -0.3906  0.2037
 8792TIP3    H147867   0.762   4.954  14.621 -0.2408 -1.6106  0.0333
 8792TIP3    H247868   0.854   4.875  14.531 -0.6825  0.9156 -2.7891
 8793TIP3   OH247869   0.963   6.263  17.032  0.2618  0.2293 -0.3713
 8793TIP3    H147870   0.992   6.207  17.104  1.4412 -1.0514 -1.7640
 8793TIP3    H247871   0.966   6.207  16.955  1.2280  2.1145 -1.7981
 8794TIP3   OH247872   1.987   4.930  11.312  0.3022  0.2279  0.2003
 8794TIP3    H147873   2.014   4.964  11.227  1.1954 -0.1008  0.3391
 8794TIP3    H247874   1.974   5.008  11.366 -0.9995  0.4772 -0.4274
 8795TIP3   OH247875   0.587   6.086  13.401  0.0623 -0.1534  0.1184
 8795TIP3    H147876   0.502   6.045  13.384 -0.2238 -0.0756  1.2748
 8795TIP3    H247877   0.566   6.162  13.455  0.6514  1.1615 -1.4381
 8796TIP3   OH247878   1.474   4.618   2.988  0.0325  0.1733 -0.0534
 8796TIP3    H147879   1.491   4.605   3.081  0.9997 -0.2888 -0.2803
 8796TIP3    H247880   1.406   4.554   2.966  0.2263 -0.1183  0.2019
 8797TIP3   OH247881   1.255   4.132  12.542 -0.3580 -0.3767  0.2075
 8797TIP3    H147882   1.234   4.224  12.525 -0.6711 -0.4674  0.0885
 8797TIP3    H247883   1.349   4.131  12.562 -0.0899 -0.1763 -0.9691
 8798TIP3   OH247884   1.827   1.397  14.820 -0.2032 -0.6294 -0.0296
 8798TIP3    H147885   1.899   1.383  14.758  0.3161 -0.5605  0.5490
 8798TIP3    H247886   1.849   1.478  14.865 -1.5989  0.4262 -1.1500
 8799TIP3   OH247887   0.853   6.403   4.070  0.3143 -0.9128  0.3429
 8799TIP3    H147888   0.800   6.397   4.150 -0.8449 -1.1871 -0.4306
 8799TIP3    H247889   0.826   6.328   4.017 -1.5558  1.1356 -1.8261
 8800TIP3   OH247890   6.618   3.149   4.176 -0.1476  0.0479  0.0458
 8800TIP3    H147891   6.702   3.194   4.183 -1.1562  2.4739 -2.0914
 8800TIP3    H247892   6.558   3.214   4.141 -2.3270 -2.3133 -0.9435
 8801TIP3   OH247893   0.243   6.269   0.494  0.4633 -0.0064 -0.2101
 8801TIP3    H147894   0.249   6.174   0.496  0.1320 -0.0490 -0.9736
 8801TIP3    H247895   0.165   6.289   0.545  0.4082 -0.1586 -0.2347
 8802TIP3   OH247896   2.836   5.843  12.574  0.0928  0.0838 -0.2372
 8802TIP3    H147897   2.842   5.908  12.503  1.6779 -1.5930 -1.7306
 8802TIP3    H247898   2.921   5.846  12.616  0.2674 -1.1652 -0.4789
 8803TIP3   OH247899   1.361   4.138   4.728  0.7654 -0.0042  0.9381
 8803TIP3    H147900   1.352   4.142   4.823  2.9908 -0.5016  1.2177
 8803TIP3    H247901   1.425   4.069   4.713  1.0038  0.5616 -0.8929
 8804TIP3   OH247902   3.020   2.908   0.022 -0.8413 -0.1900 -0.6505
 8804TIP3    H147903   2.935   2.944   0.047 -1.1213 -1.4718  0.3988
 8804TIP3    H247904   3.049   2.861   0.100  0.9377  0.3835 -0.9336
 8805TIP3   OH247905   3.038   5.905  16.787 -0.2252 -0.0539 -0.8813
 8805TIP3    H147906   3.079   5.836  16.838 -0.1912  1.2691  0.9525
 8805TIP3    H247907   3.109   5.965  16.764 -0.4283 -0.0408 -1.4989
 8806TIP3   OH247908   1.673   2.997   1.461 -0.0321 -0.0984 -0.1496
 8806TIP3    H147909   1.752   3.028   1.417 -0.5749 -0.5587 -1.4940
 8806TIP3    H247910   1.687   3.019   1.553  1.3305  0.4964 -0.4717
 8807TIP3   OH247911   0.383   5.243   1.009 -0.2792  0.2836  0.4327
 8807TIP3    H147912   0.304   5.205   0.972 -0.2026 -0.4733  1.0288
 8807TIP3    H247913   0.353   5.320   1.057 -0.7164 -0.2561  1.0341
 8808TIP3   OH247914   4.988   1.489  13.592 -0.1412 -0.3372  0.7206
 8808TIP3    H147915   4.896   1.461  13.589  0.1492 -1.5372  1.9837
 8808TIP3    H247916   5.027   1.451  13.513 -0.9862  1.2788 -0.5222
 8809TIP3   OH247917   2.007   4.531   2.865  0.0860 -0.5816 -0.1445
 8809TIP3    H147918   1.917   4.507   2.885  0.7723 -2.2100  1.1780
 8809TIP3    H247919   2.008   4.546   2.771 -1.9663  1.4095  0.0724
 8810TIP3   OH247920   1.682   4.796  16.814 -0.2818 -0.2356 -0.1220
 8810TIP3    H147921   1.752   4.780  16.876  0.1221 -2.0300 -0.9578
 8810TIP3    H247922   1.605   4.752  16.851 -0.2663 -0.5478 -0.4461
 8811TIP3   OH247923   5.437   6.378   4.460  0.0594  0.0972  0.4317
 8811TIP3    H147924   5.345   6.390   4.485  0.0541  1.5275 -0.1704
 8811TIP3    H247925   5.444   6.284   4.441 -1.2687 -0.0471  0.5356
 8812TIP3   OH247926   3.206   5.147  14.092  0.4195  0.1615 -0.2317
 8812TIP3    H147927   3.188   5.066  14.139  1.1014 -0.0797 -0.3664
 8812TIP3    H247928   3.140   5.209  14.123  1.6955  0.4480  2.1018
 8813TIP3   OH247929   1.768   5.645   0.930  0.0721  0.3676  0.3256
 8813TIP3    H147930   1.790   5.572   0.989 -1.5477 -0.7799 -0.4468
 8813TIP3    H247931   1.738   5.714   0.989 -0.2320 -0.2721  0.9382
 8814TIP3   OH247932   0.007   2.642  13.218 -0.0748 -0.2416  0.0015
 8814TIP3    H147933  -0.077   2.683  13.196  0.3290 -0.0579 -1.2783
 8814TIP3    H247934  -0.017   2.562  13.265 -1.0835 -1.2332 -2.0643
 8815TIP3   OH247935   2.997   2.763  15.327 -0.0149 -0.3545 -0.5274
 8815TIP3    H147936   3.001   2.818  15.248  1.4365  0.5543  0.1504
 8815TIP3    H247937   2.943   2.814  15.388 -1.2295 -1.1073 -0.9389
 8816TIP3   OH247938   6.267   1.494   0.576 -0.4616 -0.1729 -0.0955
 8816TIP3    H147939   6.270   1.589   0.581  0.4049 -0.2241  0.5731
 8816TIP3    H247940   6.180   1.471   0.611 -0.3922  0.3305  0.4200
 8817TIP3   OH247941   3.232   1.580  12.498 -0.0844 -0.3115  0.0518
 8817TIP3    H147942   3.312   1.557  12.544 -0.0169  0.1989  0.1903
 8817TIP3    H247943   3.214   1.504  12.442  0.9756 -0.0779 -0.6456
 8818TIP3   OH247944   0.076   5.248   2.699  0.0093  0.3501  0.1023
 8818TIP3    H147945   0.104   5.161   2.724  0.4996  0.9626  1.8371
 8818TIP3    H247946   0.066   5.244   2.603  1.3169 -1.2069 -0.0057
 8819TIP3   OH247947   1.636   1.994  15.903  0.1402 -0.1928 -0.2178
 8819TIP3    H147948   1.617   2.073  15.955  2.1576  0.2228 -0.0047
 8819TIP3    H247949   1.552   1.969  15.866 -0.6986  1.6542  0.2894
 8820TIP3   OH247950   0.776   0.567   0.609 -0.0720  0.2412  0.2039
 8820TIP3    H147951   0.803   0.493   0.555  0.8761 -0.5573  1.7163
 8820TIP3    H247952   0.686   0.547   0.633  1.4524 -3.0727  4.5355
 8821TIP3   OH247953   5.171   6.710   3.607  0.2002 -0.6392 -0.0944
 8821TIP3    H147954   5.221   6.705   3.525  0.2221  1.0261 -0.2289
 8821TIP3    H247955   5.228   6.758   3.667 -0.4995 -0.3256  0.3323
 8822TIP3   OH247956   1.459   5.797   4.936 -0.4845  0.3938 -0.0204
 8822TIP3    H147957   1.492   5.805   5.025 -1.2564 -0.6231  0.3839
 8822TIP3    H247958   1.390   5.863   4.930 -0.0448  0.8510 -0.0571
 8823TIP3   OH247959   5.524   1.880   4.460 -0.1378 -0.2387  0.1294
 8823TIP3    H147960   5.543   1.797   4.416 -1.3736 -0.3139 -0.2928
 8823TIP3    H247961   5.467   1.927   4.400  0.8524  1.1072  0.1900
 8824TIP3   OH247962   6.638   5.833  12.101  0.2542 -0.3209  0.2292
 8824TIP3    H147963   6.721   5.867  12.133 -0.1081 -1.1049  2.1376
 8824TIP3    H247964   6.596   5.908  12.058  0.5710  0.9846  2.0728
 8825TIP3   OH247965   6.220   5.323  12.828 -0.0569  0.2847  0.4179
 8825TIP3    H147966   6.135   5.360  12.851 -0.5294 -0.4254 -0.1418
 8825TIP3    H247967   6.284   5.380  12.871 -0.8209  0.6957  1.0324
 8826TIP3   OH247968   3.055   0.901  12.480 -0.2896  0.7896 -0.1360
 8826TIP3    H147969   3.147   0.879  12.464 -1.1360 -2.1460 -1.6152
 8826TIP3    H247970   3.037   0.868  12.567 -0.1377  0.6363 -0.1613
 8827TIP3   OH247971   5.113   3.426   1.898  0.3892 -0.3430 -0.3546
 8827TIP3    H147972   5.159   3.493   1.847 -1.2260 -0.0212 -1.4750
 8827TIP3    H247973   5.026   3.421   1.859 -0.0026 -2.1248  0.6028
 8828TIP3   OH247974   0.586   5.861  10.947 -0.5609 -0.2903 -0.0744
 8828TIP3    H147975   0.588   5.957  10.953 -0.7956 -0.2638 -0.3698
 8828TIP3    H247976   0.606   5.843  10.855 -2.0402 -0.4524 -0.4028
 8829TIP3   OH247977   6.574   3.417  14.711  0.1355  0.0362 -0.1590
 8829TIP3    H147978   6.599   3.485  14.648 -1.4675 -0.5194 -1.4578
 8829TIP3    H247979   6.569   3.337  14.659  0.0434 -0.6972  0.9480
 8830TIP3   OH247980   2.625   3.015  16.319 -0.3893  0.4213  0.4453
 8830TIP3    H147981   2.705   2.981  16.279 -0.1149  2.4470 -0.8798
 8830TIP3    H247982   2.560   3.014  16.249 -0.5074  2.0230  0.4919
 8831TIP3   OH247983   2.816   5.393   3.992  0.2074  0.1207  0.0517
 8831TIP3    H147984   2.827   5.388   4.087 -0.9922 -1.4964  0.1359
 8831TIP3    H247985   2.742   5.451   3.980  1.8796  2.3723 -0.0646
 8832TIP3   OH247986   0.256   1.762  14.212 -0.0131  0.2835 -0.4670
 8832TIP3    H147987   0.326   1.788  14.272  0.9297 -1.5267 -0.6967
 8832TIP3    H247988   0.176   1.764  14.266  0.6636 -0.3271  0.6015
 8833TIP3   OH247989   6.225   2.008  15.207 -0.0612 -0.3293  0.2605
 8833TIP3    H147990   6.141   2.052  15.218  0.3053  0.3162  0.4974
 8833TIP3    H247991   6.232   1.995  15.112 -0.0532  0.3687  0.1570
 8834TIP3   OH247992   3.294   3.187   5.657  0.2134  0.7125  0.2173
 8834TIP3    H147993   3.263   3.121   5.719  0.9136  1.9313  1.9863
 8834TIP3    H247994   3.366   3.145   5.611  0.3146  0.0560  0.9422
 8835TIP3   OH247995   2.456   1.157  12.032 -0.1939  0.2295  0.1524
 8835TIP3    H147996   2.377   1.174  12.084 -1.8597 -1.6601 -1.5856
 8835TIP3    H247997   2.510   1.235  12.045 -0.6018  0.0208  4.3937
 8836TIP3   OH247998   4.481   3.750   2.906  0.3017 -0.6625 -0.2582
 8836TIP3    H147999   4.406   3.740   2.847  0.3900 -0.1149 -0.4665
 8836TIP3    H248000   4.443   3.749   2.994 -0.1449  1.1230 -0.3913
 8837TIP3   OH248001   4.861   5.867   5.472 -0.0437 -0.3406  0.3556
 8837TIP3    H148002   4.910   5.797   5.516 -0.5149 -1.5006 -0.8792
 8837TIP3    H248003   4.869   5.846   5.379  0.1905  1.5485 -0.0830
 8838TIP3   OH248004   4.036   2.538   5.502  0.1774 -0.0056 -0.5384
 8838TIP3    H148005   4.104   2.587   5.457 -0.1281 -0.5630 -1.6425
 8838TIP3    H248006   4.048   2.447   5.473  0.3277 -0.4967  0.9619
 8839TIP3   OH248007   0.286   3.470   3.636  0.0604 -0.3849 -0.5363
 8839TIP3    H148008   0.291   3.375   3.634 -1.4817 -0.4828 -1.6471
 8839TIP3    H248009   0.196   3.489   3.662 -0.4523  0.6842 -2.8030
 8840TIP3   OH248010   0.529   1.289  15.061  0.0477 -0.1816  0.2437
 8840TIP3    H148011   0.456   1.338  15.099 -0.4414 -0.6751 -0.0351
 8840TIP3    H248012   0.571   1.352  15.002 -0.4197 -0.0130  0.0800
 8841TIP3   OH248013   5.249   3.751  15.837  0.1434  0.2803 -0.4203
 8841TIP3    H148014   5.314   3.689  15.804 -0.6397 -0.4791 -0.5817
 8841TIP3    H248015   5.208   3.705  15.910 -1.2036  0.1469 -1.2354
 8842TIP3   OH248016   5.993   3.586  11.020  0.6771 -0.2916  0.3526
 8842TIP3    H148017   6.063   3.607  10.958 -2.4878  1.1750 -3.1206
 8842TIP3    H248018   5.967   3.497  10.999  0.5791 -0.3287  0.6247
 8843TIP3   OH248019   0.891   2.175  14.758 -0.1241 -0.3916  0.0365
 8843TIP3    H148020   0.830   2.153  14.828 -0.1100 -1.2740 -0.2157
 8843TIP3    H248021   0.962   2.112  14.767 -0.3091 -0.7632 -1.0014
 8844TIP3   OH248022   2.354   5.465  16.366  0.5453 -0.4839  0.0995
 8844TIP3    H148023   2.334   5.558  16.376 -1.5398 -0.8384 -0.4295
 8844TIP3    H248024   2.355   5.431  16.456 -0.1839 -0.2305  0.2085
 8845TIP3   OH248025   6.449   5.612  16.850 -0.2800  0.1690  0.1613
 8845TIP3    H148026   6.363   5.620  16.891 -0.7883  0.3050 -0.8953
 8845TIP3    H248027   6.444   5.533  16.796 -0.0367  0.6403 -0.5707
 8846TIP3   OH248028   4.725   0.475  16.466  0.4151 -0.5079  0.0616
 8846TIP3    H148029   4.752   0.474  16.374  0.0793 -1.0809 -0.0324
 8846TIP3    H248030   4.789   0.533  16.508 -0.3998  1.0753 -0.8091
 8847TIP3   OH248031   3.723   0.335  15.775  0.1816  0.5263 -0.6617
 8847TIP3    H148032   3.663   0.403  15.806 -0.0256 -0.2742  0.7894
 8847TIP3    H248033   3.695   0.256  15.821  0.5435 -0.5088 -2.1667
 8848TIP3   OH248034   6.468   1.217  14.977  0.3544  0.7013  0.0913
 8848TIP3    H148035   6.529   1.224  14.903 -1.0661  1.7986 -1.0258
 8848TIP3    H248036   6.390   1.264  14.948 -1.1480 -0.9118  1.3634
 8849TIP3   OH248037   0.725   0.323  13.749 -0.5235  0.1017 -0.4974
 8849TIP3    H148038   0.679   0.310  13.832  0.9049 -0.7066  0.2007
 8849TIP3    H248039   0.815   0.345  13.774  0.3358 -1.6739 -1.8121
 8850TIP3   OH248040   2.962   3.909  12.293  0.0825 -0.6343 -0.1364
 8850TIP3    H148041   2.933   3.830  12.338 -1.5839  1.7711  3.4764
 8850TIP3    H248042   2.886   3.939  12.243  0.5471 -0.9767 -1.0832
 8851TIP3   OH248043   0.038   1.321  12.373  0.0013 -0.2656  1.3173
 8851TIP3    H148044   0.107   1.276  12.422  1.4694 -0.9624 -1.2222
 8851TIP3    H248045   0.084   1.363  12.301 -2.1996 -0.5144 -0.3186
 8852TIP3   OH248046   0.819   2.094  13.264 -0.5648  0.0513 -0.2724
 8852TIP3    H148047   0.736   2.051  13.286 -0.4296  0.0385  0.2377
 8852TIP3    H248048   0.811   2.181  13.303 -0.1148 -0.1471  0.2840
 8853TIP3   OH248049   1.734   2.296   3.897  0.7460 -0.0791  0.1800
 8853TIP3    H148050   1.733   2.264   3.808  1.6878 -0.2840  0.2384
 8853TIP3    H248051   1.659   2.253   3.939  2.2047 -2.5950  0.3889
 8854TIP3   OH248052   0.057   3.293   5.607 -0.0314 -0.2867  0.2126
 8854TIP3    H148053  -0.016   3.247   5.649 -0.0177  0.7035  1.3719
 8854TIP3    H248054   0.135   3.259   5.650  0.0254  0.2416  0.5467
 8855TIP3   OH248055   3.694   2.162  11.608 -0.1517  0.2748 -0.0238
 8855TIP3    H148056   3.782   2.133  11.586  0.2377  0.4783  1.2011
 8855TIP3    H248057   3.706   2.251  11.642 -0.8696  0.4035 -0.0905
 8856TIP3   OH248058   2.833   5.125   1.550 -0.2283  0.0213  0.0932
 8856TIP3    H148059   2.910   5.152   1.601 -0.7422 -0.4520  1.1359
 8856TIP3    H248060   2.810   5.039   1.585 -0.2927 -0.5450 -1.2917
 8857TIP3   OH248061   0.640   2.183  14.884 -0.2289  0.3059  0.5012
 8857TIP3    H148062   0.705   2.204  14.951  0.4942 -0.3809  0.0442
 8857TIP3    H248063   0.615   2.092  14.903 -0.8687  0.4801  0.5139
 8858TIP3   OH248064   4.843   3.111  11.852 -0.3592  0.2388 -0.0537
 8858TIP3    H148065   4.868   3.033  11.804  0.0477  0.2153  0.1947
 8858TIP3    H248066   4.758   3.136  11.815 -1.7513 -1.7641  1.5291
 8859TIP3   OH248067   3.540   1.893   3.020  0.1850 -0.6693 -0.3163
 8859TIP3    H148068   3.528   1.906   3.114  0.9061 -2.5168  0.0670
 8859TIP3    H248069   3.550   1.982   2.985  0.6231  0.0156  1.4347
 8860TIP3   OH248070   5.278   4.721   0.344 -0.4562 -0.0758  0.4116
 8860TIP3    H148071   5.263   4.806   0.385 -2.4436 -1.2858  2.4395
 8860TIP3    H248072   5.258   4.736   0.251 -2.1950  1.3998  0.9467
 8861TIP3   OH248073   3.016   4.418  15.156 -0.0311  0.6401 -0.4991
 8861TIP3    H148074   2.968   4.393  15.235  0.1730  1.5039 -0.0795
 8861TIP3    H248075   3.075   4.345  15.139 -0.0616  0.4530  0.1666
 8862TIP3   OH248076   0.578   0.553   0.008  0.3633 -0.1177  0.0547
 8862TIP3    H148077   0.511   0.571   0.073  1.5978 -0.8808  1.5926
 8862TIP3    H248078   0.652   0.608   0.034  0.2279  1.0702 -1.8820
 8863TIP3   OH248079   4.667   3.964  12.331  0.3974  0.2055  0.3117
 8863TIP3    H148080   4.659   3.955  12.236  1.5001  0.8233  0.1519
 8863TIP3    H248081   4.761   3.967  12.348  0.2488  2.5184  1.1641
 8864TIP3   OH248082   6.527   4.786  13.775  0.9223 -0.8641 -0.3254
 8864TIP3    H148083   6.510   4.779  13.869 -0.5138 -1.4878 -0.6038
 8864TIP3    H248084   6.622   4.782  13.768  0.9936 -2.5830  0.9698
 8865TIP3   OH248085   4.316   0.942   6.078  0.6171  0.6483 -0.0732
 8865TIP3    H148086   4.259   0.942   6.154  1.3533 -0.3910  0.5106
 8865TIP3    H248087   4.276   0.878   6.019  1.4986 -0.5783  0.6184
 8866TIP3   OH248088   4.135   3.352  10.368 -0.0702  0.2736 -0.5234
 8866TIP3    H148089   4.207   3.303  10.328  0.7556  1.6715 -0.8139
 8866TIP3    H248090   4.084   3.385  10.294 -1.1441 -0.8634 -0.3165
 8867TIP3   OH248091   4.947   6.211  15.735  0.0034  0.1350  0.0321
 8867TIP3    H148092   4.854   6.219  15.758 -0.5179  0.1305 -1.8501
 8867TIP3    H248093   4.992   6.271  15.795 -1.3529  1.0192  0.2232
 8868TIP3   OH248094   1.025   6.066   2.881  0.7065 -0.0219  0.1988
 8868TIP3    H148095   1.066   6.007   2.817  1.3698 -0.3164  0.8773
 8868TIP3    H248096   0.932   6.066   2.857  0.5678 -1.8351  0.5275
 8869TIP3   OH248097   5.730   0.592   0.287 -0.1968 -0.6645  0.3945
 8869TIP3    H148098   5.809   0.540   0.271 -1.0235 -1.4529 -1.3786
 8869TIP3    H248099   5.689   0.601   0.201 -1.3826  0.8380  1.0674
 8870TIP3   OH248100   6.064   0.064   2.042 -0.5923  0.6400  0.2188
 8870TIP3    H148101   6.108   0.055   2.127 -2.6687  0.5211  1.3501
 8870TIP3    H248102   6.123   0.022   1.980  0.5334 -0.1630  1.7643
 8871TIP3   OH248103   5.124   6.054  15.553 -0.4010  0.2840 -0.1958
 8871TIP3    H148104   5.074   6.118  15.604  0.7819 -0.3256  1.8372
 8871TIP3    H248105   5.167   5.999  15.619  0.2486 -1.3243 -1.8756
 8872TIP3   OH248106   5.819   4.351   4.818  0.1749  0.0998  0.1930
 8872TIP3    H148107   5.781   4.396   4.893  0.4628  0.8929 -0.1258
 8872TIP3    H248108   5.745   4.311   4.773 -0.2926  1.5308 -0.3610
 8873TIP3   OH248109   1.464   1.285  10.738  0.1693  0.0114 -0.0207
 8873TIP3    H148110   1.390   1.265  10.797 -0.0438  0.2041 -0.2244
 8873TIP3    H248111   1.523   1.210  10.749  0.6308  0.5340  1.2300
 8874TIP3   OH248112   0.408   1.962  10.503  0.4945  0.5562  0.2039
 8874TIP3    H148113   0.463   2.005  10.569 -1.3070  3.9779 -0.3281
 8874TIP3    H248114   0.324   1.948  10.547 -0.0185  0.8100 -0.6683
 8875TIP3   OH248115   3.988   0.187  13.863 -0.0376  0.1709 -0.0289
 8875TIP3    H148116   3.902   0.164  13.829  0.7627  0.8556 -2.7212
 8875TIP3    H248117   4.008   0.272  13.824  2.5042 -0.7002 -0.8581
 8876TIP3   OH248118   1.025   1.038   2.693  0.8488 -0.0440 -0.3052
 8876TIP3    H148119   0.931   1.037   2.710  1.1937  1.2433  1.9458
 8876TIP3    H248120   1.063   0.985   2.763  1.9704  1.4790  0.2962
 8877TIP3   OH248121   3.247   5.832  12.411 -0.3027 -0.3257  0.0909
 8877TIP3    H148122   3.200   5.770  12.468 -0.8290 -0.7115 -0.7407
 8877TIP3    H248123   3.332   5.843  12.453 -0.0010 -2.0129  0.0146
 8878TIP3   OH248124   5.647   0.914  17.057 -0.0125  0.5907 -0.1584
 8878TIP3    H148125   5.598   0.903  16.975  0.8198  0.5802 -0.6620
 8878TIP3    H248126   5.598   0.981  17.105 -2.7162 -2.0257  1.0808
 8879TIP3   OH248127   5.765   0.831  11.798  0.7132 -0.4457  0.8960
 8879TIP3    H148128   5.682   0.809  11.839  1.5978 -0.6705  2.6626
 8879TIP3    H248129   5.819   0.752  11.807  0.9495 -0.5107 -0.7510
 8880TIP3   OH248130   4.753   2.078  11.519  0.5779  0.2593 -0.1616
 8880TIP3    H148131   4.847   2.081  11.534  0.4567 -1.4999  1.3008
 8880TIP3    H248132   4.739   2.130  11.439  3.0209 -1.1029 -1.5872
 8881TIP3   OH248133   1.461   6.530  17.053  0.2095 -0.1289  0.1721
 8881TIP3    H148134   1.408   6.602  17.088  0.7425  0.2519  0.2022
 8881TIP3    H248135   1.500   6.566  16.973  0.7065 -0.2887  0.3452
 8882TIP3   OH248136   3.300   3.264  14.200 -0.2392 -0.5903  0.2134
 8882TIP3    H148137   3.255   3.210  14.135 -0.5958  1.0557 -0.9747
 8882TIP3    H248138   3.384   3.286  14.160 -0.4072  0.3376  0.3417
 8883TIP3   OH248139   1.606   2.978  12.732 -0.3653 -0.0271 -0.1153
 8883TIP3    H148140   1.571   2.896  12.766  1.8829 -0.7821  0.5238
 8883TIP3    H248141   1.556   3.046  12.777 -3.0318 -0.9344 -1.4467
 8884TIP3   OH248142   1.404   6.556   4.992 -0.3463  0.1034 -0.3754
 8884TIP3    H148143   1.384   6.474   5.038  1.7993 -0.4852 -0.4057
 8884TIP3    H248144   1.499   6.558   4.987 -0.3861  2.2132 -1.1310
 8885TIP3   OH248145   3.009   5.542  14.727  0.2541  0.5900 -0.9769
 8885TIP3    H148146   3.040   5.630  14.707 -0.3047  0.6723 -1.5094
 8885TIP3    H248147   2.913   5.549  14.725  0.2041 -0.0698 -1.2219
 8886TIP3   OH248148   0.480   6.160   0.775  0.2572 -0.3141  0.1622
 8886TIP3    H148149   0.518   6.123   0.855  1.0351  1.7012  0.7957
 8886TIP3    H248150   0.554   6.168   0.715 -0.2888 -1.6252 -0.7013
 8887TIP3   OH248151   3.706   4.926  11.832 -0.0489  0.2178 -0.3788
 8887TIP3    H148152   3.758   4.980  11.892  0.3504 -0.9181  0.3157
 8887TIP3    H248153   3.767   4.862  11.798 -0.8142 -0.6526 -0.1490
 8888TIP3   OH248154   1.381   0.714   4.892 -0.1702 -0.2249  0.4695
 8888TIP3    H148155   1.386   0.805   4.861 -1.0682 -0.2772  0.1288
 8888TIP3    H248156   1.440   0.711   4.966  0.4792  0.4350 -0.0060
 8889TIP3   OH248157   6.725   0.915  10.347 -0.2002 -0.6126  0.0663
 8889TIP3    H148158   6.703   0.831  10.388 -2.2575 -0.5138 -0.6966
 8889TIP3    H248159   6.671   0.979  10.393  0.8188  0.2018  0.1605
 8890TIP3   OH248160   3.886   2.601   2.634 -0.3078  0.2135 -0.0276
 8890TIP3    H148161   3.958   2.628   2.577 -1.6677  0.1851 -1.8321
 8890TIP3    H248162   3.868   2.678   2.688  0.0094  0.7669 -0.6974
 8891TIP3   OH248163   5.320   0.533  14.972  0.2236 -0.3081 -0.4708
 8891TIP3    H148164   5.292   0.625  14.971 -1.1241 -0.7013 -1.0422
 8891TIP3    H248165   5.411   0.535  14.943  0.4802  0.9177  0.3321
 8892TIP3   OH248166   6.088   0.427  15.308  1.0866 -0.5591 -0.1123
 8892TIP3    H148167   6.148   0.462  15.375  0.7198 -0.1686  0.0157
 8892TIP3    H248168   6.048   0.351  15.350  1.0662 -0.4809  0.0125
 8893TIP3   OH248169   3.381   4.894   3.841  0.2728 -0.4159  0.7170
 8893TIP3    H148170   3.321   4.960   3.876 -0.1790  0.9549 -2.3082
 8893TIP3    H248171   3.329   4.814   3.835  0.1919 -0.5269  2.4203
 8894TIP3   OH248172   1.172   6.378   6.058 -0.2092  0.0713 -0.4956
 8894TIP3    H148173   1.128   6.357   6.140 -0.4233 -1.1172 -0.9034
 8894TIP3    H248174   1.265   6.375   6.079 -0.2498  2.5017  0.3473
 8895TIP3   OH248175   1.724   0.848  11.486 -0.6215  0.3845 -0.1815
 8895TIP3    H148176   1.643   0.887  11.454 -0.6857 -0.7374 -1.4638
 8895TIP3    H248177   1.763   0.807  11.409  0.8416  0.3331  0.5485
 8896TIP3   OH248178   0.031   3.144  16.226 -0.4512  0.6373  0.1357
 8896TIP3    H148179  -0.044   3.135  16.167 -0.4835 -1.8905  0.4708
 8896TIP3    H248180   0.100   3.093  16.186  1.0150  2.5498  0.0864
 8897TIP3   OH248181   2.505   5.213   2.160  0.8674 -0.0290  0.1544
 8897TIP3    H148182   2.438   5.278   2.181  1.4017  0.2529  1.0625
 8897TIP3    H248183   2.582   5.266   2.136  1.4087 -0.3002  1.2276
 8898TIP3   OH248184   4.256   4.123  11.302 -0.4144 -0.5354 -0.7770
 8898TIP3    H148185   4.298   4.038  11.307  0.2867 -0.2042 -0.8768
 8898TIP3    H248186   4.163   4.105  11.315  0.0401 -0.8899  3.4617
 8899TIP3   OH248187   0.118   2.106  10.894 -0.1046 -0.1143  0.0235
 8899TIP3    H148188   0.102   2.192  10.932  0.6683  0.0471  0.0058
 8899TIP3    H248189   0.190   2.120  10.833 -1.4268 -0.3291 -1.6586
 8900TIP3   OH248190   1.915   5.055  16.762 -0.0158  0.5024 -0.2404
 8900TIP3    H148191   1.956   5.095  16.686  1.1151  0.2323  0.2164
 8900TIP3    H248192   1.934   4.961  16.753  1.8419  0.6819  1.3774
 8901TIP3   OH248193   1.281   0.408  12.032  0.0340  0.3153 -0.2330
 8901TIP3    H148194   1.276   0.314  12.052  0.9127  0.3546  0.1821
 8901TIP3    H248195   1.361   0.418  11.980  1.1852  1.1414  1.5933
 8902TIP3   OH248196   1.898   1.977   0.523 -0.4379  0.1076 -0.4854
 8902TIP3    H148197   1.807   1.956   0.548 -0.1685 -0.2136  0.2523
 8902TIP3    H248198   1.936   1.893   0.498  0.7558 -0.5081  2.8291
 8903TIP3   OH248199   6.680   1.819  11.440 -0.4249 -0.2372 -0.1151
 8903TIP3    H148200   6.766   1.799  11.402 -0.1502 -1.6953  1.1962
 8903TIP3    H248201   6.619   1.764  11.391  0.1165 -3.2739  2.3710
 8904TIP3   OH248202   3.045   3.470   4.089 -0.1189 -0.5955  0.4027
 8904TIP3    H148203   2.981   3.541   4.091 -0.1910 -0.6593  0.3640
 8904TIP3    H248204   3.119   3.503   4.141 -0.4980 -0.8152  1.1030
 8905TIP3   OH248205   5.239   2.221   4.473 -0.4655  0.0710 -0.2000
 8905TIP3    H148206   5.179   2.231   4.399  1.0500  0.7160 -1.4293
 8905TIP3    H248207   5.285   2.305   4.477  0.0357 -0.2396  0.9917
 8906TIP3   OH248208   6.752   4.517   6.101  0.0685  0.0483 -0.2833
 8906TIP3    H148209   6.818   4.523   6.169  0.2541  0.6675 -0.5173
 8906TIP3    H248210   6.702   4.438   6.123 -0.2490  0.5600  0.8944
 8907TIP3   OH248211   2.620   3.036   1.513 -0.0895  0.1651  0.4838
 8907TIP3    H148212   2.533   3.031   1.552  0.1347 -0.6418  0.9220
 8907TIP3    H248213   2.634   3.129   1.495 -1.3529  0.2226 -0.3312
 8908TIP3   OH248214   6.248   3.796  14.835 -0.0791 -0.2153 -0.2554
 8908TIP3    H148215   6.338   3.769  14.851 -0.4595 -1.3735  0.0173
 8908TIP3    H248216   6.200   3.715  14.821 -1.1032  0.3737 -0.3180
 8909TIP3   OH248217   6.517   1.262  12.313 -0.0977 -0.3265  0.4704
 8909TIP3    H148218   6.465   1.334  12.279  2.4174  0.6873 -1.5881
 8909TIP3    H248219   6.464   1.184  12.298 -0.3345  0.4175 -3.3666
 8910TIP3   OH248220   6.008   1.691  11.867 -0.3711  0.3686 -0.4059
 8910TIP3    H148221   5.985   1.784  11.869  0.1043  0.5197 -1.2158
 8910TIP3    H248222   6.075   1.682  11.935 -0.3589  0.6399 -0.3778
 8911TIP3   OH248223   1.809   5.267   1.448 -0.6162  0.3231  0.6742
 8911TIP3    H148224   1.887   5.321   1.431  0.4347 -1.8716 -2.4877
 8911TIP3    H248225   1.843   5.178   1.455 -2.6711 -0.4482  1.5982
 8912TIP3   OH248226   0.669   4.719   0.457  0.1522 -0.4428  0.2190
 8912TIP3    H148227   0.755   4.677   0.450  0.3433 -0.0715  0.3092
 8912TIP3    H248228   0.654   4.756   0.370  0.9800  1.1956  0.7219
 8913TIP3   OH248229   0.596   3.571   4.358 -0.3156  0.0447 -0.5891
 8913TIP3    H148230   0.576   3.477   4.358 -2.8766  0.4884 -2.7535
 8913TIP3    H248231   0.621   3.590   4.268  1.8318  1.2121  0.1782
 8914TIP3   OH248232   3.938   1.096  16.600  0.0700 -0.3846  0.4078
 8914TIP3    H148233   3.977   1.169  16.553 -0.8578 -0.5692 -0.6791
 8914TIP3    H248234   3.953   1.020  16.545 -0.4610 -0.7207  0.7119
 8915TIP3   OH248235   2.869   2.913  16.181 -0.2312 -0.0163  0.1420
 8915TIP3    H148236   2.961   2.938  16.179 -0.5615  1.2532 -1.1838
 8915TIP3    H248237   2.855   2.866  16.099 -1.5448  3.1348 -1.6276
 8916TIP3   OH248238   2.860   0.082   4.588  0.8709 -0.3620  0.3463
 8916TIP3    H148239   2.805   0.017   4.544 -1.2030  0.7511  1.1548
 8916TIP3    H248240   2.799   0.135   4.638  2.8070  0.4568  1.9745
 8917TIP3   OH248241   4.829   5.605   4.732 -0.5096 -0.1726  0.1396
 8917TIP3    H148242   4.918   5.634   4.748 -0.3031  1.0775 -2.5779
 8917TIP3    H248243   4.778   5.641   4.804  1.0490 -0.2045  1.2948
 8918TIP3   OH248244   0.573   1.787   1.187  0.2812  0.6127 -0.0631
 8918TIP3    H148245   0.577   1.826   1.100  0.9783  2.2432  0.6680
 8918TIP3    H248246   0.664   1.776   1.213  0.0774  0.5142  0.6278
 8919TIP3   OH248247   6.130   2.479  12.532 -0.2745 -0.2830  0.3488
 8919TIP3    H148248   6.040   2.476  12.501 -0.1048 -2.3700 -0.1018
 8919TIP3    H248249   6.162   2.564  12.505 -2.0519  0.4363  0.3877
 8920TIP3   OH248250   1.359   2.844   0.438  0.3072  0.1569 -0.4181
 8920TIP3    H148251   1.297   2.878   0.502  0.2266  0.4556 -0.6533
 8920TIP3    H248252   1.333   2.884   0.355 -0.7715 -1.7016 -1.0302
 8921TIP3   OH248253   4.493   0.905  13.096 -0.3083  0.5999 -0.1226
 8921TIP3    H148254   4.412   0.894  13.046 -1.3075  2.3847  0.9714
 8921TIP3    H248255   4.546   0.964  13.043  0.3294 -0.5926 -0.8538
 8922TIP3   OH248256   1.846   2.567  14.130 -0.2540 -0.3380  0.0672
 8922TIP3    H148257   1.795   2.610  14.199  0.4743  0.0186  0.4073
 8922TIP3    H248258   1.857   2.635  14.063  1.7970  0.4249  1.0723
 8923TIP3   OH248259   0.345   0.115   5.328  0.0445 -0.2670 -0.0353
 8923TIP3    H148260   0.366   0.143   5.418  1.3258 -0.1325 -0.3465
 8923TIP3    H248261   0.283   0.044   5.338 -0.1710  0.0479  0.9482
 8924TIP3   OH248262   3.544   4.446  13.553  0.1047 -0.0854 -0.0018
 8924TIP3    H148263   3.600   4.465  13.478 -0.4678 -0.4144 -0.5168
 8924TIP3    H248264   3.598   4.392  13.611 -0.8429 -3.7718 -2.2663
 8925TIP3   OH248265   0.959   3.109   0.701 -0.4761  0.0210 -0.0734
 8925TIP3    H148266   0.928   3.104   0.611 -0.5275  2.0258 -0.2149
 8925TIP3    H248267   0.882   3.136   0.751  0.2051  1.8032  0.0804
 8926TIP3   OH248268   3.083   3.678   4.581 -0.0333 -0.6147 -0.2037
 8926TIP3    H148269   3.035   3.595   4.578 -0.7379 -0.2131 -0.1801
 8926TIP3    H248270   3.016   3.745   4.572  0.6513 -0.0591 -1.5195
 8927TIP3   OH248271   1.081   2.594   2.061  0.5214 -0.7778 -0.1247
 8927TIP3    H148272   1.045   2.675   2.097  1.1766 -0.5611  0.0551
 8927TIP3    H248273   1.114   2.547   2.137  0.1346 -1.2269 -0.2287
 8928TIP3   OH248274   4.026   0.686  13.447  0.3784 -0.1096  0.1819
 8928TIP3    H148275   4.050   0.599  13.414  0.1997 -0.0740 -0.0418
 8928TIP3    H248276   4.002   0.736  13.369  2.7125  0.8779  0.0121
 8929TIP3   OH248277   2.894   5.146  13.946 -0.5774  0.3395 -0.2949
 8929TIP3    H148278   2.923   5.057  13.961 -3.7470 -0.5416  1.4151
 8929TIP3    H248279   2.916   5.193  14.026 -0.8172  0.5507 -0.3508
 8930TIP3   OH248280   3.696   4.713   5.999  0.6343  0.5032 -0.0547
 8930TIP3    H148281   3.641   4.640   6.027  1.3252 -0.3445 -0.8070
 8930TIP3    H248282   3.654   4.791   6.035 -0.1809 -0.2555  0.6845
 8931TIP3   OH248283   3.062   5.810   0.196  0.4546 -0.5701 -0.0373
 8931TIP3    H148284   3.122   5.849   0.132  0.1222  0.9729  0.5580
 8931TIP3    H248285   3.001   5.880   0.217  1.3625 -0.5597  3.0061
 8932TIP3   OH248286   2.734   4.891  13.550  0.3557  0.1466  0.3680
 8932TIP3    H148287   2.762   4.905  13.641 -0.1563 -0.5850  0.6406
 8932TIP3    H248288   2.755   4.799  13.532  2.0620  0.7148 -0.8309
 8933TIP3   OH248289   2.143   6.042   6.036  0.4626 -0.0169 -0.5652
 8933TIP3    H148290   2.078   6.111   6.021 -1.9284 -2.0059  0.0402
 8933TIP3    H248291   2.204   6.080   6.100 -3.6368  0.0708  3.7911
 8934TIP3   OH248292   3.080   0.402   1.543 -0.1620  0.3286  0.1347
 8934TIP3    H148293   3.171   0.404   1.512 -0.5160  0.8751 -0.9206
 8934TIP3    H248294   3.076   0.471   1.610  0.5527 -0.7123  1.3057
 8935TIP3   OH248295   5.801   5.146   1.173  0.2493 -0.1936 -0.4170
 8935TIP3    H148296   5.778   5.067   1.222 -2.0898 -0.6253 -2.0760
 8935TIP3    H248297   5.892   5.131   1.146  0.5591 -1.3201  1.0876
 8936TIP3   OH248298   4.647   2.548  16.671  0.2532  0.1105 -0.5981
 8936TIP3    H148299   4.683   2.636  16.662  0.7493 -0.1379 -1.0844
 8936TIP3    H248300   4.673   2.521  16.759  1.2097 -0.0365 -0.9172
 8937TIP3   OH248301   3.835   3.920  14.470  0.1731  0.3125 -0.2436
 8937TIP3    H148302   3.754   3.966  14.492 -1.7007 -1.8905 -1.9878
 8937TIP3    H248303   3.839   3.925  14.374  1.5612 -0.4773 -0.2467
 8938TIP3   OH248304   3.231   4.414   5.390  0.3309 -0.1214 -0.4797
 8938TIP3    H148305   3.308   4.365   5.417  1.3488  1.4332 -0.4669
 8938TIP3    H248306   3.240   4.426   5.295  0.0534 -0.0221 -0.4981
 8939TIP3   OH248307   3.659   3.218   3.934  0.2955 -0.0466  0.1181
 8939TIP3    H148308   3.653   3.270   3.854 -0.8961 -0.1066  0.1507
 8939TIP3    H248309   3.703   3.137   3.907  1.6987  0.7310 -0.0367
 8940TIP3   OH248310   2.368   0.048   5.449  0.3143 -0.5259  0.3815
 8940TIP3    H148311   2.352  -0.010   5.374 -1.1590 -0.5405  0.6734
 8940TIP3    H248312   2.454   0.022   5.482  1.2249 -0.2048 -1.5678
 8941TIP3   OH248313   3.938   6.495  13.394 -0.0454 -0.7759 -0.1259
 8941TIP3    H148314   3.946   6.407  13.356  1.2749 -0.0006 -1.8066
 8941TIP3    H248315   4.025   6.515  13.427 -0.6532 -0.5623  1.3943
 8942TIP3   OH248316   0.396   1.178  11.977 -0.4136  0.0041  0.3362
 8942TIP3    H148317   0.372   1.209  11.889 -0.7740 -1.3568 -0.0631
 8942TIP3    H248318   0.425   1.257  12.023 -0.3578  0.7616 -0.9590
 8943TIP3   OH248319   1.786   3.449   1.022 -0.1144 -0.2915 -0.6149
 8943TIP3    H148320   1.724   3.390   0.980 -2.3299  1.4156  0.0471
 8943TIP3    H248321   1.786   3.527   0.966 -0.1641  0.5242  0.4887
 8944TIP3   OH248322   3.928   6.063  16.693  0.0166 -0.2595 -0.0806
 8944TIP3    H148323   3.851   6.103  16.652 -0.0846 -0.3933 -0.0229
 8944TIP3    H248324   3.997   6.071  16.627  0.2500  0.8438  0.2872
 8945TIP3   OH248325   0.820   5.187  12.013  0.4439 -0.4098  0.0998
 8945TIP3    H148326   0.815   5.093  11.993  1.5806  0.2213 -4.3332
 8945TIP3    H248327   0.730   5.218  12.009  0.1343 -1.2072  0.8668
 8946TIP3   OH248328   2.178   5.030   2.049  0.2325  0.4773  0.0895
 8946TIP3    H148329   2.086   5.011   2.035  1.1751 -3.0139 -2.7580
 8946TIP3    H248330   2.184   5.126   2.044 -2.8425  0.6823 -2.4511
 8947TIP3   OH248331   3.635   5.119   5.068 -0.0824 -0.6838 -0.0232
 8947TIP3    H148332   3.690   5.086   4.996  0.2369 -0.4950  0.1306
 8947TIP3    H248333   3.695   5.171   5.121 -0.7274  0.7490 -0.6550
 8948TIP3   OH248334   2.621   4.348   6.565 -0.7923  0.4596  0.1560
 8948TIP3    H148335   2.610   4.295   6.644 -2.2560  0.8788  0.2584
 8948TIP3    H248336   2.646   4.435   6.597  3.2137 -0.4313 -0.0639
 8949TIP3   OH248337   2.313   6.786   0.981 -0.3030 -0.0305 -0.5355
 8949TIP3    H148338   2.246   6.816   1.043 -1.8090  0.0193 -2.1152
 8949TIP3    H248339   2.301   6.843   0.904 -1.5953 -2.9139 -2.6581
 8950TIP3   OH248340   6.240   3.067   5.289 -1.0591  0.4772  0.0487
 8950TIP3    H148341   6.319   3.098   5.333 -0.3928 -0.5683 -0.3866
 8950TIP3    H248342   6.172   3.071   5.357 -0.6208  1.2709  0.4538
 8951TIP3   OH248343   2.679   1.041   0.420  0.2544  0.2279  0.5811
 8951TIP3    H148344   2.698   1.119   0.473 -2.1658  0.0247  1.9113
 8951TIP3    H248345   2.608   0.997   0.467 -1.0502 -0.7752 -2.1205
 8952TIP3   OH248346   1.869   3.342   5.465 -0.5390 -0.7532  0.5216
 8952TIP3    H148347   1.878   3.254   5.502 -0.6021 -1.3186 -0.7450
 8952TIP3    H248348   1.800   3.333   5.399  0.7547 -0.2254 -0.9762
 8953TIP3   OH248349   5.144   4.792  12.072  0.0130  0.0778  0.3014
 8953TIP3    H148350   5.190   4.832  11.999 -2.2410 -0.5637 -1.5938
 8953TIP3    H248351   5.151   4.698  12.056 -0.5998 -0.0652  0.8505
 8954TIP3   OH248352   5.934   1.338   4.112 -0.0776 -1.0160  0.2422
 8954TIP3    H148353   6.012   1.393   4.117 -1.1396  0.4960  0.9470
 8954TIP3    H248354   5.942   1.278   4.186  0.4017 -0.8468  0.3318
 8955TIP3   OH248355   3.889   5.883  12.753 -0.5427  0.2914 -0.4405
 8955TIP3    H148356   3.950   5.865  12.681 -1.5270  0.5441 -1.3519
 8955TIP3    H248357   3.945   5.919  12.822  0.8312 -2.1680 -0.1290
 8956TIP3   OH248358   2.004   4.378   1.261 -0.2182  0.2075 -0.1514
 8956TIP3    H148359   1.972   4.447   1.203  0.8168  0.4308 -0.4718
 8956TIP3    H248360   2.097   4.369   1.240  0.1431  0.1495  1.3301
 8957TIP3   OH248361   1.481   3.531   0.837 -0.3340 -0.3281  0.7285
 8957TIP3    H148362   1.450   3.537   0.746 -2.4766  0.3641  1.4375
 8957TIP3    H248363   1.575   3.548   0.831 -0.2330 -1.2032 -1.4466
 8958TIP3   OH248364   3.804   0.200  14.673  0.3575  0.7882 -0.1180
 8958TIP3    H148365   3.770   0.112  14.693  2.1272  0.0470 -0.2299
 8958TIP3    H248366   3.866   0.218  14.743  3.6836 -0.1788 -2.5739
 8959TIP3   OH248367   1.198   1.863   0.330 -0.4096  0.6444 -0.4320
 8959TIP3    H148368   1.191   1.770   0.308 -2.1135  0.6228  0.0545
 8959TIP3    H248369   1.167   1.909   0.251 -1.9991  0.6974  0.1882
 8960TIP3   OH248370   5.723   0.872   2.302 -0.0113 -0.5824 -0.3936
 8960TIP3    H148371   5.790   0.939   2.285 -1.1171  1.0466  1.2618
 8960TIP3    H248372   5.770   0.789   2.297  1.5754  0.3335 -1.8000
 8961TIP3   OH248373   0.417   1.579  14.570 -0.1880  0.1336  0.6710
 8961TIP3    H148374   0.377   1.502  14.529 -0.2383  0.3245  0.3643
 8961TIP3    H248375   0.347   1.620  14.620 -0.8896  1.5163 -1.3377
 8962TIP3   OH248376   1.937   0.213   1.958  0.2452 -0.4740 -0.4395
 8962TIP3    H148377   1.929   0.185   2.049 -0.9873  0.4164 -0.2552
 8962TIP3    H248378   1.918   0.134   1.907  1.6984 -1.1773  0.0454
 8963TIP3   OH248379   5.183   3.888  14.057 -0.2522  0.0727  0.2731
 8963TIP3    H148380   5.140   3.806  14.079 -2.3497  1.6313  2.4264
 8963TIP3    H248381   5.114   3.954  14.063  1.3615  2.0586 -1.3461
 8964TIP3   OH248382   4.874   5.202  16.228  0.5010  0.5983  0.5033
 8964TIP3    H148383   4.872   5.288  16.271  1.5251 -0.0563  1.9368
 8964TIP3    H248384   4.884   5.140  16.299  2.9087 -0.5055 -0.6657
 8965TIP3   OH248385   6.472   6.622  14.871  0.4577  0.7706 -0.3316
 8965TIP3    H148386   6.474   6.545  14.815 -0.1106  1.2553 -1.0300
 8965TIP3    H248387   6.396   6.672  14.841 -1.3967 -0.1354  2.4446
 8966TIP3   OH248388   4.672   0.679   4.110  0.3225  0.3840 -0.2475
 8966TIP3    H148389   4.666   0.583   4.110 -0.0675  0.3227 -2.8619
 8966TIP3    H248390   4.650   0.705   4.199  2.1242 -2.0287  0.9967
 8967TIP3   OH248391   5.219   4.049  12.710 -0.1910 -0.0688 -0.4338
 8967TIP3    H148392   5.313   4.032  12.711  0.1149  1.5074 -0.7382
 8967TIP3    H248393   5.207   4.119  12.646 -1.6870 -0.7868 -1.0012
 8968TIP3   OH248394   3.866   5.186   0.370  0.4430  0.2820 -0.3477
 8968TIP3    H148395   3.833   5.162   0.283  0.9804  0.4029 -0.5860
 8968TIP3    H248396   3.938   5.125   0.386 -0.3216 -0.4376  0.4692
 8969TIP3   OH248397   0.265   0.529   0.862  0.1303  0.3038 -0.4393
 8969TIP3    H148398   0.239   0.481   0.941 -2.5846  0.8959 -0.8765
 8969TIP3    H248399   0.321   0.600   0.895  0.3206 -0.3621  0.7450
 8970TIP3   OH248400   6.661   6.665   2.117 -1.2198 -0.3292 -0.3429
 8970TIP3    H148401   6.601   6.739   2.124  0.1974  0.9473 -1.1886
 8970TIP3    H248402   6.660   6.642   2.024 -0.5580 -0.4276 -0.3274
 8971TIP3   OH248403   4.865   6.122   4.728 -0.2885 -0.0031  0.1163
 8971TIP3    H148404   4.860   6.207   4.773  1.7681 -0.2789  0.9767
 8971TIP3    H248405   4.881   6.059   4.799 -1.9121 -1.1512 -0.4972
 8972TIP3   OH248406   2.577   3.250   0.834  0.1757 -0.4996  0.5053
 8972TIP3    H148407   2.482   3.251   0.837 -0.0230 -1.1747 -2.2070
 8972TIP3    H248408   2.602   3.342   0.824 -0.4481 -0.4824 -1.4163
 8973TIP3   OH248409   3.503   3.331  14.589  0.0941  0.1712 -0.5178
 8973TIP3    H148410   3.489   3.389  14.664 -1.3979 -1.1912  0.3366
 8973TIP3    H248411   3.471   3.380  14.514 -2.4776  0.0195  0.3832
 8974TIP3   OH248412   3.627   4.846   0.889 -0.3601 -0.2918  0.2776
 8974TIP3    H148413   3.655   4.768   0.937 -1.0535  0.9445  2.8418
 8974TIP3    H248414   3.701   4.867   0.833  0.7130 -1.5193  1.1720
 8975TIP3   OH248415   3.186   3.397  13.947 -0.6305 -0.3045 -0.6192
 8975TIP3    H148416   3.197   3.302  13.953  0.8323 -0.1780 -0.9172
 8975TIP3    H248417   3.148   3.423  14.031  0.2661 -0.9861  0.0141
 8976TIP3   OH248418   6.182   4.822   1.564 -0.3501 -0.5061  0.3353
 8976TIP3    H148419   6.275   4.834   1.542  0.0003 -1.5716  1.1300
 8976TIP3    H248420   6.139   4.900   1.530  1.0823  0.8069  1.3570
 8977TIP3   OH248421   6.660   1.298   4.820 -0.2683 -0.2242  0.2181
 8977TIP3    H148422   6.572   1.331   4.802  0.2349 -0.2463 -2.8231
 8977TIP3    H248423   6.648   1.204   4.834 -0.8407 -0.0236  1.1819
 8978TIP3   OH248424   6.314   6.711   0.833 -0.1223  0.2061 -0.1044
 8978TIP3    H148425   6.366   6.645   0.880  0.0811  0.8268  0.5566
 8978TIP3    H248426   6.289   6.774   0.900 -0.4193  0.7426 -0.7109
 8979TIP3   OH248427   2.410   3.842  13.340  0.6684  0.0967  0.2920
 8979TIP3    H148428   2.503   3.846  13.360  0.9503 -1.9532 -0.3973
 8979TIP3    H248429   2.406   3.837  13.244  0.0889 -2.9044  0.3835
 8980TIP3   OH248430   2.577   6.761   1.400  0.2709  0.5893 -0.8181
 8980TIP3    H148431   2.570   6.731   1.310 -1.8177 -4.4168  0.6428
 8980TIP3    H248432   2.494   6.805   1.417  0.5888  1.3662 -1.2202
 8981TIP3   OH248433   2.227   0.689  10.730 -0.3691 -0.3300  0.0102
 8981TIP3    H148434   2.253   0.612  10.781 -1.7309 -1.0583 -0.3417
 8981TIP3    H248435   2.157   0.657  10.673  0.5112  0.6678 -1.7152
 8982TIP3   OH248436   4.790   0.098  13.535 -0.5989  0.3067  0.2715
 8982TIP3    H148437   4.719   0.135  13.483  0.2053 -0.2318 -1.2771
 8982TIP3    H248438   4.870   0.121  13.487  0.1189 -0.9484  0.8035
 8983TIP3   OH248439   3.746   6.615   0.730  0.6614  0.3064 -0.8057
 8983TIP3    H148440   3.806   6.552   0.689  1.2315  0.2797  0.0264
 8983TIP3    H248441   3.802   6.689   0.755  0.3982  0.2140  0.1241
 8984TIP3   OH248442   0.031   0.421   5.103  0.0508 -0.2793 -0.0237
 8984TIP3    H148443  -0.061   0.425   5.077 -0.0440  1.2681  0.4726
 8984TIP3    H248444   0.029   0.410   5.198  0.3576  0.9933  0.1426
 8985TIP3   OH248445   5.120   5.972   5.267  0.1934  0.5853  0.2231
 8985TIP3    H148446   5.100   6.028   5.192  0.5775 -0.1697 -0.4573
 8985TIP3    H248447   5.107   6.028   5.343 -1.1674  1.0964 -0.3444
 8986TIP3   OH248448   6.523   5.709  13.621 -0.1415 -0.5280  1.0175
 8986TIP3    H148449   6.590   5.643  13.605 -0.8416 -0.9868 -0.1521
 8986TIP3    H248450   6.444   5.659  13.642 -0.7518 -0.1100 -0.1558
 8987TIP3   OH248451   3.164   1.488  14.524  0.0837 -0.2856  0.2788
 8987TIP3    H148452   3.219   1.537  14.463  2.4663 -0.3591  2.1939
 8987TIP3    H248453   3.128   1.555  14.582 -0.2433 -0.4259  0.2397
 8988TIP3   OH248454   1.626   1.886  12.738  0.4280  0.3064  0.6658
 8988TIP3    H148455   1.609   1.913  12.648  1.2917 -0.9608  0.0991
 8988TIP3    H248456   1.560   1.932  12.790 -1.1898 -0.2578 -0.7981
 8989TIP3   OH248457   0.171   1.734   1.051 -0.1596  0.3557  0.2736
 8989TIP3    H148458   0.190   1.643   1.072  0.5863  0.7416  1.3453
 8989TIP3    H248459   0.134   1.771   1.131 -0.1728  1.0728 -0.0517
 8990TIP3   OH248460   1.303   4.104  11.445 -0.5724  0.3626  0.3222
 8990TIP3    H148461   1.385   4.056  11.434  0.0575  1.7506 -1.4235
 8990TIP3    H248462   1.308   4.141  11.533 -0.4172 -1.4705  1.1285
 8991TIP3   OH248463   2.481   3.221  11.906 -0.3736  0.3283  0.0317
 8991TIP3    H148464   2.491   3.136  11.949 -0.1795  0.8936  1.1414
 8991TIP3    H248465   2.388   3.243  11.918  0.0664  1.3784  1.9621
 8992TIP3   OH248466   2.496   2.790  13.842 -0.3437 -0.7125  0.7717
 8992TIP3    H148467   2.505   2.851  13.768 -2.7383  0.7327  1.5700
 8992TIP3    H248468   2.581   2.746  13.846  1.0807  1.6422 -0.6626
 8993TIP3   OH248469   3.110   3.671   5.771  0.2283 -0.3776  0.4325
 8993TIP3    H148470   3.099   3.619   5.691 -0.4493  0.4807 -0.0524
 8993TIP3    H248471   3.187   3.725   5.754 -0.5835  0.6526 -0.1514
 8994TIP3   OH248472   1.083   0.960   3.891 -0.4992  0.4985  0.1328
 8994TIP3    H148473   1.039   0.946   3.975 -1.0841  0.1091 -0.2290
 8994TIP3    H248474   1.176   0.960   3.913 -0.5756 -0.8979  0.6186
 8995TIP3   OH248475   6.762   1.111   0.292  0.0464 -0.2345 -0.1360
 8995TIP3    H148476   6.802   1.189   0.254 -0.0211 -0.9861 -1.8266
 8995TIP3    H248477   6.727   1.140   0.376 -2.7846  2.3629 -2.0563
 8996TIP3   OH248478   1.380   1.374  14.322  0.3372  0.1098  0.0261
 8996TIP3    H148479   1.363   1.365  14.229  1.7762 -0.3128 -0.2253
 8996TIP3    H248480   1.347   1.292  14.360  0.0296  0.1510 -0.1490
 8997TIP3   OH248481   4.395   5.713   1.093  0.3903 -0.5769 -0.2875
 8997TIP3    H148482   4.325   5.668   1.044  0.6560 -0.5497 -0.6966
 8997TIP3    H248483   4.371   5.701   1.184 -1.0461  0.8303 -0.4318
 8998TIP3   OH248484   5.011   3.612   2.390 -0.0822 -0.2544  0.5720
 8998TIP3    H148485   5.074   3.666   2.342  0.1212 -0.0947  1.0140
 8998TIP3    H248486   4.928   3.659   2.382 -0.2450 -0.6646 -0.3511
 8999TIP3   OH248487   4.068   3.690   0.396 -0.4261 -0.2872 -0.6798
 8999TIP3    H148488   4.114   3.774   0.394  0.0179 -0.4761  0.8335
 8999TIP3    H248489   3.977   3.713   0.412 -0.2160 -0.1158  0.2943
 9000TIP3   OH248490   0.495   0.943  14.615  0.1960  0.0506  0.0025
 9000TIP3    H148491   0.478   0.946  14.709 -0.1213  0.0015 -0.0504
 9000TIP3    H248492   0.571   0.999  14.602 -0.8829  1.5786  0.0405
 9001TIP3   OH248493   3.597   3.739   0.292 -0.5585 -0.3022 -0.1389
 9001TIP3    H148494   3.604   3.831   0.265 -2.8124  0.5781  1.8958
 9001TIP3    H248495   3.649   3.691   0.227  1.1147  2.4261 -0.9947
 9002TIP3   OH248496   4.062   0.997  11.482  0.3277  0.1667 -0.0634
 9002TIP3    H148497   4.043   1.001  11.575  1.3688  1.4938  0.1124
 9002TIP3    H248498   3.977   1.010  11.439 -0.2937 -1.2767  0.6651
 9003TIP3   OH248499   5.815   4.119  10.258  0.0799 -0.1035  0.0977
 9003TIP3    H148500   5.880   4.083  10.317  1.9973 -0.9858 -2.3748
 9003TIP3    H248501   5.748   4.050  10.251 -0.0008 -0.1179  0.9626
 9004TIP3   OH248502   4.894   5.291  15.147 -0.2663 -0.0729  0.4909
 9004TIP3    H148503   4.906   5.373  15.098  0.0459  0.7758  1.9407
 9004TIP3    H248504   4.981   5.251  15.149 -0.2244  0.0229  0.5824
 9005TIP3   OH248505   1.843   2.906   2.573 -0.4983  0.7548 -0.6680
 9005TIP3    H148506   1.927   2.879   2.537  0.6139  1.5422  1.1915
 9005TIP3    H248507   1.814   2.977   2.516  1.5323  2.4289  0.2396
 9006TIP3   OH248508   2.222   5.426   2.524 -0.5667  0.0988 -0.0096
 9006TIP3    H148509   2.250   5.518   2.523 -2.0031  0.5687 -0.4151
 9006TIP3    H248510   2.299   5.377   2.498  0.3383  1.1593  0.5779
 9007TIP3   OH248511   5.875   1.858  12.826 -0.4993  0.1154  0.0906
 9007TIP3    H148512   5.837   1.774  12.798  0.4841 -0.2707 -0.1275
 9007TIP3    H248513   5.939   1.879  12.758 -1.1857  1.3867 -0.2047
 9008TIP3   OH248514   3.290   6.824   1.624 -0.3894 -0.1047  0.4582
 9008TIP3    H148515   3.342   6.904   1.617  0.0732 -0.3832  0.6981
 9008TIP3    H248516   3.345   6.755   1.587 -1.5080 -0.0192 -1.5195
 9009TIP3   OH248517   0.334   2.428  14.317  0.8181 -0.1305 -0.5134
 9009TIP3    H148518   0.252   2.474  14.296 -1.4977 -2.6479  2.2289
 9009TIP3    H248519   0.376   2.483  14.382 -0.0498 -0.0810  0.0192
 9010TIP3   OH248520   4.515   6.278  10.678 -0.7825 -0.4764 -0.1882
 9010TIP3    H148521   4.443   6.222  10.648  0.2395 -1.4623 -0.8738
 9010TIP3    H248522   4.558   6.227  10.747 -0.9512  0.2715  0.4879
 9011TIP3   OH248523   6.581   6.583  16.631 -0.4775 -0.5007  0.1409
 9011TIP3    H148524   6.657   6.529  16.651 -0.6651 -1.7276 -2.1453
 9011TIP3    H248525   6.617   6.664  16.595 -0.2401  0.3290  2.1044
 9012TIP3   OH248526   5.123   3.150  13.486  0.4929  0.4337 -0.3845
 9012TIP3    H148527   5.088   3.079  13.432 -2.4619  2.2746 -1.1072
 9012TIP3    H248528   5.165   3.209  13.424 -0.6115  1.2639 -0.3626
 9013TIP3   OH248529   2.904   1.311   1.998 -0.4343 -0.5148  0.2144
 9013TIP3    H148530   2.843   1.287   1.929 -2.2879  0.4564  1.4324
 9013TIP3    H248531   2.964   1.373   1.957 -0.8907 -0.7080 -0.7639
 9014TIP3   OH248532   3.789   3.518   2.372  0.1446 -0.1440  0.1446
 9014TIP3    H148533   3.775   3.563   2.456  1.4473 -1.7539  1.2957
 9014TIP3    H248534   3.701   3.500   2.339 -0.4060  0.0467  1.4456
 9015TIP3   OH248535   2.987   4.048   0.710  0.1834  0.0885  0.4920
 9015TIP3    H148536   2.921   3.983   0.733  0.3362  0.1899  1.2421
 9015TIP3    H248537   3.011   4.027   0.620  0.0063 -0.7001  0.6218
 9016TIP3   OH248538   2.837   6.275   2.181 -0.1851  0.0603 -0.0638
 9016TIP3    H148539   2.794   6.227   2.110 -1.1648 -0.1982  0.6871
 9016TIP3    H248540   2.768   6.290   2.245 -0.1144  3.0629 -0.5443
 9017TIP3   OH248541   4.903   4.833   5.290 -0.1257  0.1462  0.7537
 9017TIP3    H148542   4.852   4.910   5.314 -1.8857  0.0400 -2.1345
 9017TIP3    H248543   4.991   4.868   5.272 -0.8052  1.4775 -0.1968
 9018TIP3   OH248544   0.846   2.723   6.509 -0.3907 -0.2687 -0.0434
 9018TIP3    H148545   0.771   2.780   6.489 -0.3904  0.2384  1.3037
 9018TIP3    H248546   0.921   2.782   6.511 -0.3188 -0.3816  0.9216
 9019TIP3   OH248547   5.856   4.445   3.210 -0.3626 -0.2464  0.1339
 9019TIP3    H148548   5.895   4.532   3.202 -0.2314  0.0447  2.9780
 9019TIP3    H248549   5.765   4.457   3.184 -0.1357  0.5304 -0.3449
 9020TIP3   OH248550   5.471   5.636  16.222 -0.3224 -0.1639 -0.8756
 9020TIP3    H148551   5.455   5.542  16.234  2.8768 -1.1640 -2.8651
 9020TIP3    H248552   5.544   5.655  16.281  0.0588  0.6565 -1.5919
 9021TIP3   OH248553   5.239   6.809  15.760  0.2048  0.5053  0.3769
 9021TIP3    H148554   5.221   6.853  15.678  0.1329  0.7801  0.5393
 9021TIP3    H248555   5.275   6.724  15.735  1.9077  1.2682  0.0510
 9022TIP3   OH248556   2.571   0.900   0.190 -0.4106 -0.2106  0.1513
 9022TIP3    H148557   2.492   0.954   0.199 -0.4087 -0.2831  0.6185
 9022TIP3    H248558   2.635   0.942   0.248 -0.6196 -1.1037  1.0467
 9023TIP3   OH248559   5.073   2.154   6.001 -0.5609 -0.7291  0.0198
 9023TIP3    H148560   5.024   2.191   6.073 -0.5902 -0.7063 -0.0120
 9023TIP3    H248561   5.146   2.215   5.987  0.8747 -1.9738  1.6469
 9024TIP3   OH248562   4.833   0.872   2.228 -0.2526  0.0732  0.7375
 9024TIP3    H148563   4.818   0.955   2.181  1.9859 -0.0455 -0.3045
 9024TIP3    H248564   4.903   0.829   2.179 -1.0603 -2.2690  1.5139
 9025TIP3   OH248565   0.531   0.247   6.201  0.6101  0.2826 -0.0907
 9025TIP3    H148566   0.592   0.320   6.194 -0.4270  1.1966  0.1129
 9025TIP3    H248567   0.561   0.198   6.277  1.0663  0.7391  0.0309
 9026TIP3   OH248568   4.411   2.333  14.597 -0.0596 -0.2219 -0.2905
 9026TIP3    H148569   4.379   2.277  14.527  0.7657 -1.8953  0.6258
 9026TIP3    H248570   4.504   2.346  14.578  0.1278 -0.5415  0.3768
 9027TIP3   OH248571   1.058   6.393   4.330 -0.6795  0.1767 -0.4449
 9027TIP3    H148572   0.997   6.332   4.372  0.6633 -0.8352  0.1055
 9027TIP3    H248573   1.034   6.391   4.238 -0.5721 -1.3387 -0.4691
 9028TIP3   OH248574   0.262   4.306  10.985 -0.4642 -0.0159  0.4559
 9028TIP3    H148575   0.296   4.268  10.904  0.4899  0.2920  0.6929
 9028TIP3    H248576   0.175   4.339  10.962  0.6678  2.1615 -1.0685
 9029TIP3   OH248577   4.330   4.676   6.508  0.1235  0.7718  0.0760
 9029TIP3    H148578   4.246   4.634   6.530  1.0059 -1.0719  0.1371
 9029TIP3    H248579   4.312   4.728   6.430 -0.8773 -0.3440 -0.4630
 9030TIP3   OH248580   1.650   2.462  15.237 -0.0062 -0.0524 -0.1673
 9030TIP3    H148581   1.615   2.509  15.313 -1.0499  1.4850 -1.5282
 9030TIP3    H248582   1.712   2.524  15.198  0.7672 -0.9533 -0.4005
 9031TIP3   OH248583   0.797   1.568  14.615 -0.3676 -0.3602  0.3521
 9031TIP3    H148584   0.781   1.551  14.708  0.9854 -0.2177  0.6344
 9031TIP3    H248585   0.717   1.540  14.571 -0.3523 -2.1399  1.3751
 9032TIP3   OH248586   3.471   1.787   5.860  0.1791 -0.0975 -0.2275
 9032TIP3    H148587   3.479   1.750   5.948  1.9075 -1.0093 -0.7311
 9032TIP3    H248588   3.423   1.721   5.810 -0.9585  0.4961  0.0261
 9033TIP3   OH248589   4.408   2.584  12.793 -0.2509  0.2511  0.4306
 9033TIP3    H148590   4.349   2.598  12.867 -1.2703  0.6792 -0.4257
 9033TIP3    H248591   4.352   2.595  12.716  0.6494 -0.8055 -0.3999
 9034TIP3   OH248592   3.640   4.124   4.045  0.2605 -0.1857 -0.6651
 9034TIP3    H148593   3.666   4.144   4.135  0.5749 -1.8471 -0.3441
 9034TIP3    H248594   3.544   4.120   4.048  0.2015  1.0036 -0.7027
 9035TIP3   OH248595   4.376   0.696  16.250  0.1331  0.3829  0.5270
 9035TIP3    H148596   4.403   0.700  16.158  0.3223  0.2181  0.5715
 9035TIP3    H248597   4.457   0.674  16.297  0.7954  3.6428  1.1138
 9036TIP3   OH248598   1.126   3.280  10.933  0.2138  0.4277 -0.2094
 9036TIP3    H148599   1.216   3.250  10.941  0.2974  0.9724  1.1793
 9036TIP3    H248600   1.086   3.220  10.870  0.7795 -1.6630  1.3175
 9037TIP3   OH248601   4.181   6.039   4.227 -0.6392  0.1385 -0.2344
 9037TIP3    H148602   4.227   6.103   4.172 -0.5950  0.0211 -0.3352
 9037TIP3    H248603   4.126   5.991   4.165 -0.4766 -0.0948 -0.1991
 9038TIP3   OH248604   5.431   4.868  14.124 -0.3110 -0.4886  0.0352
 9038TIP3    H148605   5.466   4.786  14.088 -1.5672 -1.2626  0.4914
 9038TIP3    H248606   5.417   4.849  14.217  1.7577  1.0923  0.7560
 9039TIP3   OH248607   0.733   3.760  13.524  0.0449 -0.1145 -0.0012
 9039TIP3    H148608   0.684   3.684  13.556  0.3737 -0.4220 -0.2208
 9039TIP3    H248609   0.672   3.805  13.465 -0.2847  0.0118  0.4314
 9040TIP3   OH248610   4.713   0.637   0.712  0.1140 -0.4148 -0.0413
 9040TIP3    H148611   4.754   0.720   0.734  0.2517 -0.3317 -0.6233
 9040TIP3    H248612   4.628   0.661   0.674 -0.1634 -0.5651  0.4621
 9041TIP3   OH248613   5.292   4.885  15.031 -0.1956 -0.1006 -0.1994
 9041TIP3    H148614   5.383   4.912  15.046 -1.1957  2.3173  2.5088
 9041TIP3    H248615   5.287   4.873  14.936  3.1181 -1.2294 -0.3705
 9042TIP3   OH248616   4.527   2.529  17.041  0.4554 -0.4077  0.1288
 9042TIP3    H148617   4.481   2.499  16.963  0.4718  0.5763 -0.2705
 9042TIP3    H248618   4.543   2.622  17.026  1.1270 -0.3691  0.9790
 9043TIP3   OH248619   0.066   4.364  11.549 -0.3017 -0.2817 -0.4255
 9043TIP3    H148620   0.034   4.356  11.638 -0.7883 -1.2775 -0.6744
 9043TIP3    H248621   0.057   4.276  11.512  0.3162  0.0109 -1.3110
 9044TIP3   OH248622   4.237   0.751  14.157  0.2120 -0.1771  0.2997
 9044TIP3    H148623   4.322   0.723  14.123 -0.8321 -1.3113 -1.4894
 9044TIP3    H248624   4.209   0.820  14.097  0.3221  0.9606  1.5171
 9045TIP3   OH248625   0.639   3.342  15.696 -0.7230  0.3209  0.4804
 9045TIP3    H148626   0.657   3.372  15.606  0.7686 -1.4609  0.1447
 9045TIP3    H248627   0.725   3.334  15.736 -1.2333 -1.0995  1.3363
 9046TIP3   OH248628   1.688   4.072   0.580 -0.3553 -0.4296 -0.2292
 9046TIP3    H148629   1.618   4.137   0.579  0.4750  0.6187  2.0556
 9046TIP3    H248630   1.755   4.110   0.636  0.8229 -2.6326 -0.0213
 9047TIP3   OH248631   0.632   1.118  14.186  0.2729 -0.1470 -0.0427
 9047TIP3    H148632   0.706   1.178  14.174  1.2765 -1.4226 -0.3637
 9047TIP3    H248633   0.560   1.160  14.138  0.9289  0.8417 -0.1939
 9048TIP3   OH248634   4.902   4.019   2.600  0.4986  0.2274  0.5109
 9048TIP3    H148635   4.857   3.952   2.652  0.5927 -0.8217 -0.7056
 9048TIP3    H248636   4.864   4.102   2.630 -2.4590 -0.6050 -0.5915
 9049TIP3   OH248637   6.536   0.467  11.805  0.3976 -0.1722  0.5741
 9049TIP3    H148638   6.600   0.513  11.751 -0.4414  0.0998 -0.2201
 9049TIP3    H248639   6.564   0.375  11.802  0.2370 -0.1939 -0.5199
 9050TIP3   OH248640   6.282   3.802  10.411 -0.6638  0.1309  0.5601
 9050TIP3    H148641   6.228   3.876  10.383 -0.8165 -0.1622  0.0669
 9050TIP3    H248642   6.228   3.725  10.393 -0.3053 -0.1303  0.5898
 9051TIP3   OH248643   1.714   0.747  10.902  0.0682 -0.0887 -0.6004
 9051TIP3    H148644   1.750   0.807  10.837  0.1580 -0.4537 -0.8939
 9051TIP3    H248645   1.735   0.660  10.868  2.7720 -0.3300  1.3337
 9052TIP3   OH248646   1.915   0.515  12.926  0.6271 -0.0853 -0.5879
 9052TIP3    H148647   1.888   0.586  12.983 -0.1046  0.5551 -1.6870
 9052TIP3    H248648   1.957   0.452  12.984  2.6833  1.9048  0.2130
 9053TIP3   OH248649   4.389   1.627   0.891  0.5427  0.1251  0.1819
 9053TIP3    H148650   4.294   1.634   0.885  0.5083 -0.4536 -0.0761
 9053TIP3    H248651   4.423   1.705   0.846  0.1901  0.9483  1.3084
 9054TIP3   OH248652   1.381   5.740  12.932  0.0077 -0.2815 -0.4344
 9054TIP3    H148653   1.336   5.769  12.852 -1.0576  0.2047  0.3197
 9054TIP3    H248654   1.394   5.821  12.982 -2.5795 -0.9568  1.5038
 9055TIP3   OH248655   0.803   6.084   3.131  0.5431 -0.4275 -0.2879
 9055TIP3    H148656   0.834   6.134   3.207 -1.7899 -0.7490  0.9744
 9055TIP3    H248657   0.825   6.138   3.056 -0.6958  1.9407  0.9281
 9056TIP3   OH248658   4.607   2.694   1.843  0.1962 -0.2354  0.0858
 9056TIP3    H148659   4.609   2.724   1.752  0.4964 -1.3908 -0.3127
 9056TIP3    H248660   4.654   2.761   1.892 -0.8163  0.8974 -0.4425
 9057TIP3   OH248661   5.131   0.510  11.843  0.6590 -0.5343 -0.1305
 9057TIP3    H148662   5.225   0.503  11.825  0.1854 -2.5085 -2.2746
 9057TIP3    H248663   5.118   0.455  11.921  1.1726 -0.8143 -0.2411
 9058TIP3   OH248664   5.762   1.032  13.962 -0.6553  0.5027  0.2699
 9058TIP3    H148665   5.793   0.942  13.969 -0.7451  0.4237 -0.3014
 9058TIP3    H248666   5.760   1.064  14.053 -2.0594 -0.5591  0.6503
 9059TIP3   OH248667   2.068   4.578  10.765 -1.0106 -0.2791 -0.1527
 9059TIP3    H148668   2.031   4.563  10.852 -0.0144 -0.5896  0.2244
 9059TIP3    H248669   2.075   4.491  10.726  1.5951 -0.5268  0.7301
 9060TIP3   OH248670   5.177   1.447  14.700  0.5299 -0.1959  0.6325
 9060TIP3    H148671   5.202   1.420  14.789  0.9032  0.6569  0.7912
 9060TIP3    H248672   5.081   1.441  14.701  0.5983 -3.1176  0.1256
 9061TIP3   OH248673   0.908   6.271   3.664  0.1598  0.0030  0.2800
 9061TIP3    H148674   0.953   6.311   3.590  0.8680 -0.6318  0.3515
 9061TIP3    H248675   0.935   6.179   3.661 -1.2632 -0.4446  0.2301
 9062TIP3   OH248676   6.796   3.209   1.868  0.1885 -0.5803 -0.7718
 9062TIP3    H148677   6.723   3.147   1.868 -1.1323  0.8751 -1.7034
 9062TIP3    H248678   6.855   3.178   1.936 -1.5977 -1.4790  0.4318
 9063TIP3   OH248679   0.164   6.046   4.355 -0.5280 -0.0372  0.3212
 9063TIP3    H148680   0.152   6.070   4.447 -0.5976 -2.0374  0.8852
 9063TIP3    H248681   0.246   6.089   4.329  0.0381 -0.2709  1.6413
 9064TIP3   OH248682   6.271   4.361   4.840 -0.2449 -0.0087  0.4105
 9064TIP3    H148683   6.312   4.447   4.831  0.4173 -0.3977 -0.4510
 9064TIP3    H248684   6.317   4.306   4.777 -1.3262 -0.7502  0.2376
 9065TIP3   OH248685   6.140   5.096  16.549  0.2672  0.9715  0.0012
 9065TIP3    H148686   6.118   5.031  16.616 -0.5739  1.1060 -0.1330
 9065TIP3    H248687   6.149   5.045  16.468  0.7262  0.8818  0.1059
 9066TIP3   OH248688   1.512   1.912   3.687  0.6974 -0.3343  0.3425
 9066TIP3    H148689   1.605   1.896   3.676  0.8362  1.2522 -1.0764
 9066TIP3    H248690   1.471   1.865   3.615  0.5161 -0.0212  0.2391
 9067TIP3   OH248691   6.674   3.299   3.542  0.8730 -0.1960  0.1293
 9067TIP3    H148692   6.727   3.353   3.600 -0.2400  1.1083 -0.0265
 9067TIP3    H248693   6.653   3.221   3.594  1.9418 -0.1913  0.5870
 9068TIP3   OH248694   4.469   5.683  10.984 -0.1758  0.2375  0.1114
 9068TIP3    H148695   4.414   5.761  10.979  0.1109  0.5947  1.8837
 9068TIP3    H248696   4.407   5.610  10.979 -0.7080  0.6189  0.9612
 9069TIP3   OH248697   3.551   2.658  15.590 -0.0125 -0.3525 -0.1562
 9069TIP3    H148698   3.534   2.671  15.683 -1.4106 -0.4630 -0.3721
 9069TIP3    H248699   3.495   2.723  15.546  2.3192  1.3029 -0.8957
 9070TIP3   OH248700   2.999   1.682   1.483  0.1767 -0.1208 -0.2517
 9070TIP3    H148701   3.032   1.592   1.486 -1.4152 -0.7506 -0.9174
 9070TIP3    H248702   2.976   1.702   1.574  0.3580 -0.4424 -0.1321
 9071TIP3   OH248703   6.831   2.106  13.006  0.0004  0.2143  0.1307
 9071TIP3    H148704   6.798   2.100  13.095 -0.6909  1.1222 -0.0472
 9071TIP3    H248705   6.794   2.188  12.972 -0.5080 -0.5636 -1.2892
 9072TIP3   OH248706   0.862   3.693   6.281  0.3968 -0.2445  0.2495
 9072TIP3    H148707   0.942   3.643   6.296  0.9860  0.2372 -1.1696
 9072TIP3    H248708   0.892   3.776   6.244 -0.6591  0.6281  1.2830
 9073TIP3   OH248709   0.611   3.729   2.455 -0.4336  0.2257 -0.2040
 9073TIP3    H148710   0.668   3.707   2.529  0.8163  0.9236 -0.9209
 9073TIP3    H248711   0.558   3.803   2.486 -0.8682 -0.3265  0.4138
 9074TIP3   OH248712   1.951   6.233  12.503  0.2359 -0.0521 -0.7315
 9074TIP3    H148713   1.918   6.323  12.493  0.1568  0.1883  1.2341
 9074TIP3    H248714   1.890   6.179  12.452 -0.8392  0.8140 -0.4002
 9075TIP3   OH248715   5.466   5.677   6.217  0.1870  0.0532  0.1847
 9075TIP3    H148716   5.408   5.616   6.264 -0.8008 -0.3621 -1.5125
 9075TIP3    H248717   5.453   5.656   6.125 -0.8344  3.3532 -0.5528
 9076TIP3   OH248718   2.711   0.532  13.500 -0.4741  0.3693 -0.3687
 9076TIP3    H148719   2.717   0.614  13.452 -0.0647  0.8619  0.4953
 9076TIP3    H248720   2.797   0.522  13.541  0.3330 -1.6939 -2.3388
 9077TIP3   OH248721   4.452   0.145  12.197 -0.1249 -0.1716  0.3003
 9077TIP3    H148722   4.360   0.125  12.179 -0.0569  0.6629 -1.2280
 9077TIP3    H248723   4.467   0.227  12.150  1.3409 -0.1727  0.7375
 9078TIP3   OH248724   5.523   3.255  13.317  0.0899 -0.1012  0.0522
 9078TIP3    H148725   5.439   3.302  13.317  0.3782  0.4194  0.3943
 9078TIP3    H248726   5.575   3.299  13.250  0.7352  0.7581  1.0899
 9079TIP3   OH248727   2.753   3.194  13.799  0.6415  0.3137  0.3005
 9079TIP3    H148728   2.660   3.213  13.811  0.5363  0.3584 -0.5674
 9079TIP3    H248729   2.772   3.126  13.863 -0.3976 -0.9595 -0.7067
 9080TIP3   OH248730   5.903   1.915   0.562 -0.0066 -0.1874 -0.7726
 9080TIP3    H148731   5.864   1.920   0.475  1.6389 -1.9772 -1.6970
 9080TIP3    H248732   5.957   1.994   0.568 -0.6320  0.2730 -1.0875
 9081TIP3   OH248733   0.802   3.744   4.903  0.0699  0.1487 -0.3928
 9081TIP3    H148734   0.850   3.797   4.840  0.0245  0.1468 -0.4292
 9081TIP3    H248735   0.827   3.779   4.988 -1.0088  1.1147 -0.4567
 9082TIP3   OH248736   3.402   6.629  12.654 -0.3724 -0.1377  0.3300
 9082TIP3    H148737   3.372   6.712  12.619  0.2500 -0.0472 -0.0082
 9082TIP3    H248738   3.393   6.567  12.581 -0.7066 -0.3360  0.5385
 9083TIP3   OH248739   4.796   2.344  13.174  0.1235  0.4861 -1.1686
 9083TIP3    H148740   4.728   2.411  13.170  0.8829  1.2448 -1.8081
 9083TIP3    H248741   4.840   2.359  13.257 -0.4920 -0.0269 -0.7391
 9084TIP3   OH248742   1.645   6.672   1.925  0.7106 -0.2349 -0.5221
 9084TIP3    H148743   1.562   6.714   1.908  0.8757  0.8174  1.0535
 9084TIP3    H248744   1.634   6.629   2.010  1.6420 -0.4313 -0.4806
 9085TIP3   OH248745   1.343   3.545  16.528 -0.0632  0.2489 -0.2386
 9085TIP3    H148746   1.366   3.452  16.536 -1.7657 -0.1854 -0.0576
 9085TIP3    H248747   1.373   3.584  16.611  1.3950  0.0595 -0.6449
 9086TIP3   OH248748   6.775   4.685  12.787  0.5264 -0.1526  0.2521
 9086TIP3    H148749   6.839   4.722  12.726  0.7017 -0.4397  0.2648
 9086TIP3    H248750   6.740   4.762  12.833  0.6134  0.0369  0.0084
 9087TIP3   OH248751   2.610   0.653   6.210  0.0707 -0.1734  0.4424
 9087TIP3    H148752   2.579   0.589   6.274  0.1512  0.5902  1.2667
 9087TIP3    H248753   2.665   0.713   6.260  0.6939  0.0463 -0.4801
 9088TIP3   OH248754   5.382   6.210   3.394 -0.3880 -0.0931 -0.3452
 9088TIP3    H148755   5.477   6.204   3.385 -0.2909  1.2037 -0.3882
 9088TIP3    H248756   5.348   6.166   3.316  0.2297  0.6772 -1.0797
 9089TIP3   OH248757   2.945   0.429   3.562  0.1834 -0.0131  0.1965
 9089TIP3    H148758   2.936   0.337   3.536 -0.9510  0.2195 -0.2908
 9089TIP3    H248759   2.942   0.478   3.479  1.5454  0.4323  0.3838
 9090TIP3   OH248760   3.724   6.063  14.130 -0.0986 -0.8062  0.1782
 9090TIP3    H148761   3.768   5.979  14.121 -0.4575 -0.8142 -1.9910
 9090TIP3    H248762   3.634   6.047  14.100  0.1973  0.6063 -1.6185
 9091TIP3   OH248763   3.496   6.355  12.127 -0.2155 -0.3384  0.1676
 9091TIP3    H148764   3.516   6.289  12.194  0.3420 -0.0943  0.2459
 9091TIP3    H248765   3.562   6.423  12.139 -2.0212  1.3040  1.4727
 9092TIP3   OH248766   3.588   3.620   0.644 -0.4350  0.4446 -0.0290
 9092TIP3    H148767   3.580   3.559   0.717  0.1178 -0.5944 -0.8292
 9092TIP3    H248768   3.558   3.571   0.568 -0.5707  1.3730 -0.5911
 9093TIP3   OH248769   4.894   1.265   2.800  0.2736  0.7745 -0.7966
 9093TIP3    H148770   4.898   1.239   2.708 -0.2105  0.1789 -0.6567
 9093TIP3    H248771   4.801   1.282   2.815  0.2613  0.2715 -0.2625
 9094TIP3   OH248772   4.075   1.810   2.613 -0.0268  0.3619  0.4715
 9094TIP3    H148773   4.136   1.759   2.667  1.5689  0.4637 -1.1447
 9094TIP3    H248774   4.101   1.901   2.626  1.0798  0.3260 -1.2187
 9095TIP3   OH248775   4.027   4.695  14.742  0.6354 -0.2255  0.0954
 9095TIP3    H148776   3.933   4.715  14.748  0.6354 -0.5041  1.2558
 9095TIP3    H248777   4.037   4.614  14.791  1.6680  0.4127  0.9660
 9096TIP3   OH248778   0.194   3.484   4.659 -0.3299 -0.1438  0.6053
 9096TIP3    H148779   0.224   3.424   4.728  0.4356  1.1318  1.4218
 9096TIP3    H248780   0.139   3.547   4.705 -0.1735  0.4694 -0.0398
 9097TIP3   OH248781   1.099   0.570   4.121 -0.3157 -0.2802  0.2636
 9097TIP3    H148782   1.189   0.543   4.103 -0.4673 -0.8452  0.3484
 9097TIP3    H248783   1.108   0.655   4.165  0.1596 -0.1816 -0.0202
 9098TIP3   OH248784   4.984   1.507   5.807  0.2459 -0.0686  0.2458
 9098TIP3    H148785   4.992   1.459   5.889 -0.4648 -1.2303 -0.3451
 9098TIP3    H248786   4.947   1.444   5.745 -0.8721  1.2784 -0.5108
 9099TIP3   OH248787   3.552   2.556  16.269 -0.0290 -0.3486  0.1703
 9099TIP3    H148788   3.521   2.499  16.198  0.8070 -1.3911  0.6157
 9099TIP3    H248789   3.596   2.628  16.225 -0.2049 -0.5778 -0.3898
 9100TIP3   OH248790   5.200   5.689  16.385 -0.4143  0.1035  0.2131
 9100TIP3    H148791   5.200   5.737  16.303  1.1450  1.5041  0.9720
 9100TIP3    H248792   5.159   5.605  16.364 -1.0427  0.8488 -1.7154
 9101TIP3   OH248793   3.477   0.836   5.305 -0.2830  0.2739  0.1126
 9101TIP3    H148794   3.522   0.761   5.266 -1.6345 -1.8560  2.3086
 9101TIP3    H248795   3.464   0.897   5.233  0.5283 -1.7726 -1.8873
 9102TIP3   OH248796   4.369   4.571   1.533 -0.0876  0.9938 -0.0008
 9102TIP3    H148797   4.325   4.541   1.613 -0.5831  2.7166  0.4201
 9102TIP3    H248798   4.297   4.592   1.473  0.2782 -0.0149 -0.8049
 9103TIP3   OH248799   4.519   5.027  11.607 -0.0306  1.0934 -0.7141
 9103TIP3    H148800   4.585   5.006  11.541  0.6164  1.2528 -0.1204
 9103TIP3    H248801   4.569   5.056  11.684 -0.8124  2.2407 -0.6094
 9104TIP3   OH248802   3.501   3.413  11.430 -0.1172 -0.4560 -0.1580
 9104TIP3    H148803   3.535   3.502  11.429  1.2774 -0.9692 -0.7197
 9104TIP3    H248804   3.482   3.395  11.522  1.6066 -0.2856  0.2695
 9105TIP3   OH248805   2.229   2.482   5.843 -0.0115  0.5847  0.3261
 9105TIP3    H148806   2.195   2.444   5.762  0.5865  2.8022 -1.0569
 9105TIP3    H248807   2.270   2.409   5.889 -0.7738 -0.8164 -1.1447
 9106TIP3   OH248808   0.652   3.780  13.784  0.0025 -0.0302 -0.0999
 9106TIP3    H148809   0.648   3.687  13.805 -0.9490  0.2465  1.0401
 9106TIP3    H248810   0.713   3.786  13.711  1.4485 -1.3552  0.9427
 9107TIP3   OH248811   4.662   3.964  15.238  0.4707 -0.9102  0.2562
 9107TIP3    H148812   4.648   3.909  15.315 -0.0652  1.4406  1.9358
 9107TIP3    H248813   4.618   3.917  15.167 -0.3569 -2.4109  1.7065
 9108TIP3   OH248814   5.923   6.400  12.301  0.2042  0.5445 -0.5009
 9108TIP3    H148815   6.009   6.357  12.301 -0.2535 -0.4032 -0.4815
 9108TIP3    H248816   5.941   6.489  12.332  0.9081 -0.2069  1.4058
 9109TIP3   OH248817   3.124   4.794   1.533 -0.1314 -0.3675  0.0316
 9109TIP3    H148818   3.067   4.807   1.457 -0.2258  2.3095  0.4699
 9109TIP3    H248819   3.068   4.750   1.597 -0.5087 -1.2262 -0.8475
 9110TIP3   OH248820   3.084   1.405   6.043 -0.1973  0.0296  0.2112
 9110TIP3    H148821   3.148   1.457   6.091  0.8597 -2.1272  1.2848
 9110TIP3    H248822   3.136   1.360   5.976 -1.0482  0.1566 -0.5533
 9111TIP3   OH248823   1.388   2.861  16.468 -0.4255 -0.3440  0.5430
 9111TIP3    H148824   1.454   2.879  16.401 -0.5246 -1.9916 -0.0392
 9111TIP3    H248825   1.439   2.841  16.546 -0.2233 -1.2016  0.2051
 9112TIP3   OH248826   6.251   3.477   4.083  0.1931  0.2041 -0.0449
 9112TIP3    H148827   6.156   3.488   4.088  0.4794  2.6115  2.2159
 9112TIP3    H248828   6.278   3.535   4.012  0.1300  1.4261  0.8870
 9113TIP3   OH248829   4.922   5.026  13.420 -0.3935  0.0278 -0.7768
 9113TIP3    H148830   4.964   5.111  13.411 -0.3630  0.1265  0.2666
 9113TIP3    H248831   4.858   5.037  13.490  1.6227 -1.5616  1.4615
 9114TIP3   OH248832   3.626   3.402   3.336 -0.2625 -0.1098 -0.7029
 9114TIP3    H148833   3.584   3.317   3.325 -1.3197  0.5225 -1.7394
 9114TIP3    H248834   3.553   3.463   3.349  0.3005  1.0052 -2.4544
 9115TIP3   OH248835   6.709   2.892  16.044 -0.0231  0.1961  0.5500
 9115TIP3    H148836   6.713   2.878  16.138  0.7787  0.6723  0.5969
 9115TIP3    H248837   6.780   2.839  16.009 -0.1546  0.2225  0.2378
 9116TIP3   OH248838   4.911   4.914   3.003 -0.5300  0.0494 -0.2127
 9116TIP3    H148839   4.877   5.003   3.007 -0.1534  0.4303 -3.1223
 9116TIP3    H248840   4.833   4.860   2.992 -0.7136  0.0493  0.9710
 9117TIP3   OH248841   4.711   6.609   3.033  0.3447 -0.1424  0.0280
 9117TIP3    H148842   4.633   6.656   3.060 -0.0615 -0.3562 -0.7469
 9117TIP3    H248843   4.680   6.545   2.969  0.7969 -1.8003  1.3910
 9118TIP3   OH248844   2.235   2.429   5.359 -0.2664  1.0164  0.2315
 9118TIP3    H148845   2.182   2.472   5.292  1.4121  2.5125 -0.1886
 9118TIP3    H248846   2.298   2.376   5.310 -0.6234  0.1165  0.7110
 9119TIP3   OH248847   1.990   5.770  12.444 -0.3924  0.2809 -0.4152
 9119TIP3    H148848   1.931   5.743  12.514 -1.3758 -0.2945 -1.4372
 9119TIP3    H248849   2.038   5.844  12.480 -2.4797  1.4578  0.1114
 9120TIP3   OH248850   4.122   4.208  16.166  0.3213 -0.0512 -0.1493
 9120TIP3    H148851   4.062   4.220  16.093  0.0759 -2.5851 -0.4403
 9120TIP3    H248852   4.209   4.215  16.127  0.1911 -0.4273 -0.5151
 9121TIP3   OH248853   2.091   0.620  16.652  1.1576 -0.1685  0.1555
 9121TIP3    H148854   2.125   0.635  16.740 -0.1236  1.1639  0.4736
 9121TIP3    H248855   2.046   0.702  16.630 -0.3768 -1.2315 -0.8756
 9122TIP3   OH248856   3.691   5.706  16.078  0.6826 -0.4317 -0.0115
 9122TIP3    H148857   3.645   5.790  16.072 -0.3661 -1.0183 -0.2942
 9122TIP3    H248858   3.660   5.667  16.159 -0.8298 -1.6853 -1.1357
 9123TIP3   OH248859   6.082   3.710   4.827  0.5100  0.1264 -0.6042
 9123TIP3    H148860   6.052   3.640   4.769  0.1186 -0.2279  0.0228
 9123TIP3    H248861   6.178   3.705   4.821  0.4903 -0.4759 -0.5518
 9124TIP3   OH248862   2.363   2.805   6.547  0.5447 -0.1215 -0.1045
 9124TIP3    H148863   2.351   2.721   6.591  1.6360 -1.3524 -2.0170
 9124TIP3    H248864   2.304   2.802   6.472 -1.6978  2.1738  1.3996
 9125TIP3   OH248865   1.504   4.824   2.515 -0.1435  0.0063  0.2092
 9125TIP3    H148866   1.576   4.817   2.578 -1.1579 -0.2546  1.3900
 9125TIP3    H248867   1.438   4.763   2.547 -0.3549 -0.7974 -1.6234
 9126TIP3   OH248868   1.453   5.930  14.419  0.6313  0.2571 -0.1329
 9126TIP3    H148869   1.519   5.865  14.443  1.2705  1.2494  0.9484
 9126TIP3    H248870   1.382   5.880  14.378  1.6374 -0.9457 -0.4572
 9127TIP3   OH248871   1.997   3.895  16.442  0.2375  0.0558  0.4479
 9127TIP3    H148872   1.903   3.903  16.427  0.2054  2.4327  1.5664
 9127TIP3    H248873   2.036   3.915  16.357 -0.2357 -0.1222  0.1808
 9128TIP3   OH248874   1.971   3.038   4.712 -0.3371  0.4419 -0.2130
 9128TIP3    H148875   1.942   2.974   4.777 -1.3316  0.6975 -0.3893
 9128TIP3    H248876   1.939   3.122   4.745  1.7087  1.0281  0.4730
 9129TIP3   OH248877   3.203   1.801  16.154  0.4991  0.1447  0.4507
 9129TIP3    H148878   3.132   1.855  16.188 -0.3137 -0.8186  0.3372
 9129TIP3    H248879   3.218   1.735  16.222  1.5640  0.5660  0.6478
 9130TIP3   OH248880   3.061   2.853  13.599  0.0745 -0.1147  0.1383
 9130TIP3    H148881   3.060   2.761  13.572  0.3173 -0.0599 -0.0643
 9130TIP3    H248882   3.094   2.900  13.522 -0.8109  0.2404 -0.0390
 9131TIP3   OH248883   4.574   4.285   5.095  0.3155 -0.6406 -0.0814
 9131TIP3    H148884   4.505   4.330   5.046  0.9650 -0.3010 -0.7025
 9131TIP3    H248885   4.604   4.215   5.037  1.0142 -0.3029 -0.1452
 9132TIP3   OH248886   5.219   6.117   3.967  0.9519  0.2123  0.8476
 9132TIP3    H148887   5.201   6.192   4.022 -0.2614  0.5067  0.0972
 9132TIP3    H248888   5.290   6.145   3.910  1.2130  0.4149  1.2723
 9133TIP3   OH248889   0.721   0.144   2.170  0.7249 -0.0159 -0.2677
 9133TIP3    H148890   0.679   0.229   2.153  1.0014 -0.0888 -1.3928
 9133TIP3    H248891   0.673   0.082   2.116  1.0588 -0.4327 -0.0924
 9134TIP3   OH248892   0.169   2.650  14.397  0.1628  0.2679 -0.4210
 9134TIP3    H148893   0.185   2.736  14.358 -0.8336  1.5794  1.8609
 9134TIP3    H248894   0.074   2.638  14.392  0.0767  0.2130  0.9978
 9135TIP3   OH248895   5.858   5.639  14.683  0.7533  0.1168  0.1002
 9135TIP3    H148896   5.898   5.555  14.706  0.5243  0.3307  1.3292
 9135TIP3    H248897   5.910   5.704  14.729  0.9673  0.6799 -0.8979
 9136TIP3   OH248898   4.260   6.128   1.750  0.5919  0.3194 -0.7085
 9136TIP3    H148899   4.325   6.184   1.793 -1.1552  0.1195  2.5103
 9136TIP3    H248900   4.181   6.183   1.746  0.0391 -0.5104 -1.5189
 9137TIP3   OH248901   6.007   1.395   0.591 -0.1083  0.0806 -0.1829
 9137TIP3    H148902   5.933   1.419   0.646 -0.4429 -3.8265  1.3641
 9137TIP3    H248903   5.972   1.395   0.502 -1.0908  1.1387  0.1745
 9138TIP3   OH248904   1.756   4.480   2.857  0.1831 -0.1465  0.5357
 9138TIP3    H148905   1.784   4.388   2.858  0.6337 -0.0088  0.8983
 9138TIP3    H248906   1.715   4.493   2.943  1.5190  0.4048  1.1285
 9139TIP3   OH248907   1.761   4.031  15.276 -0.3164 -0.1622  0.1086
 9139TIP3    H148908   1.687   4.015  15.218 -1.2951  0.7589  1.0593
 9139TIP3    H248909   1.763   3.955  15.334  0.4319 -0.9016 -0.8418
 9140TIP3   OH248910   6.605   2.437  14.353  0.5455 -0.6278 -0.0870
 9140TIP3    H148911   6.633   2.455  14.442  0.5349 -0.9150 -0.0235
 9140TIP3    H248912   6.554   2.356  14.360  0.0329 -0.3228 -0.2612
 9141TIP3   OH248913   3.073   3.248  12.228  0.3188 -0.3182 -0.3049
 9141TIP3    H148914   3.086   3.343  12.237 -2.1486  0.1213 -0.5019
 9141TIP3    H248915   3.003   3.227  12.290  0.0434 -1.7799 -1.0548
 9142TIP3   OH248916   0.910   4.804   2.496 -0.4012 -0.2036  0.2261
 9142TIP3    H148917   0.982   4.752   2.531 -0.7632 -1.2022 -0.4673
 9142TIP3    H248918   0.877   4.854   2.571  1.1238  0.4295  0.5029
 9143TIP3   OH248919   2.020   3.167  16.940  0.1906 -0.7640 -0.2531
 9143TIP3    H148920   2.049   3.079  16.963  1.4321  0.5595  3.9984
 9143TIP3    H248921   2.100   3.219  16.933 -0.6031  0.4884 -0.6156
 9144TIP3   OH248922   6.397   4.458   4.413  0.3668  0.4248  0.5821
 9144TIP3    H148923   6.403   4.369   4.448  1.0995  0.0065 -0.5613
 9144TIP3    H248924   6.472   4.504   4.450 -0.0419  0.5958  1.2156
 9145TIP3   OH248925   2.610   1.298   3.564 -0.3840 -0.0712 -0.3773
 9145TIP3    H148926   2.613   1.270   3.656  2.1883  1.1796  0.0109
 9145TIP3    H248927   2.684   1.253   3.523  0.1250  1.4145 -1.1584
 9146TIP3   OH248928   1.160   4.427  12.354  0.5045  0.0074 -0.0434
 9146TIP3    H148929   1.082   4.372  12.360  0.8111 -0.5624 -1.0530
 9146TIP3    H248930   1.129   4.515  12.378  0.0246 -0.5910  1.6434
 9147TIP3   OH248931   4.175   1.701  13.082 -0.0601 -0.6655  0.4161
 9147TIP3    H148932   4.242   1.769  13.091 -1.1854  0.4838  0.3825
 9147TIP3    H248933   4.202   1.633  13.145  1.8085 -0.8351 -0.5000
 9148TIP3   OH248934   0.247   4.301   3.514  0.5564 -0.1079 -0.0260
 9148TIP3    H148935   0.223   4.282   3.605  0.0166  1.3362  0.1614
 9148TIP3    H248936   0.165   4.291   3.465  0.5608  0.3735 -0.1362
 9149TIP3   OH248937   6.117   5.255  16.881  0.0099  0.2907 -0.1231
 9149TIP3    H148938   6.083   5.181  16.831 -1.5046  0.3751  0.7004
 9149TIP3    H248939   6.170   5.214  16.950  0.1190  0.0414 -0.3506
 9150TIP3   OH248940   4.705   3.779   4.498  0.2122  0.5797 -0.1305
 9150TIP3    H148941   4.616   3.762   4.467  0.2277 -0.7908  0.5278
 9150TIP3    H248942   4.694   3.843   4.568 -0.1204  1.3255 -0.8468
 9151TIP3   OH248943   6.189   1.850  13.482 -0.3870  0.0445 -0.2943
 9151TIP3    H148944   6.112   1.867  13.537 -0.7839  0.7854 -1.0562
 9151TIP3    H248945   6.237   1.782  13.529 -1.1086  0.1192  0.5832
 9152TIP3   OH248946   6.838   6.110  11.216  0.2128  0.5053  0.1511
 9152TIP3    H148947   6.753   6.070  11.234  1.6322 -2.3230  1.2775
 9152TIP3    H248948   6.857   6.085  11.126 -0.9261  2.8782 -0.8307
 9153TIP3   OH248949   2.115   2.125  12.102  0.3462 -0.3474  0.2724
 9153TIP3    H148950   2.117   2.194  12.036  0.5838 -0.2301  0.4029
 9153TIP3    H248951   2.135   2.045  12.053 -2.3064 -0.7290 -0.3645
 9154TIP3   OH248952   0.911   0.512   1.249  0.1417 -0.1484  0.4743
 9154TIP3    H148953   0.984   0.462   1.214 -1.1640 -1.0007 -1.1896
 9154TIP3    H248954   0.851   0.522   1.175  0.3575  4.0404  0.6568
 9155TIP3   OH248955   6.796   2.585  14.228  0.0078 -0.0697  0.0098
 9155TIP3    H148956   6.742   2.663  14.212  1.1048  0.9146  0.9175
 9155TIP3    H248957   6.733   2.518  14.255 -1.1962 -0.1016 -2.5629
 9156TIP3   OH248958   5.595   0.234  15.391  0.1834 -0.1846  0.2205
 9156TIP3    H148959   5.645   0.242  15.309 -2.7528 -0.0784 -1.7078
 9156TIP3    H248960   5.527   0.300  15.383 -0.0787 -0.0518  2.9141
 9157TIP3   OH248961   0.697   2.348  11.402  0.1920 -0.4628  0.5233
 9157TIP3    H148962   0.715   2.439  11.426 -0.3982 -0.5341  1.2536
 9157TIP3    H248963   0.735   2.297  11.473 -0.6781 -0.7196  0.8181
 9158TIP3   OH248964   4.846   2.165   0.065 -0.3923 -0.6032 -0.1745
 9158TIP3    H148965   4.825   2.257   0.076  1.0453 -0.1976 -0.5284
 9158TIP3    H248966   4.762   2.121   0.058 -1.1068  0.8778 -1.5180
 9159TIP3   OH248967   3.928   6.840  12.839  0.1254  0.1293  0.3144
 9159TIP3    H148968   3.871   6.764  12.838  0.6430 -0.2555 -0.4998
 9159TIP3    H248969   3.986   6.826  12.914  0.7985 -0.7171 -0.3560
 9160TIP3   OH248970   0.450   1.759  13.148  0.3742 -0.2547  0.2959
 9160TIP3    H148971   0.501   1.782  13.070 -0.8989  0.3255 -0.3977
 9160TIP3    H248972   0.508   1.700  13.198  1.4384 -0.1702 -0.7845
 9161TIP3   OH248973   6.610   4.950  16.034  0.0965 -0.3574 -0.0303
 9161TIP3    H148974   6.686   5.007  16.046  1.9000 -1.9059 -2.9552
 9161TIP3    H248975   6.545   4.984  16.095  2.0663  2.9292  0.4873
 9162TIP3   OH248976   1.902   0.505  16.384  0.0607 -0.1676  0.3778
 9162TIP3    H148977   1.989   0.484  16.350  0.0155 -1.8681  1.2044
 9162TIP3    H248978   1.847   0.512  16.306 -0.0039 -3.8046 -0.0888
 9163TIP3   OH248979   5.594   5.184  11.283 -0.0987 -0.0950 -0.0306
 9163TIP3    H148980   5.608   5.120  11.353 -0.7632 -0.1233  0.0839
 9163TIP3    H248981   5.582   5.267  11.330  1.1872  0.2054 -0.1946
 9164TIP3   OH248982   3.637   1.537   4.286  0.3590  0.1140 -0.2734
 9164TIP3    H148983   3.689   1.607   4.325 -1.1083  0.9518  0.2807
 9164TIP3    H248984   3.618   1.569   4.197  1.3556 -0.5111 -0.7210
 9165TIP3   OH248985   0.540   4.684   0.942  0.3037  0.3060  0.0594
 9165TIP3    H148986   0.580   4.701   1.027  1.5708 -1.5392 -0.1047
 9165TIP3    H248987   0.518   4.770   0.908  1.7391  1.2269  1.3211
 9166TIP3   OH248988   1.784   2.875  13.536  0.4850  0.1437  0.3319
 9166TIP3    H148989   1.774   2.811  13.466  0.2239 -0.4241  0.8739
 9166TIP3    H248990   1.876   2.902  13.530  0.0073  1.5409 -1.4244
 9167TIP3   OH248991   4.357   1.196  12.758 -0.4858  0.4300 -0.2726
 9167TIP3    H148992   4.329   1.275  12.805 -1.5856  0.8213 -1.5230
 9167TIP3    H248993   4.440   1.220  12.718 -0.1646  0.5025  0.4146
 9168TIP3   OH248994   6.371   4.114  14.355 -0.6259 -0.7867 -0.5083
 9168TIP3    H148995   6.306   4.137  14.421  0.3641 -0.4654  0.3820
 9168TIP3    H248996   6.374   4.190  14.297 -0.1174 -0.2444  0.2104
 9169TIP3   OH248997   4.335   6.659   0.609 -0.6149  0.7030 -0.3159
 9169TIP3    H148998   4.242   6.636   0.603 -0.6641 -0.4397  2.8946
 9169TIP3    H248999   4.340   6.747   0.572 -3.2391  1.3779  0.6889
 9170TIP3   OH249000   4.735   1.168  15.737  0.1355 -0.1341  0.0648
 9170TIP3    H149001   4.741   1.257  15.703  0.6138 -0.0683  0.3086
 9170TIP3    H249002   4.645   1.142  15.720 -0.0605  0.4631  0.1561
 9171TIP3   OH249003   2.333   1.330  16.759 -0.0856  0.0128 -0.1848
 9171TIP3    H149004   2.289   1.414  16.745  1.9880  1.2856  0.3572
 9171TIP3    H249005   2.342   1.324  16.854  0.9691 -0.1439 -0.2848
 9172TIP3   OH249006   0.298   3.734   2.620  0.2694 -0.0273 -0.3693
 9172TIP3    H149007   0.374   3.790   2.605 -0.9031  1.3172 -1.7562
 9172TIP3    H249008   0.333   3.656   2.662  2.1020  1.4057  0.9333
 9173TIP3   OH249009   3.972   4.986   2.663 -0.0713  0.4330  0.0402
 9173TIP3    H149010   3.938   4.903   2.631  0.8192  0.4965 -1.1448
 9173TIP3    H249011   4.031   4.962   2.734  0.2081  0.0435 -0.3188
 9174TIP3   OH249012   4.646   3.353   2.931  0.3061  0.1230  0.1852
 9174TIP3    H149013   4.722   3.295   2.935 -0.9295 -1.4782  1.5413
 9174TIP3    H249014   4.636   3.373   2.838  0.6358 -2.0300 -0.3584
 9175TIP3   OH249015   4.005   4.581  13.590 -0.3117 -0.3411 -0.5183
 9175TIP3    H149016   3.918   4.610  13.562 -0.8622 -1.2173  0.2178
 9175TIP3    H249017   4.058   4.583  13.511 -1.1652 -0.3490 -1.0993
 9176TIP3   OH249018   0.886   4.291  11.558 -0.4083 -0.4539 -0.6035
 9176TIP3    H149019   0.963   4.347  11.544 -1.0822  0.6863  0.0732
 9176TIP3    H249020   0.920   4.212  11.599  0.1846  0.9583  1.8027
 9177TIP3   OH249021   2.114   0.383   1.775 -0.1189  0.3730 -0.0275
 9177TIP3    H149022   2.076   0.328   1.844 -0.7732  1.4217  0.4652
 9177TIP3    H249023   2.054   0.374   1.701 -1.4070  2.0786  0.7711
 9178TIP3   OH249024   5.655   5.560   1.952  0.0556  0.8355 -0.1229
 9178TIP3    H149025   5.570   5.525   1.927 -0.1788  1.0374  0.3764
 9178TIP3    H249026   5.635   5.641   1.998  0.5006  0.7387  0.2446
 9179TIP3   OH249027   0.410   1.549   0.549  0.4832 -0.0594 -0.5328
 9179TIP3    H149028   0.371   1.623   0.595  0.1369  0.0384 -0.9866
 9179TIP3    H249029   0.473   1.589   0.489  1.9793 -0.2536  0.8303
 9180TIP3   OH249030   5.864   4.112   5.548  0.3189  0.4116  0.1246
 9180TIP3    H149031   5.807   4.098   5.623  1.2489  1.0788  0.9750
 9180TIP3    H249032   5.901   4.199   5.562  0.3836  0.6156 -1.1898
 9181TIP3   OH249033   3.995   1.729   1.264 -0.0224 -0.3498  1.0643
 9181TIP3    H149034   4.028   1.803   1.315  2.9045 -0.4902 -0.3835
 9181TIP3    H249035   4.042   1.653   1.299 -0.7383 -1.0359  0.5769
 9182TIP3   OH249036   0.963   1.795   3.066 -0.1201 -0.2484 -0.0061
 9182TIP3    H149037   0.952   1.793   3.161 -1.6133 -0.3538 -0.1625
 9182TIP3    H249038   0.982   1.886   3.046 -0.9281 -0.0089  0.2901
 9183TIP3   OH249039   4.827   1.543  10.892 -0.4604 -0.3670 -0.0608
 9183TIP3    H149040   4.775   1.549  10.813 -1.2410 -0.0774  0.4613
 9183TIP3    H249041   4.888   1.616  10.887 -0.8495 -0.0505 -0.1533
 9184TIP3   OH249042   4.651   5.414   2.374 -0.2527 -0.0274  0.2120
 9184TIP3    H149043   4.680   5.338   2.324  0.4868  0.6749 -0.4723
 9184TIP3    H249044   4.624   5.477   2.307 -0.4145  0.4774  0.7506
 9185TIP3   OH249045   1.034   3.772  15.706  0.1535 -0.3616  0.0116
 9185TIP3    H149046   0.948   3.804  15.733  0.2966 -0.2492  0.3357
 9185TIP3    H249047   1.018   3.728  15.623 -0.2036 -0.2641  0.0269
 9186TIP3   OH249048   5.912   2.432  12.968 -0.3886  0.0983 -0.2421
 9186TIP3    H149049   5.912   2.496  12.897  1.2075  0.1439 -0.2358
 9186TIP3    H249050   5.996   2.387  12.960 -0.4666 -0.3505  1.2062
 9187TIP3   OH249051   5.939   5.556  12.162 -0.5431  0.0739 -0.0860
 9187TIP3    H149052   5.882   5.608  12.106 -0.4414  1.3250  0.9208
 9187TIP3    H249053   5.901   5.468  12.161 -1.9003  0.6483 -0.2340
 9188TIP3   OH249054   0.287   0.859   2.451  0.2556  0.1526 -0.1720
 9188TIP3    H149055   0.297   0.822   2.364  0.1648  0.4818 -0.3230
 9188TIP3    H249056   0.204   0.823   2.483  1.0579 -1.2548  0.4242
 9189TIP3   OH249057   2.631   1.824   2.402 -0.5297  0.4608 -0.2064
 9189TIP3    H149058   2.636   1.916   2.425  2.3415  0.3179  0.0760
 9189TIP3    H249059   2.638   1.822   2.306  0.3921  0.5148 -0.1460
 9190TIP3   OH249060   4.576   2.645  15.814 -0.4819  0.4293 -0.4483
 9190TIP3    H149061   4.544   2.582  15.878 -2.4540  0.0790 -1.6709
 9190TIP3    H249062   4.499   2.698  15.793  1.1956  3.6458  0.9017
 9191TIP3   OH249063   1.041   5.861  14.511  0.3432 -0.0379 -0.1417
 9191TIP3    H149064   1.091   5.911  14.575  2.3351  0.6476 -2.1179
 9191TIP3    H249065   0.991   5.927  14.463 -1.4585 -0.5834  0.8833
 9192TIP3   OH249066   2.749   5.301  13.264 -0.0199  0.4225 -0.1101
 9192TIP3    H149067   2.725   5.223  13.313 -0.2253  0.1855 -0.5835
 9192TIP3    H249068   2.833   5.328  13.302 -0.7112  0.8968  1.1342
 9193TIP3   OH249069   2.692   4.270  13.591  0.1995  0.0882 -0.1609
 9193TIP3    H149070   2.644   4.217  13.654 -0.2909 -0.4263 -0.9516
 9193TIP3    H249071   2.666   4.235  13.505  2.1221 -0.3208 -0.6133
 9194TIP3   OH249072   3.505   3.332   4.895  0.4802 -1.0254 -0.2536
 9194TIP3    H149073   3.477   3.294   4.978  2.2879  0.7036  1.2352
 9194TIP3    H249074   3.595   3.302   4.884  0.9641  0.4591 -0.4977
 9195TIP3   OH249075   0.426   3.352   1.551  0.4113 -0.5954  0.1365
 9195TIP3    H149076   0.359   3.337   1.617  0.6312  0.2046  0.5503
 9195TIP3    H249077   0.379   3.385   1.474  0.4811  1.6951  1.0092
 9196TIP3   OH249078   2.825   6.291   5.947  0.1115 -0.6430  0.6065
 9196TIP3    H149079   2.798   6.378   5.917  0.8990  0.2186  2.2385
 9196TIP3    H249080   2.864   6.251   5.869  0.6861  0.8712  0.0606
 9197TIP3   OH249081   2.547   5.074   1.398 -0.5299  0.4063 -0.0411
 9197TIP3    H149082   2.514   5.164   1.392  1.3266  1.2121  0.9362
 9197TIP3    H249083   2.641   5.082   1.379 -0.1555 -1.1754  0.9474
 9198TIP3   OH249084   0.034   1.886   4.640 -0.0743  0.3960  0.4948
 9198TIP3    H149085  -0.013   1.942   4.578 -0.9902 -0.8227  0.0542
 9198TIP3    H249086   0.038   1.801   4.597  1.0963  0.0449  1.2475
 9199TIP3   OH249087   4.061   0.363   0.085  0.3337  0.1374  0.2190
 9199TIP3    H149088   3.981   0.331   0.043 -1.2848  2.1449  1.5887
 9199TIP3    H249089   4.115   0.391   0.011 -0.9655  0.3784 -0.6969
 9200TIP3   OH249090   6.666   5.866   4.203  0.3706  0.2743 -0.0700
 9200TIP3    H149091   6.580   5.907   4.192  1.0972  2.3904  1.4476
 9200TIP3    H249092   6.717   5.898   4.129 -0.6694 -2.8828 -2.3708
 9201TIP3   OH249093   4.293   0.641  10.254 -0.6066  0.9645 -0.2104
 9201TIP3    H149094   4.244   0.722  10.264 -1.1687  0.8409 -1.7033
 9201TIP3    H249095   4.229   0.572  10.269 -0.2506  0.7945  0.5393
 9202TIP3   OH249096   4.231   3.686   2.765 -0.0007  0.1970 -0.6329
 9202TIP3    H149097   4.184   3.678   2.682 -1.3500  0.9416  0.0151
 9202TIP3    H249098   4.169   3.656   2.831  0.6920  0.5241  0.1958
 9203TIP3   OH249099   2.584   0.344   5.004 -0.1474 -0.4524 -0.3404
 9203TIP3    H149100   2.554   0.388   5.084 -0.3797 -0.1557 -0.5834
 9203TIP3    H249101   2.514   0.362   4.940 -0.3595 -1.3713 -0.3845
 9204TIP3   OH249102   4.871   0.751   5.040 -0.7720  0.2051 -0.0153
 9204TIP3    H149103   4.912   0.674   5.002  0.3841  0.5948  0.4112
 9204TIP3    H249104   4.777   0.730   5.040 -0.6106 -0.6349 -1.1425
 9205TIP3   OH249105   0.751   1.712   1.443 -0.2129  0.2893 -0.2020
 9205TIP3    H149106   0.714   1.789   1.399 -1.0923 -0.5342 -0.9473
 9205TIP3    H249107   0.818   1.679   1.382  0.5959  0.8013  0.3902
 9206TIP3   OH249108   4.423   0.938   0.563  0.1583  0.4493  0.3881
 9206TIP3    H149109   4.348   0.937   0.504  1.3270 -1.2513 -1.1536
 9206TIP3    H249110   4.402   0.874   0.630 -0.2431  0.8308  0.6375
 9207TIP3   OH249111   3.001   3.197  15.647  0.2329  0.6303 -0.1144
 9207TIP3    H149112   3.024   3.282  15.683 -1.5066  1.0766 -0.0067
 9207TIP3    H249113   3.021   3.205  15.553 -1.0160  1.5748 -0.3205
 9208TIP3   OH249114   2.203   2.481  12.020 -0.0216 -0.5108  0.0440
 9208TIP3    H149115   2.130   2.428  11.987  0.3485 -0.8981 -0.1633
 9208TIP3    H249116   2.211   2.553  11.957 -0.8557  0.0847  0.6060
 9209TIP3   OH249117   4.030   1.312  12.647  0.8685  0.0820 -0.2830
 9209TIP3    H149118   4.103   1.284  12.702  1.4929 -0.4728 -1.3811
 9209TIP3    H249119   4.070   1.362  12.576  0.3615 -1.4550 -1.7074
 9210TIP3   OH249120   4.863   4.356   6.520 -0.4788 -0.2623  0.5018
 9210TIP3    H149121   4.830   4.441   6.491  0.1019 -0.3319 -0.3859
 9210TIP3    H249122   4.840   4.296   6.450 -1.0321 -0.8840  1.1982
 9211TIP3   OH249123   5.728   3.345   3.483  0.2519  0.1172  0.1221
 9211TIP3    H149124   5.725   3.376   3.574  1.2265 -0.4248  0.3557
 9211TIP3    H249125   5.817   3.367   3.454 -0.7012  2.2234 -1.4250
 9212TIP3   OH249126   3.940   1.927   4.811  0.3557  0.0825 -0.4732
 9212TIP3    H149127   3.995   1.898   4.738  1.0612 -0.2598  0.1843
 9212TIP3    H249128   3.951   2.022   4.813  0.2684  0.1047 -0.8549
 9213TIP3   OH249129   3.175   0.645  13.574 -0.1609 -0.8609  0.0129
 9213TIP3    H149130   3.217   0.633  13.659 -0.1936  1.3469  0.3999
 9213TIP3    H249131   3.235   0.604  13.512  0.8029 -0.8781  0.9183
 9214TIP3   OH249132   6.628   0.157  14.577 -0.1406  0.4293 -0.0966
 9214TIP3    H149133   6.722   0.159  14.595  0.1133 -2.3519 -0.6408
 9214TIP3    H249134   6.587   0.171  14.662  0.9328 -3.4333  1.2675
 9215TIP3   OH249135   0.586   1.089   4.721 -0.2681 -0.1580 -0.1636
 9215TIP3    H149136   0.614   1.029   4.790  1.1236 -0.6052 -1.0557
 9215TIP3    H249137   0.544   1.032   4.656 -0.0535  0.0099 -0.4492
 9216TIP3   OH249138   6.711   3.309   0.373 -0.6641 -0.0410  0.2405
 9216TIP3    H149139   6.672   3.396   0.375  0.7961  0.6540  0.7046
 9216TIP3    H249140   6.805   3.326   0.365 -0.2895 -1.5512  1.0794
 9217TIP3   OH249141   4.600   2.536  13.211 -0.3044 -0.0566 -0.1679
 9217TIP3    H149142   4.563   2.609  13.161  0.3078  1.5605  1.6042
 9217TIP3    H249143   4.583   2.559  13.302  2.8339 -0.4120  0.6296
 9218TIP3   OH249144   6.101   1.213   3.818  0.0991  0.0774 -0.0504
 9218TIP3    H149145   6.099   1.278   3.747 -0.6755  0.4808  0.3246
 9218TIP3    H249146   6.043   1.249   3.885 -1.4611 -1.6457 -0.3991
 9219TIP3   OH249147   6.284   1.682   4.981 -0.6055 -0.6997 -0.2189
 9219TIP3    H149148   6.295   1.616   5.049 -0.0521 -1.5308 -1.0945
 9219TIP3    H249149   6.219   1.645   4.921 -0.4928 -0.3363 -0.5739
 9220TIP3   OH249150   0.078   4.132  11.244 -0.1872 -0.0803  0.5775
 9220TIP3    H149151   0.086   4.129  11.339  0.1400  1.2397  0.6184
 9220TIP3    H249152   0.081   4.041  11.216 -0.8638 -0.5169  1.8720
 9221TIP3   OH249153   2.412   1.812  13.925 -0.7036  0.1617 -0.2707
 9221TIP3    H149154   2.470   1.744  13.891  1.2032  1.6356 -0.1728
 9221TIP3    H249155   2.366   1.770  13.997  1.2932 -0.7255  0.5709
 9222TIP3   OH249156   4.677   1.577   3.608 -0.4054 -0.5490 -0.8494
 9222TIP3    H149157   4.768   1.549   3.617 -0.0693  0.7622  0.3112
 9222TIP3    H249158   4.652   1.552   3.519  0.6764 -2.0345 -0.7757
 9223TIP3   OH249159   6.517   1.273   3.598  0.1238  0.1151  0.0924
 9223TIP3    H149160   6.545   1.281   3.507 -1.5546  0.8398 -0.4014
 9223TIP3    H249161   6.437   1.325   3.603 -0.3150 -0.6521  1.7711
 9224TIP3   OH249162   1.656   4.285  12.218 -0.4143 -0.2537 -0.1101
 9224TIP3    H149163   1.655   4.310  12.126  0.4991  2.6910  0.5660
 9224TIP3    H249164   1.575   4.320  12.254  0.4073  0.9113  0.6817
 9225TIP3   OH249165   3.789   6.128  16.038 -0.2764 -0.1223 -0.8302
 9225TIP3    H149166   3.859   6.077  16.079 -0.2252 -0.3781 -1.2348
 9225TIP3    H249167   3.831   6.210  16.013 -0.4902  0.3698  0.3423
 9226TIP3   OH249168   5.673   0.578   5.425 -0.2199  0.1990  0.6242
 9226TIP3    H149169   5.591   0.538   5.456 -1.4419  1.7156 -0.5375
 9226TIP3    H249170   5.721   0.505   5.385 -1.5214 -0.5109  0.2847
 9227TIP3   OH249171   2.389   4.797  11.834 -0.4154  0.0828  0.3271
 9227TIP3    H149172   2.369   4.721  11.888 -0.0204 -0.4505 -0.2597
 9227TIP3    H249173   2.320   4.861  11.855 -2.1700 -1.3168 -0.9442
 9228TIP3   OH249174   5.596   1.064   5.453  0.4914  0.4885  0.3462
 9228TIP3    H149175   5.643   1.116   5.388  1.0488 -0.3715  0.0372
 9228TIP3    H249176   5.639   1.084   5.536  2.1506 -1.0536 -0.0689
 9229TIP3   OH249177   6.369   3.284   4.782  0.1707 -0.4117  0.1807
 9229TIP3    H149178   6.411   3.340   4.847 -1.3790  0.6880  0.2676
 9229TIP3    H249179   6.296   3.243   4.828 -0.5414 -0.1302 -0.6620
 9230TIP3   OH249180   0.949   5.785   0.833 -0.3429 -0.0099  0.3264
 9230TIP3    H149181   0.882   5.848   0.805 -0.6523  0.1810  1.4189
 9230TIP3    H249182   0.931   5.772   0.926  1.0565 -0.0619  0.6082
 9231TIP3   OH249183   3.003   3.680   5.163  0.0918 -0.1777  0.2163
 9231TIP3    H149184   3.020   3.750   5.100  0.6820  0.6714  1.2657
 9231TIP3    H249185   3.053   3.706   5.241 -1.5449 -0.5540  1.4565
 9232TIP3   OH249186   1.701   3.063   2.336  0.5613 -0.1879  0.0894
 9232TIP3    H149187   1.640   3.015   2.392  1.0016 -0.7322  0.1165
 9232TIP3    H249188   1.681   3.032   2.247  0.8061 -0.3790  0.1006
 9233TIP3   OH249189   5.917   1.412  10.931 -0.0863  0.1589 -0.0413
 9233TIP3    H149190   5.865   1.486  10.900  0.6173  0.2139 -1.1407
 9233TIP3    H249191   5.994   1.411  10.874 -0.4404 -1.8758 -0.5564
 9234TIP3   OH249192   0.354   5.442  10.957  0.8353  0.2299  0.1751
 9234TIP3    H149193   0.370   5.348  10.963  0.2476  0.0715 -0.6358
 9234TIP3    H249194   0.364   5.473  11.047  0.2668 -0.7278  0.5871
 9235TIP3   OH249195   3.933   6.757  10.736  0.5481 -0.2903 -0.3625
 9235TIP3    H149196   3.879   6.823  10.693  0.5840  0.9241  1.3285
 9235TIP3    H249197   4.018   6.765  10.694  0.5137  0.6855 -0.2798
 9236TIP3   OH249198   1.332   2.412  17.101  0.8582  0.0496 -0.1395
 9236TIP3    H149199   1.276   2.485  17.073  0.9511 -0.1451 -0.8530
 9236TIP3    H249200   1.400   2.454  17.154  1.7962  0.7114 -1.8046
 9237TIP3   OH249201   6.018   3.652   4.162 -0.4074  0.0289 -0.6243
 9237TIP3    H149202   5.954   3.647   4.091  0.3668  0.5233 -1.3809
 9237TIP3    H249203   5.966   3.645   4.242 -1.3364 -0.1819 -1.2312
 9238TIP3   OH249204   2.167   5.547   0.230 -0.3889  0.7657 -0.1246
 9238TIP3    H149205   2.173   5.643   0.221 -0.1945  0.7787  0.1440
 9238TIP3    H249206   2.074   5.531   0.243 -0.2898  1.0184  0.9494
 9239TIP3   OH249207   5.756   6.778  13.002  0.1135  0.1290 -0.0169
 9239TIP3    H149208   5.729   6.688  13.018 -0.4580  0.0067 -1.4768
 9239TIP3    H249209   5.712   6.829  13.070 -2.1608 -0.3465 -1.0196
 9240TIP3   OH249210   5.495   1.187  10.895  0.7616  0.2368 -0.5048
 9240TIP3    H149211   5.589   1.172  10.907  0.2111 -1.7227  2.2949
 9240TIP3    H249212   5.473   1.252  10.961  0.1197  0.8210 -1.2712
 9241TIP3   OH249213   5.387   3.718  15.007  0.4403  0.1095 -0.4578
 9241TIP3    H149214   5.381   3.678  15.094  0.5123 -1.0614 -0.9721
 9241TIP3    H249215   5.378   3.645  14.946  1.8576  0.6957 -1.4286
 9242TIP3   OH249216   2.160   0.461   0.746  0.2104  0.2067  0.1220
 9242TIP3    H149217   2.111   0.396   0.696  1.7793 -0.2286 -0.9128
 9242TIP3    H249218   2.241   0.416   0.771  1.4315  1.7896 -0.8166
 9243TIP3   OH249219   3.675   0.353   5.209 -0.4748 -0.1187 -0.2482
 9243TIP3    H149220   3.722   0.359   5.125  0.1141 -2.0497 -0.0871
 9243TIP3    H249221   3.678   0.261   5.232 -1.5840  0.2145  1.3935
 9244TIP3   OH249222   1.104   0.311   1.165 -0.0361  0.9584 -0.2128
 9244TIP3    H149223   1.100   0.235   1.107  1.2742 -0.3001  1.2632
 9244TIP3    H249224   1.197   0.335   1.167 -0.3964  2.4781 -0.4737
 9245TIP3   OH249225   6.176   2.453   2.524 -0.4947  0.2990 -0.0065
 9245TIP3    H149226   6.226   2.466   2.443 -0.1002 -0.1671  0.1534
 9245TIP3    H249227   6.129   2.371   2.510  0.3977 -0.3429  0.6298
 9246TIP3   OH249228   0.044   4.222  12.659 -0.2085  0.0681  1.0262
 9246TIP3    H149229  -0.013   4.292  12.693  1.0964  1.2320  0.9020
 9246TIP3    H249230   0.102   4.200  12.732 -1.5145 -1.9608  1.5463
 9247TIP3   OH249231   1.405   3.091  11.444  0.2788  0.3416 -1.0046
 9247TIP3    H149232   1.392   3.153  11.516  0.4719  0.1396 -0.7934
 9247TIP3    H249233   1.409   3.145  11.366 -1.4356  0.4649 -1.0500
 9248TIP3   OH249234   3.714   6.347   3.284 -0.4663  0.1369  0.3596
 9248TIP3    H149235   3.651   6.335   3.213 -0.3109  0.2198  0.2085
 9248TIP3    H249236   3.660   6.371   3.360 -0.5954  0.4727  0.1654
 9249TIP3   OH249237   1.051   1.618   3.882  0.8427 -0.3054 -0.9538
 9249TIP3    H149238   0.982   1.580   3.827 -0.3881  0.6717 -0.1418
 9249TIP3    H249239   1.115   1.652   3.819  1.4873 -2.7046 -1.7150
 9250TIP3   OH249240   2.381   2.318   4.799 -0.1900  0.3043  0.1091
 9250TIP3    H149241   2.459   2.262   4.799 -0.9349 -0.8523 -1.5505
 9250TIP3    H249242   2.403   2.391   4.741  0.0471  0.5757  0.5432
 9251TIP3   OH249243   2.643   4.213  10.858 -0.5116 -0.1018  0.6040
 9251TIP3    H149244   2.699   4.219  10.780  0.0149 -1.5402  0.8324
 9251TIP3    H249245   2.612   4.302  10.872 -1.5360  0.0322 -1.9061
 9252TIP3   OH249246   6.060   6.553   5.094  0.1681  0.4806  0.5792
 9252TIP3    H149247   6.138   6.504   5.070  1.9965  2.2420  2.4720
 9252TIP3    H249248   6.001   6.488   5.132  0.9008 -0.8118 -0.4315
 9253TIP3   OH249249   3.387   6.215  16.701 -0.0207  0.4748 -0.0381
 9253TIP3    H149250   3.303   6.198  16.658 -0.3379  1.6909  0.0801
 9253TIP3    H249251   3.404   6.308  16.684  0.4138  0.6920  1.4820
 9254TIP3   OH249252   2.323   6.050   3.241  0.1483 -0.0883  0.7392
 9254TIP3    H149253   2.347   5.959   3.221  2.1895  0.5576  0.0704
 9254TIP3    H249254   2.227   6.049   3.241 -0.0077 -1.4468 -3.1767
 9255TIP3   OH249255   0.724   6.081  14.110  0.0985  0.6405 -0.0567
 9255TIP3    H149256   0.733   6.072  14.015 -0.2813 -0.8236  0.0246
 9255TIP3    H249257   0.630   6.082  14.125  0.1582  0.8588  0.3197
 9256TIP3   OH249258   1.658   1.268   5.878 -0.2370 -0.5530 -0.5287
 9256TIP3    H149259   1.742   1.288   5.836  0.7736  0.0632  1.6104
 9256TIP3    H249260   1.611   1.352   5.879  0.6313 -0.0195  1.3015
 9257TIP3   OH249261   3.927   2.307  15.354  0.5014 -0.3962  0.1341
 9257TIP3    H149262   3.888   2.331  15.438 -1.3333 -1.6564 -0.3030
 9257TIP3    H249263   3.984   2.380  15.333 -0.1155  0.6222  1.7842
 9258TIP3   OH249264   0.287   1.538   4.002 -0.0261  0.6868 -0.1456
 9258TIP3    H149265   0.285   1.520   4.096 -1.5565  0.7142 -0.1528
 9258TIP3    H249266   0.380   1.533   3.979  0.1477 -2.9446  0.6779
 9259TIP3   OH249267   1.636   4.671  15.711 -0.5238  0.7250  0.2241
 9259TIP3    H149268   1.581   4.615  15.656 -0.7921  2.1125 -0.9756
 9259TIP3    H249269   1.580   4.693  15.785 -0.7762  0.2564  0.1764
 9260TIP3   OH249270   2.917   2.177   0.365  0.0873 -0.4697  0.0360
 9260TIP3    H149271   2.940   2.101   0.312 -1.2121 -1.8156  1.3174
 9260TIP3    H249272   2.983   2.178   0.434  1.3266  0.8366 -1.0966
 9261TIP3   OH249273   1.572   4.386  13.818 -0.3370 -0.6708 -0.7155
 9261TIP3    H149274   1.616   4.457  13.773  1.4908 -0.3740  1.3868
 9261TIP3    H249275   1.640   4.321  13.833 -1.4820 -1.8885 -0.6359
 9262TIP3   OH249276   4.335   3.868   0.368  0.2657 -1.1576 -0.2323
 9262TIP3    H149277   4.260   3.905   0.323  0.7795  0.3136  0.0760
 9262TIP3    H249278   4.373   3.941   0.416  2.3108 -1.6992 -0.9287
 9263TIP3   OH249279   0.481   4.337   3.408  0.3120 -0.1732  0.1606
 9263TIP3    H149280   0.407   4.291   3.447 -0.9183  0.9807 -0.7366
 9263TIP3    H249281   0.459   4.430   3.417  1.2147  0.1708 -0.9378
 9264TIP3   OH249282   5.979   5.674  11.205 -0.4019 -0.2021 -0.1479
 9264TIP3    H149283   5.980   5.763  11.242  1.5677 -1.2002  2.5326
 9264TIP3    H249284   6.026   5.683  11.122  0.4280  1.1766  0.4229
 9265TIP3   OH249285   3.739   6.621   3.798 -0.2444  0.4380 -0.2826
 9265TIP3    H149286   3.707   6.605   3.887 -1.0065  1.1473 -0.4178
 9265TIP3    H249287   3.833   6.635   3.809 -0.4438  1.2668  0.5250
 9266TIP3   OH249288   6.602   2.474   2.743  0.0838 -0.3679  0.3277
 9266TIP3    H149289   6.522   2.423   2.756 -1.4666  1.2362 -2.1129
 9266TIP3    H249290   6.594   2.547   2.804 -0.7930  0.2467 -0.4899
 9267TIP3   OH249291   3.570   4.056  11.572  0.5710  0.2201  0.5149
 9267TIP3    H149292   3.505   4.119  11.541 -0.5369 -0.5822  1.1156
 9267TIP3    H249293   3.654   4.101  11.561 -0.1435  1.6240  0.5166
 9268TIP3   OH249294   2.226   0.547   5.224 -0.0885  0.5270  0.2862
 9268TIP3    H149295   2.138   0.540   5.186 -0.4867  1.1568  1.0621
 9268TIP3    H249296   2.211   0.566   5.317  0.8707  0.5145  0.4579
 9269TIP3   OH249297   0.515   1.379  15.528 -0.0227 -0.9280  0.1722
 9269TIP3    H149298   0.460   1.453  15.501 -1.1475 -1.5917  0.6074
 9269TIP3    H249299   0.603   1.416  15.532 -0.4226  0.1632 -0.5233
 9270TIP3   OH249300   2.841   0.080   2.031 -0.1647  0.6925 -0.2632
 9270TIP3    H149301   2.752   0.064   2.002 -0.4974 -0.3584  1.2167
 9270TIP3    H249302   2.894   0.014   1.987 -0.3582  0.3480  0.0202
 9271TIP3   OH249303   2.601   1.066   1.091  0.3468  0.4662 -0.0449
 9271TIP3    H149304   2.542   0.991   1.103  0.9891  0.0730  0.7683
 9271TIP3    H249305   2.626   1.062   0.998 -0.0678  0.0109 -0.1426
 9272TIP3   OH249306   4.679   4.092   3.401  0.2203 -0.5082 -0.0074
 9272TIP3    H149307   4.657   4.050   3.318 -1.6150 -1.4242  0.8805
 9272TIP3    H249308   4.724   4.173   3.375 -1.0059 -0.3604 -1.9264
 9273TIP3   OH249309   0.399   3.221   0.378  0.3655 -0.0414 -0.4349
 9273TIP3    H149310   0.427   3.312   0.385  0.6913 -0.1939  0.3225
 9273TIP3    H249311   0.404   3.201   0.284 -0.3537  0.9205 -0.6924
 9274TIP3   OH249312   0.365   5.177   1.388  0.2883  0.1547  0.2877
 9274TIP3    H149313   0.332   5.256   1.430 -0.7739 -0.6982  1.1157
 9274TIP3    H249314   0.318   5.173   1.304 -1.0392 -0.5367  1.0380
 9275TIP3   OH249315   5.854   6.395   4.358  0.3145  0.0641  0.7395
 9275TIP3    H149316   5.931   6.351   4.394  1.4408  2.3667  1.3791
 9275TIP3    H249317   5.806   6.425   4.436 -0.6265 -0.3412  0.3265
 9276TIP3   OH249318   2.109   4.917   3.133 -0.7822 -0.1947 -0.6411
 9276TIP3    H149319   2.116   4.908   3.038  0.7855  0.0726 -0.5791
 9276TIP3    H249320   2.039   4.981   3.146 -0.2846  0.5866 -1.6514
 9277TIP3   OH249321   0.242   6.816  17.037 -0.0013  0.1134 -0.3119
 9277TIP3    H149322   0.218   6.762  17.113 -1.1057 -0.2020 -0.8749
 9277TIP3    H249323   0.169   6.876  17.025 -0.1249 -0.2489 -1.5009
 9278TIP3   OH249324   1.336   4.333   1.606 -0.2248 -0.0428  0.8814
 9278TIP3    H149325   1.351   4.427   1.616 -1.1398  0.3041 -0.7037
 9278TIP3    H249326   1.408   4.292   1.653  0.0940  1.4436  1.7482
 9279TIP3   OH249327   4.103   3.641  13.469  0.1567 -0.3144 -0.3704
 9279TIP3    H149328   4.155   3.721  13.475 -0.2684 -0.0625 -0.0136
 9279TIP3    H249329   4.053   3.651  13.388 -2.3503  1.2902  1.2457
 9280TIP3   OH249330   5.131   1.874   6.014  0.1823  0.6961  0.7824
 9280TIP3    H149331   5.051   1.835   6.049 -1.2859  1.5317 -1.4880
 9280TIP3    H249332   5.120   1.968   6.027  0.6154  0.8474  0.0969
 9281TIP3   OH249333   0.522   4.590  14.949 -0.4505  0.6662  0.3560
 9281TIP3    H149334   0.460   4.627  15.012 -0.8427 -0.1123  0.4307
 9281TIP3    H249335   0.480   4.511  14.916 -0.7539  1.6078 -1.7124
 9282TIP3   OH249336   1.167   6.608   0.361 -0.1037  0.7004 -0.3188
 9282TIP3    H149337   1.089   6.553   0.369  0.8023 -0.6840 -0.7234
 9282TIP3    H249338   1.144   6.688   0.408 -1.9292  0.5136 -0.8121
 9283TIP3   OH249339   4.938   3.832  15.997  0.4725 -0.2232  0.0176
 9283TIP3    H149340   4.971   3.910  15.951 -1.0575  0.3688 -0.1225
 9283TIP3    H249341   4.860   3.863  16.043 -0.0159 -1.6299  0.1632
 9284TIP3   OH249342   1.238   3.695  16.017 -0.3152 -0.1535  0.1171
 9284TIP3    H149343   1.186   3.767  16.053 -0.8600 -1.0321  1.1658
 9284TIP3    H249344   1.256   3.639  16.093  1.9744 -0.0101 -0.2620
 9285TIP3   OH249345   3.869   6.659  12.485 -0.4056  0.1520  0.1446
 9285TIP3    H149346   3.789   6.613  12.461 -1.0790  1.3791 -0.0274
 9285TIP3    H249347   3.940   6.604  12.450 -1.1516 -0.9843  0.3753
 9286TIP3   OH249348   5.669   2.323  11.087  0.2922 -0.1940 -0.1135
 9286TIP3    H149349   5.654   2.412  11.056  2.4766  0.8082  1.4476
 9286TIP3    H249350   5.752   2.328  11.136  0.1754 -2.9525  0.5320
 9287TIP3   OH249351   6.022   2.935   4.007 -0.5041  0.1339 -0.1271
 9287TIP3    H149352   6.056   2.846   4.021 -1.6169 -0.5628 -1.5513
 9287TIP3    H249353   6.093   2.992   4.036  0.6261 -1.2295 -0.0740
 9288TIP3   OH249354   4.797   1.724  16.218 -0.0137  0.4493 -0.6708
 9288TIP3    H149355   4.851   1.724  16.139 -0.1075 -1.4621 -0.7573
 9288TIP3    H249356   4.831   1.652  16.270 -1.8823 -0.1946 -0.2933
 9289TIP3   OH249357   2.683   6.711  15.076  0.0667 -0.3384 -0.0177
 9289TIP3    H149358   2.691   6.664  14.993 -2.2009 -0.3221 -0.3219
 9289TIP3    H249359   2.683   6.642  15.142  1.2249 -0.4014 -0.0701
 9290TIP3   OH249360   0.624   5.773   5.363  0.3139  0.7802  0.2061
 9290TIP3    H149361   0.603   5.692   5.409  0.8079  1.3360  1.4597
 9290TIP3    H249362   0.556   5.835   5.391 -1.0777  0.3878 -2.0563
 9291TIP3   OH249363   3.688   5.413  15.605 -0.8921 -0.2533 -0.2205
 9291TIP3    H149364   3.686   5.455  15.691  0.7659  0.4345 -0.4911
 9291TIP3    H249365   3.628   5.339  15.614  0.3079 -1.0519  1.9775
 9292TIP3   OH249366   3.971   6.627  16.678  0.9567  0.3214  0.0658
 9292TIP3    H149367   3.968   6.579  16.595  1.2065  0.0912  0.1890
 9292TIP3    H249368   3.890   6.603  16.723  0.7155  0.6156 -0.2027
 9293TIP3   OH249369   4.461   1.783  13.628 -0.2568  0.4797 -0.4823
 9293TIP3    H149370   4.498   1.746  13.708  0.6826 -1.2793 -1.6730
 9293TIP3    H249371   4.536   1.793  13.569 -1.2233 -0.4858 -1.9490
 9294TIP3   OH249372   5.960   1.582  15.005  0.0142  0.4288  0.4229
 9294TIP3    H149373   5.990   1.578  14.914  1.4816 -1.4224  0.9194
 9294TIP3    H249374   6.005   1.510  15.049 -3.7775 -1.4007  1.7484
 9295TIP3   OH249375   3.910   3.629  13.274  0.6162  0.3322  0.0051
 9295TIP3    H149376   3.866   3.556  13.318  0.2038  0.4619 -0.1879
 9295TIP3    H249377   3.944   3.591  13.193 -0.3429  0.5435 -0.5093
 9296TIP3   OH249378   3.500   0.480   3.962 -0.0614  0.0059  0.2822
 9296TIP3    H149379   3.525   0.570   3.986 -0.5403  0.7399 -1.7443
 9296TIP3    H249380   3.513   0.477   3.867  0.4566 -2.2646  0.3895
 9297TIP3   OH249381   3.816   3.954  15.442 -0.4128  0.3117 -0.4150
 9297TIP3    H149382   3.820   3.901  15.521  1.8605 -0.8503 -1.2362
 9297TIP3    H249383   3.828   4.044  15.472 -2.7587  0.2908  0.8247
 9298TIP3   OH249384   0.041   3.849   1.432 -0.1427  0.2676 -0.7258
 9298TIP3    H149385   0.046   3.803   1.348  0.4268  0.2684 -0.6945
 9298TIP3    H249386   0.053   3.781   1.498 -1.3802  0.1346 -0.6035
 9299TIP3   OH249387   6.154   3.756   2.329  0.1743  0.4115 -0.1854
 9299TIP3    H149388   6.113   3.706   2.400 -0.2430 -0.3261 -0.9238
 9299TIP3    H249389   6.227   3.801   2.370  0.9999 -1.3675  0.3932
 9300TIP3   OH249390   4.387   4.475  10.570 -0.0868  0.3982 -0.0631
 9300TIP3    H149391   4.309   4.419  10.565  0.0236  0.1361  0.8803
 9300TIP3    H249392   4.455   4.425  10.525 -0.2934  0.3236 -0.2947
 9301TIP3   OH249393   2.621   2.104   1.020 -0.3228  0.1222 -0.1379
 9301TIP3    H149394   2.543   2.053   0.998  0.3824 -1.0821  0.0109
 9301TIP3    H249395   2.599   2.149   1.101 -0.6851 -0.6686  0.2173
 9302TIP3   OH249396   4.888   1.920  15.262  0.1603  0.1119 -0.4254
 9302TIP3    H149397   4.879   2.015  15.266  2.2253  0.3080  0.4132
 9302TIP3    H249398   4.939   1.904  15.183  1.8532 -0.0801  0.6607
 9303TIP3   OH249399   4.795   2.796   2.278 -0.0643 -0.6889 -0.4981
 9303TIP3    H149400   4.785   2.779   2.184  1.7587 -3.5574 -0.3228
 9303TIP3    H249401   4.887   2.777   2.295  0.0604  1.4655  1.6246
 9304TIP3   OH249402   0.308   2.941   1.201  0.1920 -0.0613  0.1233
 9304TIP3    H149403   0.378   2.988   1.247  0.9767  0.4379 -1.5031
 9304TIP3    H249404   0.248   3.009   1.172  0.5685 -0.1782 -0.9784
 9305TIP3   OH249405   4.433   2.623   4.000  0.1651 -0.2799 -0.0909
 9305TIP3    H149406   4.462   2.538   3.968  1.3582 -0.1132  0.4899
 9305TIP3    H249407   4.403   2.606   4.090  0.8734 -0.0067  0.2001
 9306TIP3   OH249408   5.266   2.083  15.181 -0.0659  0.5641  0.2526
 9306TIP3    H149409   5.222   2.167  15.190 -2.5496 -0.7073  1.0080
 9306TIP3    H249410   5.210   2.021  15.228  0.7450 -1.8090 -1.6458
 9307TIP3   OH249411   4.565   4.916   0.140 -0.2170 -0.0882 -0.4568
 9307TIP3    H149412   4.636   4.956   0.190 -0.9664  0.4243  0.2199
 9307TIP3    H249413   4.580   4.943   0.049 -1.9128  3.6878  0.2109
 9308TIP3   OH249414   3.973   5.202   4.965 -0.6853  0.6264  0.4255
 9308TIP3    H149415   3.947   5.110   4.968  0.3044  0.3639  2.3064
 9308TIP3    H249416   3.940   5.239   5.046  0.9118  1.3322  0.7985
 9309TIP3   OH249417   5.869   3.870   2.276  0.2846 -0.3756  0.2524
 9309TIP3    H149418   5.961   3.885   2.300 -0.1234 -0.6006  2.0810
 9309TIP3    H249419   5.859   3.775   2.283  0.3021 -0.5357 -1.5413
 9310TIP3   OH249420   6.845   1.585   6.261 -0.3710 -0.6233  0.3791
 9310TIP3    H149421   6.787   1.517   6.228 -1.7577  1.0013 -0.6643
 9310TIP3    H249422   6.787   1.652   6.298  0.9349  0.0297  1.3743
 9311TIP3   OH249423   2.562   5.053   0.966  1.0756 -0.4034 -0.0587
 9311TIP3    H149424   2.656   5.038   0.974  1.2511  0.0040 -1.1343
 9311TIP3    H249425   2.521   4.975   1.004  1.8220 -0.3086  0.9925
 9312TIP3   OH249426   5.444   2.451   4.458  0.4955 -0.2629  0.2876
 9312TIP3    H149427   5.540   2.452   4.464  0.5174 -1.6367  0.4280
 9312TIP3    H249428   5.415   2.467   4.548  0.5880  0.3867  0.2039
 9313TIP3   OH249429   3.863   1.247   3.606  0.0720 -0.5080  0.5631
 9313TIP3    H149430   3.833   1.335   3.582  0.5955 -0.1973  1.0235
 9313TIP3    H249431   3.919   1.221   3.533  0.1487 -0.3363  0.5588
 9314TIP3   OH249432   6.186   4.064   6.226  0.3747 -0.0530 -0.3755
 9314TIP3    H149433   6.107   4.010   6.233  0.1679  0.2582 -0.2593
 9314TIP3    H249434   6.158   4.151   6.257  0.9458 -0.1139  0.3504
 9315TIP3   OH249435   2.934   0.231   6.616  0.2199  0.0089  0.1220
 9315TIP3    H149436   2.951   0.312   6.567 -0.6254 -0.2999 -0.7039
 9315TIP3    H249437   2.848   0.202   6.585 -0.0929 -0.4926  1.3979
 9316TIP3   OH249438   3.390   4.881   6.158  0.6000  0.1498 -0.5610
 9316TIP3    H149439   3.433   4.798   6.138  0.3905 -0.4697  1.2889
 9316TIP3    H249440   3.461   4.939   6.184  0.5509 -0.1880  0.3649
 9317TIP3   OH249441   0.265   2.720   3.944 -0.6143 -0.1193  0.3280
 9317TIP3    H149442   0.309   2.696   3.862  2.0263 -0.7061  1.7727
 9317TIP3    H249443   0.179   2.751   3.918  0.3612  0.3363 -2.7111
 9318TIP3   OH249444   0.185   1.901  11.121  0.4531 -0.7987  0.6406
 9318TIP3    H149445   0.139   1.972  11.075 -0.3466 -3.0251 -2.3286
 9318TIP3    H249446   0.265   1.887  11.070  0.9274 -1.6283  1.5727
 9319TIP3   OH249447   0.964   4.307   0.197  0.2528  0.2014 -0.4266
 9319TIP3    H149448   1.041   4.264   0.160  0.4224 -1.8100  1.9786
 9319TIP3    H249449   0.997   4.357   0.271 -0.6523 -0.0167  0.1368
 9320TIP3   OH249450   5.390   1.653  14.358 -0.4337 -0.0673  0.2876
 9320TIP3    H149451   5.358   1.736  14.323  0.5589  0.0734 -0.3214
 9320TIP3    H249452   5.335   1.587  14.318  1.1035  0.0245 -2.2064
 9321TIP3   OH249453   0.100   1.945  14.466  0.4062 -0.3044  0.2560
 9321TIP3    H149454   0.112   2.006  14.538  0.5898  0.0905 -0.1050
 9321TIP3    H249455   0.074   1.999  14.392  1.9927 -0.4524 -0.4652
 9322TIP3   OH249456   3.249   6.560  16.476 -0.3018 -0.3197 -0.5825
 9322TIP3    H149457   3.342   6.584  16.466 -0.3739 -0.5677 -1.9609
 9322TIP3    H249458   3.237   6.554  16.571  1.6617 -2.5013 -0.3847
 9323TIP3   OH249459   4.631   6.440  12.261  0.1214  0.2501  0.0279
 9323TIP3    H149460   4.717   6.400  12.268 -1.0886 -2.6962 -0.5211
 9323TIP3    H249461   4.649   6.534  12.255  3.1805 -0.1337  1.2338
 9324TIP3   OH249462   4.906   2.633   5.237 -0.3096  0.6518 -0.1286
 9324TIP3    H149463   4.854   2.680   5.171 -0.4542 -1.2869 -1.4799
 9324TIP3    H249464   4.983   2.602   5.188  1.3409  2.0246  1.4453
 9325TIP3   OH249465   0.271   1.660  14.758  0.0548 -0.2597  0.1662
 9325TIP3    H149466   0.213   1.707  14.818 -1.1573  0.0089 -1.1587
 9325TIP3    H249467   0.255   1.568  14.777 -0.6884 -0.1839 -0.0647
 9326TIP3   OH249468   3.160   2.948  16.210  0.2497  0.6293 -0.1395
 9326TIP3    H149469   3.160   3.031  16.163  2.3002  1.3749  1.0754
 9326TIP3    H249470   3.226   2.958  16.278 -1.6581 -0.8823  2.1099
 9327TIP3   OH249471   1.338   3.548  10.969  0.2456  0.7644 -0.1761
 9327TIP3    H149472   1.323   3.642  10.955 -1.1196  0.9358  1.9652
 9327TIP3    H249473   1.427   3.533  10.935  0.2001  2.6247 -1.3067
 9328TIP3   OH249474   1.211   1.894   3.309 -0.3300  0.2300 -0.2525
 9328TIP3    H149475   1.271   1.870   3.379 -0.9345 -0.9810 -0.1213
 9328TIP3    H249476   1.179   1.981   3.333 -0.6920 -0.2492  1.0991
 9329TIP3   OH249477   3.322   0.951   0.515 -0.1962  0.0529 -0.0553
 9329TIP3    H149478   3.411   0.962   0.481 -0.0544  0.4078  0.4315
 9329TIP3    H249479   3.283   0.883   0.458 -0.4205  1.5732 -1.8202
 9330TIP3   OH249480   4.435   6.140   4.551 -0.4163 -0.1166  0.2320
 9330TIP3    H149481   4.378   6.083   4.500  0.7013 -0.2185 -0.9661
 9330TIP3    H249482   4.523   6.103   4.538  0.1939  1.2747  0.2565
 9331TIP3   OH249483   2.917   4.251   2.084  0.2136  0.3083 -0.3943
 9331TIP3    H149484   2.873   4.284   2.163  0.6498 -0.4188  0.1606
 9331TIP3    H249485   2.846   4.240   2.021 -0.3888 -0.6708  0.4329
 9332TIP3   OH249486   1.216   3.388   5.661 -0.7136 -0.3920  0.0810
 9332TIP3    H149487   1.129   3.421   5.684 -0.9184 -1.0941  0.3670
 9332TIP3    H249488   1.231   3.316   5.723 -0.3348 -0.8926 -0.5748
 9333TIP3   OH249489   0.860   6.332   5.977  0.2265 -0.7506  0.4587
 9333TIP3    H149490   0.951   6.359   5.964  0.0963  0.5938  2.0991
 9333TIP3    H249491   0.841   6.353   6.069 -1.9764 -0.3342 -0.0455
 9334TIP3   OH249492   5.975   1.074  16.604  0.4397 -0.9952 -0.0057
 9334TIP3    H149493   5.923   1.026  16.668  0.9191 -0.0339  1.1497
 9334TIP3    H249494   5.935   1.053  16.520 -1.5204 -0.6739  0.7935
 9335TIP3   OH249495   6.164   4.108   4.617 -0.0133  0.2139  0.1815
 9335TIP3    H149496   6.252   4.087   4.649  1.2559  1.3977 -2.2528
 9335TIP3    H249497   6.107   4.093   4.692  1.8748 -3.0722  1.1540
 9336TIP3   OH249498   6.725   1.005  11.587 -0.1811 -0.0124  0.0370
 9336TIP3    H149499   6.722   1.088  11.635 -0.8574 -0.3462  0.5942
 9336TIP3    H249500   6.772   1.025  11.506  0.8144  0.6120  0.7451
 9337TIP3   OH249501   0.464   5.043   2.095 -0.3384 -0.0142  0.0490
 9337TIP3    H149502   0.467   5.013   2.186  2.1777 -1.5338 -0.4310
 9337TIP3    H249503   0.528   5.114   2.091  0.8041 -1.0574 -0.8399
 9338TIP3   OH249504   0.975   0.899   4.144 -0.2873 -0.1228  0.6200
 9338TIP3    H149505   0.954   0.861   4.229 -0.5276  0.8738  1.0093
 9338TIP3    H249506   1.010   0.986   4.163  2.2365 -0.8666 -0.1324
 9339TIP3   OH249507   4.367   5.183  14.491 -0.6186  0.0565  0.3872
 9339TIP3    H149508   4.410   5.138  14.419 -1.6045 -1.9713  0.9892
 9339TIP3    H249509   4.390   5.133  14.569  1.1424  2.7057  1.7059
 9340TIP3   OH249510   6.496   3.015   0.252 -0.4653 -0.4459  0.1126
 9340TIP3    H149511   6.534   3.028   0.165 -1.1292  0.4179 -0.0566
 9340TIP3    H249512   6.545   3.074   0.309  0.1554 -1.2095  0.4031
 9341TIP3   OH249513   3.530   5.326   5.630  0.4830  0.0505  0.2784
 9341TIP3    H149514   3.622   5.343   5.648  0.1361  0.7428  1.5389
 9341TIP3    H249515   3.483   5.364   5.705 -0.7218 -1.8009  0.5196
 9342TIP3   OH249516   6.614   6.026  16.253 -0.2273  0.3686  0.1867
 9342TIP3    H149517   6.583   6.109  16.288 -1.3356 -0.3946  1.1006
 9342TIP3    H249518   6.689   6.049  16.198  0.7884  1.7461  2.0627
 9343TIP3   OH249519   2.923   4.942   5.691  0.6328 -0.0632 -0.3736
 9343TIP3    H149520   2.886   5.016   5.643 -0.3185 -1.8002 -2.5371
 9343TIP3    H249521   2.948   4.978   5.776 -2.1710  2.1951 -0.3316
 9344TIP3   OH249522   4.588   0.203   3.519 -0.2897  0.5043 -0.0172
 9344TIP3    H149523   4.554   0.123   3.478  1.3220  0.1610 -0.7550
 9344TIP3    H249524   4.560   0.274   3.461 -2.3737  0.6329  1.0244
 9345TIP3   OH249525   4.247   1.488   2.983  0.1440 -0.2626  0.6673
 9345TIP3    H149526   4.217   1.472   2.894 -0.3600 -1.2648  0.9953
 9345TIP3    H249527   4.332   1.530   2.973 -0.8713  1.7508 -0.2979
 9346TIP3   OH249528   2.118   0.088   1.155  0.7577 -0.2310  0.0583
 9346TIP3    H149529   2.112   0.182   1.141  0.3842 -0.3899 -0.9722
 9346TIP3    H249530   2.076   0.050   1.078 -0.2110 -1.2261  1.0392
 9347TIP3   OH249531   0.549   0.709   6.049  0.7729 -0.2433  0.0741
 9347TIP3    H149532   0.488   0.711   6.123  1.0409 -0.4200  0.3015
 9347TIP3    H249533   0.605   0.786   6.062 -0.2704  0.7153 -0.8875
 9348TIP3   OH249534   0.575   6.656   3.955 -0.3095  0.3352  0.2295
 9348TIP3    H149535   0.537   6.704   3.882  0.7813 -0.4255 -0.8738
 9348TIP3    H249536   0.657   6.621   3.921  0.2923  0.0633  1.8610
 9349TIP3   OH249537   6.800   2.587   5.521  0.4972 -0.0817  0.5245
 9349TIP3    H149538   6.824   2.545   5.439 -0.4379  1.4434 -0.5796
 9349TIP3    H249539   6.858   2.548   5.586  1.0427 -1.5561 -0.7874
 9350TIP3   OH249540   1.437   1.161   1.330  0.4505  0.0262  0.4704
 9350TIP3    H149541   1.505   1.167   1.398  1.7146 -0.7783 -0.6603
 9350TIP3    H249542   1.388   1.082   1.352  2.3788 -1.6465 -0.7788
 9351TIP3   OH249543   0.414   0.051   4.504  0.2351 -0.2822  0.5687
 9351TIP3    H149544   0.431   0.085   4.416  1.0836 -1.4118  0.2649
 9351TIP3    H249545   0.364  -0.029   4.489  1.2786 -1.0487  1.0210
 9352TIP3   OH249546   2.883   3.557  15.148 -0.5466 -0.0950  0.2169
 9352TIP3    H149547   2.829   3.635  15.163 -1.8075 -0.9140  0.1130
 9352TIP3    H249548   2.972   3.586  15.166 -1.0001  1.3309  0.3287
 9353TIP3   OH249549   2.333   5.573  14.496  0.1487 -0.1980 -0.2546
 9353TIP3    H149550   2.413   5.565  14.445  0.7355  1.8272  0.2582
 9353TIP3    H249551   2.262   5.568  14.432  0.8340  1.3797 -1.1887
 9354TIP3   OH249552   5.331   5.643  13.082 -0.5512  0.4953 -0.4272
 9354TIP3    H149553   5.316   5.567  13.026 -1.0831 -0.7128  1.2881
 9354TIP3    H249554   5.426   5.649  13.091 -0.5403 -0.7312  0.4043
 9355TIP3   OH249555   0.166   1.915   0.208  0.4873 -0.2733  0.0676
 9355TIP3    H149556   0.203   1.993   0.249 -0.1450  0.3551 -0.5170
 9355TIP3    H249557   0.241   1.868   0.173  0.8636  0.1325  0.3197
 9356TIP3   OH249558   3.956   4.614   5.174  0.5072 -0.0614  0.3679
 9356TIP3    H149559   4.050   4.601   5.173  0.3340 -1.5863  0.0317
 9356TIP3    H249560   3.927   4.578   5.258  0.1507 -0.3493  0.1278
 9357TIP3   OH249561   5.356   1.877   3.037 -0.3786  0.1506 -0.4462
 9357TIP3    H149562   5.331   1.858   2.946  0.6019 -0.8871 -0.5229
 9357TIP3    H249563   5.305   1.955   3.060  0.1064  1.0467 -2.2187
 9358TIP3   OH249564   0.776   4.464  14.479  0.5804 -0.5652  0.3603
 9358TIP3    H149565   0.709   4.396  14.480 -0.4556  0.3437 -1.2990
 9358TIP3    H249566   0.808   4.465  14.389 -0.7502  2.2654 -0.2214
 9359TIP3   OH249567   0.923   4.015  14.336 -0.7194 -0.1812  0.0674
 9359TIP3    H149568   0.919   4.105  14.370 -1.0382 -0.1486 -0.0497
 9359TIP3    H249569   0.874   4.019  14.254 -3.2650 -1.0706  1.4374
 9360TIP3   OH249570   1.631   1.782  13.626 -0.5745  0.4818 -0.2601
 9360TIP3    H149571   1.630   1.780  13.530 -0.8019 -0.1217 -0.2474
 9360TIP3    H249572   1.543   1.811  13.651 -0.5501  0.5310 -0.2298
 9361TIP3   OH249573   3.665   2.960  15.266 -0.0819 -0.4971 -0.4251
 9361TIP3    H149574   3.663   3.027  15.197 -0.1288  0.1634  0.2102
 9361TIP3    H249575   3.605   2.892  15.234 -2.0865  0.9379  0.0792
 9362TIP3   OH249576   4.557   3.428  12.223 -0.1375  0.1983 -0.3820
 9362TIP3    H149577   4.476   3.478  12.211 -0.0556 -0.1108 -2.8908
 9362TIP3    H249578   4.626   3.494  12.218 -0.1638  0.3322  0.7350
 9363TIP3   OH249579   5.526   1.938   0.906 -0.3961  0.2739 -0.0044
 9363TIP3    H149580   5.614   1.973   0.889 -0.5656  1.2488  1.0043
 9363TIP3    H249581   5.469   1.987   0.847 -0.1905 -0.8517 -1.1634
 9364TIP3   OH249582   1.360   0.358   1.136  0.3445 -0.0215  0.0641
 9364TIP3    H149583   1.366   0.309   1.054  1.2717  0.8825 -0.4306
 9364TIP3    H249584   1.449   0.389   1.152 -0.0579  0.7936  0.7983
 9365TIP3   OH249585   5.231   0.450  13.856 -0.2525  0.4103  0.6528
 9365TIP3    H149586   5.217   0.355  13.855 -0.6932  0.4433 -1.4892
 9365TIP3    H249587   5.155   0.486  13.810 -0.0004  1.8063  1.2603
 9366TIP3   OH249588   2.679   2.093   2.377 -0.4887 -0.1147  0.3420
 9366TIP3    H149589   2.601   2.092   2.433 -1.6987  0.0407 -1.2854
 9366TIP3    H249590   2.693   2.186   2.358 -0.6990 -0.2410 -0.4338
 9367TIP3   OH249591   5.063   6.626  13.559  0.0474 -0.0152  0.2995
 9367TIP3    H149592   5.115   6.707  13.560  0.6499 -0.3999  0.8959
 9367TIP3    H249593   5.008   6.635  13.481 -1.9718  2.2279  1.8271
 9368TIP3   OH249594   3.958   1.666  16.060  0.0490 -0.6069  0.3023
 9368TIP3    H149595   3.929   1.575  16.058 -0.1864 -0.5277 -1.5002
 9368TIP3    H249596   3.986   1.685  15.971  1.5941  0.6371  0.9930
 9369TIP3   OH249597   3.904   4.172  13.019 -0.7397 -0.5094  0.7583
 9369TIP3    H149598   3.984   4.211  12.983 -1.3017 -1.2895 -1.5454
 9369TIP3    H249599   3.859   4.245  13.061  0.6705  0.1587  1.1721
 9370TIP3   OH249600   1.887   0.144  13.603 -0.1191  0.6156  0.1407
 9370TIP3    H149601   1.818   0.209  13.588  0.1768  0.8262 -0.3128
 9370TIP3    H249602   1.886   0.129  13.698 -2.3655 -1.1280 -0.0777
 9371TIP3   OH249603   6.523   0.628  14.000 -0.3568  0.4563  0.4940
 9371TIP3    H149604   6.436   0.663  13.984  0.6644  2.6480 -0.6791
 9371TIP3    H249605   6.529   0.552  13.942 -1.2500  0.7041  0.0550
 9372TIP3   OH249606   6.501   1.888   2.134  0.6025  0.3893  0.0416
 9372TIP3    H149607   6.513   1.839   2.053 -3.0063 -1.1623  0.2389
 9372TIP3    H249608   6.488   1.820   2.201 -0.3415  1.5994  1.1456
 9373TIP3   OH249609   3.712   2.722   2.019  0.0288 -0.0025 -0.0473
 9373TIP3    H149610   3.633   2.732   1.966  0.5610  0.0017 -0.8797
 9373TIP3    H249611   3.720   2.805   2.066  0.1403  0.4397 -0.8290
 9374TIP3   OH249612   0.689   3.971   0.848 -0.3037 -0.7698  0.5829
 9374TIP3    H149613   0.654   3.970   0.759  0.1142 -0.4024  0.4057
 9374TIP3    H249614   0.783   3.959   0.836  0.1137  1.7273  0.7574
 9375TIP3   OH249615   2.768   2.712   4.156 -0.4280 -0.8602 -0.0897
 9375TIP3    H149616   2.773   2.739   4.248 -0.0122 -0.4784 -0.2176
 9375TIP3    H249617   2.838   2.647   4.146 -0.1098 -0.5011 -0.2590
 9376TIP3   OH249618   4.241   3.490   5.712  0.3222 -0.4323 -0.5404
 9376TIP3    H149619   4.219   3.401   5.687  1.1682 -1.0404  0.7275
 9376TIP3    H249620   4.330   3.484   5.746 -0.0919  0.6095  0.8703
 9377TIP3   OH249621   0.905   0.149  12.319  0.2501 -0.1960  0.4632
 9377TIP3    H149622   0.828   0.177  12.369  0.3824  0.5347  0.2716
 9377TIP3    H249623   0.936   0.229  12.277 -1.1285 -1.1415 -2.6180
 9378TIP3   OH249624   0.792   2.331   1.835  0.2804  0.6151 -0.2677
 9378TIP3    H149625   0.764   2.308   1.746 -1.1326  1.2041 -0.0073
 9378TIP3    H249626   0.876   2.375   1.823  0.0331  0.8334 -1.3332
 9379TIP3   OH249627   2.107   4.133  11.228  0.1200  0.2629 -0.1380
 9379TIP3    H149628   2.124   4.066  11.163  0.4552 -0.8412  1.0493
 9379TIP3    H249629   2.179   4.195  11.218  0.7710 -0.4776 -0.0823
 9380TIP3   OH249630   3.986   2.731  13.006  0.3595 -0.3719  0.1886
 9380TIP3    H149631   3.950   2.768  12.925  0.1219  0.2351  0.5594
 9380TIP3    H249632   3.968   2.798  13.073  0.5309 -0.8743  0.7482
 9381TIP3   OH249633   5.133   1.551   1.003 -0.1886  0.2126 -0.0534
 9381TIP3    H149634   5.088   1.556   1.087 -0.9711  1.8371 -0.5302
 9381TIP3    H249635   5.092   1.478   0.957  0.4054 -0.8321  1.0530
 9382TIP3   OH249636   3.113   5.572   1.616  0.0392  0.3041 -0.4385
 9382TIP3    H149637   3.195   5.581   1.663 -1.3009  0.8831  1.9764
 9382TIP3    H249638   3.079   5.487   1.642 -0.5212  0.4405 -0.6968
 9383TIP3   OH249639   5.855   0.812   3.883 -1.3664  0.1525 -0.6481
 9383TIP3    H149640   5.764   0.806   3.852 -1.6689 -0.2692  0.2868
 9383TIP3    H249641   5.847   0.843   3.973 -0.4832  1.8118 -1.1035
 9384TIP3   OH249642   6.782   2.204  16.822 -0.1027 -0.0594 -0.0367
 9384TIP3    H149643   6.783   2.234  16.913 -1.1171 -0.3914  0.0884
 9384TIP3    H249644   6.846   2.132  16.820  1.0663  0.9314  0.0486
 9385TIP3   OH249645   4.126   3.320   6.031 -0.0254 -0.5151  0.4647
 9385TIP3    H149646   4.195   3.344   6.093 -0.3407 -0.9371  0.9827
 9385TIP3    H249647   4.061   3.274   6.083 -0.5867 -0.3469 -0.0717
 9386TIP3   OH249648   3.665   3.715   1.233 -0.5539 -0.5395 -0.3802
 9386TIP3    H149649   3.749   3.732   1.275 -1.4605 -0.7544  1.6540
 9386TIP3    H249650   3.602   3.717   1.305 -2.4937  0.9960 -1.9942
 9387TIP3   OH249651   4.374   5.434  12.152  0.5317  0.2246  0.1521
 9387TIP3    H149652   4.410   5.449  12.240  1.8001  0.7035 -0.4216
 9387TIP3    H249653   4.279   5.435  12.164  0.6833 -0.3457  1.6212
 9388TIP3   OH249654   0.884   2.035   1.976  0.0357  0.2065 -0.2547
 9388TIP3    H149655   0.951   2.021   1.909 -0.6721 -0.2486 -0.8786
 9388TIP3    H249656   0.897   1.962   2.038 -0.6920 -0.6227 -1.0560
 9389TIP3   OH249657   3.389   1.866   1.305  0.0598 -0.0568 -0.1556
 9389TIP3    H149658   3.338   1.880   1.385  0.9536 -0.3048  0.4642
 9389TIP3    H249659   3.468   1.820   1.333 -0.2650 -1.4485 -1.3907
 9390TIP3   OH249660   4.300   5.931  16.772  0.6612 -0.0348 -0.6590
 9390TIP3    H149661   4.236   5.991  16.811 -0.7277 -1.4272 -0.7123
 9390TIP3    H249662   4.358   5.908  16.845  1.4283  1.5872 -0.7139
 9391TIP3   OH249663   5.291   4.676  11.403 -0.1351 -0.1771  0.2655
 9391TIP3    H149664   5.237   4.610  11.445 -1.2241  0.6923  0.2492
 9391TIP3    H249665   5.276   4.662  11.309 -0.7045  0.3728  0.2742
 9392TIP3   OH249666   5.809   6.164   0.508 -0.5483 -0.5503 -0.3102
 9392TIP3    H149667   5.774   6.114   0.580 -0.3923  0.1420  0.2604
 9392TIP3    H249668   5.733   6.187   0.454 -1.7136  3.7465  2.6084
 9393TIP3   OH249669   4.421   1.463   2.527  0.1914  0.5613  0.0033
 9393TIP3    H149670   4.476   1.388   2.507 -0.1331  0.7208 -1.6071
 9393TIP3    H249671   4.417   1.513   2.446 -0.7353  1.5832  0.6415
 9394TIP3   OH249672   6.005   3.879   5.124 -0.2425 -0.1002 -0.5558
 9394TIP3    H149673   6.057   3.957   5.102 -0.7075  0.3131 -0.2245
 9394TIP3    H249674   6.058   3.805   5.093  0.7058  0.2826  0.0811
 9395TIP3   OH249675   4.598   6.813  14.296  0.3542  0.4511 -0.6225
 9395TIP3    H149676   4.555   6.898  14.292  0.9490  0.8508  0.6554
 9395TIP3    H249677   4.691   6.833  14.287  0.5563  0.0334  0.3328
 9396TIP3   OH249678   2.728   5.824  15.242  0.1507 -0.2420  0.4619
 9396TIP3    H149679   2.797   5.816  15.176  0.0816 -0.3738  0.4039
 9396TIP3    H249680   2.649   5.793  15.198  0.3490 -1.5884  1.0048
 9397TIP3   OH249681   6.428   4.771  13.357 -0.3475  0.5462 -0.1095
 9397TIP3    H149682   6.460   4.783  13.447  0.3134 -0.7152 -0.1433
 9397TIP3    H249683   6.507   4.775  13.303 -0.6636  0.6885 -0.5649
 9398TIP3   OH249684   5.483   1.095   0.068 -0.3026  1.0795  0.6937
 9398TIP3    H149685   5.415   1.124   0.008  0.5426  0.6739 -0.4935
 9398TIP3    H249686   5.438   1.086   0.152 -2.0339 -0.3768 -0.3103
 9399TIP3   OH249687   1.026   1.587  12.655 -0.0524 -0.3496 -0.0791
 9399TIP3    H149688   0.978   1.536  12.589  0.7722 -1.0941 -0.1154
 9399TIP3    H249689   0.977   1.572  12.736  0.2285 -1.2861 -0.0699
 9400TIP3   OH249690   3.795   6.282   2.318 -0.1591 -0.0925 -0.2745
 9400TIP3    H149691   3.700   6.287   2.328 -0.2578 -0.9563 -0.7154
 9400TIP3    H249692   3.814   6.338   2.242 -0.2250  0.6265  0.2246
 9401TIP3   OH249693   2.791   6.244  14.544  0.1830 -0.7966 -0.0782
 9401TIP3    H149694   2.882   6.233  14.517  0.3098 -2.0985  0.7483
 9401TIP3    H249695   2.795   6.249  14.640 -0.5499 -0.0906 -0.0764
 9402TIP3   OH249696   5.283   2.231  14.689  0.9148 -0.0848  0.4796
 9402TIP3    H149697   5.292   2.274  14.774  0.6873  1.3089 -0.1636
 9402TIP3    H249698   5.352   2.270  14.635  0.1210  0.1732 -0.3861
 9403TIP3   OH249699   5.898   1.147   1.607 -0.4588 -0.4972 -0.4549
 9403TIP3    H149700   5.965   1.081   1.623 -0.2484 -0.4687 -1.1777
 9403TIP3    H249701   5.823   1.097   1.573 -0.8153 -0.5287  0.3383
 9404TIP3   OH249702   0.668   3.139  11.518 -0.5366  0.1827  0.0754
 9404TIP3    H149703   0.682   3.223  11.563 -0.0774  0.3772 -0.4117
 9404TIP3    H249704   0.710   3.074  11.575  0.5563  0.4998 -0.3407
 9405TIP3   OH249705   5.375   3.963  13.348  0.2228 -0.8422 -0.1077
 9405TIP3    H149706   5.322   4.023  13.297 -0.1147 -0.6314  0.4800
 9405TIP3    H249707   5.347   3.977  13.439  1.4256 -0.5729  0.2384
 9406TIP3   OH249708   6.804   0.234  13.263 -0.2820 -0.3218  0.0249
 9406TIP3    H149709   6.851   0.300  13.314  0.9428 -1.3513  0.3032
 9406TIP3    H249710   6.833   0.249  13.172  0.5957 -0.9287  0.1905
 9407TIP3   OH249711   1.220   5.297  16.963 -0.1742  0.1319 -0.1268
 9407TIP3    H149712   1.165   5.315  17.038  0.8715  0.5221  0.5717
 9407TIP3    H249713   1.278   5.227  16.991 -0.5925 -0.5881 -1.0012
 9408TIP3   OH249714   0.284   6.704  13.493  0.2043 -0.3962 -0.0921
 9408TIP3    H149715   0.238   6.626  13.463  1.1557 -0.6344 -0.9946
 9408TIP3    H249716   0.270   6.768  13.423  2.0085 -0.7849 -0.8565
 9409TIP3   OH249717   3.076   6.759  14.590  0.0051  0.4294 -0.1013
 9409TIP3    H149718   3.064   6.668  14.619 -0.7708  0.2942 -0.7824
 9409TIP3    H249719   3.137   6.752  14.516  0.6287  0.5726  0.3916
 9410TIP3   OH249720   5.864   4.033   1.321  0.3615 -0.3125  0.0624
 9410TIP3    H149721   5.856   4.118   1.278  0.7644 -1.0215 -1.4779
 9410TIP3    H249722   5.794   4.032   1.386  0.5931  1.3401  0.3744
 9411TIP3   OH249723   3.750   3.895  14.205 -0.1788  0.3329 -0.4222
 9411TIP3    H149724   3.669   3.886  14.154 -0.2090  0.4245 -0.3917
 9411TIP3    H249725   3.810   3.831  14.168  0.0080  0.8234 -0.9827
 9412TIP3   OH249726   5.021   0.655   0.702 -0.2527  0.0428 -0.3867
 9412TIP3    H149727   5.104   0.685   0.667 -0.3757  1.2623  0.3081
 9412TIP3    H249728   4.963   0.731   0.694 -0.9504 -0.4124  0.2436
 9413TIP3   OH249729   2.494   4.799   3.132  0.0149 -0.6847  0.1277
 9413TIP3    H149730   2.525   4.747   3.057  0.5755 -0.1461 -0.0251
 9413TIP3    H249731   2.480   4.734   3.201  4.6093 -0.7962  1.3091
 9414TIP3   OH249732   6.700   6.011  12.963 -0.5240 -0.0578  0.5637
 9414TIP3    H149733   6.781   6.059  12.977 -1.0019  1.6894 -1.9630
 9414TIP3    H249734   6.634   6.078  12.949 -1.7584 -1.4224 -0.5761
 9415TIP3   OH249735   0.098   0.338   1.021  0.0419  0.8472 -0.2454
 9415TIP3    H149736   0.104   0.331   0.926  1.4966  0.9072 -0.1738
 9415TIP3    H249737   0.157   0.270   1.054  1.7008  2.5959  0.5802
 9416TIP3   OH249738   1.347   5.882   1.352 -0.6264  0.0798 -0.4046
 9416TIP3    H149739   1.270   5.854   1.402  0.7212 -0.8156  1.3155
 9416TIP3    H249740   1.421   5.846   1.401  0.8451 -0.8298 -3.0665
 9417TIP3   OH249741   6.519   1.139  10.748 -0.4702 -0.3574  0.0832
 9417TIP3    H149742   6.562   1.224  10.747  0.6205 -0.8046 -2.9370
 9417TIP3    H249743   6.434   1.154  10.708  0.5073 -0.8987 -2.4064
 9418TIP3   OH249744   1.855   4.665  11.811 -0.1390 -0.0214  0.4598
 9418TIP3    H149745   1.941   4.628  11.830 -0.0127 -0.0884 -0.2467
 9418TIP3    H249746   1.863   4.702  11.724 -1.0031 -0.5573  0.1393
 9419TIP3   OH249747   4.692   6.837   3.742  0.2758 -0.0030 -0.1382
 9419TIP3    H149748   4.723   6.787   3.817  2.0431 -0.1963 -0.9428
 9419TIP3    H249749   4.597   6.826   3.743  0.4001 -1.1722  1.2359
 9420TIP3   OH249750   3.005   0.109  16.527  0.0289  0.0663  0.7386
 9420TIP3    H149751   2.911   0.108  16.512 -0.0694 -1.2090  1.2438
 9420TIP3    H249752   3.037   0.034  16.476  0.6388 -0.0579  1.3021
 9421TIP3   OH249753   5.442   4.478  11.115 -0.0613  0.0406 -0.0678
 9421TIP3    H149754   5.356   4.441  11.094 -0.4745  0.4982  0.8032
 9421TIP3    H249755   5.497   4.453  11.040 -0.8843 -0.4529 -0.5242
 9422TIP3   OH249756   2.025   5.819  16.135 -0.5293  0.1304  0.6813
 9422TIP3    H149757   1.952   5.845  16.192 -0.2754 -0.3630  1.2452
 9422TIP3    H249758   2.003   5.730  16.108 -2.5580  1.5690 -3.0999
 9423TIP3   OH249759   4.604   0.696  11.117  0.2471  0.2106 -0.0328
 9423TIP3    H149760   4.603   0.604  11.091  0.2612  0.2959 -0.3410
 9423TIP3    H249761   4.525   0.733  11.078  0.8843  0.6131 -0.9709
 9424TIP3   OH249762   5.391   1.291  12.987 -0.0403  0.5254  0.0283
 9424TIP3    H149763   5.457   1.337  12.936  0.0028 -2.4878 -2.9612
 9424TIP3    H249764   5.308   1.314  12.945 -0.1024 -1.1834 -0.8865
 9425TIP3   OH249765   3.043   1.135  10.686  0.7075  0.0514 -0.3138
 9425TIP3    H149766   3.059   1.081  10.609 -1.0892 -0.3792 -0.4195
 9425TIP3    H249767   2.959   1.178  10.669  1.0145  1.1309  0.7503
 9426TIP3   OH249768   2.252   4.567  16.014  0.0826 -0.2674  0.0440
 9426TIP3    H149769   2.231   4.659  16.034 -0.6241 -0.4594  0.1911
 9426TIP3    H249770   2.249   4.523  16.098  1.6227 -0.2160  0.1632
 9427TIP3   OH249771   3.165   2.465  14.113  0.1529 -0.7822 -0.5767
 9427TIP3    H149772   3.122   2.473  14.198  0.4875 -0.1592 -0.4597
 9427TIP3    H249773   3.126   2.387  14.073  0.0012 -1.0812  0.1498
 9428TIP3   OH249774   5.371   5.555   0.139 -0.8393  0.0023  0.1872
 9428TIP3    H149775   5.425   5.629   0.165  0.5951 -0.3795 -1.4912
 9428TIP3    H249776   5.293   5.594   0.098 -1.7427  0.5516  2.2847
 9429TIP3   OH249777   0.048   4.440   0.283 -0.4767 -0.0711 -0.0648
 9429TIP3    H149778   0.007   4.357   0.306 -0.7580  0.7727  2.8010
 9429TIP3    H249779  -0.006   4.506   0.326  1.9309  1.2997  1.0509
 9430TIP3   OH249780   5.524   4.119   2.472  0.2740  0.1473 -0.2713
 9430TIP3    H149781   5.492   4.191   2.525  0.5023 -1.4612  2.2420
 9430TIP3    H249782   5.447   4.064   2.457  0.3437  0.2605 -1.0704
 9431TIP3   OH249783   0.544   6.097   3.035  0.3298 -0.0566  0.2185
 9431TIP3    H149784   0.500   6.032   3.089  2.7783 -0.9844  1.2496
 9431TIP3    H249785   0.637   6.083   3.052  1.0212  2.4462 -1.0420
 9432TIP3   OH249786   5.597   2.004  12.188 -0.4410 -0.2798 -0.6398
 9432TIP3    H149787   5.608   2.050  12.272 -1.5704 -1.4674  0.2101
 9432TIP3    H249788   5.580   2.074  12.125  1.3581  0.7227 -0.0893
 9433TIP3   OH249789   3.404   5.571  12.347 -0.2539 -0.3105 -0.4384
 9433TIP3    H149790   3.332   5.592  12.406 -1.1653 -1.1982 -1.2005
 9433TIP3    H249791   3.411   5.649  12.291 -1.1117 -0.4886 -0.8159
 9434TIP3   OH249792   5.658   2.813  14.135 -0.2052  0.1646 -0.0068
 9434TIP3    H149793   5.601   2.802  14.211 -1.5379  1.4181 -0.7602
 9434TIP3    H249794   5.598   2.820  14.061  1.0839 -1.6433 -1.2961
 9435TIP3   OH249795   5.501   1.172  15.430 -0.5263  0.4198  0.0452
 9435TIP3    H149796   5.497   1.239  15.498 -1.4076  1.3904 -0.9248
 9435TIP3    H249797   5.498   1.221  15.347  0.9071 -0.7053 -0.7189
 9436TIP3   OH249798   3.696   5.649   6.198 -0.4316  0.1136 -0.2238
 9436TIP3    H149799   3.652   5.734   6.210  0.3387  0.3174  1.3229
 9436TIP3    H249800   3.632   5.597   6.149 -1.9854  0.7466  1.0136
 9437TIP3   OH249801   4.536   1.451   3.819 -0.0368 -0.2850  0.4976
 9437TIP3    H149802   4.607   1.441   3.755 -0.6275 -1.0634 -0.0558
 9437TIP3    H249803   4.499   1.363   3.827  1.0380 -0.5910  3.1546
 9438TIP3   OH249804   1.203   3.297   2.888 -0.4332  0.2518  0.1294
 9438TIP3    H149805   1.164   3.266   2.806  1.3892  1.1603 -1.1524
 9438TIP3    H249806   1.228   3.217   2.934  0.8614 -0.2893 -1.4165
 9439TIP3   OH249807   5.347   1.387  13.241 -1.0061  0.1041 -0.3589
 9439TIP3    H149808   5.370   1.348  13.156  0.8976  0.3505  0.0100
 9439TIP3    H249809   5.431   1.409  13.281 -1.9462  2.0567  0.6484
 9440TIP3   OH249810   6.696   5.331   2.429 -0.1041  0.6387  0.1304
 9440TIP3    H149811   6.742   5.249   2.413 -0.7051  0.5357 -1.1595
 9440TIP3    H249812   6.631   5.309   2.496  0.1412  0.2278  0.2393
 9441TIP3   OH249813   6.030   3.573   2.527 -0.0926 -0.1427 -0.7890
 9441TIP3    H149814   6.045   3.502   2.590 -2.1597  2.8334  3.5485
 9441TIP3    H249815   5.943   3.557   2.492 -0.7924  0.4743  0.6234
 9442TIP3   OH249816   4.263   3.422   1.695 -0.0679  0.0264 -0.4356
 9442TIP3    H149817   4.302   3.506   1.719 -0.7699  0.3267 -0.3064
 9442TIP3    H249818   4.263   3.371   1.776  0.2516 -0.0570 -0.4870
 9443TIP3   OH249819   2.661   2.417  15.195  0.0971  0.2155 -0.4433
 9443TIP3    H149820   2.722   2.375  15.256 -0.9277 -0.3593  0.2247
 9443TIP3    H249821   2.705   2.498  15.169  0.3814  0.7180  1.4438
 9444TIP3   OH249822   5.775   5.779   3.714  0.2695 -0.2832 -0.6384
 9444TIP3    H149823   5.742   5.862   3.749  1.6823  0.4354 -0.9391
 9444TIP3    H249824   5.766   5.716   3.786  1.0944  0.6387  0.3026
 9445TIP3   OH249825   1.398   0.862   1.192 -0.5006  0.1229  0.1245
 9445TIP3    H149826   1.331   0.795   1.177 -1.2239  1.0576 -1.0658
 9445TIP3    H249827   1.393   0.882   1.285 -3.2480  1.4994 -0.2227
 9446TIP3   OH249828   0.514   5.055  12.549  0.2002 -0.9599 -0.2049
 9446TIP3    H149829   0.556   4.985  12.499  1.4837 -0.4408  0.1028
 9446TIP3    H249830   0.542   5.136  12.506  0.1006 -0.5645  0.4528
 9447TIP3   OH249831   5.243   0.873  16.733  0.1324 -0.4541  0.0421
 9447TIP3    H149832   5.198   0.791  16.754  1.5246 -1.5074 -0.9494
 9447TIP3    H249833   5.195   0.908  16.659 -1.2865  0.3578  1.2843
 9448TIP3   OH249834   5.888   3.771   2.914 -0.2403  0.0390  0.1060
 9448TIP3    H149835   5.842   3.822   2.980 -1.3701 -0.0196 -0.6153
 9448TIP3    H249836   5.819   3.736   2.858  0.5504 -1.6932  0.1527
 9449TIP3   OH249837   1.606   2.012  14.822  0.6444 -0.1013  0.5296
 9449TIP3    H149838   1.596   1.935  14.766  0.5636  0.3961 -0.1557
 9449TIP3    H249839   1.578   1.982  14.909  2.6696 -1.4576  0.7840
 9450TIP3   OH249840   6.810   0.515  17.132  0.5341 -0.0101  0.2985
 9450TIP3    H149841   6.838   0.603  17.154 -0.4380  0.1156  1.1077
 9450TIP3    H249842   6.843   0.500  17.043  0.4953  1.2507  0.0597
 9451TIP3   OH249843   5.243   3.954  10.316  0.1876 -0.3011 -0.5798
 9451TIP3    H149844   5.288   3.962  10.400 -2.4578  2.4489  0.7810
 9451TIP3    H249845   5.184   3.880  10.328  0.9490 -0.9251 -0.6283
 9452TIP3   OH249846   1.702   6.720   3.680  0.7612 -0.8212  0.1626
 9452TIP3    H149847   1.665   6.707   3.767  1.5582  0.3037  0.7023
 9452TIP3    H249848   1.652   6.793   3.643  0.8310 -0.8907 -0.0721
 9453TIP3   OH249849   6.783   2.829  11.877 -0.0903  0.1438 -0.4563
 9453TIP3    H149850   6.778   2.866  11.965  1.7072 -1.0542  0.1986
 9453TIP3    H249851   6.875   2.836  11.853 -0.7610  1.8159 -2.9041
 9454TIP3   OH249852   0.459   5.221   2.381  0.0184 -0.3081 -0.0751
 9454TIP3    H149853   0.506   5.138   2.390  1.8091  0.6017 -0.4607
 9454TIP3    H249854   0.477   5.268   2.462 -1.3129 -0.4294  0.3086
 9455TIP3   OH249855   4.751   0.543   4.588  0.2646 -0.4661  0.0055
 9455TIP3    H149856   4.765   0.634   4.564 -0.9173  0.0488  1.1289
 9455TIP3    H249857   4.741   0.497   4.505 -1.0494  0.7700 -0.5492
 9456TIP3   OH249858   6.438   6.524   2.738 -0.0388 -0.3783  0.3565
 9456TIP3    H149859   6.512   6.585   2.730 -1.3153  1.0932 -1.0724
 9456TIP3    H249860   6.445   6.489   2.826  3.0760 -1.2809 -0.1358
 9457TIP3   OH249861   4.568   0.980  16.290 -0.7228 -1.0080 -0.2414
 9457TIP3    H149862   4.602   0.925  16.361  0.0238 -0.1520  0.0831
 9457TIP3    H249863   4.646   1.022  16.253 -1.0334 -1.8028 -1.8988
 9458TIP3   OH249864   6.241   3.677   5.101  0.0710 -0.4538  0.0748
 9458TIP3    H149865   6.270   3.586   5.104 -0.0099 -0.4740  0.3117
 9458TIP3    H249866   6.285   3.714   5.025 -2.3219 -1.5190 -1.9426
 9459TIP3   OH249867   4.362   6.813  16.383  0.1690 -0.5177 -0.6164
 9459TIP3    H149868   4.401   6.853  16.305 -0.1634  1.2395  0.0760
 9459TIP3    H249869   4.436   6.799  16.442  0.0423  0.9450 -0.0898
 9460TIP3   OH249870   1.467   2.838   5.000  0.2801  0.2123 -0.4503
 9460TIP3    H149871   1.503   2.767   5.055 -0.8076 -1.3598 -1.6757
 9460TIP3    H249872   1.430   2.793   4.924 -0.6845  2.0999 -1.1622
 9461TIP3   OH249873   0.744   0.761  16.381 -0.2396  0.4836  0.1034
 9461TIP3    H149874   0.755   0.695  16.312 -1.0505  0.4367  0.0054
 9461TIP3    H249875   0.781   0.720  16.459 -0.3719  0.0661 -0.0482
 9462TIP3   OH249876   3.946   0.278   4.779  0.5742 -0.1064  0.7988
 9462TIP3    H149877   4.030   0.232   4.782 -0.2342 -1.6176  1.9983
 9462TIP3    H249878   3.905   0.247   4.698  0.0179 -1.6299  1.6136
 9463TIP3   OH249879   6.753   2.352  12.849  0.0554 -0.0015  0.0037
 9463TIP3    H149880   6.812   2.424  12.869  0.0560  0.9934 -3.0462
 9463TIP3    H249881   6.751   2.348  12.753 -3.7157 -0.9098 -0.0517
 9464TIP3   OH249882   5.344   4.338   0.728 -0.6009 -0.3327 -0.3812
 9464TIP3    H149883   5.327   4.428   0.697 -0.1493 -0.2248 -0.3102
 9464TIP3    H249884   5.286   4.328   0.804 -0.0159  0.2031  0.1469
 9465TIP3   OH249885   0.919   6.450   1.356 -0.1171  0.0571 -0.3301
 9465TIP3    H149886   0.930   6.355   1.345  0.6329 -0.1385  1.6772
 9465TIP3    H249887   0.870   6.477   1.278  1.1993 -1.6743 -1.8576
 9466TIP3   OH249888   5.386   5.459   4.934  0.2310  0.0010 -0.4525
 9466TIP3    H149889   5.454   5.407   4.975 -0.5284  1.2031  2.6405
 9466TIP3    H249890   5.431   5.536   4.901  0.8834 -1.0542 -2.1362
 9467TIP3   OH249891   3.765   0.240   6.489 -0.1051  0.3937 -0.6016
 9467TIP3    H149892   3.766   0.280   6.576 -1.3762  1.7615 -1.1771
 9467TIP3    H249893   3.847   0.191   6.484  0.9296  1.9222  0.6322
 9468TIP3   OH249894   2.578   3.438  17.114  0.4663  0.2217 -0.0660
 9468TIP3    H149895   2.508   3.501  17.130  1.1274  0.6172  1.4426
 9468TIP3    H249896   2.558   3.365  17.172 -0.6462 -1.3198 -2.2599
 9469TIP3   OH249897   3.076   0.908   0.084  0.4974 -0.6033 -0.0044
 9469TIP3    H149898   2.989   0.883   0.053 -0.2977  0.9295  0.8252
 9469TIP3    H249899   3.071   1.003   0.094  1.7507 -0.6505  1.5878
 9470TIP3   OH249900   3.599   2.951   4.615 -0.1717 -0.0737 -0.1036
 9470TIP3    H149901   3.533   2.931   4.549 -1.8505  0.9355  1.1891
 9470TIP3    H249902   3.602   3.047   4.616  3.1938 -0.0142 -1.8653
 9471TIP3   OH249903   6.235   2.554  13.926  0.2347 -0.3193  0.4278
 9471TIP3    H149904   6.188   2.505  13.994  0.8775 -0.4662  0.7728
 9471TIP3    H249905   6.169   2.613  13.889 -0.8364 -2.1481 -0.7241
 9472TIP3   OH249906   0.618   5.192  16.971  0.0919  0.0821  0.0422
 9472TIP3    H149907   0.681   5.236  17.028 -0.3468  0.8528 -0.0468
 9472TIP3    H249908   0.537   5.242  16.982  0.1022  0.5436 -1.5780
 9473TIP3   OH249909   6.392   6.750  12.473  0.1437 -0.4928 -0.3412
 9473TIP3    H149910   6.438   6.701  12.540  0.3965  2.0854  1.5182
 9473TIP3    H249911   6.306   6.769  12.512  0.1323  0.6780 -0.8964
 9474TIP3   OH249912   5.528   3.866   5.101 -0.5244  0.2526 -0.5698
 9474TIP3    H149913   5.487   3.848   5.017  0.2714 -1.7015 -0.5980
 9474TIP3    H249914   5.459   3.855   5.166 -0.3661 -1.8561 -0.7089
 9475TIP3   OH249915   6.140   5.992   1.370 -0.0747  0.1100 -0.3970
 9475TIP3    H149916   6.059   6.041   1.360 -0.1360  0.5702  1.8465
 9475TIP3    H249917   6.202   6.054   1.407  1.8373  0.1652 -3.3278
 9476TIP3   OH249918   3.889   3.486   0.917 -0.3340 -0.1168  0.0041
 9476TIP3    H149919   3.965   3.520   0.871  0.2815 -0.5798  0.6395
 9476TIP3    H249920   3.839   3.563   0.943 -0.0885  0.1900 -0.4402
 9477TIP3   OH249921   3.605   4.374   0.533  0.2426 -0.3369  0.7035
 9477TIP3    H149922   3.567   4.296   0.574  0.0431 -1.1434 -0.9562
 9477TIP3    H249923   3.667   4.406   0.598  2.0720 -3.2237  0.5927
 9478TIP3   OH249924   4.554   0.600  10.161 -0.2009 -0.0096 -0.1939
 9478TIP3    H149925   4.617   0.655  10.207  0.1975  1.5568 -2.4504
 9478TIP3    H249926   4.470   0.617  10.205  0.7741 -2.0552  2.7813
 9479TIP3   OH249927   0.078   2.264   1.722  0.0917 -0.1222  0.5618
 9479TIP3    H149928   0.090   2.174   1.693 -0.2390  0.0349 -0.0802
 9479TIP3    H249929  -0.016   2.275   1.730  0.1107  0.2763  0.2698
 9480TIP3   OH249930   1.603   4.083   5.484 -0.0371  0.6726  0.0518
 9480TIP3    H149931   1.515   4.110   5.512 -0.1369  1.0270 -0.5719
 9480TIP3    H249932   1.605   3.989   5.498  0.0565  0.8747  1.5936
 9481TIP3   OH249933   6.297   1.006   1.748 -0.0558  0.3265 -0.5425
 9481TIP3    H149934   6.242   0.969   1.680 -0.8169  0.2780  0.0846
 9481TIP3    H249935   6.291   1.101   1.735 -1.4841  0.3869  0.4186
 9482TIP3   OH249936   0.966   3.532  16.092 -0.0357 -0.1126 -0.9210
 9482TIP3    H149937   1.012   3.480  16.027  1.0456 -0.7618  0.3086
 9482TIP3    H249938   1.035   3.573  16.144 -0.7344 -1.6797  1.4424
 9483TIP3   OH249939   6.270   0.857   0.701 -0.1054 -0.1127 -0.6874
 9483TIP3    H149940   6.284   0.937   0.751 -0.5225 -1.2569  1.3653
 9483TIP3    H249941   6.351   0.807   0.713  0.0687 -0.1018 -1.7680
 9484TIP3   OH249942   2.170   5.064  12.949  0.4224  0.5849  0.3950
 9484TIP3    H149943   2.089   5.060  12.899  1.4351 -1.5187 -1.2671
 9484TIP3    H249944   2.145   5.041  13.038 -0.6389 -1.8461 -0.4397
 9485TIP3   OH249945   1.406   5.047   5.214  0.0075  0.0168  0.6493
 9485TIP3    H149946   1.334   5.015   5.270 -1.6578  2.1447 -0.1321
 9485TIP3    H249947   1.412   5.140   5.234  2.2460 -0.0034  0.2783
 9486TIP3   OH249948   6.413   2.360   4.519  0.3162 -0.0551 -0.3790
 9486TIP3    H149949   6.406   2.309   4.438 -3.0428 -0.7786  0.2118
 9486TIP3    H249950   6.380   2.447   4.496 -0.1128 -0.0958  0.0655
 9487TIP3   OH249951   5.116   0.465   3.160 -0.1140 -0.4697  0.1781
 9487TIP3    H149952   5.052   0.478   3.230  1.1638  0.1559  1.2836
 9487TIP3    H249953   5.166   0.387   3.188  1.0267  0.3421  0.5060
 9488TIP3   OH249954   2.042   2.097   4.244 -0.1094  0.2594 -0.5658
 9488TIP3    H149955   2.043   2.118   4.337 -2.4748  1.1722 -0.6698
 9488TIP3    H249956   2.096   2.018   4.237  2.8047  1.9267  1.0092
 9489TIP3   OH249957   4.862   1.476   6.238  1.1963  0.0174 -0.3267
 9489TIP3    H149958   4.855   1.515   6.325 -2.3159 -1.6132  0.2860
 9489TIP3    H249959   4.799   1.524   6.185 -0.6731 -2.3631 -0.4472
 9490TIP3   OH249960   0.697   5.505  16.885 -0.3981  0.2841 -0.4238
 9490TIP3    H149961   0.649   5.583  16.913 -0.4082  0.2030 -0.2147
 9490TIP3    H249962   0.629   5.446  16.853 -0.6222 -0.4244  1.2347
 9491TIP3   OH249963   0.103   3.963  15.812  0.6846  0.2408 -0.7975
 9491TIP3    H149964   0.177   4.023  15.808 -0.0750  1.3216  0.4319
 9491TIP3    H249965   0.142   3.877  15.828  1.7095  0.7000 -0.7873
 9492TIP3   OH249966   4.050   3.897  12.400  0.2492  0.1831 -0.6999
 9492TIP3    H149967   4.104   3.849  12.462 -0.1997  1.9396  1.1590
 9492TIP3    H249968   4.015   3.830  12.341  0.5537 -1.6015  1.0667
 9493TIP3   OH249969   3.694   1.075   3.268 -0.2500  0.0645 -0.5006
 9493TIP3    H149970   3.726   1.039   3.185  0.8926  2.8857 -1.4174
 9493TIP3    H249971   3.764   1.055   3.331  1.1802  1.9267 -1.3828
 9494TIP3   OH249972   4.132   5.113  13.299 -0.6876  0.4321  0.2932
 9494TIP3    H149973   4.119   5.206  13.315  0.1738  0.6997 -0.4976
 9494TIP3    H249974   4.077   5.094  13.222  1.7431  1.1025 -1.7441
 9495TIP3   OH249975   0.849   2.908  10.995 -0.0405  0.4536  0.2111
 9495TIP3    H149976   0.933   2.871  10.967  1.3189  2.3019  1.5760
 9495TIP3    H249977   0.822   2.963  10.921  0.7836  1.0869  0.3628
 9496TIP3   OH249978   5.465   1.979  13.041 -0.2230 -0.0032  0.1639
 9496TIP3    H149979   5.508   1.897  13.065 -1.1683 -0.9586 -1.2502
 9496TIP3    H249980   5.419   2.007  13.121  3.0210  1.1741  1.8029
 9497TIP3   OH249981   3.774   5.108  11.627 -0.4113 -0.2577 -0.3761
 9497TIP3    H149982   3.723   5.042  11.674 -1.9325  0.4637 -0.9475
 9497TIP3    H249983   3.859   5.066  11.611 -0.8148 -1.5009  0.5840
 9498TIP3   OH249984   3.785   2.313  15.967  0.4344 -0.2826 -0.5915
 9498TIP3    H149985   3.836   2.271  15.898  0.3939  0.1960 -0.9209
 9498TIP3    H249986   3.786   2.251  16.039  2.4906  0.2240 -0.1342
 9499TIP3   OH249987   6.616   2.636  13.005 -0.3131  0.0921 -0.6821
 9499TIP3    H149988   6.617   2.639  12.910 -3.7170 -1.2905 -0.9365
 9499TIP3    H249989   6.540   2.690  13.030  0.7398  0.7644  1.3007
 9500TIP3   OH249990   1.737   2.034   2.339  0.2968 -0.1226 -0.4747
 9500TIP3    H149991   1.812   2.075   2.295 -0.2015  0.2073 -1.0215
 9500TIP3    H249992   1.661   2.059   2.287 -0.1130 -1.0852 -0.3617
 9501TIP3   OH249993   2.254   1.195  13.696 -0.5587  0.5781 -0.1696
 9501TIP3    H149994   2.227   1.189  13.605  0.6537  1.6372 -0.6265
 9501TIP3    H249995   2.286   1.108  13.718  0.2192  0.6180 -1.1183
 9502TIP3   OH249996   0.462   3.149  14.503 -0.2615  0.4498  0.1447
 9502TIP3    H149997   0.485   3.233  14.544 -1.1252  0.0066  1.6456
 9502TIP3    H249998   0.382   3.122  14.549  0.0217 -1.2115 -0.2937
 9503TIP3   OH249999   4.338   1.620  16.323  0.1561 -0.0641  0.0579
 9503TIP3    H150000   4.378   1.630  16.409  0.1972 -0.1640  0.0512
 9503TIP3    H250001   4.363   1.532  16.296  0.3283  0.0496 -0.1539
 9504TIP3   OH250002   0.055   3.235  10.992  0.0740 -0.0471 -0.1474
 9504TIP3    H150003   0.030   3.250  10.901 -0.5632  2.4176  0.3474
 9504TIP3    H250004  -0.027   3.216  11.037  0.1342  0.4447  0.1817
 9505TIP3   OH250005   4.760   1.340   1.930 -0.0870 -0.0353 -0.1708
 9505TIP3    H150006   4.817   1.323   1.854  1.1680 -0.1526  0.7661
 9505TIP3    H250007   4.673   1.353   1.892  0.5945  0.3706 -1.6706
 9506TIP3   OH250008   1.807   5.209  11.790 -0.1941 -0.0039  0.2775
 9506TIP3    H150009   1.752   5.256  11.728  0.2068 -0.3161 -0.3297
 9506TIP3    H250010   1.751   5.139  11.823 -0.2694 -0.1224 -0.0928
 9507TIP3   OH250011   5.770   4.040   4.947  0.2258  0.3413  0.1526
 9507TIP3    H150012   5.761   3.950   4.915  2.0657  0.6413 -1.3717
 9507TIP3    H250013   5.682   4.077   4.938 -0.0816 -0.6575 -1.3382
 9508TIP3   OH250014   2.741   6.648   1.596 -0.5140  0.4979  0.0946
 9508TIP3    H150015   2.835   6.660   1.584 -0.2501 -1.3869  0.0360
 9508TIP3    H250016   2.702   6.678   1.513 -0.0206  1.5865  0.2414
 9509TIP3   OH250017   3.569   4.199   2.399 -0.1476 -1.1151  0.3110
 9509TIP3    H150018   3.579   4.104   2.412  3.3151 -0.8681  0.4972
 9509TIP3    H250019   3.583   4.237   2.486 -2.1121 -0.3813  0.3588
 9510TIP3   OH250020   5.985   5.681  17.071 -0.1686 -0.3223  0.3856
 9510TIP3    H150021   6.036   5.612  17.028 -0.5894 -1.5132  1.6849
 9510TIP3    H250022   6.035   5.701  17.150 -0.0600  0.8866  0.0333
 9511TIP3   OH250023   0.937   2.185  12.713 -0.6059 -0.6191  0.1655
 9511TIP3    H150024   0.997   2.254  12.683  1.5485 -2.4290  0.0469
 9511TIP3    H250025   0.903   2.145  12.633 -0.7149 -0.6362  0.2195
 9512TIP3   OH250026   2.661   0.251  11.788 -0.0523 -0.1353 -0.0397
 9512TIP3    H150027   2.660   0.287  11.877 -1.1349 -0.1723 -0.0255
 9512TIP3    H250028   2.651   0.156  11.801 -1.7236 -0.0170 -0.2334
 9513TIP3   OH250029   4.662   2.109  16.128 -0.4403  0.2294 -0.5515
 9513TIP3    H150030   4.676   2.108  16.222 -1.2004  1.8659 -0.3779
 9513TIP3    H250031   4.617   2.027  16.109 -2.4586  0.9027  0.9209
 9514TIP3   OH250032   2.738   3.450   4.138 -0.2912 -0.5372 -0.5508
 9514TIP3    H150033   2.753   3.466   4.231 -0.4683 -1.8552 -0.2713
 9514TIP3    H250034   2.774   3.362   4.123  0.2140 -0.1292 -1.8516
 9515TIP3   OH250035   0.657   4.074   1.426  0.0093 -0.2400 -0.5444
 9515TIP3    H150036   0.635   4.072   1.333 -0.3160  0.6594 -0.4948
 9515TIP3    H250037   0.624   4.158   1.457 -2.0531 -1.4606  0.9061
 9516TIP3   OH250038   5.150   1.540   1.305 -0.1163 -0.0707 -0.0609
 9516TIP3    H150039   5.115   1.616   1.351 -0.7129 -0.4398  0.1093
 9516TIP3    H250040   5.151   1.471   1.371  0.9732 -0.0650 -0.0528
 9517TIP3   OH250041   5.991   4.130   4.834 -0.1639  0.3117 -0.5546
 9517TIP3    H150042   5.924   4.071   4.868  0.6976  0.5320  1.6654
 9517TIP3    H250043   5.966   4.216   4.865  0.9333  0.4490 -0.0050
 9518TIP3   OH250044   1.002   5.560   3.433  0.2626  0.7889  0.0222
 9518TIP3    H150045   0.982   5.639   3.484  0.6276  1.6213 -1.0972
 9518TIP3    H250046   1.030   5.593   3.348 -2.0807 -0.5947 -1.3819
 9519TIP3   OH250047   2.601   1.113   4.791 -0.5313 -0.0663  0.0742
 9519TIP3    H150048   2.633   1.104   4.881 -1.3340  0.5206  0.4294
 9519TIP3    H250049   2.680   1.133   4.740 -0.2227  0.7383  0.8329
 9520TIP3   OH250050   1.563   3.540  15.651 -0.3496  0.1938  0.2906
 9520TIP3    H150051   1.553   3.453  15.689 -1.8722  0.2690  0.1108
 9520TIP3    H250052   1.474   3.573  15.640  0.1503  1.3254 -0.6958
 9521TIP3   OH250053   5.476   6.285  11.756  0.3418  0.7718  0.3321
 9521TIP3    H150054   5.390   6.295  11.797  1.2468  2.3039  1.9744
 9521TIP3    H250055   5.460   6.300  11.663 -1.3194 -0.0221  0.4512
 9522TIP3   OH250056   5.219   2.876   1.778 -0.6229  0.1030 -0.0862
 9522TIP3    H150057   5.140   2.857   1.830  0.6571 -0.5812  1.6926
 9522TIP3    H250058   5.250   2.960   1.812  0.9003 -0.9237  1.2108
 9523TIP3   OH250059   6.788   6.163   5.003  0.1952 -1.0137  0.1568
 9523TIP3    H150060   6.870   6.198   4.968  1.7338 -1.4489  3.0452
 9523TIP3    H250061   6.765   6.092   4.942  2.9106 -1.9921  0.1505
 9524TIP3   OH250062   5.631   0.955  11.368  0.0233  0.4422  0.8478
 9524TIP3    H150063   5.620   0.973  11.461  0.1870  0.2961  0.8937
 9524TIP3    H250064   5.725   0.953  11.354  0.0129 -0.5011  0.8653
 9525TIP3   OH250065   2.616   4.424   0.188  0.0736  0.5049  0.0332
 9525TIP3    H150066   2.681   4.481   0.147  1.2026 -1.1652 -0.5842
 9525TIP3    H250067   2.536   4.441   0.139  0.9617 -0.1236 -1.7009
 9526TIP3   OH250068   4.468   4.077  13.520  0.0942 -0.3007 -0.2672
 9526TIP3    H150069   4.556   4.109  13.538 -0.0273  0.4843 -0.9781
 9526TIP3    H250070   4.462   4.075  13.424 -0.6591 -0.3430 -0.2309
 9527TIP3   OH250071   0.081   1.520  13.718  0.3215 -0.3889 -0.6284
 9527TIP3    H150072   0.162   1.469  13.707  1.0891  0.7197 -0.3308
 9527TIP3    H250073   0.019   1.480  13.658  1.1905 -1.0819 -1.0915
 9528TIP3   OH250074   3.082   2.810   5.925  0.1351 -0.2870 -0.1936
 9528TIP3    H150075   3.102   2.820   6.018  2.9143 -3.2193 -0.2899
 9528TIP3    H250076   3.012   2.745   5.923  0.0333 -0.1790 -0.1481
 9529TIP3   OH250077   0.750   0.819  11.547 -0.4089 -0.2009 -0.4337
 9529TIP3    H150078   0.706   0.785  11.625 -2.3507  0.5593 -1.1219
 9529TIP3    H250079   0.809   0.886  11.580  0.4483 -1.3885  0.5486
 9530TIP3   OH250080   2.229   4.234   3.342 -0.3951  0.2431  0.6923
 9530TIP3    H150081   2.269   4.283   3.271  0.0005  0.2608  0.9254
 9530TIP3    H250082   2.285   4.250   3.418 -0.4487 -0.2914  0.8531
 9531TIP3   OH250083   2.079   3.985   0.855  0.0957  0.0228  0.1204
 9531TIP3    H150084   1.992   3.964   0.888  0.1488 -1.3261 -0.5334
 9531TIP3    H250085   2.117   3.901   0.830  2.1379  0.4044  1.6564
 9532TIP3   OH250086   4.770   0.592  15.645 -0.3633  0.2602  0.3095
 9532TIP3    H150087   4.768   0.581  15.740  0.2837 -0.6267  0.2336
 9532TIP3    H250088   4.802   0.681  15.631  0.5396  0.0410  0.9166
 9533TIP3   OH250089   6.070   5.717   5.942 -0.2637 -0.1641 -0.0675
 9533TIP3    H150090   6.075   5.701   6.036  1.6236 -2.2319 -0.4295
 9533TIP3    H250091   5.980   5.748   5.927 -1.0813 -1.2391  2.1985
 9534TIP3   OH250092   0.711   0.790   2.366  1.2471  0.5336 -0.5500
 9534TIP3    H150093   0.707   0.704   2.407  1.6579  0.6641 -0.2239
 9534TIP3    H250094   0.692   0.852   2.437  0.2393  0.6877 -0.9349
 9535TIP3   OH250095   6.079   3.436   5.740  0.4656 -0.6067 -0.2828
 9535TIP3    H150096   6.037   3.521   5.728 -0.0429 -0.9814 -1.3330
 9535TIP3    H250097   6.074   3.420   5.834 -1.1987 -0.3557 -0.2960
 9536TIP3   OH250098   5.438   4.234  12.921  0.5003  0.0864  0.2645
 9536TIP3    H150099   5.488   4.154  12.904 -1.8933 -1.9306  1.9722
 9536TIP3    H250100   5.465   4.262  13.008 -1.3135 -1.1680  1.3169
 9537TIP3   OH250101   3.942   0.258  16.254 -0.4499 -0.4879  0.2178
 9537TIP3    H150102   4.016   0.226  16.202 -0.8383 -0.3370 -0.4382
 9537TIP3    H250103   3.982   0.302  16.329  0.1575  0.6218 -0.7356
 9538TIP3   OH250104   2.049   1.853   1.199  0.4477 -0.0706 -0.3611
 9538TIP3    H150105   1.984   1.923   1.208 -1.0528 -1.0791 -2.4998
 9538TIP3    H250106   2.015   1.781   1.251  0.2279 -0.3446 -0.8790
 9539TIP3   OH250107   0.758   0.442   5.101 -0.3519 -0.0108 -0.3317
 9539TIP3    H150108   0.837   0.495   5.098  0.9331 -1.8441 -1.1090
 9539TIP3    H250109   0.757   0.404   5.189 -0.4115  0.0697 -0.2974
 9540TIP3   OH250110   4.063   4.077  13.897  0.3070  0.2195  0.3113
 9540TIP3    H150111   4.025   3.998  13.860 -0.5511  0.9415 -0.3762
 9540TIP3    H250112   4.142   4.093  13.845 -0.5120  0.8322 -0.7753
 9541TIP3   OH250113   0.467   0.522  11.978 -0.8447  0.4100  0.3323
 9541TIP3    H150114   0.493   0.454  11.916  2.7709  1.4177  0.5346
 9541TIP3    H250115   0.504   0.493  12.062  0.4752  2.3562  0.4835
 9542TIP3   OH250116   0.610   5.111  15.735 -1.0427 -0.5309  0.9397
 9542TIP3    H150117   0.580   5.101  15.645 -0.2192 -0.3561  0.6389
 9542TIP3    H250118   0.615   5.206  15.748  1.6342 -0.4833  0.1839
 9543TIP3   OH250119   3.863   5.245  11.038 -0.2844 -0.6377  0.5195
 9543TIP3    H150120   3.898   5.171  10.987  0.7241  1.5663 -2.2199
 9543TIP3    H250121   3.769   5.245  11.017 -0.3644 -1.3239  0.8323
 9544TIP3   OH250122   4.468   1.156  15.873 -0.3697  0.3095 -0.5762
 9544TIP3    H150123   4.446   1.136  15.964  0.1113  0.8766 -0.3264
 9544TIP3    H250124   4.424   1.088  15.822  0.4030 -0.7901  0.1745
 9545TIP3   OH250125   4.235   0.084  10.931 -0.2411  0.3392 -0.0163
 9545TIP3    H150126   4.246   0.006  10.876 -0.5854 -0.7754  1.4507
 9545TIP3    H250127   4.318   0.092  10.979 -0.1560  0.9710 -0.2523
 9546TIP3   OH250128   6.549   2.801  11.459 -0.0601 -0.3138  0.3526
 9546TIP3    H150129   6.525   2.711  11.437 -0.2499 -1.2407  3.7283
 9546TIP3    H250130   6.629   2.792  11.511  0.0797  1.5030  0.5159
 9547TIP3   OH250131   2.849   5.082   6.568 -0.0025  0.2928  0.4410
 9547TIP3    H150132   2.931   5.048   6.604  0.7427  0.1158 -1.3267
 9547TIP3    H250133   2.847   5.050   6.479 -1.3108  1.4829  0.0060
 9548TIP3   OH250134   6.588   6.817   3.905  0.4170  0.0155 -0.2103
 9548TIP3    H150135   6.509   6.768   3.880  0.0019  0.8770 -0.6286
 9548TIP3    H250136   6.657   6.777   3.853  0.1161 -0.2341 -0.4274
 9549TIP3   OH250137   3.621   1.580  10.982  0.0506 -0.2111  0.9058
 9549TIP3    H150138   3.707   1.607  10.951 -0.0851  0.4149  1.0675
 9549TIP3    H250139   3.603   1.635  11.058 -1.5166  1.4115 -0.5450
 9550TIP3   OH250140   1.680   2.708   3.088  0.4217 -0.0902 -0.1590
 9550TIP3    H150141   1.754   2.765   3.107  0.2846 -0.4620  1.6473
 9550TIP3    H250142   1.717   2.620   3.085 -0.0004 -0.3556  1.4298
 9551TIP3   OH250143   1.310   3.629   5.578  0.1709  0.2226 -0.4541
 9551TIP3    H150144   1.270   3.541   5.575 -1.8567  1.0950 -0.7889
 9551TIP3    H250145   1.245   3.682   5.624  1.1674  1.6699 -0.6800
 9552TIP3   OH250146   3.274   0.389   3.023 -0.0594  0.1040  0.2225
 9552TIP3    H150147   3.274   0.295   3.037  0.8467  0.1872  0.8505
 9552TIP3    H250148   3.249   0.426   3.107 -0.4507  0.4265 -0.0331
 9553TIP3   OH250149   5.824   0.873   3.164  0.2514 -0.2444  0.3628
 9553TIP3    H150150   5.873   0.879   3.246  0.4990  0.6332  0.1682
 9553TIP3    H250151   5.746   0.822   3.186 -0.8691  1.8660  1.7507
 9554TIP3   OH250152   0.047   1.982   2.666 -0.0372  0.1435 -0.2462
 9554TIP3    H150153  -0.029   2.039   2.663  1.1420  1.9201  1.4499
 9554TIP3    H250154   0.122   2.041   2.677  1.5478 -1.5759 -1.1525
 9555TIP3   OH250155   1.216   4.642   1.455  0.2575 -0.5548 -0.4489
 9555TIP3    H150156   1.215   4.638   1.359 -0.3673  0.5291 -0.5023
 9555TIP3    H250157   1.123   4.643   1.480  0.4179 -0.6950  0.1655
 9556TIP3   OH250158   1.088   6.824   3.512  0.0262 -0.6704  0.1504
 9556TIP3    H150159   1.063   6.822   3.420  1.3794  3.0101 -0.4415
 9556TIP3    H250160   1.176   6.788   3.514 -0.8321 -2.9325  0.4788
 9557TIP3   OH250161   0.717   0.352   3.789 -0.6992 -0.2894 -0.1504
 9557TIP3    H150162   0.748   0.294   3.720 -2.3557 -1.5850  0.1230
 9557TIP3    H250163   0.711   0.296   3.867 -1.5944  0.4208  0.3141
 9558TIP3   OH250164   3.601   4.418  13.230  0.0391 -0.1609  0.0128
 9558TIP3    H150165   3.519   4.412  13.182  0.9300 -0.0565 -1.6158
 9558TIP3    H250166   3.601   4.506  13.267 -0.0650  0.2858 -1.0102
 9559TIP3   OH250167   3.482   2.215  14.854  0.2168 -0.1041 -0.1804
 9559TIP3    H150168   3.551   2.209  14.921 -1.1989 -2.1463  1.2347
 9559TIP3    H250169   3.492   2.135  14.803  0.1901  0.6120 -1.3316
 9560TIP3   OH250170   5.581   4.396  11.342 -0.4101 -0.3505  0.7048
 9560TIP3    H150171   5.539   4.395  11.256 -2.8249 -2.4056  1.7716
 9560TIP3    H250172   5.582   4.489  11.367 -3.1398 -0.0402 -0.0163
 9561TIP3   OH250173   3.801   6.465  16.900 -0.2081  0.3427  0.2040
 9561TIP3    H150174   3.842   6.391  16.945  3.6148  0.9711 -1.8016
 9561TIP3    H250175   3.764   6.428  16.820 -1.8699  0.0855  1.0565
 9562TIP3   OH250176   5.189   4.443  16.204 -0.1889  0.1376  0.1604
 9562TIP3    H150177   5.262   4.500  16.177 -0.6280  0.1631 -1.0286
 9562TIP3    H250178   5.116   4.504  16.216 -0.4733 -0.0854 -0.4159
 9563TIP3   OH250179   6.819   0.374  15.609 -0.4168 -0.6580 -0.1961
 9563TIP3    H150180   6.867   0.371  15.526 -1.6734 -1.1003 -0.9283
 9563TIP3    H250181   6.809   0.283  15.634  1.6010 -0.4949  1.4686
 9564TIP3   OH250182   0.160   2.990   5.895  0.2402 -0.3986  0.5034
 9564TIP3    H150183   0.208   2.957   5.970  0.4323  0.6921  0.8724
 9564TIP3    H250184   0.119   2.912   5.856 -0.9719 -0.8197  2.5047
 9565TIP3   OH250185   6.561   0.684   3.036  0.4468 -0.1526 -0.6237
 9565TIP3    H150186   6.649   0.664   3.003  1.2267  0.7566  0.7958
 9565TIP3    H250187   6.513   0.601   3.028  0.9296 -0.2844 -2.8253
 9566TIP3   OH250188   2.281   1.287  15.840  0.0298 -0.3160 -0.2595
 9566TIP3    H150189   2.258   1.220  15.904 -1.2456 -1.5624 -1.9193
 9566TIP3    H250190   2.228   1.363  15.865  0.0357 -0.5602  0.5198
 9567TIP3   OH250191   0.129   1.544   2.368  0.6514  0.0552  0.1095
 9567TIP3    H150192   0.191   1.609   2.400  1.0623 -0.1027 -0.3569
 9567TIP3    H250193   0.062   1.539   2.437  0.4820  1.1428  0.0412
 9568TIP3   OH250194   1.433   2.964   4.438  0.8791 -0.4018  0.2894
 9568TIP3    H150195   1.384   2.935   4.361 -1.0579  0.8723  0.9737
 9568TIP3    H250196   1.432   2.889   4.497 -1.5881  0.0129  0.8734
 9569TIP3   OH250197   5.292   3.561   2.132 -0.8555 -0.2323 -0.4713
 9569TIP3    H150198   5.216   3.509   2.158 -1.6165  0.4779 -1.2530
 9569TIP3    H250199   5.367   3.507   2.159 -1.6124 -1.5825 -0.9455
 9570TIP3   OH250200   2.280   5.676   4.432  0.2161  0.0968  0.8102
 9570TIP3    H150201   2.333   5.722   4.497  1.2119 -1.5273  1.2269
 9570TIP3    H250202   2.291   5.583   4.454  2.2653 -0.7136 -2.7965
 9571TIP3   OH250203   4.296   5.174  12.482 -0.2981 -0.9399  0.9074
 9571TIP3    H150204   4.381   5.160  12.440 -2.0490 -1.2066 -2.9250
 9571TIP3    H250205   4.254   5.088  12.483 -2.0125 -0.2194 -1.0758
 9572TIP3   OH250206   0.753   4.653   1.387  0.0974 -0.0870 -0.3383
 9572TIP3    H150207   0.832   4.694   1.424 -0.6990  0.9316  0.2800
 9572TIP3    H250208   0.781   4.564   1.365  1.6440  0.4928 -0.8991
 9573TIP3   OH250209   6.186   6.260   5.961  0.6609 -0.2950 -0.0529
 9573TIP3    H150210   6.255   6.201   5.930  1.5285  0.7826 -0.2507
 9573TIP3    H250211   6.228   6.346   5.964 -0.7715  0.4606 -0.5134
 9574TIP3   OH250212   5.740   4.171   3.714  0.2778  0.1094  0.2361
 9574TIP3    H150213   5.767   4.261   3.736  0.5456  0.1054 -0.0685
 9574TIP3    H250214   5.757   4.163   3.620 -1.1094  0.2143 -0.0394
 9575TIP3   OH250215   1.542   5.767   5.568 -0.2936  0.5462  0.4884
 9575TIP3    H150216   1.497   5.698   5.520  0.4129  1.5299 -1.7216
 9575TIP3    H250217   1.487   5.783   5.645 -1.6235 -0.9201 -0.1021
 9576TIP3   OH250218   6.437   6.162  12.226 -0.2196 -0.1037  0.0853
 9576TIP3    H150219   6.411   6.121  12.144  0.3452  0.0132 -0.1553
 9576TIP3    H250220   6.499   6.230  12.200 -0.4035  0.2533  0.5653
 9577TIP3   OH250221   3.889   2.801   6.408  0.0527  0.1692 -0.4854
 9577TIP3    H150222   3.821   2.733   6.403 -0.1128  0.3403 -0.5991
 9577TIP3    H250223   3.840   2.881   6.430  0.4451 -0.0695  1.4005
 9578TIP3   OH250224   5.069   4.318  11.690 -0.4403  0.3623 -0.0727
 9578TIP3    H150225   4.976   4.312  11.712 -0.1617 -0.5101  0.9664
 9578TIP3    H250226   5.096   4.227  11.678  0.2944  0.6113 -0.3415
 9579TIP3   OH250227   2.883   5.500   3.043  0.4993  0.3592  0.4404
 9579TIP3    H150228   2.968   5.476   3.082  0.9539  1.5824  0.2339
 9579TIP3    H250229   2.906   5.552   2.966 -0.4060 -1.5818 -1.2296
 9580TIP3   OH250230   0.878   6.365  11.183  0.4093  0.1302  0.4688
 9580TIP3    H150231   0.863   6.435  11.118  0.4096  0.0118  0.3410
 9580TIP3    H250232   0.938   6.405  11.246  0.9785  0.0176  0.0118
 9581TIP3   OH250233   0.158   6.329  13.155 -0.0996 -0.0602 -0.6907
 9581TIP3    H150234   0.099   6.402  13.134 -1.5188 -1.7177 -2.9179
 9581TIP3    H250235   0.113   6.281  13.224  1.1827  1.4564  1.3143
 9582TIP3   OH250236   0.270   1.614  16.692 -0.0010  0.5170  0.0179
 9582TIP3    H150237   0.211   1.669  16.640 -0.8713 -1.1203 -0.7970
 9582TIP3    H250238   0.260   1.526  16.656  0.5863 -0.4011  1.9207
 9583TIP3   OH250239   5.231   2.099   2.169  0.3103 -0.2092  0.0147
 9583TIP3    H150240   5.186   2.027   2.212  1.8696 -0.7708  0.7913
 9583TIP3    H250241   5.210   2.089   2.076  0.2317 -1.4866  0.1505
 9584TIP3   OH250242   3.451   0.852   1.574 -0.1038  0.1684 -0.2950
 9584TIP3    H150243   3.449   0.934   1.526 -0.7221 -0.0936 -0.7265
 9584TIP3    H250244   3.545   0.832   1.584  0.0569  1.1318  0.2009
 9585TIP3   OH250245   3.173   4.871   5.612  0.2243  0.2604  0.5240
 9585TIP3    H150246   3.199   4.957   5.580 -1.4530  0.8296  0.6089
 9585TIP3    H250247   3.078   4.876   5.621  0.2730 -0.9361  2.4230
 9586TIP3   OH250248   4.881   4.221   4.083  0.5571  0.8777 -0.2632
 9586TIP3    H150249   4.851   4.280   4.152 -0.7533  0.9666 -0.8800
 9586TIP3    H250250   4.896   4.138   4.127 -0.1486  0.9694  0.1472
 9587TIP3   OH250251   5.429   4.816   2.577 -0.1566 -0.5948 -0.2642
 9587TIP3    H150252   5.349   4.763   2.579  0.2567 -1.2259  0.4035
 9587TIP3    H250253   5.402   4.902   2.609 -0.5831 -0.8015 -0.0624
 9588TIP3   OH250254   3.031   6.821   3.347 -0.3778 -0.1754  0.6514
 9588TIP3    H150255   3.101   6.841   3.285  0.2396  1.5528  1.8142
 9588TIP3    H250256   2.988   6.743   3.312  2.1458 -1.3180 -0.0929
 9589TIP3   OH250257   6.223   2.641  11.958  0.3348 -0.5933 -0.3539
 9589TIP3    H150258   6.271   2.608  11.881  0.2573  0.6275 -0.9483
 9589TIP3    H250259   6.138   2.669  11.923  0.9744  1.7044 -0.1952
 9590TIP3   OH250260   2.336   2.950   5.414  0.5166 -0.2416 -0.0390
 9590TIP3    H150261   2.424   2.980   5.435 -0.1592  2.1727 -0.2855
 9590TIP3    H250262   2.295   3.026   5.372 -2.4993 -0.3681  2.3822
 9591TIP3   OH250263   3.574   5.670  13.275 -0.1952 -0.1038  0.0779
 9591TIP3    H150264   3.515   5.613  13.325 -0.2755  0.5073  0.6844
 9591TIP3    H250265   3.578   5.629  13.188 -0.0649 -1.1645  0.5722
 9592TIP3   OH250266   5.819   2.450   2.525  0.1859  0.1316  0.3158
 9592TIP3    H150267   5.831   2.393   2.600 -0.3806  0.6207  0.7920
 9592TIP3    H250268   5.740   2.500   2.545 -0.2615 -0.0823 -0.8277
 9593TIP3   OH250269   0.594   0.668  13.089  0.3541  0.0160  0.4623
 9593TIP3    H150270   0.511   0.627  13.062 -0.3930  0.0781  2.4568
 9593TIP3    H250271   0.608   0.636  13.178  2.9320 -0.6056 -0.1125
 9594TIP3   OH250272   2.698   4.910   1.644 -0.5865  0.2009 -0.3433
 9594TIP3    H150273   2.604   4.923   1.633 -0.6289 -0.3027 -0.6039
 9594TIP3    H250274   2.707   4.876   1.733 -0.5515  1.2079  0.0445
 9595TIP3   OH250275   0.696   2.823  15.934 -0.0900 -0.4354  0.4916
 9595TIP3    H150276   0.671   2.779  15.852  1.2129  1.3060 -0.9221
 9595TIP3    H250277   0.768   2.879  15.909 -0.1827  0.7589  2.7195
 9596TIP3   OH250278   6.072   2.645  10.483  0.4829 -0.1445  0.3108
 9596TIP3    H150279   6.119   2.568  10.513 -0.5002 -1.4648 -1.3821
 9596TIP3    H250280   5.981   2.617  10.476  0.2655  0.8315 -1.3122
 9597TIP3   OH250281   1.899   0.492   0.868  0.3430 -0.0822  0.0702
 9597TIP3    H150282   1.988   0.492   0.833  0.0546  1.1745 -0.7373
 9597TIP3    H250283   1.903   0.548   0.945  0.2665 -0.1277  0.1074
 9598TIP3   OH250284   5.065   2.029  15.537  0.0845 -0.0420  0.4080
 9598TIP3    H150285   4.971   2.020  15.526  0.1674 -0.4769 -0.0201
 9598TIP3    H250286   5.076   2.075  15.620 -0.5339  1.3839 -0.2680
 9599TIP3   OH250287   0.393   4.899   5.819  0.0072 -0.3645 -0.1661
 9599TIP3    H150288   0.311   4.943   5.795  1.8832  3.5611 -0.1555
 9599TIP3    H250289   0.452   4.917   5.746  1.9457  0.2079  1.4620
 9600TIP3   OH250290   1.171   6.312   1.130 -0.5139 -0.1948  0.1845
 9600TIP3    H150291   1.122   6.307   1.048  1.4611  0.1634 -1.0848
 9600TIP3    H250292   1.193   6.221   1.151  0.7568 -0.1562 -0.8609
 9601TIP3   OH250293   0.246   3.425   5.426  0.4332  0.2367  0.1344
 9601TIP3    H150294   0.171   3.391   5.474  0.6804  0.7878  0.9264
 9601TIP3    H250295   0.301   3.349   5.410  0.8354  0.1944  1.6157
 9602TIP3   OH250296   1.410   5.934  14.081 -0.1222  0.2956 -0.3101
 9602TIP3    H150297   1.347   5.949  14.151 -0.7192  1.2352 -1.0204
 9602TIP3    H250298   1.448   6.020  14.064  0.1814  0.0363 -0.9837
 9603TIP3   OH250299   6.101   6.173   4.982  0.7051 -0.4993  0.2837
 9603TIP3    H150300   6.132   6.174   5.073  0.2932  0.7940  0.4269
 9603TIP3    H250301   6.092   6.265   4.959 -0.6306 -0.8264 -0.5758
 9604TIP3   OH250302   6.664   2.092  11.389 -0.0353 -0.0025  0.0399
 9604TIP3    H150303   6.757   2.094  11.410 -0.0862 -0.8735  0.3713
 9604TIP3    H250304   6.638   2.000  11.401 -1.2791  0.4823  1.5185
 9605TIP3   OH250305   3.493   0.257  11.267  0.4003 -0.1257 -0.0893
 9605TIP3    H150306   3.469   0.191  11.201  1.0226 -0.6207  0.1691
 9605TIP3    H250307   3.435   0.331  11.248  0.0710 -0.5319 -0.7380
 9606TIP3   OH250308   4.772   2.730   5.800 -0.2993  0.2967 -0.7274
 9606TIP3    H150309   4.783   2.751   5.893 -0.7176 -2.2958 -0.0119
 9606TIP3    H250310   4.814   2.802   5.754  4.3281 -0.5712  1.5180
 9607TIP3   OH250311   0.830   3.193  11.292  0.1823 -0.7812 -0.7971
 9607TIP3    H150312   0.806   3.274  11.247 -0.2195 -0.1407  0.5379
 9607TIP3    H250313   0.786   3.198  11.377  0.8417 -2.0017 -0.3569
 9608TIP3   OH250314   2.242   5.356  13.768  0.1591 -0.7380 -0.4003
 9608TIP3    H150315   2.291   5.430  13.804 -2.4374  0.7381  0.3830
 9608TIP3    H250316   2.303   5.314  13.708  3.2043 -0.5763  2.2718
 9609TIP3   OH250317   0.174   2.350  11.596  0.1222  0.0077  0.3279
 9609TIP3    H150318   0.255   2.335  11.547 -0.4616 -0.8768 -0.4037
 9609TIP3    H250319   0.126   2.268  11.589 -0.2655  0.0750  1.8756
 9610TIP3   OH250320   1.511   5.929  13.742  0.6567 -0.1313  0.2757
 9610TIP3    H150321   1.522   5.925  13.837  0.4089 -1.7619  0.2650
 9610TIP3    H250322   1.460   6.008  13.727  2.1441  1.0731  1.3399
 9611TIP3   OH250323   4.983   1.962  16.582  0.1475  0.4239 -0.1277
 9611TIP3    H150324   4.944   1.881  16.549  0.8587  0.8384 -2.1161
 9611TIP3    H250325   5.031   1.997  16.508  3.1894  0.6465  1.7941
 9612TIP3   OH250326   6.056   3.030   1.977 -0.0168  0.5408  0.7873
 9612TIP3    H150327   5.969   3.037   2.016  0.4344  1.8812  1.6439
 9612TIP3    H250328   6.068   3.112   1.929  0.0909 -0.3953 -0.8615
 9613TIP3   OH250329   4.176   3.977   2.434 -0.6155 -0.2863  0.0256
 9613TIP3    H150330   4.092   4.016   2.459 -0.5473 -0.1556  0.0505
 9613TIP3    H250331   4.234   3.996   2.508 -0.1877  0.7849 -0.5552
 9614TIP3   OH250332   2.417   4.598  16.678  0.6138 -0.3497 -0.4198
 9614TIP3    H150333   2.449   4.672  16.626  2.0935  0.4508  1.4864
 9614TIP3    H250334   2.322   4.608  16.676  0.7453  3.0467  1.5514
 9615TIP3   OH250335   1.146   5.851  15.349 -0.2095  0.4337 -0.5576
 9615TIP3    H150336   1.226   5.816  15.310 -0.0448  0.0428  0.1281
 9615TIP3    H250337   1.075   5.812  15.297  0.0564  2.4979 -2.6223
 9616TIP3   OH250338   6.660   6.415   4.607  0.1720  0.1843  0.0632
 9616TIP3    H150339   6.572   6.388   4.634 -0.1064 -0.2525 -1.1801
 9616TIP3    H250340   6.656   6.511   4.606 -0.6312  0.1587 -0.9840
 9617TIP3   OH250341   2.259   1.280   0.622 -0.0745 -0.0202  0.5844
 9617TIP3    H150342   2.329   1.310   0.680 -0.7567  1.0865  0.8543
 9617TIP3    H250343   2.224   1.360   0.582  0.2103 -0.7237 -1.1889
 9618TIP3   OH250344   3.094   6.592  11.945 -0.2060 -0.6186 -0.5074
 9618TIP3    H150345   3.151   6.519  11.922  0.6730  0.5339 -2.1062
 9618TIP3    H250346   3.014   6.550  11.977  0.9414 -2.2624  0.3509
 9619TIP3   OH250347   0.423   0.072  11.289  0.8290  0.0910 -0.3295
 9619TIP3    H150348   0.369   0.084  11.367  0.5457 -0.9349 -0.3483
 9619TIP3    H250349   0.471  -0.010  11.306  1.3897  0.2978 -0.8776
 9620TIP3   OH250350   2.592   3.098   5.992  0.1514 -0.4881  0.1324
 9620TIP3    H150351   2.626   3.176   6.035 -1.6842  1.3827 -1.6007
 9620TIP3    H250352   2.617   3.108   5.900 -0.3106 -1.8328 -0.1697
 9621TIP3   OH250353   3.624   5.633  15.320  0.6350  0.0428 -0.1459
 9621TIP3    H150354   3.683   5.648  15.394 -0.1901  0.1970  0.4899
 9621TIP3    H250355   3.587   5.546  15.336 -1.1040  0.8966  0.7420
 9622TIP3   OH250356   0.499   0.316  11.542 -0.0560  0.1749 -0.3777
 9622TIP3    H150357   0.408   0.325  11.516  0.2104 -0.4324 -1.5647
 9622TIP3    H250358   0.504   0.229  11.582 -0.1012  0.4238  0.1821
 9623TIP3   OH250359   2.024   0.010  14.256  0.4588  0.0440 -0.8480
 9623TIP3    H150360   2.057   0.057  14.333 -1.5314  0.7805 -0.3997
 9623TIP3    H250361   2.010   0.078  14.191 -1.9221  0.0700 -0.3852
 9624TIP3   OH250362   5.971   1.656  13.793  0.2715  0.5829 -0.5777
 9624TIP3    H150363   6.044   1.596  13.776  0.5999  0.8362 -0.0927
 9624TIP3    H250364   5.952   1.644  13.886 -1.1848 -0.4516 -0.9711
 9625TIP3   OH250365   4.042   5.792   5.397  0.3560 -0.0936 -0.2456
 9625TIP3    H150366   4.072   5.717   5.449 -1.7770 -0.4096  0.6063
 9625TIP3    H250367   3.983   5.840   5.455  0.4257  1.3634 -1.3297
 9626TIP3   OH250368   3.481   0.090  14.725  0.6680  0.6314  0.3926
 9626TIP3    H150369   3.476   0.172  14.774 -1.5842  0.3378  0.7372
 9626TIP3    H250370   3.548   0.039  14.770  0.6285  1.4806  1.4475
 9627TIP3   OH250371   5.205   2.771   2.939 -0.0931  0.0467 -0.1937
 9627TIP3    H150372   5.272   2.703   2.930  0.0152  0.2156 -0.7424
 9627TIP3    H250373   5.174   2.764   3.029  0.1605 -0.5028 -0.1501
 9628TIP3   OH250374   4.275   2.008  11.865 -0.2326 -0.5913  0.0273
 9628TIP3    H150375   4.361   1.989  11.827 -0.6925 -0.6104 -1.0450
 9628TIP3    H250376   4.289   2.003  11.960  1.1582  0.3531 -0.0972
 9629TIP3   OH250377   4.795   4.586   5.235 -0.0414 -0.3687 -0.5843
 9629TIP3    H150378   4.842   4.552   5.160  0.9339 -0.8086  0.2043
 9629TIP3    H250379   4.831   4.674   5.249  1.3576 -1.1130  0.6727
 9630TIP3   OH250380   2.681   1.803  16.981  0.8333  0.2359 -0.2303
 9630TIP3    H150381   2.687   1.831  17.072  1.6342 -0.1914 -0.1505
 9630TIP3    H250382   2.705   1.711  16.982  0.4573  0.1231 -0.8215
 9631TIP3   OH250383   3.772   2.808   4.377  0.4316  0.1338 -0.1557
 9631TIP3    H150384   3.813   2.835   4.459 -0.3102 -1.2475  0.6931
 9631TIP3    H250385   3.842   2.763   4.330  0.2570 -1.1224  0.7510
 9632TIP3   OH250386   4.630   1.866  14.367  0.3590  0.3754 -0.1800
 9632TIP3    H150387   4.542   1.898  14.390  0.4395  1.6011 -1.4845
 9632TIP3    H250388   4.625   1.771  14.383 -0.4546  0.7192  2.0122
 9633TIP3   OH250389   6.665   5.189  10.480 -0.4312 -0.2978  0.7975
 9633TIP3    H150390   6.599   5.159  10.418  1.0403 -0.2581 -0.8768
 9633TIP3    H250391   6.743   5.137  10.460  0.1368 -0.2192  2.5836
 9634TIP3   OH250392   2.600   2.962   3.734  0.2237 -0.0558 -0.7537
 9634TIP3    H150393   2.537   2.908   3.781  1.9530 -1.6032 -0.1013
 9634TIP3    H250394   2.552   2.994   3.658 -0.4412 -4.0813 -2.2529
 9635TIP3   OH250395   2.770   2.998   0.098 -0.3062  0.0052 -0.5779
 9635TIP3    H150396   2.763   3.064   0.166  0.7588  1.6013 -1.9550
 9635TIP3    H250397   2.727   2.921   0.135 -2.2454  1.6520  0.8016
 9636TIP3   OH250398   5.714   4.191  13.994 -0.0504 -0.1359  0.1398
 9636TIP3    H150399   5.712   4.285  14.012  1.0571  0.4216 -2.2111
 9636TIP3    H250400   5.627   4.171  13.959 -0.7192 -0.2988  1.8299
 9637TIP3   OH250401   5.395   6.655  12.411  0.0633  0.4224  0.1372
 9637TIP3    H150402   5.353   6.740  12.424 -0.8924  0.2114 -1.2569
 9637TIP3    H250403   5.351   6.597  12.472  1.5911  1.1252  2.0285
 9638TIP3   OH250404   4.485   0.665  12.557 -0.1899 -0.2201  0.2419
 9638TIP3    H150405   4.481   0.758  12.577 -2.1002 -0.2886  0.3344
 9638TIP3    H250406   4.402   0.645  12.514 -0.4558 -2.1578  1.5106
 9639TIP3   OH250407   1.110   5.657  15.859  0.3948  0.0454 -0.8246
 9639TIP3    H150408   1.149   5.711  15.790  2.3180  0.1442  0.2600
 9639TIP3    H250409   1.185   5.615  15.901 -0.8996 -1.7123 -0.1756
 9640TIP3   OH250410   2.379   1.205   1.572  0.1680 -0.4353  0.2338
 9640TIP3    H150411   2.411   1.296   1.570 -0.9252 -0.0315 -2.2284
 9640TIP3    H250412   2.379   1.182   1.665  2.4926  1.3248  0.7707
 9641TIP3   OH250413   0.740   6.000   2.447 -0.5207 -0.0279 -0.0212
 9641TIP3    H150414   0.703   6.059   2.381 -1.1485 -0.4313 -0.0349
 9641TIP3    H250415   0.669   5.939   2.467  0.0109 -0.5625  0.2518
 9642TIP3   OH250416   5.464   3.923  15.941  0.1956 -0.1789  0.1667
 9642TIP3    H150417   5.487   3.950  16.030  0.1573 -1.1162  0.4740
 9642TIP3    H250418   5.386   3.868  15.952  0.0971 -0.1693 -0.4612
 9643TIP3   OH250419   1.019   4.116  12.068 -0.1578 -0.2528 -0.3061
 9643TIP3    H150420   1.066   4.079  12.142  1.0112 -0.1599 -0.9770
 9643TIP3    H250421   0.953   4.173  12.108  0.6875  0.0808  0.6625
 9644TIP3   OH250422   1.732   5.481   0.336  0.3465 -0.0245  0.3022
 9644TIP3    H150423   1.756   5.539   0.408 -0.5975  0.6434  0.0936
 9644TIP3    H250424   1.799   5.498   0.269  1.0820 -0.4646  0.9048
 9645TIP3   OH250425   3.294   1.012  11.911  0.0006 -0.1299  0.4943
 9645TIP3    H150426   3.286   1.094  11.961 -0.8689 -0.0719  0.2673
 9645TIP3    H250427   3.367   0.966  11.952  0.2737  0.6050  0.8464
 9646TIP3   OH250428   3.821   5.120  15.702 -0.1381  0.3039 -0.7678
 9646TIP3    H150429   3.803   5.213  15.693  1.7454  0.8242  0.2600
 9646TIP3    H250430   3.869   5.112  15.784 -2.3093 -1.9272  0.4074
 9647TIP3   OH250431   0.536   2.205   2.141  0.4658 -0.2823  0.3090
 9647TIP3    H150432   0.519   2.137   2.077 -2.3808  0.1726  0.4550
 9647TIP3    H250433   0.473   2.188   2.212  2.2825  0.2777  2.1754
 9648TIP3   OH250434   3.312   5.463  11.653 -0.2072 -0.4392  0.2234
 9648TIP3    H150435   3.238   5.422  11.609 -0.9352  0.3210  0.6963
 9648TIP3    H250436   3.273   5.508  11.728  0.6981  0.2302  0.3117
 9649TIP3   OH250437   5.909   3.835   5.483  0.0856 -0.8035 -0.3804
 9649TIP3    H150438   5.910   3.928   5.509  0.7343 -1.3375  1.6950
 9649TIP3    H250439   5.839   3.829   5.419 -0.1054  1.0966 -0.4110
 9650TIP3   OH250440   1.730   2.619  11.752  0.5401 -0.1730 -0.4537
 9650TIP3    H150441   1.698   2.708  11.768 -0.9417 -1.1167  2.5188
 9650TIP3    H250442   1.810   2.612  11.804 -0.6845 -1.2473  1.3984
 9651TIP3   OH250443   0.559   1.184  13.042  0.2964  0.1258 -0.2447
 9651TIP3    H150444   0.583   1.156  13.130  1.4650  2.1203  0.1261
 9651TIP3    H250445   0.466   1.164  13.034 -0.4469  2.0485  2.3604
 9652TIP3   OH250446   5.909   5.988   2.115  0.4990 -0.1805  0.2158
 9652TIP3    H150447   5.980   5.969   2.177  0.3236  0.0724  0.4978
 9652TIP3    H250448   5.950   6.044   2.049  0.7860 -0.7642 -0.1172
 9653TIP3   OH250449   6.291   1.132   2.695 -0.0850  0.1112  0.0612
 9653TIP3    H150450   6.314   1.194   2.764 -0.0319 -1.5853  1.6464
 9653TIP3    H250451   6.365   1.135   2.634  0.7487  0.3003  1.0538
 9654TIP3   OH250452   2.643   2.213   2.945  0.2734 -0.2752 -0.2563
 9654TIP3    H150453   2.721   2.159   2.957 -0.3294 -0.7674  1.9122
 9654TIP3    H250454   2.579   2.176   3.006 -1.8934 -0.2551 -2.3676
 9655TIP3   OH250455   5.522   1.733  16.920  0.3099 -0.4414  0.1379
 9655TIP3    H150456   5.561   1.813  16.883 -0.4670 -0.0424  0.1621
 9655TIP3    H250457   5.513   1.752  17.013  1.5920 -1.1743  0.4338
 9656TIP3   OH250458   0.682   4.990   4.814  0.3885  0.2554 -0.4867
 9656TIP3    H150459   0.665   4.950   4.899  1.5995  0.8855  0.0712
 9656TIP3    H250460   0.631   4.937   4.753 -0.2645 -0.3951  0.5850
 9657TIP3   OH250461   4.863   2.153  12.491  0.1295 -0.1135 -0.3802
 9657TIP3    H150462   4.899   2.082  12.439 -0.1551 -0.3752 -0.2294
 9657TIP3    H250463   4.813   2.109  12.560  2.2143  0.1571  1.4120
 9658TIP3   OH250464   6.540   3.661   5.151  0.1771 -0.1072  0.1905
 9658TIP3    H150465   6.523   3.755   5.157  0.3312 -0.0969  0.4983
 9658TIP3    H250466   6.625   3.649   5.194  0.1143 -0.4001  0.2374
 9659TIP3   OH250467   5.263   5.507   1.103  0.4398  0.2727  0.8161
 9659TIP3    H150468   5.324   5.518   1.176 -0.3802  3.3544  1.1633
 9659TIP3    H250469   5.181   5.546   1.134 -0.8938 -1.1359 -0.6911
 9660TIP3   OH250470   6.370   2.839  14.496 -0.0584  0.1521 -0.1581
 9660TIP3    H150471   6.412   2.783  14.431  1.4862  1.5206 -0.4230
 9660TIP3    H250472   6.352   2.921  14.448  0.8662  1.0874  1.0177
 9661TIP3   OH250473   4.280   1.342   0.865 -0.8102  0.0336  0.2304
 9661TIP3    H150474   4.361   1.309   0.825 -1.1094 -0.8475  0.3173
 9661TIP3    H250475   4.297   1.434   0.883 -0.4407  0.3050 -1.3705
 9662TIP3   OH250476   3.631   2.212  12.411  0.4827  1.3440 -0.3015
 9662TIP3    H150477   3.582   2.148  12.358 -0.1178  0.5549  1.1634
 9662TIP3    H250478   3.566   2.278  12.435  0.8431  1.9046 -0.8485
 9663TIP3   OH250479   2.759   6.689  14.042 -0.1506 -1.0144 -0.0747
 9663TIP3    H150480   2.763   6.676  13.948 -0.3522 -0.8087 -0.1106
 9663TIP3    H250481   2.769   6.601  14.079 -0.5601 -1.1531 -0.2963
 9664TIP3   OH250482   4.677   6.001   3.604  0.0415 -0.2281  0.3182
 9664TIP3    H150483   4.748   6.052   3.564  0.2460  0.0609  1.0413
 9664TIP3    H250484   4.721   5.934   3.656 -0.1226  1.2461  2.4952
 9665TIP3   OH250485   3.039   2.588  13.276 -0.2109  1.1279  0.5940
 9665TIP3    H150486   3.091   2.606  13.198 -0.1426  2.2006  0.8634
 9665TIP3    H250487   3.104   2.561  13.341 -0.1376  1.2411  0.5698
 9666TIP3   OH250488   1.011   1.209  13.793  0.7642 -0.2996 -0.6497
 9666TIP3    H150489   0.942   1.155  13.756  1.8702 -1.8339 -0.5443
 9666TIP3    H250490   1.084   1.201  13.732  1.8655 -1.1319  0.7053
 9667TIP3   OH250491   2.748   4.911   1.943 -0.7241  0.2515  0.0166
 9667TIP3    H150492   2.655   4.935   1.950 -0.8889  0.2181 -1.5997
 9667TIP3    H250493   2.754   4.825   1.985 -2.0441 -1.0483 -2.2019
 9668TIP3   OH250494   1.719   1.585   0.172  0.0281 -0.1857  0.3661
 9668TIP3    H150495   1.720   1.675   0.205  1.4562  0.1886 -0.6357
 9668TIP3    H250496   1.645   1.583   0.111  0.3603  0.5046 -0.0776
 9669TIP3   OH250497   3.789   3.002  15.499  0.3988 -0.3612 -0.1044
 9669TIP3    H150498   3.872   3.012  15.454 -0.3030  1.6844 -1.0707
 9669TIP3    H250499   3.728   2.971  15.432 -0.1959  0.7122 -0.0785
 9670TIP3   OH250500   0.049   4.056  10.850 -0.4676 -0.4770  0.4209
 9670TIP3    H150501  -0.005   4.122  10.894 -0.1849 -0.5000  0.8108
 9670TIP3    H250502   0.119   4.107  10.808  0.4677 -0.6076  1.7597
 9671TIP3   OH250503   0.566   4.658   3.582 -0.4615 -0.2419  0.7233
 9671TIP3    H150504   0.640   4.661   3.522  0.4209  0.5105  1.8059
 9671TIP3    H250505   0.494   4.620   3.531  0.1354  0.7711 -0.9261
 9672TIP3   OH250506   0.774   6.585  14.996  0.5233 -0.0551 -0.7246
 9672TIP3    H150507   0.736   6.516  15.051  1.1662 -0.8551 -1.2481
 9672TIP3    H250508   0.702   6.644  14.978  0.3905  0.4930  1.3422
 9673TIP3   OH250509   0.710   6.759  12.941 -0.2634  0.8836 -0.6906
 9673TIP3    H150510   0.773   6.813  12.988  0.0787 -0.1938  0.1472
 9673TIP3    H250511   0.637   6.749  13.002 -1.1663  1.9272 -1.5654
 9674TIP3   OH250512   5.161   4.875  16.144  1.1755  0.2274 -0.5048
 9674TIP3    H150513   5.104   4.804  16.174  3.1100 -0.7824  0.9880
 9674TIP3    H250514   5.191   4.848  16.058  0.1798  0.3340 -0.9042
 9675TIP3   OH250515   6.232   6.792  16.865  0.3364  0.1588  0.6694
 9675TIP3    H150516   6.258   6.866  16.920 -1.7954  1.3064  0.2670
 9675TIP3    H250517   6.136   6.793  16.867  0.2177 -1.0826 -1.3204
 9676TIP3   OH250518   1.390   2.183   2.450  0.3189 -0.5793 -0.4288
 9676TIP3    H150519   1.454   2.121   2.485  2.7654  1.7558 -0.4227
 9676TIP3    H250520   1.403   2.180   2.355  0.3236 -0.2091 -0.4417
 9677TIP3   OH250521   5.127   0.225   4.343 -0.4861  0.7526  0.3802
 9677TIP3    H150522   5.150   0.132   4.332  0.2126  1.1606 -1.9548
 9677TIP3    H250523   5.190   0.257   4.408  1.5130  0.3200 -1.2246
 9678TIP3   OH250524   4.142   5.992  13.374 -0.0223  0.2749 -0.6576
 9678TIP3    H150525   4.047   5.980  13.380 -0.0271  0.2114 -0.8665
 9678TIP3    H250526   4.156   6.083  13.400 -0.1984  0.4569 -1.1988
 9679TIP3   OH250527   2.217   0.142   0.774  0.3803  0.0654 -0.2045
 9679TIP3    H150528   2.160   0.189   0.713  0.9001  0.7843 -0.1582
 9679TIP3    H250529   2.291   0.202   0.788 -0.6312  0.7790  2.6184
 9680TIP3   OH250530   5.306   1.540  11.469 -0.3257  0.1196  0.3421
 9680TIP3    H150531   5.296   1.578  11.381 -1.8091  0.9696  0.8320
 9680TIP3    H250532   5.397   1.557  11.492  0.9768 -2.6553 -2.1283
 9681TIP3   OH250533   3.328   4.530  11.966  0.2875  0.0524  0.0751
 9681TIP3    H150534   3.384   4.517  12.042  2.3786 -1.3435 -1.5752
 9681TIP3    H250535   3.286   4.445  11.953 -1.2271  0.7077  0.4948
 9682TIP3   OH250536   4.533   1.249   5.754 -0.0323  0.0363  0.7108
 9682TIP3    H150537   4.507   1.228   5.844  0.5507  2.3764  1.4924
 9682TIP3    H250538   4.627   1.235   5.752 -0.3677 -2.8000 -0.4564
 9683TIP3   OH250539   6.696   4.296  15.823  0.1241  0.0520 -0.1852
 9683TIP3    H150540   6.776   4.299  15.770 -0.1667 -1.1849 -0.7375
 9683TIP3    H250541   6.727   4.299  15.913  0.7587  0.2323 -0.4035
 9684TIP3   OH250542   2.852   4.727  15.034  0.2201 -0.1297 -0.1574
 9684TIP3    H150543   2.921   4.787  15.061  0.0323  0.0041  0.0208
 9684TIP3    H250544   2.808   4.701  15.115 -0.8423  0.8788 -0.3816
 9685TIP3   OH250545   4.663   2.685  12.801  0.6211  0.2790 -0.7304
 9685TIP3    H150546   4.582   2.634  12.808  0.9254 -0.0680  0.3808
 9685TIP3    H250547   4.635   2.776  12.802  0.2670  0.1677  0.0820
 9686TIP3   OH250548   0.910   6.756   3.306 -0.4062 -0.1390 -0.3263
 9686TIP3    H150549   0.839   6.805   3.348  1.2459 -0.1982  2.8873
 9686TIP3    H250550   0.937   6.811   3.232  0.1336  3.0379  1.9869
 9687TIP3   OH250551   2.512   2.121  13.582  0.2898  0.2020  0.1299
 9687TIP3    H150552   2.437   2.116  13.523  0.2299  1.4869  0.0823
 9687TIP3    H250553   2.524   2.214  13.599  0.7762 -0.0838  1.5579
 9688TIP3   OH250554   3.340   5.385  12.142  0.1323  0.0894  0.1724
 9688TIP3    H150555   3.253   5.422  12.150  0.1385 -0.0770  1.2084
 9688TIP3    H250556   3.389   5.422  12.216  0.7962 -0.1833 -0.1200
 9689TIP3   OH250557   1.041   5.371  16.456 -0.2219  0.0964 -0.1363
 9689TIP3    H150558   1.031   5.277  16.471  2.8620 -0.1466  1.2273
 9689TIP3    H250559   1.014   5.411  16.538 -0.3734  0.2911 -0.2817
 9690TIP3   OH250560   5.490   5.749  15.167  0.0331 -0.2165  0.1284
 9690TIP3    H150561   5.439   5.829  15.171 -0.4594 -0.5681  1.1165
 9690TIP3    H250562   5.452   5.699  15.094 -1.8981 -1.0287  1.6063
 9691TIP3   OH250563   3.434   0.452   0.292  0.8218  0.8177  0.7771
 9691TIP3    H150564   3.386   0.457   0.209  0.7552  2.3310  0.8853
 9691TIP3    H250565   3.456   0.543   0.313  0.7560  0.4853  2.4694
 9692TIP3   OH250566   2.431   1.108  11.180 -0.2567  0.2988 -0.0512
 9692TIP3    H150567   2.514   1.155  11.182 -0.7180  1.1843 -0.7698
 9692TIP3    H250568   2.421   1.082  11.089 -0.5426 -0.2183  0.1275
 9693TIP3   OH250569   2.461   5.676   5.222  0.2096 -0.0678  0.3074
 9693TIP3    H150570   2.368   5.689   5.205  0.1186  2.4043  2.1457
 9693TIP3    H250571   2.505   5.744   5.170  0.5780  1.5828  2.6346
 9694TIP3   OH250572   0.463   5.152  12.262 -0.3193 -0.1361 -0.0595
 9694TIP3    H150573   0.444   5.130  12.171 -1.8284 -1.5521  0.5565
 9694TIP3    H250574   0.379   5.185  12.297  0.0433 -0.2894  0.9965
 9695TIP3   OH250575   6.847   5.210  12.027  0.1802 -0.1614 -0.0228
 9695TIP3    H150576   6.844   5.304  12.006  0.9586  0.0878  0.9124
 9695TIP3    H250577   6.844   5.167  11.942 -1.5895  0.6550 -0.4294
 9696TIP3   OH250578   6.216   6.750   4.055 -0.1161  0.6774 -0.1797
 9696TIP3    H150579   6.138   6.768   4.002  0.0140  2.2822  0.1388
 9696TIP3    H250580   6.184   6.745   4.145  0.0324  0.4738 -0.1365
 9697TIP3   OH250581   5.603   0.681   6.198 -0.0491  0.1612 -0.4778
 9697TIP3    H150582   5.518   0.675   6.241 -0.0552 -0.3057 -0.5528
 9697TIP3    H250583   5.662   0.628   6.252  0.3874  1.1367  0.0286
 9698TIP3   OH250584   2.883   4.114   1.492 -0.1204 -0.4527 -0.3702
 9698TIP3    H150585   2.917   4.161   1.415  2.6495  1.2581  1.7302
 9698TIP3    H250586   2.955   4.059   1.521 -1.1224 -1.1037  0.9909
 9699TIP3   OH250587   2.547   4.963   0.683  0.5686  0.1721 -0.3594
 9699TIP3    H150588   2.472   4.933   0.630 -0.2437  0.9492  0.3328
 9699TIP3    H250589   2.529   4.931   0.771  1.7722 -0.8498 -0.4475
 9700TIP3   OH250590   4.704   1.307   5.458 -0.1686 -0.2850  0.6705
 9700TIP3    H150591   4.646   1.331   5.386 -0.5486  1.2260  1.4272
 9700TIP3    H250592   4.697   1.380   5.519  0.9902 -1.0181  1.7274
 9701TIP3   OH250593   0.798   1.059  15.634 -0.1032  0.6817  0.7776
 9701TIP3    H150594   0.775   1.006  15.557  1.6832 -0.0802  0.7206
 9701TIP3    H250595   0.714   1.087  15.669 -1.0021  0.1643 -0.8447
 9702TIP3   OH250596   3.277   6.698   5.539  0.5912 -0.1076 -0.3108
 9702TIP3    H150597   3.300   6.610   5.567 -0.1789 -0.7286 -1.5077
 9702TIP3    H250598   3.193   6.688   5.494  0.0462  1.3862  0.3049
 9703TIP3   OH250599   4.914   4.932  17.128 -0.1407 -0.1794 -0.3427
 9703TIP3    H150600   4.958   4.991  17.067  0.3305 -0.3548 -0.1781
 9703TIP3    H250601   4.868   4.869  17.073 -0.0979 -0.0578 -0.5176
 9704TIP3   OH250602   4.072   2.712   5.721  0.0524  0.1671 -0.4879
 9704TIP3    H150603   3.998   2.701   5.781 -0.9257 -1.1144 -1.8678
 9704TIP3    H250604   4.071   2.633   5.667  4.1581 -1.3527  1.2308
 9705TIP3   OH250605   6.068   1.252  14.115  0.1115  0.0408  0.0994
 9705TIP3    H150606   6.088   1.159  14.126  1.0109  0.4309  2.1481
 9705TIP3    H250607   5.982   1.263  14.157 -0.8321 -0.1404 -1.6775
 9706TIP3   OH250608   5.700   5.452  13.593 -0.5848 -0.2822  0.2725
 9706TIP3    H150609   5.631   5.504  13.632  1.0411  0.9353  1.6943
 9706TIP3    H250610   5.756   5.515  13.548  0.9264 -0.8733  1.2439
 9707TIP3   OH250611   1.477   6.707   5.239  0.0168  0.2675  0.0718
 9707TIP3    H150612   1.442   6.640   5.180  0.2478  0.4252 -0.2453
 9707TIP3    H250613   1.527   6.658   5.305  0.4462  0.1531 -0.3396
 9708TIP3   OH250614   0.864   4.255   4.551 -0.0065 -0.0250 -0.3989
 9708TIP3    H150615   0.790   4.195   4.547 -0.8100  0.7215  1.8414
 9708TIP3    H250616   0.927   4.213   4.608 -0.9087  1.4546  1.8574
 9709TIP3   OH250617   4.298   5.373   1.060 -0.3056  0.6293 -0.4743
 9709TIP3    H150618   4.358   5.361   0.986  2.3386 -1.1771  1.7700
 9709TIP3    H250619   4.353   5.409   1.130 -2.1060  0.0284  1.3597
 9710TIP3   OH250620   3.111   3.739   2.836 -0.1618 -0.0195 -0.1803
 9710TIP3    H150621   3.103   3.833   2.820  2.2438  0.2135 -0.3245
 9710TIP3    H250622   3.057   3.698   2.769  1.0222  1.2172 -1.9646
 9711TIP3   OH250623   4.250   3.063   4.867  0.2102  0.3343 -0.2767
 9711TIP3    H150624   4.281   3.076   4.956  0.6688  0.2864 -0.4228
 9711TIP3    H250625   4.220   2.972   4.865  3.7890 -1.0005 -1.1552
 9712TIP3   OH250626   4.332   4.521   4.589 -0.0876  0.3041  0.2933
 9712TIP3    H150627   4.278   4.459   4.540 -0.5747 -1.5178  2.8920
 9712TIP3    H250628   4.269   4.584   4.626 -0.1999 -0.4039  1.3610
 9713TIP3   OH250629   5.964   3.890   0.940  0.2064 -0.0043 -0.1061
 9713TIP3    H150630   6.014   3.953   0.992 -2.6189  1.5069  1.0007
 9713TIP3    H250631   5.979   3.806   0.983  0.0254  0.7969  1.6152
 9714TIP3   OH250632   5.615   1.250   3.186 -0.8035  0.6123  0.1761
 9714TIP3    H150633   5.686   1.210   3.135  1.9712  0.6182  3.6203
 9714TIP3    H250634   5.547   1.182   3.189  1.2039 -1.5200  0.7957
 9715TIP3   OH250635   2.188   0.428  14.943 -0.4536 -0.0182 -0.2554
 9715TIP3    H150636   2.205   0.491  14.873 -4.1614  0.7080 -0.7232
 9715TIP3    H250637   2.181   0.343  14.899 -0.3212  0.0242 -0.3592
 9716TIP3   OH250638   0.318   3.271  11.522  0.0180  0.3296  0.1976
 9716TIP3    H150639   0.238   3.249  11.569  0.6819 -0.3046  1.0623
 9716TIP3    H250640   0.317   3.366  11.516 -0.9172  0.3142 -0.0200
 9717TIP3   OH250641   1.526   4.514  13.334 -0.0458 -0.6029 -0.7058
 9717TIP3    H150642   1.449   4.503  13.278 -0.6228 -1.3012  0.2103
 9717TIP3    H250643   1.601   4.497  13.276 -0.6538 -1.9393 -1.1158
 9718TIP3   OH250644   4.713   2.434   4.600 -0.2938 -0.5112  0.2008
 9718TIP3    H150645   4.642   2.388   4.555  0.4023 -2.0401  0.6007
 9718TIP3    H250646   4.791   2.415   4.549  0.3332 -1.4442  1.4504
 9719TIP3   OH250647   6.330   1.899  16.651 -0.0487  0.5548 -0.1286
 9719TIP3    H150648   6.293   1.979  16.613 -0.1038 -0.0550 -1.4258
 9719TIP3    H250649   6.260   1.835  16.642  0.3423  0.1121 -0.0121
 9720TIP3   OH250650   4.610   4.517   3.568  0.0790 -0.0413  0.1719
 9720TIP3    H150651   4.683   4.508   3.629 -0.8741 -3.1832  1.0319
 9720TIP3    H250652   4.540   4.555   3.620  0.0631 -0.2258  0.2843
 9721TIP3   OH250653   4.465   3.642  15.902  0.2578 -0.2759  0.4504
 9721TIP3    H150654   4.539   3.669  15.848 -1.2112 -0.3028 -1.6942
 9721TIP3    H250655   4.424   3.725  15.928  1.0788 -0.2557  1.7632
 9722TIP3   OH250656   4.211   5.247   0.552 -0.0267  0.2672  0.3287
 9722TIP3    H150657   4.139   5.183   0.546  0.5951 -0.6074  1.7190
 9722TIP3    H250658   4.243   5.255   0.462 -1.9123  0.7623 -0.3507
 9723TIP3   OH250659   0.326   4.311  14.346 -0.1583 -0.3922  0.0407
 9723TIP3    H150660   0.375   4.284  14.269 -1.2674  0.2879 -0.9493
 9723TIP3    H250661   0.238   4.331  14.313 -0.7170 -0.2549  1.5121
 9724TIP3   OH250662   5.098   4.459  13.328  0.1057  0.6585  0.1039
 9724TIP3    H150663   5.178   4.467  13.276 -0.7189  0.7501 -1.1940
 9724TIP3    H250664   5.127   4.418  13.409  1.1111 -1.8431 -1.3709
 9725TIP3   OH250665   4.715   1.888  13.036 -0.5001  0.5907  0.3214
 9725TIP3    H150666   4.668   1.854  13.112 -1.6310  1.0796 -0.1376
 9725TIP3    H250667   4.685   1.979  13.029 -0.8672  0.3861 -1.0431
 9726TIP3   OH250668   4.506   4.733  12.812 -0.5265 -0.3730 -0.3928
 9726TIP3    H150669   4.572   4.704  12.749 -1.6704 -1.5067 -1.1129
 9726TIP3    H250670   4.546   4.718  12.898  0.0117 -1.4089 -0.8155
 9727TIP3   OH250671   1.418   0.997  11.990  0.0776  0.6563 -0.0054
 9727TIP3    H150672   1.431   1.091  12.004  2.1065  0.4868 -0.5131
 9727TIP3    H250673   1.406   0.989  11.895 -2.2270  0.5741  0.2282
 9728TIP3   OH250674   3.963   3.751  11.265  0.1564  0.0874 -0.2361
 9728TIP3    H150675   3.990   3.691  11.335  1.8740 -1.2175 -1.8914
 9728TIP3    H250676   3.919   3.694  11.201 -1.7278  1.3097 -0.1058
 9729TIP3   OH250677   1.687   1.864  17.077 -0.0190  0.4425 -0.2808
 9729TIP3    H150678   1.772   1.824  17.097  0.1599  0.7834 -0.3577
 9729TIP3    H250679   1.650   1.807  17.009  0.8735  1.1914 -1.4500
 9730TIP3   OH250680   3.331   4.881   4.167 -0.0947 -0.4062  0.4242
 9730TIP3    H150681   3.353   4.841   4.251 -0.4142 -0.0118  0.7027
 9730TIP3    H250682   3.250   4.929   4.184  0.4347  0.6154  0.1872
 9731TIP3   OH250683   1.875   2.668   5.457  0.3759  0.1189 -0.2968
 9731TIP3    H150684   1.780   2.670   5.470  0.6692  2.2375  2.3917
 9731TIP3    H250685   1.889   2.715   5.375 -0.9114 -1.2591 -1.3572
 9732TIP3   OH250686   6.236   3.001  11.488 -0.2583  0.0392  0.0099
 9732TIP3    H150687   6.283   3.084  11.476 -0.1087 -0.2851 -2.0942
 9732TIP3    H250688   6.200   2.982  11.401  0.1988 -2.3755  0.2951
 9733TIP3   OH250689   3.774   1.790  12.961 -0.2691 -0.6643 -0.3152
 9733TIP3    H150690   3.760   1.734  13.037 -1.2998 -1.4937 -1.0924
 9733TIP3    H250691   3.849   1.845  12.986 -0.2796 -1.2352  1.1012
 9734TIP3   OH250692   0.806   0.301   1.720  0.4723  0.0928 -0.1077
 9734TIP3    H150693   0.827   0.227   1.777  0.3265  0.5881  0.6050
 9734TIP3    H250694   0.832   0.272   1.632  1.6544 -0.3108  0.3553
 9735TIP3   OH250695   1.170   2.294  15.026  0.1980 -0.0847  0.3384
 9735TIP3    H150696   1.246   2.352  15.033  1.7478 -1.6184 -2.0265
 9735TIP3    H250697   1.171   2.243  15.106  0.3816  1.2977  1.2603
 9736TIP3   OH250698   1.929   0.414   5.739 -0.0688 -0.2311  0.0062
 9736TIP3    H150699   2.014   0.415   5.782 -0.9624  0.4682  1.8581
 9736TIP3    H250700   1.914   0.322   5.717  0.8115 -0.4759  0.4027
 9737TIP3   OH250701   0.294   3.871   5.104  0.1292  0.1653  0.2810
 9737TIP3    H150702   0.263   3.783   5.085  1.2807 -0.3422  0.6755
 9737TIP3    H250703   0.214   3.924   5.112 -0.5901 -0.9413  0.5679
 9738TIP3   OH250704   0.803   1.111  12.486  0.5649 -0.4203  0.0527
 9738TIP3    H150705   0.780   1.022  12.513  2.4338 -0.4455  1.7684
 9738TIP3    H250706   0.719   1.155  12.476 -0.3974 -2.2861 -0.5886
 9739TIP3   OH250707   5.760   0.256  13.472  0.3691  0.2111 -0.0779
 9739TIP3    H150708   5.802   0.230  13.554  1.2218 -0.6609 -0.7819
 9739TIP3    H250709   5.830   0.293  13.419  0.3289 -1.3716 -1.3164
 9740TIP3   OH250710   4.919   6.590  16.637 -0.4077 -0.3976  0.1843
 9740TIP3    H150711   5.010   6.619  16.641 -0.6881  0.9240 -1.6896
 9740TIP3    H250712   4.914   6.536  16.558 -0.9310 -1.7818  1.1303
 9741TIP3   OH250713   3.108   2.238  15.361 -0.7988  0.0415  0.2251
 9741TIP3    H150714   3.146   2.255  15.274  0.8463 -1.2099  0.6448
 9741TIP3    H250715   3.183   2.242  15.420 -1.9490  1.2096  1.6796
 9742TIP3   OH250716   6.765   5.430   4.687  0.2907  0.7809 -0.5913
 9742TIP3    H150717   6.756   5.404   4.596 -1.5295 -0.3690 -0.1221
 9742TIP3    H250718   6.840   5.490   4.687 -0.2383  1.5651 -2.9760
 9743TIP3   OH250719   1.729   3.403   3.076  0.3160  0.1231  0.0908
 9743TIP3    H150720   1.814   3.392   3.033  1.0838 -0.0289  1.6013
 9743TIP3    H250721   1.710   3.497   3.066  0.9976  0.2934  0.3469
 9744TIP3   OH250722   2.021   0.831   4.264  0.6388 -0.7424 -0.2662
 9744TIP3    H150723   1.938   0.877   4.273  0.3843 -1.0604 -0.9268
 9744TIP3    H250724   2.085   0.900   4.245  0.2283 -0.6685 -1.4413
 9745TIP3   OH250725   3.674   6.572  15.007 -0.1827  0.2199  0.1192
 9745TIP3    H150726   3.600   6.512  14.997 -0.0397  0.0668 -0.0231
 9745TIP3    H250727   3.635   6.653  15.041 -0.2151 -0.3700  1.5822
 9746TIP3   OH250728   4.180   3.712  13.842  0.5367 -0.4754  0.0791
 9746TIP3    H150729   4.251   3.756  13.794  1.4159 -1.0377  0.8214
 9746TIP3    H250730   4.205   3.619  13.840  0.8666 -0.4609  2.0227
 9747TIP3   OH250731   1.169   3.359  13.895  0.5020 -0.1081 -0.6214
 9747TIP3    H150732   1.210   3.274  13.879 -2.0419 -1.3588 -0.9511
 9747TIP3    H250733   1.152   3.394  13.808 -1.3287 -0.7886 -0.5803
 9748TIP3   OH250734   3.906   2.336   1.699  0.0327  0.4749  0.1013
 9748TIP3    H150735   3.907   2.407   1.763  1.2715 -0.5494  1.2803
 9748TIP3    H250736   3.944   2.374   1.620 -3.0116  2.2448 -0.7058
 9749TIP3   OH250737   1.711   3.019  10.865  0.0394 -0.1548 -0.2664
 9749TIP3    H150738   1.675   3.107  10.868 -1.2618 -0.6810  0.6724
 9749TIP3    H250739   1.651   2.971  10.807 -0.1305 -0.7711  0.4042
 9750TIP3   OH250740   1.445   4.656   3.993 -0.2339  0.0613  0.3446
 9750TIP3    H150741   1.386   4.688   4.062 -2.0457  0.9311 -1.5079
 9750TIP3    H250742   1.531   4.692   4.017 -0.5166 -0.7323  2.7895
 9751TIP3   OH250743   0.131   2.645  16.198  0.0858  0.0515  0.3021
 9751TIP3    H150744   0.178   2.592  16.134 -2.2267 -0.6055 -0.9597
 9751TIP3    H250745   0.194   2.659  16.269  0.7632 -4.8921  1.0337
 9752TIP3   OH250746   5.314   4.571  10.308  0.2582 -0.6140 -0.1154
 9752TIP3    H150747   5.242   4.526  10.265  1.0011 -0.3985 -1.6457
 9752TIP3    H250748   5.392   4.521  10.283  1.3761  2.4008 -3.4375
 9753TIP3   OH250749   1.037   1.352   0.143 -0.4733 -0.0117  0.0483
 9753TIP3    H150750   1.030   1.274   0.088  0.3304  0.2982 -0.4995
 9753TIP3    H250751   0.973   1.413   0.107 -0.9133 -0.3128  0.3115
 9754TIP3   OH250752   2.154   4.858   1.633  0.5998  0.4397  0.2514
 9754TIP3    H150753   2.142   4.772   1.594 -1.7724  0.3782  0.9706
 9754TIP3    H250754   2.132   4.846   1.725  0.2035  1.8198  0.3551
 9755TIP3   OH250755   4.573   4.754   6.200 -0.1446 -0.1047  0.1779
 9755TIP3    H150756   4.489   4.710   6.216 -0.7057  0.5712 -0.8005
 9755TIP3    H250757   4.573   4.772   6.106  1.5393 -0.9552 -0.0158
 9756TIP3   OH250758   0.335   6.533  14.939  0.0654  0.0776 -0.1078
 9756TIP3    H150759   0.298   6.465  14.996  2.3299  1.0264  2.7566
 9756TIP3    H250760   0.399   6.488  14.885 -1.3283 -0.6536 -1.2310
 9757TIP3   OH250761   2.643   0.097   0.931  0.8974 -0.5073 -0.0421
 9757TIP3    H150762   2.730   0.078   0.896  0.4040  0.1587 -1.6864
 9757TIP3    H250763   2.654   0.181   0.977  1.3257 -0.9175  0.6338
 9758TIP3   OH250764   6.090   3.730   3.119 -0.2544 -0.4306  0.5060
 9758TIP3    H150765   6.034   3.688   3.184  0.6567 -2.1369  0.2310
 9758TIP3    H250766   6.174   3.742   3.163 -0.2468  0.3595  0.3040
 9759TIP3   OH250767   3.074   6.065  15.028 -0.1118  0.0188 -0.2908
 9759TIP3    H150768   3.047   6.123  14.957 -1.4740  0.7426  0.7659
 9759TIP3    H250769   3.041   6.108  15.108 -0.4112 -1.7724  0.5934
 9760TIP3   OH250770   3.389   2.595   3.141 -1.0307 -0.2363 -0.1616
 9760TIP3    H150771   3.476   2.565   3.113 -0.5349  0.6118  0.4146
 9760TIP3    H250772   3.343   2.613   3.060  0.3626  2.1223 -0.5299
 9761TIP3   OH250773   5.170   3.373   3.930 -0.7151  0.7343 -0.3712
 9761TIP3    H150774   5.146   3.464   3.948 -0.4832  1.0960 -1.7415
 9761TIP3    H250775   5.089   3.324   3.942 -1.2570  1.3835 -1.2177
 9762TIP3   OH250776   6.751   3.083  15.379 -0.7702  0.2188  0.4352
 9762TIP3    H150777   6.746   3.050  15.469 -0.0528 -0.5348  0.2203
 9762TIP3    H250778   6.781   3.008  15.328 -0.8633  0.7260 -0.3868
 9763TIP3   OH250779   3.997   0.292   5.315  0.3473 -0.3105 -0.1890
 9763TIP3    H150780   3.940   0.357   5.275 -0.8980 -2.3109 -1.8520
 9763TIP3    H250781   3.947   0.260   5.391  0.2659 -0.4238 -0.2897
 9764TIP3   OH250782   3.096   6.315   1.061  0.0991  0.0756 -0.2018
 9764TIP3    H150783   3.040   6.248   1.024  0.5625 -0.3845 -0.0854
 9764TIP3    H250784   3.175   6.313   1.007 -0.5573  1.7040 -1.2699
 9765TIP3   OH250785   3.174   0.787   0.935 -0.3107  0.0659  0.0153
 9765TIP3    H150786   3.143   0.757   0.849 -0.1447  1.2434 -0.4747
 9765TIP3    H250787   3.244   0.726   0.957  0.2547  0.2700 -1.1179
 9766TIP3   OH250788   4.051   1.415  15.056  0.1193  0.0541  0.0687
 9766TIP3    H150789   4.020   1.324  15.052 -1.7656  0.5961  1.1149
 9766TIP3    H250790   4.090   1.430  14.970  1.8461 -2.1661  0.3682
 9767TIP3   OH250791   3.509   1.827   2.655  0.1583  0.1621 -0.1338
 9767TIP3    H150792   3.418   1.803   2.640  0.4331 -0.7773 -0.3914
 9767TIP3    H250793   3.555   1.799   2.576  1.2840 -2.9811  1.4310
 9768TIP3   OH250794   3.698   2.906   0.341  0.3467 -0.0464  0.1498
 9768TIP3    H150795   3.623   2.963   0.328  0.4548  0.2431  0.7402
 9768TIP3    H250796   3.706   2.899   0.436  0.9485 -0.2287  0.0897
 9769TIP3   OH250797   1.751   0.140  17.139  0.5184 -0.9211  0.6540
 9769TIP3    H150798   1.695   0.063  17.153 -0.3085 -0.2877  0.9020
 9769TIP3    H250799   1.711   0.185  17.065 -0.7736  0.8312  2.3220
 9770TIP3   OH250800   6.631   5.030  14.365 -0.2898  0.4241 -0.3403
 9770TIP3    H150801   6.657   4.938  14.354  1.8884  1.0509 -1.0358
 9770TIP3    H250802   6.647   5.049  14.457 -3.7470 -0.6516  0.6276
 9771TIP3   OH250803   6.458   5.377   3.871 -0.2471  0.3236  0.3595
 9771TIP3    H150804   6.364   5.362   3.877 -0.0097 -2.3447 -1.2633
 9771TIP3    H250805   6.482   5.413   3.957 -2.5868  0.1965  1.1223
 9772TIP3   OH250806   4.434   3.437  10.980  0.0292  0.2541 -0.6949
 9772TIP3    H150807   4.459   3.518  11.023 -0.4070 -0.3765  0.7946
 9772TIP3    H250808   4.476   3.368  11.031 -1.5263 -0.5900 -0.4976
 9773TIP3   OH250809   4.207   4.106  11.912 -0.4823  1.5054  0.3224
 9773TIP3    H150810   4.224   4.199  11.895 -1.0430  1.1879 -2.4879
 9773TIP3    H250811   4.158   4.105  11.994  1.8084  3.4249  1.8299
 9774TIP3   OH250812   6.014   2.478   1.990 -1.0203 -0.1358 -0.3799
 9774TIP3    H150813   5.928   2.467   2.030  0.0851 -0.8117  2.0273
 9774TIP3    H250814   6.051   2.555   2.033 -0.0080 -0.5054 -0.5425
 9775TIP3   OH250815   1.707   5.413  11.548  0.0028  0.0679  0.2915
 9775TIP3    H150816   1.626   5.418  11.497  1.5321  1.2847 -2.1820
 9775TIP3    H250817   1.714   5.499  11.590  1.2354  0.9919 -1.6466
 9776TIP3   OH250818   4.607   1.049   2.074 -0.5982  0.9366  0.3320
 9776TIP3    H150819   4.530   1.076   2.025 -0.2266 -0.1025 -0.8819
 9776TIP3    H250820   4.628   1.124   2.129 -2.1996  1.3952  0.3615
 9777TIP3   OH250821   4.875   6.798  12.663  0.0232  0.0271  0.4457
 9777TIP3    H150822   4.838   6.823  12.748  1.2641  0.9572  0.7386
 9777TIP3    H250823   4.880   6.880  12.614  1.8250 -0.0229  0.4909
 9778TIP3   OH250824   2.577   2.737  12.420 -0.2220 -0.0952  0.3089
 9778TIP3    H150825   2.591   2.668  12.355 -0.0423  0.3372 -0.1180
 9778TIP3    H250826   2.665   2.764  12.446 -0.2972 -0.4415  0.9178
 9779TIP3   OH250827   0.168   0.107  13.552  0.3435  0.4645 -0.3584
 9779TIP3    H150828   0.196   0.016  13.566  0.3617  0.3668 -0.9770
 9779TIP3    H250829   0.250   0.156  13.542  0.3280  0.3922 -0.9043
 9780TIP3   OH250830   1.410   4.766  16.904 -0.0722  0.0752  0.3392
 9780TIP3    H150831   1.335   4.756  16.961  2.2137 -2.7338  3.2130
 9780TIP3    H250832   1.373   4.779  16.817 -3.7821  0.1656  1.7676
 9781TIP3   OH250833   5.957   0.770  10.891 -0.5021 -0.0877 -0.1853
 9781TIP3    H150834   6.045   0.733  10.883 -0.5099  0.0043 -0.6812
 9781TIP3    H250835   5.909   0.732  10.818 -0.6952  0.3800 -0.3002
 9782TIP3   OH250836   1.563   0.782  14.326 -0.0959  0.7191  0.0577
 9782TIP3    H150837   1.489   0.778  14.267  1.1237  0.1727 -1.5050
 9782TIP3    H250838   1.639   0.761  14.272  1.1424  0.6442  1.7163
 9783TIP3   OH250839   3.651   5.359   0.531  0.1624  0.6969  0.3886
 9783TIP3    H150840   3.577   5.408   0.495 -1.1779 -0.2972  1.6776
 9783TIP3    H250841   3.679   5.302   0.460 -1.2260  0.0864  0.3066
 9784TIP3   OH250842   3.612   4.021   0.143 -0.1093 -0.4103 -0.6405
 9784TIP3    H150843   3.588   4.105   0.182 -0.3076 -0.7047 -0.1263
 9784TIP3    H250844   3.702   4.034   0.113  0.4343 -0.4955  0.8686
 9785TIP3   OH250845   4.089   6.485   1.242  0.2076  0.1892 -0.1947
 9785TIP3    H150846   4.148   6.561   1.244 -1.4016  1.5483 -1.4188
 9785TIP3    H250847   4.011   6.513   1.289  0.1265 -1.2582  0.6016
 9786TIP3   OH250848   3.314   0.801  12.443  0.3591 -0.2495  0.3928
 9786TIP3    H150849   3.343   0.724  12.492 -0.9012 -0.2965  1.1233
 9786TIP3    H250850   3.331   0.779  12.351  1.5220 -0.7134  0.7055
 9787TIP3   OH250851   4.057   3.225   3.495 -0.0619 -0.9402 -0.3160
 9787TIP3    H150852   4.137   3.269   3.526 -1.3313  0.0642  1.7163
 9787TIP3    H250853   3.997   3.297   3.477 -0.3888 -1.6700 -2.3084
 9788TIP3   OH250854   6.672   5.379  14.438  0.4083 -0.7968  0.1702
 9788TIP3    H150855   6.589   5.331  14.446 -1.4010  2.2790  1.4847
 9788TIP3    H250856   6.739   5.311  14.449 -1.9285 -3.1070  1.4565
 9789TIP3   OH250857   0.379   6.504   4.624 -0.2699 -0.1923 -0.1159
 9789TIP3    H150858   0.286   6.481   4.620 -0.5589  0.8499  0.4366
 9789TIP3    H250859   0.396   6.519   4.716  0.0028  1.3554 -0.3970
 9790TIP3   OH250860   0.215   2.385  13.091  0.1339  0.2702 -0.5973
 9790TIP3    H150861   0.193   2.418  13.004 -0.6470 -1.1460 -0.9599
 9790TIP3    H250862   0.268   2.307  13.075 -0.3724 -0.2486  0.1678
 9791TIP3   OH250863   5.924   0.186   1.512  0.3744  0.0469  0.4158
 9791TIP3    H150864   5.850   0.181   1.572 -0.7364  1.0157 -0.8191
 9791TIP3    H250865   5.919   0.106   1.460  0.9778 -0.5015  1.1804
 9792TIP3   OH250866   5.257   2.001  12.045 -0.1058 -0.0627  0.0846
 9792TIP3    H150867   5.269   1.920  12.095 -1.4533 -0.1314  0.3330
 9792TIP3    H250868   5.315   1.992  11.969  1.0071 -0.5141  0.9665
 9793TIP3   OH250869   0.528   5.806   0.839 -0.5311 -0.0664 -0.5463
 9793TIP3    H150870   0.479   5.731   0.874  1.2097 -0.7551  0.5365
 9793TIP3    H250871   0.565   5.774   0.757 -2.2003  0.6046 -1.6075
 9794TIP3   OH250872   3.556   5.937  16.012  0.0267  0.3139  0.0877
 9794TIP3    H150873   3.485   5.951  15.949  0.5248  0.5812 -0.4316
 9794TIP3    H250874   3.608   6.017  16.008  0.8501 -0.2165 -0.2041
 9795TIP3   OH250875   5.607   5.627  12.984  0.5230 -0.5335 -0.2606
 9795TIP3    H150876   5.609   5.573  13.063 -0.2131 -0.7512 -0.3839
 9795TIP3    H250877   5.697   5.654  12.971  0.3186  1.8380  2.2798
 9796TIP3   OH250878   5.709   3.503  14.937  0.3394 -0.1210 -0.5121
 9796TIP3    H150879   5.673   3.495  15.026  1.2294  2.3738  0.1403
 9796TIP3    H250880   5.788   3.448  14.939 -0.4792 -1.3445 -0.3027
 9797TIP3   OH250881   5.591   0.518   2.103  0.5258 -0.2335  0.9190
 9797TIP3    H150882   5.530   0.500   2.174 -0.6200  0.9852  0.3055
 9797TIP3    H250883   5.584   0.613   2.089  1.1952 -0.3463 -0.3778
 9798TIP3   OH250884   1.910   0.318   3.319  0.2259  0.3696  0.3799
 9798TIP3    H150885   1.929   0.257   3.248 -0.5036 -2.3277  2.3275
 9798TIP3    H250886   1.826   0.289   3.354  1.5360  0.1207  3.7076
 9799TIP3   OH250887   5.379   0.058   2.789  0.9068  0.2915 -0.4209
 9799TIP3    H150888   5.308   0.058   2.725  1.2408 -0.6184 -0.8039
 9799TIP3    H250889   5.458   0.043   2.737  1.0700 -1.5180  0.2915
 9800TIP3   OH250890   5.449   3.912  16.213 -0.0367  0.1324  0.0858
 9800TIP3    H150891   5.521   3.863  16.253 -1.6938 -2.2851  0.3300
 9800TIP3    H250892   5.389   3.929  16.286 -1.4859 -1.3182 -0.7049
 9801TIP3   OH250893   2.552   2.738  11.648  0.2451  0.2432 -0.1456
 9801TIP3    H150894   2.618   2.670  11.663 -0.0143 -0.2263 -1.0620
 9801TIP3    H250895   2.484   2.695  11.596  0.3896  1.3689 -1.3055
 9802TIP3   OH250896   4.214   1.626  16.883  1.0311 -0.3736 -0.7308
 9802TIP3    H150897   4.167   1.708  16.900 -0.8265 -1.2987 -1.0921
 9802TIP3    H250898   4.298   1.637  16.928  1.6123  2.4208 -2.2659
 9803TIP3   OH250899   2.316   1.691  14.140  0.0041 -0.0894 -0.7165
 9803TIP3    H150900   2.382   1.727  14.200  0.5958  0.5343 -1.7203
 9803TIP3    H250901   2.233   1.710  14.183  0.4358 -0.2775  0.2418
 9804TIP3   OH250902   5.134   3.489  16.988  0.0969  0.3950  0.0439
 9804TIP3    H150903   5.197   3.416  16.982  0.4282  0.6763  0.0553
 9804TIP3    H250904   5.056   3.449  17.028 -0.2079 -0.2472 -1.1522
 9805TIP3   OH250905   2.035   2.587  13.544 -0.0102 -0.1646 -0.4411
 9805TIP3    H150906   1.995   2.524  13.484 -2.4337  0.6830  0.1398
 9805TIP3    H250907   2.059   2.535  13.621  0.0735 -0.7378 -0.8490
 9806TIP3   OH250908   6.670   4.507   1.174 -0.1758 -0.7482  0.4417
 9806TIP3    H150909   6.627   4.592   1.178 -0.6870 -0.9744  0.0461
 9806TIP3    H250910   6.673   4.486   1.080 -0.9601 -1.6031  0.5867
 9807TIP3   OH250911   1.316   0.740  16.605  0.3840  0.1095 -0.4636
 9807TIP3    H150912   1.369   0.669  16.642 -1.3356 -0.8805  0.1804
 9807TIP3    H250913   1.303   0.715  16.513  0.6699  0.1559 -0.5189
 9808TIP3   OH250914   5.595   0.903   6.042  0.2090  0.3821  0.4419
 9808TIP3    H150915   5.621   0.836   6.105 -1.5729 -2.2577 -1.4440
 9808TIP3    H250916   5.656   0.893   5.969  1.0887  2.1695  0.8633
 9809TIP3   OH250917   0.711   1.329  16.025 -0.0570  0.2326 -0.3095
 9809TIP3    H150918   0.711   1.247  16.074  2.1374  1.2079  1.5116
 9809TIP3    H250919   0.696   1.397  16.091  0.3230  1.4254 -1.4030
 9810TIP3   OH250920   4.112   4.868   3.103 -0.1713 -0.1177 -0.0773
 9810TIP3    H150921   4.105   4.886   3.009  2.4252  0.9362 -0.1605
 9810TIP3    H250922   4.106   4.954   3.144 -0.9443 -0.5384  0.7235
 9811TIP3   OH250923   6.463   1.947   1.198  0.2868  0.4385  0.2594
 9811TIP3    H150924   6.553   1.931   1.170 -0.1099 -0.1661 -0.7218
 9811TIP3    H250925   6.455   2.043   1.199  0.1951  0.5194 -2.2555
 9812TIP3   OH250926   3.129   0.756  15.062  0.0818 -0.2817  0.4588
 9812TIP3    H150927   3.136   0.705  14.981 -3.2588 -0.5448  0.2105
 9812TIP3    H250928   3.116   0.846  15.033  0.5939 -0.0984  0.7789
 9813TIP3   OH250929   1.328   0.742   6.104 -0.0644  0.4289  0.1791
 9813TIP3    H150930   1.259   0.721   6.167 -2.3478  0.7891 -2.0292
 9813TIP3    H250931   1.382   0.808   6.148  1.8694 -3.1198  3.7851
 9814TIP3   OH250932   5.387   2.458  11.100 -0.1932 -0.3533  0.2654
 9814TIP3    H150933   5.420   2.407  11.174  1.7139 -0.4162 -0.5815
 9814TIP3    H250934   5.403   2.402  11.023 -0.7973  0.3180 -0.3693
 9815TIP3   OH250935   3.928   5.847   4.310 -0.0724 -0.0071  0.3361
 9815TIP3    H150936   3.937   5.763   4.264  1.1908  0.0269  0.4826
 9815TIP3    H250937   3.921   5.912   4.240  1.4019 -0.0025  0.1453
 9816TIP3   OH250938   0.686   1.802  12.866  0.7457  0.1844 -0.3156
 9816TIP3    H150939   0.618   1.845  12.814  0.3309  0.1847  0.2093
 9816TIP3    H250940   0.749   1.872  12.886  1.0164  0.1366 -0.9839
 9817TIP3   OH250941   3.031   6.055   2.162  0.1151 -0.5893  0.3993
 9817TIP3    H150942   3.066   5.967   2.145  1.3971  0.0111 -0.2200
 9817TIP3    H250943   2.943   6.053   2.123  0.8306 -1.0372 -1.2850
 9818TIP3   OH250944   2.993   1.344   0.875 -0.2800 -0.4558 -0.1828
 9818TIP3    H150945   3.080   1.312   0.855 -0.5434 -0.7281 -0.9006
 9818TIP3    H250946   2.953   1.274   0.927  0.0730 -0.1427  0.5317
 9819TIP3   OH250947   4.483   0.933   1.512 -0.4369 -0.3285 -0.0723
 9819TIP3    H150948   4.558   0.889   1.471 -0.4663  0.1572 -0.6585
 9819TIP3    H250949   4.496   1.025   1.492 -0.7256 -0.1416  0.5875
 9820TIP3   OH250950   1.852   6.731   3.228 -0.3132 -0.0167 -0.7590
 9820TIP3    H150951   1.773   6.770   3.191 -0.5627  0.1538 -0.0611
 9820TIP3    H250952   1.882   6.668   3.162  0.1970  1.4649 -1.9860
 9821TIP3   OH250953   3.764   2.708   1.702 -0.1213 -0.0157  0.0526
 9821TIP3    H150954   3.773   2.799   1.729  0.3731  0.1485 -0.6223
 9821TIP3    H250955   3.852   2.683   1.673 -0.4358 -0.4427 -0.5581
 9822TIP3   OH250956   3.751   1.439  13.153  0.0527  0.4858 -0.3399
 9822TIP3    H150957   3.716   1.392  13.229 -0.6839  0.9911 -0.3537
 9822TIP3    H250958   3.768   1.527  13.186  5.1027 -0.6093  0.7778
 9823TIP3   OH250959   5.378   2.189  15.722  0.1491 -0.6210 -0.2433
 9823TIP3    H150960   5.356   2.227  15.637 -1.5432  2.4007  1.3883
 9823TIP3    H250961   5.365   2.095  15.710  0.3735 -0.3601 -3.3798
 9824TIP3   OH250962   3.384   3.345  16.024  0.8950 -0.5129  0.0170
 9824TIP3    H150963   3.408   3.333  16.116 -2.0657 -0.3914  0.9281
 9824TIP3    H250964   3.371   3.439  16.015 -0.9763 -0.7113  0.1681
 9825TIP3   OH250965   6.189   3.309  15.612 -0.0929  0.1724 -0.1655
 9825TIP3    H150966   6.183   3.302  15.516  0.5295  0.6674 -0.2469
 9825TIP3    H250967   6.187   3.219  15.643 -2.3313  0.0462 -0.4977
 9826TIP3   OH250968   1.937   5.686  14.836 -0.2622  0.2308 -0.1500
 9826TIP3    H150969   1.955   5.602  14.879  0.2312  0.1159 -0.5786
 9826TIP3    H250970   2.023   5.722  14.816 -0.3651  1.9113  2.0367
 9827TIP3   OH250971   2.675   4.939  17.069  0.3448 -0.4157 -0.5327
 9827TIP3    H150972   2.676   5.033  17.087 -1.0364 -0.3058 -0.9499
 9827TIP3    H250973   2.742   4.903  17.127 -0.5609  0.5443  1.1849
 9828TIP3   OH250974   1.219   2.872   5.246  0.3001  0.1157  0.1743
 9828TIP3    H150975   1.217   2.843   5.337  0.7501  0.3160  0.2468
 9828TIP3    H250976   1.217   2.791   5.195 -0.3625  0.0119  0.3513
 9829TIP3   OH250977   6.032   5.713   0.202 -0.0653  0.9194 -0.3288
 9829TIP3    H150978   6.126   5.731   0.204  0.2092 -0.2927  2.4641
 9829TIP3    H250979   5.991   5.798   0.219  0.8192  0.8510  2.9587
 9830TIP3   OH250980   5.233   6.767   1.715  0.2203  0.5706 -0.1738
 9830TIP3    H150981   5.179   6.768   1.795 -0.4683  0.9981 -0.6328
 9830TIP3    H250982   5.174   6.798   1.646  1.0915  1.1454 -0.6765
 9831TIP3   OH250983   0.943   2.169  15.415 -0.5604 -0.1700 -0.2094
 9831TIP3    H150984   1.015   2.146  15.474 -0.0713  1.5495 -0.0783
 9831TIP3    H250985   0.883   2.221  15.470 -1.3287 -0.5999 -0.6214
 9832TIP3   OH250986   6.165   3.256   0.648 -0.7933  0.4365 -0.4820
 9832TIP3    H150987   6.121   3.215   0.574 -0.5023 -0.2695 -0.2802
 9832TIP3    H250988   6.098   3.263   0.716 -0.5388 -0.9669 -0.0491
 9833TIP3   OH250989   5.717   5.617   0.829 -0.1506  0.4164  0.5042
 9833TIP3    H150990   5.750   5.598   0.741 -2.5869 -1.1358 -0.1646
 9833TIP3    H250991   5.788   5.590   0.887  0.8765 -0.0649 -0.9097
 9834TIP3   OH250992   6.142   1.002   1.317  0.1953 -0.2922  0.0268
 9834TIP3    H150993   6.192   1.068   1.364  1.3088 -1.6708  0.8713
 9834TIP3    H250994   6.206   0.933   1.296 -1.0646 -1.4841 -0.0842
 9835TIP3   OH250995   6.094   0.119  11.502 -0.3061  0.6885  0.4109
 9835TIP3    H150996   6.112   0.075  11.585 -0.7546  3.9280  2.4131
 9835TIP3    H250997   6.156   0.192  11.500  0.3179  0.2255 -2.6242
 9836TIP3   OH250998   6.100   0.598   5.521 -0.1590  0.0834  0.3474
 9836TIP3    H150999   6.187   0.637   5.515 -0.8412  1.6078 -0.1961
 9836TIP3    H251000   6.063   0.634   5.601 -0.8963  0.8367 -0.3010
 9837TIP3   OH251001   1.579   6.359  12.524  0.3702 -0.3254 -0.1563
 9837TIP3    H151002   1.512   6.389  12.585 -0.2510 -0.6022 -0.6907
 9837TIP3    H251003   1.653   6.418  12.538 -0.3620  0.6451 -0.2896
 9838TIP3   OH251004   0.039   1.120  12.785  0.0995  0.0636 -0.6433
 9838TIP3    H151005   0.068   1.211  12.796 -0.8760  0.1069  3.3329
 9838TIP3    H251006  -0.044   1.116  12.834 -0.7145 -2.6358 -2.0678
 9839TIP3   OH251007   0.666   2.850   3.023 -0.0031 -0.1136 -0.3263
 9839TIP3    H151008   0.701   2.871   3.110 -0.3266  0.3629 -0.3089
 9839TIP3    H251009   0.576   2.824   3.038 -0.1488  0.2534 -0.5502
 9840TIP3   OH251010   1.826   4.712  17.022  0.2878  0.4835 -0.3592
 9840TIP3    H151011   1.904   4.754  17.060  1.0805  0.2734 -1.6942
 9840TIP3    H251012   1.833   4.620  17.051  0.0077  0.6606  0.3028
 9841TIP3   OH251013   3.433   0.873  14.669 -0.5406 -0.3592 -0.1342
 9841TIP3    H151014   3.436   0.963  14.636 -1.6637  0.0582  0.8479
 9841TIP3    H251015   3.381   0.826  14.604  1.7534 -0.8426 -1.7566
 9842TIP3   OH251016   2.700   2.810   2.887  0.2157  0.0324 -0.1737
 9842TIP3    H151017   2.637   2.852   2.828 -0.0122  1.5745  1.1047
 9842TIP3    H251018   2.662   2.820   2.974  1.6454 -0.0824  0.4957
 9843TIP3   OH251019   0.361   4.522  11.777 -0.0233 -0.6864  0.5070
 9843TIP3    H151020   0.391   4.443  11.821 -0.2826 -0.1010  1.7630
 9843TIP3    H251021   0.396   4.594  11.829 -1.5894  0.0226  0.6654
 9844TIP3   OH251022   6.668   5.943   4.870 -0.2090  0.1776 -0.4049
 9844TIP3    H151023   6.590   5.981   4.910  0.3283  0.3331  0.5263
 9844TIP3    H251024   6.647   5.938   4.777 -1.3878  0.0631 -0.1534
 9845TIP3   OH251025   6.799   3.444   5.976 -0.2154  0.5841 -0.8781
 9845TIP3    H151026   6.788   3.368   5.920  0.5394  0.0233 -0.2847
 9845TIP3    H251027   6.714   3.488   5.974 -0.4203  0.1606 -1.8419
 9846TIP3   OH251028   4.257   1.307  16.366 -0.3068 -0.1197 -0.2858
 9846TIP3    H151029   4.322   1.313  16.296 -0.8928  2.1518 -0.7124
 9846TIP3    H251030   4.307   1.320  16.447 -0.1538  1.4324 -0.6003
 9847TIP3   OH251031   3.710   1.104  12.035 -0.1889  0.2009 -0.0251
 9847TIP3    H151032   3.766   1.178  12.057 -0.1331 -0.6205  3.1042
 9847TIP3    H251033   3.762   1.027  12.057 -2.0186 -0.6099  1.8369
 9848TIP3   OH251034   3.038   0.511   0.073 -0.2556 -0.2534 -0.0962
 9848TIP3    H151035   3.078   0.431   0.039  2.2700  0.1411  1.6712
 9848TIP3    H251036   3.026   0.494   0.166 -0.0087  1.3000  0.2419
 9849TIP3   OH251037   2.333   5.887   0.017  0.4462 -0.0168 -0.2156
 9849TIP3    H151038   2.343   5.949   0.089 -0.6946  1.9145 -1.6239
 9849TIP3    H251039   2.420   5.884  -0.024  0.7176  0.0381  0.3520
 9850TIP3   OH251040   4.443   4.283  13.322 -0.1263 -0.1352  0.0038
 9850TIP3    H151041   4.486   4.227  13.258  0.3034  0.8952 -0.6486
 9850TIP3    H251042   4.515   4.327  13.368 -0.3566  2.6214 -2.0101
 9851TIP3   OH251043   2.071   0.982  11.419 -0.7035  0.2089  0.0827
 9851TIP3    H151044   1.980   1.012  11.422 -1.4733 -1.8385 -0.7233
 9851TIP3    H251045   2.112   1.023  11.495 -2.7414 -0.1043  1.4364
 9852TIP3   OH251046   1.076   1.915   0.082  0.1221  0.1399  0.0257
 9852TIP3    H151047   1.027   1.835   0.065 -0.2841  0.1683  0.9710
 9852TIP3    H251048   1.012   1.973   0.124  0.0254  1.4639 -1.8013
 9853TIP3   OH251049   0.835   3.800  16.638  0.1038 -0.1343 -0.4450
 9853TIP3    H151050   0.898   3.728  16.633 -0.4077 -1.0867  3.5113
 9853TIP3    H251051   0.751   3.757  16.654  0.0125  1.1326  3.6184
 9854TIP3   OH251052   1.178   5.389   0.577  0.0713 -0.1627 -0.0780
 9854TIP3    H151053   1.270   5.410   0.562 -0.2085  0.7732 -0.5614
 9854TIP3    H251054   1.144   5.464   0.626 -0.7543  0.1892 -1.1262
 9855TIP3   OH251055   1.486   5.194  11.577 -0.6841 -0.3916 -0.4160
 9855TIP3    H151056   1.399   5.174  11.542 -1.0183 -0.0707  0.2023
 9855TIP3    H251057   1.501   5.285  11.553 -0.4166 -0.5125 -0.7160
 9856TIP3   OH251058   4.220   5.607   3.234 -0.0215  0.2910 -0.2676
 9856TIP3    H151059   4.146   5.547   3.240  0.4036 -0.4129 -1.6677
 9856TIP3    H251060   4.282   5.574   3.300 -0.0414 -0.4639 -0.6113
 9857TIP3   OH251061   4.546   5.683  13.377  0.3650 -0.1958  0.2253
 9857TIP3    H151062   4.518   5.737  13.303  0.3711 -0.6011 -0.0804
 9857TIP3    H251063   4.577   5.602  13.337  0.7397 -0.2665  0.6495
 9858TIP3   OH251064   2.547   5.547  13.370 -0.6776 -0.4072  0.4693
 9858TIP3    H151065   2.642   5.553  13.362 -0.7521  1.1172  0.3292
 9858TIP3    H251066   2.514   5.590  13.290 -1.4524  1.2728  1.6168
 9859TIP3   OH251067   3.408   5.307  15.972 -0.2348 -0.4962 -0.5549
 9859TIP3    H151068   3.414   5.219  15.936  0.1792 -0.7996  0.2240
 9859TIP3    H251069   3.480   5.312  16.035 -0.0197  0.5338 -0.8687
 9860TIP3   OH251070   6.422   3.261   3.919 -0.5532 -0.3821  0.1474
 9860TIP3    H151071   6.367   3.317   3.973 -0.5097 -0.2833  0.0893
 9860TIP3    H251072   6.510   3.299   3.927 -0.8750  0.8695 -1.6094
 9861TIP3   OH251073   2.850   4.948   6.334 -0.2148  0.0704  0.3595
 9861TIP3    H151074   2.815   4.868   6.295 -0.1612  1.2288 -2.2370
 9861TIP3    H251075   2.903   4.988   6.265  1.4378  1.3652  2.2446
 9862TIP3   OH251076   4.876   0.628  14.748 -0.1527 -0.2561  0.3040
 9862TIP3    H151077   4.815   0.594  14.682  0.1851  0.1931 -0.2507
 9862TIP3    H251078   4.960   0.632  14.703 -0.2278  1.5814  0.2372
 9863TIP3   OH251079   3.143   5.578  15.809 -0.3862 -0.0265 -0.3390
 9863TIP3    H151080   3.238   5.572  15.795 -0.2731  0.9558 -0.0972
 9863TIP3    H251081   3.104   5.540  15.731  0.2068 -1.1080 -0.1177
 9864TIP3   OH251082   3.202   2.607   4.955 -0.0932  0.3891  0.1706
 9864TIP3    H151083   3.147   2.675   4.916  1.6199  1.9939  0.4193
 9864TIP3    H251084   3.151   2.526   4.946 -1.2912  1.3200 -2.0600
 9865TIP3   OH251085   5.635   2.823   0.013  0.0507  0.2872  0.0972
 9865TIP3    H151086   5.564   2.783  -0.037 -0.5603  1.0844  0.2908
 9865TIP3    H251087   5.607   2.816   0.105  1.6144 -2.0425  0.4567
 9866TIP3   OH251088   5.809   2.969  15.695 -0.0969  0.0002  0.4323
 9866TIP3    H151089   5.725   2.972  15.648  0.5288  3.9300 -0.8320
 9866TIP3    H251090   5.794   3.022  15.773  1.2582  1.1875 -0.0694
 9867TIP3   OH251091   5.399   5.092  11.770  0.3033 -0.0132  0.0559
 9867TIP3    H151092   5.475   5.103  11.827  0.2144 -0.4630  0.2616
 9867TIP3    H251093   5.421   5.019  11.714 -0.2516 -0.5884  0.5734
 9868TIP3   OH251094   1.367   1.752   5.180 -0.1400  0.3917 -0.5872
 9868TIP3    H151095   1.355   1.697   5.103  0.6926  1.5355 -1.5840
 9868TIP3    H251096   1.444   1.715   5.224  0.9614  1.2310 -1.7349
 9869TIP3   OH251097   6.491   6.231   0.940  0.3677 -0.0892  0.5993
 9869TIP3    H151098   6.422   6.232   0.873 -1.9724  1.2215  2.8201
 9869TIP3    H251099   6.562   6.181   0.901 -0.9984  0.2638 -2.6692
 9870TIP3   OH251100   5.563   5.918   3.385 -0.1300  0.5229 -0.0661
 9870TIP3    H151101   5.609   5.995   3.352 -0.7767  0.9274 -0.0280
 9870TIP3    H251102   5.508   5.889   3.313 -0.9933  0.9715  0.4087
 9871TIP3   OH251103   5.880   4.482   5.981  0.3722  0.1586 -0.5160
 9871TIP3    H151104   5.909   4.552   6.039 -0.1299  0.8131 -1.0389
 9871TIP3    H251105   5.865   4.525   5.896  2.3357 -0.9836 -1.5361
 9872TIP3   OH251106   4.855   3.635  11.951 -0.2570  0.6165  0.0590
 9872TIP3    H151107   4.832   3.556  11.902 -2.5502  2.5568 -2.2988
 9872TIP3    H251108   4.801   3.632  12.029 -0.9921  0.2758 -0.4565
 9873TIP3   OH251109   4.293   3.937   2.180  0.0005  0.1707 -0.0683
 9873TIP3    H151110   4.386   3.955   2.191  0.3182 -1.8693  1.1128
 9873TIP3    H251111   4.256   3.940   2.268 -0.6057 -1.1063 -0.2471
 9874TIP3   OH251112   1.859   4.476  16.363  0.3604  0.1730  0.5499
 9874TIP3    H151113   1.786   4.421  16.338 -0.2171  1.2943 -0.3339
 9874TIP3    H251114   1.880   4.449  16.452 -0.8212 -0.4935  0.6461
 9875TIP3   OH251115   5.333   2.991  10.874  0.6138 -0.1307 -0.0384
 9875TIP3    H151116   5.327   3.045  10.795 -1.8741  0.3226  0.3456
 9875TIP3    H251117   5.243   2.989  10.907  1.1002 -2.4997  1.3370
 9876TIP3   OH251118   6.818   5.122  13.867  0.0193  0.0993  0.3574
 9876TIP3    H151119   6.869   5.144  13.945  2.1273  0.3918 -1.0211
 9876TIP3    H251120   6.806   5.028  13.872 -1.8425  0.3461  2.1055
 9877TIP3   OH251121   1.105   5.072   4.542 -0.3660 -0.4075 -0.4705
 9877TIP3    H151122   1.058   5.066   4.625  0.8471 -0.0015  0.2650
 9877TIP3    H251123   1.146   5.159   4.543  1.6905 -1.3191 -0.3630
 9878TIP3   OH251124   2.001   3.289  13.691 -0.6646  0.0041  0.0336
 9878TIP3    H151125   2.069   3.342  13.647 -0.8899 -0.8281 -1.3813
 9878TIP3    H251126   2.029   3.199  13.676 -1.3248 -0.3177  0.7269
 9879TIP3   OH251127   0.777   0.091   0.419 -0.5415 -0.0675 -0.1624
 9879TIP3    H151128   0.859   0.048   0.397  1.2344  0.7797  3.8770
 9879TIP3    H251129   0.719   0.019   0.445  0.3759 -0.4793  0.8365
 9880TIP3   OH251130   4.674   5.159   1.121 -0.0938  0.5444  0.6520
 9880TIP3    H151131   4.692   5.170   1.215  1.9705  2.5344  0.1221
 9880TIP3    H251132   4.717   5.077   1.098 -0.8523 -0.1002  1.4722
 9881TIP3   OH251133   0.592   6.839   2.954  0.0320 -0.0819 -0.0193
 9881TIP3    H151134   0.572   6.910   3.015 -2.4105  2.3452 -3.3158
 9881TIP3    H251135   0.519   6.777   2.963 -0.1747  0.1245 -0.2797
 9882TIP3   OH251136   1.575   1.124   0.796  0.1492 -0.5141 -0.4583
 9882TIP3    H151137   1.537   1.158   0.877  0.3473 -0.0531 -0.5536
 9882TIP3    H251138   1.579   1.029   0.809 -0.2615 -0.4887 -0.1192
 9883TIP3   OH251139   2.659   0.685   2.654 -0.1283 -0.5065 -0.4345
 9883TIP3    H151140   2.749   0.653   2.664 -0.3037 -0.9262 -0.1781
 9883TIP3    H251141   2.605   0.606   2.655 -0.5886 -0.1959  0.4545
 9884TIP3   OH251142   6.583   3.739  15.173 -0.1204  0.5054  0.2251
 9884TIP3    H151143   6.526   3.801  15.128  0.4863  2.3720  1.8734
 9884TIP3    H251144   6.644   3.709  15.106 -1.0798  0.8823 -0.8429
 9885TIP3   OH251145   6.144   4.776   0.423 -0.4968  0.1882  0.4425
 9885TIP3    H151146   6.162   4.730   0.506 -0.4660 -1.0121 -0.2081
 9885TIP3    H251147   6.231   4.793   0.387 -0.5215 -1.0038 -0.2360
 9886TIP3   OH251148   1.114   4.884  13.516 -0.3248 -0.3632  0.0783
 9886TIP3    H151149   1.160   4.963  13.489  0.4732 -0.4118  1.2581
 9886TIP3    H251150   1.124   4.824  13.443  0.6887 -0.0432 -0.0517
 9887TIP3   OH251151   2.301   4.963  11.289 -0.0575  0.1820  0.1306
 9887TIP3    H151152   2.300   4.903  11.364  0.5952 -0.9078 -0.6996
 9887TIP3    H251153   2.303   5.050  11.328 -0.2539 -0.3472  1.3774
 9888TIP3   OH251154   5.885   6.676   4.584  0.0357 -0.1584 -0.8610
 9888TIP3    H151155   5.832   6.641   4.656 -1.3352  0.2589 -1.6289
 9888TIP3    H251156   5.917   6.760   4.617 -2.1115  0.9184 -1.3462
 9889TIP3   OH251157   6.244   0.761   2.873 -0.6778 -0.4848 -0.1282
 9889TIP3    H151158   6.178   0.829   2.856  1.1551  1.3511 -0.3605
 9889TIP3    H251159   6.310   0.774   2.804  0.1703 -1.9398  0.3701
 9890TIP3   OH251160   5.271   5.945  14.691 -0.0681 -0.3048 -0.0381
 9890TIP3    H151161   5.206   5.975  14.754 -0.7364  0.0112 -0.8524
 9890TIP3    H251162   5.220   5.904  14.621  0.6749 -0.9206 -0.2378
 9891TIP3   OH251163   2.602   3.772  15.962 -0.6235  0.1139  0.0760
 9891TIP3    H151164   2.544   3.762  15.887 -1.6925 -0.6880  0.9825
 9891TIP3    H251165   2.548   3.813  16.029 -0.1750 -0.7032  0.9663
 9892TIP3   OH251166   1.018   3.189  15.981  0.4586  0.0765  0.2841
 9892TIP3    H151167   1.003   3.210  16.073 -1.4833  1.0824 -0.2180
 9892TIP3    H251168   1.114   3.191  15.972  0.8679 -2.2800  2.7194
 9893TIP3   OH251169   5.480   6.589  13.640 -0.1973 -0.0704  0.4935
 9893TIP3    H151170   5.476   6.587  13.544 -1.5540 -0.3330  0.5465
 9893TIP3    H251171   5.514   6.676  13.661 -1.2874  0.5330 -0.1888
 9894TIP3   OH251172   5.836   4.335  11.351  0.2576 -0.1603 -0.3098
 9894TIP3    H151173   5.834   4.280  11.272 -0.3428 -3.1531  1.6230
 9894TIP3    H251174   5.744   4.346  11.375  0.4760 -0.6690  0.8199
 9895TIP3   OH251175   3.147   0.591  11.422  0.2951 -0.4616 -1.0296
 9895TIP3    H151176   3.058   0.555  11.426  0.1497 -0.0579 -0.4445
 9895TIP3    H251177   3.188   0.546  11.349 -0.0269 -1.4859 -0.5958
 9896TIP3   OH251178   3.649   6.782   3.591 -0.0427 -0.3191 -0.3753
 9896TIP3    H151179   3.668   6.705   3.644 -0.7536 -0.9580 -1.0201
 9896TIP3    H251180   3.627   6.850   3.655  0.1594 -0.7715  0.1865
 9897TIP3   OH251181   0.106   6.044   3.126 -0.4032 -0.7967 -0.1373
 9897TIP3    H151182   0.070   5.959   3.102 -0.8920 -0.2250 -1.5880
 9897TIP3    H251183   0.036   6.106   3.105  1.2455  0.3307 -2.8274
 9898TIP3   OH251184   0.496   1.130  12.779 -0.1081  0.1307  0.6453
 9898TIP3    H151185   0.547   1.126  12.860 -1.6006 -1.4705  1.5825
 9898TIP3    H251186   0.490   1.223  12.758  2.3938  0.4297  0.9615
 9899TIP3   OH251187   4.363   5.145  14.882  0.1483 -1.0056  0.7330
 9899TIP3    H151188   4.277   5.103  14.884 -0.1191 -0.5543 -0.3047
 9899TIP3    H251189   4.345   5.237  14.904  0.1606 -0.6296 -0.7451
 9900TIP3   OH251190   3.599   4.363   5.929  0.4386  0.1530 -0.0140
 9900TIP3    H151191   3.538   4.396   5.863  1.1766  0.1367 -0.7219
 9900TIP3    H251192   3.553   4.373   6.012 -0.5246  0.1323 -0.5377
 9901TIP3   OH251193   1.610   0.627   2.078 -0.7277 -0.1730  0.2058
 9901TIP3    H151194   1.537   0.687   2.092  0.3628  1.2905 -0.1911
 9901TIP3    H251195   1.688   0.682   2.079  0.1456 -1.1895 -2.6032
 9902TIP3   OH251196   1.739   4.136   6.521  0.1047  0.7271  0.2012
 9902TIP3    H151197   1.760   4.063   6.579 -3.1416 -2.0963 -1.7810
 9902TIP3    H251198   1.651   4.163   6.547  0.6394  2.9437 -0.1210
 9903TIP3   OH251199   2.918   4.393  13.747 -0.4457  0.6340 -0.5517
 9903TIP3    H151200   2.982   4.395  13.676  0.0747  2.4814 -0.0855
 9903TIP3    H251201   2.840   4.355  13.708  0.8257 -1.4636 -1.2074
 9904TIP3   OH251202   5.498   5.232  16.610  0.4306 -0.5597 -0.6225
 9904TIP3    H151203   5.500   5.305  16.549 -1.7492  0.0900  0.0183
 9904TIP3    H251204   5.530   5.268  16.693 -0.5117 -0.3622 -0.3410
 9905TIP3   OH251205   0.014   1.354   1.836 -0.2062 -0.2059 -0.2658
 9905TIP3    H151206   0.008   1.449   1.846 -0.1278 -0.3780  1.8821
 9905TIP3    H251207   0.099   1.340   1.794  0.2164  0.6511  0.2691
 9906TIP3   OH251208   6.199   0.579   4.209 -0.2599 -0.0765  0.4013
 9906TIP3    H151209   6.107   0.552   4.206  0.1087 -1.3525 -0.3874
 9906TIP3    H251210   6.241   0.512   4.264  0.8254 -1.6747 -2.2042
 9907TIP3   OH251211   0.360   0.723   6.241  0.4290  0.3243  0.3334
 9907TIP3    H151212   0.395   0.705   6.328 -0.2519 -0.5693  0.4443
 9907TIP3    H251213   0.339   0.816   6.243  0.6099  0.3613  1.0636
 9908TIP3   OH251214   0.666   2.654  11.744 -0.2555  0.0416 -0.2630
 9908TIP3    H151215   0.622   2.570  11.755 -0.0626 -0.0511 -0.1913
 9908TIP3    H251216   0.631   2.688  11.661  1.3356 -1.1726 -1.5157
 9909TIP3   OH251217   2.463   3.569  16.654  0.0701  0.3183 -0.0257
 9909TIP3    H151218   2.492   3.483  16.683  0.7123  0.1181 -1.1963
 9909TIP3    H251219   2.417   3.552  16.571 -1.8858  0.8378  0.9098
 9910TIP3   OH251220   6.526   2.508   1.793 -0.0155  0.1657  0.0068
 9910TIP3    H151221   6.488   2.589   1.759  1.1009  0.7402  0.0485
 9910TIP3    H251222   6.476   2.489   1.872 -0.0283  1.0675  0.2306
 9911TIP3   OH251223   6.317   5.228  11.132 -0.2815  0.2149 -0.0426
 9911TIP3    H151224   6.315   5.245  11.038  1.3655 -0.1222 -0.1593
 9911TIP3    H251225   6.231   5.191  11.151 -1.2082  1.6936 -1.1202
 9912TIP3   OH251226   1.220   0.347   2.230 -1.0102 -0.4539  0.1702
 9912TIP3    H151227   1.255   0.270   2.185 -0.7294 -0.1550 -0.1276
 9912TIP3    H251228   1.240   0.420   2.172  0.7257  0.1534  1.4742
 9913TIP3   OH251229   4.006   3.913   5.517 -0.3058 -0.1886 -0.6974
 9913TIP3    H151230   3.947   3.988   5.518 -0.7940 -0.5304 -1.8691
 9913TIP3    H251231   3.953   3.841   5.482 -0.5691 -1.7452  2.5937
 9914TIP3   OH251232   5.703   0.770  13.842  0.1393 -0.7953  0.0580
 9914TIP3    H151233   5.793   0.740  13.856  0.0050 -1.7639 -0.9872
 9914TIP3    H251234   5.650   0.704  13.886 -0.0866 -0.7899 -0.2065
 9915TIP3   OH251235   1.223   3.259  13.440 -0.3215 -0.1335 -0.0992
 9915TIP3    H151236   1.176   3.330  13.484 -0.0423  1.6998 -2.5652
 9915TIP3    H251237   1.157   3.190  13.428 -1.0998  0.4564  0.6540
 9916TIP3   OH251238   3.359   6.060  10.717  0.8989 -0.1402  0.1011
 9916TIP3    H151239   3.404   5.991  10.669  0.3750  1.4119 -2.9228
 9916TIP3    H251240   3.309   6.107  10.649 -1.7938  0.8866  2.5650
 9917TIP3   OH251241   5.653   3.469   4.089 -0.6553  0.0899 -0.4955
 9917TIP3    H151242   5.564   3.436   4.100 -1.2115  0.9316 -2.1645
 9917TIP3    H251243   5.643   3.563   4.076  0.7961  0.8388  2.7922
 9918TIP3   OH251244   0.641   4.373  15.473 -0.8571  0.2604  0.3376
 9918TIP3    H151245   0.684   4.454  15.446 -1.5871  0.8018  0.7712
 9918TIP3    H251246   0.551   4.380  15.439 -0.6461 -0.8489 -0.5445
 9919TIP3   OH251247   2.845   1.692   3.314 -0.0107 -0.3378  0.0783
 9919TIP3    H151248   2.867   1.610   3.358 -1.5918 -1.7532 -1.5929
 9919TIP3    H251249   2.838   1.669   3.222 -0.1229  1.7948 -0.5134
 9920TIP3   OH251250   2.264   0.232   0.368 -0.8667 -0.0255  0.1392
 9920TIP3    H151251   2.292   0.145   0.342 -0.6944 -0.5945  2.1523
 9920TIP3    H251252   2.328   0.291   0.328  0.5196 -0.9998  0.8886
 9921TIP3   OH251253   1.444   6.286   5.775  0.3630 -0.3707 -0.2960
 9921TIP3    H151254   1.362   6.286   5.727  0.3658 -1.8726 -0.3420
 9921TIP3    H251255   1.452   6.197   5.810  1.9339 -0.2408 -0.2485
 9922TIP3   OH251256   4.465   4.418   1.080  0.6625 -0.6293  0.1431
 9922TIP3    H151257   4.459   4.357   1.007 -2.6245 -1.6759  1.1368
 9922TIP3    H251258   4.451   4.504   1.041  0.5148 -1.0000 -0.6384
 9923TIP3   OH251259   2.170   0.453  11.717 -0.3884  0.1422  0.1307
 9923TIP3    H151260   2.255   0.415  11.697 -1.1569 -1.0075 -1.1568
 9923TIP3    H251261   2.180   0.492  11.804  1.3763 -0.1382  0.0820
 9924TIP3   OH251262   4.571   3.774  15.029  0.2535  0.1961  0.7012
 9924TIP3    H151263   4.606   3.800  14.944 -2.0625  1.9502  0.1900
 9924TIP3    H251264   4.611   3.689  15.046  2.2673  0.6610 -1.2031
 9925TIP3   OH251265   5.142   4.352  14.733 -0.1183  0.4396 -0.3886
 9925TIP3    H151266   5.236   4.365  14.734 -0.1208  0.7155 -1.7461
 9925TIP3    H251267   5.127   4.289  14.662 -0.9231  0.1053  0.0629
 9926TIP3   OH251268   5.569   6.007  12.304 -0.2554  0.1322 -0.2707
 9926TIP3    H151269   5.537   6.063  12.233  0.5820  0.5958 -0.2915
 9926TIP3    H251270   5.494   5.953  12.326 -1.5592  2.1816  0.6690
 9927TIP3   OH251271   3.201   4.488   0.848  0.3274  0.5302 -0.2986
 9927TIP3    H151272   3.248   4.462   0.927  2.1637  2.3831 -0.7210
 9927TIP3    H251273   3.219   4.418   0.785 -0.5479 -0.5848  0.6376
 9928TIP3   OH251274   4.060   6.513  14.131 -0.3133  0.1351 -0.3639
 9928TIP3    H151275   4.123   6.585  14.136  1.4417 -1.2879 -1.1425
 9928TIP3    H251276   4.043   6.502  14.038 -1.3162  0.1215 -0.1966
 9929TIP3   OH251277   0.985   0.896  15.814 -0.0373  0.4223 -0.4685
 9929TIP3    H151278   0.952   0.806  15.805  1.5952 -0.1554 -0.9723
 9929TIP3    H251279   0.922   0.949  15.764 -0.7130 -0.5041 -0.6371
 9930TIP3   OH251280   6.323   1.489  16.634  0.0343 -0.1051 -0.6412
 9930TIP3    H151281   6.413   1.518  16.650 -0.7573  2.1301  0.1489
 9930TIP3    H251282   6.310   1.417  16.696  1.1794 -0.2250 -0.5274
 9931TIP3   OH251283   4.533   5.568  17.065 -0.1247 -0.6141 -0.5558
 9931TIP3    H151284   4.528   5.475  17.046  1.2989 -0.6869 -0.6807
 9931TIP3    H251285   4.472   5.581  17.137  0.6959 -1.9229  0.4211
 9932TIP3   OH251286   0.474   6.760  13.111 -0.3206 -0.3311  0.4193
 9932TIP3    H151287   0.451   6.675  13.074  0.5942 -0.1391 -0.6640
 9932TIP3    H251288   0.424   6.823  13.059  0.1886 -0.1235  0.1715
 9933TIP3   OH251289   2.719   0.185   1.377  0.1925  0.2308 -0.0148
 9933TIP3    H151290   2.666   0.224   1.447  2.0100 -0.0631  1.5932
 9933TIP3    H251291   2.674   0.102   1.357 -1.3112  1.1083 -0.4884
 9934TIP3   OH251292   1.707   3.357  15.237  0.5580  0.3506  0.1557
 9934TIP3    H151293   1.760   3.335  15.313  0.9620  0.9228  0.0493
 9934TIP3    H251294   1.617   3.362  15.270  0.8441  1.5133  0.8041
 9935TIP3   OH251295   1.362   0.406  15.215  0.0463  0.2021  0.2631
 9935TIP3    H151296   1.403   0.425  15.131 -0.6710 -0.4798 -0.2622
 9935TIP3    H251297   1.297   0.338  15.194 -1.5790  1.4705  0.9790
 9936TIP3   OH251298   5.693   5.793  13.777 -0.4466 -0.1077 -0.7281
 9936TIP3    H151299   5.611   5.809  13.822 -0.4531 -2.9234  0.5185
 9936TIP3    H251300   5.671   5.793  13.684 -1.4749  0.8520 -0.4959
 9937TIP3   OH251301   3.860   4.146  14.710 -0.0504 -0.0700  0.3649
 9937TIP3    H151302   3.938   4.090  14.712  0.9789  1.3166  0.2550
 9937TIP3    H251303   3.808   4.113  14.636  1.1025 -0.1490 -0.4293
 9938TIP3   OH251304   0.265   3.104  14.679  0.3647 -0.1873  0.5907
 9938TIP3    H151305   0.241   3.040  14.746  1.2569  0.0129  1.1181
 9938TIP3    H251306   0.304   3.177  14.728  0.0553  0.4347 -0.0601
 9939TIP3   OH251307   1.828   1.770  12.883 -0.4902  0.0209 -0.0489
 9939TIP3    H151308   1.786   1.698  12.838 -3.3072 -0.6577  3.2278
 9939TIP3    H251309   1.779   1.848  12.857  0.8285  0.4109 -1.5185
 9940TIP3   OH251310   0.037   0.470  12.309  0.4583  1.0399  0.0232
 9940TIP3    H151311   0.010   0.379  12.317  1.1618  0.7409 -0.7712
 9940TIP3    H251312   0.112   0.467  12.249 -0.3044  2.2655 -1.0452
 9941TIP3   OH251313   3.052   0.430  12.298  0.1254  0.8422  0.1942
 9941TIP3    H151314   3.119   0.404  12.361  0.2098 -0.0843 -0.2487
 9941TIP3    H251315   3.101   0.453  12.219 -0.0850 -0.4240 -0.3284
 9942TIP3   OH251316   1.056   0.440   1.915 -0.8119  0.2069  0.3669
 9942TIP3    H151317   0.977   0.446   1.969 -0.8662 -1.0848  0.4643
 9942TIP3    H251318   1.125   0.477   1.970 -1.1231  0.1807  0.7851
 9943TIP3   OH251319   3.984   0.731  13.778 -0.1534  0.0389 -0.1468
 9943TIP3    H151320   3.955   0.676  13.851 -1.4432  0.9527  0.0587
 9943TIP3    H251321   4.069   0.766  13.807  0.7728 -1.9191 -0.3485
 9944TIP3   OH251322   6.404   6.357   3.689  0.0563  0.1732 -0.3739
 9944TIP3    H151323   6.314   6.386   3.697  0.0955  0.4298 -0.7966
 9944TIP3    H251324   6.412   6.284   3.750  0.1839  1.5862  1.3481
 9945TIP3   OH251325   6.624   6.237  12.464 -0.6310 -0.0674 -0.4015
 9945TIP3    H151326   6.654   6.259  12.376  1.7861 -1.1560  0.0471
 9945TIP3    H251327   6.656   6.308  12.519 -0.6274 -0.2516 -0.1643
 9946TIP3   OH251328   1.760   6.171   5.562 -0.0974  0.0671 -0.1169
 9946TIP3    H151329   1.835   6.169   5.621  0.7683 -1.6926 -1.2173
 9946TIP3    H251330   1.798   6.186   5.476 -1.1881  0.8040 -0.4892
 9947TIP3   OH251331   3.868   5.868   1.505 -0.1738 -0.5292  0.4099
 9947TIP3    H151332   3.872   5.903   1.595 -1.6548  0.0750  0.2651
 9947TIP3    H251333   3.826   5.938   1.454 -0.6764 -1.4381 -0.4526
 9948TIP3   OH251334   1.744   5.151  12.469 -0.4762 -0.3655 -0.0547
 9948TIP3    H151335   1.686   5.074  12.466 -0.0323 -0.6842 -0.9808
 9948TIP3    H251336   1.802   5.134  12.543 -2.1252  0.4008  1.4996
 9949TIP3   OH251337   0.137   3.998  14.929  0.2267 -0.3806  0.2066
 9949TIP3    H151338   0.058   4.017  14.878  1.4865  1.9934 -0.9603
 9949TIP3    H251339   0.127   4.051  15.008 -1.9454 -4.3779  2.9934
 9950TIP3   OH251340   0.966   1.210   1.322  0.1253  0.4301 -0.4051
 9950TIP3    H151341   1.007   1.125   1.335 -2.1391 -1.0995 -2.3679
 9950TIP3    H251342   0.922   1.229   1.405  0.3881 -0.4530 -0.0570
 9951TIP3   OH251343   2.976   4.623  16.152 -0.1774 -0.1819 -0.4502
 9951TIP3    H151344   3.030   4.564  16.100  0.9164 -0.8106  1.3196
 9951TIP3    H251345   2.915   4.565  16.198 -0.5472  0.2834 -0.3426
 9952TIP3   OH251346   3.636   3.450  13.269  0.2292 -0.4334 -0.4088
 9952TIP3    H151347   3.653   3.363  13.233 -0.1827 -0.2595 -1.0432
 9952TIP3    H251348   3.578   3.434  13.343  0.6457 -0.7519 -0.1493
 9953TIP3   OH251349   1.153   3.588   5.126  0.7237 -0.7807  0.3384
 9953TIP3    H151350   1.088   3.550   5.066  0.4112  3.0989 -2.1676
 9953TIP3    H251351   1.104   3.605   5.206 -0.2875 -1.5019 -0.1046
 9954TIP3   OH251352   2.578   6.328   2.871 -0.3447  0.0627  0.3210
 9954TIP3    H151353   2.578   6.413   2.827 -1.4918 -0.3000 -0.4302
 9954TIP3    H251354   2.619   6.268   2.809 -0.1355 -0.0630  0.5785
 9955TIP3   OH251355   2.844   4.566  12.009 -0.2689  0.3365 -0.1195
 9955TIP3    H151356   2.767   4.618  12.030  0.3920  1.5211 -0.5205
 9955TIP3    H251357   2.912   4.630  11.987  0.4404 -0.7026 -1.1237
 9956TIP3   OH251358   1.731   3.818   2.742 -0.2240  0.3520 -0.3532
 9956TIP3    H151359   1.823   3.818   2.769 -0.5452  0.0534  0.7654
 9956TIP3    H251360   1.710   3.726   2.727 -1.0401  0.1095  1.9228
 9957TIP3   OH251361   2.647   2.687   0.906  0.0445 -0.3294  0.6546
 9957TIP3    H151362   2.653   2.766   0.960 -0.0684 -0.2176  0.5028
 9957TIP3    H251363   2.557   2.688   0.872 -0.5573 -1.4508  2.0825
 9958TIP3   OH251364   3.819   5.308   5.190  0.0188  0.7878 -0.0672
 9958TIP3    H151365   3.833   5.403   5.183  0.2930  0.8441  1.0283
 9958TIP3    H251366   3.863   5.284   5.272 -0.0320 -0.2906 -0.3498
 9959TIP3   OH251367   5.081   2.795  16.197  0.0683 -0.1355  0.1431
 9959TIP3    H151368   5.094   2.757  16.110  1.5407  0.6472 -0.0172
 9959TIP3    H251369   5.046   2.724  16.250 -0.7325 -0.6638 -1.0438
 9960TIP3   OH251370   0.720   5.221  16.105  0.0547  0.2358  0.0995
 9960TIP3    H151371   0.659   5.227  16.178  1.1326 -0.2359  1.0639
 9960TIP3    H251372   0.761   5.135  16.114  2.3251  1.3039  0.6925
 9961TIP3   OH251373   0.900   1.427   3.425  0.2446 -1.1696 -0.0924
 9961TIP3    H151374   0.993   1.405   3.427  0.2909 -1.1780 -1.3616
 9961TIP3    H251375   0.879   1.433   3.332 -0.8656 -0.4640  0.1833
 9962TIP3   OH251376   3.566   1.342   3.843 -0.1009 -0.0781 -0.1602
 9962TIP3    H151377   3.541   1.275   3.780  0.3442  0.1898 -0.6338
 9962TIP3    H251378   3.630   1.300   3.900 -0.3513 -0.2625 -0.0171
 9963TIP3   OH251379   3.971   2.045  14.121 -0.1033 -0.5122  0.1021
 9963TIP3    H151380   3.891   2.085  14.154 -1.2839 -2.1268 -0.6509
 9963TIP3    H251381   4.000   2.102  14.050 -0.3959  0.2602  0.5985
 9964TIP3   OH251382   5.108   2.253  16.625 -0.3859 -0.2796  0.2592
 9964TIP3    H151383   5.022   2.294  16.625 -0.1551  0.2772 -1.1906
 9964TIP3    H251384   5.113   2.206  16.708 -1.9846 -0.1296  0.4619
 9965TIP3   OH251385   6.727   5.735   5.762  0.5015 -0.0559 -0.1149
 9965TIP3    H151386   6.700   5.651   5.801  0.2123 -0.9705 -2.1707
 9965TIP3    H251387   6.705   5.800   5.829 -1.0578 -1.4147  0.7759
 9966TIP3   OH251388   2.546   3.638  15.000 -0.7525 -0.0981  0.0411
 9966TIP3    H151389   2.478   3.703  14.987 -0.6718 -0.3457 -1.8767
 9966TIP3    H251390   2.500   3.563  15.039 -1.3885  0.0904 -0.3342
 9967TIP3   OH251391   0.811   2.567   1.560 -0.6111  0.0305  0.2752
 9967TIP3    H151392   0.829   2.473   1.559 -0.0297  0.0625 -3.0729
 9967TIP3    H251393   0.717   2.574   1.581 -0.3429 -1.1308  2.0600
 9968TIP3   OH251394   5.169   3.147   6.134  0.2048  0.3785 -0.8064
 9968TIP3    H151395   5.138   3.057   6.143 -0.6740  0.6516 -1.0919
 9968TIP3    H251396   5.257   3.145   6.174  0.7747 -0.9166 -2.0309
 9969TIP3   OH251397   0.632   4.506  15.868 -0.1915 -0.0197  0.2862
 9969TIP3    H151398   0.646   4.574  15.802  0.8629  0.2774  0.7838
 9969TIP3    H251399   0.690   4.531  15.940  1.2853 -2.1403 -0.0504
 9970TIP3   OH251400   4.700   3.490  10.800  0.0008  0.4574  0.4551
 9970TIP3    H151401   4.688   3.582  10.775 -0.6245  0.0336 -0.9460
 9970TIP3    H251402   4.750   3.452  10.728 -0.2912 -0.4343  0.7116
 9971TIP3   OH251403   0.924   3.083   0.391 -0.0758  0.2773  0.0241
 9971TIP3    H151404   0.840   3.074   0.437  1.3539 -1.4505  2.5180
 9971TIP3    H251405   0.961   2.995   0.391  0.8493  0.5443 -3.0289
 9972TIP3   OH251406   1.754   4.282   5.603 -0.0543 -0.3401  0.0479
 9972TIP3    H151407   1.732   4.254   5.514 -0.9061  0.1448  0.0952
 9972TIP3    H251408   1.726   4.373   5.607 -1.4362 -0.7814  1.2610
 9973TIP3   OH251409   2.014   3.566   5.455  0.1867  0.2825 -0.2372
 9973TIP3    H151410   1.973   3.482   5.476 -0.0578 -0.0472 -1.9354
 9973TIP3    H251411   1.946   3.631   5.471 -0.8393 -0.1964 -2.3667
 9974TIP3   OH251412   6.119   4.246  14.005 -0.3027  0.2723 -0.3324
 9974TIP3    H151413   6.093   4.155  14.022 -2.8015  1.1557  1.1584
 9974TIP3    H251414   6.041   4.286  13.966  0.1371  2.1862  0.6393
 9975TIP3   OH251415   6.056   4.596   1.626  0.1333 -0.1816  0.0563
 9975TIP3    H151416   6.102   4.676   1.603  0.7400 -0.2731  0.8826
 9975TIP3    H251417   5.963   4.618   1.617  0.3011 -0.1354 -2.0794
 9976TIP3   OH251418   5.770   6.776  11.076 -0.0076 -0.2754  1.0412
 9976TIP3    H151419   5.822   6.749  11.151  0.6560 -0.2553  0.5975
 9976TIP3    H251420   5.806   6.860  11.049  0.8496 -1.0253 -0.2852
 9977TIP3   OH251421   3.025   4.890   5.049 -0.0583 -0.0254 -0.2823
 9977TIP3    H151422   3.047   4.960   5.110 -2.3246  0.1736  0.4080
 9977TIP3    H251423   2.968   4.931   4.985 -1.4357 -1.1888  0.1406
 9978TIP3   OH251424   1.056   6.754  10.968  0.1306  0.1902  0.2290
 9978TIP3    H151425   1.043   6.846  10.945 -0.4641  0.5259  1.7157
 9978TIP3    H251426   0.973   6.728  11.008  0.4228 -0.8901  0.1670
 9979TIP3   OH251427   5.031   2.265   4.678  0.1276 -0.6896  0.0985
 9979TIP3    H151428   5.101   2.200   4.687 -0.1048 -0.7184  2.0195
 9979TIP3    H251429   5.076   2.345   4.650  0.8308 -0.9073  0.5841
 9980TIP3   OH251430   5.338   4.381   1.687 -0.0095 -0.7556 -0.3682
 9980TIP3    H151431   5.417   4.429   1.710 -1.0341  1.1286 -0.5464
 9980TIP3    H251432   5.357   4.343   1.601  1.5879 -2.5348  0.7194
 9981TIP3   OH251433   2.057   5.246  13.513 -0.6923 -0.3775 -0.3089
 9981TIP3    H151434   2.145   5.231  13.480 -0.0627  0.0109  1.1287
 9981TIP3    H251435   2.066   5.318  13.575 -1.8399 -1.0088  0.6288
 9982TIP3   OH251436   2.316   4.130   1.431 -0.2484 -0.1121  0.0081
 9982TIP3    H151437   2.270   4.123   1.347  0.1690  1.4671 -0.3862
 9982TIP3    H251438   2.407   4.145   1.407 -0.3812  2.1580  0.6437
 9983TIP3   OH251439   2.330   1.494   6.017 -0.0584 -0.0056  0.3655
 9983TIP3    H151440   2.278   1.525   6.091 -0.3871  0.3813 -0.0183
 9983TIP3    H251441   2.420   1.518   6.038 -0.2540  0.8055  0.2821
 9984TIP3   OH251442   2.917   4.059  13.837 -0.2413 -0.0847 -0.0842
 9984TIP3    H151443   2.959   3.985  13.793 -1.7341 -2.3347  1.9754
 9984TIP3    H251444   2.954   4.137  13.795  2.5534 -1.9425 -1.3520
 9985TIP3   OH251445   3.048   3.319   2.748 -0.0672 -0.4217 -0.3533
 9985TIP3    H151446   2.994   3.242   2.765  0.2074 -1.2732 -2.9565
 9985TIP3    H251447   3.133   3.298   2.788 -0.3666 -0.9069  0.0382
 9986TIP3   OH251448   4.259   4.629   5.446  0.2298 -0.7050 -0.1774
 9986TIP3    H151449   4.220   4.567   5.507 -0.2405  0.0037  0.2583
 9986TIP3    H251450   4.345   4.593   5.426  0.3556 -0.9748  0.8364
 9987TIP3   OH251451   5.730   4.193  14.439 -0.5969  0.0551  0.2633
 9987TIP3    H151452   5.648   4.147  14.421 -0.4986 -0.0976  0.1975
 9987TIP3    H251453   5.704   4.271  14.487 -1.1941  2.0152 -2.9848
 9988TIP3   OH251454   5.237   1.686  12.738  0.4904  0.1596  0.1619
 9988TIP3    H151455   5.317   1.688  12.790  0.4319  0.1805  0.2513
 9988TIP3    H251456   5.267   1.701  12.648  0.4555  1.6547  0.3635
 9989TIP3   OH251457   5.574   0.847   3.785  0.2125 -0.3361  0.4983
 9989TIP3    H151458   5.536   0.885   3.705  2.8375  1.5193 -0.0025
 9989TIP3    H251459   5.574   0.919   3.848 -0.6207 -1.4157  1.7947
 9990TIP3   OH251460   5.697   6.382   4.618 -0.3540  0.4212  0.2397
 9990TIP3    H151461   5.603   6.380   4.601 -0.3934  0.7678  0.3950
 9990TIP3    H251462   5.709   6.459   4.674  0.0742  0.6118 -0.1074
 9991TIP3   OH251463   1.209   5.832   5.298  0.3349 -0.0324  0.1326
 9991TIP3    H151464   1.119   5.857   5.315  0.5345  0.7210  0.1051
 9991TIP3    H251465   1.203   5.756   5.240 -0.2899 -0.5679  0.8805
 9992TIP3   OH251466   0.202   5.787  10.955  0.6662 -0.2901  0.3158
 9992TIP3    H151467   0.254   5.832  10.888 -0.5356 -0.1934 -0.6018
 9992TIP3    H251468   0.153   5.857  10.999  1.1158 -0.4002  0.9993
 9993TIP3   OH251469   2.358   0.844   6.618 -0.4000 -0.0084 -0.3928
 9993TIP3    H151470   2.405   0.920   6.652 -0.7714 -1.4137  3.7104
 9993TIP3    H251471   2.267   0.874   6.609 -0.4649  0.1696  0.7710
 9994TIP3   OH251472   6.575   5.500   5.826  0.5886  0.1411 -0.0860
 9994TIP3    H151473   6.494   5.550   5.817  1.9341  2.1290 -1.9707
 9994TIP3    H251474   6.549   5.423   5.877 -2.0715  1.5904  0.9887
 9995TIP3   OH251475   5.416   6.494  15.030  0.3591 -0.7022 -0.1338
 9995TIP3    H151476   5.483   6.505  14.963  1.1127 -2.8982  0.1691
 9995TIP3    H251477   5.447   6.546  15.104  0.1249  0.7695 -1.0466
 9996TIP3   OH251478   2.556   1.329   2.258  0.5273 -1.0822  0.3039
 9996TIP3    H151479   2.526   1.334   2.167  3.1048 -0.5682 -0.5939
 9996TIP3    H251480   2.597   1.243   2.265  3.0444 -0.0052 -0.0213
 9997TIP3   OH251481   0.773   2.594   2.662 -0.0123 -0.5185 -0.7516
 9997TIP3    H151482   0.790   2.587   2.756  2.5681 -2.5979 -1.2540
 9997TIP3    H251483   0.803   2.682   2.638 -1.1954  0.2353  0.3988
 9998TIP3   OH251484   0.423   2.673  12.859 -0.6193 -0.2957 -0.2272
 9998TIP3    H151485   0.416   2.749  12.916 -1.7279  0.0504 -0.7847
 9998TIP3    H251486   0.493   2.620  12.896 -0.6917  0.3817  0.8972
 9999TIP3   OH251487   4.668   2.352  13.529  0.2627 -0.9245 -0.2675
 9999TIP3    H151488   4.707   2.425  13.480  0.6527 -0.7288  0.3167
 9999TIP3    H251489   4.588   2.389  13.567  0.0186 -1.0453 -0.6545
10000TIP3   OH251490   0.568   1.083  11.785  0.2433 -0.5421  0.6862
10000TIP3    H151491   0.597   1.166  11.746  0.1575 -0.4534  0.8084
10000TIP3    H251492   0.509   1.110  11.855  0.6002 -0.6934  1.0451
10001TIP3   OH251493   1.324   6.824   4.568  0.0060  0.3826  0.5683
10001TIP3    H151494   1.394   6.853   4.511 -0.8422  0.4622 -0.4535
10001TIP3    H251495   1.323   6.728   4.559 -0.2305  0.4072  0.3170
10002TIP3   OH251496   0.102   2.816   5.288  0.1401 -0.2990 -0.3161
10002TIP3    H151497   0.083   2.837   5.197  0.0893  1.1339  0.0101
10002TIP3    H251498   0.062   2.887   5.339  1.3217 -0.3610  0.7447
10003TIP3   OH251499   6.333   2.849   5.605  0.0444 -0.2382  0.1250
10003TIP3    H151500   6.402   2.784   5.619  1.4154  1.1703  0.1819
10003TIP3    H251501   6.298   2.866   5.692 -0.0714 -0.6357  0.1577
10004TIP3   OH251502   3.378   3.559   5.018  0.0057  0.6945  0.1254
10004TIP3    H151503   3.351   3.522   5.102  2.3824  1.0134  1.1112
10004TIP3    H251504   3.409   3.483   4.968 -1.2501  0.5283 -0.4349
10005TIP3   OH251505   5.208   3.437   5.677  0.7377 -0.2532 -0.0484
10005TIP3    H151506   5.201   3.450   5.772  0.4505  0.6173 -0.1715
10005TIP3    H251507   5.292   3.394   5.664  1.2029  0.4597  0.5356
10006TIP3   OH251508   6.097   2.633  13.463 -0.3382  0.5632 -0.3422
10006TIP3    H151509   6.084   2.559  13.523 -1.5142  1.0322  0.0240
10006TIP3    H251510   6.080   2.710  13.517  1.9864  1.1950 -0.4354
10007TIP3   OH251511   3.471   3.436  17.093 -0.2569 -0.7862  0.3425
10007TIP3    H151512   3.546   3.406  17.144  2.0409  0.8833 -1.7841
10007TIP3    H251513   3.489   3.529  17.076 -2.2929 -0.5837 -1.1160
10008TIP3   OH251514   5.931   5.224  11.875  0.2905  0.6204 -0.1409
10008TIP3    H151515   5.909   5.163  11.805 -2.4368  1.6514 -0.3114
10008TIP3    H251516   5.944   5.308  11.831  2.3049  0.5646  0.2633
10009TIP3   OH251517   2.407   0.740  14.258 -0.1611 -0.6145 -0.6019
10009TIP3    H151518   2.427   0.746  14.164  4.6333 -1.6274  0.0873
10009TIP3    H251519   2.421   0.829  14.291 -1.6376 -0.3060 -0.7426
10010TIP3   OH251520   6.709   6.764  13.431 -0.2912 -0.3891  0.1134
10010TIP3    H151521   6.634   6.791  13.484 -0.3238 -1.6581  0.7641
10010TIP3    H251522   6.768   6.720  13.494  1.0127  0.5927 -0.3764
10011TIP3   OH251523   4.514   3.550  16.836  0.1568 -0.4930  0.4021
10011TIP3    H151524   4.563   3.544  16.754 -1.0737 -1.3453 -0.3045
10011TIP3    H251525   4.468   3.634  16.830 -1.6970 -1.5339 -0.8540
10012TIP3   OH251526   6.145   6.783  12.585  0.2079 -0.0507 -0.1668
10012TIP3    H151527   6.142   6.752  12.676 -0.0607  1.3701  0.3427
10012TIP3    H251528   6.063   6.753  12.546  0.0071 -0.0729  0.2681
10013TIP3   OH251529   5.641   1.104  12.642  0.7438 -0.3207  0.3303
10013TIP3    H151530   5.731   1.106  12.674  0.2419  0.5364  1.7585
10013TIP3    H251531   5.588   1.076  12.717 -0.1423 -1.4114 -0.6512
10014TIP3   OH251532   5.018   6.228  11.985  0.3803  0.3707 -0.2258
10014TIP3    H151533   5.058   6.198  12.067 -0.9100 -1.6070 -0.2572
10014TIP3    H251534   4.981   6.313  12.006  1.1372  0.4464  0.8965
10015TIP3   OH251535   6.291   1.172   1.113  0.5180  0.0170  0.0738
10015TIP3    H151536   6.200   1.191   1.136  1.0735  0.6146  1.9567
10015TIP3    H251537   6.330   1.257   1.096  1.1210 -0.0783  0.9171
10016TIP3   OH251538   5.778   3.492  10.792  0.6350 -0.1991  0.0832
10016TIP3    H151539   5.871   3.505  10.774  0.3475  0.6245 -0.9276
10016TIP3    H251540   5.734   3.519  10.711 -0.4475 -1.2620  0.2914
10017TIP3   OH251541   5.952   0.207   3.854  0.6742  0.8831 -0.3110
10017TIP3    H151542   6.028   0.197   3.797 -1.5434  1.6608 -3.6632
10017TIP3    H251543   5.937   0.302   3.859  0.4880  0.8098  1.2138
10018TIP3   OH251544   1.107   3.563   1.488 -0.0729 -0.4641  0.1041
10018TIP3    H151545   1.181   3.512   1.521 -0.3786 -1.1355 -0.2302
10018TIP3    H251546   1.146   3.624   1.424  0.2045 -0.7140  0.0334
10019TIP3   OH251547   0.063   1.730  11.322 -0.3964 -0.6018  0.2933
10019TIP3    H151548   0.101   1.772  11.245  0.5037  0.2367  1.1580
10019TIP3    H251549   0.103   1.644  11.325  1.1833  0.1188  0.9570
10020TIP3   OH251550   1.219   2.669  16.368 -0.2517  0.3430 -0.3965
10020TIP3    H151551   1.288   2.703  16.425 -0.7984  1.9361 -0.6391
10020TIP3    H251552   1.178   2.599  16.419  1.2335 -0.3264 -0.0804
10021TIP3   OH251553   3.908   5.564   2.059  0.5693  0.3827  0.3391
10021TIP3    H151554   3.961   5.487   2.078  0.8909  0.1262 -1.4400
10021TIP3    H251555   3.868   5.586   2.143  2.1037 -0.4568  1.3515
10022TIP3   OH251556   3.192   2.836  15.869  0.0641 -0.6969  0.2165
10022TIP3    H151557   3.259   2.904  15.863  0.5204 -1.1426  0.1706
10022TIP3    H251558   3.170   2.831  15.962 -1.1190  0.5989  0.0299
10023TIP3   OH251559   1.669   0.670   0.681 -0.5248 -0.6051 -0.4134
10023TIP3    H151560   1.710   0.633   0.759  0.5249  0.2003 -0.5543
10023TIP3    H251561   1.606   0.734   0.714 -0.0164 -0.1992 -0.2115
10024TIP3   OH251562   4.003   3.777  15.204 -0.2393  0.0213 -0.7461
10024TIP3    H151563   3.996   3.700  15.147 -0.8957 -1.0134  0.6858
10024TIP3    H251564   4.072   3.755  15.266 -0.9794  0.2459  0.1679
10025TIP3   OH251565   4.459   6.310   4.800 -0.3505  0.1263  0.1478
10025TIP3    H151566   4.459   6.262   4.717  0.0460  0.9299 -0.3345
10025TIP3    H251567   4.546   6.293   4.837  1.3325  3.4181 -1.8423
10026TIP3   OH251568   6.676   0.788  16.344  0.8413 -0.1046  0.5786
10026TIP3    H151569   6.769   0.779  16.361  0.8761  1.7674  1.6026
10026TIP3    H251570   6.638   0.816  16.427 -0.6190 -0.6915  0.1442
10027TIP3   OH251571   5.738   3.733  17.099  0.5439  0.2922 -0.3749
10027TIP3    H151572   5.647   3.759  17.083 -0.1514 -1.9518 -0.5397
10027TIP3    H251573   5.769   3.793  17.167 -0.6812  1.8078 -1.0924
10028TIP3   OH251574   3.274   1.853  14.094 -0.2296  0.4573 -0.2279
10028TIP3    H151575   3.207   1.788  14.114 -1.2314  1.0735 -1.4678
10028TIP3    H251576   3.310   1.878  14.180 -0.3123 -1.1920  0.3077
10029TIP3   OH251577   0.740   5.123  12.347 -1.2158  0.4022 -0.2051
10029TIP3    H151578   0.669   5.173  12.306 -0.3175  0.5603 -1.6100
10029TIP3    H251579   0.814   5.132  12.288 -0.5372 -1.2565  0.3219
10030TIP3   OH251580   4.832   5.851   4.087 -0.1983  0.7376 -0.0287
10030TIP3    H151581   4.738   5.853   4.106 -0.0463 -0.0955  0.9521
10030TIP3    H251582   4.838   5.825   3.996 -0.9382  2.0823 -0.4855
10031TIP3   OH251583   3.285   5.265   0.414 -0.2590  0.0905 -0.3290
10031TIP3    H151584   3.343   5.233   0.484  0.3994  0.3841 -0.7313
10031TIP3    H251585   3.336   5.332   0.369 -0.7435  0.0296 -0.9858
10032TIP3   OH251586   1.745   5.874   5.863 -0.6009  0.5290 -0.1882
10032TIP3    H151587   1.778   5.923   5.939 -1.7443  1.3170 -0.1656
10032TIP3    H251588   1.820   5.867   5.804  0.1017  0.5803  0.6769
10033TIP3   OH251589   2.343   2.182   0.782  0.0320 -0.1162 -0.3484
10033TIP3    H151590   2.261   2.202   0.738 -0.3474 -2.1783 -0.6817
10033TIP3    H251591   2.409   2.183   0.712  0.3870  1.7396 -0.0496
10034TIP3   OH251592   5.302   5.440   1.950 -0.3376  0.2624  0.4505
10034TIP3    H151593   5.299   5.481   2.037 -1.0973  0.0728  0.5239
10034TIP3    H251594   5.258   5.356   1.962 -1.7460  0.8344 -0.4227
10035TIP3   OH251595   0.294   1.988  11.356  0.3822 -0.0243 -0.7541
10035TIP3    H151596   0.254   1.935  11.287 -0.9762 -0.5697  0.4193
10035TIP3    H251597   0.385   1.960  11.358 -0.1885 -1.9564 -0.5048
10036TIP3   OH251598   2.588   3.022  16.671 -0.0165 -0.0424 -0.3110
10036TIP3    H151599   2.565   2.950  16.729  0.8665 -1.4589 -1.6313
10036TIP3    H251600   2.679   3.044  16.694 -0.2563  0.6074  0.0366
10037TIP3   OH251601   3.729   6.172  16.999 -0.2839 -0.1184  0.2109
10037TIP3    H151602   3.719   6.087  17.042  1.2573 -0.3406  0.1621
10037TIP3    H251603   3.683   6.161  16.915 -1.4177 -0.3815  0.8442
10038TIP3   OH251604   0.499   4.636  14.529  0.3929  0.4927  0.1729
10038TIP3    H151605   0.544   4.629  14.445  1.5798 -1.0115  0.8790
10038TIP3    H251606   0.557   4.593  14.592 -2.0553 -1.7440  1.1237
10039TIP3   OH251607   1.288   0.570  14.604  0.1598  0.2782  0.3430
10039TIP3    H151608   1.285   0.486  14.559  2.7200 -0.3979  1.2395
10039TIP3    H251609   1.251   0.632  14.541 -0.8456 -1.3338 -0.7362
10040TIP3   OH251610   0.898   6.271   1.841  0.6477  0.2964 -0.0641
10040TIP3    H151611   0.987   6.292   1.872  0.0396  2.0893  0.5862
10040TIP3    H251612   0.849   6.250   1.920 -0.0901  1.6931 -0.1129
10041TIP3   OH251613   3.392   1.502  11.281 -0.5637  0.2598  0.1533
10041TIP3    H151614   3.406   1.529  11.372  1.7030  1.6828 -0.5243
10041TIP3    H251615   3.448   1.424  11.271 -0.7968  0.1160 -0.0339
10042TIP3   OH251616   4.450   5.032  12.824 -0.2950 -0.1939 -0.4962
10042TIP3    H151617   4.460   4.938  12.842 -1.3428 -0.3558 -0.7006
10042TIP3    H251618   4.508   5.049  12.750  1.0596 -0.3506  0.4896
10043TIP3   OH251619   1.806   4.355   5.000  0.1173  0.1912 -0.0900
10043TIP3    H151620   1.767   4.353   4.913 -2.4649  2.3186  0.8743
10043TIP3    H251621   1.733   4.338   5.060  1.7310 -0.7792  1.7267
10044TIP3   OH251622   5.272   5.627   3.347 -0.4690 -0.5462  0.8700
10044TIP3    H151623   5.179   5.647   3.337  0.1807  1.3692 -3.2035
10044TIP3    H251624   5.290   5.561   3.280  1.7450  2.2205 -1.5405
10045TIP3   OH251625   2.839   3.427   1.038  0.5632 -0.2930 -0.1527
10045TIP3    H151626   2.813   3.471   1.118  0.3434 -2.0235  0.7801
10045TIP3    H251627   2.778   3.459   0.971 -1.1002 -0.9330  1.0050
10046TIP3   OH251628   1.291   0.934   6.771  0.1100  0.4213  0.0477
10046TIP3    H151629   1.262   0.846   6.796 -0.2387  0.2802 -0.8168
10046TIP3    H251630   1.216   0.972   6.726  0.3289  1.0942  0.2485
10047TIP3   OH251631   3.784   2.329  15.635 -0.1546 -0.5899  0.5676
10047TIP3    H151632   3.834   2.287  15.705 -0.7438 -2.0922  0.1352
10047TIP3    H251633   3.707   2.365  15.679 -0.5331 -1.5485  0.7300
10048TIP3   OH251634   6.095   2.605  11.405  0.0320  0.0376  0.1359
10048TIP3    H151635   6.052   2.523  11.431 -2.1032  1.2448  0.6484
10048TIP3    H251636   6.099   2.656  11.485  0.4467  0.8263 -0.3787
10049TIP3   OH251637   6.222   6.720  14.848  0.5040 -0.1967  0.2253
10049TIP3    H151638   6.171   6.795  14.818  1.5900 -0.5480 -2.7707
10049TIP3    H251639   6.157   6.660  14.887 -1.0065  0.4270 -1.2245
10050TIP3   OH251640   5.857   2.510   3.400  0.2556 -0.3356  0.0186
10050TIP3    H151641   5.777   2.530   3.353  0.1957  2.2244  1.0472
10050TIP3    H251642   5.927   2.516   3.334  0.0420  1.9630 -0.0692
10051TIP3   OH251643   5.072   3.288   3.357  0.1530 -0.4573  0.0419
10051TIP3    H151644   4.999   3.266   3.300  1.0340 -0.2902 -1.1926
10051TIP3    H251645   5.100   3.375   3.327 -1.0062  0.8711  2.4803
10052TIP3   OH251646   3.205   0.357   5.561 -0.1476 -0.1206  0.0335
10052TIP3    H151647   3.195   0.280   5.617 -2.6060 -0.0580 -0.2069
10052TIP3    H251648   3.161   0.427   5.610  1.1966  0.9142 -0.1938
10053TIP3   OH251649   5.387   1.494  16.754  0.1969 -0.0700 -0.4862
10053TIP3    H151650   5.460   1.546  16.720  1.3760 -1.6793 -0.5721
10053TIP3    H251651   5.373   1.527  16.842  0.0859  1.2007 -0.9714
10054TIP3   OH251652   5.737   3.055  11.151  0.6249 -0.7417  0.1397
10054TIP3    H151653   5.763   3.078  11.062 -0.4431 -1.3838 -0.3569
10054TIP3    H251654   5.728   2.960  11.149 -0.0043 -0.6983  0.7769
10055TIP3   OH251655   0.863   2.932  17.094 -0.4723 -0.2618 -0.1134
10055TIP3    H151656   0.920   2.883  17.035 -0.2278  0.7207 -0.7328
10055TIP3    H251657   0.862   3.021  17.057 -0.3580  0.3770  1.3348
10056TIP3   OH251658   2.002   0.503  14.251 -0.0055  0.1957 -0.0736
10056TIP3    H151659   1.979   0.501  14.343  1.1808 -1.3268  0.2305
10056TIP3    H251660   1.925   0.467  14.206  0.7739 -2.7528  0.7214
10057TIP3   OH251661   1.318   3.694  12.559  0.0181 -0.8472  0.3571
10057TIP3    H151662   1.237   3.716  12.605  0.2543 -0.7433  0.7227
10057TIP3    H251663   1.337   3.604  12.584  0.5829 -0.5282  1.1123
10058TIP3   OH251664   6.495   0.745   0.158 -0.1521 -0.0173  0.1087
10058TIP3    H151665   6.541   0.822   0.192  2.2838 -0.6825 -1.4269
10058TIP3    H251666   6.407   0.753   0.193  0.5767  2.3748  1.6818
10059TIP3   OH251667   2.730   1.292  14.975 -0.2210  0.0359  0.5935
10059TIP3    H151668   2.644   1.289  15.016 -0.3770  0.9653  0.3546
10059TIP3    H251669   2.783   1.344  15.036 -1.4174  4.8440 -1.9619
10060TIP3   OH251670   4.867   0.540  14.233  0.3604 -0.1101  0.2134
10060TIP3    H151671   4.820   0.616  14.268 -0.4309 -0.2423 -0.5068
10060TIP3    H251672   4.837   0.467  14.286 -1.0701 -0.3601 -0.8616
10061TIP3   OH251673   0.191   1.817  13.957  0.3412  0.7720 -0.0762
10061TIP3    H151674   0.207   1.814  14.051  0.5657 -0.6162 -0.1293
10061TIP3    H251675   0.262   1.870  13.922  1.5669 -0.5524  0.3166
10062TIP3   OH251676   0.419   6.093  14.424  0.2588  0.0822  0.1724
10062TIP3    H151677   0.414   6.179  14.465  1.6622  0.0142  0.5296
10062TIP3    H251678   0.355   6.040  14.473 -0.9297  0.9988 -0.3334
10063TIP3   OH251679   1.450   5.808   1.121 -0.1165  0.4732  0.1493
10063TIP3    H151680   1.417   5.854   1.198 -0.5303 -0.6756  0.6799
10063TIP3    H251681   1.541   5.786   1.144  0.6284  2.3993 -0.7520
10064TIP3   OH251682   1.719   5.454  15.596  0.0188 -0.1954  0.1046
10064TIP3    H151683   1.703   5.546  15.614  2.1448  0.1454  0.4538
10064TIP3    H251684   1.732   5.414  15.682 -1.1450 -0.8986 -0.0225
10065TIP3   OH251685   4.262   3.975   2.710 -0.1264  0.0652 -0.1501
10065TIP3    H151686   4.193   3.919   2.747  1.4192 -1.2659  0.8249
10065TIP3    H251687   4.334   3.969   2.773  1.0225  1.1668 -1.3086
10066TIP3   OH251688   2.676   2.122  14.971  0.1898  0.3597 -0.0580
10066TIP3    H151689   2.738   2.141  15.042 -0.6201  0.3304  0.6736
10066TIP3    H251690   2.717   2.160  14.893  0.3858  1.7460  0.6919
10067TIP3   OH251691   2.640   6.402  13.781  0.1923  0.3085  0.0663
10067TIP3    H151692   2.619   6.432  13.692 -0.8672 -1.7534 -0.4487
10067TIP3    H251693   2.668   6.481  13.827  1.6485  1.3223 -2.3297
10068TIP3   OH251694   3.163   2.649  13.051  0.7211  0.0693  0.1934
10068TIP3    H151695   3.211   2.642  12.969  2.2848  1.8134  0.8934
10068TIP3    H251696   3.101   2.721  13.037 -0.5941 -1.0839 -0.1485
10069TIP3   OH251697   0.643   6.829  12.199  0.1515  0.0520  0.6214
10069TIP3    H151698   0.612   6.777  12.273  0.9045 -0.8862  0.2979
10069TIP3    H251699   0.720   6.782  12.167  1.5637  1.9547  1.0231
10070TIP3   OH251700   4.862   0.626   2.891  0.7015 -0.0042  0.0360
10070TIP3    H151701   4.815   0.664   2.965 -0.1284 -1.7796  0.4792
10070TIP3    H251702   4.830   0.536   2.886 -1.1779  0.6558 -4.0120
10071TIP3   OH251703   2.258   3.551   1.165  0.6121 -0.6152  0.1008
10071TIP3    H151704   2.272   3.553   1.071  0.0357 -1.7470 -0.0214
10071TIP3    H251705   2.175   3.505   1.177  0.4012 -0.0099  1.1388
10072TIP3   OH251706   2.719   6.139   4.117 -0.2603 -0.1131  0.2693
10072TIP3    H151707   2.774   6.126   4.195  0.0413 -1.2061 -0.1013
10072TIP3    H251708   2.678   6.053   4.103  1.2815 -0.5458 -1.9688
10073TIP3   OH251709   0.600   5.705   0.584 -0.9371 -0.1110 -0.8782
10073TIP3    H151710   0.679   5.654   0.601 -0.5748  0.6859 -0.0953
10073TIP3    H251711   0.601   5.722   0.490  0.0444  0.2336 -0.8154
10074TIP3   OH251712   4.246   2.304  13.000  0.5072 -0.3258  1.1924
10074TIP3    H151713   4.238   2.398  12.987  1.3387 -0.2736  0.9793
10074TIP3    H251714   4.248   2.267  12.912 -0.4782 -0.6135  1.2800
10075TIP3   OH251715   0.092   3.683   4.807 -0.0945  0.4103  0.6894
10075TIP3    H151716   0.086   3.697   4.902  0.1796  0.8416  0.6492
10075TIP3    H251717   0.160   3.745   4.779  2.1389 -1.8704  0.6734
10076TIP3   OH251718   4.101   5.650  15.089  0.2418 -0.2937 -0.1693
10076TIP3    H151719   4.048   5.577  15.056  0.0289  0.1787 -0.8989
10076TIP3    H251720   4.116   5.705  15.013  1.9423 -0.4873 -0.0184
10077TIP3   OH251721   0.308   3.778   0.500  0.5034 -0.2893 -0.0770
10077TIP3    H151722   0.345   3.720   0.567  0.6092 -0.2918 -0.1369
10077TIP3    H251723   0.361   3.857   0.504 -2.2329  1.6113  2.9445
10078TIP3   OH251724   4.126   2.123   1.110 -0.0197  0.4668 -0.1874
10078TIP3    H151725   4.186   2.176   1.057 -0.5924  0.3986 -0.9171
10078TIP3    H251726   4.132   2.160   1.198  1.8160 -0.1264 -0.0077
10079TIP3   OH251727   2.853   5.631  12.894  0.5106  0.0941  0.5107
10079TIP3    H151728   2.788   5.673  12.837  0.5451 -1.8117 -1.0562
10079TIP3    H251729   2.803   5.564  12.941  1.2035 -1.1004 -0.3934
10080TIP3   OH251730   0.140   1.700   1.531  0.0201  0.1827 -0.0719
10080TIP3    H151731   0.058   1.720   1.577  0.3171 -0.7178  0.8847
10080TIP3    H251732   0.208   1.712   1.597  0.4398 -1.2382 -0.2198
10081TIP3   OH251733   3.868   3.486  16.667 -0.9345 -0.4636 -0.0734
10081TIP3    H151734   3.889   3.528  16.583 -0.0632 -1.7779 -0.5418
10081TIP3    H251735   3.776   3.509  16.683 -1.2815 -0.6436 -1.6695
10082TIP3   OH251736   4.208   4.403   5.598 -0.1566  0.1779  0.9344
10082TIP3    H151737   4.196   4.309   5.587  1.3961  0.0737 -0.2247
10082TIP3    H251738   4.260   4.412   5.678 -0.6586  0.0948  1.2759
10083TIP3   OH251739   0.176   6.481   3.059  0.0212  0.3851  0.2387
10083TIP3    H151740   0.185   6.391   3.026  0.1725  0.9576 -1.3899
10083TIP3    H251741   0.131   6.527   2.988  1.4257  1.9811  0.3290
10084TIP3   OH251742   4.060   3.479  14.592 -0.0194 -0.2917  0.3150
10084TIP3    H151743   4.047   3.527  14.674  1.1707 -0.4925  0.6281
10084TIP3    H251744   3.973   3.442  14.572 -0.4327  0.1693  1.2117
10085TIP3   OH251745   1.686   5.576  11.773 -0.0820  0.6206  0.2024
10085TIP3    H151746   1.600   5.562  11.813  0.3356 -2.0657  0.3339
10085TIP3    H251747   1.736   5.623  11.840 -0.5142 -0.5982  1.4182
10086TIP3   OH251748   4.538   3.720   3.575 -0.1456  0.0463  0.1557
10086TIP3    H151749   4.595   3.718   3.651  1.5516  3.3260 -0.8504
10086TIP3    H251750   4.516   3.812   3.563 -3.3477 -0.7462 -1.2805
10087TIP3   OH251751   6.075   3.052  15.407 -0.0184 -0.3096  0.6828
10087TIP3    H151752   6.114   2.969  15.382 -0.2958 -0.7767  1.7652
10087TIP3    H251753   6.078   3.053  15.502 -0.9316  0.4777  0.7215
10088TIP3   OH251754   3.789   3.267   4.377 -0.3267  0.2766 -0.0348
10088TIP3    H151755   3.854   3.269   4.448 -0.7021 -3.7578  0.6766
10088TIP3    H251756   3.824   3.203   4.314 -1.1329  2.0226 -2.4003
10089TIP3   OH251757   2.847   4.900   3.329  0.3480  0.0995 -0.4773
10089TIP3    H151758   2.848   4.839   3.255  0.7544 -1.5026  0.7800
10089TIP3    H251759   2.841   4.986   3.289  0.8235 -0.6937 -2.3840
10090TIP3   OH251760   2.578   4.466  11.807 -0.4192 -0.1215 -0.2562
10090TIP3    H151761   2.668   4.498  11.816 -1.1658  1.8759  0.7389
10090TIP3    H251762   2.523   4.544  11.819 -2.2953 -1.2242 -1.1555
10091TIP3   OH251763   1.960   1.566   2.867  0.4828 -0.1625  0.1193
10091TIP3    H151764   1.965   1.578   2.961  2.1566  2.6188 -0.2099
10091TIP3    H251765   1.872   1.594   2.843 -0.6425 -2.6508  0.9376
10092TIP3   OH251766   4.050   0.251   0.938 -0.3285 -0.1870 -0.2748
10092TIP3    H151767   4.080   0.216   0.854  1.9403 -1.3647  0.9305
10092TIP3    H251768   3.998   0.328   0.915  0.1498 -0.5184 -2.7417
10093TIP3   OH251769   3.860   2.549   3.638 -0.0096 -0.0122 -0.4486
10093TIP3    H151770   3.847   2.544   3.733  0.9510 -0.5854 -0.3284
10093TIP3    H251771   3.862   2.643   3.619  3.0417  0.2791  0.6480
10094TIP3   OH251772   1.322   5.785   4.546  0.3627  0.2703  0.4219
10094TIP3    H151773   1.259   5.776   4.617 -0.8705  0.8295 -0.5651
10094TIP3    H251774   1.399   5.825   4.586 -0.5407  1.1370  1.3283
10095TIP3   OH251775   6.308   2.554  14.790  0.0620 -0.6379 -0.2089
10095TIP3    H151776   6.254   2.630  14.769  1.1452 -0.1580 -1.3326
10095TIP3    H251777   6.279   2.486  14.730  2.0074  0.2300 -2.2830
10096TIP3   OH251778   3.282   2.272  12.564  0.6023  0.2709 -0.0912
10096TIP3    H151779   3.326   2.324  12.497  0.6111  1.0421  0.4995
10096TIP3    H251780   3.346   2.266  12.636  0.4669 -0.2517 -0.0107
10097TIP3   OH251781   3.171   4.045  11.905 -0.3386 -0.6865 -0.3720
10097TIP3    H151782   3.095   3.994  11.877 -0.9135 -0.7926  1.2728
10097TIP3    H251783   3.146   4.136  11.888 -1.5477 -0.5856  1.6191
10098TIP3   OH251784   3.043   2.043   1.391  0.2535  0.0650  0.7743
10098TIP3    H151785   3.124   2.092   1.381 -0.5621  1.0846 -1.6336
10098TIP3    H251786   2.982   2.085   1.331 -1.0222 -2.8075 -0.1104
10099TIP3   OH251787   3.210   1.659  13.003  0.0589  0.1196  0.2046
10099TIP3    H151788   3.122   1.627  12.981  0.0310 -0.0872  0.5982
10099TIP3    H251789   3.260   1.579  13.022 -0.0272  0.2937  1.2543
10100TIP3   OH251790   3.011   6.443  16.412  0.6084 -0.1938  0.3378
10100TIP3    H151791   3.102   6.471  16.421  0.4498  0.0509  1.2058
10100TIP3    H251792   2.988   6.407  16.497 -0.1854 -0.0183  0.2024
10101TIP3   OH251793   5.507   5.928   0.910 -0.1554  0.3803 -0.0150
10101TIP3    H151794   5.601   5.934   0.927  0.1233  0.8228 -1.5735
10101TIP3    H251795   5.468   5.994   0.968  0.7519  1.9039 -1.0810
10102TIP3   OH251796   5.082   2.870  13.939  0.7862 -0.1701  0.2528
10102TIP3    H151797   4.989   2.887  13.926  0.7654 -0.1831  0.3787
10102TIP3    H251798   5.105   2.923  14.015  0.7400 -0.6297  0.5929
10103TIP3   OH251799   3.295   5.000   2.951 -0.3883 -0.2238 -0.4729
10103TIP3    H151800   3.285   4.984   3.045  0.4307  0.5036 -0.2503
10103TIP3    H251801   3.388   5.020   2.940 -0.7513  1.1457 -1.2055
10104TIP3   OH251802   1.331   4.236   5.208 -0.0309 -0.2866 -0.4153
10104TIP3    H151803   1.313   4.252   5.115 -1.8049  0.0215 -0.0464
10104TIP3    H251804   1.301   4.315   5.252 -0.8048 -1.1232  0.5917
10105TIP3   OH251805   2.481   5.507  11.324 -0.2968 -0.0548 -0.4883
10105TIP3    H151806   2.519   5.430  11.366  3.2303  2.9158  2.5474
10105TIP3    H251807   2.397   5.520  11.368  1.0926  0.1538  2.3482
10106TIP3   OH251808   6.222   4.405   1.713 -0.4460 -0.2553 -0.0917
10106TIP3    H151809   6.153   4.353   1.755 -1.0073  0.2463 -0.3815
10106TIP3    H251810   6.180   4.490   1.695 -0.0808 -0.3190 -1.2717
10107TIP3   OH251811   5.989   3.150   3.046 -0.1914 -0.0737  0.1331
10107TIP3    H151812   6.005   3.147   2.951  1.1420  1.4101  0.2747
10107TIP3    H251813   5.919   3.086   3.060 -1.1170  0.3756 -1.9929
10108TIP3   OH251814   5.798   4.720  16.473 -0.3471  0.1121 -0.2562
10108TIP3    H151815   5.734   4.650  16.459  0.5938 -0.6864 -0.6804
10108TIP3    H251816   5.747   4.792  16.511 -1.4567 -0.5599 -0.4272
10109TIP3   OH251817   4.652   6.269  16.673  0.3450 -0.0637 -0.6020
10109TIP3    H151818   4.746   6.262  16.658  0.2636  0.0292 -1.1644
10109TIP3    H251819   4.645   6.316  16.757  0.8042 -1.0821  0.0212
10110TIP3   OH251820   1.079   0.103  17.008 -0.0261 -0.0102  0.6901
10110TIP3    H151821   1.088   0.019  16.963  0.7692  0.0320  0.7524
10110TIP3    H251822   1.157   0.108  17.064  0.6956  1.4072 -0.3887
10111TIP3   OH251823   3.381   2.459  12.402 -0.4022  0.6516  0.8406
10111TIP3    H151824   3.396   2.545  12.441 -0.1785  0.5654  0.9494
10111TIP3    H251825   3.402   2.470  12.310  0.4090  0.5220  0.9980
10112TIP3   OH251826   0.578   0.313   3.502  0.7779 -0.0918 -0.5759
10112TIP3    H151827   0.533   0.299   3.585  1.0706  0.6721 -0.2759
10112TIP3    H251828   0.639   0.385   3.520  0.2196  0.6847 -1.6895
10113TIP3   OH251829   6.473   0.227  12.788  0.2239  0.6259  0.5963
10113TIP3    H151830   6.405   0.182  12.738  0.2791 -0.0099  1.0799
10113TIP3    H251831   6.425   0.289  12.842 -0.1153 -0.6031  1.7785
10114TIP3   OH251832   2.445   0.175   4.630  0.2848  0.3297 -0.1952
10114TIP3    H151833   2.368   0.202   4.680 -0.2371  1.4303 -1.5110
10114TIP3    H251834   2.433   0.081   4.616 -0.6892  0.4349 -0.1482
10115TIP3   OH251835   3.357   4.276   5.769  0.1602  0.1548  0.6983
10115TIP3    H151836   3.320   4.238   5.690  0.7261 -2.7165  1.6966
10115TIP3    H251837   3.431   4.329   5.738 -0.2785 -0.0554 -0.7511
10116TIP3   OH251838   6.242   4.655   4.678 -0.0242 -0.0879  0.7983
10116TIP3    H151839   6.235   4.647   4.583  0.1581  3.3584  0.3657
10116TIP3    H251840   6.331   4.628   4.698 -0.4159 -1.9590  0.2105
10117TIP3   OH251841   5.083   4.876   2.348  0.0818  0.4142  0.0738
10117TIP3    H151842   5.019   4.844   2.284 -0.9469  1.7328  0.4030
10117TIP3    H251843   5.120   4.796   2.387 -0.2453 -0.3837 -1.2077
10118TIP3   OH251844   5.894   3.257   0.208  0.1590 -0.0029  0.3626
10118TIP3    H151845   5.879   3.223   0.121  1.8399 -0.2670  0.1585
10118TIP3    H251846   5.892   3.181   0.265  1.3164 -0.1394  0.2424
10119TIP3   OH251847   6.728   1.182   4.388 -0.2587  0.0861  0.0033
10119TIP3    H151848   6.723   1.196   4.294 -1.2069  1.5614  0.2382
10119TIP3    H251849   6.685   1.098   4.403 -1.6014  0.6129 -0.7234
10120TIP3   OH251850   2.069   4.571   6.124  0.0294 -0.5286 -0.4887
10120TIP3    H151851   2.134   4.639   6.139 -0.4772 -0.0753 -0.3061
10120TIP3    H251852   2.103   4.520   6.051  0.3586 -0.0113 -0.6981
10121TIP3   OH251853   3.394   0.623  12.642 -0.3514 -0.1329  0.6670
10121TIP3    H151854   3.484   0.652  12.655 -0.3160  0.1251 -0.1523
10121TIP3    H251855   3.397   0.528  12.659  0.4790 -0.4900 -1.2831
10122TIP3   OH251856   5.404   0.929   2.549  0.0617 -0.3182 -0.1219
10122TIP3    H151857   5.352   0.868   2.497 -0.0326 -0.5763  0.2736
10122TIP3    H251858   5.405   0.892   2.637 -0.2726  0.4157  0.1996
10123TIP3   OH251859   3.714   2.989  12.328 -0.1202 -0.2193  0.1496
10123TIP3    H151860   3.711   2.910  12.273  2.2111  0.2244 -0.7177
10123TIP3    H251861   3.666   3.055  12.277  0.6680 -0.2469 -0.6705
10124TIP3   OH251862   3.349   4.795  14.387  0.0587 -0.2880  0.0792
10124TIP3    H151863   3.422   4.782  14.448 -0.7115  1.1511  1.3722
10124TIP3    H251864   3.335   4.709  14.347  2.2886 -0.6434 -0.0354
10125TIP3   OH251865   2.833   4.131   5.656 -0.4533 -0.6028 -0.2048
10125TIP3    H151866   2.893   4.158   5.587 -1.7512 -0.2494 -1.2436
10125TIP3    H251867   2.746   4.132   5.615 -0.9367 -3.6750  0.4358
10126TIP3   OH251868   4.254   1.380  12.956  0.0954 -0.3689  0.3573
10126TIP3    H151869   4.180   1.319  12.951  0.5572 -0.9811  0.9295
10126TIP3    H251870   4.237   1.432  13.035 -0.9270  1.1084 -0.7595
10127TIP3   OH251871   4.516   2.578  15.366 -0.2052 -0.1770 -0.5758
10127TIP3    H151872   4.515   2.644  15.297 -0.9513  1.1785  0.6536
10127TIP3    H251873   4.574   2.615  15.433 -0.5232 -0.8392  0.0763
10128TIP3   OH251874   0.998   5.808   3.579 -0.0559  0.0026  0.2152
10128TIP3    H151875   1.057   5.879   3.604 -0.1437  1.1718 -2.6243
10128TIP3    H251876   0.915   5.851   3.561 -1.0044 -1.2688  1.3205
10129TIP3   OH251877   5.520   4.767  10.989 -0.0466  1.1021  0.1924
10129TIP3    H151878   5.475   4.712  11.053 -0.1337  0.8099 -0.1173
10129TIP3    H251879   5.529   4.711  10.911  0.4952  1.2888  0.1160
10130TIP3   OH251880   2.023   2.841  15.302  0.2103  0.2256  0.1129
10130TIP3    H151881   2.026   2.752  15.266  2.2174 -0.4954  1.8367
10130TIP3    H251882   1.959   2.836  15.373  0.9529 -0.1024  0.7712
10131TIP3   OH251883   0.500   0.810  16.777  0.1666 -0.4091  0.1654
10131TIP3    H151884   0.498   0.820  16.872  1.3749 -0.3573  0.2009
10131TIP3    H251885   0.538   0.891  16.745 -0.9529 -0.1150 -0.4260
10132TIP3   OH251886   2.522   1.536  11.715 -0.8600  0.1072 -0.0539
10132TIP3    H151887   2.555   1.570  11.632  0.1120  1.1992  0.7383
10132TIP3    H251888   2.581   1.463  11.736 -1.9939 -1.1175 -0.9995
10133TIP3   OH251889   2.421   4.453   2.914 -0.6918 -0.4118  0.1115
10133TIP3    H151890   2.384   4.422   2.831 -0.4624  0.5025 -0.3479
10133TIP3    H251891   2.371   4.533   2.933 -0.0584 -0.0636  0.3234
10134TIP3   OH251892   6.473   2.382  13.372 -0.0622 -0.4738  0.5483
10134TIP3    H151893   6.544   2.371  13.435  1.1354  0.6172 -0.5576
10134TIP3    H251894   6.508   2.350  13.289 -1.3081 -1.0538  0.2088
10135TIP3   OH251895   4.359   4.614  14.350  0.2175  0.2029  0.1907
10135TIP3    H151896   4.346   4.530  14.393 -1.9503  0.5745  0.3535
10135TIP3    H251897   4.369   4.593  14.257  0.0965 -0.2681  0.2849
10136TIP3   OH251898   3.850   6.582   1.313  0.5296  0.0563  0.2546
10136TIP3    H151899   3.804   6.635   1.247 -1.0524  1.0789  2.0526
10136TIP3    H251900   3.781   6.530   1.353  1.3509 -0.1333  1.4607
10137TIP3   OH251901   6.662   0.774   2.723 -0.3598 -0.3184  0.0655
10137TIP3    H151902   6.665   0.685   2.688 -0.4231 -0.3877  0.2371
10137TIP3    H251903   6.740   0.782   2.778  2.0643  1.1209 -3.2431
10138TIP3   OH251904   2.557   6.272  14.115 -0.5294 -0.0778  0.0668
10138TIP3    H151905   2.607   6.192  14.132 -0.7897 -0.3398 -0.3839
10138TIP3    H251906   2.503   6.251  14.039  0.3508  0.9411 -0.8686
10139TIP3   OH251907   2.956   5.334  14.146 -0.6547  0.0741 -0.1902
10139TIP3    H151908   3.046   5.360  14.166 -0.8768 -0.4202  1.6079
10139TIP3    H251909   2.929   5.281  14.221 -2.4670  0.2388 -0.6829
10140TIP3   OH251910   4.039   5.460  11.540  0.5281 -0.0397 -0.0914
10140TIP3    H151911   3.960   5.460  11.593  1.6027  1.5371  1.6323
10140TIP3    H251912   4.111   5.464  11.603  2.0167 -1.1786 -1.5888
10141TIP3   OH251913   5.359   3.159  12.711 -0.7620  0.5253 -0.1544
10141TIP3    H151914   5.299   3.231  12.732 -0.3992  1.3565 -1.8091
10141TIP3    H251915   5.304   3.097  12.663 -1.1134 -0.4344  1.4034
10142TIP3   OH251916   3.853   1.421  15.969 -0.3155 -0.0758 -0.0460
10142TIP3    H151917   3.927   1.436  15.909  0.1958  2.3393  1.0670
10142TIP3    H251918   3.835   1.327  15.962  2.0972 -0.5280 -1.2313
10143TIP3   OH251919   3.171   2.970   5.441  0.5344 -0.7593  0.6274
10143TIP3    H151920   3.148   2.947   5.531  1.1735 -0.5827  0.8393
10143TIP3    H251921   3.218   2.894   5.408  1.3120 -0.3731  0.8271
10144TIP3   OH251922   5.953   6.273  11.162  0.1229 -0.1499  0.3380
10144TIP3    H151923   5.970   6.211  11.092  0.4431  1.1821 -0.8011
10144TIP3    H251924   6.023   6.338  11.155  0.2009 -0.0251  1.9408
10145TIP3   OH251925   5.724   6.786   0.667  0.1946 -0.3145  0.0916
10145TIP3    H151926   5.765   6.869   0.643 -0.0489 -0.6851 -1.7473
10145TIP3    H251927   5.630   6.804   0.660  0.0780 -0.2581  1.5054
10146TIP3   OH251928   4.739   5.056  13.623  0.2232 -0.2328  0.1195
10146TIP3    H151929   4.774   5.065  13.711  2.7224  1.9346 -0.9594
10146TIP3    H251930   4.687   5.136  13.610  0.3038 -0.2810 -0.5455
10147TIP3   OH251931   1.558   0.687   0.208  0.0015  0.4093 -0.0500
10147TIP3    H151932   1.538   0.757   0.146  0.9269 -0.1287 -0.9762
10147TIP3    H251933   1.541   0.606   0.160  2.7555 -0.0632 -0.4029
10148TIP3   OH251934   6.195   3.115  13.998  0.7162  0.8403  0.5430
10148TIP3    H151935   6.257   3.144  13.931  1.4051 -0.8009  0.4188
10148TIP3    H251936   6.212   3.173  14.073  1.6305  1.1320  0.1215
10149TIP3   OH251937   6.259   5.675  12.274  0.6208 -0.2973  0.0165
10149TIP3    H151938   6.222   5.630  12.198 -0.2174 -1.1906  0.9257
10149TIP3    H251939   6.242   5.616  12.347  2.5129 -0.0418  0.7276
10150TIP3   OH251940   5.633   1.734   3.476 -0.3879  0.3377  0.2992
10150TIP3    H151941   5.575   1.805   3.447 -1.5703 -0.6122  0.2789
10150TIP3    H251942   5.595   1.655   3.439  0.9147 -0.3274  0.3228
10151TIP3   OH251943   4.034   6.537  14.916 -0.2041  0.3152  0.5294
10151TIP3    H151944   4.047   6.581  14.833 -2.3676  0.5153  0.2389
10151TIP3    H251945   3.950   6.570  14.948 -0.3897 -1.2712  1.8111
10152TIP3   OH251946   6.090   6.836   1.022 -0.1618 -0.1025 -0.6269
10152TIP3    H151947   6.103   6.766   1.086 -0.1465  0.1089 -0.3983
10152TIP3    H251948   6.136   6.911   1.058  1.3277 -0.4566 -1.7248
10153TIP3   OH251949   1.844   6.047   2.168 -0.4819 -0.3214  0.7547
10153TIP3    H151950   1.844   6.098   2.087  0.8566 -1.1133  0.2242
10153TIP3    H251951   1.763   6.072   2.212 -0.4439  1.3524 -0.0450
10154TIP3   OH251952   3.276   2.682   2.871  0.2878 -0.4238  0.0499
10154TIP3    H151953   3.316   2.767   2.853 -0.3453  0.1365  1.1584
10154TIP3    H251954   3.277   2.636   2.787  1.3156  0.3864 -0.3976
10155TIP3   OH251955   5.480   4.612   0.949 -0.3355  0.8439 -0.4909
10155TIP3    H151956   5.522   4.584   0.868 -0.7127 -0.4693 -0.2491
10155TIP3    H251957   5.436   4.534   0.982  0.0158  1.2797  1.1082
10156TIP3   OH251958   2.325   3.561  16.380  0.8647 -0.1862  0.9115
10156TIP3    H151959   2.420   3.571  16.367  0.9276  0.9587  1.9819
10156TIP3    H251960   2.298   3.497  16.315  1.7340  2.2732 -2.0968
10157TIP3   OH251961   0.171   3.066  15.705 -0.0251 -0.1916  0.4814
10157TIP3    H151962   0.124   2.984  15.688  0.4724 -0.8675  2.1481
10157TIP3    H251963   0.108   3.120  15.752 -1.6793  1.9920 -3.6874
10158TIP3   OH251964   5.581   1.628   2.981 -0.2389 -0.3196  0.0396
10158TIP3    H151965   5.513   1.693   2.968  0.5892  0.4583 -0.4786
10158TIP3    H251966   5.652   1.675   3.025  0.9894 -0.4421 -1.7069
10159TIP3   OH251967   3.097   5.177   0.971  0.0324  0.1853 -0.0756
10159TIP3    H151968   3.070   5.118   1.041 -0.2961 -0.3113 -0.6171
10159TIP3    H251969   3.034   5.249   0.974 -0.0305  0.1220  0.0871
10160TIP3   OH251970   1.240   4.536   5.938 -0.7745 -0.1133  0.4069
10160TIP3    H151971   1.258   4.630   5.944 -2.0628  0.0849  1.5596
10160TIP3    H251972   1.248   4.504   6.028 -0.7296 -1.0424  0.0867
10161TIP3   OH251973   1.965   1.115   0.734 -0.0566  0.0099  0.3395
10161TIP3    H151974   1.897   1.050   0.720 -0.3244 -0.0792  1.8162
10161TIP3    H251975   1.953   1.179   0.664 -0.4515 -0.9735 -0.5100
10162TIP3   OH251976   4.694   4.743   4.085 -0.0260 -0.2549  0.1627
10162TIP3    H151977   4.619   4.785   4.127  0.9313  0.8690  0.8049
10162TIP3    H251978   4.680   4.649   4.100 -1.5258 -0.1024 -0.1365
10163TIP3   OH251979   2.426   0.351  11.654  0.1761 -0.2991  0.5758
10163TIP3    H151980   2.386   0.288  11.593  0.6957  0.3169 -0.4377
10163TIP3    H251981   2.502   0.306  11.690 -0.0152 -0.5993  0.6050
10164TIP3   OH251982   4.077   3.028  15.571 -0.0524 -0.1584 -0.3927
10164TIP3    H151983   4.072   3.096  15.638 -0.7872 -0.9343  0.3675
10164TIP3    H251984   4.149   2.972  15.599  0.1472 -0.0517 -0.6835
10165TIP3   OH251985   2.511   1.785   1.864  0.0104 -0.2800  1.0531
10165TIP3    H151986   2.534   1.741   1.781 -1.2565  0.6483  0.1709
10165TIP3    H251987   2.429   1.744   1.890  0.1040 -0.1509  1.5579
10166TIP3   OH251988   6.780   1.905  11.687  0.1715 -0.4139  0.0272
10166TIP3    H151989   6.791   1.833  11.749 -0.5634 -0.6186 -0.0690
10166TIP3    H251990   6.758   1.862  11.605 -0.0021 -0.0843 -0.0985
10167TIP3   OH251991   1.273   2.242  14.750  0.3279  0.0979  0.2720
10167TIP3    H151992   1.243   2.221  14.839  1.7542  0.5685  0.8981
10167TIP3    H251993   1.359   2.281  14.763  1.0084 -0.7611 -1.3995
10168TIP3   OH251994   1.834   1.617  13.116 -0.3726  0.0460 -0.4746
10168TIP3    H151995   1.802   1.536  13.076 -2.5229  1.1841 -1.2532
10168TIP3    H251996   1.862   1.671  13.041 -0.8664  0.7680 -0.1483
10169TIP3   OH251997   4.665   1.356  11.519 -0.8452  0.0265 -0.1708
10169TIP3    H151998   4.629   1.352  11.608 -0.9379 -2.6160 -0.2577
10169TIP3    H251999   4.750   1.312  11.526 -1.3108 -1.1652 -1.5577
10170TIP3   OH252000   3.226   2.510   0.768 -0.2743 -0.2611  0.2109
10170TIP3    H152001   3.225   2.519   0.863 -0.1705  0.4655  0.1474
10170TIP3    H252002   3.256   2.595   0.736 -1.6893 -0.0046 -0.5305
10171TIP3   OH252003   2.659   3.641   5.864  0.5236  0.6095 -0.1018
10171TIP3    H152004   2.579   3.693   5.877  0.3584  0.5569 -0.8944
10171TIP3    H252005   2.680   3.609   5.952 -1.2606 -0.7509 -0.1136
10172TIP3   OH252006   6.043   3.620  13.878  0.2457 -0.2541 -0.1816
10172TIP3    H152007   6.105   3.692  13.866 -1.8146  1.7400  0.4597
10172TIP3    H252008   5.957   3.662  13.875 -1.1087 -2.8913 -0.9506
10173TIP3   OH252009   3.846   0.147  14.352 -0.0347  0.4190 -0.0590
10173TIP3    H152010   3.848   0.147  14.256  2.4666 -1.0208 -0.1002
10173TIP3    H252011   3.810   0.061  14.375 -1.8566  1.2497  0.3638
10174TIP3   OH252012   5.108   1.020  16.527 -0.2523 -0.1796  0.9680
10174TIP3    H152013   5.162   1.005  16.450 -1.3171 -0.2734  0.2178
10174TIP3    H252014   5.149   1.095  16.570  0.6367 -0.4292  0.5909
10175TIP3   OH252015   3.618   5.771   2.421 -0.1585 -0.2455 -0.5048
10175TIP3    H152016   3.594   5.678   2.424  0.2729 -0.3688 -0.8325
10175TIP3    H252017   3.686   5.780   2.487 -0.4343 -0.0935 -0.2417
10176TIP3   OH252018   3.370   2.693  14.878 -0.0961 -0.4229  0.0398
10176TIP3    H152019   3.318   2.705  14.799 -0.8184 -1.4387  0.3333
10176TIP3    H252020   3.399   2.781  14.902 -0.2767 -0.0472 -1.0692
10177TIP3   OH252021   3.128   2.246   3.457  0.4639  0.0168 -0.4216
10177TIP3    H152022   3.109   2.185   3.386  0.5687  0.9341 -1.2510
10177TIP3    H252023   3.223   2.240   3.469  0.1999 -1.9717  1.3622
10178TIP3   OH252024   5.000   3.112  13.096  0.2599  0.1259 -0.2345
10178TIP3    H152025   4.956   3.102  13.012  1.5823 -1.0347 -0.8241
10178TIP3    H252026   5.092   3.098  13.077  0.9026  2.1353  1.0250
10179TIP3   OH252027   1.415   6.840  14.320 -0.2976 -0.1375 -0.2850
10179TIP3    H152028   1.436   6.830  14.227 -0.5566 -0.3284 -0.3256
10179TIP3    H252029   1.329   6.882  14.320  1.3212  3.4619 -0.1253
10180TIP3   OH252030   2.408   5.458  16.106 -0.2077 -0.1617  1.1186
10180TIP3    H152031   2.439   5.377  16.066 -0.4011 -0.1112  0.8590
10180TIP3    H252032   2.388   5.435  16.196 -0.1864 -0.3820  1.0680
10181TIP3   OH252033   4.862   6.191   3.887 -0.5182  0.2876 -0.4147
10181TIP3    H152034   4.853   6.188   3.982  1.8129  0.0002 -0.1596
10181TIP3    H252035   4.892   6.103   3.863  0.4475  0.8254 -1.2167
10182TIP3   OH252036   0.206   0.896  14.815  0.1222 -0.5157 -0.9718
10182TIP3    H152037   0.156   0.847  14.881 -0.1486  0.8497 -0.1049
10182TIP3    H252038   0.195   0.988  14.841  1.5022 -0.0608 -1.8996
10183TIP3   OH252039   1.414   6.552  11.064  0.1246  0.8430  0.9649
10183TIP3    H152040   1.491   6.510  11.026  0.0966  1.1899  0.5166
10183TIP3    H252041   1.445   6.637  11.094 -0.0036  0.8385  1.1111
10184TIP3   OH252042   6.597   2.461   0.262  0.0621 -0.1205 -0.4639
10184TIP3    H152043   6.632   2.549   0.249  0.0142 -0.0740 -0.2777
10184TIP3    H252044   6.510   2.464   0.222  0.2218 -0.2010 -0.8171
10185TIP3   OH252045   5.749   3.521  12.237 -0.5246 -0.3609  0.0620
10185TIP3    H152046   5.657   3.508  12.215 -0.8257 -0.7885  1.4292
10185TIP3    H252047   5.776   3.597  12.186 -1.6494 -0.2076 -0.3278
10186TIP3   OH252048   2.721   5.850  13.584  0.2814  0.4112 -0.4756
10186TIP3    H152049   2.788   5.915  13.606  2.6864 -1.2875 -2.2399
10186TIP3    H252050   2.664   5.894  13.520  0.8567  1.3014 -0.3816
10187TIP3   OH252051   5.912   1.460  14.009  0.5148 -0.2005  0.6683
10187TIP3    H152052   5.990   1.408  14.027 -0.3194 -1.8386 -0.2594
10187TIP3    H252053   5.865   1.411  13.942 -1.4474  0.5992  1.3861
10188TIP3   OH252054   1.209   5.147   5.700 -0.3656 -0.1458  0.0204
10188TIP3    H152055   1.235   5.160   5.791 -1.4515  1.6124  0.1182
10188TIP3    H252056   1.263   5.209   5.651 -1.4442  0.5897 -0.2472
10189TIP3   OH252057   4.074   4.223   4.042  0.0196 -0.1075 -0.6825
10189TIP3    H152058   4.161   4.255   4.063 -0.6726  1.6529 -0.3085
10189TIP3    H252059   4.088   4.133   4.013  1.5745 -1.0901  2.6480
10190TIP3   OH252060   3.225   1.340  10.743  0.8497  0.1220  0.0154
10190TIP3    H152061   3.148   1.284  10.732  0.3635  1.0273 -1.5197
10190TIP3    H252062   3.293   1.298  10.691  0.4154  1.0074 -1.3413
10191TIP3   OH252063   0.603   3.146   3.483  0.4490  0.4594 -0.2643
10191TIP3    H152064   0.590   3.238   3.504  0.1186  0.2460  0.4943
10191TIP3    H252065   0.536   3.126   3.419  0.3985  0.6966 -0.2849
10192TIP3   OH252066   4.240   0.390  12.304 -0.3341  0.2250 -0.0962
10192TIP3    H152067   4.227   0.330  12.377 -1.4871  0.9784  0.3440
10192TIP3    H252068   4.252   0.476  12.345  2.1176  0.2496 -0.6728
10193TIP3   OH252069   0.886   2.644   3.479 -0.0454 -0.3026 -0.1550
10193TIP3    H152070   0.919   2.734   3.474 -0.3163 -0.2581 -2.1336
10193TIP3    H252071   0.853   2.635   3.568  0.0642  1.5330  0.1024
10194TIP3   OH252072   4.467   3.396  16.033  0.4108 -0.4925  0.0476
10194TIP3    H152073   4.464   3.311  15.989 -0.9962 -0.9105  0.8911
10194TIP3    H252074   4.470   3.460  15.962 -0.8787 -1.1834 -0.6645
10195TIP3   OH252075   5.846   2.548   0.270  0.2380 -0.4509 -0.0858
10195TIP3    H152076   5.770   2.545   0.212  0.6586 -0.0090 -0.6659
10195TIP3    H252077   5.898   2.621   0.238 -0.2459  0.7884  1.7784
10196TIP3   OH252078   6.532   5.613   4.535 -0.2265  0.2684 -0.1531
10196TIP3    H152079   6.474   5.560   4.590  1.1746 -1.0701  0.0935
10196TIP3    H252080   6.528   5.701   4.574 -1.0453 -0.1091  0.6601
10197TIP3   OH252081   0.243   2.221   2.635  0.0032  0.3320 -0.2943
10197TIP3    H152082   0.256   2.287   2.702 -0.1551  0.5230 -0.4498
10197TIP3    H252083   0.181   2.261   2.573  0.5830  0.3847 -0.8538
10198TIP3   OH252084   0.512   3.767  16.319  0.4475 -0.2296  0.1099
10198TIP3    H152085   0.560   3.847  16.297 -0.2119  0.0348 -0.4002
10198TIP3    H252086   0.542   3.703  16.255  1.8561 -0.7440  1.2485
10199TIP3   OH252087   3.048   5.401  15.568  0.3657 -0.0855  0.0997
10199TIP3    H152088   2.960   5.432  15.545  0.0340  0.0424  1.4881
10199TIP3    H252089   3.036   5.308  15.589  0.7918 -0.3789 -0.8692
10200TIP3   OH252090   3.470   2.053  12.253  0.0019 -0.4653 -0.2527
10200TIP3    H152091   3.557   2.016  12.234  0.0788  0.0461 -0.9700
10200TIP3    H252092   3.409   1.983  12.230  0.2553 -1.6345  2.2772
10201TIP3   OH252093   3.157   6.083   4.892 -0.2306  0.0659 -0.3076
10201TIP3    H152094   3.252   6.095   4.892 -0.2902  0.6944  0.8660
10201TIP3    H252095   3.122   6.165   4.857 -0.3512 -0.2775 -1.0266
10202TIP3   OH252096   4.004   0.153  10.601  0.3713  0.2142  0.1696
10202TIP3    H152097   4.044   0.206  10.671  0.0791  2.2958 -1.1478
10202TIP3    H252098   4.069   0.153  10.531  0.3413 -1.1836  0.1259
10203TIP3   OH252099   6.268   4.411  15.564  0.5917  0.2583  0.4017
10203TIP3    H152100   6.317   4.487  15.596  1.0775  0.5089 -0.8773
10203TIP3    H252101   6.220   4.379  15.641 -0.2446  2.3160  0.7787
10204TIP3   OH252102   3.236   1.316  16.443  0.2634 -0.6821  0.3306
10204TIP3    H152103   3.182   1.242  16.416  0.1013 -0.5847  0.3874
10204TIP3    H252104   3.181   1.365  16.504  0.8708 -1.2784  1.3835
10205TIP3   OH252105   1.479   2.088   4.886  0.7466  0.1102  0.1068
10205TIP3    H152106   1.410   2.081   4.952  0.0543 -0.2047 -0.6380
10205TIP3    H252107   1.552   2.038   4.923  0.1085 -0.7014  0.3081
10206TIP3   OH252108   4.405   5.324  15.541  0.9082 -0.4246 -0.2432
10206TIP3    H152109   4.462   5.289  15.472  1.9377  0.1324  0.2997
10206TIP3    H252110   4.448   5.300  15.622  0.2982 -0.0830  0.1899
10207TIP3   OH252111   3.968   4.311  14.925 -1.0258 -0.3641  0.1111
10207TIP3    H152112   3.939   4.251  14.857 -1.2901 -0.6331  0.4583
10207TIP3    H252113   3.888   4.357  14.952 -1.0986 -0.9295  0.8952
10208TIP3   OH252114   5.545   6.599  10.334  0.3989 -0.3251  0.1691
10208TIP3    H152115   5.531   6.673  10.392  0.6897  0.8965 -1.2699
10208TIP3    H252116   5.471   6.541  10.351 -2.2117  2.2507 -1.5984
10209TIP3   OH252117   6.650   3.482   0.818  0.3250 -0.2987 -0.3854
10209TIP3    H152118   6.565   3.505   0.856 -0.3102 -0.4265 -1.6839
10209TIP3    H252119   6.710   3.550   0.850 -0.0608 -0.6609  1.1976
10210TIP3   OH252120   4.947   6.577   1.454 -0.0693  0.1359 -0.3006
10210TIP3    H152121   4.928   6.512   1.387  0.3560  0.2653 -0.5476
10210TIP3    H252122   4.910   6.540   1.534 -0.7808  0.0875 -0.6468
10211TIP3   OH252123   2.579   4.130  12.456  0.0670 -0.0981 -0.2138
10211TIP3    H152124   2.652   4.185  12.484  0.1365 -0.0478 -0.4981
10211TIP3    H252125   2.512   4.192  12.428 -1.3473  0.0311  2.9832
10212TIP3   OH252126   5.657   5.453  14.548  0.2819 -0.3941 -0.0265
10212TIP3    H152127   5.615   5.528  14.590  1.2083  0.7115 -0.9729
10212TIP3    H252128   5.745   5.451  14.585  0.3715 -0.8165 -0.2534
10213TIP3   OH252129   2.187   3.821  14.381  0.1282 -0.8646 -0.0737
10213TIP3    H152130   2.181   3.812  14.476 -2.7350 -0.8127 -0.1624
10213TIP3    H252131   2.188   3.731  14.348  0.2705 -0.8765 -0.0396
10214TIP3   OH252132   6.793   4.934   3.000 -0.4308  0.5520  0.1965
10214TIP3    H152133   6.793   4.942   2.905 -0.8467  0.8311  0.2194
10214TIP3    H252134   6.779   5.023   3.032  1.3326  0.7524  0.5546
10215TIP3   OH252135   1.276   4.206   0.231 -0.7379 -0.2583  0.0093
10215TIP3    H152136   1.277   4.173   0.321 -1.0954 -1.0772 -0.2747
10215TIP3    H252137   1.268   4.301   0.240  0.0485 -0.2633  0.8521
10216TIP3   OH252138   5.964   3.220  15.207 -0.0190  0.0288  0.0229
10216TIP3    H152139   6.041   3.200  15.154  0.6747  2.4186 -0.0265
10216TIP3    H252140   5.977   3.171  15.288  1.3688  0.0401 -0.1653
10217TIP3   OH252141   0.145   0.598  10.910 -0.7207 -0.2106 -0.1182
10217TIP3    H152142   0.180   0.636  10.829  2.4555  1.0319  1.6276
10217TIP3    H252143   0.096   0.670  10.950 -3.8380 -1.3425 -1.5927
10218TIP3   OH252144   3.942   5.103   3.444 -0.0955 -0.1851 -0.0792
10218TIP3    H152145   3.982   5.033   3.496 -0.8688  0.0293  0.8347
10218TIP3    H252146   3.852   5.074   3.430  0.0768 -0.2117 -1.2812
10219TIP3   OH252147   0.966   2.950   1.898  0.2914  0.1979  0.2102
10219TIP3    H152148   0.982   2.942   1.804  2.3518 -1.4103  0.6375
10219TIP3    H252149   0.888   2.897   1.913 -0.2749  0.7641 -0.6233
10220TIP3   OH252150   0.790   5.593  12.816  0.4374 -0.3389 -0.1268
10220TIP3    H152151   0.734   5.651  12.867  0.5125 -1.5879  1.4638
10220TIP3    H252152   0.868   5.581  12.870  0.6038 -1.5848 -0.6016
10221TIP3   OH252153   6.349   0.710  13.626  0.0305 -0.0524  0.2554
10221TIP3    H152154   6.289   0.746  13.561  0.3744  0.5533  0.2720
10221TIP3    H252155   6.324   0.752  13.708  0.8783  0.6909  0.1507
10222TIP3   OH252156   6.846   0.435  16.869  0.1099 -0.1056  0.5579
10222TIP3    H152157   6.785   0.374  16.829  0.0332 -0.1652  0.7660
10222TIP3    H252158   6.804   0.521  16.861  0.9558  0.1871 -1.2571
10223TIP3   OH252159   6.608   1.183  13.329  0.2961  0.0891  0.0872
10223TIP3    H152160   6.669   1.188  13.254 -1.9257  2.3176 -1.7534
10223TIP3    H252161   6.623   1.265  13.376 -0.8412  0.3909 -0.0568
10224TIP3   OH252162   3.006   6.378   6.527 -0.4355  0.1862  0.0688
10224TIP3    H152163   2.917   6.344   6.535 -0.2038 -0.6569 -0.7304
10224TIP3    H252164   3.058   6.303   6.500  0.4400  0.7735  0.0824
10225TIP3   OH252165   3.397   0.325  12.693 -0.2668 -0.2452 -0.1687
10225TIP3    H152166   3.384   0.314  12.787  0.8356 -0.6805 -0.0505
10225TIP3    H252167   3.454   0.253  12.667 -0.9047 -0.3878 -1.2681
10226TIP3   OH252168   0.904   6.226   5.590  0.1383  0.2338  0.5154
10226TIP3    H152169   0.855   6.226   5.507  0.3123 -1.8474  0.3627
10226TIP3    H252170   0.837   6.237   5.657 -0.3491 -0.6963  0.2045
10227TIP3   OH252171   3.531   0.866   3.480  0.2365  0.0610 -0.1987
10227TIP3    H152172   3.613   0.908   3.507  0.2980 -0.8449  1.1492
10227TIP3    H252173   3.479   0.937   3.443  1.1997  0.8746 -0.0386
10228TIP3   OH252174   0.833   2.597  16.052  0.2582  0.3482 -0.3203
10228TIP3    H152175   0.791   2.672  16.011 -1.6637  0.0419  0.9664
10228TIP3    H252176   0.926   2.622  16.058  0.0246  1.7133 -1.8128
10229TIP3   OH252177   1.909   2.409  11.085 -0.3514  0.2729 -0.3775
10229TIP3    H152178   1.993   2.422  11.129  0.5835  0.5912 -2.1543
10229TIP3    H252179   1.872   2.497  11.079  0.1100  0.4167 -1.2935
10230TIP3   OH252180   5.525   4.070  11.124 -0.0733  0.2782  0.0071
10230TIP3    H152181   5.523   4.143  11.063  0.4774 -0.5486 -1.0186
10230TIP3    H252182   5.446   4.019  11.104  0.5726 -0.4802 -0.6296
10231TIP3   OH252183   5.190   1.063   6.616 -0.2332 -0.5330  0.2289
10231TIP3    H152184   5.154   1.096   6.699  0.3974 -2.3602  1.2904
10231TIP3    H252185   5.240   1.137   6.580 -3.0235  1.3419 -0.1575
10232TIP3   OH252186   5.671   5.193   5.988 -0.5274 -0.6909 -0.1979
10232TIP3    H152187   5.581   5.185   5.955 -0.9023 -0.7141  0.8068
10232TIP3    H252188   5.663   5.241   6.070  0.7702  2.6184 -1.8186
10233TIP3   OH252189   4.583   4.823  10.231 -0.2828  0.0411 -0.4041
10233TIP3    H152190   4.626   4.766  10.294 -1.0056  0.7649  0.7760
10233TIP3    H252191   4.628   4.907  10.238 -1.9729  0.8989  1.0577
10234TIP3   OH252192   3.197   2.539  13.519  0.5281 -0.0129  0.3233
10234TIP3    H152193   3.271   2.586  13.559  1.9715 -1.4302 -0.5643
10234TIP3    H252194   3.191   2.458  13.570  0.1221 -0.2742 -0.1418
10235TIP3   OH252195   4.635   0.029  11.690  0.3153  0.0504  0.2849
10235TIP3    H152196   4.641  -0.028  11.613 -1.9232  1.3349 -0.9446
10235TIP3    H252197   4.671   0.113  11.660 -1.3347  0.8040  0.3147
10236TIP3   OH252198   4.717   3.067  15.529 -0.5148  0.1842  1.1993
10236TIP3    H152199   4.751   3.114  15.454  1.9220 -0.2586  1.9363
10236TIP3    H252200   4.781   3.083  15.599  0.6802 -4.2724  1.4637
10237TIP3   OH252201   5.004   1.903   4.340  0.8760  0.1261  0.0396
10237TIP3    H152202   4.953   1.922   4.419  2.0005 -0.9713  1.0758
10237TIP3    H252203   5.082   1.857   4.372  2.3059  1.3204 -1.5097
10238TIP3   OH252204   5.326   4.026  16.444 -0.5423  0.6606 -0.1195
10238TIP3    H152205   5.287   4.097  16.495  0.6213  0.5914  0.9142
10238TIP3    H252206   5.372   3.973  16.508 -0.3899 -0.3591 -1.0434
10239TIP3   OH252207   3.991   2.002  12.417  0.5421 -0.0918 -0.3644
10239TIP3    H152208   3.965   1.954  12.339 -1.4696 -0.1247  0.2461
10239TIP3    H252209   4.062   1.951  12.455 -0.5392 -1.8154 -0.5294
10240TIP3   OH252210   2.577   1.243   2.839  0.2702  0.3252  0.1775
10240TIP3    H152211   2.663   1.206   2.861  0.6874  1.1080 -0.0979
10240TIP3    H252212   2.597   1.330   2.804 -0.6342  0.4798  0.0331
10241TIP3   OH252213   0.667   0.867   1.075  0.2450 -0.2116 -0.4075
10241TIP3    H152214   0.737   0.847   1.014  1.9516 -0.4066  1.5139
10241TIP3    H252215   0.652   0.961   1.064  1.9504  0.1728  0.2500
10242TIP3   OH252216   0.199   5.509  13.717  0.0278 -0.1304  0.4730
10242TIP3    H152217   0.269   5.457  13.757  0.0722  1.5090  2.7655
10242TIP3    H252218   0.122   5.490  13.771 -0.3047  1.0176  0.4205
10243TIP3   OH252219   5.392   0.173  14.394  0.0824 -0.7712 -0.0864
10243TIP3    H152220   5.372   0.236  14.463 -1.0438 -0.6235 -0.5355
10243TIP3    H252221   5.375   0.221  14.313  1.4926 -0.9052 -0.4999
10244TIP3   OH252222   3.256   0.043   5.943 -0.1939 -0.4007 -0.4221
10244TIP3    H152223   3.178   0.055   5.996  0.8812 -1.1318  1.4508
10244TIP3    H252224   3.312   0.118   5.964 -0.0985 -0.2455 -1.2018
10245TIP3   OH252225   0.373   0.160  12.423  0.6633 -0.0132 -0.0784
10245TIP3    H152226   0.372   0.064  12.430  1.2059 -0.0305 -0.2049
10245TIP3    H252227   0.333   0.178  12.339 -0.3110 -0.0817  0.3559
10246TIP3   OH252228   3.493   4.268   4.843 -0.5339  0.3445  0.6140
10246TIP3    H152229   3.404   4.238   4.861  0.0292 -1.3248  0.7796
10246TIP3    H252230   3.542   4.249   4.923 -0.1974  2.0359  0.8389
10247TIP3   OH252231   1.147   0.225  16.310  0.3125  0.4701 -0.5659
10247TIP3    H152232   1.215   0.286  16.281  3.0167 -1.1650  1.8656
10247TIP3    H252233   1.193   0.158  16.360 -3.1019 -0.8743  1.1551
10248TIP3   OH252234   4.400   4.989   3.466 -0.0186 -0.1963  0.0035
10248TIP3    H152235   4.327   5.044   3.437  0.4060  0.7440  0.6573
10248TIP3    H252236   4.363   4.902   3.475  0.2762 -1.2602 -5.5974
10249TIP3   OH252237   1.058   2.845   4.592  0.1462  0.5772  0.7407
10249TIP3    H152238   1.131   2.813   4.644 -1.4512 -2.5036  1.3315
10249TIP3    H252239   1.095   2.861   4.505  1.3806 -1.9025  0.7299
10250TIP3   OH252240   1.548   2.280  14.790  0.0078  0.0960  0.3125
10250TIP3    H152241   1.582   2.192  14.809 -0.7586  0.1422  2.0638
10250TIP3    H252242   1.611   2.339  14.831  0.2308  0.3625 -0.3997
10251TIP3   OH252243   6.301   2.956   4.098  0.1157  0.1841  0.0736
10251TIP3    H152244   6.344   2.991   4.176  0.8097  0.5794 -0.4769
10251TIP3    H252245   6.287   2.864   4.118 -1.8218  0.7203  1.5843
10252TIP3   OH252246   2.457   0.097  10.531 -0.3185 -0.0291  0.2744
10252TIP3    H152247   2.518   0.142  10.472  0.4236  1.6019  2.1554
10252TIP3    H252248   2.412   0.167  10.578 -0.7242 -1.2287  1.7782
10253TIP3   OH252249   4.156   0.226  16.484 -0.3463  0.2410 -0.0688
10253TIP3    H152250   4.246   0.249  16.460 -0.8977  0.0875 -2.5263
10253TIP3    H252251   4.165   0.146  16.537  0.9670  0.5115  0.1491
10254TIP3   OH252252   1.104   3.909  14.750  0.0042  0.0607  0.4674
10254TIP3    H152253   1.172   3.961  14.792  0.3745  1.4521 -1.7460
10254TIP3    H252254   1.141   3.882  14.666 -2.5899  2.1535 -1.5201
10255TIP3   OH252255   1.567   1.420   6.865 -0.3926  0.3107  0.5801
10255TIP3    H152256   1.516   1.358   6.813  0.8267  0.8382 -1.3322
10255TIP3    H252257   1.518   1.503   6.859  0.5290  0.7809 -1.1380
10256TIP3   OH252258   1.339   1.152   3.143  0.2248  0.7423  0.1496
10256TIP3    H152259   1.275   1.218   3.117  1.7312  1.9310 -0.6608
10256TIP3    H252260   1.313   1.129   3.232 -1.5307  0.9092 -0.2683
10257TIP3   OH252261   4.872   2.967  13.606 -0.3000  0.0291 -0.6506
10257TIP3    H152262   4.847   3.013  13.526 -0.9141  0.3237 -0.3012
10257TIP3    H252263   4.944   2.910  13.580  1.5584  2.3114 -0.7690
10258TIP3   OH252264   4.168   2.173   5.612 -0.0198  0.7973  0.5977
10258TIP3    H152265   4.182   2.081   5.635 -1.8288  0.4333  0.3622
10258TIP3    H252266   4.256   2.209   5.606  0.7037 -0.1436  3.7129
10259TIP3   OH252267   6.019   0.694   3.021  0.0047  0.1556 -0.1301
10259TIP3    H152268   6.105   0.706   3.060 -0.0074  1.3413 -0.4365
10259TIP3    H252269   5.967   0.768   3.053 -0.5074  0.1964 -1.0020
10260TIP3   OH252270   5.807   3.259   5.682  0.1561 -0.0085  0.5521
10260TIP3    H152271   5.895   3.228   5.658 -0.2053 -1.2477  0.7662
10260TIP3    H252272   5.785   3.323   5.613  0.7537 -0.5511 -0.1615
10261TIP3   OH252273   0.668   6.179   0.566 -0.2765  0.6299 -0.8235
10261TIP3    H152274   0.701   6.252   0.515 -0.9440  1.4327 -0.1481
10261TIP3    H252275   0.651   6.110   0.502  2.3580  0.2579 -1.2497
10262TIP3   OH252276   3.811   2.232   2.904 -0.0168 -0.2174 -0.0065
10262TIP3    H152277   3.865   2.272   2.836 -0.2422  2.2960  1.1830
10262TIP3    H252278   3.726   2.218   2.862 -0.7203  2.9749  0.0906
10263TIP3   OH252279   0.143   6.223   3.342 -0.3581 -1.0872  0.0199
10263TIP3    H152280   0.122   6.152   3.280 -3.5217 -0.4218  0.2052
10263TIP3    H252281   0.131   6.184   3.428 -1.6196 -0.5005  0.1261
10264TIP3   OH252282   3.871   6.598  12.747 -0.7457  0.0595 -0.3237
10264TIP3    H152283   3.883   6.604  12.653 -1.1492  0.4767 -0.3495
10264TIP3    H252284   3.792   6.545  12.758 -1.1586  0.6728 -0.2468
10265TIP3   OH252285   6.823   3.866  10.569  0.0327 -0.2181  0.4891
10265TIP3    H152286   6.841   3.921  10.645 -0.5483 -0.0057  0.4757
10265TIP3    H252287   6.904   3.869  10.518 -0.0182  0.7201  0.4364
10266TIP3   OH252288   5.328   0.671   0.683 -0.2991 -0.0054 -0.3619
10266TIP3    H152289   5.296   0.750   0.641  1.0163  0.9616  0.4028
10266TIP3    H252290   5.361   0.700   0.768  2.3441 -0.9485 -0.9653
10267TIP3   OH252291   1.597   1.885   1.778  0.6634 -0.8171 -0.5724
10267TIP3    H152292   1.610   1.900   1.685  1.7748 -0.3684 -0.3574
10267TIP3    H252293   1.522   1.941   1.801  1.4484  0.3845 -0.8618
10268TIP3   OH252294   1.042   4.544   4.263 -0.3579 -0.1778 -0.0445
10268TIP3    H152295   1.056   4.619   4.205  0.0374  0.6782  1.1157
10268TIP3    H252296   1.110   4.482   4.237  0.2496  0.4729 -0.0681
10269TIP3   OH252297   2.665   6.675   3.594  0.1402  0.3966  0.0701
10269TIP3    H152298   2.679   6.593   3.641 -0.8407  0.0783 -0.1767
10269TIP3    H252299   2.728   6.672   3.522  1.0812  0.5128  0.8740
10270TIP3   OH252300   2.651   0.649  12.209  0.0973  0.1934 -0.1891
10270TIP3    H152301   2.719   0.672  12.272 -0.3115  0.1796  0.2638
10270TIP3    H252302   2.677   0.563  12.176 -0.3642 -0.4006  0.9443
10271TIP3   OH252303   6.104   3.829   0.673 -0.7056  0.2132  0.8448
10271TIP3    H152304   6.027   3.815   0.618 -0.4879  2.3222 -0.0943
10271TIP3    H252305   6.068   3.855   0.757 -1.0158  0.0924  0.7542
10272TIP3   OH252306   0.113   2.199   6.326 -0.1549  0.1649  0.3891
10272TIP3    H152307   0.041   2.159   6.375 -0.1519 -0.0873  0.1884
10272TIP3    H252308   0.140   2.273   6.380  0.0818 -0.3142  0.9476
10273TIP3   OH252309   1.954   6.783   2.647  0.3663 -0.1596 -0.2312
10273TIP3    H152310   1.967   6.863   2.697  1.4678 -0.8210  0.5689
10273TIP3    H252311   1.964   6.713   2.710 -0.0912 -0.9580 -1.0207
10274TIP3   OH252312   1.738   2.750   3.851  0.5536  0.2371  0.5821
10274TIP3    H152313   1.783   2.821   3.805 -0.2265  1.0940  1.1016
10274TIP3    H252314   1.807   2.704   3.897  1.4556 -1.0303 -1.8758
10275TIP3   OH252315   1.938   1.638  10.724  0.1369 -0.2943 -0.2502
10275TIP3    H152316   2.024   1.677  10.743  0.3522 -0.6865 -0.4071
10275TIP3    H252317   1.959   1.552  10.689 -0.3367 -0.5807  0.1622
10276TIP3   OH252318   6.743   6.530   0.098  0.3252 -0.1670 -0.6458
10276TIP3    H152319   6.753   6.565   0.187 -0.6893  0.1029 -0.6295
10276TIP3    H252320   6.651   6.543   0.077 -0.4127 -3.8070 -0.2269
10277TIP3   OH252321   5.507   2.068  16.506 -0.6360 -0.2763  0.0528
10277TIP3    H152322   5.474   1.983  16.477 -0.9874 -0.1761  0.1536
10277TIP3    H252323   5.433   2.127  16.494 -0.2406  0.1243 -0.5141
10278TIP3   OH252324   5.013   6.692  13.995 -0.2632  0.0514 -0.3681
10278TIP3    H152325   4.939   6.632  13.985 -0.3779  0.2723 -0.8913
10278TIP3    H252326   4.974   6.779  13.992  0.1955  0.2278 -2.5749
10279TIP3   OH252327   2.114   0.257  14.148 -0.1400 -0.2698  0.1872
10279TIP3    H152328   2.107   0.342  14.191 -1.3654 -0.7418  0.9725
10279TIP3    H252329   2.046   0.259  14.081  1.1055  0.0825 -1.1152
10280TIP3   OH252330   5.400   6.598   0.868 -0.1365 -0.0699 -0.1139
10280TIP3    H152331   5.374   6.682   0.831  0.9552  0.7451  0.8930
10280TIP3    H252332   5.324   6.570   0.920 -0.4114  0.4043 -0.2537
10281TIP3   OH252333   2.789   4.074   2.661 -0.0721 -0.3938  0.3848
10281TIP3    H152334   2.861   4.137   2.660  1.4242 -1.9173  3.0421
10281TIP3    H252335   2.813   4.009   2.595 -0.2114  0.3054 -0.3708
10282TIP3   OH252336   3.065   1.861   5.007 -0.5992  0.0924  0.0573
10282TIP3    H152337   3.114   1.787   5.043 -0.2495 -0.1727 -0.9435
10282TIP3    H252338   3.042   1.914   5.084 -1.3478 -1.3373  0.8500
10283TIP3   OH252339   4.322   5.511   0.579 -0.0903 -0.1183  0.8665
10283TIP3    H152340   4.265   5.582   0.550 -0.9388 -1.8343 -2.1989
10283TIP3    H252341   4.263   5.436   0.588  1.2857 -1.3789 -0.1187
10284TIP3   OH252342   0.375   2.488  15.766 -0.4905 -0.3580  0.0241
10284TIP3    H152343   0.317   2.444  15.828 -0.8063  0.7429  0.5291
10284TIP3    H252344   0.459   2.491  15.810  0.0031 -1.9899 -0.7245
10285TIP3   OH252345   4.542   5.937  16.097  0.0456  0.4326 -0.1942
10285TIP3    H152346   4.576   5.960  16.011  0.3170  1.0987  0.0892
10285TIP3    H252347   4.618   5.943  16.155 -0.4952  1.7478  0.4092
10286TIP3   OH252348   4.545   5.668   1.435  0.1207  0.2414 -0.0197
10286TIP3    H152349   4.493   5.595   1.401 -0.5263  0.7437 -0.1201
10286TIP3    H252350   4.630   5.659   1.391 -0.5523  0.6336 -1.4584
10287TIP3   OH252351   1.273   0.701   4.328  0.2449  0.6565 -0.3244
10287TIP3    H152352   1.310   0.789   4.321  0.2962  0.5826 -1.0749
10287TIP3    H252353   1.204   0.709   4.394  1.0315  0.9848  0.4767
10288TIP3   OH252354   2.252   2.488   1.125 -0.7894  0.2406 -0.3009
10288TIP3    H152355   2.201   2.407   1.132  0.3552 -0.3569  2.7188
10288TIP3    H252356   2.292   2.483   1.038 -1.4520 -2.0130 -0.5591
10289TIP3   OH252357   1.885   5.999   0.061  0.5907  0.3557  0.0758
10289TIP3    H152358   1.811   6.050   0.027 -0.4161 -0.6229  0.7382
10289TIP3    H252359   1.945   5.991  -0.013 -1.5587 -1.7552 -1.5686
10290TIP3   OH252360   2.556   2.661  13.257 -0.3838 -0.1033 -0.2233
10290TIP3    H152361   2.582   2.584  13.207  1.0026  0.3461 -0.2408
10290TIP3    H252362   2.624   2.670  13.324 -1.0337  0.5621  0.3670
10291TIP3   OH252363   2.603   5.169   5.196  0.2039 -0.2630 -0.0457
10291TIP3    H152364   2.541   5.130   5.257  0.5226  0.2218  0.6048
10291TIP3    H252365   2.621   5.256   5.233  2.0613 -0.7716  0.3762
10292TIP3   OH252366   1.515   2.843   5.575 -0.1466  0.5619  0.5456
10292TIP3    H152367   1.555   2.906   5.515 -0.7309 -0.3856 -0.8816
10292TIP3    H252368   1.587   2.814   5.631  0.9617 -0.2870 -1.2551
10293TIP3   OH252369   6.811   3.153  16.622  0.0077  0.3030 -0.1441
10293TIP3    H152370   6.776   3.240  16.601  1.2538  1.2965  1.6314
10293TIP3    H252371   6.863   3.167  16.701  1.1945 -1.8607 -0.4856
10294TIP3   OH252372   1.373   0.033   5.978  0.0751  0.0278  0.3532
10294TIP3    H152373   1.345  -0.029   6.045  0.9540  0.0101  0.7136
10294TIP3    H252374   1.363  -0.014   5.895  0.9734 -0.6974  0.6436
10295TIP3   OH252375   6.805   0.542  11.664 -0.4765  0.3203 -0.0992
10295TIP3    H152376   6.843   0.456  11.644  0.6038 -0.3187  3.8373
10295TIP3    H252377   6.879   0.603  11.658 -0.7252  0.5687 -0.6450
10296TIP3   OH252378   2.472   3.924  14.665 -0.3684  0.3628 -0.2380
10296TIP3    H152379   2.390   3.935  14.713 -0.3353  0.2343 -0.1512
10296TIP3    H252380   2.471   3.993  14.599 -1.1946 -0.5255 -1.1651
10297TIP3   OH252381   2.456   4.061  16.898 -0.1434  0.0181  0.1275
10297TIP3    H152382   2.432   3.985  16.845 -1.0175  0.6664 -0.4531
10297TIP3    H252383   2.414   4.135  16.853 -0.4741  0.6631  1.4374
10298TIP3   OH252384   5.050   4.613   2.707  0.2534 -0.3251 -0.5916
10298TIP3    H152385   5.120   4.555   2.675  1.6478  1.6954 -1.4019
10298TIP3    H252386   5.076   4.700   2.679 -1.5174  0.8084  1.0145
10299TIP3   OH252387   0.861   1.254  13.010  0.0846 -0.0384 -0.3495
10299TIP3    H152388   0.768   1.234  13.007  0.1409 -0.2496 -0.9797
10299TIP3    H252389   0.900   1.196  12.944  0.5851  0.4303 -0.4785
10300TIP3   OH252390   1.219   6.347   3.248 -0.3054 -0.1356 -0.4401
10300TIP3    H152391   1.182   6.320   3.164  1.9969  2.6792 -2.5502
10300TIP3    H252392   1.174   6.429   3.268 -0.4071 -0.4827  0.8537
10301TIP3   OH252393   3.140   1.696  11.910 -0.1572 -0.0292  0.0810
10301TIP3    H152394   3.163   1.738  11.828  0.1772 -0.6063 -0.1237
10301TIP3    H252395   3.176   1.754  11.978  0.4432 -0.0682 -0.1997
10302TIP3   OH252396   3.996   1.337  16.452  0.0706  0.2276 -0.6432
10302TIP3    H152397   4.088   1.335  16.424 -0.4029 -2.0383 -2.3078
10302TIP3    H252398   3.965   1.424  16.425  1.3019  0.4065 -1.5624
10303TIP3   OH252399   6.286   2.116  10.148 -0.1589  0.1211  0.2924
10303TIP3    H152400   6.213   2.150  10.097  0.6263  2.1653  0.4293
10303TIP3    H252401   6.251   2.110  10.237 -1.2957 -2.7243 -0.2409
10304TIP3   OH252402   6.403   2.555   1.251 -0.1945 -0.0825  0.1857
10304TIP3    H152403   6.384   2.594   1.336 -0.3789  0.1722  0.0305
10304TIP3    H252404   6.320   2.562   1.203  0.0698  0.3208 -0.2215
10305TIP3   OH252405   4.959   3.366  14.021  0.2192 -0.4458 -0.0897
10305TIP3    H152406   4.868   3.379  14.048  0.9952  0.0865  2.5486
10305TIP3    H252407   4.953   3.312  13.942 -2.3996  0.4975 -0.6367
10306TIP3   OH252408   3.042   5.732  13.811 -0.4164 -0.0293 -0.0205
10306TIP3    H152409   3.057   5.735  13.717  0.0366  1.2930  0.0727
10306TIP3    H252410   2.947   5.722  13.820 -0.5817  0.8897 -0.6219
10307TIP3   OH252411   5.767   4.795   3.043 -0.2505  0.3604 -0.0550
10307TIP3    H152412   5.798   4.886   3.050 -0.8831  0.5455  0.4500
10307TIP3    H252413   5.844   4.746   3.015  0.0731  1.0720 -0.4459
10308TIP3   OH252414   2.135   3.022  13.096 -0.0384 -0.3444  0.5065
10308TIP3    H152415   2.040   3.016  13.091  0.0104 -1.7068  0.7208
10308TIP3    H252416   2.152   3.099  13.150 -0.9962  0.4230 -0.2745
10309TIP3   OH252417   6.141   2.689   0.748  0.3485 -0.1692  0.8804
10309TIP3    H152418   6.067   2.698   0.689  0.4511 -0.5795  0.6890
10309TIP3    H252419   6.121   2.612   0.800  0.3101  0.1270  1.3114
10310TIP3   OH252420   0.984   6.063  12.598 -0.8589  0.1563  0.0292
10310TIP3    H152421   1.044   6.133  12.625 -0.2152 -0.4825  0.2814
10310TIP3    H252422   0.909   6.072  12.658  0.3095 -0.8848  1.7295
10311TIP3   OH252423   5.657   0.064  16.843 -0.2445 -0.0845 -0.5260
10311TIP3    H152424   5.619   0.133  16.897  3.9748  0.9624  1.6024
10311TIP3    H252425   5.660   0.101  16.755  1.1278  2.2506  0.4124
10312TIP3   OH252426   5.786   6.185  13.199  0.4573  0.1459 -0.0953
10312TIP3    H152427   5.822   6.153  13.282  2.0563 -0.8677 -1.1153
10312TIP3    H252428   5.854   6.165  13.134 -0.3137  1.8186 -1.5055
10313TIP3   OH252429   2.488   2.903   2.735 -0.0857  0.0643 -0.2016
10313TIP3    H152430   2.410   2.863   2.772 -1.0736  1.3739 -0.8133
10313TIP3    H252431   2.502   2.857   2.652  0.1577 -0.5769  0.1888
10314TIP3   OH252432   2.086   6.340  17.031  0.1420 -0.0467 -0.2898
10314TIP3    H152433   2.033   6.305  16.959  1.1722 -0.9949 -0.6072
10314TIP3    H252434   2.089   6.269  17.095  3.1998 -1.1136 -1.4272
10315TIP3   OH252435   2.388   4.575  12.003  0.0977 -0.8120 -0.3020
10315TIP3    H152436   2.382   4.482  12.025 -2.0100 -0.7160 -0.2502
10315TIP3    H252437   2.325   4.617  12.062  0.7556  0.6194 -0.5775
10316TIP3   OH252438   1.798   0.142   5.928 -0.0636  0.0504 -0.3928
10316TIP3    H152439   1.744   0.063   5.926 -2.2544  1.3904  1.1147
10316TIP3    H252440   1.799   0.173   5.838  1.7470 -2.1884 -1.2310
10317TIP3   OH252441   4.948   0.734  11.798 -0.0755 -0.5983  0.2204
10317TIP3    H152442   4.986   0.652  11.829 -0.5687 -1.5472 -1.5568
10317TIP3    H252443   4.927   0.782  11.878  0.2614 -2.1823  1.3118
10318TIP3   OH252444   5.999   0.548   5.042 -0.9588 -0.2821 -0.1659
10318TIP3    H152445   6.000   0.530   5.136 -1.2873  0.2341 -0.0598
10318TIP3    H252446   6.090   0.572   5.022 -0.6255 -1.5209 -0.2142
10319TIP3   OH252447   4.709   2.413   0.091  0.5750 -0.2643 -0.0807
10319TIP3    H152448   4.763   2.491   0.101 -0.1923  0.3155 -0.3548
10319TIP3    H252449   4.628   2.445   0.051 -0.7675 -0.7823  2.0600
10320TIP3   OH252450   0.859   3.568   1.027 -0.2558  0.0331 -0.3934
10320TIP3    H152451   0.868   3.569   0.931 -0.5036 -0.1535 -0.4209
10320TIP3    H252452   0.789   3.504   1.043  0.3646 -0.5702 -0.0420
10321TIP3   OH252453   5.879   2.039   5.177 -0.0625 -0.4876 -0.6047
10321TIP3    H152454   5.868   2.050   5.082 -2.3511 -2.0438 -0.5766
10321TIP3    H252455   5.950   1.975   5.186  0.6827  0.2274 -1.2100
10322TIP3   OH252456   5.629   4.213   0.943  0.3164  0.0403  0.3066
10322TIP3    H152457   5.580   4.224   0.861 -0.0593 -1.1478  0.3551
10322TIP3    H252458   5.706   4.270   0.933  0.6019 -0.5668 -1.1436
10323TIP3   OH252459   6.734   4.563  13.366 -0.1523  0.3868  0.6000
10323TIP3    H152460   6.721   4.607  13.282  0.0204 -0.0979  0.3108
10323TIP3    H252461   6.742   4.634  13.430 -1.1045  0.7484  0.3312
10324TIP3   OH252462   1.061   6.371   4.797 -0.3498  0.3084 -0.0349
10324TIP3    H152463   1.084   6.412   4.881 -0.5427  1.5636 -0.5839
10324TIP3    H252464   1.114   6.417   4.732 -0.5050 -0.3777 -0.6648
10325TIP3   OH252465   1.239   4.674  15.064 -0.3299 -0.2902 -0.5340
10325TIP3    H152466   1.334   4.669  15.054 -0.2466  1.1266 -0.6761
10325TIP3    H252467   1.224   4.757  15.108 -1.5032 -0.5825 -0.3526
10326TIP3   OH252468   3.194   1.505   4.631 -0.3112 -0.0566 -0.9751
10326TIP3    H152469   3.244   1.496   4.550 -0.3459  3.7118 -1.5974
10326TIP3    H252470   3.130   1.574   4.612 -1.8398 -0.6250  1.6127
10327TIP3   OH252471   5.062   5.614  13.383  0.2320  0.0645  0.1346
10327TIP3    H152472   5.071   5.545  13.318 -0.0854 -0.0635  0.2247
10327TIP3    H252473   5.103   5.691  13.343 -1.7083  0.5473 -1.0398
10328TIP3   OH252474   0.480   2.994  12.960  0.3301  0.2016 -0.3167
10328TIP3    H152475   0.398   3.014  13.005 -0.4081 -1.5321 -0.7703
10328TIP3    H252476   0.478   3.048  12.881 -1.2653 -1.0688 -1.2065
10329TIP3   OH252477   2.416   0.333   0.853 -0.2157 -0.0491 -0.5225
10329TIP3    H152478   2.447   0.423   0.866  0.6914 -0.2224 -1.3852
10329TIP3    H252479   2.431   0.291   0.938 -0.5731  0.5791 -0.1354
10330TIP3   OH252480   0.615   3.289   4.274  0.0735  0.4458 -0.4098
10330TIP3    H152481   0.678   3.217   4.282 -0.5296 -0.3532 -2.2605
10330TIP3    H252482   0.569   3.271   4.192 -1.2651  2.0424 -0.0545
10331TIP3   OH252483   6.688   3.198  13.226 -0.0469  0.1309 -0.7073
10331TIP3    H152484   6.691   3.283  13.271  1.4408  1.4083 -3.0095
10331TIP3    H252485   6.604   3.160  13.253 -1.0809  2.6237 -0.0811
10332TIP3   OH252486   2.342   5.259   5.373 -0.0573 -0.1802 -0.3346
10332TIP3    H152487   2.415   5.310   5.409 -0.4742  0.2334 -0.0584
10332TIP3    H252488   2.277   5.324   5.349 -1.4570 -0.6510  1.9291
10333TIP3   OH252489   4.236   1.906  14.007  0.4754  0.1902  0.2211
10333TIP3    H152490   4.183   1.878  14.082 -0.6427  0.6846 -0.3679
10333TIP3    H252491   4.198   1.989  13.980  0.9343  0.0749 -0.8331
10334TIP3   OH252492   5.133   1.282  15.940 -0.0974 -0.7845 -0.4736
10334TIP3    H152493   5.191   1.237  15.877  1.4673 -0.5706  0.7578
10334TIP3    H252494   5.146   1.375  15.922 -0.1727 -0.7371 -0.2801
10335TIP3   OH252495   6.336   1.609   2.377  0.0839 -0.4533 -0.9486
10335TIP3    H152496   6.249   1.583   2.347 -0.4657 -1.5976  1.3690
10335TIP3    H252497   6.395   1.546   2.337 -0.7973 -2.9779  1.3637
10336TIP3   OH252498   2.838   1.703   0.378  0.7971 -0.5197 -0.2229
10336TIP3    H152499   2.769   1.641   0.402  0.0997 -0.5724 -2.2048
10336TIP3    H252500   2.915   1.648   0.365  0.3734 -0.9018 -1.2177
10337TIP3   OH252501   6.377   6.503   0.459 -0.0960 -0.1913 -0.1796
10337TIP3    H152502   6.425   6.584   0.477 -1.0764  0.1312  1.0709
10337TIP3    H252503   6.395   6.486   0.366  0.7312  1.0387 -0.2811
10338TIP3   OH252504   2.693   4.575   3.501  0.1496 -0.2256 -0.1098
10338TIP3    H152505   2.643   4.501   3.532 -0.0928  0.2882  0.7532
10338TIP3    H252506   2.767   4.536   3.454 -0.5733 -0.9907 -0.6418
10339TIP3   OH252507   3.365   2.671  14.332  0.0792  0.0369 -0.5188
10339TIP3    H152508   3.317   2.636  14.408  0.2146  2.8135  0.9791
10339TIP3    H252509   3.296   2.700  14.272 -0.1520  1.6403  0.4675
10340TIP3   OH252510   2.256   3.853  13.741  0.1739 -0.2875 -0.1761
10340TIP3    H152511   2.190   3.844  13.673 -0.0674 -3.1437  0.3042
10340TIP3    H252512   2.206   3.854  13.823  0.5142  2.3199  0.1014
10341TIP3   OH252513   6.438   1.250   2.275  0.1049 -0.1739  0.2061
10341TIP3    H152514   6.421   1.186   2.205 -0.7211 -1.8565  1.8343
10341TIP3    H252515   6.533   1.253   2.283  0.1953 -0.2142 -0.7640
10342TIP3   OH252516   6.108   6.310   3.169  0.5044 -0.4434 -0.1406
10342TIP3    H152517   6.085   6.313   3.262  0.4352  1.6152 -0.1957
10342TIP3    H252518   6.194   6.353   3.164 -0.6404  1.8777 -1.3153
10343TIP3   OH252519   5.255   3.740   3.819  0.1906 -0.3915 -0.7431
10343TIP3    H152520   5.335   3.712   3.864  0.3949 -0.8823 -1.3984
10343TIP3    H252521   5.282   3.814   3.765 -0.0514  0.1844 -0.0983
10344TIP3   OH252522   5.428   1.284  12.373 -0.2629  0.0433  0.7120
10344TIP3    H152523   5.427   1.196  12.411  0.2771 -0.6289 -0.7327
10344TIP3    H252524   5.381   1.274  12.290 -2.0883  1.6193  1.4822
10345TIP3   OH252525   4.134   3.815   3.609  0.2094  0.6819  0.2094
10345TIP3    H152526   4.044   3.839   3.630 -0.2281 -0.8379  0.1801
10345TIP3    H252527   4.184   3.840   3.687 -0.3535  0.9122  0.5010
10346TIP3   OH252528   3.678   4.077   6.983  0.0909  0.1609 -1.0603
10346TIP3    H152529   3.769   4.080   6.954  0.1772 -1.4320 -1.0738
10346TIP3    H252530   3.632   4.029   6.914 -0.4478 -0.3724 -0.3486
10347TIP3   OH252531   5.972   5.561  13.671  0.3487  0.3798 -0.4548
10347TIP3    H152532   5.918   5.528  13.743  0.9312 -0.1547 -0.2529
10347TIP3    H252533   6.007   5.644  13.705 -1.6338  1.5887 -1.2094
10348TIP3   OH252534   4.012   4.534   4.764 -0.2607 -0.0486  0.2478
10348TIP3    H152535   4.031   4.464   4.827  0.1560  0.1959  0.3971
10348TIP3    H252536   3.980   4.488   4.686 -0.9319 -0.3418  0.6891
10349TIP3   OH252537   0.207   5.656  16.361  0.1915  0.1916  0.1429
10349TIP3    H152538   0.194   5.740  16.406 -0.9022 -0.3300  0.8460
10349TIP3    H252539   0.188   5.676  16.269 -0.1309  0.7110  0.3114
10350TIP3   OH252540   3.594   2.833   3.477  0.2025 -0.1479 -0.0511
10350TIP3    H152541   3.685   2.860   3.462  1.0033 -0.0463  4.0002
10350TIP3    H252542   3.594   2.740   3.457  0.5958  0.2234 -2.0426
10351TIP3   OH252543   2.280   2.229   2.901 -0.3824  0.6979 -0.2471
10351TIP3    H152544   2.348   2.220   2.968 -1.1282  0.7565  0.5410
10351TIP3    H252545   2.286   2.320   2.874 -0.5211  0.8558  0.2380
10352TIP3   OH252546   3.464   0.416  15.867  0.0339  0.5414 -0.2680
10352TIP3    H152547   3.425   0.407  15.954  1.7174  0.8073  0.5509
10352TIP3    H252548   3.393   0.394  15.807 -1.6267  1.8253  1.1111
10353TIP3   OH252549   2.226   4.866  14.046 -0.6445  0.7987  0.3934
10353TIP3    H152550   2.154   4.814  14.010 -2.0140  1.8083  1.5645
10353TIP3    H252551   2.191   4.902  14.128  1.8776 -0.3486  2.1193
10354TIP3   OH252552   5.292   5.029  16.584 -0.6351  0.0794  0.3954
10354TIP3    H152553   5.261   5.035  16.494  0.7179 -0.8677 -0.1710
10354TIP3    H252554   5.361   5.096  16.591 -2.0549  1.5024  1.3436
10355TIP3   OH252555   2.358   1.979   3.903 -0.4170  0.1826 -0.1586
10355TIP3    H152556   2.424   2.047   3.921  1.0842 -1.0115 -0.8647
10355TIP3    H252557   2.363   1.967   3.808 -0.4005 -1.1452 -0.0021
10356TIP3   OH252558   4.211   0.958   2.131  0.2509  0.3382  0.1805
10356TIP3    H152559   4.119   0.979   2.145  0.1807 -0.3321  0.7736
10356TIP3    H252560   4.249   0.957   2.219  0.5499 -0.6108  0.0459
10357TIP3   OH252561   0.220   1.027  12.156 -0.1768 -0.2971 -0.3940
10357TIP3    H152562   0.271   0.968  12.101 -1.0972 -0.2753 -1.3043
10357TIP3    H252563   0.241   1.114  12.124 -1.1475 -0.3147 -1.1173
10358TIP3   OH252564   1.092   1.240  14.368 -0.4524 -0.1837  0.6327
10358TIP3    H152565   1.055   1.327  14.386  0.2358  0.2393  0.0578
10358TIP3    H252566   1.116   1.206  14.454  0.1087  0.5872  0.7998
10359TIP3   OH252567   4.360   3.352   6.163  0.2589 -0.2600  0.3282
10359TIP3    H152568   4.446   3.361   6.122  0.1171 -1.1459 -0.1918
10359TIP3    H252569   4.373   3.287   6.232  0.1558  0.1251  0.7194
10360TIP3   OH252570   2.453   3.374   3.120 -0.5343  0.2054  0.2499
10360TIP3    H152571   2.411   3.438   3.177  1.0753 -0.2578  2.0336
10360TIP3    H252572   2.547   3.389   3.132 -0.1430 -1.1255 -0.9035
10361TIP3   OH252573   0.286   5.414   2.802 -0.6273  0.2387  0.1297
10361TIP3    H152574   0.313   5.395   2.892  0.1889 -2.1727 -0.5406
10361TIP3    H252575   0.229   5.341   2.779 -1.4053  1.2006 -1.1077
10362TIP3   OH252576   6.634   2.030  13.895 -0.1199  0.7050 -0.2581
10362TIP3    H152577   6.710   2.018  13.951  0.7049 -1.9288 -1.7705
10362TIP3    H252578   6.569   2.073  13.951  0.4436 -2.1667  2.9435
10363TIP3   OH252579   3.803   6.539   4.601 -0.4034  0.8353  0.3472
10363TIP3    H152580   3.764   6.460   4.638  0.3329  0.7127  0.8911
10363TIP3    H252581   3.896   6.520   4.596 -0.4290  1.0008 -1.2295
10364TIP3   OH252582   0.020   2.196   6.608  0.5296  0.0718 -0.4222
10364TIP3    H152583   0.073   2.187   6.687 -1.0987  3.5550  1.3029
10364TIP3    H252584   0.065   2.261   6.555 -0.7432  1.3370 -0.0192
10365TIP3   OH252585   1.944   1.319   4.957  0.0634 -0.4915 -0.3290
10365TIP3    H152586   1.896   1.347   5.035 -0.0476 -0.7482 -0.3037
10365TIP3    H252587   1.884   1.259   4.912  0.8672 -1.9136  0.4196
10366TIP3   OH252588   0.570   0.934   3.891  0.1792  0.4842  0.5142
10366TIP3    H152589   0.487   0.886   3.890  0.6333 -0.3097  0.2355
10366TIP3    H252590   0.619   0.899   3.817  1.3984 -0.2024  1.5925
10367TIP3   OH252591   1.363   6.262   0.888 -0.3225  0.5408 -0.1908
10367TIP3    H152592   1.386   6.200   0.819 -0.2713  1.0846 -0.6737
10367TIP3    H252593   1.289   6.311   0.852 -0.2733  0.8516  0.1259
10368TIP3   OH252594   3.768   1.410  16.246  0.5068 -0.2198 -0.3236
10368TIP3    H152595   3.771   1.417  16.150  1.6973  0.8379 -0.2261
10368TIP3    H252596   3.822   1.482  16.277 -0.7910  0.1522  1.1971
10369TIP3   OH252597   4.755   0.628  15.897  0.4275  0.1783 -0.2301
10369TIP3    H152598   4.712   0.563  15.954  0.0968  0.2973 -0.3404
10369TIP3    H252599   4.709   0.710  15.916  2.0107  0.7906  1.2453
10370TIP3   OH252600   6.209   1.774   0.580 -0.1687 -0.4710 -0.1184
10370TIP3    H152601   6.162   1.805   0.502  1.8322 -0.9037 -1.5680
10370TIP3    H252602   6.162   1.815   0.653 -2.7911 -0.8984 -1.4165
10371TIP3   OH252603   0.215   0.505   1.443 -0.2874 -0.3304  0.2791
10371TIP3    H152604   0.174   0.591   1.456 -0.6534 -0.5493  0.6202
10371TIP3    H252605   0.290   0.505   1.501  0.2737  0.1167 -0.4313
10372TIP3   OH252606   2.076   5.028   4.732  0.4486 -0.3151  0.5920
10372TIP3    H152607   2.141   5.098   4.726  1.0425 -0.8270  0.8201
10372TIP3    H252608   2.041   5.034   4.820 -0.6380  0.6579  0.1126
10373TIP3   OH252609   3.265   1.369   3.259 -0.3499  0.2066  0.6124
10373TIP3    H152610   3.332   1.401   3.198 -1.9253  1.8527 -0.3457
10373TIP3    H252611   3.282   1.418   3.340  0.9495 -1.0414  1.1367
10374TIP3   OH252612   3.397   1.081   2.013 -0.6459 -0.3489 -0.2355
10374TIP3    H152613   3.469   1.017   2.018 -1.3893 -1.1614  0.4374
10374TIP3    H252614   3.412   1.140   2.087 -0.4842 -0.3122 -0.2966
10375TIP3   OH252615   6.762   0.758   1.183  0.0496 -0.0216  0.3761
10375TIP3    H152616   6.768   0.804   1.266  0.5886  0.3538  0.1378
10375TIP3    H252617   6.740   0.826   1.119 -0.5351 -0.3354  0.2350
10376TIP3   OH252618   3.829   3.751   5.176 -0.1308  0.5711 -0.0093
10376TIP3    H152619   3.788   3.696   5.110  0.8377 -0.7008  0.4072
10376TIP3    H252620   3.907   3.787   5.133  1.0024 -0.9859  0.6768
10377TIP3   OH252621   0.660   4.661  14.266  1.0435 -0.3929 -0.6411
10377TIP3    H152622   0.602   4.710  14.208 -0.8803 -0.9791  0.7117
10377TIP3    H252623   0.748   4.679  14.232  0.2729  2.1555 -1.5601
10378TIP3   OH252624   5.247   4.172   2.171 -0.1222  0.0360 -0.1704
10378TIP3    H152625   5.330   4.192   2.129  0.8270 -0.9361  1.1577
10378TIP3    H252626   5.255   4.209   2.259 -1.0171 -0.2775  0.0543
10379TIP3   OH252627   1.106   5.663   4.117  0.0193  0.0359  0.0677
10379TIP3    H152628   1.113   5.685   4.024  1.8122  1.3296  0.4525
10379TIP3    H252629   1.196   5.652   4.146 -0.3647  1.4484  2.0288
10380TIP3   OH252630   3.204   2.542  13.818 -0.1420  0.3792 -0.3397
10380TIP3    H152631   3.203   2.463  13.763  0.2604  1.4284 -1.9104
10380TIP3    H252632   3.167   2.513  13.902  1.6435 -1.9108 -0.2384
10381TIP3   OH252633   6.749   4.234   0.423 -0.1057 -0.9479  0.1099
10381TIP3    H152634   6.762   4.250   0.516 -1.0885  0.0542  0.0991
10381TIP3    H252635   6.742   4.138   0.416  0.3545 -1.0540  1.0029
10382TIP3   OH252636   5.085   5.062  16.767  0.7669 -0.1890  0.5704
10382TIP3    H152637   5.034   4.983  16.783  1.1286 -1.0291 -1.9840
10382TIP3    H252638   5.162   5.031  16.719  0.5986  1.7580 -1.0880
10383TIP3   OH252639   4.171   1.132   1.419 -0.5893 -0.1151  0.0278
10383TIP3    H152640   4.192   1.073   1.347  0.3758  0.1574  0.0796
10383TIP3    H252641   4.255   1.148   1.463 -0.9953  0.5472  0.5844
10384TIP3   OH252642   2.719   4.644   2.023  0.2567 -0.7145 -0.2249
10384TIP3    H152643   2.792   4.628   2.083  0.1509  1.9658  0.7720
10384TIP3    H252644   2.641   4.623   2.074  0.2603 -0.9786 -0.3319
10385TIP3   OH252645   5.891   5.119   6.358 -0.4104 -0.2684  0.1702
10385TIP3    H152646   5.863   5.038   6.316  0.7949 -0.6172 -0.0023
10385TIP3    H252647   5.984   5.105   6.378 -0.0886  1.1942 -0.1788
10386TIP3   OH252648   5.734   0.430  12.711  0.4182  1.4617  0.1979
10386TIP3    H152649   5.813   0.466  12.751  1.1550  0.1080  0.0054
10386TIP3    H252650   5.754   0.425  12.618  0.4002  0.4280  0.2386
10387TIP3   OH252651   2.378   1.623  11.230  0.0702 -0.4226 -0.2081
10387TIP3    H152652   2.343   1.637  11.142  0.4809 -0.3762 -0.3667
10387TIP3    H252653   2.446   1.556  11.219  3.4114  2.7215 -0.7825
10388TIP3   OH252654   1.075   0.691  11.593 -0.3689  0.4445 -0.1548
10388TIP3    H152655   1.013   0.666  11.662  2.7567  0.7736  3.0908
10388TIP3    H252656   1.096   0.609  11.548  1.8759 -1.1904  3.3816
10389TIP3   OH252657   5.371   2.058  13.290  0.1250 -0.1924 -1.0522
10389TIP3    H152658   5.405   2.039  13.377 -1.5574 -0.6961 -0.4626
10389TIP3    H252659   5.343   2.149  13.294 -1.0624 -0.5550 -0.6486
10390TIP3   OH252660   1.072   3.772  12.721 -0.0918  0.0484 -0.4632
10390TIP3    H152661   1.083   3.799  12.812 -1.0851  0.7586 -0.5262
10390TIP3    H252662   1.029   3.847  12.679 -2.7923 -1.4729 -0.7060
10391TIP3   OH252663   3.451   3.176   1.851 -0.6044 -0.1509  0.3688
10391TIP3    H152664   3.413   3.258   1.881 -1.4259 -0.0408 -0.8836
10391TIP3    H252665   3.382   3.136   1.797  0.8063 -0.2218 -1.4925
10392TIP3   OH252666   2.751   5.814   4.038 -0.0793  0.4477 -0.3377
10392TIP3    H152667   2.752   5.890   3.980  0.9572  1.3482  0.8204
10392TIP3    H252668   2.826   5.761   4.009  0.1110  0.6297 -0.1856
10393TIP3   OH252669   5.725   6.789   5.507  0.1208  0.2920  0.2556
10393TIP3    H152670   5.730   6.833   5.592 -0.0375  0.9106 -0.0508
10393TIP3    H252671   5.748   6.698   5.526 -1.3083  0.0931  1.2195
10394TIP3   OH252672   3.474   1.328   5.331  0.0480 -0.6972 -0.2014
10394TIP3    H152673   3.468   1.385   5.407 -1.0920 -0.3607 -0.5162
10394TIP3    H252674   3.566   1.302   5.327  0.5764  1.0206  0.0117
10395TIP3   OH252675   5.404   4.890  11.583  0.1531  0.4753 -0.1216
10395TIP3    H152676   5.336   4.859  11.523  1.1790  0.9951 -1.6252
10395TIP3    H252677   5.425   4.815  11.638 -0.1365 -0.3355 -1.0918
10396TIP3   OH252678   6.629   0.178   5.622 -0.1657 -0.4405 -0.4380
10396TIP3    H152679   6.592   0.142   5.541 -0.0891 -2.2084  0.2699
10396TIP3    H252680   6.579   0.136   5.692 -0.6984  1.5752  0.4762
10397TIP3   OH252681   1.194   3.357   4.154 -0.2894 -0.0531 -0.3038
10397TIP3    H152682   1.171   3.450   4.150 -0.2094 -0.0605 -1.1810
10397TIP3    H252683   1.226   3.344   4.243 -0.1731  0.7919 -0.2132
10398TIP3   OH252684   5.985   3.745  16.392  0.0012 -0.0675 -0.1813
10398TIP3    H152685   5.945   3.676  16.340 -0.7909  1.4607 -1.7033
10398TIP3    H252686   6.075   3.716  16.405 -0.8227 -2.3306  1.0474
10399TIP3   OH252687   1.247   0.264  11.174 -0.3299  0.4743  0.2285
10399TIP3    H152688   1.194   0.251  11.253  0.6268 -1.1889  0.6431
10399TIP3    H252689   1.196   0.225  11.104 -0.0703 -0.3082  0.4701
10400TIP3   OH252690   1.793   0.490   5.332  0.7678  0.0365  0.4563
10400TIP3    H152691   1.702   0.513   5.315  1.3443  0.7258 -2.1144
10400TIP3    H252692   1.806   0.508   5.425 -1.0867  2.1379  0.3696
10401TIP3   OH252693   2.386   6.178   3.834 -0.0192  0.4735 -0.2782
10401TIP3    H152694   2.445   6.163   3.760 -0.0361  0.0696 -0.2138
10401TIP3    H252695   2.438   6.231   3.895  0.8899 -1.2586  0.5225
10402TIP3   OH252696   1.717   0.205  11.182 -0.3434  0.0377 -0.0557
10402TIP3    H152697   1.652   0.188  11.251 -0.4765  0.4552 -0.0738
10402TIP3    H252698   1.670   0.259  11.118 -0.2049 -0.3078 -0.4516
10403TIP3   OH252699   6.414   1.981   2.494  0.3699 -0.1175 -0.3990
10403TIP3    H152700   6.358   1.924   2.441 -0.2986  0.0250  0.1351
10403TIP3    H252701   6.465   2.032   2.431  1.3937 -1.6759 -0.9116
10404TIP3   OH252702   5.024   4.908   0.426  0.4701  0.5467 -0.4260
10404TIP3    H152703   5.045   5.000   0.411 -2.4989  1.2920 -0.6725
10404TIP3    H252704   5.064   4.888   0.511  0.6870  2.2473 -0.0832
10405TIP3   OH252705   3.913   5.582  15.382  0.5155  0.0911  0.2524
10405TIP3    H152706   3.999   5.610  15.350  1.1456 -2.1017 -0.1213
10405TIP3    H252707   3.923   5.575  15.477  1.2507 -1.5698  0.0887
10406TIP3   OH252708   2.229   1.575   2.974 -0.0390 -0.3251  0.0650
10406TIP3    H152709   2.269   1.647   2.925  0.2022  0.4364  1.3211
10406TIP3    H252710   2.147   1.558   2.930  0.5838 -0.2953 -1.1423
10407TIP3   OH252711   0.024   6.047   4.123 -0.1637 -0.3417 -0.0992
10407TIP3    H152712   0.097   6.046   4.186  1.5213  0.9639 -1.9272
10407TIP3    H252713  -0.020   6.130   4.139  0.1042 -0.1292 -0.4650
10408TIP3   OH252714   0.911   5.170   6.440 -0.9229 -0.2008  0.0739
10408TIP3    H152715   0.823   5.206   6.433 -0.2847  1.2576 -0.7298
10408TIP3    H252716   0.931   5.139   6.352  0.5612  2.4505 -0.6229
10409TIP3   OH252717   1.368   3.769  14.931 -0.2149 -0.0958  0.0407
10409TIP3    H152718   1.375   3.729  14.844 -2.5999  1.1737 -0.8242
10409TIP3    H252719   1.386   3.697  14.992 -1.4208 -1.7908 -1.4764
10410TIP3   OH252720   3.193   5.362   0.750  0.7069  0.5000 -0.4881
10410TIP3    H152721   3.121   5.390   0.807  1.5070  1.9579 -0.1354
10410TIP3    H252722   3.226   5.283   0.792 -0.6734 -0.2073 -0.6662
10411TIP3   OH252723   5.741   5.012   3.585 -0.0185 -0.0291  0.5320
10411TIP3    H152724   5.722   5.103   3.610  0.3816  0.1255  0.2821
10411TIP3    H252725   5.685   4.960   3.642  0.8329  0.3185  1.7319
10412TIP3   OH252726   3.489   0.578  17.012  0.2800 -0.0923  0.5193
10412TIP3    H152727   3.526   0.663  16.991 -0.0974  0.1506  0.8072
10412TIP3    H252728   3.482   0.578  17.108  0.2078 -0.4155  0.5157
10413TIP3   OH252729   1.487   5.072   2.772  0.2730 -0.0960 -0.2752
10413TIP3    H152730   1.556   5.110   2.718  1.4473  0.7436  1.7158
10413TIP3    H252731   1.507   4.978   2.772  0.9251  0.0343 -0.4009
10414TIP3   OH252732   2.368   1.117   0.426  0.3135  0.5598  0.2741
10414TIP3    H152733   2.296   1.059   0.399 -0.9416  1.2966  1.8452
10414TIP3    H252734   2.342   1.149   0.512  2.6334  0.7525  0.9750
10415TIP3   OH252735   0.081   4.952   4.700 -0.0134  0.4870 -0.1379
10415TIP3    H152736   0.058   5.038   4.735 -1.1058  0.3885 -0.5878
10415TIP3    H252737   0.042   4.890   4.762  3.1561  0.2142  1.8212
10416TIP3   OH252738   0.294   5.979  15.055  0.5842  0.1723 -1.1406
10416TIP3    H152739   0.246   5.931  15.122  1.8526  2.1503  1.3484
10416TIP3    H252740   0.229   6.036  15.015  0.0607 -0.1264 -0.7226
10417TIP3   OH252741   0.946   1.240  15.779 -0.3948 -0.1133 -0.2111
10417TIP3    H152742   1.038   1.236  15.751 -1.0429  2.8370 -3.3924
10417TIP3    H252743   0.900   1.187  15.714 -1.1964  0.6216 -0.2494
10418TIP3   OH252744   2.644   4.631  14.585  0.4138 -0.0249  0.3174
10418TIP3    H152745   2.623   4.601  14.673  0.3322 -0.4449  0.1571
10418TIP3    H252746   2.716   4.574  14.557  0.4330  0.1001  0.1096
10419TIP3   OH252747   3.070   2.472  15.892 -0.3090  0.7213  0.5818
10419TIP3    H152748   3.064   2.528  15.970 -1.7022  1.5902 -0.1067
10419TIP3    H252749   3.154   2.495  15.853  0.7806 -0.3117  2.2343
10420TIP3   OH252750   2.335   1.377   4.779 -0.3140  1.0503 -0.0097
10420TIP3    H152751   2.358   1.323   4.703 -1.0286  1.3691 -0.4696
10420TIP3    H252752   2.310   1.314   4.846  0.1901  0.7675 -0.0814
10421TIP3   OH252753   2.452   4.873  13.853 -0.4843  0.2218 -0.5724
10421TIP3    H152754   2.507   4.951  13.866  1.5049 -1.1614 -0.2298
10421TIP3    H252755   2.395   4.870  13.929 -3.5416  3.4839 -2.4298
10422TIP3   OH252756   1.796   2.023  10.793 -0.1171 -0.1875  0.7088
10422TIP3    H152757   1.872   2.016  10.736 -1.9866 -0.8650 -1.8995
10422TIP3    H252758   1.778   2.117  10.798  0.7868 -0.0275  1.2944
10423TIP3   OH252759   3.626   3.913   5.281  0.2275 -0.4323 -0.1806
10423TIP3    H152760   3.556   3.852   5.257  0.1911 -0.0995 -0.9620
10423TIP3    H252761   3.706   3.869   5.254  0.3864 -1.0741  1.2589
10424TIP3   OH252762   4.423   4.642   0.957 -0.2887 -0.1736 -0.5655
10424TIP3    H152763   4.381   4.689   1.028 -1.6573 -0.4261 -1.1781
10424TIP3    H252764   4.436   4.708   0.889 -0.4180 -0.2661 -0.6804
10425TIP3   OH252765   1.097   1.047  16.760 -0.8495  0.2030 -0.0858
10425TIP3    H152766   1.173   1.070  16.706  0.3552 -0.2159  1.3648
10425TIP3    H252767   1.033   1.115  16.741  0.1846  1.0349 -0.7518
10426TIP3   OH252768   4.886   2.882  14.742  0.5652  0.9878 -0.4416
10426TIP3    H152769   4.939   2.942  14.793 -0.2645  2.2784 -1.0440
10426TIP3    H252770   4.801   2.925  14.735  0.8419  1.2537 -3.4984
10427TIP3   OH252771   6.148   3.063   3.424  0.7722 -0.7616 -0.0734
10427TIP3    H152772   6.217   3.091   3.364  0.5152 -2.0258 -1.0250
10427TIP3    H252773   6.110   3.144   3.458  0.3050  0.0693 -2.3662
10428TIP3   OH252774   3.937   5.782   2.543  0.2557 -0.1780 -0.2066
10428TIP3    H152775   3.865   5.750   2.598 -0.0021  0.0604 -0.4037
10428TIP3    H252776   4.015   5.771   2.597 -0.1639  1.4174  0.7954
10429TIP3   OH252777   5.798   3.590   2.277  0.3769 -0.0362  0.0356
10429TIP3    H152778   5.785   3.498   2.255  0.5927 -0.0758  0.0780
10429TIP3    H252779   5.715   3.632   2.252  0.7422 -0.0137 -1.1956
10430TIP3   OH252780   3.155   6.752   4.061  0.0749  0.0407 -0.8318
10430TIP3    H152781   3.206   6.700   4.124 -2.1634  0.3589  1.4096
10430TIP3    H252782   3.073   6.704   4.052 -1.7952  2.6793  0.7667
10431TIP3   OH252783   3.708   2.817  13.320 -0.1451 -0.1387  0.6552
10431TIP3    H152784   3.644   2.884  13.343 -1.5734 -1.3535  0.3921
10431TIP3    H252785   3.789   2.865  13.306 -0.9545  1.4436  1.1270
10432TIP3   OH252786   4.694   4.443  15.052  0.2894  0.3267  0.2850
10432TIP3    H152787   4.670   4.450  14.959 -0.8369  1.9897  0.6502
10432TIP3    H252788   4.634   4.378  15.088 -2.5243  2.9183  0.7284
10433TIP3   OH252789   6.021   4.658   3.229 -0.2164  0.2108  0.1822
10433TIP3    H152790   6.112   4.646   3.256 -0.0494  1.0363  0.0068
10433TIP3    H252791   5.991   4.733   3.279 -0.3904  0.7695 -0.7466
10434TIP3   OH252792   2.380   6.077  11.552 -0.0957 -0.1741  0.2982
10434TIP3    H152793   2.473   6.086  11.571 -0.2818  0.7360  0.8493
10434TIP3    H252794   2.344   6.032  11.628 -0.2769  0.4683  0.6053
10435TIP3   OH252795   6.818   5.493   5.308  0.3104 -0.2791  0.8636
10435TIP3    H152796   6.856   5.567   5.260 -1.9820  1.2700  1.2652
10435TIP3    H252797   6.883   5.473   5.375  0.6497  2.0214  1.3258
10436TIP3   OH252798   1.797   0.351   1.612  0.1564 -0.4532 -0.1153
10436TIP3    H152799   1.772   0.272   1.660  1.4358 -0.6161  0.2961
10436TIP3    H252800   1.756   0.422   1.661  1.6283 -0.6006  1.3743
10437TIP3   OH252801   1.799   5.689  13.792  0.1305 -0.4329 -0.0578
10437TIP3    H152802   1.854   5.614  13.772 -1.3282 -1.6738  0.4197
10437TIP3    H252803   1.785   5.732  13.708 -0.6959 -1.9116 -0.7189
10438TIP3   OH252804   3.010   3.643  16.530 -0.0449  0.0771  0.3198
10438TIP3    H152805   2.939   3.580  16.534  0.4095 -0.3901  1.0972
10438TIP3    H252806   3.036   3.657  16.621  2.5490 -1.7167 -0.0395
10439TIP3   OH252807   6.471   5.543   3.458 -0.4237 -0.2743 -0.0081
10439TIP3    H152808   6.485   5.636   3.438 -0.5279 -0.2855 -0.1319
10439TIP3    H252809   6.400   5.542   3.522  0.1920 -0.2096  0.6953
10440TIP3   OH252810   2.863   3.515  12.341  0.2985 -0.2595 -0.0574
10440TIP3    H152811   2.847   3.587  12.402 -1.2157 -0.8640  0.2938
10440TIP3    H252812   2.809   3.536  12.265 -0.1581 -1.0184  0.0516
10441TIP3   OH252813   1.285   2.666   2.869  0.3741 -0.4988 -0.4126
10441TIP3    H152814   1.265   2.587   2.919 -1.3502  1.6078  2.4796
10441TIP3    H252815   1.380   2.675   2.876  0.8159 -2.9311 -1.9906
10442TIP3   OH252816   0.992   2.461   3.235  0.2643  0.2948  0.2403
10442TIP3    H152817   0.899   2.474   3.257  0.4880  0.4493  1.1365
10442TIP3    H252818   1.034   2.444   3.319  1.2696  1.5099  0.0035
10443TIP3   OH252819   5.628   5.295   0.976 -0.1082  0.4681  0.5347
10443TIP3    H152820   5.669   5.270   1.059  1.9182  0.4245 -0.4190
10443TIP3    H252821   5.680   5.369   0.945 -0.4602  0.1263 -0.9558
10444TIP3   OH252822   5.026   6.040   4.520 -0.0847  0.2307 -0.5085
10444TIP3    H152823   4.980   6.062   4.601  0.4514 -0.6429  0.0549
10444TIP3    H252824   4.974   5.970   4.481 -0.3947  0.7154 -0.9853
10445TIP3   OH252825   4.670   3.038   5.146 -0.2604 -0.1232 -0.5630
10445TIP3    H152826   4.618   3.118   5.135 -0.7483 -0.4408 -0.5788
10445TIP3    H252827   4.618   2.984   5.206 -0.5150 -0.9335 -1.4962
10446TIP3   OH252828   6.056   2.377   4.107 -0.0194  1.0253  0.4499
10446TIP3    H152829   6.139   2.380   4.059  0.8383  2.3910  1.9208
10446TIP3    H252830   5.993   2.344   4.043  1.7535 -0.6949 -0.5352
10447TIP3   OH252831   0.279   0.872   3.999  0.0333 -0.0254  0.3423
10447TIP3    H152832   0.280   0.779   3.979 -1.6811  0.2290 -1.1054
10447TIP3    H252833   0.202   0.884   4.054  0.3453  0.5292  0.6703
10448TIP3   OH252834   4.204   6.320   4.808  0.2687  0.0563 -0.0586
10448TIP3    H152835   4.176   6.263   4.880  1.1640 -2.3349 -1.4772
10448TIP3    H252836   4.299   6.309   4.804  0.5330  2.0563 -0.1067
10449TIP3   OH252837   2.877   1.780  11.895 -0.2322  0.0216  0.2131
10449TIP3    H152838   2.880   1.852  11.831  0.9194 -0.3092 -0.1386
10449TIP3    H252839   2.968   1.770  11.924 -0.3771 -1.2594  0.2915
10450TIP3   OH252840   6.763   2.465  16.266  0.1151  1.1367  0.2002
10450TIP3    H152841   6.818   2.388  16.252 -1.5892  0.3734 -3.4816
10450TIP3    H252842   6.819   2.539  16.243  1.8934  1.2733  4.1429
10451TIP3   OH252843   2.672   3.530  14.340  0.4520 -0.1383  0.5827
10451TIP3    H152844   2.578   3.518  14.353  0.4899 -0.5346  0.4928
10451TIP3    H252845   2.681   3.538  14.245 -0.1914  5.5980  0.6502
10452TIP3   OH252846   5.320   4.365   6.147 -0.2532  0.2002 -0.3246
10452TIP3    H152847   5.257   4.347   6.217 -2.3305  1.0787 -1.8458
10452TIP3    H252848   5.365   4.444   6.176 -2.9417  2.1372 -1.0057
10453TIP3   OH252849   1.706   5.309  14.638  0.5070  0.0887  0.1429
10453TIP3    H152850   1.615   5.337  14.645 -0.2900 -1.9928 -1.1166
10453TIP3    H252851   1.753   5.386  14.604 -0.6409  1.3562  1.3251
10454TIP3   OH252852   0.206   4.456   2.071 -0.4210 -0.2766 -0.0019
10454TIP3    H152853   0.289   4.500   2.093 -1.0600  2.4582 -2.3287
10454TIP3    H252854   0.156   4.457   2.152  1.0863 -0.2112  0.9721
10455TIP3   OH252855   5.996   0.696  13.860  0.4663 -0.0081  0.5225
10455TIP3    H152856   6.002   0.637  13.785 -0.0139 -0.0828  0.5383
10455TIP3    H252857   6.015   0.641  13.936  0.6794  0.0066  0.4798
10456TIP3   OH252858   4.094   1.423  13.424  0.4292  0.8182  0.0322
10456TIP3    H152859   4.145   1.487  13.474 -0.1532  0.6336  0.8956
10456TIP3    H252860   4.026   1.394  13.485  1.2717 -1.3656  0.0160
10457TIP3   OH252861   2.263   0.831  11.772 -0.7470 -0.4050  0.5762
10457TIP3    H152862   2.264   0.829  11.676  1.0639  1.9213  0.4294
10457TIP3    H252863   2.190   0.889  11.794 -0.1191  0.4425  0.4823
10458TIP3   OH252864   2.601   0.549  14.319  0.5478 -0.1252  0.3534
10458TIP3    H152865   2.527   0.609  14.313 -0.1428 -0.9955 -0.1756
10458TIP3    H252866   2.604   0.505  14.233  0.1923 -1.7751  1.1434
10459TIP3   OH252867   0.041   5.843   6.308  0.1322  0.5083 -0.2028
10459TIP3    H152868   0.038   5.905   6.236 -0.7575 -0.5874 -1.1633
10459TIP3    H252869   0.057   5.758   6.266  0.7717  0.0011  1.0088
10460TIP3   OH252870   2.840   2.972   3.192  0.6178  0.1493 -0.3407
10460TIP3    H152871   2.847   3.067   3.205  0.2148  0.2148 -0.5844
10460TIP3    H252872   2.915   2.950   3.137  1.3271  0.1537  0.6142
10461TIP3   OH252873   3.389   1.335   4.805 -0.3070  0.7027  0.2890
10461TIP3    H152874   3.319   1.400   4.802  0.0012  1.2273  2.4776
10461TIP3    H252875   3.446   1.356   4.732 -0.8485  2.1452  0.2615
10462TIP3   OH252876   2.189   5.837   2.604 -0.0291 -0.1102  0.1610
10462TIP3    H152877   2.130   5.782   2.552 -0.1734 -0.2053  0.4226
10462TIP3    H252878   2.269   5.842   2.552 -0.6292  0.9089 -0.7136
10463TIP3   OH252879   6.286   5.366  12.090  0.3159 -0.3071 -0.6384
10463TIP3    H152880   6.284   5.304  12.163  0.9133 -0.7273 -0.9724
10463TIP3    H252881   6.376   5.364  12.059  0.4940  1.1942 -0.2820
10464TIP3   OH252882   1.011   5.018   4.257  0.6333  0.7809 -0.2138
10464TIP3    H152883   0.965   5.074   4.320  1.1195 -0.1968  1.0667
10464TIP3    H252884   1.007   4.930   4.296  2.6130  0.4723 -0.5750
10465TIP3   OH252885   2.608   6.639   5.046 -0.3909 -0.1269 -0.5164
10465TIP3    H152886   2.599   6.733   5.029  2.4909 -0.0133 -1.8595
10465TIP3    H252887   2.630   6.634   5.139 -0.5660  0.5146 -0.4347
10466TIP3   OH252888   3.743   5.284  13.347  0.4068  0.6799  0.2504
10466TIP3    H152889   3.764   5.236  13.266 -1.0597  1.3657 -0.5646
10466TIP3    H252890   3.816   5.345  13.357  0.5887  0.6236 -0.5789
10467TIP3   OH252891   0.677   5.268  15.084  0.7577 -0.2210 -0.0211
10467TIP3    H152892   0.701   5.351  15.125  0.8217  0.0650 -0.6345
10467TIP3    H252893   0.660   5.209  15.158  0.0275  0.5274  0.4279
10468TIP3   OH252894   5.573   4.004  13.002  0.5505  0.9766  0.2144
10468TIP3    H152895   5.541   4.066  13.068  0.6320  0.3665  0.8439
10468TIP3    H252896   5.589   3.924  13.051 -1.1770 -0.0864 -0.8523
10469TIP3   OH252897   2.334   0.478  15.191 -0.3614 -0.3863  0.1068
10469TIP3    H152898   2.405   0.535  15.162 -0.4346 -1.1782 -1.7252
10469TIP3    H252899   2.276   0.471  15.116 -2.6270  0.5191  1.6555
10470TIP3   OH252900   3.882   3.652   4.454 -0.5022 -0.2964  0.0314
10470TIP3    H152901   3.799   3.699   4.467 -0.0938  0.1289  1.2970
10470TIP3    H252902   3.904   3.620   4.542  0.7967 -0.1910 -0.2480
10471TIP3   OH252903   6.261   3.844   5.799  0.3344 -0.1869 -0.0368
10471TIP3    H152904   6.175   3.803   5.791  0.5512 -0.9486  1.2237
10471TIP3    H252905   6.318   3.790   5.744  0.5706 -1.5262  1.4246
10472TIP3   OH252906   6.332   2.285  13.801 -0.6259  0.0366  0.7752
10472TIP3    H152907   6.323   2.376  13.830 -0.1701 -0.1404  1.5106
10472TIP3    H252908   6.385   2.244  13.870  0.0759 -0.5220 -0.0776
10473TIP3   OH252909   2.983   6.834  14.148 -0.0324  0.2907 -0.1720
10473TIP3    H152910   2.891   6.807  14.145 -0.0282  0.3278 -0.9905
10473TIP3    H252911   3.026   6.780  14.082  0.4636  0.5315 -0.0500
10474TIP3   OH252912   4.059   5.680   2.779  0.4155  0.9224  0.5326
10474TIP3    H152913   3.979   5.702   2.826 -0.3748  1.3487 -0.9292
10474TIP3    H252914   4.126   5.669   2.847 -0.8283  0.7659  1.7657
10475TIP3   OH252915   5.053   2.465  12.258  0.2189  0.0286  0.0465
10475TIP3    H152916   5.117   2.396  12.242  0.3934  0.0887  0.4688
10475TIP3    H252917   5.000   2.432  12.331  1.0640  0.8444  1.0652
10476TIP3   OH252918   0.040   3.004   4.270 -0.0275  0.6607  0.0290
10476TIP3    H152919   0.021   3.098   4.270  1.4732  1.0173 -1.1633
10476TIP3    H252920   0.087   2.990   4.187 -1.2980 -1.3916 -0.3993
10477TIP3   OH252921   1.913   5.562  12.250  0.0372 -0.2250 -0.7211
10477TIP3    H152922   1.881   5.479  12.285 -0.6282 -0.0097 -0.8042
10477TIP3    H252923   1.984   5.587  12.308 -0.2254 -0.5027 -0.2749
10478TIP3   OH252924   6.732   6.270  16.489 -0.5163 -0.1703  0.7515
10478TIP3    H152925   6.695   6.284  16.577 -0.1611 -0.5528  0.9637
10478TIP3    H252926   6.801   6.205  16.502  1.9623  2.2872  0.7876
10479TIP3   OH252927   2.282   0.597  11.937  0.6196  0.2344  0.5895
10479TIP3    H152928   2.215   0.622  12.002 -0.8978  0.6430 -1.0617
10479TIP3    H252929   2.291   0.674  11.881  0.9184 -0.5653 -0.4783
10480TIP3   OH252930   2.767   1.469  13.082 -0.2486 -0.3170 -0.1244
10480TIP3    H152931   2.704   1.535  13.109 -0.2072 -0.2499 -0.1929
10480TIP3    H252932   2.824   1.513  13.018  2.6222  0.9790  3.0221
10481TIP3   OH252933   5.463   3.392   3.496  0.4039 -0.3393 -0.3471
10481TIP3    H152934   5.440   3.377   3.588  0.5582 -2.3309 -0.6029
10481TIP3    H252935   5.550   3.353   3.487 -0.2422 -1.5331 -1.6869
10482TIP3   OH252936   0.932   5.251   3.434 -0.5501 -0.3079  0.0257
10482TIP3    H152937   0.886   5.322   3.479 -0.0557  0.8890 -1.2623
10482TIP3    H252938   0.871   5.223   3.366 -0.1220  0.0144 -0.4995
10483TIP3   OH252939   3.391   0.182   4.383 -0.6958  0.0695  0.4685
10483TIP3    H152940   3.442   0.229   4.317 -0.3855 -0.5024  0.2939
10483TIP3    H252941   3.317   0.146   4.335 -0.8245  0.2083  0.5627
10484TIP3   OH252942   0.928   3.690  11.774  0.1022  0.0520 -0.7382
10484TIP3    H152943   0.994   3.744  11.731  1.6982 -0.4381  0.9633
10484TIP3    H252944   0.861   3.752  11.802  1.6515  1.1258  0.7364
10485TIP3   OH252945   6.709   3.636  11.455 -0.2979 -0.1012  0.4517
10485TIP3    H152946   6.702   3.568  11.389  0.0578  0.6026 -0.3284
10485TIP3    H252947   6.803   3.655  11.460 -0.3731  0.1733  0.8227
10486TIP3   OH252948   1.201   6.102  14.190 -0.1116  0.4965 -0.2903
10486TIP3    H152949   1.122   6.142  14.153  0.3635  0.2970 -1.5715
10486TIP3    H252950   1.171   6.018  14.225 -0.2460 -0.2398 -2.0795
10487TIP3   OH252951   3.914   4.215  15.979 -0.0886 -0.0958 -0.0965
10487TIP3    H152952   3.840   4.210  16.039 -0.1404  0.9847 -0.0536
10487TIP3    H252953   3.878   4.188  15.894  0.3212 -3.1078  0.5715
10488TIP3   OH252954   4.032   3.011   5.249 -0.1535 -0.6394  0.8189
10488TIP3    H152955   4.084   2.994   5.328 -0.1216 -1.3434  0.6534
10488TIP3    H252956   3.987   2.928   5.233 -1.2102 -0.0853  0.8741
10489TIP3   OH252957   4.077   5.032  13.641  0.1084  0.6389  0.6388
10489TIP3    H152958   4.125   5.102  13.597 -1.1570  0.9293 -0.3446
10489TIP3    H252959   3.985   5.051  13.622 -0.2278 -1.8935 -0.5975
10490TIP3   OH252960   2.825   0.760  14.761  0.2776 -0.5437  0.2252
10490TIP3    H152961   2.844   0.829  14.824 -1.0065  0.0227  0.0402
10490TIP3    H252962   2.808   0.807  14.679 -0.5355 -1.0733  0.0800
10491TIP3   OH252963   4.798   3.360   5.619 -0.3691  0.1589  0.4237
10491TIP3    H152964   4.812   3.409   5.699 -2.8090  0.5055  0.7360
10491TIP3    H252965   4.871   3.298   5.615  0.3148  0.7649  2.3944
10492TIP3   OH252966   4.797   4.569  16.064  0.3499  0.3530 -1.1681
10492TIP3    H152967   4.799   4.474  16.059  1.4908  0.2087  0.7289
10492TIP3    H252968   4.706   4.593  16.047 -1.1727 -1.5399  2.9258
10493TIP3   OH252969   3.930   3.018  12.519 -0.4971  0.0776 -0.1556
10493TIP3    H152970   3.856   3.007  12.459 -0.1201  2.5200 -1.2078
10493TIP3    H252971   3.898   3.079  12.586  0.1483  0.1040  0.1346
10494TIP3   OH252972   3.080   2.004   2.867 -0.5579  0.2542  0.2619
10494TIP3    H152973   3.148   2.043   2.812 -1.3476 -0.2020 -1.0908
10494TIP3    H252974   3.042   1.935   2.812 -1.7744  0.1777  1.1661
10495TIP3   OH252975   5.490   0.812  16.276  0.5780  0.0008 -0.2524
10495TIP3    H152976   5.408   0.850  16.308  0.0741 -0.5668 -0.8305
10495TIP3    H252977   5.466   0.723  16.249  1.1246  0.2136 -1.5410
10496TIP3   OH252978   0.414   1.686  10.371 -0.2689  0.0452  0.5902
10496TIP3    H152979   0.422   1.772  10.412 -0.7891  0.5818 -0.3944
10496TIP3    H252980   0.322   1.678  10.348 -0.2817 -0.9030  0.9043
10497TIP3   OH252981   0.042   6.831  13.244 -0.0951 -0.5578  0.3614
10497TIP3    H152982   0.009   6.920  13.252  0.5693 -0.2529 -0.1800
10497TIP3    H252983  -0.019   6.778  13.295  0.3358  0.3903  1.9117
10498TIP3   OH252984   2.954   6.348  13.706 -0.1009 -0.0319 -0.1062
10498TIP3    H152985   2.910   6.395  13.635 -0.8112 -0.3929  0.0826
10498TIP3    H252986   3.040   6.390  13.713  0.6126 -0.9672 -2.2240
10499TIP3   OH252987   6.541   3.342  15.028  0.1223 -0.6541 -0.0770
10499TIP3    H152988   6.565   3.312  15.115  2.2357  0.1734 -0.3227
10499TIP3    H252989   6.624   3.347  14.980 -0.8898 -0.3483 -1.9132
10500TIP3   OH252990   0.548   1.721   3.701 -0.2328  0.1920  0.1004
10500TIP3    H152991   0.597   1.715   3.619 -0.2549  2.0475 -0.0922
10500TIP3    H252992   0.488   1.647   3.699  1.6412 -1.4042 -0.2638
10501TIP3   OH252993   4.472   1.061  11.219  0.4498 -0.6832 -0.1787
10501TIP3    H152994   4.475   1.037  11.126 -0.9519 -1.2722 -0.0992
10501TIP3    H252995   4.409   1.001  11.257 -1.5965  1.7097  0.4810
10502TIP3   OH252996   5.944   2.796  14.544  0.1557  0.0699  0.5305
10502TIP3    H152997   5.871   2.798  14.483 -0.8669 -0.5568  1.6870
10502TIP3    H252998   5.981   2.884  14.541  1.1647 -0.3463 -2.1432
10503TIP3   OH252999   2.100   2.259   0.667  0.0948 -0.5323 -0.2691
10503TIP3    H153000   2.020   2.286   0.623  0.5861  0.7453 -0.4247
10503TIP3    H253001   2.072   2.233   0.755 -0.5082 -0.2532 -0.3757
10504TIP3   OH253002   0.970   2.272  14.322  0.1137  0.3773 -0.5333
10504TIP3    H153003   0.982   2.305  14.411  2.3449 -2.0978  0.2218
10504TIP3    H253004   1.008   2.340  14.266  1.0551  0.8661  0.6414
10505TIP3   OH253005   1.341   2.458  12.465  0.1005 -0.1818 -0.0741
10505TIP3    H153006   1.356   2.523  12.396  0.4353  0.1509  0.3051
10505TIP3    H253007   1.428   2.435  12.496 -0.0657  0.0575  0.5879
10506TIP3   OH253008   5.223   6.297   4.198  0.1863  0.0968 -0.8678
10506TIP3    H153009   5.238   6.275   4.290  1.0907  0.3103 -0.9544
10506TIP3    H253010   5.146   6.353   4.198 -0.0921 -0.2759 -0.2914
10507TIP3   OH253011   2.952   1.874  11.430 -0.2466  0.1716  0.1037
10507TIP3    H153012   3.026   1.888  11.489 -0.1167 -0.9742  0.2530
10507TIP3    H253013   2.880   1.922  11.469  0.3571  1.1015  0.0919
10508TIP3   OH253014   6.818   1.628  12.832  0.0919 -0.0528 -0.1935
10508TIP3    H153015   6.821   1.721  12.809 -2.6309  0.7610  2.1091
10508TIP3    H253016   6.740   1.595  12.789  0.4434 -1.0225 -0.1168
10509TIP3   OH253017   0.836   4.258  13.025  0.0554 -0.2686 -0.6118
10509TIP3    H153018   0.848   4.353  13.014  0.3966 -0.2135  0.1592
10509TIP3    H253019   0.909   4.219  12.977  1.0968 -0.0567  0.7289
10510TIP3   OH253020   2.779   2.686  13.400  0.0302 -0.1960  0.0290
10510TIP3    H153021   2.790   2.649  13.487  1.1146  0.9352  0.3971
10510TIP3    H253022   2.853   2.653  13.350 -1.2436 -1.8591 -0.8789
10511TIP3   OH253023   3.630   3.834  16.846 -0.4477 -0.2742  0.2518
10511TIP3    H153024   3.674   3.890  16.911 -0.7356 -0.9917  1.0858
10511TIP3    H253025   3.700   3.777  16.813 -0.6898 -1.3599  1.5187
10512TIP3   OH253026   4.796   6.690  16.120 -0.1658 -0.4858 -0.7751
10512TIP3    H153027   4.715   6.741  16.109  1.0055  1.1564 -2.4077
10512TIP3    H253028   4.827   6.676  16.030  1.8285 -0.3056 -0.1432
10513TIP3   OH253029   4.206   0.730  14.434 -0.0251  0.0238 -0.0570
10513TIP3    H153030   4.241   0.763  14.352  1.3331  0.5434  0.6927
10513TIP3    H253031   4.151   0.801  14.468  0.0897  0.1455 -0.1240
10514TIP3   OH253032   1.906   5.040   1.977  0.5870  0.3164  0.1361
10514TIP3    H153033   1.890   5.061   1.885 -2.2674 -0.7004  0.2906
10514TIP3    H253034   1.850   5.102   2.026 -0.7350 -1.4294  0.9617
10515TIP3   OH253035   3.676   6.430  12.383  0.6523  0.2525 -0.8632
10515TIP3    H153036   3.665   6.338  12.405  1.0630 -0.1473 -2.2170
10515TIP3    H253037   3.586   6.462  12.372  0.4396  0.4286  1.0703
10516TIP3   OH253038   2.367   3.332   5.488  0.1488  0.1650 -0.1285
10516TIP3    H153039   2.350   3.347   5.581 -0.3113  1.6505 -0.4286
10516TIP3    H253040   2.460   3.312   5.483  0.7518  2.4975  0.4366
10517TIP3   OH253041   0.373   2.155  15.812  0.1683 -0.0590 -0.3045
10517TIP3    H153042   0.438   2.187  15.750 -1.2635 -1.3844 -2.6573
10517TIP3    H253043   0.375   2.059  15.802 -1.6316 -0.1748  0.0090
10518TIP3   OH253044   5.956   1.836  15.144  0.6837  0.3809  0.0118
10518TIP3    H153045   5.963   1.909  15.082  1.3261 -0.4189 -0.8893
10518TIP3    H253046   5.971   1.758  15.091 -0.1763 -0.4354  0.9207
10519TIP3   OH253047   0.383   0.932   5.505  0.4506  0.2905 -0.8998
10519TIP3    H153048   0.312   0.986   5.470 -1.6018 -1.2057  0.7059
10519TIP3    H253049   0.456   0.993   5.517 -1.8705  2.9047  1.2898
10520TIP3   OH253050   2.275   2.706   3.777 -0.5038 -0.4073 -0.2208
10520TIP3    H153051   2.329   2.759   3.836  0.4877 -1.0076 -0.5658
10520TIP3    H253052   2.246   2.767   3.709 -1.6695  0.2963  0.8594
10521TIP3   OH253053   3.100   5.923  14.009  0.3128  0.4896 -0.0276
10521TIP3    H153054   3.147   5.857  14.059 -1.2236 -0.5253  0.1517
10521TIP3    H253055   3.073   5.877  13.929 -0.5916  0.9447  0.0067
10522TIP3   OH253056   5.281   6.804  13.212 -0.0891 -0.2888  0.4545
10522TIP3    H153057   5.227   6.828  13.137  0.5526  0.7630  0.2951
10522TIP3    H253058   5.357   6.862  13.205  1.2430 -1.9458  0.4638
10523TIP3   OH253059   6.488   4.140  16.776 -0.3216 -0.0916  0.4522
10523TIP3    H153060   6.573   4.151  16.733 -2.2944 -1.6126 -4.5538
10523TIP3    H253061   6.485   4.048  16.801  0.1213  0.4063  2.5990
10524TIP3   OH253062   4.960   3.099  15.641 -0.4522 -0.1113  0.2154
10524TIP3    H153063   4.996   3.051  15.716  0.2876 -0.2482 -0.2143
10524TIP3    H253064   4.998   3.186  15.648 -0.8985  0.0785  0.3528
10525TIP3   OH253065   4.604   1.095  16.624 -0.2494  0.2020 -0.0016
10525TIP3    H153066   4.671   1.090  16.693 -0.0490 -0.8064 -0.2511
10525TIP3    H253067   4.599   1.188  16.603 -0.2845  0.5261  1.3428
10526TIP3   OH253068   4.186   5.862  17.101 -0.6114  0.0205  0.6021
10526TIP3    H153069   4.256   5.921  17.074  0.2562 -0.4787  1.6651
10526TIP3    H253070   4.119   5.920  17.138 -0.9576  0.5322 -0.7667
10527TIP3   OH253071   5.827   6.470  14.481  0.3448 -0.0820 -0.1216
10527TIP3    H153072   5.847   6.547  14.427  2.3387  0.8859  1.8549
10527TIP3    H253073   5.738   6.447  14.457 -0.1752  2.5788 -1.1251
10528TIP3   OH253074   3.460   0.487  14.198  0.0244  0.3089 -0.0124
10528TIP3    H153075   3.481   0.577  14.172 -1.1512  0.4231 -0.6412
10528TIP3    H253076   3.457   0.490  14.293 -1.2372  1.2422 -0.0629
10529TIP3   OH253077   1.612   4.217   5.820 -0.1063 -0.1300 -0.4772
10529TIP3    H153078   1.521   4.237   5.799  0.1677 -0.0637 -1.6625
10529TIP3    H253079   1.659   4.233   5.739  1.4046  2.4609  0.7673
10530TIP3   OH253080   0.848   0.254  13.508 -0.1656 -0.4412 -0.2911
10530TIP3    H153081   0.846   0.170  13.463  3.3839 -0.7215 -0.1540
10530TIP3    H253082   0.837   0.233  13.601  0.6176 -0.7476 -0.2669
10531TIP3   OH253083   1.089   1.672   4.930 -0.4058 -0.4561  0.4106
10531TIP3    H153084   1.119   1.760   4.908  0.5264 -0.9662 -0.4466
10531TIP3    H253085   1.047   1.641   4.850 -1.0520 -0.6616  0.8268
10532TIP3   OH253086   2.636   1.825  14.583  0.5685  0.5903 -0.1862
10532TIP3    H153087   2.699   1.872  14.638  0.4704 -0.4985  0.8879
10532TIP3    H253088   2.564   1.804  14.641  0.2167 -0.1249 -0.8586
10533TIP3   OH253089   3.518   3.194   5.139  0.3196  0.1423  0.1080
10533TIP3    H153090   3.448   3.152   5.188 -0.3350  0.1494 -0.8125
10533TIP3    H253091   3.580   3.223   5.207 -1.5354  1.9743  1.1388
10534TIP3   OH253092   0.872   3.531  15.668 -0.3785 -0.2832 -0.0453
10534TIP3    H153093   0.823   3.520  15.587 -0.5602 -0.4567  0.0877
10534TIP3    H253094   0.831   3.607  15.711  0.5067  0.5826 -0.6920
10535TIP3   OH253095   3.575   6.243   2.120 -0.8656  0.5125  0.2243
10535TIP3    H153096   3.633   6.218   2.048 -0.7696 -0.2949  0.5751
10535TIP3    H253097   3.540   6.328   2.094  0.9078  1.3116  0.2522
10536TIP3   OH253098   6.413   2.294  15.712  0.0287 -0.4946  0.2078
10536TIP3    H153099   6.371   2.310  15.797  0.0927 -0.2567  0.1947
10536TIP3    H253100   6.352   2.332  15.648 -0.7679 -2.0023  0.0231
10537TIP3   OH253101   3.280   0.375  14.034  0.2546  0.1144 -0.0262
10537TIP3    H153102   3.219   0.348  14.103  0.1765 -1.2312 -0.5886
10537TIP3    H253103   3.343   0.432  14.078 -1.5664  1.8244  0.5031
10538TIP3   OH253104   3.301   3.029  12.522  0.2597  0.1211 -0.6393
10538TIP3    H153105   3.267   2.965  12.585  0.6438 -0.4419 -0.9939
10538TIP3    H253106   3.395   3.030  12.537  0.1455  1.4958  0.1701
10539TIP3   OH253107   4.121   5.570  16.318  0.0936 -0.2278  0.1095
10539TIP3    H153108   4.122   5.500  16.382  0.4343 -0.1898  0.1500
10539TIP3    H253109   4.211   5.604  16.317  0.3412 -0.8445 -1.0533
10540TIP3   OH253110   4.094   1.603   4.445 -0.3569  0.7795  0.2717
10540TIP3    H153111   4.055   1.578   4.362 -2.5517 -1.5303  1.8658
10540TIP3    H253112   4.179   1.641   4.421 -0.6716 -0.2518 -2.9488
10541TIP3   OH253113   5.804   0.973  10.539  0.3991 -0.2578 -0.8106
10541TIP3    H153114   5.728   1.022  10.569 -0.1691 -1.6197  0.0794
10541TIP3    H253115   5.877   1.034  10.545 -0.1785  0.2999  0.8236
10542TIP3   OH253116   3.353   5.626   4.713  0.4363 -0.6022  0.5091
10542TIP3    H153117   3.428   5.615   4.772  0.9628 -2.0977 -0.3785
10542TIP3    H253118   3.362   5.555   4.650 -1.1409 -0.1446 -0.2761
10543TIP3   OH253119   6.580   6.391  15.778  0.3738  0.1582  0.3747
10543TIP3    H153120   6.615   6.343  15.853  0.0972  0.6955  0.8585
10543TIP3    H253121   6.543   6.323  15.722  0.0753 -0.2110  1.0011
10544TIP3   OH253122   0.421   2.168   1.636  0.3492 -0.7910 -0.1402
10544TIP3    H153123   0.394   2.192   1.724 -0.3634 -1.9077 -0.0315
10544TIP3    H253124   0.339   2.148   1.590  0.7934 -1.4471 -0.6700
10545TIP3   OH253125   1.136   5.043  15.703  0.4340  0.0930  0.1158
10545TIP3    H153126   1.046   5.033  15.736  0.2218 -1.3426 -0.7891
10545TIP3    H253127   1.129   5.107  15.632  0.0849 -0.1645 -0.0849
10546TIP3   OH253128   2.706   6.465  14.939 -0.4976 -0.5394  0.0289
10546TIP3    H153129   2.666   6.425  15.016 -0.9843  0.6208  0.3975
10546TIP3    H253130   2.768   6.399  14.907 -0.5746 -1.1881  1.1767
10547TIP3   OH253131   2.041   4.298   5.729  0.2559 -0.2139 -0.5354
10547TIP3    H153132   1.947   4.313   5.730 -0.2218 -2.6654 -0.2061
10547TIP3    H253133   2.059   4.252   5.811  2.0192  1.4694  0.0824
10548TIP3   OH253134   6.300   0.197   3.424  0.5590  0.2718 -0.8635
10548TIP3    H153135   6.369   0.263   3.416  1.4082 -0.0596  2.2574
10548TIP3    H253136   6.346   0.114   3.436 -0.1824  0.1683  2.2858
10549TIP3   OH253137   5.978   1.911  13.642  0.4863  0.7538 -0.0129
10549TIP3    H153138   6.009   1.988  13.690 -0.0030  0.0437  1.5088
10549TIP3    H253139   5.978   1.840  13.707  0.8318 -0.5278 -1.3429
10550TIP3   OH253140   1.429   1.723   3.470 -0.4573  0.7407 -0.6378
10550TIP3    H153141   1.381   1.648   3.506  0.0591  0.9965  0.6236
10550TIP3    H253142   1.499   1.683   3.417 -0.5128  0.3347 -0.4075
10551TIP3   OH253143   1.607   1.102   5.252 -0.1633 -0.7876  0.5558
10551TIP3    H153144   1.622   1.139   5.165  0.6219 -1.4617  0.3886
10551TIP3    H253145   1.518   1.068   5.249 -1.0107  1.2567  0.7981
10552TIP3   OH253146   6.633   4.556  11.528  0.2689 -0.1482  0.6813
10552TIP3    H153147   6.606   4.473  11.568  2.9369 -0.8664  1.2450
10552TIP3    H253148   6.684   4.530  11.451 -1.5927  1.1298 -1.0811
10553TIP3   OH253149   4.044   6.496   0.969  0.7494 -0.5474  0.1082
10553TIP3    H153150   4.006   6.418   0.930 -0.3370  0.1231 -0.2277
10553TIP3    H253151   4.079   6.467   1.053  0.4130 -1.4005 -0.0417
10554TIP3   OH253152   4.943   4.915  12.217 -0.2700  0.3396  0.0716
10554TIP3    H153153   4.861   4.895  12.173  0.5234 -1.5425 -0.6970
10554TIP3    H253154   5.010   4.889  12.154  0.9159 -0.4181  1.5769
10555TIP3   OH253155   0.824   5.482  14.930 -0.2230 -0.3322  0.5663
10555TIP3    H153156   0.833   5.568  14.890  3.8565 -1.1932 -0.8213
10555TIP3    H253157   0.784   5.428  14.862  1.4264 -0.4794 -0.3399
10556TIP3   OH253158   4.586   1.295  13.351  0.1595 -0.4263  0.6781
10556TIP3    H153159   4.517   1.268  13.290  0.6186 -1.5538  0.6299
10556TIP3    H253160   4.591   1.223  13.414 -1.9862  1.7022  3.5673
10557TIP3   OH253161   4.133   3.245   4.199  0.5120 -0.1246  0.1210
10557TIP3    H153162   4.140   3.265   4.292 -1.4273  0.1300  0.2673
10557TIP3    H253163   4.115   3.329   4.157 -2.4961 -0.6605  0.0771
10558TIP3   OH253164   4.382   4.875   4.665  0.0331 -0.3964  0.2090
10558TIP3    H153165   4.331   4.892   4.586 -0.6830 -0.9982  0.5301
10558TIP3    H253166   4.432   4.956   4.679  0.0807 -0.2436 -0.7824
10559TIP3   OH253167   0.973   3.429  11.735  0.0535  0.3232 -0.5495
10559TIP3    H153168   0.964   3.521  11.760  1.2536  0.8462 -1.8733
10559TIP3    H253169   0.956   3.428  11.641  0.1240 -0.8036 -0.5681
10560TIP3   OH253170   0.526   6.343  12.678 -0.1649  0.1814  0.2397
10560TIP3    H153171   0.439   6.381  12.691 -0.8697 -0.8383 -1.2175
10560TIP3    H253172   0.585   6.400  12.728 -1.7552  0.3773  1.9928
10561TIP3   OH253173   3.869   2.562   3.921 -0.3925 -0.1012 -0.1650
10561TIP3    H153174   3.860   2.646   3.966 -0.3140  0.1336 -0.5875
10561TIP3    H253175   3.854   2.497   3.990 -0.6634  0.2575  0.1209
10562TIP3   OH253176   4.119   3.638   0.850  0.0873 -0.0777 -0.4497
10562TIP3    H153177   4.152   3.614   0.763  0.4486 -0.2257 -0.2704
10562TIP3    H253178   4.189   3.691   0.888  0.6679 -1.4522  0.4365
10563TIP3   OH253179   4.492   0.401  14.208  0.4599 -0.1392  0.0878
10563TIP3    H153180   4.434   0.454  14.264 -0.1201 -0.7561  0.0774
10563TIP3    H253181   4.486   0.313  14.244  0.1997 -0.5164 -0.8580
10564TIP3   OH253182   0.260   4.715   5.479  0.0346  0.0645  0.8293
10564TIP3    H153183   0.235   4.708   5.572 -0.3673 -0.8233  0.6601
10564TIP3    H253184   0.236   4.630   5.441 -0.9489  0.8462 -0.3646
10565TIP3   OH253185   6.827   0.714   5.904  0.4339 -0.2058 -0.0781
10565TIP3    H153186   6.914   0.754   5.894  0.3258  0.1870  0.4853
10565TIP3    H253187   6.779   0.775   5.960 -0.4070 -0.1255 -0.8613
10566TIP3   OH253188   4.769   3.927   1.427  0.1004 -0.2963 -0.3393
10566TIP3    H153189   4.676   3.945   1.412 -0.0708 -0.8513  0.0306
10566TIP3    H253190   4.789   3.972   1.509  0.2389  0.0760 -0.5739
10567TIP3   OH253191   0.774   5.459   5.727 -0.0597  0.4329  0.4859
10567TIP3    H153192   0.755   5.496   5.814  1.6334 -0.7081  1.4063
10567TIP3    H253193   0.854   5.408   5.740  0.3107  0.3291 -1.8029
10568TIP3   OH253194   2.689   4.938  14.467 -0.1552  0.4734  0.1370
10568TIP3    H153195   2.609   4.890  14.490 -1.1794  0.7233 -2.4518
10568TIP3    H253196   2.752   4.914  14.534 -1.7557 -1.5071  1.0504
10569TIP3   OH253197   5.237   2.326   3.525  0.0084  0.0201 -0.5747
10569TIP3    H153198   5.290   2.274   3.464 -0.9008 -0.6439 -0.8300
10569TIP3    H253199   5.278   2.313   3.610  1.0630  0.6378 -0.9797
10570TIP3   OH253200   0.391   1.173   6.533  0.4970  0.3955  0.3754
10570TIP3    H153201   0.474   1.135   6.505 -0.0515 -0.7090  0.1953
10570TIP3    H253202   0.402   1.267   6.520  1.4289  0.1918 -0.4166
10571TIP3   OH253203   6.173   2.443   2.224  0.1937  0.3719 -0.1888
10571TIP3    H153204   6.101   2.496   2.258 -0.1325 -0.1395 -0.0809
10571TIP3    H253205   6.138   2.401   2.146 -0.3272 -1.5500  1.0249
10572TIP3   OH253206   1.146   0.466   0.437 -0.2713  0.6108 -0.1176
10572TIP3    H153207   1.153   0.522   0.360  1.6206 -0.3310 -0.7062
10572TIP3    H253208   1.055   0.436   0.437 -0.6199  1.6068 -1.2772
10573TIP3   OH253209   5.940   2.233  12.654 -0.1222  0.6429  0.1553
10573TIP3    H153210   6.029   2.266  12.643 -0.3462  1.6670  1.2531
10573TIP3    H253211   5.947   2.169  12.725  0.0265 -0.5431 -0.9030
10574TIP3   OH253212   1.576   4.156   1.659 -0.3973  0.3040  0.0956
10574TIP3    H153213   1.634   4.159   1.583 -1.4485  0.0339 -0.7335
10574TIP3    H253214   1.631   4.186   1.732  1.1686 -1.2176 -0.4057
10575TIP3   OH253215   4.202   4.506  13.361 -0.2332  0.2785 -0.0502
10575TIP3    H153216   4.271   4.559  13.401  0.7530  0.0628 -1.3985
10575TIP3    H253217   4.246   4.424  13.337 -0.4790  0.8301 -2.6050
10576TIP3   OH253218   3.348   6.201   5.278  0.5139 -0.0938  0.0108
10576TIP3    H153219   3.427   6.246   5.307  0.0185 -0.6011  2.3731
10576TIP3    H253220   3.289   6.271   5.250  0.9774  0.4605  0.4059
10577TIP3   OH253221   4.578   4.185  12.700  0.1860 -0.0440 -0.5355
10577TIP3    H153222   4.623   4.104  12.722 -0.7861 -0.3768  0.3369
10577TIP3    H253223   4.642   4.254  12.716  0.4207 -0.5071  0.6464
10578TIP3   OH253224   2.534   2.394  16.970 -0.0940 -0.1707 -0.0492
10578TIP3    H153225   2.498   2.340  17.040 -1.5203  0.8265  0.0125
10578TIP3    H253226   2.562   2.475  17.014  1.5467 -0.6102 -0.2197
10579TIP3   OH253227   5.129   6.709   1.121  0.3912 -0.4642 -0.4305
10579TIP3    H153228   5.045   6.663   1.120  0.2524 -0.2065 -1.0233
10579TIP3    H253229   5.141   6.739   1.031  0.6534  0.3466 -0.1340
10580TIP3   OH253230   1.460   4.311   3.942  0.1328 -0.0779 -0.4681
10580TIP3    H153231   1.375   4.350   3.920  0.2768  0.6173  0.1614
10580TIP3    H253232   1.440   4.248   4.011  0.1324  0.1169 -0.2900
10581TIP3   OH253233   2.643   2.008  13.816  0.0290  0.1457 -0.6117
10581TIP3    H153234   2.588   1.938  13.851 -0.0118  0.2304 -0.5030
10581TIP3    H253235   2.594   2.040  13.739 -1.8453  2.5002  1.3784
10582TIP3   OH253236   0.508   2.019  12.975  0.9330 -0.1544  0.3347
10582TIP3    H153237   0.415   1.997  12.986  0.8753 -0.0383  0.0791
10582TIP3    H253238   0.542   2.019  13.065  0.9289 -1.2446  0.3569
10583TIP3   OH253239   1.106   1.271   5.894  0.4531 -0.6591 -0.0523
10583TIP3    H153240   1.128   1.279   5.987 -0.5537  0.6775  0.0986
10583TIP3    H253241   1.109   1.360   5.861  1.5996 -1.2029 -1.5245
10584TIP3   OH253242   2.731   2.052  12.115 -0.2482  0.0997  0.9640
10584TIP3    H153243   2.818   2.055  12.073 -0.3661  2.6638  0.7243
10584TIP3    H253244   2.741   1.988  12.185  1.7114 -0.0416  0.6330
10585TIP3   OH253245   5.432   5.812  13.866  0.0612  0.9751  0.3295
10585TIP3    H153246   5.364   5.757  13.905 -1.1865  0.4360 -2.3369
10585TIP3    H253247   5.434   5.891  13.921 -0.6193 -0.2268  2.1676
10586TIP3   OH253248   1.695   2.444  11.561 -0.3748 -0.2110  0.0198
10586TIP3    H153249   1.712   2.523  11.613  0.6680 -0.9490  0.8230
10586TIP3    H253250   1.685   2.476  11.471  2.0507  0.6484  0.0024
10587TIP3   OH253251   4.441   0.924  16.781 -0.3649 -0.0716  0.7281
10587TIP3    H153252   4.505   0.958  16.719 -1.6081 -1.4647 -1.4679
10587TIP3    H253253   4.382   0.997  16.797  0.2689  0.4566  0.6947
10588TIP3   OH253254   1.893   3.706   0.454 -0.7587 -0.0282 -0.5242
10588TIP3    H153255   1.832   3.738   0.387 -0.1509 -0.1508 -1.1502
10588TIP3    H253256   1.866   3.750   0.534 -1.8254 -0.2610 -0.7338
10589TIP3   OH253257   0.128   6.646   6.743  0.0104  0.0514  0.3435
10589TIP3    H153258   0.211   6.645   6.792 -0.3878 -1.4491  1.0553
10589TIP3    H253259   0.155   6.646   6.651  0.8079  0.0128  0.5627
10590TIP3   OH253260   1.671   1.893   2.043 -0.1109  0.0932 -0.2155
10590TIP3    H153261   1.661   1.893   1.948 -0.5914 -0.2312 -0.1683
10590TIP3    H253262   1.598   1.946   2.075 -0.6599 -0.7944  0.0346
10591TIP3   OH253263   2.218   3.987  12.926 -0.1410 -0.6245  0.0925
10591TIP3    H153264   2.156   3.928  12.884 -0.3717 -0.4552  0.1934
10591TIP3    H253265   2.268   3.932  12.985 -0.9674 -0.5604  0.8675
10592TIP3   OH253266   3.171   0.084   5.381 -0.1958 -0.1190 -0.7367
10592TIP3    H153267   3.175   0.114   5.471 -0.7528  0.7024 -0.9726
10592TIP3    H253268   3.223   0.148   5.332  0.1529 -0.5919 -0.9975
10593TIP3   OH253269   4.189   2.696  16.829 -0.0991 -0.0026 -0.3698
10593TIP3    H153270   4.149   2.715  16.744 -2.0370  0.9379  0.6918
10593TIP3    H253271   4.233   2.778  16.853 -0.3462  0.0392 -0.0560
10594TIP3   OH253272   0.388   6.761   5.572  0.5561 -0.2529 -0.2224
10594TIP3    H153273   0.310   6.796   5.614 -0.4334 -0.5673 -1.7301
10594TIP3    H253274   0.460   6.812   5.609 -0.2735 -0.3937  1.6729
10595TIP3   OH253275   1.976   2.496   1.349  0.3828  0.0970  0.0243
10595TIP3    H153276   1.993   2.531   1.436  0.3393 -0.3512  0.2131
10595TIP3    H253277   2.022   2.556   1.290  1.4017 -0.2755  0.4253
10596TIP3   OH253278   1.380   5.336  14.319 -0.4155 -0.4594  0.0794
10596TIP3    H153279   1.374   5.255  14.269  0.7069 -0.2197 -0.4872
10596TIP3    H253280   1.349   5.404  14.259 -0.9761 -0.4183  0.4122
10597TIP3   OH253281   5.647   4.337  11.700  0.5972  0.0430  0.2989
10597TIP3    H153282   5.568   4.342  11.645 -0.1691 -0.0681  1.3645
10597TIP3    H253283   5.707   4.283  11.649 -0.5699 -1.1227  0.0916
10598TIP3   OH253284   6.260   6.818   6.475 -0.1222 -0.3037 -0.5778
10598TIP3    H153285   6.275   6.726   6.496 -0.4859 -0.2602 -0.1004
10598TIP3    H253286   6.212   6.817   6.393 -0.8824 -0.5762 -0.1394
10599TIP3   OH253287   0.692   1.870  14.474 -0.4153  0.3842 -0.4649
10599TIP3    H153288   0.730   1.802  14.419  0.3884  1.1524 -0.8928
10599TIP3    H253289   0.762   1.934  14.484 -1.2319  1.2724 -0.2840
10600TIP3   OH253290   2.264   3.161  13.641  0.0021 -0.5452  0.3738
10600TIP3    H153291   2.335   3.099  13.655 -0.5048 -1.2815 -0.2070
10600TIP3    H253292   2.303   3.247  13.656  1.0816 -0.9242 -0.1632
10601TIP3   OH253293   5.278   1.519   4.499  0.2577 -0.2268  0.1098
10601TIP3    H153294   5.320   1.538   4.415  0.1146 -2.0813 -0.4204
10601TIP3    H253295   5.229   1.599   4.520  2.8768  1.4981  0.0894
10602TIP3   OH253296   5.782   4.232  10.710 -0.1847 -0.4495  0.1707
10602TIP3    H153297   5.740   4.316  10.690 -0.0702 -0.1411  1.1574
10602TIP3    H253298   5.745   4.171  10.647 -1.8618 -0.1039  0.7646
10603TIP3   OH253299   5.760   1.249   0.482  0.3095  1.0161  0.3031
10603TIP3    H153300   5.702   1.255   0.406 -2.0517  0.2432  1.9520
10603TIP3    H253301   5.710   1.288   0.554  1.8873  0.4099  1.7886
10604TIP3   OH253302   4.405   4.203  15.522 -0.4933  0.1144 -0.0293
10604TIP3    H153303   4.434   4.227  15.610 -0.2887  0.7748 -0.2741
10604TIP3    H253304   4.310   4.198  15.530 -0.4002 -1.1641  0.5509
10605TIP3   OH253305   2.153   4.560   5.868  0.3568 -0.5883 -0.1569
10605TIP3    H153306   2.060   4.583   5.855  0.8679  0.3280 -2.9157
10605TIP3    H253307   2.197   4.645   5.873  1.3416 -0.9377 -1.9685
10606TIP3   OH253308   4.477   2.276   4.893 -0.0663  0.3511  0.1322
10606TIP3    H153309   4.430   2.305   4.971 -0.6268  1.4622 -0.5929
10606TIP3    H253310   4.412   2.279   4.823  0.6161  0.1070 -0.5256
10607TIP3   OH253311   2.094   5.142   2.920 -0.5522  0.2302  0.5174
10607TIP3    H153312   2.154   5.080   2.962 -0.2064 -0.8358 -1.4366
10607TIP3    H253313   2.025   5.088   2.883 -2.9925  1.4651  2.9362
10608TIP3   OH253314   0.157   6.674   0.112 -0.4983  0.7064  0.7401
10608TIP3    H153315   0.092   6.607   0.094 -1.5076  1.1269  2.5364
10608TIP3    H253316   0.218   6.631   0.173 -0.0829  0.8507  0.4282
10609TIP3   OH253317   5.922   4.928   2.754  0.0073  0.2372 -0.0652
10609TIP3    H153318   5.942   4.874   2.830  1.1332  0.5418 -0.1165
10609TIP3    H253319   5.846   4.887   2.714  0.6822 -1.1819  0.0352
10610TIP3   OH253320   6.675   6.520  12.510 -0.0085  0.0321  0.2286
10610TIP3    H153321   6.758   6.567  12.515  0.6134 -1.1122  1.6294
10610TIP3    H253322   6.651   6.522  12.417  1.0366  1.2719 -0.0397
10611TIP3   OH253323   0.700   2.012   2.936  0.2448  0.1268 -0.3789
10611TIP3    H153324   0.788   2.050   2.941 -0.0325  0.6748  0.7109
10611TIP3    H253325   0.663   2.048   2.855  0.2804  1.5808  0.2107
10612TIP3   OH253326   4.215   6.241  17.063 -0.1389  0.8677  0.6753
10612TIP3    H153327   4.167   6.322  17.045 -0.6540  0.7673  1.5186
10612TIP3    H253328   4.171   6.175  17.009  2.2369  1.6557 -2.4963
10613TIP3   OH253329   6.575   6.721  10.444 -0.2442  0.4663  0.4239
10613TIP3    H153330   6.637   6.670  10.391  1.9570  2.3795  1.0077
10613TIP3    H253331   6.503   6.660  10.460  1.4932 -1.9422 -0.2269
10614TIP3   OH253332   1.132   0.284   3.599 -0.5096  0.1779  0.0957
10614TIP3    H153333   1.063   0.218   3.589 -0.8011  0.2955  1.1297
10614TIP3    H253334   1.087   0.359   3.640  0.0570  0.5806 -0.0123
10615TIP3   OH253335   3.786   6.071  11.710  0.4470  0.0815 -0.6644
10615TIP3    H153336   3.874   6.036  11.698  1.2817  1.2293  1.5214
10615TIP3    H253337   3.793   6.126  11.788 -1.8985  1.3018 -1.2387
10616TIP3   OH253338   6.333   6.427  12.852  0.0241  0.1171  0.4190
10616TIP3    H153339   6.282   6.430  12.933 -0.5672 -0.8013  0.0925
10616TIP3    H253340   6.270   6.447  12.783 -0.3114 -2.6278 -0.1584
10617TIP3   OH253341   2.122   6.836  15.217  0.4610 -0.0204 -0.4990
10617TIP3    H153342   2.193   6.814  15.156  1.5671  0.4129  0.5854
10617TIP3    H253343   2.135   6.928  15.237 -2.2856  0.9400 -2.6130
10618TIP3   OH253344   4.196   2.554  12.225  0.1184 -0.0560  0.0045
10618TIP3    H153345   4.107   2.562  12.258 -0.6625  0.5990 -2.1045
10618TIP3    H253346   4.244   2.626  12.266 -0.9511  1.0574 -0.6551
10619TIP3   OH253347   1.098   0.373   3.076 -0.9725 -0.6255  0.0151
10619TIP3    H153348   1.117   0.349   3.166 -2.3433 -0.8719  0.2540
10619TIP3    H253349   1.182   0.401   3.040 -0.5323  0.0845  1.5543
10620TIP3   OH253350   1.425   3.932   3.637 -0.5107 -0.5302 -0.2901
10620TIP3    H153351   1.379   3.957   3.556 -0.3789 -0.3596 -0.3117
10620TIP3    H253352   1.366   3.960   3.707  0.3269  1.2986 -0.2579
10621TIP3   OH253353   1.690   4.558   0.311 -0.2683  0.1917 -0.5360
10621TIP3    H153354   1.748   4.634   0.306 -1.3537  1.1008  0.2412
10621TIP3    H253355   1.747   4.484   0.292  1.6691  0.7999  2.2523
10622TIP3   OH253356   5.680   5.137  12.972  0.1751 -0.0049  0.1894
10622TIP3    H153357   5.768   5.107  12.953  0.1624 -0.9099  1.5064
10622TIP3    H253358   5.659   5.197  12.899  2.0697  0.6912  0.1731
10623TIP3   OH253359   4.020   0.467  14.512 -0.3817  0.0467  0.1143
10623TIP3    H153360   4.007   0.535  14.579 -1.6299  0.6635 -0.7076
10623TIP3    H253361   4.029   0.516  14.431 -0.1235 -0.7396 -0.3325
10624TIP3   OH253362   6.522   5.778   0.006 -0.3082  0.7055 -0.3096
10624TIP3    H153363   6.592   5.821   0.056 -1.1448  0.8739  0.7300
10624TIP3    H253364   6.559   5.770  -0.083 -0.3147  4.1536 -0.7645
10625TIP3   OH253365   1.067   3.598  14.904 -0.0908 -0.0822 -0.1806
10625TIP3    H153366   1.126   3.527  14.929 -2.2242 -1.7154  0.5290
10625TIP3    H253367   1.059   3.651  14.984 -1.4225 -1.2480  0.4843
10626TIP3   OH253368   5.912   4.377  12.581  0.0013 -0.4173  0.2025
10626TIP3    H153369   5.825   4.410  12.560 -0.1494 -1.2954 -0.6642
10626TIP3    H253370   5.899   4.283  12.594  0.8003 -0.5395  0.1614
10627TIP3   OH253371   5.037   5.248   4.257  0.1244  0.6240  0.4644
10627TIP3    H153372   5.036   5.311   4.185 -2.2061  0.6929  0.4898
10627TIP3    H253373   4.994   5.170   4.222  0.1517  0.1828  1.3861
10628TIP3   OH253374   5.669   4.366  13.189  0.0891 -0.1311 -0.0428
10628TIP3    H153375   5.638   4.450  13.222  0.0544 -0.4301  0.7158
10628TIP3    H253376   5.594   4.307  13.201 -0.4795  0.0740 -2.1092
10629TIP3   OH253377   1.816   4.610  14.904  0.3274 -0.4814  0.1284
10629TIP3    H153378   1.814   4.514  14.895 -0.6528 -0.5192  0.6609
10629TIP3    H253379   1.736   4.640  14.862 -0.3398 -0.0537  1.6321
10630TIP3   OH253380   3.461   0.241   5.978  0.0820 -0.4674  0.0233
10630TIP3    H153381   3.443   0.307   5.911 -2.1134 -1.5864 -0.6001
10630TIP3    H253382   3.554   0.250   5.997 -0.0261  2.4360 -0.3826
10631TIP3   OH253383   6.122   5.771   2.367  0.7166  0.3091  0.0749
10631TIP3    H153384   6.152   5.695   2.317 -0.4232 -0.5935  0.7250
10631TIP3    H253385   6.032   5.750   2.392  0.7124  1.4494  1.1136
10632TIP3   OH253386   6.195   4.627   2.396 -0.1784 -0.2568 -0.2349
10632TIP3    H153387   6.139   4.688   2.347 -0.9266 -0.2289  0.6443
10632TIP3    H253388   6.169   4.540   2.364  0.1795 -0.1847 -0.7464
10633TIP3   OH253389   6.822   6.043  16.080 -0.2801 -0.3811 -0.7001
10633TIP3    H153390   6.880   6.115  16.055 -1.4613  0.3365 -1.5043
10633TIP3    H253391   6.822   5.985  16.004 -1.6460  0.3372 -1.2989
10634TIP3   OH253392   6.383   6.704  13.724 -0.3804  0.0988  0.3401
10634TIP3    H153393   6.408   6.622  13.682 -0.0086 -0.1447  1.0157
10634TIP3    H253394   6.446   6.768  13.691 -1.7341  0.5466 -1.5681
10635TIP3   OH253395   1.168   4.035   2.445  0.1801 -0.4223 -0.6634
10635TIP3    H153396   1.235   4.089   2.403 -0.0651 -2.1688 -3.5176
10635TIP3    H253397   1.096   4.031   2.382 -1.9166 -0.1293  1.5494
10636TIP3   OH253398   4.660   6.385   3.778  0.0340  0.2053  0.6343
10636TIP3    H153399   4.704   6.469   3.763  1.1670 -0.5863 -0.6588
10636TIP3    H253400   4.730   6.324   3.798 -0.4049 -1.0874 -1.4960
10637TIP3   OH253401   2.235   6.118  10.975 -0.6416  0.2300 -0.2663
10637TIP3    H153402   2.254   6.085  11.063 -0.9097 -0.0878 -0.3275
10637TIP3    H253403   2.171   6.057  10.939 -0.4036  0.2610 -0.7519
10638TIP3   OH253404   3.923   4.425   3.364  0.6239 -0.8923  0.1851
10638TIP3    H153405   4.016   4.439   3.380  0.5727 -1.4997  1.1059
10638TIP3    H253406   3.920   4.384   3.277  0.9439  2.0635 -1.3527
10639TIP3   OH253407   0.261   4.418  13.258  0.1072 -0.5195 -0.2108
10639TIP3    H153408   0.183   4.471  13.240  0.7102  1.9441  3.3300
10639TIP3    H253409   0.229   4.328  13.261 -2.1510  0.1925 -1.0100
10640TIP3   OH253410   4.910   5.354  14.001  0.5589 -0.2579 -0.1451
10640TIP3    H153411   4.837   5.295  14.017  0.9139 -0.2880  1.6026
10640TIP3    H253412   4.884   5.406  13.925 -1.5308  0.1333  0.7838
10641TIP3   OH253413   0.518   5.441   0.378 -0.2789 -0.7423 -0.1865
10641TIP3    H153414   0.576   5.476   0.311 -0.0443 -0.0884  0.3471
10641TIP3    H253415   0.577   5.409   0.446 -0.4925 -2.0348 -0.5759
10642TIP3   OH253416   4.427   6.610  11.996 -0.3972 -0.0218  0.0273
10642TIP3    H153417   4.496   6.618  12.062 -1.0116 -0.0919  0.6907
10642TIP3    H253418   4.353   6.659  12.032 -1.8928 -2.7837  0.9829
10643TIP3   OH253419   2.293   0.446   1.237 -0.4411 -0.2434 -0.0909
10643TIP3    H153420   2.369   0.389   1.229  0.1798  0.4835  0.5084
10643TIP3    H253421   2.308   0.515   1.172  0.2989  0.8551  1.1822
10644TIP3   OH253422   0.945   1.119  14.603  0.5689  0.1668 -0.1918
10644TIP3    H153423   0.945   1.049  14.668  2.1528 -0.4581 -0.8044
10644TIP3    H253424   0.880   1.092  14.538  2.2922 -1.6361 -1.2752
10645TIP3   OH253425   4.710   5.580   5.272 -0.1053  0.2138 -0.6767
10645TIP3    H153426   4.692   5.519   5.344 -0.5943  0.5090 -0.5453
10645TIP3    H253427   4.804   5.572   5.256  0.2585  1.1047  0.8574
10646TIP3   OH253428   1.411   0.095  15.561  0.2473 -0.2670  0.1110
10646TIP3    H153429   1.388   0.005  15.583 -0.4022  0.3628  2.1734
10646TIP3    H253430   1.358   0.115  15.483  0.5210 -1.6865 -0.4675
10647TIP3   OH253431   0.972   6.226  11.919 -0.2780 -0.7970  0.2218
10647TIP3    H153432   1.043   6.283  11.948 -0.5565 -0.5019  0.3327
10647TIP3    H253433   1.015   6.142  11.900 -0.0260 -0.8783  1.0974
10648TIP3   OH253434   2.170   5.733  14.714  0.1776  0.2783  0.1281
10648TIP3    H153435   2.128   5.706  14.632  1.5916  0.6821 -0.7678
10648TIP3    H253436   2.231   5.662  14.734 -0.8039 -0.2597  1.3638
10649TIP3   OH253437   1.196   5.409  12.680 -0.2468  0.5499 -0.2258
10649TIP3    H153438   1.200   5.505  12.681 -2.1230  0.7244 -2.1694
10649TIP3    H253439   1.103   5.390  12.665  0.1984 -1.5818 -0.5123
10650TIP3   OH253440   3.131   0.527  16.167 -0.1010 -0.2683  0.3391
10650TIP3    H153441   3.134   0.474  16.247  0.3633 -1.7014 -0.5929
10650TIP3    H253442   3.158   0.614  16.196 -0.5985 -0.5763  1.8628
10651TIP3   OH253443   2.332   6.077   4.726  0.4043 -0.3602  0.2810
10651TIP3    H153444   2.300   6.091   4.637  1.3599  0.9123  0.1059
10651TIP3    H253445   2.427   6.069   4.716  0.6885  1.1740  1.2818
10652TIP3   OH253446   4.709   4.756   2.931  0.3625  0.4620  0.1067
10652TIP3    H153447   4.728   4.770   2.838 -0.3447 -1.4836 -0.3823
10652TIP3    H253448   4.621   4.792   2.943  0.4906  0.7987  0.0502
10653TIP3   OH253449   4.106   2.691   1.545  0.5249 -0.0657 -0.0850
10653TIP3    H153450   4.098   2.598   1.522 -1.4816 -0.4187  1.7689
10653TIP3    H253451   4.074   2.737   1.468  1.7661 -0.8658 -1.1228
10654TIP3   OH253452   6.031   0.317   2.714  0.4311  0.2361 -0.3176
10654TIP3    H153453   6.066   0.234   2.745  1.9153  0.9744  0.0599
10654TIP3    H253454   5.960   0.337   2.775  1.3528  0.2018  0.7796
10655TIP3   OH253455   0.225   1.585   3.332  0.4350 -0.6652  0.1251
10655TIP3    H153456   0.159   1.546   3.390  0.0434 -0.9612 -0.5187
10655TIP3    H253457   0.253   1.513   3.276  0.6343 -0.3148 -0.2256
10656TIP3   OH253458   0.555   0.919  12.341  0.0246  0.3235 -0.2643
10656TIP3    H153459   0.559   1.014  12.352 -0.1342  0.1660  1.5663
10656TIP3    H253460   0.516   0.888  12.422  0.7963 -1.3720 -0.4977
10657TIP3   OH253461   4.776   3.435  13.240  0.6332 -0.3421  0.4939
10657TIP3    H153462   4.787   3.523  13.204 -1.2322  1.0364  2.9919
10657TIP3    H253463   4.721   3.390  13.175  1.1356  0.4879 -0.5468
10658TIP3   OH253464   6.601   3.230  10.938 -0.0950  0.2713  0.6099
10658TIP3    H153465   6.572   3.313  10.900  1.9204 -0.0825 -1.9507
10658TIP3    H253466   6.534   3.167  10.911 -0.4384  0.6555  0.5542
10659TIP3   OH253467   0.440   3.351  13.031  0.3552 -0.4615 -0.0771
10659TIP3    H153468   0.346   3.334  13.023  0.5198 -2.3548  1.3027
10659TIP3    H253469   0.462   3.402  12.953 -2.0410  1.2102  0.2459
10660TIP3   OH253470   0.201   5.228  13.666 -1.0484  0.4495 -1.2876
10660TIP3    H153471   0.232   5.248  13.754 -1.1864 -1.4267 -0.7887
10660TIP3    H253472   0.121   5.280  13.657 -0.6460  1.2057 -0.5925
10661TIP3   OH253473   1.313   5.383   3.849  0.5077  0.6316  0.0728
10661TIP3    H153474   1.348   5.324   3.916  1.6028  0.9763 -0.1697
10661TIP3    H253475   1.315   5.332   3.769 -0.3752  0.3689  0.2121
10662TIP3   OH253476   2.634   1.040  15.325  0.3454  0.0603  0.2783
10662TIP3    H153477   2.542   1.046  15.298  0.2150 -0.3608  0.6223
10662TIP3    H253478   2.631   1.046  15.421  0.5524 -1.2833  0.3871
10663TIP3   OH253479   5.681   6.767   3.770  0.2069 -0.0228 -0.1085
10663TIP3    H153480   5.720   6.843   3.726  0.3136 -0.4748 -0.8118
10663TIP3    H253481   5.723   6.765   3.856  0.3450  0.5983 -0.1547
10664TIP3   OH253482   4.461   3.109  13.130 -0.4670  0.0561  0.0712
10664TIP3    H153483   4.447   3.025  13.173 -1.8423 -0.3669 -1.1582
10664TIP3    H253484   4.444   3.174  13.198  2.8763 -0.5613  1.7389
10665TIP3   OH253485   2.932   5.532  15.091 -0.0216  0.3958  0.5647
10665TIP3    H153486   2.917   5.625  15.074 -1.2194  0.1315  0.0302
10665TIP3    H253487   2.990   5.530  15.167 -1.7304  1.6128  1.9977
10666TIP3   OH253488   5.229   5.911  12.602  0.6204 -0.7155  0.3575
10666TIP3    H153489   5.178   5.919  12.683 -0.1532 -0.6312 -0.1308
10666TIP3    H253490   5.319   5.922  12.630  0.3561 -0.5995  1.2029
10667TIP3   OH253491   2.098   0.717   2.459 -0.0894 -0.0977  0.2269
10667TIP3    H153492   2.155   0.688   2.529 -0.2061  0.7651  0.6923
10667TIP3    H253493   2.119   0.660   2.385  1.5776  0.3964  0.2952
10668TIP3   OH253494   5.976   6.497  11.683  0.0144  0.2257 -0.3514
10668TIP3    H153495   5.993   6.547  11.763  0.1493  0.5477 -0.5775
10668TIP3    H253496   5.942   6.562  11.621  0.6685  0.1389 -0.8102
10669TIP3   OH253497   0.970   0.295  14.532  0.1841  0.1509  0.0988
10669TIP3    H153498   0.915   0.228  14.573  0.5777 -0.8124 -0.9216
10669TIP3    H253499   0.938   0.300  14.442  0.4537  1.0250  0.0464
10670TIP3   OH253500   4.717   3.333   1.408  0.0238 -0.6346 -0.4206
10670TIP3    H153501   4.734   3.416   1.451 -1.0243 -0.5275 -0.1838
10670TIP3    H253502   4.696   3.273   1.480  1.5245 -1.3143 -0.5198
10671TIP3   OH253503   3.379   0.429   0.765  0.0081 -0.0071 -0.1033
10671TIP3    H153504   3.372   0.347   0.717  1.5861 -0.0367 -0.3247
10671TIP3    H253505   3.339   0.494   0.707  0.0128 -0.3933 -0.5412
10672TIP3   OH253506   4.920   5.789  12.239 -0.3917  0.4874 -0.4034
10672TIP3    H153507   4.895   5.699  12.218 -0.0741  0.5239 -0.9482
10672TIP3    H253508   5.015   5.788  12.240 -0.3182  1.2776 -2.5135
10673TIP3   OH253509   4.855   3.142   4.625  0.3690 -0.7897 -0.5163
10673TIP3    H153510   4.817   3.205   4.687  0.5728 -1.6064  0.4733
10673TIP3    H253511   4.841   3.182   4.539  0.0565  0.3722  0.0434
10674TIP3   OH253512   6.535   2.130   0.057 -0.1613 -0.2207 -0.0091
10674TIP3    H153513   6.505   2.094   0.141  2.7058 -3.5252 -0.1336
10674TIP3    H253514   6.466   2.189   0.030 -2.6441 -1.3074  3.2353
10675TIP3   OH253515   3.002   6.354  16.128 -0.6483 -0.1495  0.1264
10675TIP3    H153516   2.992   6.350  16.223  2.3717 -2.5706  0.4755
10675TIP3    H253517   3.089   6.393  16.115 -0.5092 -0.9433 -1.5676
10676TIP3   OH253518   0.678   6.158   0.045 -0.1432 -0.0970 -0.0997
10676TIP3    H153519   0.722   6.218  -0.014  0.1867  0.7322  0.9663
10676TIP3    H253520   0.727   6.076   0.038 -1.3009 -0.6775 -2.4521
10677TIP3   OH253521   5.378   0.415  15.366  0.0120  0.0161  0.2270
10677TIP3    H153522   5.307   0.409  15.430  0.2576  2.6498  0.8843
10677TIP3    H253523   5.433   0.486  15.399  2.2279 -1.0441 -0.9866
10678TIP3   OH253524   0.609   5.465   3.682  0.3059 -0.4507 -0.0203
10678TIP3    H153525   0.536   5.405   3.693  0.6307 -1.0912 -1.1855
10678TIP3    H253526   0.569   5.549   3.661 -0.1253 -0.4763  0.6861
10679TIP3   OH253527   4.900   0.219  15.372  0.7004  0.3083 -0.1526
10679TIP3    H153528   4.871   0.306  15.344  1.0354  1.4913  2.7560
10679TIP3    H253529   4.845   0.200  15.449  0.8585 -1.9402 -0.5297
10680TIP3   OH253530   0.338   4.842  12.748 -0.1507 -0.2531 -0.2468
10680TIP3    H153531   0.303   4.803  12.668  0.1752 -0.5710 -0.2372
10680TIP3    H253532   0.344   4.769  12.810  1.3552 -0.3897 -0.5277
10681TIP3   OH253533   2.677   3.118  15.888 -0.4369  0.5809 -0.4332
10681TIP3    H153534   2.657   3.172  15.811  1.2027  0.6341 -0.8642
10681TIP3    H253535   2.763   3.080  15.868  0.6525  1.6247  1.9248
10682TIP3   OH253536   1.277   5.734   3.270  0.0472  0.1853 -0.1557
10682TIP3    H153537   1.353   5.753   3.214  0.1799 -0.1874 -0.1116
10682TIP3    H253538   1.314   5.683   3.342 -0.2117  0.1902 -0.0208
10683TIP3   OH253539   6.724   0.450  13.005  0.3509  0.2163  0.2895
10683TIP3    H153540   6.809   0.453  13.049 -0.0089  2.1124  0.9461
10683TIP3    H253541   6.739   0.491  12.920 -0.2373  2.3494  1.1377
10684TIP3   OH253542   0.083   0.569  11.313  0.1114  0.1506  0.5456
10684TIP3    H153543   0.126   0.639  11.263 -0.1282 -0.3443 -0.3646
10684TIP3    H253544   0.037   0.517  11.247 -0.1477 -0.5627  1.2757
10685TIP3   OH253545   5.869   3.985  14.950  0.5357 -0.1086  0.5415
10685TIP3    H153546   5.963   3.975  14.934  0.3568 -0.2319 -0.4890
10685TIP3    H253547   5.828   3.923  14.889 -0.2078 -0.2263  1.1459
10686TIP3   OH253548   6.652   3.048   3.676 -0.2045 -0.3995  0.3653
10686TIP3    H153549   6.655   2.968   3.624  1.4364  0.9033 -1.7179
10686TIP3    H253550   6.580   3.034   3.738 -0.1832 -3.3120 -0.1317
10687TIP3   OH253551   0.648   5.309   0.953  0.3525 -0.6442  0.0568
10687TIP3    H153552   0.556   5.303   0.978 -0.0300  2.6747 -0.0338
10687TIP3    H253553   0.648   5.293   0.858  0.1012 -1.8983  0.2512
10688TIP3   OH253554   6.246   1.090  16.630 -0.1375  0.2684 -0.1476
10688TIP3    H153555   6.155   1.079  16.603 -0.9899  0.2853  2.4669
10688TIP3    H253556   6.274   1.003  16.659  0.4009  0.4401 -0.1321
10689TIP3   OH253557   4.052   5.185  15.014 -0.4488  0.4742  0.1081
10689TIP3    H153558   4.016   5.146  15.093  0.4186  0.0005  0.2861
10689TIP3    H253559   4.014   5.135  14.942 -2.7592  2.1184  0.0644
10690TIP3   OH253560   2.002   6.645  10.716  0.4200 -0.0729  0.1073
10690TIP3    H153561   1.924   6.603  10.681 -0.2415  0.4185  0.9618
10690TIP3    H253562   2.018   6.719  10.658 -0.2369  0.3085  0.4078
10691TIP3   OH253563   2.395   5.444  15.368 -0.6744 -0.0750  0.1976
10691TIP3    H153564   2.353   5.505  15.429 -0.8827 -0.1592  0.1420
10691TIP3    H253565   2.420   5.369  15.422  1.7539  1.0252  0.7549
10692TIP3   OH253566   2.443   2.893  14.692 -0.1308 -0.0957  0.1939
10692TIP3    H153567   2.514   2.864  14.749 -0.7602  0.7781  1.4676
10692TIP3    H253568   2.429   2.820  14.632  2.5751  0.1309 -0.8506
10693TIP3   OH253569   3.537   1.121   2.464 -0.0770  0.1156 -0.0765
10693TIP3    H153570   3.462   1.110   2.406  0.7031 -0.9266 -0.9385
10693TIP3    H253571   3.500   1.120   2.552 -1.0344 -0.8020 -0.4701
10694TIP3   OH253572   4.005   5.497  14.124 -0.5715 -0.2808  0.0225
10694TIP3    H153573   3.961   5.544  14.195  1.3564 -0.3335  1.3171
10694TIP3    H253574   3.937   5.438  14.089 -1.4644 -0.6017  2.1392
10695TIP3   OH253575   1.651   5.854  11.303  0.2098 -0.5102 -0.6920
10695TIP3    H153576   1.701   5.920  11.256  0.1977  1.1042  1.4094
10695TIP3    H253577   1.713   5.782  11.317  0.6741 -0.3200 -1.6864
10696TIP3   OH253578   1.206   4.819   1.169  0.2369 -0.0864 -0.2922
10696TIP3    H153579   1.203   4.872   1.089 -1.6356  0.2361 -0.0468
10696TIP3    H253580   1.153   4.867   1.232  1.5147 -0.4514  1.1083
10697TIP3   OH253581   1.698   4.506  11.440  0.3633 -0.4589 -0.9145
10697TIP3    H153582   1.640   4.582  11.430  1.0041  0.1270 -0.3188
10697TIP3    H253583   1.671   4.467  11.523  1.5432  0.4912 -0.0420
10698TIP3   OH253584   0.030   3.630  10.281 -0.2135 -0.2867 -0.1755
10698TIP3    H153585  -0.059   3.661  10.301  0.4653  2.1555 -0.6669
10698TIP3    H253586   0.020   3.577  10.202 -1.4695 -1.6298  0.8311
10699TIP3   OH253587   4.038   4.121  15.243 -0.2588  0.0451  0.1665
10699TIP3    H153588   4.130   4.099  15.257 -0.7872 -0.9174  2.5927
10699TIP3    H253589   4.032   4.214  15.266  0.4467  0.7160 -2.1138
10700TIP3   OH253590   1.923   6.715  13.498 -0.5092 -0.2586 -0.2453
10700TIP3    H153591   1.871   6.641  13.528  0.3036 -0.5293  0.5269
10700TIP3    H253592   1.869   6.792  13.518 -0.8261 -0.5631  0.0918
10701TIP3   OH253593   0.322   1.681   1.815 -0.5236 -0.5135 -0.2287
10701TIP3    H153594   0.369   1.724   1.743 -0.7488  0.9337  0.4428
10701TIP3    H253595   0.315   1.590   1.788  0.6494 -0.3002 -1.3910
10702TIP3   OH253596   6.744   0.271  16.161  0.7170 -0.1485  0.3447
10702TIP3    H153597   6.726   0.181  16.131 -0.9034  0.2372  0.0698
10702TIP3    H253598   6.741   0.265  16.256 -0.7778 -0.1622  0.3224
10703TIP3   OH253599   5.526   4.781  12.991 -0.0336 -0.2444  0.0658
10703TIP3    H153600   5.456   4.823  13.042 -0.4428 -0.0475 -0.6385
10703TIP3    H253601   5.583   4.853  12.966  1.2755 -0.5781  1.8802
10704TIP3   OH253602   1.515   2.878  10.666 -0.0324 -0.6011  0.1930
10704TIP3    H153603   1.432   2.907  10.704 -0.0871 -0.7365  0.1762
10704TIP3    H253604   1.538   2.947  10.604  0.4127 -0.0217  0.9743
10705TIP3   OH253605   6.789   5.218   5.224 -0.2158  0.1229 -0.1889
10705TIP3    H153606   6.878   5.205   5.191  0.1483  2.2997 -0.2277
10705TIP3    H253607   6.785   5.311   5.245 -2.6080  0.1469 -0.5000
10706TIP3   OH253608   1.448   1.244   4.275 -0.4880  0.6111 -0.1224
10706TIP3    H153609   1.377   1.308   4.276 -1.2982 -0.2050  2.7466
10706TIP3    H253610   1.527   1.295   4.255 -1.2515  2.3473  1.0743
10707TIP3   OH253611   5.047   2.278   3.837 -0.7135 -0.0687  0.2153
10707TIP3    H153612   5.069   2.359   3.882 -0.0581  0.8615 -1.6964
10707TIP3    H253613   5.131   2.240   3.812 -1.0655  0.1112 -1.3223
10708TIP3   OH253614   2.922   5.470  11.702 -0.1878  0.2265  0.0620
10708TIP3    H153615   2.976   5.402  11.743  0.4011  0.2294 -0.6718
10708TIP3    H253616   2.852   5.487  11.765 -1.7508 -2.7645 -0.6924
10709TIP3   OH253617   2.584   1.136   5.114  0.1096  0.4559  0.0864
10709TIP3    H153618   2.660   1.194   5.111 -1.1592  2.1682 -0.5616
10709TIP3    H253619   2.510   1.194   5.129 -1.2405 -1.0107 -0.5904
10710TIP3   OH253620   5.295   6.541   5.515 -0.3297  0.2890  0.2498
10710TIP3    H153621   5.312   6.449   5.539 -0.1634  0.3780  0.4827
10710TIP3    H253622   5.324   6.591   5.592 -1.1501  0.4861  0.4359
10711TIP3   OH253623   1.019   4.587   2.631 -0.1121 -0.2571 -0.1942
10711TIP3    H153624   1.078   4.512   2.632 -0.0242 -0.3121 -2.7439
10711TIP3    H253625   0.931   4.549   2.627 -0.2119 -0.1715  0.7714
10712TIP3   OH253626   4.927   5.760   3.079  0.6323 -0.0838 -0.7356
10712TIP3    H153627   4.989   5.719   3.140  0.6398  0.7022 -0.2081
10712TIP3    H253628   4.841   5.746   3.119  0.4623 -1.0413 -1.3930
10713TIP3   OH253629   0.069   1.245   1.338  0.4728  0.3064 -0.0797
10713TIP3    H153630   0.080   1.340   1.328  2.4470  0.4844  2.6903
10713TIP3    H253631   0.110   1.209   1.259 -3.0718  1.6300 -2.8410
10714TIP3   OH253632   3.165   5.804   3.095 -0.0524  0.6124 -0.2680
10714TIP3    H153633   3.085   5.850   3.122 -1.3526 -0.3921 -2.1598
10714TIP3    H253634   3.170   5.818   3.001  0.7942 -1.1576 -0.5247
10715TIP3   OH253635   6.148   1.521  11.440 -0.9755  0.0373  0.0545
10715TIP3    H153636   6.121   1.445  11.389  0.1272 -0.7198  0.5538
10715TIP3    H253637   6.163   1.590  11.374  0.7999 -1.0352 -0.7450
10716TIP3   OH253638   6.043   0.888  15.344 -0.0992  0.0698 -0.2908
10716TIP3    H153639   6.085   0.941  15.412 -0.2795 -1.5095  1.1030
10716TIP3    H253640   5.994   0.821  15.392 -2.3192  0.4062 -1.9005
10717TIP3   OH253641   6.370   4.991  13.621 -0.0772 -0.3540 -0.2189
10717TIP3    H153642   6.423   5.069  13.637 -0.6309 -0.0347  0.1112
10717TIP3    H253643   6.415   4.921  13.668 -1.7520  0.5851  3.1311
10718TIP3   OH253644   0.980   3.586  15.215  0.8802  0.3360 -0.5442
10718TIP3    H153645   0.954   3.653  15.151 -1.2238  0.3905  0.2890
10718TIP3    H253646   0.960   3.503  15.172  1.3877  0.3102 -0.7304
10719TIP3   OH253647   2.753   3.613   1.229 -0.1248  0.4069 -0.1169
10719TIP3    H153648   2.679   3.575   1.277  0.1406  1.1070  0.8774
10719TIP3    H253649   2.752   3.706   1.252  0.4557  0.6263 -0.9079
10720TIP3   OH253650   2.457   3.049   3.128 -0.2072 -0.5696  0.2488
10720TIP3    H153651   2.462   3.131   3.177 -0.1450  0.7162 -1.7618
10720TIP3    H253652   2.375   3.009   3.156 -2.8048  2.6014 -2.0800
10721TIP3   OH253653   6.441   5.293  14.701  0.1754  0.2605 -1.1352
10721TIP3    H153654   6.363   5.338  14.736  0.1657 -0.7758  0.2455
10721TIP3    H253655   6.427   5.293  14.607 -1.3277  0.4472 -0.9471
10722TIP3   OH253656   4.231   0.018   5.723  0.0600 -0.3930 -0.0376
10722TIP3    H153657   4.188   0.103   5.713 -0.2017 -0.5337 -0.1049
10722TIP3    H253658   4.319   0.040   5.755 -0.3844 -0.1548  1.0661
10723TIP3   OH253659   4.039   0.158  11.496 -0.7884 -0.0419  0.4713
10723TIP3    H153660   4.067   0.241  11.458 -0.1000 -1.6135 -2.8448
10723TIP3    H253661   4.116   0.127  11.544 -0.4415  0.4818  0.2705
10724TIP3   OH253662   4.709   3.822   1.737 -0.0195 -0.4697  0.5676
10724TIP3    H153663   4.643   3.891   1.725 -0.1610 -0.7954 -0.6591
10724TIP3    H253664   4.657   3.743   1.756  0.0074 -0.7107 -0.3236
10725TIP3   OH253665   4.294   0.003   4.488 -0.2301 -0.5317  0.9088
10725TIP3    H153666   4.356  -0.070   4.491 -0.4621 -0.7873 -0.2285
10725TIP3    H253667   4.215  -0.034   4.448  0.6693  1.0256 -2.7331
10726TIP3   OH253668   4.196   4.104   5.454 -0.4918 -0.3001  0.5853
10726TIP3    H153669   4.129   4.040   5.478 -2.1632  1.2688  0.2967
10726TIP3    H253670   4.224   4.079   5.366  0.3598 -1.7714  1.2319
10727TIP3   OH253671   0.543   1.955  16.571  0.1407  0.1461 -0.4105
10727TIP3    H153672   0.543   1.983  16.663 -0.5859 -2.0961  0.3281
10727TIP3    H253673   0.489   2.021  16.527 -0.0189  0.9290  0.8828
10728TIP3   OH253674   2.559   5.848  11.745 -0.3483  0.3614 -0.2828
10728TIP3    H153675   2.494   5.906  11.784  1.2252  2.2879 -0.3507
10728TIP3    H253676   2.624   5.835  11.814  1.4618  2.2069 -1.5035
10729TIP3   OH253677   0.366   2.081  14.370  0.1357 -0.5210  0.1272
10729TIP3    H153678   0.358   2.125  14.455 -0.0547  0.2298 -0.2694
10729TIP3    H253679   0.408   1.997  14.390 -0.6405 -0.7113  1.0776
10730TIP3   OH253680   2.914   0.717  13.883  0.4597 -0.4081 -0.1225
10730TIP3    H153681   2.990   0.760  13.921  0.7447 -0.1005 -1.0129
10730TIP3    H253682   2.936   0.705  13.791 -0.9464  0.6370 -0.6435
10731TIP3   OH253683   4.073   3.745  12.799  0.2305 -0.2682  0.1052
10731TIP3    H153684   3.992   3.709  12.836 -0.2758  1.1577  0.4463
10731TIP3    H253685   4.046   3.826  12.757  0.8812 -1.5401 -3.0092
10732TIP3   OH253686   3.448   5.449   0.305 -0.2631  0.9430 -0.5276
10732TIP3    H153687   3.499   5.389   0.250  0.0088  0.9727 -0.3133
10732TIP3    H253688   3.429   5.523   0.248 -1.2642  0.3179 -1.0315
10733TIP3   OH253689   4.955   3.957  16.434  0.2705 -0.3670 -0.3755
10733TIP3    H153690   5.019   3.954  16.363  1.7733  1.5801  0.7861
10733TIP3    H253691   5.007   3.946  16.513 -1.1351 -0.7838  0.5258
10734TIP3   OH253692   4.665   6.046  13.601  0.5524  0.4965 -0.4481
10734TIP3    H153693   4.663   6.108  13.529  0.9067 -0.4010 -1.2509
10734TIP3    H253694   4.716   5.972  13.568 -1.7252 -1.2187 -0.3183
10735TIP3   OH253695   1.153   2.576   0.489 -0.1227 -0.1150  0.3951
10735TIP3    H153696   1.065   2.610   0.473 -1.1004 -2.0078  1.4548
10735TIP3    H253697   1.149   2.484   0.462  1.2659 -0.4801  1.3202
10736TIP3   OH253698   5.438   1.624  13.526 -0.3992 -0.8805 -0.1914
10736TIP3    H153699   5.419   1.711  13.490 -2.1218 -1.0808  0.1497
10736TIP3    H253700   5.525   1.633  13.564 -0.7890  0.8812  0.3775
10737TIP3   OH253701   6.334   3.563   0.965 -0.2637 -0.0983  0.3137
10737TIP3    H153702   6.378   3.501   1.022  0.0896  0.2361  0.4119
10737TIP3    H253703   6.268   3.605   1.021  0.9813  1.2025  0.8825
10738TIP3   OH253704   1.084   1.543   4.548 -0.6007 -0.3307  0.4538
10738TIP3    H153705   1.017   1.594   4.594 -0.3398  0.1820  0.2795
10738TIP3    H253706   1.116   1.603   4.481 -0.8608 -1.0055 -0.2906
10739TIP3   OH253707   4.388   0.609   0.985 -0.5597  0.9308  0.1583
10739TIP3    H153708   4.368   0.535   0.927 -2.2174  2.4302 -1.3006
10739TIP3    H253709   4.479   0.595   1.011 -0.0617 -0.3486 -1.9868
10740TIP3   OH253710   6.069   3.045   4.927  0.6328  0.2585  0.1439
10740TIP3    H153711   6.047   3.059   4.835  1.1101  1.8101  0.2385
10740TIP3    H253712   6.165   3.043   4.928  0.6237 -0.0151  0.5801
10741TIP3   OH253713   6.462   6.834  11.233  0.0887  0.2398  0.0580
10741TIP3    H153714   6.470   6.824  11.138 -1.1367  0.1280 -0.0489
10741TIP3    H253715   6.402   6.764  11.259 -0.4128  0.9263  0.7692
10742TIP3   OH253716   6.145   0.088  14.177  0.0708 -0.1307 -0.4472
10742TIP3    H153717   6.158   0.076  14.271 -1.7447 -1.4667 -0.3257
10742TIP3    H253718   6.195   0.017  14.136 -0.9491 -0.9252 -0.3486
10743TIP3   OH253719   4.473   2.901  11.930 -0.3064 -0.4884 -0.4890
10743TIP3    H153720   4.486   2.807  11.933 -0.1626 -0.4560  0.1328
10743TIP3    H253721   4.489   2.930  12.020 -0.9044  0.0571 -0.5512
10744TIP3   OH253722   4.632   2.008   2.020 -0.1783  0.7765 -0.5166
10744TIP3    H153723   4.725   1.987   2.006 -0.8349 -1.2469 -2.3660
10744TIP3    H253724   4.598   2.026   1.933 -2.1284 -1.3788 -0.2950
10745TIP3   OH253725   2.824   3.839   4.648 -0.1062 -0.6002  0.0080
10745TIP3    H153726   2.760   3.910   4.660  1.5538  0.8428  0.7175
10745TIP3    H253727   2.802   3.801   4.563 -1.4466  0.3322 -0.0939
10746TIP3   OH253728   5.033   1.330   5.572 -0.2883  0.7529 -0.0139
10746TIP3    H153729   4.996   1.252   5.530  0.6996 -0.1562  0.7390
10746TIP3    H253730   5.090   1.295   5.641  0.5075  2.1362  0.0666
10747TIP3   OH253731   2.720   4.135  15.939 -0.5141  0.5545  0.6197
10747TIP3    H153732   2.787   4.083  15.983  0.0103 -1.7782 -2.5768
10747TIP3    H253733   2.753   4.225  15.943  1.3018 -0.1010  1.6364
10748TIP3   OH253734   0.645   5.953   3.745  0.0705  0.0844  0.2490
10748TIP3    H153735   0.667   6.040   3.777 -0.0274 -0.4128  1.7154
10748TIP3    H253736   0.550   5.953   3.739  0.0927  0.2019 -0.1416
10749TIP3   OH253737   4.037   0.781  15.544  0.2999  0.5111 -0.0776
10749TIP3    H153738   3.986   0.861  15.530  0.4294  0.6811  0.3883
10749TIP3    H253739   4.053   0.780  15.639  0.4162  0.0038 -0.1013
10750TIP3   OH253740   6.238   0.204   3.097 -0.4714  0.3013  0.2830
10750TIP3    H153741   6.185   0.171   3.025  0.1805 -1.9574  0.7490
10750TIP3    H253742   6.185   0.190   3.175 -0.0812  0.1001  0.5185
10751TIP3   OH253743   4.168   5.071   2.869  1.0709 -0.5236  0.3162
10751TIP3    H153744   4.137   5.161   2.864  2.5501  0.0028 -0.0264
10751TIP3    H253745   4.195   5.050   2.779  1.8804 -0.8600  0.6250
10752TIP3   OH253746   2.569   6.643  13.268 -0.4359  0.1954  0.5745
10752TIP3    H153747   2.639   6.619  13.328  0.3032  0.3281 -0.2186
10752TIP3    H253748   2.601   6.619  13.182 -2.2396 -1.7351  0.3478
10753TIP3   OH253749   1.819   5.607  17.004  0.4397 -0.3986 -0.8805
10753TIP3    H153750   1.772   5.689  17.022  0.5394 -0.9716  2.8848
10753TIP3    H253751   1.911   5.628  17.016  0.4056 -1.1666  1.2007
10754TIP3   OH253752   0.117   4.089   3.276 -0.4842  0.6999  0.0008
10754TIP3    H153753   0.067   4.160   3.317 -2.7213 -0.5084 -0.4680
10754TIP3    H253754   0.052   4.038   3.228  1.1207 -1.3256 -0.1984
10755TIP3   OH253755   5.214   3.338   4.873 -0.0385  0.1327 -0.6299
10755TIP3    H153756   5.141   3.393   4.901 -1.2647 -1.3498 -0.7850
10755TIP3    H253757   5.175   3.251   4.862  2.1313 -1.1672  1.1475
10756TIP3   OH253758   5.725   5.791  14.477 -0.2916 -0.0910 -0.4532
10756TIP3    H153759   5.768   5.750  14.401 -1.0196  0.1631 -1.0044
10756TIP3    H253760   5.775   5.757  14.552  1.2187  0.6024 -1.0930
10757TIP3   OH253761   5.971   3.389  12.340 -0.2301 -0.2075  0.2453
10757TIP3    H153762   5.891   3.440  12.355 -2.2422 -3.3577  1.2374
10757TIP3    H253763   6.009   3.426  12.261 -2.1471  2.0016  0.2419
10758TIP3   OH253764   0.853   2.818   6.184  0.1930  0.4145  0.5171
10758TIP3    H153765   0.924   2.870   6.222 -0.5355  0.0150  2.6113
10758TIP3    H253766   0.786   2.816   6.253 -1.2597 -0.3732 -0.8532
10759TIP3   OH253767   6.745   0.057   1.931  0.1424 -0.2803 -0.1270
10759TIP3    H153768   6.740   0.150   1.909 -0.3497 -0.2693  0.0174
10759TIP3    H253769   6.714   0.053   2.022 -2.1029 -0.8693 -0.8660
10760TIP3   OH253770   4.406   4.474   0.571  0.4070 -0.4839 -0.3076
10760TIP3    H153771   4.434   4.417   0.500  0.8720  0.7751 -1.1628
10760TIP3    H253772   4.351   4.540   0.529 -1.8596 -1.4569  0.9719
10761TIP3   OH253773   5.224   0.734   0.357  0.5235 -0.1909 -0.2712
10761TIP3    H153774   5.241   0.704   0.267 -0.3507 -0.7761 -0.2495
10761TIP3    H253775   5.142   0.691   0.381  0.2557  0.7220  0.4654
10762TIP3   OH253776   2.074   0.644  11.246 -0.1004  0.8605 -0.0495
10762TIP3    H153777   1.992   0.680  11.279 -0.7283  0.0442 -0.6605
10762TIP3    H253778   2.058   0.629  11.153  0.6298  0.3712 -0.1098
10763TIP3   OH253779   6.424   1.485   1.781  0.0264 -0.2469 -0.0445
10763TIP3    H153780   6.480   1.540   1.835  0.8732 -0.1488 -0.9899
10763TIP3    H253781   6.416   1.533   1.698 -0.0814 -1.0483 -0.5084
10764TIP3   OH253782   1.062   4.504  11.465 -0.2203 -0.1041 -0.6204
10764TIP3    H153783   1.145   4.549  11.453  1.3945 -2.3768  1.3121
10764TIP3    H253784   1.017   4.553  11.534  0.0326  0.4365 -0.8364
10765TIP3   OH253785   3.841   2.355   1.179 -0.4404 -0.5366  0.1225
10765TIP3    H153786   3.761   2.314   1.148 -1.6391 -0.3090  2.6368
10765TIP3    H253787   3.840   2.443   1.141 -1.8146 -0.2670  0.7428
10766TIP3   OH253788   0.436   6.685  16.840 -0.3230  0.2286  0.2097
10766TIP3    H153789   0.344   6.673  16.863 -0.0880 -0.4164  0.8784
10766TIP3    H253790   0.484   6.640  16.910  0.5142  1.0305  0.1773
10767TIP3   OH253791   6.555   2.374   0.945 -0.3857 -0.0080 -0.4219
10767TIP3    H153792   6.631   2.388   1.002 -1.0201 -1.2075  0.7899
10767TIP3    H253793   6.551   2.453   0.891  1.6335  0.1394 -0.4524
10768TIP3   OH253794   5.860   2.345   3.887 -0.3584 -0.1462  0.6885
10768TIP3    H153795   5.868   2.439   3.871  2.0327 -0.4046 -0.1740
10768TIP3    H253796   5.783   2.336   3.942 -0.7260  2.3045  0.6910
10769TIP3   OH253797   2.072   5.621   1.173 -0.0907 -0.3736 -0.2502
10769TIP3    H153798   2.144   5.611   1.112  1.2560  0.7761  1.0631
10769TIP3    H253799   2.040   5.710   1.158 -0.1196 -0.2858  0.3122
10770TIP3   OH253800   1.506   3.653   4.544  0.1259 -0.3486  0.2486
10770TIP3    H153801   1.588   3.644   4.594  1.1829  1.0701 -1.1276
10770TIP3    H253802   1.469   3.735   4.574 -0.5099 -0.7026  0.4447
10771TIP3   OH253803   2.535   6.413  15.950  0.1843  0.0868  0.5903
10771TIP3    H153804   2.477   6.337  15.955  1.3467 -0.8617  0.4028
10771TIP3    H253805   2.617   6.382  15.990  0.6760  1.2508  0.5192
10772TIP3   OH253806   6.619   5.949  14.849 -0.0958 -0.2829 -0.1554
10772TIP3    H153807   6.600   5.856  14.834  3.5801 -1.2438  0.2175
10772TIP3    H253808   6.663   5.977  14.769 -1.0866  1.1602 -0.2195
10773TIP3   OH253809   3.359   0.497  14.453  0.3129 -0.0311  0.7143
10773TIP3    H153810   3.355   0.592  14.442  0.2871 -0.3648 -3.7765
10773TIP3    H253811   3.267   0.472  14.465 -0.4594  0.2771 -3.2178
10774TIP3   OH253812   6.079   1.804   4.555 -0.5767 -0.2592  0.3108
10774TIP3    H153813   6.133   1.834   4.482 -2.0305  1.1453 -0.2438
10774TIP3    H253814   6.083   1.709   4.550  0.7208 -0.1849 -0.5484
10775TIP3   OH253815   6.370   5.713   6.202 -0.0986 -0.0394 -0.3975
10775TIP3    H153816   6.412   5.651   6.262  0.5000  0.9368  0.2055
10775TIP3    H253817   6.278   5.713   6.228 -0.0410 -0.4019 -0.1820
10776TIP3   OH253818   1.826   1.011   3.206  0.5136 -0.0579  0.1101
10776TIP3    H153819   1.755   0.963   3.248 -0.1375  2.4845  2.2048
10776TIP3    H253820   1.782   1.066   3.140  0.9030 -0.3458 -0.4016
10777TIP3   OH253821   4.207   2.986  14.952 -0.5717  0.3680  0.2519
10777TIP3    H153822   4.182   2.911  14.899  0.1591  1.1704 -1.2653
10777TIP3    H253823   4.215   2.951  15.041  0.4262 -1.4844 -0.5310
10778TIP3   OH253824   0.512   2.150   3.665 -0.7814  0.5844 -0.0558
10778TIP3    H153825   0.593   2.167   3.714 -0.8571 -0.4721  0.4814
10778TIP3    H253826   0.506   2.222   3.602  1.0600  0.2142 -0.7274
10779TIP3   OH253827   5.327   0.513  16.239  1.3926 -0.0888  0.3516
10779TIP3    H153828   5.266   0.452  16.196 -0.0074  0.1653  1.8856
10779TIP3    H253829   5.388   0.539  16.169  1.4733 -2.5115 -0.5607
10780TIP3   OH253830   3.851   6.182   0.286 -0.0157 -0.0164  0.6544
10780TIP3    H153831   3.811   6.096   0.300 -0.0034 -0.0089  0.7397
10780TIP3    H253832   3.828   6.205   0.197 -0.7856  0.2928  0.9236
10781TIP3   OH253833   3.777   6.577  11.652 -0.1598  0.3929  0.4977
10781TIP3    H153834   3.849   6.635  11.626 -0.2065  0.9152  1.4920
10781TIP3    H253835   3.706   6.636  11.675 -0.6126 -0.1017  0.3682
10782TIP3   OH253836   5.855   4.521   2.871 -0.6969 -0.0713  0.3511
10782TIP3    H153837   5.912   4.448   2.895 -0.7706  0.3682  2.0279
10782TIP3    H253838   5.905   4.599   2.896 -1.2954  0.3832  0.1475
10783TIP3   OH253839   6.211   2.621   3.002 -1.0076  0.0212  0.0473
10783TIP3    H153840   6.185   2.540   2.957 -0.7635  1.0620 -2.1381
10783TIP3    H253841   6.214   2.598   3.094 -0.7155 -2.5286 -0.5196
10784TIP3   OH253842   0.423   4.006   6.158  0.1137 -0.0476 -0.2149
10784TIP3    H153843   0.435   4.099   6.174  1.1824 -0.3103  0.5970
10784TIP3    H253844   0.510   3.973   6.134 -0.3900 -0.7070 -1.2580
10785TIP3   OH253845   5.529   4.557   0.368 -0.3982  0.5681  0.0335
10785TIP3    H153846   5.518   4.470   0.407 -1.7006  0.4414 -0.5526
10785TIP3    H253847   5.442   4.579   0.335  0.0268  1.9022 -0.2414
10786TIP3   OH253848   1.324   0.311   2.513 -0.0221  0.4200 -0.0880
10786TIP3    H153849   1.303   0.337   2.424  0.1722 -0.6950 -0.4719
10786TIP3    H253850   1.241   0.314   2.560 -0.2984  0.0313 -0.5544
10787TIP3   OH253851   2.127   2.416  13.216  0.0169 -0.2602  0.4803
10787TIP3    H153852   2.080   2.445  13.138  2.0448  0.9625 -0.3893
10787TIP3    H253853   2.067   2.356  13.260 -2.0640  0.7402 -0.8324
10788TIP3   OH253854   5.280   4.339   5.413 -0.2999 -0.2620  0.4045
10788TIP3    H153855   5.219   4.349   5.486  0.3380  0.1725  0.8931
10788TIP3    H253856   5.367   4.343   5.454  0.0609 -1.3719 -0.2078
10789TIP3   OH253857   3.424   2.394   0.452  0.0531 -0.6536 -0.7087
10789TIP3    H153858   3.418   2.394   0.357  0.8327 -1.3859 -0.7624
10789TIP3    H253859   3.511   2.430   0.471  0.5112 -1.9117 -0.3286
10790TIP3   OH253860   5.525   4.473  16.632  0.3211  0.2580  0.0160
10790TIP3    H153861   5.569   4.412  16.691 -1.2404  0.1281  1.0980
10790TIP3    H253862   5.472   4.417  16.575 -0.4743  0.5298  0.4726
10791TIP3   OH253863   3.095   4.134  11.094 -0.8210 -0.3503 -0.1533
10791TIP3    H153864   3.149   4.179  11.028 -1.9823 -0.4876 -1.2311
10791TIP3    H253865   3.135   4.048  11.101  0.5612  0.3348  0.8770
10792TIP3   OH253866   6.182   2.790  14.734 -0.2729  0.0632 -0.8128
10792TIP3    H153867   6.230   2.821  14.658 -1.2302  1.6035 -0.8343
10792TIP3    H253868   6.090   2.793  14.707 -0.6132  0.4096  0.3180
10793TIP3   OH253869   0.621   2.127  12.753  0.3907  0.2382 -0.2953
10793TIP3    H153870   0.604   2.089  12.840 -1.2674  1.5264 -0.0005
10793TIP3    H253871   0.554   2.088  12.697  0.3155  0.7733 -0.5762
10794TIP3   OH253872   1.235   5.680  16.584  0.2012  0.4112 -0.3510
10794TIP3    H153873   1.212   5.664  16.493 -0.5344  0.9457 -0.2693
10794TIP3    H253874   1.310   5.623  16.601  0.3676  0.3378 -1.2977
10795TIP3   OH253875   3.954   0.480   5.568  0.3888  0.3772 -0.7252
10795TIP3    H153876   3.964   0.521   5.654  0.9637 -0.5142 -0.3565
10795TIP3    H253877   3.953   0.386   5.586 -0.0099  0.1992 -1.6454
10796TIP3   OH253878   4.076   2.825   2.227  0.3092 -0.6593  0.2616
10796TIP3    H153879   4.130   2.893   2.267 -0.9239 -0.5264  1.7905
10796TIP3    H253880   3.986   2.852   2.246 -0.4007 -0.6003 -2.6460
10797TIP3   OH253881   6.055   1.801  17.089  0.4296 -0.8505  0.1242
10797TIP3    H153882   6.103   1.720  17.109  3.9084  0.9668 -0.1408
10797TIP3    H253883   6.051   1.803  16.993 -0.8316 -1.2656  0.1464
10798TIP3   OH253884   4.366   5.394  13.863 -0.3329  0.1900 -0.2075
10798TIP3    H153885   4.352   5.300  13.855 -1.4488  0.3623 -0.3166
10798TIP3    H253886   4.287   5.428  13.904  0.8773  0.8224  1.7903
10799TIP3   OH253887   6.044   0.137   0.311 -0.5372 -0.2647 -1.1450
10799TIP3    H153888   6.134   0.115   0.335 -0.6337  0.4960 -0.0005
10799TIP3    H253889   5.997   0.139   0.395 -0.8496  2.7437 -1.2800
10800TIP3   OH253890   0.114   2.382   3.512 -0.1375  0.4426  0.1865
10800TIP3    H153891   0.044   2.389   3.577 -0.4268 -0.6411  0.0103
10800TIP3    H253892   0.074   2.335   3.439  1.3125 -2.2124  0.9513
10801TIP3   OH253893   0.760   2.350   2.101  0.5145  0.1528  0.2395
10801TIP3    H153894   0.783   2.331   2.010 -0.2184  2.4963 -0.4992
10801TIP3    H253895   0.702   2.278   2.126 -0.0968 -0.0062 -1.4833
10802TIP3   OH253896   1.164   1.912   4.834  0.1590 -0.4558  0.0510
10802TIP3    H153897   1.239   1.904   4.774  0.6047  1.5991  0.2738
10802TIP3    H253898   1.106   1.976   4.792 -0.7893 -0.9299  0.5916
10803TIP3   OH253899   0.612   3.806  14.608 -0.1269  0.3696 -0.1436
10803TIP3    H153900   0.649   3.723  14.636  0.5903  0.9868  0.7918
10803TIP3    H253901   0.684   3.869  14.615 -0.3961  0.9053 -1.7307
10804TIP3   OH253902   1.773   5.788   3.335  0.4172  0.2757  0.4366
10804TIP3    H153903   1.756   5.876   3.301  5.7470  1.0646 -1.0096
10804TIP3    H253904   1.760   5.796   3.429 -0.7615  2.0937  0.1761
10805TIP3   OH253905   1.699   1.349   1.201 -0.4817 -0.2051 -0.6935
10805TIP3    H153906   1.634   1.382   1.263  0.9048  1.6723 -0.1601
10805TIP3    H253907   1.751   1.286   1.252  0.3717  1.0027 -0.0143
10806TIP3   OH253908   2.478   6.735  14.055  0.9629  0.5186 -0.8238
10806TIP3    H153909   2.449   6.674  13.987  2.2040 -0.4002 -0.5538
10806TIP3    H253910   2.571   6.718  14.065  0.5145 -0.7446  2.4587
10807TIP3   OH253911   2.623   0.075  12.956  0.1190 -0.0678  0.0399
10807TIP3    H153912   2.624   0.147  13.019  0.1648 -0.1793  0.1681
10807TIP3    H253913   2.534   0.040  12.962  0.4656 -0.8356  0.9161
10808TIP3   OH253914   0.692   1.163  16.301  0.2397  0.5176 -0.3294
10808TIP3    H153915   0.645   1.081  16.310 -1.7776  1.3167 -2.5000
10808TIP3    H253916   0.785   1.139  16.308 -0.3206 -1.7789 -0.1626
10809TIP3   OH253917   5.083   0.069   5.129 -0.1685  0.4157  0.2195
10809TIP3    H153918   5.078   0.064   5.034 -0.5766 -0.7337  0.2832
10809TIP3    H253919   5.176   0.085   5.147 -0.3161  2.1962 -0.3953
10810TIP3   OH253920   0.415   1.856  10.984 -1.1200 -0.5946  0.8854
10810TIP3    H153921   0.468   1.918  10.934 -1.1383  0.9446  2.6727
10810TIP3    H253922   0.465   1.774  10.980  0.5101  0.3392  1.0222
10811TIP3   OH253923   3.909   6.731   5.330 -0.1096  0.2886  0.9091
10811TIP3    H153924   3.853   6.694   5.398 -2.0230 -0.3400 -0.9071
10811TIP3    H253925   3.993   6.687   5.341 -0.9133 -1.0958  1.7642
10812TIP3   OH253926   2.374   3.057  16.518 -0.1394 -0.4520 -0.4048
10812TIP3    H153927   2.410   3.053  16.430  1.5998 -1.6353  0.3063
10812TIP3    H253928   2.444   3.024  16.574 -1.9937 -1.9271  1.1754
10813TIP3   OH253929   1.580   3.218   3.538  0.1771  0.3411  0.2160
10813TIP3    H153930   1.535   3.228   3.622  1.4879 -0.8396  1.1049
10813TIP3    H253931   1.598   3.308   3.511  1.3173  0.7647  2.1353
10814TIP3   OH253932   6.670   3.182  15.998 -0.6072 -0.3436  0.2745
10814TIP3    H153933   6.696   3.090  16.010 -0.9947 -0.6552 -1.0507
10814TIP3    H253934   6.658   3.190  15.904  0.4831  1.3791  0.2432
10815TIP3   OH253935   3.431   4.776  15.416  0.5373 -0.4672 -0.6263
10815TIP3    H153936   3.497   4.844  15.406  0.6311 -0.3460  0.6577
10815TIP3    H253937   3.444   4.719  15.341  1.2717  0.2470 -1.0590
10816TIP3   OH253938   1.665   6.527   5.022 -0.0214 -0.5393  0.7218
10816TIP3    H153939   1.659   6.465   4.949  1.9196 -0.9713  0.8681
10816TIP3    H253940   1.653   6.472   5.100  1.4542 -0.7504  0.8402
10817TIP3   OH253941   3.285   5.791  13.332 -0.2388 -0.3864  0.2761
10817TIP3    H153942   3.312   5.714  13.382 -1.5200 -1.2346 -0.2979
10817TIP3    H253943   3.366   5.841  13.321  0.6857 -1.7898  0.4133
10818TIP3   OH253944   4.347   2.466  11.375  0.6693  0.2243  0.2003
10818TIP3    H153945   4.336   2.429  11.287 -1.3261  1.8089 -0.3076
10818TIP3    H253946   4.398   2.546  11.360 -1.7120  1.8151  0.0110
10819TIP3   OH253947   0.857   3.117   3.617 -0.0682  0.3264 -0.2706
10819TIP3    H153948   0.769   3.121   3.580 -0.0631 -0.5595 -0.4126
10819TIP3    H253949   0.902   3.193   3.580 -0.0113 -0.6126 -2.2808
10820TIP3   OH253950   4.910   5.788  15.073  0.1399  0.2419  0.3279
10820TIP3    H153951   4.988   5.840  15.095 -0.5981  1.7815 -0.5056
10820TIP3    H253952   4.844   5.817  15.136 -0.0545 -0.3095  0.3799
10821TIP3   OH253953   2.796   4.267  12.522  0.0055  0.3853  0.3015
10821TIP3    H153954   2.886   4.251  12.553 -0.0287 -2.8145 -0.8158
10821TIP3    H253955   2.806   4.325  12.447  1.4557 -1.4397 -1.0108
10822TIP3   OH253956   3.164   3.065   1.732 -0.3836  0.5650  0.5457
10822TIP3    H153957   3.112   3.018   1.666  0.4748 -1.0295  0.9524
10822TIP3    H253958   3.175   3.152   1.696 -1.1240  0.1512 -0.7659
10823TIP3   OH253959   2.922   6.265   5.382 -0.1805  0.8395  0.0145
10823TIP3    H153960   2.909   6.223   5.467  2.2838 -0.9804 -0.4070
10823TIP3    H253961   2.951   6.354   5.403  0.9493  0.2311  1.1325
10824TIP3   OH253962   4.202   2.465   1.784  0.1681 -0.1938  0.0606
10824TIP3    H153963   4.252   2.511   1.852  0.5374 -0.8404  0.2370
10824TIP3    H253964   4.114   2.502   1.790  0.7763  1.4696 -0.7262
10825TIP3   OH253965   0.055   0.123   5.572 -0.5244 -0.2789  0.1995
10825TIP3    H153966   0.040   0.029   5.564 -0.7085 -0.1647 -1.0192
10825TIP3    H253967  -0.031   0.159   5.591 -0.7128 -0.2353 -0.6853
10826TIP3   OH253968   4.873   2.302  15.516  0.4420  0.2615  0.6915
10826TIP3    H153969   4.836   2.387  15.539 -1.8603 -0.7007  0.7964
10826TIP3    H253970   4.895   2.261  15.600  0.0295  0.1184  0.7303
10827TIP3   OH253971   4.416   2.964  16.091 -0.3153 -0.4847 -0.0476
10827TIP3    H153972   4.466   2.882  16.093 -0.9768 -0.9416 -1.2680
10827TIP3    H253973   4.459   3.016  16.023 -1.2706 -0.7498 -0.8776
10828TIP3   OH253974   4.041   4.400   1.153  0.5481 -0.1906  0.2228
10828TIP3    H153975   4.080   4.383   1.067  0.6533 -0.7078  0.3656
10828TIP3    H253976   4.098   4.465   1.193 -0.6474  1.6590 -0.8989
10829TIP3   OH253977   1.576   6.632   5.490  0.4819  0.2510  0.1050
10829TIP3    H153978   1.523   6.571   5.541 -0.3396 -0.3194 -1.3564
10829TIP3    H253979   1.665   6.622   5.524 -0.2827  1.1776  2.5691
10830TIP3   OH253980   6.526   5.460   4.114  0.1306 -0.1582  0.2290
10830TIP3    H153981   6.621   5.452   4.101  0.1800 -1.5557  1.1540
10830TIP3    H253982   6.512   5.551   4.137  1.2381  0.0894 -0.0197
10831TIP3   OH253983   5.538   3.914  17.025  0.7285 -0.4604  0.5477
10831TIP3    H153984   5.496   3.910  17.110  0.0657  0.2206  0.2656
10831TIP3    H253985   5.609   3.977  17.035 -0.6945  1.2766  0.0569
10832TIP3   OH253986   6.610   6.548   1.472  0.4808 -0.4487 -0.0136
10832TIP3    H153987   6.552   6.479   1.442  0.0724  0.2153 -0.8131
10832TIP3    H253988   6.561   6.593   1.541  0.3572 -0.3770 -0.1472
10833TIP3   OH253989   6.546   3.531  12.023  0.2709 -0.1204  0.2782
10833TIP3    H153990   6.454   3.541  11.998  0.6062  2.6117 -0.2713
10833TIP3    H253991   6.560   3.599  12.089  1.8133 -0.7232  0.6100
10834TIP3   OH253992   2.219   6.356   2.721 -0.1214 -0.2083 -0.5884
10834TIP3    H153993   2.169   6.289   2.767  0.3094 -0.4042 -0.3969
10834TIP3    H253994   2.296   6.309   2.688  0.9615  0.5031  0.8583
10835TIP3   OH253995   4.380   3.290  13.351 -0.6154 -0.4415 -0.9207
10835TIP3    H153996   4.373   3.368  13.296  0.2783 -0.4381 -1.0391
10835TIP3    H253997   4.293   3.250  13.346 -2.0465  2.0290  1.4185
10836TIP3   OH253998   3.045   0.697  14.503  0.3288  0.6116  0.2182
10836TIP3    H153999   2.981   0.761  14.470  0.2672 -0.5803 -2.1981
10836TIP3    H254000   2.991   0.621  14.527  0.5899  0.7011  1.1163
10837TIP3   OH254001   5.470   0.263  16.457  0.4786 -0.0947  0.3028
10837TIP3    H154002   5.408   0.322  16.415 -1.5007 -1.0068  1.7826
10837TIP3    H254003   5.417   0.211  16.517  2.2599 -2.7641 -0.2628
10838TIP3   OH254004   2.564   6.065   5.581 -0.0661  0.3800  0.2148
10838TIP3    H154005   2.523   6.135   5.633  0.9059  0.6399  0.6634
10838TIP3    H254006   2.648   6.050   5.624  1.3039  1.4184 -1.9272
10839TIP3   OH254007   2.376   0.320  14.331  0.3106  0.0442 -0.2040
10839TIP3    H154008   2.472   0.322  14.323  0.2737  1.5496 -0.5847
10839TIP3    H254009   2.355   0.398  14.382 -0.5901 -1.4051  1.7904
10840TIP3   OH254010   4.802   2.967  13.900 -0.2755  0.2966 -0.1222
10840TIP3    H154011   4.823   2.971  13.807  0.3570  0.2050  0.0145
10840TIP3    H254012   4.720   2.917  13.904  0.2440 -0.6125 -0.5485
10841TIP3   OH254013   3.616   6.744   2.186 -0.1657 -0.3569 -0.2120
10841TIP3    H154014   3.573   6.812   2.134  1.3286  0.4941 -0.4078
10841TIP3    H254015   3.601   6.663   2.137 -1.8199 -0.1636 -0.0744
10842TIP3   OH254016   3.271   4.776  13.328 -0.0343  0.9060 -0.0357
10842TIP3    H154017   3.294   4.811  13.414  0.7026 -0.5152  0.3763
10842TIP3    H254018   3.222   4.847  13.286  1.3772  2.4086  0.7349
10843TIP3   OH254019   6.777   0.748   4.612  0.1600 -0.1658 -0.6908
10843TIP3    H154020   6.829   0.741   4.532  1.9607 -0.7284  0.4493
10843TIP3    H254021   6.790   0.838   4.640  0.3855 -0.2518 -0.5112
10844TIP3   OH254022   4.529   3.349  16.294  0.7198  0.6654  0.2023
10844TIP3    H154023   4.503   3.257  16.301 -1.8987  1.3192 -0.0184
10844TIP3    H254024   4.527   3.368  16.200  4.7129  0.1371 -0.1405
10845TIP3   OH254025   6.776   2.337  15.145 -0.2942  0.6767 -0.1579
10845TIP3    H154026   6.759   2.243  15.143 -0.4657  0.7188 -0.7508
10845TIP3    H254027   6.705   2.376  15.095 -1.0782  1.2663  1.3604
10846TIP3   OH254028   5.735   5.826  11.442 -0.1345  0.3088 -0.3282
10846TIP3    H154029   5.706   5.917  11.438  1.0754  0.6989 -0.7965
10846TIP3    H254030   5.810   5.822  11.383  0.5531 -0.7116  0.5718
10847TIP3   OH254031   0.345   1.887  15.784 -0.0234  0.0516 -0.0958
10847TIP3    H154032   0.408   1.814  15.787 -1.5048 -1.2883 -0.4614
10847TIP3    H254033   0.265   1.848  15.748 -1.0708  1.7197  0.3430
10848TIP3   OH254034   4.436   5.366   5.324 -0.7167  0.5140  0.5504
10848TIP3    H154035   4.346   5.356   5.356 -1.5498  1.5399 -1.3225
10848TIP3    H254036   4.427   5.412   5.241  1.5587  0.5712  0.2753
10849TIP3   OH254037   0.778   2.212   1.254 -0.4181 -0.3375 -0.2945
10849TIP3    H154038   0.703   2.265   1.228 -0.4406 -0.9055 -1.4942
10849TIP3    H254039   0.850   2.243   1.199  0.0174 -0.3663  0.2461
10850TIP3   OH254040   6.707   1.594  16.224 -0.5481  1.1230 -0.1984
10850TIP3    H154041   6.681   1.648  16.150 -0.9185  1.0721 -0.1103
10850TIP3    H254042   6.707   1.654  16.299  1.6319  1.6083 -0.5208
10851TIP3   OH254043   1.814   2.430   4.178 -0.4599 -0.2424  0.5605
10851TIP3    H154044   1.776   2.436   4.266 -0.5032 -0.8367  0.5892
10851TIP3    H254045   1.786   2.344   4.146  0.4181 -0.4716  0.3799
10852TIP3   OH254046   5.977   4.511   4.525 -0.5738  0.2819 -0.8460
10852TIP3    H154047   6.039   4.547   4.462  1.2894  0.0327  0.7723
10852TIP3    H254048   5.960   4.584   4.586 -2.0104  0.3835 -1.3125
10853TIP3   OH254049   6.697   1.441   1.557 -0.2065  1.0000 -0.3079
10853TIP3    H154050   6.681   1.522   1.605  0.3127  0.9421 -0.0328
10853TIP3    H254051   6.614   1.422   1.513 -1.2631  0.1423  1.9010
10854TIP3   OH254052   2.054   1.525  12.596 -0.6221 -0.5493  0.2826
10854TIP3    H154053   1.991   1.561  12.534 -1.2591 -0.0948  1.1713
10854TIP3    H254054   2.139   1.558  12.566 -1.3111  3.8323  2.3654
10855TIP3   OH254055   5.118   4.366   3.100 -0.5334  0.4496  0.8964
10855TIP3    H154056   5.114   4.334   3.190  1.8229 -1.5796  0.3657
10855TIP3    H254057   5.026   4.375   3.074 -1.2704 -0.2161  3.0429
10856TIP3   OH254058   6.346   6.378   5.613 -0.1996 -0.4439 -0.6034
10856TIP3    H154059   6.340   6.382   5.709 -1.2742  1.4722 -0.7087
10856TIP3    H254060   6.436   6.351   5.596  0.2823  0.0935  0.9499
10857TIP3   OH254061   4.217   4.516  15.408 -0.0133  0.5243 -0.1720
10857TIP3    H154062   4.239   4.506  15.501 -2.4970  0.3080  0.4640
10857TIP3    H254063   4.208   4.427  15.375 -1.6173  0.5411  0.0996
10858TIP3   OH254064   6.756   6.612  15.757 -0.3186  0.1938 -0.2827
10858TIP3    H154065   6.707   6.530  15.765 -4.5133  2.4139 -0.5341
10858TIP3    H254066   6.707   6.674  15.810  1.3627  3.0862 -1.8816
10859TIP3   OH254067   5.327   3.297  13.900 -0.3368 -0.1905 -0.1567
10859TIP3    H154068   5.422   3.287  13.909 -0.4592 -0.8445  0.5138
10859TIP3    H254069   5.300   3.219  13.851 -0.6733 -0.6677  0.7562
10860TIP3   OH254070   5.765   1.180  11.058 -0.3183  0.3537  0.0008
10860TIP3    H154071   5.748   1.202  11.149  0.6875  0.5526  0.1562
10860TIP3    H254072   5.793   1.262  11.018  0.5999 -0.0124 -0.1358
10861TIP3   OH254073   5.618   4.387   5.965  0.6158 -0.2088 -0.2014
10861TIP3    H154074   5.587   4.443   5.894  0.8851 -0.4882 -0.5434
10861TIP3    H254075   5.696   4.431   5.999  0.6545 -0.2238 -0.2708
10862TIP3   OH254076   3.628   3.565  16.725  0.6152  0.4639 -0.0570
10862TIP3    H154077   3.586   3.527  16.648  2.6079 -0.6469 -0.6555
10862TIP3    H254078   3.557   3.611  16.771 -0.7383  0.6458 -2.2135
10863TIP3   OH254079   1.977   5.644   0.734 -0.3917  0.4350  0.7953
10863TIP3    H154080   2.011   5.555   0.746 -0.9186  0.1313  0.1065
10863TIP3    H254081   1.905   5.651   0.797 -2.4440 -0.7758 -1.2593
10864TIP3   OH254082   4.294   0.981   1.221  0.1883  0.2707 -0.0228
10864TIP3    H154083   4.246   1.032   1.155 -1.0725  1.1337  1.4657
10864TIP3    H254084   4.259   0.893   1.214 -0.1363  0.4207 -0.3213
10865TIP3   OH254085   1.522   2.839   3.420 -0.0448 -0.2201  0.1340
10865TIP3    H154086   1.589   2.906   3.419  1.5254 -1.6841  1.6412
10865TIP3    H254087   1.569   2.757   3.434 -2.0276 -1.4655 -0.0015
10866TIP3   OH254088   3.466   2.945  14.907 -0.0647 -0.1638  0.2774
10866TIP3    H154089   3.560   2.950  14.926  0.0078 -0.0561 -0.0934
10866TIP3    H254090   3.458   2.982  14.819 -0.3569 -0.8872 -0.0087
10867TIP3   OH254091   2.040   2.988  13.536 -0.0353  0.6472  0.2679
10867TIP3    H154092   2.117   3.045  13.530  0.0048  0.6292  0.5686
10867TIP3    H254093   2.075   2.899  13.528  0.0942  0.5912  1.2897
10868TIP3   OH254094   1.588   0.367  11.467 -0.1271  0.1627  0.3499
10868TIP3    H154095   1.523   0.319  11.518 -0.2381 -0.1316 -0.0639
10868TIP3    H254096   1.552   0.370  11.378  0.8401 -0.7973 -0.0905
10869TIP3   OH254097   4.294   1.752  11.628  0.1140 -0.1347 -0.0843
10869TIP3    H154098   4.373   1.795  11.660  1.2590 -2.1840  0.0314
10869TIP3    H254099   4.324   1.667  11.595 -1.7191 -0.0884 -2.1558
10870TIP3   OH254100   1.102   2.803  12.169 -0.4362 -0.1576 -0.0529
10870TIP3    H154101   1.179   2.853  12.200 -1.1603  0.9874 -0.0426
10870TIP3    H254102   1.037   2.870  12.148 -1.0277 -1.0646 -1.2053
10871TIP3   OH254103   5.644   3.464   4.359  0.1265  0.5738  0.8105
10871TIP3    H154104   5.694   3.474   4.278  0.5763 -0.3855  0.9523
10871TIP3    H254105   5.553   3.453   4.331  0.3436 -0.2385  0.3983
10872TIP3   OH254106   4.600   1.800  11.478  0.0526  0.1074 -0.3090
10872TIP3    H154107   4.674   1.761  11.524 -0.8938 -0.6133  0.6370
10872TIP3    H254108   4.614   1.895  11.486 -1.5793  0.2038  4.1850
10873TIP3   OH254109   4.365   4.953  14.010 -0.1666  0.1592  0.2320
10873TIP3    H154110   4.380   4.974  13.918 -1.4831 -1.3716 -0.3786
10873TIP3    H254111   4.435   4.890  14.031 -2.3249 -2.9462 -1.1042
10874TIP3   OH254112   0.064   2.628   0.848 -0.4540  0.0890 -0.1909
10874TIP3    H154113   0.141   2.620   0.792  0.0866  0.7031  0.4353
10874TIP3    H254114   0.067   2.550   0.904  0.7587  0.9811  1.0582
10875TIP3   OH254115   0.112   3.493   3.334 -0.2162 -0.6630  0.0782
10875TIP3    H154116   0.118   3.588   3.326 -0.3541 -0.5701  0.9732
10875TIP3    H254117   0.180   3.470   3.397 -0.4850 -1.1097  0.2087
10876TIP3   OH254118   2.598   0.898  16.376  0.1047 -0.1961 -0.1117
10876TIP3    H154119   2.608   0.993  16.374 -1.1396 -0.0516 -0.5341
10876TIP3    H254120   2.681   0.864  16.344  0.4645  0.7584 -0.2241
10877TIP3   OH254121   3.371   4.382   2.665 -0.5431 -0.1066  0.4034
10877TIP3    H154122   3.427   4.419   2.596  0.7337  0.5675  1.7342
10877TIP3    H254123   3.424   4.312   2.703 -0.7299  0.2985  1.4427
10878TIP3   OH254124   4.531   4.649  11.535 -0.1274  0.3111 -0.0935
10878TIP3    H154125   4.545   4.734  11.494  1.6311  0.4341  0.6616
10878TIP3    H254126   4.449   4.617  11.496 -0.6288  2.1536 -0.6763
10879TIP3   OH254127   6.772   0.993  16.532  0.0267  0.0182 -0.0420
10879TIP3    H154128   6.765   0.941  16.612  0.7117 -0.2886 -0.1747
10879TIP3    H254129   6.837   0.946  16.479 -0.3599  0.2632 -0.7405
10880TIP3   OH254130   1.696   4.472   2.174 -0.1186 -0.2759  0.4268
10880TIP3    H154131   1.677   4.391   2.127 -0.9668  0.2994 -0.2682
10880TIP3    H254132   1.613   4.520   2.173  0.7539  1.3059 -0.6196
10881TIP3   OH254133   2.285   6.594   2.876 -0.2146 -0.3861  0.5455
10881TIP3    H154134   2.334   6.587   2.958 -2.5431 -2.2444  1.8683
10881TIP3    H254135   2.288   6.506   2.838 -1.8706 -0.3692  0.3035
10882TIP3   OH254136   0.891   1.500  15.848  0.1345 -0.3101 -0.8578
10882TIP3    H154137   0.971   1.531  15.805 -0.3398 -0.4817 -1.8820
10882TIP3    H254138   0.893   1.405  15.838  0.9992 -0.5898  1.2631
10883TIP3   OH254139   5.518   3.706  12.643 -0.2353 -0.0674 -0.1502
10883TIP3    H154140   5.567   3.630  12.612  2.0117  1.0804  0.3965
10883TIP3    H254141   5.472   3.675  12.721  1.4674 -0.6297  0.6698
10884TIP3   OH254142   1.689   1.502  16.251 -0.2216  0.2164 -0.1646
10884TIP3    H154143   1.653   1.430  16.302  0.5766 -0.7231 -0.8825
10884TIP3    H254144   1.709   1.570  16.316 -2.5856  0.5164  0.3264
10885TIP3   OH254145   1.701   1.485   5.414  0.4694  0.1086  0.7066
10885TIP3    H154146   1.734   1.396   5.403  1.7936  0.6721 -0.0267
10885TIP3    H254147   1.607   1.474   5.429  0.8736 -1.5133  2.4716
10886TIP3   OH254148   3.543   4.772   5.259 -0.0980  0.2375 -0.2053
10886TIP3    H154149   3.625   4.799   5.299  2.1524 -2.9072 -2.1476
10886TIP3    H254150   3.534   4.828   5.182 -1.6804  2.7715  1.6573
10887TIP3   OH254151   3.535   0.036  12.339 -0.4232  0.4303  0.0056
10887TIP3    H154152   3.483   0.083  12.273  1.1695  0.5706 -1.2209
10887TIP3    H254153   3.624   0.036  12.303  0.8832  1.9143  2.9100
10888TIP3   OH254154   2.172   0.139  16.372 -0.6641 -0.1128  0.2801
10888TIP3    H154155   2.153   0.153  16.465 -0.8422  0.1781  0.1996
10888TIP3    H254156   2.234   0.066  16.371 -0.3556  0.1430  0.6490
10889TIP3   OH254157   0.738   6.830   6.231 -0.0161 -0.4088 -0.7784
10889TIP3    H154158   0.784   6.747   6.237 -0.9482 -1.0791 -2.2893
10889TIP3    H254159   0.718   6.854   6.321 -1.9693 -3.1290 -0.3742
10890TIP3   OH254160   6.281   0.314  11.482 -0.2484  0.4092  0.6307
10890TIP3    H154161   6.333   0.385  11.521  1.7441  0.4636 -1.8628
10890TIP3    H254162   6.343   0.241  11.474 -1.3073 -0.4388 -0.0173
10891TIP3   OH254163   0.624   1.096  15.237  0.4421 -0.7753 -0.0415
10891TIP3    H154164   0.564   1.026  15.261 -0.0211  0.3078  2.2346
10891TIP3    H254165   0.584   1.136  15.160  0.0271 -2.1371 -0.5726
10892TIP3   OH254166   5.669   2.098   4.771  0.1515 -0.1556  0.0268
10892TIP3    H154167   5.620   2.097   4.854  0.7093 -3.4213  0.4653
10892TIP3    H254168   5.761   2.098   4.797  0.3667 -2.8246 -0.3896
10893TIP3   OH254169   6.620   2.641  15.390 -0.1217 -0.0752 -0.5723
10893TIP3    H154170   6.554   2.575  15.373  1.1949 -1.3182 -1.0830
10893TIP3    H254171   6.703   2.600  15.362  1.1043  0.7637  1.5775
10894TIP3   OH254172   6.143   3.585   1.787 -0.3496  0.3085 -0.2233
10894TIP3    H154173   6.116   3.636   1.863 -1.7330 -0.6592 -0.0345
10894TIP3    H254174   6.238   3.597   1.782 -0.5828  2.8161 -0.1431
10895TIP3   OH254175   3.181   0.272  11.234  0.0081  0.8246  0.1977
10895TIP3    H154176   3.169   0.287  11.140 -0.5931  0.3399  0.1910
10895TIP3    H254177   3.111   0.321  11.276 -3.2019 -3.1673  0.0882
10896TIP3   OH254178   4.703   6.395  11.221 -0.4158 -0.1018  0.1774
10896TIP3    H154179   4.630   6.454  11.201 -0.1250  0.1659 -0.0939
10896TIP3    H254180   4.752   6.389  11.140  0.4656  0.5633  0.6362
10897TIP3   OH254181   1.583   0.621  11.611 -0.4718 -0.0568 -0.1267
10897TIP3    H154182   1.544   0.573  11.538  0.6748 -2.0425  0.4965
10897TIP3    H254183   1.631   0.693  11.570  0.4618 -1.3445 -1.3901
10898TIP3   OH254184   0.277   1.419  12.253 -0.1260 -0.2091 -0.1193
10898TIP3    H154185   0.329   1.410  12.173  1.1882 -0.6584  0.7676
10898TIP3    H254186   0.322   1.365  12.318 -1.9223 -0.9673  0.5854
10899TIP3   OH254187   5.148   3.816  13.606 -0.5952 -0.3655 -0.2596
10899TIP3    H154188   5.214   3.880  13.633 -0.0548 -0.8893 -0.3379
10899TIP3    H254189   5.102   3.795  13.687 -0.4374 -0.2626 -0.1417
10900TIP3   OH254190   4.350   4.132  13.780  0.0019 -0.4454  0.4918
10900TIP3    H154191   4.403   4.082  13.843  1.0258 -0.2438 -0.1789
10900TIP3    H254192   4.386   4.109  13.694  1.8138  2.7733  0.2190
10901TIP3   OH254193   4.498   2.245   1.835 -0.4756  0.1338  0.2068
10901TIP3    H154194   4.451   2.307   1.779  1.5386 -0.3530 -2.2303
10901TIP3    H254195   4.481   2.160   1.794 -0.2928 -0.4789  1.3748
10902TIP3   OH254196   0.303   3.248  13.410 -0.3758 -0.5742 -0.0316
10902TIP3    H154197   0.224   3.299  13.390 -1.1296  0.5034  4.4713
10902TIP3    H254198   0.273   3.180  13.470  1.8343 -1.1935  0.4543
10903TIP3   OH254199   1.021   0.758  11.256  0.1872 -0.0684  0.3963
10903TIP3    H154200   0.953   0.733  11.318 -0.3189 -0.0483 -0.1435
10903TIP3    H254201   1.004   0.851  11.237  0.0925 -0.1788 -0.0771
10904TIP3   OH254202   1.595   3.802   4.908  0.3787  0.5084 -0.0307
10904TIP3    H154203   1.667   3.757   4.951  0.4117  0.0402 -0.5562
10904TIP3    H254204   1.517   3.754   4.935  0.6280 -1.6247 -2.6620
10905TIP3   OH254205   1.082   5.161  14.006  0.0091 -0.1841  0.3215
10905TIP3    H154206   1.068   5.204  14.091 -4.0058  0.2450 -0.3674
10905TIP3    H254207   1.100   5.232  13.945 -1.1142 -0.0448  0.1428
10906TIP3   OH254208   4.721   1.766  14.120 -0.0545 -0.3700 -0.3302
10906TIP3    H154209   4.721   1.833  14.189  1.2520 -0.7473  0.0688
10906TIP3    H254210   4.654   1.795  14.059 -0.2896  0.7110  0.4043
10907TIP3   OH254211   5.605   4.036  11.629  0.5112  0.0860  0.0146
10907TIP3    H154212   5.572   4.061  11.543  1.1256 -0.0624 -0.2688
10907TIP3    H254213   5.526   4.028  11.683  0.1921  1.3020 -0.2258
10908TIP3   OH254214   5.640   5.110   2.299  0.2557 -0.5027  0.6696
10908TIP3    H154215   5.703   5.143   2.235 -0.0644 -1.4140 -0.1339
10908TIP3    H254216   5.669   5.021   2.318  0.7312 -0.0381  2.3246
10909TIP3   OH254217   6.428   0.180  11.986  0.1233  0.7281 -0.4107
10909TIP3    H154218   6.367   0.252  11.997 -0.4706  0.3510 -1.1183
10909TIP3    H254219   6.498   0.215  11.931  0.6863  1.2325  0.6021
10910TIP3   OH254220   5.745   0.361  12.447 -1.1317  0.4464  0.0443
10910TIP3    H154221   5.710   0.282  12.406  1.8897 -0.2264 -1.5118
10910TIP3    H254222   5.691   0.432  12.413 -2.7378 -0.7491  0.0190
10911TIP3   OH254223   2.753   2.060  16.036 -0.0347 -0.4243 -0.8898
10911TIP3    H154224   2.812   1.999  16.079  0.6983  0.8209 -0.0506
10911TIP3    H254225   2.809   2.133  16.010 -1.2289  0.9723  0.2791
10912TIP3   OH254226   4.656   2.324   2.411 -0.2823  0.2234 -0.2140
10912TIP3    H154227   4.660   2.335   2.506 -0.0962  0.8629 -0.2877
10912TIP3    H254228   4.576   2.370   2.386  0.3927  1.2754 -0.5130
10913TIP3   OH254229   4.193   6.580  15.505 -0.0028 -0.2238 -0.1415
10913TIP3    H154230   4.205   6.522  15.430 -1.8769 -0.2171 -0.5053
10913TIP3    H254231   4.212   6.667  15.470  2.2977 -0.5125  0.2710
10914TIP3   OH254232   5.855   2.081  13.851  0.5053  0.3202 -0.3585
10914TIP3    H154233   5.884   2.034  13.929 -1.0168  2.7808  1.8797
10914TIP3    H254234   5.927   2.141  13.830  0.0096  1.3212  0.6931
10915TIP3   OH254235   2.311   2.987  13.920  0.5446 -0.5474 -0.3494
10915TIP3    H154236   2.364   3.056  13.960  0.4236  0.3911 -1.7576
10915TIP3    H254237   2.367   2.910  13.922  0.9436 -0.2543  0.5929
10916TIP3   OH254238   4.845   3.764  14.218 -0.7748 -0.4567 -0.1000
10916TIP3    H154239   4.902   3.786  14.292 -1.1834  0.0842  0.0586
10916TIP3    H254240   4.886   3.687  14.178  1.7525  1.5703 -1.7536
10917TIP3   OH254241   2.256   2.705  11.822 -0.1846  0.6091  0.4017
10917TIP3    H154242   2.331   2.740  11.774  1.5420 -0.6769  2.0402
10917TIP3    H254243   2.208   2.783  11.852 -0.0246  1.4386 -1.3704
10918TIP3   OH254244   1.788   1.768  11.434 -0.6476  0.0984 -0.0453
10918TIP3    H154245   1.854   1.836  11.421 -1.2982  0.5364 -1.2203
10918TIP3    H254246   1.787   1.753  11.528  0.8207  0.3871  0.0350
10919TIP3   OH254247   2.870   2.687   0.759  0.0750  0.0795  0.5326
10919TIP3    H154248   2.919   2.625   0.814 -0.7428 -1.6942 -0.6466
10919TIP3    H254249   2.788   2.700   0.806  0.3163  0.4529  0.8683
10920TIP3   OH254250   6.842   2.383   3.787 -0.0129  0.2778  0.0572
10920TIP3    H154251   6.855   2.466   3.832 -0.8470 -0.1651  1.1694
10920TIP3    H254252   6.929   2.344   3.783  0.2599  0.8629  0.2473
10921TIP3   OH254253   3.690   3.003   5.061 -0.1753  0.1096 -0.3024
10921TIP3    H154254   3.653   3.087   5.087  1.5095  0.6694  0.4720
10921TIP3    H254255   3.672   2.944   5.134 -1.3714 -0.2303 -0.8525
10922TIP3   OH254256   2.301   4.236  14.760 -0.0838  0.4759 -0.1876
10922TIP3    H154257   2.353   4.236  14.680 -0.2977  0.5704 -0.3284
10922TIP3    H254258   2.292   4.143  14.782  0.8971  0.4933  0.3385
10923TIP3   OH254259   1.649   2.839  13.032  0.5770  0.0788  0.3850
10923TIP3    H154260   1.590   2.839  12.956  1.5973 -0.4576 -0.4330
10923TIP3    H254261   1.590   2.835  13.108 -0.4615  0.3979 -0.3772
10924TIP3   OH254262   5.842   5.502  13.227 -0.2313 -0.2656  0.7173
10924TIP3    H154263   5.863   5.595  13.239 -1.3186  0.2334 -0.8854
10924TIP3    H254264   5.903   5.456  13.285  1.0529  1.3802  0.7521
10925TIP3   OH254265   3.530   5.461  14.069  0.0443 -0.8836  0.0020
10925TIP3    H154266   3.592   5.511  14.015  3.1541 -2.4464  1.8971
10925TIP3    H254267   3.499   5.391  14.012  0.2527 -0.2984 -0.8542
10926TIP3   OH254268   4.252   0.543   4.100 -0.2709 -0.0818  0.4161
10926TIP3    H154269   4.279   0.627   4.063  0.0744  0.1283  1.1172
10926TIP3    H254270   4.259   0.481   4.027  1.1606  0.1682  0.3114
10927TIP3   OH254271   3.680   5.158   3.130  0.3112 -0.4414 -0.3808
10927TIP3    H154272   3.611   5.096   3.154 -0.9611  0.9809 -0.1730
10927TIP3    H254273   3.722   5.119   3.054  1.2530 -2.7505  1.2413
10928TIP3   OH254274   4.889   0.357  13.907 -0.0689 -0.5381  0.1090
10928TIP3    H154275   4.805   0.354  13.952  1.4214  0.4142  3.2249
10928TIP3    H254276   4.892   0.444  13.868 -0.4029 -0.4479  0.2755
10929TIP3   OH254277   3.267   1.252   0.916 -0.1386  0.4069 -0.2183
10929TIP3    H154278   3.358   1.282   0.912  0.2849 -0.9399 -1.5400
10929TIP3    H254279   3.266   1.172   0.865 -2.3073  0.9236 -1.0946
10930TIP3   OH254280   3.727   2.992  14.948  0.2848 -0.3358 -0.1092
10930TIP3    H154281   3.765   3.079  14.935 -1.0152  0.4340  0.9906
10930TIP3    H254282   3.797   2.932  14.923  0.1884  0.9110 -4.1756
10931TIP3   OH254283   4.228   2.592  12.992  0.2027 -0.2522  0.7272
10931TIP3    H154284   4.150   2.648  12.987  0.0685 -0.4793  0.1970
10931TIP3    H254285   4.240   2.575  13.085  0.9372  1.6402  1.0236
10932TIP3   OH254286   2.778   6.706   2.679 -0.4123  0.6953 -0.1225
10932TIP3    H154287   2.731   6.623   2.667  0.3813  0.0882  0.8427
10932TIP3    H254288   2.813   6.726   2.592 -0.2078 -0.2422 -0.2666
10933TIP3   OH254289   4.755   3.251  12.336  0.5366 -0.0795 -0.4709
10933TIP3    H154290   4.684   3.279  12.278  0.0329  0.5381  0.4371
10933TIP3    H254291   4.783   3.167  12.299 -1.0904 -0.6578 -0.4827
10934TIP3   OH254292   3.350   2.121   3.554  0.2260 -0.0406  0.2476
10934TIP3    H154293   3.395   2.084   3.477 -0.0365 -0.2485  0.1943
10934TIP3    H254294   3.421   2.154   3.609  0.3751  0.7614 -0.4202
10935TIP3   OH254295   2.301   5.214  11.405  0.1271 -0.2369  0.1053
10935TIP3    H154296   2.212   5.248  11.396  0.4366  0.3046 -1.1611
10935TIP3    H254297   2.321   5.223  11.498 -2.0132 -2.6853  0.9255
10936TIP3   OH254298   0.474   6.217   6.513  0.6350  0.5101  1.2359
10936TIP3    H154299   0.519   6.256   6.438 -1.9651  0.6651 -0.3715
10936TIP3    H254300   0.528   6.141   6.537  1.3985  0.2947 -0.9658
10937TIP3   OH254301   3.587   6.749  12.844  0.5948 -0.2069  0.3354
10937TIP3    H154302   3.577   6.658  12.817  0.6089 -0.2131  0.3518
10937TIP3    H254303   3.611   6.795  12.764 -2.3347  0.3080 -0.3260
10938TIP3   OH254304   0.715   6.529   3.530 -0.1112  0.1081  0.1558
10938TIP3    H154305   0.702   6.478   3.610 -1.3775 -1.9667 -1.2973
10938TIP3    H254306   0.804   6.563   3.538 -0.5746  0.9369  2.9394
10939TIP3   OH254307   4.599   3.612  16.246  0.4015  0.5085 -0.7902
10939TIP3    H154308   4.572   3.530  16.289 -2.0558  1.9160  0.5763
10939TIP3    H254309   4.667   3.585  16.185  0.4434 -2.4012  0.3573
10940TIP3   OH254310   6.328   1.862  10.781 -0.5030 -0.2914 -0.2766
10940TIP3    H154311   6.265   1.802  10.822 -3.7197  1.8503 -1.7000
10940TIP3    H254312   6.317   1.846  10.687  0.4085  0.8017 -0.5806
10941TIP3   OH254313   5.146   4.797  14.540  0.1766  0.6124 -0.3300
10941TIP3    H154314   5.090   4.733  14.584 -0.3121  1.0165 -0.3530
10941TIP3    H254315   5.088   4.839  14.476  0.1075  2.0704  0.6674
10942TIP3   OH254316   1.610   5.680  14.816 -0.2561 -0.5260  0.3967
10942TIP3    H154317   1.639   5.769  14.799  1.7180 -1.0829  0.5362
10942TIP3    H254318   1.646   5.659  14.902  1.3762 -2.2033 -0.6193
10943TIP3   OH254319   5.299   0.538   4.262 -0.3495 -0.0982 -0.0882
10943TIP3    H154320   5.258   0.498   4.186 -0.1210 -0.0799 -0.2236
10943TIP3    H254321   5.227   0.575   4.312 -0.4201  0.7755 -0.8122
10944TIP3   OH254322   5.179   6.302  15.920  0.2644  0.0714 -0.2395
10944TIP3    H154323   5.139   6.232  15.971  2.2921 -0.8467  0.1883
10944TIP3    H254324   5.266   6.314  15.959  0.1281  2.5925 -0.5330
10945TIP3   OH254325   4.340   2.309  13.270 -0.5390 -0.1817  0.2728
10945TIP3    H154326   4.304   2.289  13.184  1.0124 -1.0739 -0.2064
10945TIP3    H254327   4.390   2.390  13.257 -0.9682  0.1290  0.5348
10946TIP3   OH254328   4.586   0.674   5.041 -0.1251  0.0342 -0.0943
10946TIP3    H154329   4.572   0.606   5.106 -2.6583  1.5173  1.0373
10946TIP3    H254330   4.546   0.640   4.961  1.0623 -0.8860 -0.3274
10947TIP3   OH254331   3.010   1.126  13.911  0.5699 -0.1887 -0.0891
10947TIP3    H154332   3.021   1.216  13.942  0.0551 -0.7304  1.7730
10947TIP3    H254333   2.919   1.105  13.928  0.7086 -1.1132 -0.4189
10948TIP3   OH254334   6.512   6.845   5.424  0.8090  0.1144  0.2042
10948TIP3    H154335   6.451   6.916   5.405  0.7318  0.2881  1.0581
10948TIP3    H254336   6.462   6.765   5.409  1.0741  0.2131 -1.3540
10949TIP3   OH254337   1.059   4.772  11.171 -0.4758  0.2217 -0.0246
10949TIP3    H154338   1.077   4.739  11.082 -1.9258  0.8457 -0.5778
10949TIP3    H254339   0.967   4.798  11.168 -0.4526  0.5357  1.5916
10950TIP3   OH254340   2.757   6.604   5.653 -0.7071 -0.3727 -0.2887
10950TIP3    H154341   2.718   6.534   5.600 -0.9871  0.1676 -0.7958
10950TIP3    H254342   2.846   6.613   5.618 -1.0296  0.2689 -0.9394
10951TIP3   OH254343   5.156   2.216  10.361 -0.4596  0.2330 -0.3133
10951TIP3    H154344   5.217   2.287  10.342  0.4048 -0.6150 -0.8006
10951TIP3    H254345   5.208   2.136  10.351 -1.4020 -0.4735  0.2405
10952TIP3   OH254346   0.676   4.864  16.296  0.3573 -0.3261 -0.0527
10952TIP3    H154347   0.757   4.903  16.330  0.8192 -1.3427  0.0548
10952TIP3    H254348   0.671   4.778  16.338 -0.7684 -0.2926 -0.0909
10953TIP3   OH254349   2.437   2.441   3.773 -0.4977  0.2003 -0.0078
10953TIP3    H154350   2.356   2.399   3.802  0.5634 -0.4851  2.1670
10953TIP3    H254351   2.412   2.530   3.750 -1.8831 -0.0550  0.4540
10954TIP3   OH254352   5.270   5.560  13.560  0.0856 -0.2619 -0.3453
10954TIP3    H154353   5.220   5.512  13.626  0.8429 -0.3735  0.1587
10954TIP3    H254354   5.204   5.604  13.507 -0.6629 -1.9981 -0.9339
10955TIP3   OH254355   5.122   6.211   2.019  0.7968  0.3180 -0.6819
10955TIP3    H154356   5.044   6.156   2.011  1.1709 -0.0500 -2.2242
10955TIP3    H254357   5.172   6.193   1.939  1.7496  1.6376 -0.4184
10956TIP3   OH254358   5.846   2.037  16.151  0.2371 -0.4802  0.0075
10956TIP3    H154359   5.809   1.959  16.193 -0.6133 -0.4686 -0.6935
10956TIP3    H254360   5.816   2.110  16.206 -0.2840 -0.5252 -0.2050
10957TIP3   OH254361   2.829   0.750   4.613  0.2208 -0.3906  0.3086
10957TIP3    H154362   2.867   0.838   4.616 -1.6721  0.5970 -1.6217
10957TIP3    H254363   2.898   0.695   4.575  1.0812  0.4703  0.5906
10958TIP3   OH254364   6.279   2.597  11.215 -0.8720  0.3007  0.0431
10958TIP3    H154365   6.272   2.512  11.172 -0.2900  0.2801 -0.0273
10958TIP3    H254366   6.218   2.593  11.289  0.3934 -0.8286  1.0798
10959TIP3   OH254367   5.021   5.318  14.254  0.8503 -0.3930  0.3142
10959TIP3    H154368   5.090   5.384  14.239  1.7033 -1.2264  0.4770
10959TIP3    H254369   4.970   5.318  14.173  0.3209  1.0434  0.6115
10960TIP3   OH254370   4.533   0.312  16.198 -0.3744  0.2237  0.0668
10960TIP3    H154371   4.620   0.350  16.189 -1.4919  2.8176 -0.7975
10960TIP3    H254372   4.520   0.301  16.292  1.9017 -3.0339  0.1604
10961TIP3   OH254373   4.387   2.594   1.992  0.1961 -0.0329 -0.7847
10961TIP3    H154374   4.442   2.599   2.071  0.1823  2.4110 -0.8560
10961TIP3    H254375   4.443   2.628   1.922 -0.2484 -0.9186 -1.5904
10962TIP3   OH254376   4.172   5.313  13.597  0.4134  0.5738  0.2378
10962TIP3    H154377   4.240   5.291  13.532  2.3519  1.4769  1.8529
10962TIP3    H254378   4.160   5.407  13.587  3.1172  1.3970  3.1806
10963TIP3   OH254379   3.440   2.374   5.341 -0.5859 -0.7610  0.2876
10963TIP3    H154380   3.393   2.292   5.324 -0.0724 -0.8616 -0.7109
10963TIP3    H254381   3.475   2.400   5.256 -2.8225  1.8315  0.0428
10964TIP3   OH254382   1.730   3.544   5.238  0.7379  0.1605  0.1013
10964TIP3    H154383   1.725   3.625   5.188  0.7391  0.9705  1.3545
10964TIP3    H254384   1.824   3.526   5.246  0.8904  1.4087  1.8523
10965TIP3   OH254385   3.722   2.864  17.057 -0.5537  0.1867 -0.0819
10965TIP3    H154386   3.633   2.845  17.086 -0.0620  0.3347  1.6399
10965TIP3    H254387   3.730   2.959  17.065 -0.2252  0.1641 -0.1117
10966TIP3   OH254388   2.778   0.294   0.711 -0.2616  0.2301  0.0726
10966TIP3    H154389   2.722   0.343   0.651  1.5826  1.0272 -1.0760
10966TIP3    H254390   2.755   0.202   0.695 -0.4756  0.4817 -1.1650
10967TIP3   OH254391   0.893   3.064  12.782 -0.2657 -0.4749 -0.9356
10967TIP3    H154392   0.820   3.121  12.760 -0.4118 -0.6121 -0.8061
10967TIP3    H254393   0.919   3.024  12.699 -0.6566 -0.8034 -0.9040
10968TIP3   OH254394   0.520   5.884   1.270 -0.4836  0.3804 -0.0730
10968TIP3    H154395   0.600   5.840   1.239  0.7857  1.2235  1.7917
10968TIP3    H254396   0.450   5.849   1.215  1.3306  0.6383 -2.7617
10969TIP3   OH254397   5.471   1.636   5.743 -0.3693  0.2907 -0.0982
10969TIP3    H154398   5.496   1.726   5.760 -1.2815  0.6023 -0.3782
10969TIP3    H254399   5.397   1.619   5.802 -1.1628  0.2108 -1.0959
10970TIP3   OH254400   1.586   3.994  11.980 -0.4364  0.0393 -0.5027
10970TIP3    H154401   1.632   3.988  12.063 -0.4978  0.1215 -0.4626
10970TIP3    H254402   1.520   3.924  11.983 -0.3484 -0.0449 -0.5384
10971TIP3   OH254403   2.180   6.081  16.143 -1.1659 -0.3784 -0.3343
10971TIP3    H154404   2.110   6.016  16.134 -2.1632  0.8603 -1.8732
10971TIP3    H254405   2.139   6.164  16.121  0.4563  0.5994  0.1705
10972TIP3   OH254406   5.462   0.781   6.455 -0.4542  0.1612 -0.0070
10972TIP3    H154407   5.436   0.796   6.545 -1.3850 -1.8651  0.1188
10972TIP3    H254408   5.547   0.736   6.461  0.0590  1.0616 -0.2160
10973TIP3   OH254409   4.740   6.330   5.349 -0.0535 -0.6990 -0.0907
10973TIP3    H154410   4.647   6.310   5.364 -0.0685 -0.5171  0.0610
10973TIP3    H254411   4.780   6.323   5.436  0.3567 -2.2264 -0.3752
10974TIP3   OH254412   4.161   3.709  12.515 -0.4218  0.8415  0.3689
10974TIP3    H154413   4.220   3.706  12.440  1.4218  1.8618  1.7107
10974TIP3    H254414   4.131   3.618  12.524  1.7050  0.0552  0.2031
10975TIP3   OH254415   2.940   2.424   3.436 -0.5447  0.5323 -0.5940
10975TIP3    H154416   2.943   2.472   3.519 -0.0261  3.4815 -2.1559
10975TIP3    H254417   3.022   2.374   3.434  0.1250  1.5568  0.0814
10976TIP3   OH254418   2.470   3.372  11.234  0.1924 -0.1995  0.4152
10976TIP3    H154419   2.491   3.309  11.165 -1.5303 -0.4437  0.0756
10976TIP3    H254420   2.472   3.321  11.315  1.5371 -0.0574  0.5022
10977TIP3   OH254421   2.137   1.574  14.518  0.6409  0.6548 -0.3411
10977TIP3    H154422   2.150   1.576  14.423 -0.6231  4.0712 -0.5767
10977TIP3    H254423   2.226   1.575  14.553  1.1480  1.4351 -1.5486
10978TIP3   OH254424   1.818   3.756   5.054 -0.0477 -0.2957  0.1326
10978TIP3    H154425   1.885   3.705   5.099  0.4065  0.0787 -0.1030
10978TIP3    H254426   1.862   3.839   5.033 -0.4370 -0.2356 -0.4548
10979TIP3   OH254427   2.201   0.747   6.037 -0.3431 -0.2220  0.1535
10979TIP3    H154428   2.226   0.659   6.066 -0.0209 -0.4077 -0.6429
10979TIP3    H254429   2.282   0.798   6.041  0.1861 -0.7469 -2.1516
10980TIP3   OH254430   2.743   6.046   0.058  0.3242 -0.3437  0.8527
10980TIP3    H154431   2.786   6.011   0.136  1.8213  0.0114  0.2151
10980TIP3    H254432   2.814   6.063  -0.003 -0.8257 -0.8091 -0.6881
10981TIP3   OH254433   1.583   4.440  12.599 -0.7460  0.4808  0.2277
10981TIP3    H154434   1.544   4.469  12.517 -1.4003  1.2877  0.8020
10981TIP3    H254435   1.516   4.459  12.665 -0.6666 -1.1269  0.8263
10982TIP3   OH254436   0.002   3.488  13.050  0.1629  0.1532 -0.6987
10982TIP3    H154437  -0.003   3.402  13.008  1.4161 -0.2484 -0.0906
10982TIP3    H254438  -0.087   3.506  13.079 -0.6588  0.2251 -3.0477
10983TIP3   OH254439   2.439   6.337  12.302  0.6228 -0.4172  0.0582
10983TIP3    H154440   2.415   6.335  12.210  1.1732  0.1986 -0.1009
10983TIP3    H254441   2.505   6.406  12.309  2.4978 -2.1599  0.4543
10984TIP3   OH254442   5.787   1.156   1.929  0.0570 -0.8145 -0.1617
10984TIP3    H154443   5.774   1.074   1.978 -0.9506 -0.7846 -0.3512
10984TIP3    H254444   5.868   1.142   1.881 -0.6625 -2.1519 -1.0483
10985TIP3   OH254445   1.601   0.832  13.205 -0.5051  0.0478  0.0087
10985TIP3    H154446   1.551   0.893  13.150 -0.2317  2.4287  2.2262
10985TIP3    H254447   1.554   0.831  13.288  1.1128 -0.5116  0.9630
10986TIP3   OH254448   1.777   1.110   6.343 -0.1648  0.2897 -0.5757
10986TIP3    H154449   1.778   1.114   6.247 -1.1236 -0.9287 -0.6705
10986TIP3    H254450   1.840   1.041   6.364  0.1459  0.6534 -0.3238
10987TIP3   OH254451   6.113   5.505  16.694  0.7114  0.1129 -0.2939
10987TIP3    H154452   6.062   5.502  16.775  0.1687 -2.3289 -0.6660
10987TIP3    H254453   6.179   5.437  16.704  0.6599 -0.2063 -1.8856
10988TIP3   OH254454   3.118   1.699   2.480 -0.2679  0.0788  0.3576
10988TIP3    H154455   3.193   1.737   2.434  0.4872 -1.5344  0.2031
10988TIP3    H254456   3.045   1.711   2.419  0.1782  0.2774 -0.1486
10989TIP3   OH254457   6.623   0.775  11.451  0.1793  0.0933 -0.2810
10989TIP3    H154458   6.564   0.779  11.527 -0.8566  1.8408 -1.1097
10989TIP3    H254459   6.681   0.851  11.462 -1.1735  1.4843 -2.0849
10990TIP3   OH254460   4.921   1.524  11.769  0.4160  0.1742  0.1339
10990TIP3    H154461   5.008   1.519  11.728  0.6052  0.2879  0.5182
10990TIP3    H254462   4.905   1.435  11.800 -0.9992 -0.6971 -2.7357
10991TIP3   OH254463   2.114   0.381  14.618  0.7686 -0.0368  0.0317
10991TIP3    H154464   2.126   0.469  14.583  0.9380  0.4891  1.3428
10991TIP3    H254465   2.200   0.340  14.611  0.4158 -0.5511 -1.6949
10992TIP3   OH254466   3.532   3.245  10.752 -0.4330  0.2112 -0.6661
10992TIP3    H154467   3.627   3.229  10.757 -0.2483  1.4841  0.1667
10992TIP3    H254468   3.501   3.180  10.689  0.7690 -1.1806  0.1184
10993TIP3   OH254469   6.278   5.206   1.102  0.1833 -0.4018 -0.8819
10993TIP3    H154470   6.272   5.225   1.196 -0.2281 -1.1659 -0.7512
10993TIP3    H254471   6.334   5.129   1.097  0.5059 -0.1427 -1.2963
10994TIP3   OH254472   6.428   6.818   2.749 -0.5978  0.1641  0.4455
10994TIP3    H154473   6.513   6.786   2.721 -0.5078  0.6065  0.2059
10994TIP3    H254474   6.424   6.908   2.716 -1.6547 -0.2404 -0.6197
10995TIP3   OH254475   1.356   0.693   0.395  0.9286  0.2023  0.2691
10995TIP3    H154476   1.431   0.711   0.338  1.9165 -0.2761  1.3934
10995TIP3    H254477   1.296   0.642   0.340  0.2175  2.6992 -1.4652
10996TIP3   OH254478   5.611   1.392  12.827 -0.1466  0.3872 -0.1559
10996TIP3    H154479   5.676   1.325  12.805 -0.6160 -0.1199 -0.0281
10996TIP3    H254480   5.542   1.381  12.762 -1.0741 -0.4701  0.9251
10997TIP3   OH254481   4.971   5.746  14.512  0.6138  0.3164 -0.0288
10997TIP3    H154482   4.963   5.669  14.568 -0.0167  0.3912 -0.0081
10997TIP3    H254483   5.058   5.738  14.473  0.3201 -0.7460 -0.5048
10998TIP3   OH254484   3.947   5.974   5.111  0.1681 -0.2061  0.0654
10998TIP3    H154485   3.891   5.921   5.055  0.3547 -0.3812  0.0468
10998TIP3    H254486   3.894   5.991   5.189  0.2408 -0.7283  0.2327
10999TIP3   OH254487   3.967   5.702  17.093  0.6330  0.2048  0.4455
10999TIP3    H154488   4.025   5.766  17.134  1.3348 -0.0322 -0.1567
10999TIP3    H254489   4.027   5.640  17.050 -0.0355 -0.6282  0.6778
11000TIP3   OH254490   1.843   4.105   0.358  0.1588 -0.0801  0.2010
11000TIP3    H154491   1.771   4.112   0.420  0.5144 -2.4863  0.9812
11000TIP3    H254492   1.861   4.012   0.352  1.6853  0.2619 -1.7787
11001TIP3   OH254493   2.832   2.145  15.711 -0.1077 -0.1040 -0.1305
11001TIP3    H154494   2.835   2.112  15.801  0.4514 -0.4274 -0.2676
11001TIP3    H254495   2.888   2.223  15.713 -1.9704  1.2956  0.3646
11002TIP3   OH254496   4.468   3.084  15.618 -0.6205  0.0551  0.4288
11002TIP3    H154497   4.558   3.067  15.590 -0.0964 -0.4765  2.2650
11002TIP3    H254498   4.420   3.004  15.599 -0.4256 -0.0701  0.4641
11003TIP3   OH254499   4.680   6.232   1.008 -0.3502  0.2443  0.3175
11003TIP3    H154500   4.623   6.156   1.022  1.3347 -0.8414  1.6152
11003TIP3    H254501   4.631   6.305   1.046 -0.8301 -0.6965  1.5946
11004TIP3   OH254502   2.253   6.266   2.212  0.2105  0.5367 -0.6388
11004TIP3    H154503   2.250   6.336   2.145  1.6790  0.5462 -0.7216
11004TIP3    H254504   2.230   6.187   2.164  0.7319  0.6279 -1.0542
11005TIP3   OH254505   5.961   2.035  16.480  0.0424  0.0587 -0.1424
11005TIP3    H154506   5.907   1.955  16.484  1.0930 -0.6729 -0.1763
11005TIP3    H254507   5.914   2.092  16.420 -0.5732 -0.6626 -0.3724
11006TIP3   OH254508   5.736   5.099   2.612 -0.1263  0.4145 -0.1316
11006TIP3    H154509   5.696   5.180   2.644 -0.4099 -0.1845  1.1121
11006TIP3    H254510   5.821   5.096   2.656  1.0300  1.2977 -2.1714
11007TIP3   OH254511   3.802   6.083  12.187  0.5190 -0.9540 -0.1696
11007TIP3    H154512   3.813   6.128  12.103 -1.0682 -1.3663 -0.6300
11007TIP3    H254513   3.794   5.990  12.163  1.0808 -1.1923  0.5382
11008TIP3   OH254514   3.991   1.257   2.051 -0.4170 -0.6810 -0.1270
11008TIP3    H154515   4.021   1.287   2.136  0.2455  2.2254 -1.2599
11008TIP3    H254516   3.904   1.220   2.067  0.0334 -0.9467  1.8879
11009TIP3   OH254517   1.304   5.312   4.923 -0.0770 -0.0159  0.0225
11009TIP3    H154518   1.367   5.257   4.876  0.6375  1.0409 -0.2946
11009TIP3    H254519   1.358   5.363   4.984 -0.4596  1.7260 -1.0476
11010TIP3   OH254520   2.018   0.630  11.583 -0.1301  0.4947  0.0718
11010TIP3    H154521   1.958   0.659  11.651 -0.4840 -0.0942  0.0198
11010TIP3    H254522   2.067   0.558  11.623  0.1636  0.6130 -0.0667
11011TIP3   OH254523   2.044   5.995   5.075 -0.7212  0.2329  0.0402
11011TIP3    H154524   2.126   6.043   5.067 -0.7477  0.4557  0.9819
11011TIP3    H254525   2.066   5.905   5.048 -0.1655  0.2852  0.3131
11012TIP3   OH254526   5.751   2.389  16.511 -0.0380 -0.5414  0.1044
11012TIP3    H154527   5.767   2.320  16.575 -0.6973  0.0022  0.8849
11012TIP3    H254528   5.685   2.445  16.553  1.3530  1.2610  0.0279
11013TIP3   OH254529   0.059   0.150  14.854 -0.3803 -0.6018  0.4235
11013TIP3    H154530   0.058   0.149  14.758 -2.1109  2.9638  0.2294
11013TIP3    H254531   0.146   0.183  14.876  0.4932 -2.6251  0.2330
11014TIP3   OH254532   5.346   4.736  16.667 -0.6377 -0.0638  0.5730
11014TIP3    H154533   5.314   4.691  16.589  2.0502  0.9411 -1.2678
11014TIP3    H254534   5.312   4.825  16.659 -0.1212  0.1177  0.3832
11015TIP3   OH254535   4.660   0.447   4.330  0.4483 -0.4677  0.3176
11015TIP3    H154536   4.629   0.464   4.241  0.9296 -1.1304  0.0182
11015TIP3    H254537   4.601   0.380   4.364 -1.3223  1.5054  1.4281
11016TIP3   OH254538   5.006   3.450   1.401 -0.0709 -0.0132 -0.0926
11016TIP3    H154539   4.995   3.400   1.320  0.7014  0.9202 -0.7959
11016TIP3    H254540   4.940   3.519   1.396  0.4475  0.4785 -0.2823
11017TIP3   OH254541   0.671   2.364  16.214  0.1511  0.8292 -0.4682
11017TIP3    H154542   0.580   2.373  16.244  0.4298  2.3168 -0.0052
11017TIP3    H254543   0.707   2.294  16.268 -0.6869  0.2810 -0.5996
11018TIP3   OH254544   0.623   2.904  12.411  0.0098  0.1706 -0.3333
11018TIP3    H154545   0.665   2.831  12.455  1.0250  0.6436 -0.5039
11018TIP3    H254546   0.685   2.976  12.418 -1.0953  1.1171  0.1006
11019TIP3   OH254547   5.505   3.750   2.496  0.1433 -0.3523 -0.1199
11019TIP3    H154548   5.462   3.686   2.552  0.8873 -1.0685 -0.3562
11019TIP3    H254549   5.531   3.820   2.556  3.0332 -2.1630  0.9152
11020TIP3   OH254550   6.098   2.828   5.469 -0.1293 -0.2377  0.8518
11020TIP3    H154551   6.107   2.848   5.375 -1.8444 -0.1566  0.6705
11020TIP3    H254552   6.186   2.838   5.504  0.3677  0.7289 -0.5674
11021TIP3   OH254553   4.544   0.448  11.760  0.5200 -0.0332  0.6750
11021TIP3    H154554   4.593   0.399  11.693  1.4654 -0.1449  1.4220
11021TIP3    H254555   4.547   0.538  11.730 -0.7450 -0.3334 -0.4233
11022TIP3   OH254556   5.908   2.092  11.512  0.2265 -0.5658  0.0513
11022TIP3    H154557   5.945   2.138  11.437 -1.0625  1.1680  0.4226
11022TIP3    H254558   5.969   2.112  11.584  0.5433 -0.8054 -0.1474
11023TIP3   OH254559   0.687   1.076  10.545  0.3856  0.1071  0.5916
11023TIP3    H154560   0.643   1.091  10.462  3.0670  0.3441 -0.8648
11023TIP3    H254561   0.650   1.141  10.604  0.4399  1.8340 -1.2017
11024TIP3   OH254562   6.029   4.733  10.495  0.2230 -0.4725 -0.0198
11024TIP3    H154563   6.082   4.754  10.572  0.6803 -1.8834  0.0802
11024TIP3    H254564   6.017   4.817  10.451 -2.0941  0.8521  2.8082
11025TIP3   OH254565   6.235   0.421  12.131  0.3122  0.6637 -0.1230
11025TIP3    H154566   6.323   0.426  12.168  0.0158 -0.6576  0.8344
11025TIP3    H254567   6.178   0.459  12.198 -0.1789 -1.3410  0.6569
11026TIP3   OH254568   1.732   6.109  16.466 -0.3231 -1.0696  0.8767
11026TIP3    H154569   1.655   6.060  16.494 -0.2459 -1.4024  0.5099
11026TIP3    H254570   1.705   6.157  16.388  0.0753 -1.8634  0.2366
11027TIP3   OH254571   3.928   3.580  15.019 -0.1204  0.1201  0.5370
11027TIP3    H154572   3.948   3.605  14.928  0.2678  2.0560  1.1194
11027TIP3    H254573   3.860   3.512  15.010 -0.7683  0.9181 -1.1752
11028TIP3   OH254574   5.633   1.070  16.115  0.5440 -0.0173  0.1234
11028TIP3    H154575   5.588   0.989  16.090  1.0616 -0.8703  1.8099
11028TIP3    H254576   5.723   1.043  16.133  1.2678  1.3239 -1.2563
11029TIP3   OH254577   3.656   6.395  11.823 -0.0318 -0.1988  0.1460
11029TIP3    H154578   3.686   6.468  11.877  0.6121  0.6033 -1.2639
11029TIP3    H254579   3.699   6.407  11.739  1.2852 -3.0245  0.3023
11030TIP3   OH254580   1.312   4.299  12.129 -0.0066  0.1536 -0.8080
11030TIP3    H154581   1.248   4.361  12.164 -0.3957 -0.1498 -0.9755
11030TIP3    H254582   1.317   4.229  12.194  1.0759  0.7728 -0.2020
11031TIP3   OH254583   3.891   2.880  11.667 -0.3294 -0.5217  0.3639
11031TIP3    H154584   3.936   2.825  11.730 -2.0306 -3.6910 -0.9608
11031TIP3    H254585   3.804   2.893  11.705 -0.3337  0.3159  0.0970
11032TIP3   OH254586   6.034   2.915  10.477 -0.0894 -0.3174 -0.1372
11032TIP3    H154587   6.066   2.826  10.465 -0.2488 -0.4489  0.3947
11032TIP3    H254588   6.028   2.950  10.388 -0.5599 -1.0212 -0.3913
11033TIP3   OH254589   3.187   1.081   1.490 -0.3222 -0.3579 -0.1469
11033TIP3    H154590   3.200   1.098   1.583 -0.2181  1.4700 -0.4625
11033TIP3    H254591   3.266   1.116   1.448 -0.5302 -0.8324 -0.9533
11034TIP3   OH254592   5.991   1.442   3.671  0.1105  0.6176 -0.0835
11034TIP3    H154593   5.953   1.474   3.589 -0.5018 -2.2123 -1.0361
11034TIP3    H254594   5.937   1.480   3.739 -0.2376  1.9414 -1.0697
11035TIP3   OH254595   4.750   3.484   0.169 -0.5821 -0.8392 -0.1741
11035TIP3    H154596   4.827   3.429   0.154  0.2416  0.2240  0.0892
11035TIP3    H254597   4.736   3.529   0.086 -0.2984 -0.2697  0.0826
11036TIP3   OH254598   0.003   4.094  11.516  0.0712 -0.1614  0.5643
11036TIP3    H154599   0.020   4.041  11.594 -1.3907 -0.2898  0.8268
11036TIP3    H254600  -0.043   4.034  11.457  1.3130 -0.1144 -0.4776
11037TIP3   OH254601   3.397   1.735   3.361  0.0695  0.4559  0.5285
11037TIP3    H154602   3.385   1.778   3.445  2.5416 -0.0141  1.2038
11037TIP3    H254603   3.380   1.642   3.379 -1.8910  0.6259 -0.1434
11038TIP3   OH254604   5.658   2.178  13.137  0.2662  0.3196  0.6038
11038TIP3    H154605   5.651   2.151  13.045  0.1981 -1.0244  0.9947
11038TIP3    H254606   5.602   2.117  13.184 -0.3576  1.5160  1.4581
11039TIP3   OH254607   2.757   1.846   4.413  0.2407 -0.1894 -0.0261
11039TIP3    H154608   2.677   1.835   4.463  1.4017  0.2508  2.0257
11039TIP3    H254609   2.729   1.890   4.332 -1.3514  1.8216  1.5141
11040TIP3   OH254610   6.763   6.159   5.761  0.2623 -0.6252  0.1406
11040TIP3    H154611   6.748   6.090   5.825 -0.2829 -0.3174  0.3456
11040TIP3    H254612   6.683   6.161   5.708 -0.0991  0.4572  0.7067
11041TIP3   OH254613   6.033   2.861  12.560 -0.4023  0.4753 -0.2792
11041TIP3    H154614   5.989   2.920  12.499 -2.1024  0.9065  1.2950
11041TIP3    H254615   5.992   2.877  12.644 -1.0549 -3.0418  0.2291
11042TIP3   OH254616   0.226   5.531   2.307  0.2635 -0.0504 -0.0453
11042TIP3    H154617   0.153   5.587   2.333 -0.4955 -0.2081 -1.7598
11042TIP3    H254618   0.287   5.590   2.263  1.8216  0.3264  2.3801
11043TIP3   OH254619   4.449   1.552  11.472 -0.1066 -0.0284  0.6141
11043TIP3    H154620   4.501   1.473  11.462 -0.9912 -0.4166 -1.4698
11043TIP3    H254621   4.512   1.624  11.462  0.2405 -0.4834 -0.5725
11044TIP3   OH254622   4.451   2.687   5.038 -0.6358  0.0170 -0.0075
11044TIP3    H154623   4.379   2.750   5.032 -1.3674 -0.6059  1.5119
11044TIP3    H254624   4.476   2.669   4.948  0.0535  2.9501 -0.5003
11045TIP3   OH254625   5.721   5.916   1.305  0.0406 -0.3436  0.2029
11045TIP3    H154626   5.723   5.929   1.399 -1.5079 -0.4413  0.2676
11045TIP3    H254627   5.680   5.996   1.270  0.2854 -0.4535 -0.3563
11046TIP3   OH254628   5.492   6.119  12.068  0.7607 -0.5648  0.0577
11046TIP3    H154629   5.418   6.061  12.053 -0.1296  1.0019 -2.2121
11046TIP3    H254630   5.454   6.197  12.108  1.2222  0.0578 -0.6757
11047TIP3   OH254631   4.013   3.306   4.531  0.0415  0.4786 -0.4094
11047TIP3    H154632   4.065   3.226   4.530 -0.5282  0.0070  1.6262
11047TIP3    H254633   4.061   3.367   4.475  0.5920 -1.2034 -1.8325
11048TIP3   OH254634   2.690   2.412   1.044  0.6297  0.3554  0.5385
11048TIP3    H154635   2.607   2.373   1.074 -0.8742  1.1424 -2.2334
11048TIP3    H254636   2.674   2.507   1.051  2.0900  0.5440  1.7953
11049TIP3   OH254637   2.351   4.682   3.461  0.2395 -0.2236 -0.3276
11049TIP3    H154638   2.415   4.712   3.526 -2.8810  1.8874  2.0698
11049TIP3    H254639   2.331   4.592   3.487 -1.8912  0.9620  2.7169
11050TIP3   OH254640   4.544   6.562  17.074 -1.3576 -0.5162 -0.0576
11050TIP3    H154641   4.635   6.575  17.099 -1.3786 -2.0698  0.9923
11050TIP3    H254642   4.538   6.595  16.984  0.4335 -1.1259 -0.4304
11051TIP3   OH254643   0.819   5.826  15.659 -0.2308 -0.4246  0.1620
11051TIP3    H154644   0.878   5.881  15.607 -1.5582  0.0872 -0.8497
11051TIP3    H254645   0.732   5.864  15.645 -1.0617 -2.2343  0.1794
11052TIP3   OH254646   3.627   5.668   0.793 -0.5024 -0.0212 -0.2453
11052TIP3    H154647   3.668   5.584   0.815 -0.8623  0.0433  0.6851
11052TIP3    H254648   3.588   5.698   0.875 -0.3708  1.0640 -0.5685
11053TIP3   OH254649   0.178   1.744  13.225 -0.0129  0.0232  0.1014
11053TIP3    H154650   0.172   1.839  13.216  1.1451 -0.0311 -1.6763
11053TIP3    H254651   0.267   1.723  13.197 -0.7794 -1.7584 -1.1593
11054TIP3   OH254652   6.461   4.990  14.773 -0.2977 -0.3369 -0.5258
11054TIP3    H154653   6.427   5.073  14.807 -0.5063 -0.7478  0.2879
11054TIP3    H254654   6.513   4.954  14.845 -2.1264 -2.0410  0.0141
11055TIP3   OH254655   5.683   0.164  16.593  0.0665 -0.1220 -0.2604
11055TIP3    H154656   5.761   0.188  16.542 -0.1963 -0.5651 -0.8827
11055TIP3    H254657   5.611   0.209  16.549 -0.0709  0.0908  0.1736
11056TIP3   OH254658   5.304   1.859  16.632 -0.6607  0.4148  0.2042
11056TIP3    H154659   5.214   1.832  16.617 -0.5700  0.9323 -1.5744
11056TIP3    H254660   5.297   1.932  16.694 -1.5007  0.6362 -0.1345
11057TIP3   OH254661   5.776   4.233   0.632  0.2213 -0.4223  0.2629
11057TIP3    H154662   5.865   4.198   0.632  0.5008  0.2619 -0.2955
11057TIP3    H254663   5.773   4.293   0.706 -0.7117 -2.6396  2.1797
11058TIP3   OH254664   1.722   0.021   5.507  0.0488  0.2259 -0.3782
11058TIP3    H154665   1.773   0.066   5.440  1.3892 -0.6985 -0.0043
11058TIP3    H254666   1.673  -0.045   5.459  2.7654 -2.0243 -0.2897
11059TIP3   OH254667   2.065   1.685  12.334 -0.3669 -0.1775  0.0444
11059TIP3    H154668   2.030   1.742  12.403  1.6510  2.2159 -0.7532
11059TIP3    H254669   2.025   1.717  12.253  2.5878  1.9268 -0.7428
11060TIP3   OH254670   3.357   4.738   4.408  0.1865 -0.7346  1.0911
11060TIP3    H154671   3.430   4.676   4.402  0.6032 -0.1477 -0.4456
11060TIP3    H254672   3.394   4.816   4.447 -0.4903 -1.6003  3.6468
11061TIP3   OH254673   1.239   2.131  10.967  0.0813  0.2745  0.5493
11061TIP3    H154674   1.219   2.217  11.005 -0.5189  0.0957  0.6395
11061TIP3    H254675   1.154   2.092  10.950  0.3523 -0.3305  0.5653
11062TIP3   OH254676   0.404   4.044  13.584  0.4001 -0.1835 -0.2230
11062TIP3    H154677   0.336   4.043  13.518  0.5721 -0.7718 -0.3914
11062TIP3    H254678   0.482   4.076  13.538  0.2887  0.3248 -0.0706
11063TIP3   OH254679   4.721   1.816   2.671 -0.1989  0.8298 -0.7041
11063TIP3    H154680   4.636   1.800   2.712  0.0268  2.8045  0.6853
11063TIP3    H254681   4.725   1.754   2.599 -1.7764 -0.9592  0.6592
11064TIP3   OH254682   5.954   6.135  14.760 -0.1996 -0.0481  0.2672
11064TIP3    H154683   5.974   6.042  14.774  0.5412 -0.0134 -0.4491
11064TIP3    H254684   5.860   6.142  14.775 -0.4103 -1.0739 -0.4201
11065TIP3   OH254685   6.668   5.746   3.743  0.2470 -0.3860  0.3369
11065TIP3    H154686   6.745   5.801   3.755 -0.8894  1.0525  1.5877
11065TIP3    H254687   6.642   5.760   3.652  0.4687  0.5339  0.4006
11066TIP3   OH254688   2.296   4.324   5.447 -0.7599  0.0155 -0.4683
11066TIP3    H154689   2.305   4.336   5.541  3.7225 -0.5003 -0.5869
11066TIP3    H254690   2.282   4.230   5.435 -0.6295 -0.0247 -0.3045
11067TIP3   OH254691   1.632   6.353   0.036  0.0434 -0.0265 -0.2865
11067TIP3    H154692   1.719   6.392   0.040  0.4232 -0.7728 -0.9942
11067TIP3    H254693   1.578   6.418  -0.010  0.5146 -0.0528 -0.8847
11068TIP3   OH254694   6.194   0.929   1.024  0.0806  0.0670 -0.0231
11068TIP3    H154695   6.229   1.002   1.075 -0.2488  0.9025 -0.9585
11068TIP3    H254696   6.134   0.970   0.962  1.0909 -0.8066 -1.6561
11069TIP3   OH254697   2.051   5.487   4.027 -0.2418 -0.3736 -0.2307
11069TIP3    H154698   2.094   5.534   3.956  1.0844  0.0673  0.8167
11069TIP3    H254699   2.001   5.419   3.984  1.3656 -0.7870 -1.5427
11070TIP3   OH254700   5.961   3.276  14.543 -0.4335  0.3318  0.4038
11070TIP3    H154701   6.020   3.326  14.600  1.0048 -0.2093 -0.5419
11070TIP3    H254702   5.899   3.342  14.511  0.2282  1.1305  0.7009
11071TIP3   OH254703   3.770   5.061   2.347  0.2200 -0.0690 -0.4054
11071TIP3    H154704   3.774   5.111   2.428 -0.8055  0.6040 -0.7470
11071TIP3    H254705   3.861   5.047   2.322  0.6122 -1.6597  1.6637
11072TIP3   OH254706   1.625   0.355  16.444  0.5645  0.1260  0.2106
11072TIP3    H154707   1.579   0.408  16.508  0.4704 -0.1676  0.3902
11072TIP3    H254708   1.711   0.338  16.482  0.1902 -0.8175  0.6886
11073TIP3   OH254709   3.201   4.243   4.852 -0.3928 -0.2123 -0.5991
11073TIP3    H154710   3.146   4.310   4.813 -0.8714 -0.1413  0.1918
11073TIP3    H254711   3.144   4.166   4.860  0.4895 -1.1810 -2.7243
11074TIP3   OH254712   1.251   2.965  12.682  0.1667  0.4067  0.3833
11074TIP3    H154713   1.171   2.915  12.703  0.8130 -0.4630  0.8456
11074TIP3    H254714   1.238   2.993  12.592 -1.1795  1.3034  0.8270
11075TIP3   OH254715   5.099   5.414  13.199 -0.6047  0.6002 -0.3498
11075TIP3    H154716   5.165   5.347  13.216 -2.1385 -1.2738 -1.3834
11075TIP3    H254717   5.124   5.452  13.115 -0.2084  0.7324 -0.1749
11076TIP3   OH254718   3.295   0.115   3.085  0.2376  0.0643 -0.3223
11076TIP3    H154719   3.291   0.103   3.179 -3.1058 -0.2818 -0.3916
11076TIP3    H254720   3.213   0.078   3.052  1.9045 -1.1820 -3.5706
11077TIP3   OH254721   3.717   2.724  12.190 -0.1467  0.6126 -0.3392
11077TIP3    H154722   3.732   2.642  12.238 -0.0702 -0.1839 -1.6797
11077TIP3    H254723   3.805   2.754  12.167 -0.2480 -0.0580 -1.6634
11078TIP3   OH254724   5.198   0.872   6.417 -0.2863  0.6363  0.0508
11078TIP3    H154725   5.183   0.941   6.480 -0.6521  0.5511  0.0600
11078TIP3    H254726   5.292   0.851   6.425 -0.4640  0.1557  1.0449
11079TIP3   OH254727   3.310   5.519   2.608 -0.4831 -0.5546 -0.2700
11079TIP3    H154728   3.328   5.611   2.586  1.9054 -1.5110 -2.8275
11079TIP3    H254729   3.393   5.486   2.643 -0.9010 -2.0973 -0.6831
11080TIP3   OH254730   1.631   5.439  16.858 -0.0989  0.0001  0.9222
11080TIP3    H154731   1.693   5.505  16.889  0.2845  0.9693 -1.6524
11080TIP3    H254732   1.667   5.356  16.888  1.6303  0.6598  0.8139
11081TIP3   OH254733   1.457   5.936  11.523  0.6162 -0.0814  0.0270
11081TIP3    H154734   1.416   6.023  11.530  0.1420 -0.3489  0.7400
11081TIP3    H254735   1.473   5.924  11.430 -0.0990  0.4171 -0.1693
11082TIP3   OH254736   1.592   6.249  15.847  0.4163 -0.6190  0.9012
11082TIP3    H154737   1.535   6.322  15.870  0.5705  1.0634 -3.1409
11082TIP3    H254738   1.680   6.282  15.860  0.4792 -0.8973  1.1792
11083TIP3   OH254739   4.729   4.478  11.979 -0.3757 -0.1594  0.7026
11083TIP3    H154740   4.759   4.538  12.047 -0.2912  0.7496 -0.1047
11083TIP3    H254741   4.685   4.534  11.915  0.1933 -0.8751 -0.3524
11084TIP3   OH254742   3.035   3.461  12.684 -0.1861 -0.2680 -0.1034
11084TIP3    H154743   3.064   3.370  12.687 -0.1700 -0.2533  0.2560
11084TIP3    H254744   2.939   3.457  12.686 -0.2017 -0.2360  2.0032
11085TIP3   OH254745   1.324   1.919   6.339  0.0151  0.2626  0.2517
11085TIP3    H154746   1.272   1.856   6.290  0.9822  1.1419 -2.0590
11085TIP3    H254747   1.400   1.869   6.369 -0.1839 -0.1050  0.1450
11086TIP3   OH254748   3.907   1.515   2.848  0.0987  0.5029  0.1010
11086TIP3    H154749   3.822   1.544   2.815  0.3425  0.7771 -0.2825
11086TIP3    H254750   3.948   1.471   2.773  1.5170  2.8963 -0.6323
11087TIP3   OH254751   5.409   1.038   3.187  0.3929 -0.1908  0.3766
11087TIP3    H154752   5.350   1.017   3.114  0.0147  0.1589  0.5770
11087TIP3    H254753   5.450   0.955   3.210  0.8372 -0.2307 -0.5167
11088TIP3   OH254754   2.644   4.049  13.782  0.0434 -0.0272  0.3083
11088TIP3    H154755   2.631   3.982  13.715  1.4100  2.4143 -2.6515
11088TIP3    H254756   2.737   4.042  13.805  0.0572  0.4442  0.4066
11089TIP3   OH254757   1.267   6.376   0.527 -0.4108 -0.0476  0.0117
11089TIP3    H154758   1.248   6.286   0.554 -0.8491  0.4449  1.4024
11089TIP3    H254759   1.190   6.403   0.477 -0.8507  0.0011  0.7140
11090TIP3   OH254760   3.620   6.529   6.570 -0.4442 -0.3615  0.4296
11090TIP3    H154761   3.632   6.565   6.658 -0.9407  0.7038  0.0802
11090TIP3    H254762   3.689   6.571   6.518  0.5585 -1.8229  0.5137
11091TIP3   OH254763   6.350   6.137  11.178  0.2169  0.6857  0.2007
11091TIP3    H154764   6.293   6.061  11.184  0.4480  0.6538  2.8122
11091TIP3    H254765   6.343   6.164  11.086  0.8203 -2.9481 -1.0554
11092TIP3   OH254766   3.530   6.659  14.325 -0.1227  0.3194  0.0701
11092TIP3    H154767   3.574   6.589  14.278 -0.7573  0.0675 -0.1510
11092TIP3    H254768   3.592   6.731  14.324 -0.0852  0.2876 -1.0664
11093TIP3   OH254769   4.729   6.590  13.028 -0.6222  0.2073  0.7331
11093TIP3    H154770   4.666   6.548  12.969  2.0355 -1.8302 -0.8358
11093TIP3    H254771   4.726   6.683  13.003 -1.3911 -0.1982 -0.8498
11094TIP3   OH254772   5.856   2.300  10.698 -0.4045 -0.4779 -0.1639
11094TIP3    H154773   5.946   2.322  10.719 -0.5878 -0.2852  0.4381
11094TIP3    H254774   5.829   2.365  10.633 -0.3506 -0.0687  0.2200
11095TIP3   OH254775   6.664   5.606  11.112 -0.3959 -0.1602  0.3095
11095TIP3    H154776   6.673   5.622  11.018  0.5044  1.0490  0.5728
11095TIP3    H254777   6.596   5.667  11.140 -1.0084 -0.8601  0.3793
11096TIP3   OH254778   2.932   6.828   1.031  0.1665 -0.2224 -0.1073
11096TIP3    H154779   2.977   6.821   1.115 -0.4834  1.6487  0.4434
11096TIP3    H254780   2.978   6.898   0.985 -0.1517 -0.5088 -0.8736
11097TIP3   OH254781   6.570   3.818  11.998  0.2598  0.4987  0.3677
11097TIP3    H154782   6.516   3.894  12.019  0.6383  0.6590  0.8016
11097TIP3    H254783   6.632   3.812  12.071  0.9833  0.4649 -0.2353
11098TIP3   OH254784   0.325   4.636  13.436 -0.0636  0.0829  0.0209
11098TIP3    H154785   0.328   4.551  13.390 -1.1376  0.3144 -0.5003
11098TIP3    H254786   0.233   4.651  13.452  0.0805  1.3478 -0.2449
11099TIP3   OH254787   2.105   2.512   5.122  0.2928  0.3351  0.3290
11099TIP3    H154788   2.178   2.453   5.102 -0.9653 -1.8192  1.6830
11099TIP3    H254789   2.074   2.543   5.037  1.1388 -0.8119 -0.4170
11100TIP3   OH254790   3.792   3.926   2.700 -0.9051  0.1187 -0.7560
11100TIP3    H154791   3.756   4.014   2.712 -1.0660  0.1485 -1.4125
11100TIP3    H254792   3.883   3.933   2.729 -0.4783  0.8849 -2.1917
11101TIP3   OH254793   5.747   2.186  13.565  0.2918 -0.6169  0.3476
11101TIP3    H154794   5.671   2.217  13.615  1.7416  1.5200  1.4092
11101TIP3    H254795   5.778   2.109  13.612 -0.2462 -0.5077  0.8871
11102TIP3   OH254796   5.946   6.475  15.718 -0.1366  0.9526 -0.3931
11102TIP3    H154797   5.926   6.546  15.780 -2.3358  0.9285 -0.9833
11102TIP3    H254798   5.997   6.412  15.769 -1.9087  0.9170  1.4541
11103TIP3   OH254799   6.437   1.683  14.051 -0.2910  0.3085  0.0663
11103TIP3    H154800   6.480   1.746  14.109 -0.0043  1.9429 -1.8408
11103TIP3    H254801   6.346   1.682  14.079 -0.1932  1.2156  0.4225
11104TIP3   OH254802   0.508   1.020  13.620 -0.8955 -0.1219 -0.9244
11104TIP3    H154803   0.452   0.978  13.554 -0.5954  0.4925 -1.5814
11104TIP3    H254804   0.451   1.031  13.696 -1.8082  0.8717 -1.7123
11105TIP3   OH254805   3.917   5.346  11.780 -0.0293 -0.1653  0.4733
11105TIP3    H154806   3.978   5.386  11.841  0.0656 -1.0840  0.9889
11105TIP3    H254807   3.951   5.258  11.765 -0.0590  0.0304 -0.8950
11106TIP3   OH254808   2.352   0.723   3.200  0.2857 -0.5053  0.5466
11106TIP3    H154809   2.257   0.711   3.197  0.1517 -1.4148  3.9166
11106TIP3    H254810   2.386   0.639   3.229  1.9092  0.3398  1.2371
11107TIP3   OH254811   4.573   3.348  15.655  0.0721  0.7148 -0.2380
11107TIP3    H154812   4.549   3.280  15.592 -1.4537  2.1129 -1.2348
11107TIP3    H254813   4.563   3.430  15.608  0.2594  1.7419  1.4099
11108TIP3   OH254814   0.921   3.628   2.448  0.2752 -0.6284 -0.7876
11108TIP3    H154815   0.909   3.538   2.418  1.1856 -0.3895 -1.9552
11108TIP3    H254816   1.005   3.655   2.410  0.7381  0.2331  0.7420
11109TIP3   OH254817   4.857   5.339  13.194 -0.0209 -0.3407 -0.2068
11109TIP3    H154818   4.945   5.376  13.191 -0.2545  0.3301  0.6454
11109TIP3    H254819   4.868   5.248  13.167  1.2025 -0.7304  1.4531
11110TIP3   OH254820   3.542   0.410   4.891 -0.1799 -0.2008  0.4645
11110TIP3    H154821   3.519   0.503   4.885 -0.1019 -0.1487  0.9247
11110TIP3    H254822   3.636   0.409   4.908  0.0021 -0.3923 -0.5248
11111TIP3   OH254823   4.785   1.762  16.509 -0.3049  0.0370  0.1510
11111TIP3    H154824   4.766   1.678  16.468 -0.3022  0.0761  0.0696
11111TIP3    H254825   4.753   1.827  16.447 -0.9715  0.0876  0.5331
11112TIP3   OH254826   5.385   5.630  14.950  0.0064 -0.7992  0.1661
11112TIP3    H154827   5.313   5.589  14.902 -1.2246  2.1598 -0.7783
11112TIP3    H254828   5.462   5.611  14.898 -0.6569 -1.1815 -0.6987
11113TIP3   OH254829   0.225   5.853  16.179  0.1706 -0.1731  0.1789
11113TIP3    H154830   0.284   5.876  16.107  0.8818  1.9223  1.3646
11113TIP3    H254831   0.155   5.917  16.174 -0.0962 -0.3885  0.9827
11114TIP3   OH254832   6.785   3.312  13.546 -0.0317 -0.1651  0.2110
11114TIP3    H154833   6.829   3.325  13.462 -1.1045 -1.4851 -0.5981
11114TIP3    H254834   6.832   3.369  13.607  0.1974  1.5160 -1.4574
11115TIP3   OH254835   4.439   4.472   2.745  0.7945 -0.0842  0.9457
11115TIP3    H154836   4.482   4.392   2.776  1.1981 -0.6777 -0.9938
11115TIP3    H254837   4.349   4.447   2.729  1.2980 -0.6985 -1.3036
11116TIP3   OH254838   0.582   0.758  15.109  0.2530 -0.3483  0.0605
11116TIP3    H154839   0.552   0.677  15.067 -0.3054 -0.1807  0.1379
11116TIP3    H254840   0.519   0.774  15.179  0.3539  0.1661  0.0361
11117TIP3   OH254841   1.857   4.868   2.172 -0.1614 -0.1837  0.1885
11117TIP3    H154842   1.893   4.926   2.105 -0.4104 -1.5606 -1.1911
11117TIP3    H254843   1.931   4.814   2.199 -0.3957 -0.6265 -0.0531
11118TIP3   OH254844   1.368   4.808  12.228  0.5475  0.3534 -0.1577
11118TIP3    H154845   1.436   4.874  12.234 -1.4543  2.4541  0.7012
11118TIP3    H254846   1.321   4.814  12.311 -0.3288 -1.4625 -0.4765
11119TIP3   OH254847   5.525   4.248  10.453  0.2321 -0.5861 -0.1678
11119TIP3    H154848   5.567   4.304  10.519 -0.3471 -0.4381  0.0837
11119TIP3    H254849   5.533   4.297  10.371 -0.2715 -0.1247  0.0501
11120TIP3   OH254850   3.097   4.000   2.793 -0.7770  0.2406  0.4453
11120TIP3    H154851   3.088   4.085   2.837 -0.3256  0.7842 -0.4729
11120TIP3    H254852   3.191   3.994   2.773 -0.6346 -0.9363  1.3682
11121TIP3   OH254853   1.914   3.256  12.890 -0.0772 -0.2311  0.3629
11121TIP3    H154854   1.923   3.309  12.969 -1.9143  0.6102  0.0706
11121TIP3    H254855   1.852   3.187  12.914 -0.8136  0.1528 -0.3837
11122TIP3   OH254856   5.787   2.792   5.322 -0.0251  0.3203 -0.1013
11122TIP3    H154857   5.838   2.814   5.244  1.7013  0.3234  0.9707
11122TIP3    H254858   5.831   2.715   5.358 -1.1180  0.0057  0.5958
11123TIP3   OH254859   2.011   4.146  12.384 -0.2703  0.9835 -0.2942
11123TIP3    H154860   1.985   4.075  12.325  0.5185  0.1723  0.3144
11123TIP3    H254861   2.090   4.183  12.344  1.1461 -0.5391  0.9627
11124TIP3   OH254862   1.551   4.187   3.183  0.3295 -0.5207 -0.2053
11124TIP3    H154863   1.610   4.196   3.109  1.7390 -2.4845  0.5963
11124TIP3    H254864   1.603   4.216   3.259  0.1156 -1.7104  0.4281
11125TIP3   OH254865   6.706   1.773   2.483 -0.5937 -0.0170 -0.1315
11125TIP3    H154866   6.747   1.688   2.498  1.5541  0.4413 -2.6817
11125TIP3    H254867   6.745   1.830   2.548  2.0330  0.1077 -1.6890
11126TIP3   OH254868   1.142   2.502   3.458  0.0505 -0.0897  0.6963
11126TIP3    H154869   1.142   2.495   3.554  0.3368  2.1767  0.9186
11126TIP3    H254870   1.091   2.580   3.440 -0.4643 -0.7930 -1.0719
11127TIP3   OH254871   3.076   0.708  13.246 -0.3049  0.0250 -0.1700
11127TIP3    H154872   3.161   0.668  13.265  1.8625  3.2760 -2.0228
11127TIP3    H254873   3.046   0.661  13.168  0.2243 -0.5602 -0.0381
11128TIP3   OH254874   4.061   3.378  13.497  0.0169  0.2620 -0.0119
11128TIP3    H154875   4.084   3.466  13.470  1.2275 -0.5977 -2.0088
11128TIP3    H254876   4.132   3.352  13.557 -0.3191  0.6202  0.5444
11129TIP3   OH254877   6.300   0.884   5.288  0.0195 -0.3459 -0.5417
11129TIP3    H154878   6.335   0.859   5.203  1.5426  0.4516 -0.1914
11129TIP3    H254879   6.219   0.930   5.269  0.4833  0.0600 -1.5860
11130TIP3   OH254880   6.354   0.308  14.630  0.3726  0.5388  0.0480
11130TIP3    H154881   6.376   0.275  14.717  0.8977 -2.3346 -1.0733
11130TIP3    H254882   6.258   0.318  14.632  0.2799 -0.3960  0.6564
11131TIP3   OH254883   5.208   5.588   2.458 -0.0704 -0.7111  0.3436
11131TIP3    H154884   5.226   5.585   2.552 -1.7140 -0.8090  0.6840
11131TIP3    H254885   5.135   5.649   2.449 -0.9420 -1.8377 -0.6699
11132TIP3   OH254886   5.194   3.188  15.973 -0.7184 -0.5838 -0.0707
11132TIP3    H154887   5.254   3.138  15.918 -0.0743 -2.2731  2.0179
11132TIP3    H254888   5.245   3.207  16.052 -2.5292 -1.0682  1.2805
11133TIP3   OH254889   5.891   0.928   4.974  0.5579 -0.0663 -0.1854
11133TIP3    H154890   5.862   0.837   4.975 -0.4728  0.2500  0.7413
11133TIP3    H254891   5.985   0.924   4.995  0.2133 -0.8278  1.3396
11134TIP3   OH254892   0.221   0.839  14.524  0.4770 -0.6012 -0.0105
11134TIP3    H154893   0.215   0.867  14.616 -2.0937  0.2429 -0.3643
11134TIP3    H254894   0.244   0.746  14.529  3.4366  0.0904  1.3410
11135TIP3   OH254895   2.057   4.310  11.812 -0.0276  0.5722  1.0394
11135TIP3    H154896   2.067   4.352  11.726 -0.5656  0.5999  0.9880
11135TIP3    H254897   2.144   4.277  11.833  0.1906  0.8983  0.6525
11136TIP3   OH254898   0.798   4.327   4.159  0.2704 -0.3850  0.6296
11136TIP3    H154899   0.740   4.393   4.196 -0.2228 -1.1042  1.1720
11136TIP3    H254900   0.851   4.375   4.096 -1.3696  0.1940 -0.3971
11137TIP3   OH254901   0.432   6.633   2.994  0.4047  0.3154 -0.1770
11137TIP3    H154902   0.339   6.610   2.991  0.1422  1.3659 -1.5059
11137TIP3    H254903   0.477   6.553   2.970 -0.2222  0.0126 -0.3706
11138TIP3   OH254904   0.539   6.226  15.093  0.6164  0.0237 -0.2628
11138TIP3    H154905   0.600   6.159  15.061  0.3978  0.2405 -1.1654
11138TIP3    H254906   0.591   6.281  15.151  0.1290 -2.6847  3.0541
11139TIP3   OH254907   1.080   3.207  10.490  0.7666  0.2255  0.1290
11139TIP3    H154908   1.048   3.150  10.420  1.2341  0.4374 -0.2638
11139TIP3    H254909   1.093   3.149  10.565  0.5937 -0.0617 -0.0627
11140TIP3   OH254910   1.212   5.179  11.475  0.1401  0.1983  0.1166
11140TIP3    H154911   1.203   5.274  11.481  0.0661  0.2295 -0.4992
11140TIP3    H254912   1.145   5.152  11.413 -2.1697 -0.6312  2.7376
11141TIP3   OH254913   3.298   3.666   2.023  0.1337 -0.3736  0.4734
11141TIP3    H154914   3.248   3.736   1.981 -2.4645 -2.0713  0.5242
11141TIP3    H254915   3.385   3.704   2.038 -1.3161  3.0265  1.0993
11142TIP3   OH254916   5.509   5.517  11.931 -0.4840 -0.3724 -0.4806
11142TIP3    H154917   5.481   5.448  11.870  0.9968 -1.4315 -0.0234
11142TIP3    H254918   5.581   5.561  11.886 -1.8747  1.4013 -1.0660
11143TIP3   OH254919   0.676   1.919  13.621  0.0980 -0.7770 -0.1021
11143TIP3    H154920   0.726   1.884  13.548  1.9427  2.0276 -0.3283
11143TIP3    H254921   0.605   1.969  13.580 -0.8143 -1.8097  0.1573
11144TIP3   OH254922   6.605   3.455  13.302 -0.1215 -0.3399  0.2717
11144TIP3    H154923   6.629   3.539  13.262  1.2963 -0.7865  0.1330
11144TIP3    H254924   6.513   3.465  13.325 -0.9247  0.0832 -2.7358
11145TIP3   OH254925   2.462   5.816  14.538 -0.9358  0.3246  0.2242
11145TIP3    H154926   2.408   5.737  14.536 -0.9879  0.2934  1.5890
11145TIP3    H254927   2.401   5.886  14.514 -1.3271  0.1537  0.6946
11146TIP3   OH254928   2.804   3.774  12.464  0.1447  0.3392  0.1830
11146TIP3    H154929   2.712   3.796  12.474  0.2665  1.3400 -0.7932
11146TIP3    H254930   2.842   3.789  12.551 -0.7013 -0.6774  0.7603
11147TIP3   OH254931   5.940   3.482   2.921  0.3498 -0.2989  0.3749
11147TIP3    H154932   5.941   3.578   2.921 -0.5531 -0.2786 -0.2826
11147TIP3    H254933   5.950   3.458   3.013  1.8265  0.3908  0.4342
11148TIP3   OH254934   5.953   4.510  15.546 -0.0864  0.2817 -0.0881
11148TIP3    H154935   5.973   4.429  15.498  0.0950 -1.0124  2.0779
11148TIP3    H254936   5.881   4.549  15.496 -0.1333 -1.1633 -1.2406
11149TIP3   OH254937   2.326   1.601  16.532 -0.2783 -0.3992  0.1278
11149TIP3    H154938   2.346   1.681  16.582 -0.5762 -0.0996 -0.2288
11149TIP3    H254939   2.264   1.629  16.465  0.3537 -0.7245 -0.6223
11150TIP3   OH254940   4.627   5.108  12.644 -0.1069  0.0069 -0.0045
11150TIP3    H154941   4.694   5.046  12.616 -0.1330  0.1000 -0.2828
11150TIP3    H254942   4.659   5.193  12.614 -0.2092  0.0901  0.1196
11151TIP3   OH254943   3.440   4.478  16.726  0.2805  0.1137  0.1723
11151TIP3    H154944   3.479   4.546  16.780  0.4280  0.2469 -0.0957
11151TIP3    H254945   3.493   4.400  16.742  0.3581  0.1680  0.1793
11152TIP3   OH254946   5.305   1.124   0.944 -0.1470  0.3775  0.3062
11152TIP3    H154947   5.234   1.062   0.926  0.4658 -0.8007  1.7380
11152TIP3    H254948   5.278   1.167   1.025 -0.8288  2.4660 -0.9483
11153TIP3   OH254949   3.490   4.543   5.732 -0.8093  0.0748  0.4920
11153TIP3    H154950   3.534   4.543   5.648 -1.9210  0.2430 -0.1117
11153TIP3    H254951   3.428   4.616   5.727 -1.0165 -0.0224  1.3824
11154TIP3   OH254952   2.133   6.422  12.992  0.0741 -0.4314 -0.6354
11154TIP3    H154953   2.191   6.498  12.997 -0.9785  0.5142 -2.0001
11154TIP3    H254954   2.115   6.412  12.898 -1.9780 -0.6522 -0.2617
11155TIP3   OH254955   1.372   6.622  13.615 -1.0478 -0.5067  0.3845
11155TIP3    H154956   1.321   6.546  13.589 -1.8113 -0.1821  0.8848
11155TIP3    H254957   1.328   6.696  13.574 -1.9899 -0.0401  2.1450
11156TIP3   OH254958   4.334   2.866  13.213 -0.1660 -0.2444  0.7181
11156TIP3    H154959   4.274   2.911  13.272 -0.1031 -1.3272  1.6503
11156TIP3    H254960   4.312   2.773  13.223  0.3184 -0.5028 -0.4446
11157TIP3   OH254961   2.502   3.407   4.655 -0.5362  0.1282 -0.0104
11157TIP3    H154962   2.475   3.494   4.681 -1.2835 -0.3341  0.8172
11157TIP3    H254963   2.504   3.357   4.737 -4.3806 -1.7588 -0.8067
11158TIP3   OH254964   6.676   1.511  12.368 -0.5626  0.1809  0.2482
11158TIP3    H154965   6.674   1.416  12.378 -0.2093  0.0536 -0.8248
11158TIP3    H254966   6.759   1.530  12.325 -0.0159  1.1121  1.6140
11159TIP3   OH254967   5.770   6.349   0.714  0.0115  0.1670 -0.0683
11159TIP3    H154968   5.679   6.323   0.700  0.1691  0.1160 -1.0120
11159TIP3    H254969   5.813   6.336   0.630  0.7264  0.8997  0.1651
11160TIP3   OH254970   4.701   4.176  13.157 -0.3241 -0.3341  0.4072
11160TIP3    H154971   4.766   4.189  13.087 -1.2174 -1.0793 -0.6112
11160TIP3    H254972   4.699   4.259  13.204  0.8972 -0.0827  0.0676
11161TIP3   OH254973   2.784   5.207   5.602 -0.2753 -0.0312  0.1088
11161TIP3    H154974   2.804   5.232   5.692 -0.4030 -3.2000  1.1445
11161TIP3    H254975   2.689   5.193   5.601  0.0954 -3.3996  0.5933
11162TIP3   OH254976   5.641   1.857  15.413 -0.3472 -0.4020 -0.9595
11162TIP3    H154977   5.552   1.846  15.446 -1.0631  1.3956 -2.1089
11162TIP3    H254978   5.630   1.885  15.322  1.2993  1.5326 -0.6495
11163TIP3   OH254979   5.114   4.094   6.230  0.4718 -0.1632  1.1588
11163TIP3    H154980   5.206   4.085   6.206  0.2205 -0.9092  0.4290
11163TIP3    H254981   5.095   4.018   6.285  0.2009 -0.2085  1.0047
11164TIP3   OH254982   1.268   5.190  15.915  0.0302  0.8932  0.0969
11164TIP3    H154983   1.199   5.233  15.966 -0.7528  1.7555 -1.6059
11164TIP3    H254984   1.221   5.140  15.849  1.0218 -0.3674  0.3099
11165TIP3   OH254985   2.331   2.371   5.067 -0.5383  0.4060  0.5107
11165TIP3    H154986   2.326   2.333   4.980  1.1633  0.7632  0.2239
11165TIP3    H254987   2.420   2.406   5.073 -0.9393  1.2544  2.0312
11166TIP3   OH254988   3.034   4.645   0.221 -0.0350  0.3161 -0.2800
11166TIP3    H154989   3.039   4.701   0.299 -1.9231  1.5062 -0.9300
11166TIP3    H254990   2.989   4.567   0.250  1.0394 -0.1344  0.2377
11167TIP3   OH254991   4.891   2.549  10.969 -0.0550  0.6586 -0.1840
11167TIP3    H154992   4.889   2.454  10.960  0.2162  0.7045 -0.8004
11167TIP3    H254993   4.805   2.572  11.004  0.1824  0.1107  0.7994
11168TIP3   OH254994   4.369   3.936  15.532 -0.6583  0.5001 -0.1430
11168TIP3    H154995   4.344   3.920  15.441  0.9242 -1.3543 -0.3178
11168TIP3    H254996   4.411   4.022  15.531 -1.8954  1.1100 -0.8867
11169TIP3   OH254997   5.843   2.452  12.118 -0.9351 -0.0601 -0.5741
11169TIP3    H154998   5.852   2.524  12.180 -0.5030 -0.1256 -0.5591
11169TIP3    H254999   5.751   2.426  12.124 -1.1947  0.7633 -0.8869
11170TIP3   OH255000   2.363   1.985   2.051  0.2267 -0.0419  0.0792
11170TIP3    H155001   2.323   2.029   1.976 -2.4623 -1.6799  0.3910
11170TIP3    H255002   2.411   1.911   2.013  3.1408  1.8788 -0.2901
11171TIP3   OH255003   0.705   5.372  11.532  0.3795 -0.8866 -0.7005
11171TIP3    H155004   0.616   5.376  11.497  0.3930 -0.2767 -0.6754
11171TIP3    H255005   0.757   5.425  11.472  0.4285  0.0508  0.1482
11172TIP3   OH255006   3.794   1.038  10.410  0.1644 -0.8816  0.0001
11172TIP3    H155007   3.710   1.070  10.375 -0.0035 -1.2311  0.0777
11172TIP3    H255008   3.860   1.080  10.356  0.0724  1.6678  1.6957
11173TIP3   OH255009   5.492   0.312   0.320  0.4837 -0.4478  0.2972
11173TIP3    H155010   5.452   0.231   0.287 -0.0764 -0.4321  0.9013
11173TIP3    H255011   5.524   0.289   0.407  2.0456 -0.5204 -0.2781
11174TIP3   OH255012   2.359   0.224  12.332 -0.3497 -0.2991 -0.2313
11174TIP3    H155013   2.362   0.282  12.407 -0.2923 -1.0957  0.3980
11174TIP3    H255014   2.337   0.281  12.258 -0.0601  0.5457  0.3246
11175TIP3   OH255015   0.289   3.345   5.942  0.1926  0.1881  0.1571
11175TIP3    H155016   0.267   3.349   6.035  0.8024 -0.7045  0.3592
11175TIP3    H255017   0.256   3.427   5.906 -3.2159 -0.9248  0.4505
11176TIP3   OH255018   1.033   6.666  12.979  0.3734 -0.0442 -0.2798
11176TIP3    H155019   1.127   6.657  12.963  0.4235 -0.3308  0.1467
11176TIP3    H255020   1.003   6.729  12.913  0.4778 -1.4865 -1.7606
11177TIP3   OH255021   5.755   0.844   4.360 -0.1476 -0.1062 -0.1177
11177TIP3    H155022   5.674   0.804   4.393 -0.1516 -0.6384 -0.7448
11177TIP3    H255023   5.732   0.934   4.341 -0.4286 -0.0884  0.2972
11178TIP3   OH255024   4.673   0.731   5.438 -0.4120 -0.3900  0.2997
11178TIP3    H155025   4.604   0.674   5.405 -0.1990 -0.5526  0.1323
11178TIP3    H255026   4.752   0.704   5.389 -0.3564  0.1851  0.0656
11179TIP3   OH255027   3.870   0.494   1.469 -0.0998  0.0251  0.2738
11179TIP3    H155028   3.900   0.429   1.533  1.1581  0.1170 -0.1965
11179TIP3    H255029   3.945   0.551   1.456 -1.4662  2.2006  1.3871
11180TIP3   OH255030   2.718   1.300  15.316  1.0005  0.0767  0.2809
11180TIP3    H155031   2.693   1.219  15.272 -2.5398  0.7734  0.7290
11180TIP3    H255032   2.786   1.274  15.378  0.4280 -2.4204 -0.0317
11181TIP3   OH255033   3.439   0.210   1.616  0.3624 -0.2079  0.4796
11181TIP3    H155034   3.420   0.267   1.542  1.1727 -1.4781 -0.7686
11181TIP3    H255035   3.400   0.254   1.691  0.5819  1.7482 -0.4816
11182TIP3   OH255036   6.084   5.663  12.917  0.2451 -0.2169 -0.2527
11182TIP3    H155037   6.125   5.669  12.831  2.3043 -0.3361  0.6792
11182TIP3    H255038   5.996   5.698  12.903 -0.1131 -1.8327 -2.7860
11183TIP3   OH255039   3.074   4.000   5.749  0.5600  0.0513 -0.2864
11183TIP3    H155040   3.146   4.032   5.694  0.7044  1.5140  0.6953
11183TIP3    H255041   3.001   4.058   5.729  0.5383  0.4405  0.8399
11184TIP3   OH255042   2.912   1.100   6.477 -0.0291  0.0799 -0.6479
11184TIP3    H155043   2.853   1.170   6.449  0.8855  0.1849 -2.4696
11184TIP3    H255044   2.989   1.109   6.420  1.6050 -0.2986  1.3510
11185TIP3   OH255045   0.571   1.813   5.879  0.0677  0.0733  0.1545
11185TIP3    H155046   0.571   1.719   5.864 -0.4466  0.0698  0.1800
11185TIP3    H255047   0.662   1.839   5.862 -0.2502 -0.0817 -2.0268
11186TIP3   OH255048   3.448   1.479   5.562 -0.1599 -0.1549 -0.0006
11186TIP3    H155049   3.495   1.562   5.564 -0.3977  0.1479 -2.7292
11186TIP3    H255050   3.355   1.503   5.572 -0.0682 -0.3839  1.6580
11187TIP3   OH255051   4.016   1.270   1.787  0.1432  0.1967  0.1580
11187TIP3    H155052   3.993   1.281   1.879 -0.4791  0.4132 -0.0185
11187TIP3    H255053   4.071   1.191   1.785 -0.3878 -0.1922  0.6246
11188TIP3   OH255054   2.145   5.871  16.451  0.0287 -0.3467  0.0003
11188TIP3    H155055   2.097   5.953  16.443 -0.1880 -0.4701  0.0437
11188TIP3    H255056   2.219   5.892  16.509  0.1796 -0.0914 -0.2779
11189TIP3   OH255057   0.924   5.930  13.882 -0.1601  0.0429 -0.5330
11189TIP3    H155058   0.918   5.895  13.793  0.1284  0.1287 -0.5864
11189TIP3    H255059   0.868   5.872  13.934 -1.5464  0.8807 -1.0313
11190TIP3   OH255060   4.072   3.110  16.802 -0.0763 -0.2896 -0.4186
11190TIP3    H155061   3.999   3.059  16.837 -1.2764  0.1420 -2.1902
11190TIP3    H255062   4.113   3.052  16.738  0.2083  0.0200 -0.5186
11191TIP3   OH255063   3.829   4.419   4.082  0.2048 -0.3034  0.1345
11191TIP3    H155064   3.889   4.345   4.073  1.4810  0.8394 -1.2042
11191TIP3    H255065   3.874   4.480   4.141  0.7569  0.8710 -1.4270
11192TIP3   OH255066   0.804   6.707   2.832 -0.0517  0.2141  0.2065
11192TIP3    H155067   0.717   6.736   2.858 -1.0291 -1.5377 -0.8304
11192TIP3    H255068   0.861   6.782   2.847 -2.0968  2.1308 -1.0033
11193TIP3   OH255069   0.292   3.047   0.562  0.0792 -0.2889  0.2324
11193TIP3    H155070   0.370   3.027   0.615  0.9334  1.1028 -0.4421
11193TIP3    H255071   0.323   3.108   0.496 -1.2861 -0.8642 -1.0016
11194TIP3   OH255072   0.809   2.101  16.873  0.0207  0.4023  0.0216
11194TIP3    H155073   0.847   2.013  16.870 -1.4393 -0.4631  2.8796
11194TIP3    H255074   0.716   2.088  16.852 -0.4457  1.0076  1.5295
11195TIP3   OH255075   4.506   2.566   1.454  0.5217  0.1367 -0.4440
11195TIP3    H155076   4.497   2.557   1.359  0.5416  0.2895 -0.4599
11195TIP3    H255077   4.490   2.478   1.487  0.8131  0.0166 -0.6116
11196TIP3   OH255078   5.861   3.672   6.323  0.0669 -0.0514  0.4626
11196TIP3    H155079   5.908   3.592   6.298 -1.8288 -0.7091 -1.2368
11196TIP3    H255080   5.787   3.676   6.263 -0.2104  2.7179  0.8783
11197TIP3   OH255081   5.867   0.517  16.792  0.3280  0.4300 -0.2795
11197TIP3    H155082   5.803   0.479  16.852  0.7808  0.8796  0.5204
11197TIP3    H255083   5.815   0.572  16.733 -0.0529  0.5968  0.2019
11198TIP3   OH255084   4.079   4.500  15.984  0.0996  0.0249 -0.3768
11198TIP3    H155085   4.036   4.558  16.046  0.6298 -1.3010  1.3044
11198TIP3    H255086   4.009   4.468  15.927 -0.5111  0.7077 -0.0190
11199TIP3   OH255087   5.347   2.731  16.050 -0.6244  0.3805  0.1704
11199TIP3    H155088   5.271   2.748  15.993 -1.0181 -0.3215  0.4794
11199TIP3    H255089   5.410   2.800  16.026 -1.7559  1.6235  0.6269
11200TIP3   OH255090   2.750   4.276  15.458 -0.7152 -0.2680 -0.0321
11200TIP3    H155091   2.781   4.315  15.377 -1.0379  1.2363  0.5316
11200TIP3    H255092   2.828   4.235  15.496 -0.2005  0.4075 -0.3341
11201TIP3   OH255093   3.670   2.491   0.577  0.1025  0.3643 -0.2823
11201TIP3    H155094   3.741   2.456   0.524 -0.1304 -0.5816  0.0209
11201TIP3    H255095   3.704   2.490   0.667  0.2310  1.2870 -0.3018
11202TIP3   OH255096   3.291   4.575   4.986 -0.1014 -0.1459  0.6925
11202TIP3    H155097   3.344   4.614   4.916 -0.3291 -0.5048  0.3175
11202TIP3    H255098   3.279   4.646   5.049  1.0879 -0.1420  0.9360
11203TIP3   OH255099   1.861   3.348  15.831  0.0553  0.4110  0.1654
11203TIP3    H155100   1.954   3.359  15.848  0.1882  0.6248 -0.6639
11203TIP3    H255101   1.843   3.405  15.756 -0.9041  0.9759  0.7938
11204TIP3   OH255102   0.805   2.311  12.921  0.7563 -0.5254  0.3348
11204TIP3    H155103   0.848   2.290  12.839  2.3203  1.0986  0.6861
11204TIP3    H255104   0.852   2.387  12.955  0.2108 -1.1817  2.7849
11205TIP3   OH255105   1.703   6.732   0.145  0.5721  0.0963 -0.3103
11205TIP3    H155106   1.682   6.655   0.197 -1.3473 -0.4076 -1.7399
11205TIP3    H255107   1.797   6.745   0.159  0.3748 -0.7402  2.2294
11206TIP3   OH255108   3.643   1.875  11.557 -0.1693 -0.5607 -0.5283
11206TIP3    H155109   3.718   1.852  11.501 -0.1187 -0.3068 -0.5674
11206TIP3    H255110   3.651   1.969  11.568  0.5253 -0.7690  0.9147
11207TIP3   OH255111   6.081   6.774  11.130 -0.1078 -1.1128 -0.0021
11207TIP3    H155112   6.073   6.866  11.154 -0.6864 -0.5746 -2.0772
11207TIP3    H255113   6.013   6.730  11.180  0.0721 -0.4119  0.8922
11208TIP3   OH255114   3.419   0.883   5.859 -0.0155  0.9749  0.4458
11208TIP3    H155115   3.414   0.793   5.890 -0.6017  0.4976 -0.9766
11208TIP3    H255116   3.452   0.876   5.770  0.4009  2.2142  0.4867
11209TIP3   OH255117   5.010   1.722  14.106  0.2007 -0.1104 -0.0427
11209TIP3    H155118   4.988   1.815  14.098 -1.2069 -0.1116  2.5216
11209TIP3    H255119   4.930   1.681  14.139  1.8668 -1.5283  2.5992
11210TIP3   OH255120   6.814   3.370   1.627 -0.0193  0.5276 -0.3831
11210TIP3    H155121   6.813   3.295   1.568  0.1933  1.6776 -1.9285
11210TIP3    H255122   6.772   3.339   1.707 -0.3631 -1.0802 -1.1520
11211TIP3   OH255123   5.405   1.180  16.667  0.4827 -0.1869  0.5451
11211TIP3    H155124   5.326   1.232  16.671  0.7170  0.2504 -0.3039
11211TIP3    H255125   5.441   1.183  16.756 -0.0422  0.2392  0.7436
11212TIP3   OH255126   5.439   0.845   5.306  0.0949  0.0878  0.0077
11212TIP3    H155127   5.478   0.867   5.391 -1.3351 -1.5592  1.1655
11212TIP3    H255128   5.349   0.878   5.312  0.6103  1.9081 -1.7596
11213TIP3   OH255129   4.215   6.205   2.892 -0.2919  0.1038 -0.1792
11213TIP3    H155130   4.242   6.173   2.978 -1.5916  0.4161  0.3783
11213TIP3    H255131   4.216   6.300   2.901  1.2701  0.2088 -1.0897
11214TIP3   OH255132   3.361   1.291  15.064  0.8837 -0.0531 -0.7456
11214TIP3    H155133   3.401   1.222  15.116  0.3874 -1.4112 -2.0699
11214TIP3    H255134   3.357   1.255  14.975  1.1378  1.9237 -1.6196
11215TIP3   OH255135   3.613   6.378   1.754  0.0002 -0.4250  0.0379
11215TIP3    H155136   3.598   6.284   1.754  0.9768 -0.6056  0.9050
11215TIP3    H255137   3.554   6.412   1.821  0.0147 -0.4950  0.0861
11216TIP3   OH255138   0.383   3.814  13.289  0.3934  0.1655  0.3068
11216TIP3    H155139   0.474   3.826  13.263  0.6854 -1.6266  0.3752
11216TIP3    H255140   0.332   3.849  13.215  1.1573  0.0433 -0.2912
11217TIP3   OH255141   5.552   4.979  16.997  0.6126  0.4509 -0.2387
11217TIP3    H155142   5.623   5.016  17.049 -0.8261  1.8772  0.8082
11217TIP3    H255143   5.542   5.039  16.924 -0.1271  0.7778  0.1278
11218TIP3   OH255144   2.149   5.262  12.408 -0.1489 -0.4765 -0.9505
11218TIP3    H155145   2.056   5.257  12.386 -0.3808 -0.5086 -0.0291
11218TIP3    H255146   2.161   5.196  12.477  0.3524  0.1751 -0.3998
11219TIP3   OH255147   4.315   5.798  12.915  0.0691  0.2599  0.1518
11219TIP3    H155148   4.337   5.831  12.828  1.1037  0.0664  0.3325
11219TIP3    H255149   4.272   5.714  12.898  0.1913  0.2630 -0.1832
11220TIP3   OH255150   1.397   3.870   4.268 -0.0551  0.4526  0.3150
11220TIP3    H155151   1.410   3.942   4.206  0.5463 -0.6133 -0.8625
11220TIP3    H255152   1.370   3.912   4.349 -0.2074  1.9585 -0.4805
11221TIP3   OH255153   3.654   2.519   3.037 -0.0825  0.2351 -0.0064
11221TIP3    H155154   3.627   2.498   2.948  1.3490  1.1963 -0.6946
11221TIP3    H255155   3.737   2.473   3.049 -0.4595 -0.2151  0.9861
11222TIP3   OH255156   2.927   3.764  16.296  0.4837 -0.0110 -0.3209
11222TIP3    H155157   2.847   3.744  16.345  1.9206 -0.2469  2.1375
11222TIP3    H255158   2.992   3.705  16.333  1.9173  0.5461 -1.8752
11223TIP3   OH255159   3.716   2.490  13.634 -0.3112  0.2525  1.1797
11223TIP3    H155160   3.757   2.570  13.667 -0.2643  0.5974  0.3197
11223TIP3    H255161   3.789   2.432  13.615 -0.0494  1.2297 -1.3060
11224TIP3   OH255162   3.897   4.003  14.995 -0.4688 -0.5851  0.2543
11224TIP3    H155163   3.820   4.030  14.944  0.0582  1.0633  0.2765
11224TIP3    H255164   3.963   3.983  14.929 -0.0958  0.5981  0.2484
11225TIP3   OH255165   6.145   0.508  16.719  0.7228  0.3836 -0.4507
11225TIP3    H155166   6.055   0.508  16.751  1.1344 -0.3659  0.7557
11225TIP3    H255167   6.137   0.522  16.624 -0.6434  0.4777 -0.3358
11226TIP3   OH255168   6.360   2.967   1.910  0.0905 -0.3125 -0.9197
11226TIP3    H155169   6.309   3.016   1.846  0.6246  0.0603 -1.0592
11226TIP3    H255170   6.382   2.885   1.866  0.0613 -0.2518 -1.0468
11227TIP3   OH255171   1.125   2.232  13.438  1.0271  0.0775  0.1954
11227TIP3    H155172   1.038   2.272  13.435  0.7976 -0.3213  1.3123
11227TIP3    H255173   1.111   2.148  13.482  1.8424 -0.3655 -0.3628
11228TIP3   OH255174   5.999   3.620  15.673  0.1051  0.8748 -0.3164
11228TIP3    H155175   5.984   3.674  15.595 -1.7271  2.4790  1.0707
11228TIP3    H255176   5.981   3.678  15.747 -1.8479 -1.5294  1.2788
11229TIP3   OH255177   1.402   1.524   2.670  0.2240 -0.0558  0.1417
11229TIP3    H155178   1.323   1.512   2.616 -0.8490 -3.1392  2.1354
11229TIP3    H255179   1.384   1.604   2.721 -0.0243  1.2082 -1.8178
11230TIP3   OH255180   0.447   6.472   4.094  0.0439 -0.7215  0.0331
11230TIP3    H155181   0.487   6.545   4.047 -0.2710  1.2873  2.6490
11230TIP3    H255182   0.518   6.438   4.149 -0.8969  0.7649  2.2987
11231TIP3   OH255183   1.001   0.549   5.115 -0.3878  0.3910 -0.3813
11231TIP3    H155184   1.023   0.640   5.134 -1.8525  0.7879 -0.5321
11231TIP3    H255185   1.082   0.512   5.080  1.7765  0.3426  3.9337
11232TIP3   OH255186   2.312   2.024  15.822 -0.6719 -0.2646  0.0841
11232TIP3    H155187   2.302   2.012  15.728 -0.7229 -2.7371  0.3397
11232TIP3    H255188   2.397   1.984  15.842 -0.3803  0.7684  1.0168
11233TIP3   OH255189   2.189   0.824   1.276 -0.4773 -0.1334  0.3590
11233TIP3    H155190   2.250   0.800   1.345 -0.9076 -0.9779  0.4551
11233TIP3    H255191   2.236   0.809   1.195 -0.6949 -1.1948  0.4220
11234TIP3   OH255192   1.172   4.986  14.382 -0.3768  0.2308  0.0293
11234TIP3    H155193   1.141   4.927  14.451  0.9874 -0.1297  0.3513
11234TIP3    H255194   1.264   5.002  14.402 -0.1194  0.6538 -1.3363
11235TIP3   OH255195   2.730   3.680   2.569  0.0711 -0.2100  0.3861
11235TIP3    H155196   2.686   3.597   2.592 -0.9589  0.0977 -0.4242
11235TIP3    H255197   2.815   3.653   2.535 -0.0052 -0.8944  0.7047
11236TIP3   OH255198   4.332   4.279   4.083 -0.1517  0.0384 -0.2216
11236TIP3    H155199   4.378   4.340   4.140  0.3222  0.8457 -1.4177
11236TIP3    H255200   4.342   4.317   3.995 -2.1168 -0.3652 -0.6705
11237TIP3   OH255201   0.210   6.727  10.956 -0.1713 -0.5679 -0.2425
11237TIP3    H155202   0.168   6.711  10.872 -0.0374 -1.8176 -0.0883
11237TIP3    H255203   0.151   6.688  11.021  0.1232 -0.3337  0.1710
11238TIP3   OH255204   5.568   2.725  11.905 -0.2843  0.0047  0.0540
11238TIP3    H155205   5.540   2.808  11.867  1.5968 -0.0083 -1.5685
11238TIP3    H255206   5.653   2.708  11.863  0.0536 -2.0099  1.4415
11239TIP3   OH255207   3.239   6.032  16.093 -0.5066  0.1602  0.1050
11239TIP3    H155208   3.231   6.111  16.039 -0.5652 -0.0536 -0.2003
11239TIP3    H255209   3.209   5.961  16.036  0.1762 -0.1748  0.1498
11240TIP3   OH255210   1.379   1.363  15.174  0.0800 -0.1724 -0.1155
11240TIP3    H155211   1.338   1.355  15.261  0.0687 -1.0554 -0.1958
11240TIP3    H255212   1.428   1.282  15.163 -0.9630 -0.6592 -1.4830
11241TIP3   OH255213   4.903   0.719  12.927 -0.1314 -0.1063  0.0333
11241TIP3    H155214   4.923   0.787  12.992  0.8305 -0.3854  0.0437
11241TIP3    H255215   4.989   0.682  12.904 -0.4108  0.2017 -1.6273
11242TIP3   OH255216   2.419   0.877   3.481 -0.0952 -0.3428  0.0383
11242TIP3    H155217   2.441   0.786   3.496  1.8871  0.1215  0.1685
11242TIP3    H255218   2.492   0.911   3.429 -1.1886  0.9780 -0.7116
11243TIP3   OH255219   5.546   6.816  11.332 -0.3745  0.3425  0.0708
11243TIP3    H155220   5.522   6.807  11.240  2.5110 -0.4334 -0.7419
11243TIP3    H255221   5.526   6.730  11.370  0.4122 -0.0897 -0.4389
11244TIP3   OH255222   0.080   6.350  11.750  0.0356 -0.0399  0.2280
11244TIP3    H155223   0.071   6.310  11.664 -1.2068 -2.8007  1.5107
11244TIP3    H255224   0.032   6.433  11.744 -4.2804 -2.3092 -0.5729
11245TIP3   OH255225   2.770   0.948   1.805 -0.3849  0.3376  0.1845
11245TIP3    H155226   2.729   0.884   1.747 -0.3979  0.2943  0.2402
11245TIP3    H255227   2.864   0.942   1.785 -0.0010 -1.7450  2.1214
11246TIP3   OH255228   3.533   5.181  14.632 -0.1503  0.8943  0.0176
11246TIP3    H155229   3.613   5.196  14.581  0.5143 -0.1402  0.7086
11246TIP3    H255230   3.515   5.264  14.675  1.5940  0.6826  1.2631
11247TIP3   OH255231   5.682   5.521  15.457  0.2012  0.2486 -0.1308
11247TIP3    H155232   5.656   5.613  15.448 -2.6202 -0.2054  1.8745
11247TIP3    H255233   5.676   5.486  15.368 -0.2510  1.6504 -0.6895
11248TIP3   OH255234   4.125   4.010   5.110  0.0395 -0.1543 -0.2992
11248TIP3    H155235   4.035   4.028   5.083 -0.1609 -0.2744  0.2770
11248TIP3    H255236   4.168   4.095   5.112 -0.9534  0.3651  2.6264
11249TIP3   OH255237   5.879   4.360   0.883  0.0718 -0.0726 -0.2731
11249TIP3    H155238   5.947   4.375   0.948 -0.8109  0.7524  0.4959
11249TIP3    H255239   5.821   4.436   0.890 -1.0558 -0.8429 -0.7408
11250TIP3   OH255240   0.559   4.087   2.373 -0.3834 -0.4437  0.3005
11250TIP3    H155241   0.482   4.062   2.323 -0.5034  0.7954 -0.1557
11250TIP3    H255242   0.531   4.084   2.464 -1.7176  2.2394  0.0724
11251TIP3   OH255243   5.407   2.970   2.107 -0.2578  0.4802  0.1261
11251TIP3    H155244   5.332   2.912   2.095  0.1778  0.0964 -0.9039
11251TIP3    H255245   5.380   3.031   2.175 -2.2861  1.6355 -1.5965
11252TIP3   OH255246   1.992   0.886  12.793  0.2865 -0.3314  0.1011
11252TIP3    H155247   2.033   0.964  12.830 -0.1565  0.0597 -0.2197
11252TIP3    H255248   2.065   0.827  12.776  0.7921  0.5538 -0.9490
11253TIP3   OH255249   1.121   2.782   2.299  0.3071 -0.2799 -0.0341
11253TIP3    H155250   1.208   2.800   2.263  0.0250  0.4628 -0.3678
11253TIP3    H255251   1.130   2.697   2.342  0.7622 -1.0090 -1.4950
11254TIP3   OH255252   0.321   6.561   0.299 -0.3800  0.0136 -0.5880
11254TIP3    H155253   0.414   6.553   0.280 -0.5969 -0.0477 -1.6654
11254TIP3    H255254   0.314   6.543   0.393  0.5895 -0.7927 -0.6551
11255TIP3   OH255255   4.576   2.981  16.798  0.2404 -0.4053 -0.1419
11255TIP3    H155256   4.642   2.916  16.772  0.7113  0.3843 -0.9832
11255TIP3    H255257   4.500   2.960  16.744 -0.0957 -1.0958  0.5748
11256TIP3   OH255258   0.804   0.728   3.097 -0.2921  0.5536  0.2526
11256TIP3    H155259   0.787   0.806   3.150  1.2827  1.1258 -0.0410
11256TIP3    H255260   0.814   0.657   3.161 -2.9801  0.2585  0.4782
11257TIP3   OH255261   0.242   5.775  17.045 -0.6012  0.0563 -0.4112
11257TIP3    H155262   0.301   5.842  17.079 -0.5786 -1.1725  2.2337
11257TIP3    H255263   0.162   5.822  17.023 -0.5357  1.0180  1.2372
11258TIP3   OH255264   2.138   3.443  15.780  0.0865  0.1952  0.3007
11258TIP3    H155265   2.178   3.366  15.740 -1.7664 -1.1947  0.9911
11258TIP3    H255266   2.141   3.510  15.712  0.7492 -0.8079 -0.6876
11259TIP3   OH255267   6.034   0.002   5.331 -0.2027  0.9820  0.2701
11259TIP3    H155268   5.964  -0.058   5.307  0.5771  0.3409 -0.4970
11259TIP3    H255269   6.026   0.075   5.269  0.5450  0.3102 -0.6568
11260TIP3   OH255270   3.391   6.564   1.091 -0.0911  0.1182  0.0462
11260TIP3    H155271   3.450   6.591   1.020 -0.4417  0.3198 -0.1713
11260TIP3    H255272   3.346   6.644   1.116 -0.4380 -0.0786  0.0570
11261TIP3   OH255273   3.307   2.022   2.050  0.4658 -0.4487  0.2052
11261TIP3    H155274   3.337   2.034   2.140  3.0493 -0.1446 -0.6264
11261TIP3    H255275   3.327   1.931   2.030  0.8294 -0.2477 -0.3714
11262TIP3   OH255276   2.842   3.439  14.579 -0.4619  0.4080  0.8086
11262TIP3    H155277   2.825   3.486  14.497  1.0794 -0.7589 -0.2395
11262TIP3    H255278   2.836   3.347  14.554  0.9619  0.0293  1.8011
11263TIP3   OH255279   5.367   2.077   5.486 -0.1579  0.4775 -0.1712
11263TIP3    H155280   5.420   2.093   5.564 -1.2466  0.9220  0.5117
11263TIP3    H255281   5.314   2.156   5.478 -0.3874  0.2327 -1.0961
11264TIP3   OH255282   5.575   5.391  15.240 -0.4409  0.2655  0.2123
11264TIP3    H155283   5.493   5.354  15.208  1.0820 -2.0715 -1.2772
11264TIP3    H255284   5.605   5.447  15.168 -0.7559  1.2354  0.8155
11265TIP3   OH255285   3.129   0.080  12.993  0.4748  0.3740  0.3404
11265TIP3    H155286   3.046   0.057  12.950  0.6832 -1.4082  0.8084
11265TIP3    H255287   3.187   0.006  12.974  1.4056  0.7809  1.4848
11266TIP3   OH255288   4.215   1.185   0.585  0.3267  0.4582 -0.1149
11266TIP3    H155289   4.184   1.177   0.495  0.5249  2.3027 -0.3801
11266TIP3    H255290   4.165   1.119   0.634 -0.1729 -0.1902 -1.4540
11267TIP3   OH255291   0.130   5.075   0.420  0.3104  0.3314 -0.5839
11267TIP3    H155292   0.132   5.098   0.327  1.5498  0.4649 -0.5311
11267TIP3    H255293   0.142   4.980   0.422  0.0846  0.3013 -0.5592
11268TIP3   OH255294   4.489   2.233   4.177 -0.5257  0.0083  0.2726
11268TIP3    H155295   4.480   2.141   4.152  0.6042  0.0379 -0.3099
11268TIP3    H255296   4.547   2.270   4.111  1.8572  0.3171  2.3835
11269TIP3   OH255297   6.408   2.809   2.942 -0.0325 -0.0045 -0.0450
11269TIP3    H155298   6.482   2.752   2.962 -0.4117 -0.0776  1.2563
11269TIP3    H255299   6.331   2.757   2.965 -0.4320  0.6259  0.0678
11270TIP3   OH255300   1.684   1.813   1.262 -0.2505 -0.5533  0.7921
11270TIP3    H155301   1.733   1.895   1.255  1.0405 -1.1920  1.9195
11270TIP3    H255302   1.707   1.765   1.183 -1.1414  0.1952  0.0415
11271TIP3   OH255303   3.753   1.634   2.352  0.2964 -0.5276  0.1170
11271TIP3    H155304   3.756   1.589   2.268 -1.4137  2.1529 -1.5263
11271TIP3    H255305   3.812   1.708   2.342  1.0803 -0.8660  1.8093
11272TIP3   OH255306   6.487   4.218   2.053 -0.1476 -0.5465  0.2297
11272TIP3    H155307   6.538   4.143   2.084 -0.4024 -0.5381  0.6778
11272TIP3    H255308   6.413   4.223   2.113 -0.2896 -0.1163  0.0217
11273TIP3   OH255309   5.486   1.435   1.260  0.3291  0.6061  0.2159
11273TIP3    H155310   5.559   1.392   1.304  0.1027  0.7135  0.7056
11273TIP3    H255311   5.452   1.497   1.325  0.5991  1.4699 -0.4483
11274TIP3   OH255312   0.217   6.250   0.793  0.0130  0.0500  0.8134
11274TIP3    H155313   0.242   6.319   0.855  0.5665 -0.7812  1.5409
11274TIP3    H255314   0.300   6.208   0.771 -0.2644 -0.0767  0.0002
11275TIP3   OH255315   3.940   3.753   3.103  0.2159  0.1427  0.7109
11275TIP3    H155316   3.976   3.755   3.192  0.9399  2.0965  0.4156
11275TIP3    H255317   3.846   3.742   3.116  0.4376 -0.8230  1.6600
11276TIP3   OH255318   0.472   4.945   2.344 -0.7008  0.3501  0.7327
11276TIP3    H155319   0.535   4.873   2.340  2.6034  3.0698 -1.5672
11276TIP3    H255320   0.474   4.974   2.436  0.6781 -0.1872  0.8883
11277TIP3   OH255321   3.222   3.959  12.153  0.7065  0.6383  0.2473
11277TIP3    H155322   3.226   3.986  12.062  1.4198 -0.0216  0.0644
11277TIP3    H255323   3.129   3.961  12.175  0.5570  1.0913 -0.4028
11278TIP3   OH255324   2.858   3.251   3.226 -0.3787 -0.1003  0.5503
11278TIP3    H155325   2.943   3.293   3.234 -0.1194 -0.3340 -0.7849
11278TIP3    H255326   2.823   3.250   3.315  1.1551 -0.2931  1.1794
11279TIP3   OH255327   2.832   5.557   0.145  0.1622  0.1671 -0.4462
11279TIP3    H155328   2.737   5.545   0.151  0.1206  0.3888 -0.6706
11279TIP3    H255329   2.848   5.640   0.189  0.6384 -1.3698  2.6080
11280TIP3   OH255330   6.338   2.029   2.912 -0.3849 -0.1117  0.0661
11280TIP3    H155331   6.360   2.096   2.847 -1.5675  0.2786  0.0373
11280TIP3    H255332   6.329   1.949   2.861 -0.6457  0.0597 -0.1633
11281TIP3   OH255333   5.140   6.790   0.844  0.1218  0.0065 -0.0524
11281TIP3    H155334   5.116   6.779   0.752  2.0535  1.0105 -0.7355
11281TIP3    H255335   5.156   6.884   0.853  1.6641 -0.3024  0.8387
11282TIP3   OH255336   1.506   0.652   6.898  0.1823  0.1213 -0.2038
11282TIP3    H155337   1.418   0.687   6.882  1.0101  2.9342  0.6527
11282TIP3    H255338   1.564   0.721   6.867  2.0253 -0.4913  1.6491
11283TIP3   OH255339   5.914   4.809  12.223  0.1634 -0.1237 -0.4699
11283TIP3    H155340   5.923   4.742  12.155 -0.3439  0.0389 -0.6999
11283TIP3    H255341   5.876   4.762  12.298 -2.8448  0.4179 -1.5288
11284TIP3   OH255342   4.667   0.218  15.048  0.1010 -0.0274  0.4691
11284TIP3    H155343   4.725   0.291  15.031 -1.0841  0.9850  0.6521
11284TIP3    H255344   4.691   0.152  14.983  2.5514 -0.3227  1.5765
11285TIP3   OH255345   0.530   4.310  11.174 -0.0185 -0.2927 -0.2799
11285TIP3    H155346   0.564   4.368  11.106  0.3296  1.9962  1.7389
11285TIP3    H255347   0.587   4.324  11.249 -1.5231 -1.3010  1.1379
11286TIP3   OH255348   4.671   4.398  16.686 -0.0522  0.4093 -0.0344
11286TIP3    H155349   4.766   4.390  16.697  0.1500  1.7946 -0.5785
11286TIP3    H255350   4.645   4.317  16.643  0.9691  0.2360 -0.3435
11287TIP3   OH255351   1.759   5.848  11.583 -0.0205 -0.1634 -0.5668
11287TIP3    H155352   1.780   5.769  11.532  2.0586  0.2661 -0.4545
11287TIP3    H255353   1.681   5.883  11.542  1.2863 -0.1190 -3.1845
11288TIP3   OH255354   5.791   5.209  15.340 -0.6934  0.1725 -0.2332
11288TIP3    H155355   5.791   5.129  15.288 -3.1228 -0.1280  0.0785
11288TIP3    H255356   5.708   5.252  15.318  0.6734  2.8411 -0.6689
11289TIP3   OH255357   0.766   1.898   0.590 -0.7964 -0.5267  0.1072
11289TIP3    H155358   0.816   1.914   0.670 -2.2349 -0.0333  0.9403
11289TIP3    H255359   0.677   1.881   0.619 -1.4236 -0.0561 -1.3998
11290TIP3   OH255360   3.420   5.078   5.782 -0.4364 -0.5960  0.1584
11290TIP3    H155361   3.400   5.156   5.834  0.4011  0.4057 -0.9566
11290TIP3    H255362   3.420   5.110   5.692  1.1939 -1.6121 -0.2272
11291TIP3   OH255363   1.682   3.956   2.010 -0.3686  0.0807 -0.4285
11291TIP3    H155364   1.601   3.956   1.959 -0.4916  0.2718 -0.2382
11291TIP3    H255365   1.722   4.041   1.992  0.2047 -0.3330 -1.1599
11292TIP3   OH255366   4.248   5.148   4.896  0.1943  0.0278  0.4859
11292TIP3    H155367   4.189   5.224   4.889  2.3144  1.6979 -0.4915
11292TIP3    H255368   4.191   5.076   4.922 -2.2656  1.5354 -0.3388
11293TIP3   OH255369   0.771   5.325   0.446  0.9625 -0.4573  0.1119
11293TIP3    H155370   0.844   5.279   0.404 -0.0766 -0.0940 -2.2261
11293TIP3    H255371   0.807   5.410   0.470  1.5841 -0.6738 -0.0279
11294TIP3   OH255372   6.451   2.640  13.567  0.6424 -0.0191  0.7481
11294TIP3    H155373   6.544   2.617  13.571  0.8673  0.9824  1.8599
11294TIP3    H255374   6.430   2.671  13.655 -0.4982  0.6982  0.2454
11295TIP3   OH255375   6.597   0.031  14.078 -1.1412  0.1391 -0.3329
11295TIP3    H155376   6.680   0.005  14.038 -1.0071  0.9081 -0.5757
11295TIP3    H255377   6.616   0.036  14.172 -0.9448  0.2022 -0.3749
11296TIP3   OH255378   1.518   5.742   0.472 -0.1693  0.2143  0.3737
11296TIP3    H155379   1.537   5.746   0.566 -0.9303  0.5617  0.5238
11296TIP3    H255380   1.590   5.791   0.431 -0.4773  1.1372  0.8897
11297TIP3   OH255381   2.589   1.043   5.890 -0.7015 -0.1301  0.0851
11297TIP3    H155382   2.560   1.125   5.851 -0.1719  1.2505  2.4454
11297TIP3    H255383   2.667   1.018   5.841  0.3404  1.8979  0.6382
11298TIP3   OH255384   2.141   1.860   4.321  0.5812  0.4262 -0.1008
11298TIP3    H155385   2.157   1.772   4.355  0.7480  0.3028 -0.5022
11298TIP3    H255386   2.224   1.885   4.279  0.0107  0.1228 -1.4477
11299TIP3   OH255387   6.560   0.871   3.775  0.4018  0.0430 -0.4664
11299TIP3    H155388   6.484   0.928   3.762  0.4173 -0.1889 -1.6253
11299TIP3    H255389   6.564   0.817   3.696  0.5948 -1.3485  0.4601
11300TIP3   OH255390   5.616   1.234  11.309  0.2394  0.1595  0.0718
11300TIP3    H155391   5.670   1.283  11.371  0.7068 -1.0396  0.6503
11300TIP3    H255392   5.619   1.143  11.341 -1.9152  0.0086 -0.0397
11301TIP3   OH255393   3.154   4.673   2.426 -0.0528 -0.6244 -0.6312
11301TIP3    H155394   3.144   4.752   2.372 -0.8622 -0.3222 -0.0564
11301TIP3    H255395   3.066   4.655   2.459  0.2358 -1.4293 -0.2737
11302TIP3   OH255396   2.341   5.243  12.013 -0.1978 -0.3153  0.6626
11302TIP3    H155397   2.324   5.174  12.078  0.9568 -1.9478 -0.6742
11302TIP3    H255398   2.259   5.248  11.963  0.3997 -2.4499 -0.6842
11303TIP3   OH255399   4.960   1.880  12.672 -0.0791  0.1818  0.6523
11303TIP3    H155400   4.905   1.938  12.725  0.0281 -1.0110  2.1477
11303TIP3    H255401   4.944   1.793  12.708  0.3737 -0.6215 -1.0113
11304TIP3   OH255402   3.361   1.813  15.135 -0.0139  0.2155  0.7539
11304TIP3    H155403   3.280   1.825  15.185 -0.0129  0.7020  0.6341
11304TIP3    H255404   3.429   1.804  15.202 -0.2194 -0.6602  0.8682
11305TIP3   OH255405   2.266   5.581  13.490 -0.2843 -0.4518 -0.5042
11305TIP3    H155406   2.250   5.676  13.497 -0.8543 -0.6003  0.4288
11305TIP3    H255407   2.361   5.573  13.487 -0.2175  0.1398 -0.2702
11306TIP3   OH255408   3.872   4.821   1.611 -0.0688 -0.2086 -0.1028
11306TIP3    H155409   3.869   4.892   1.675 -1.3671  0.2470 -0.6496
11306TIP3    H255410   3.904   4.746   1.662  1.4514  0.7473  0.4524
11307TIP3   OH255411   0.650   3.138  15.998 -0.6802 -0.1938  0.1748
11307TIP3    H155412   0.582   3.107  15.938  0.3700 -1.3477 -0.4671
11307TIP3    H255413   0.651   3.074  16.069 -1.0350  0.4631  0.7899
11308TIP3   OH255414   0.374   4.918   0.868  0.2932  0.3149 -0.6085
11308TIP3    H155415   0.321   4.972   0.809 -0.7273 -0.7323 -0.7013
11308TIP3    H255416   0.328   4.923   0.952  0.1124 -0.4716 -0.6488
11309TIP3   OH255417   5.556   2.662  15.205  0.7267 -0.0379  0.0260
11309TIP3    H155418   5.597   2.661  15.119  0.0876 -0.4188 -0.2735
11309TIP3    H255419   5.622   2.624  15.264  0.7219 -0.8629 -0.4895
11310TIP3   OH255420   1.348   5.144  16.485  0.0459 -0.5682 -0.3958
11310TIP3    H155421   1.369   5.075  16.548  0.2435 -1.1757 -1.1226
11310TIP3    H255422   1.333   5.222  16.539 -1.0702 -1.3753  0.5072
11311TIP3   OH255423   4.096   2.970   3.379  0.3118 -0.8686  0.0859
11311TIP3    H155424   4.094   2.905   3.450 -0.4246  1.2020  2.1055
11311TIP3    H255425   4.109   3.053   3.424 -0.7077  0.6138 -2.2025
11312TIP3   OH255426   5.175   3.945  17.082  0.3984 -0.4918 -0.2495
11312TIP3    H155427   5.116   4.000  17.134 -1.1385  0.3575 -2.7195
11312TIP3    H255428   5.152   3.856  17.107 -0.4662 -0.1255  0.3431
11313TIP3   OH255429   2.381   4.095  14.081  0.3622  0.0429  0.1104
11313TIP3    H155430   2.315   4.054  14.136  0.8513 -1.7670 -0.5812
11313TIP3    H255431   2.464   4.059  14.111  1.2542  3.0575  1.6541
11314TIP3   OH255432   5.770   5.054   0.005  0.1921 -0.0809 -0.2610
11314TIP3    H155433   5.816   5.042  -0.078  0.5132 -1.2867  0.0791
11314TIP3    H255434   5.773   5.149   0.019 -0.6352  0.2567 -2.0440
11315TIP3   OH255435   6.592   3.068   1.586 -0.2084 -0.0374 -0.0955
11315TIP3    H155436   6.641   3.004   1.637  1.4122  1.1106 -0.1620
11315TIP3    H255437   6.542   3.015   1.523  0.8188 -1.2464  0.0723
11316TIP3   OH255438   6.349   3.407  13.982 -0.5268  0.0479  0.0120
11316TIP3    H155439   6.266   3.393  13.935 -1.0153  0.6258  0.6934
11316TIP3    H255440   6.356   3.502  13.992 -0.1387 -0.0367  0.5919
11317TIP3   OH255441   1.447   0.935   2.552  0.0498  0.2892 -0.3668
11317TIP3    H155442   1.359   0.897   2.553  0.3524 -0.4384 -0.7852
11317TIP3    H255443   1.440   1.011   2.493 -0.8855  1.7620  1.5196
11318TIP3   OH255444   5.290   0.687  17.072  0.2951 -0.4296 -0.1395
11318TIP3    H155445   5.249   0.759  17.120 -1.4860 -0.9231 -0.8338
11318TIP3    H255446   5.336   0.636  17.139  0.5706  0.6659  0.5296
11319TIP3   OH255447   4.263   0.508   0.736 -0.2403  0.8083  0.7836
11319TIP3    H155448   4.258   0.424   0.783  3.3338 -0.7929 -1.2710
11319TIP3    H255449   4.278   0.484   0.645  1.4171  3.6500  0.1789
11320TIP3   OH255450   5.656   5.506   5.425 -0.4731  0.2956 -0.8924
11320TIP3    H155451   5.720   5.437   5.404 -2.0678 -1.1139 -1.3567
11320TIP3    H255452   5.588   5.496   5.359 -0.5086  2.7314 -1.3052
11321TIP3   OH255453   6.354   0.488  10.702  0.0127  0.3470  0.2622
11321TIP3    H155454   6.402   0.507  10.782  0.6907  0.5157 -0.1788
11321TIP3    H255455   6.334   0.395  10.707  1.5210 -0.0215 -0.1386
11322TIP3   OH255456   4.859   5.170   0.560  0.0211 -0.0421  0.2367
11322TIP3    H155457   4.788   5.211   0.510 -0.0138 -0.3315  0.0473
11322TIP3    H255458   4.933   5.229   0.550 -1.1731  2.3494  3.5852
11323TIP3   OH255459   6.056   4.602  16.023  0.1325  0.6514  0.2510
11323TIP3    H155460   6.147   4.603  16.053  0.2952 -0.3408 -0.1763
11323TIP3    H255461   6.012   4.667  16.079  1.3437  2.0811 -0.3705
11324TIP3   OH255462   4.091   6.740  15.833 -0.1881 -0.2571 -0.3674
11324TIP3    H155463   4.065   6.799  15.762  0.7912 -1.4717 -1.8081
11324TIP3    H255464   4.035   6.664  15.823  0.3130 -0.6570 -0.1790
11325TIP3   OH255465   6.798   1.367  13.514 -0.1507  0.2476 -0.4021
11325TIP3    H155466   6.884   1.371  13.473 -0.2044 -0.5122 -0.6082
11325TIP3    H255467   6.796   1.280  13.555 -0.5584  0.5266  0.1872
11326TIP3   OH255468   0.108   3.031  12.523  0.4500 -0.0965  0.3095
11326TIP3    H155469   0.204   3.028  12.520  0.4795 -0.2339  1.0962
11326TIP3    H255470   0.083   2.947  12.563  0.0523  0.3423  0.9994
11327TIP3   OH255471   3.663   3.467  11.192 -0.1048 -0.4778 -0.1223
11327TIP3    H155472   3.599   3.526  11.152  0.5366  0.6067  0.4065
11327TIP3    H255473   3.633   3.456  11.282  0.4661  0.0914  0.1483
11328TIP3   OH255474   1.828   5.528   4.661 -0.3452  0.3081  0.9142
11328TIP3    H155475   1.755   5.566   4.708  0.2578  1.1085  1.2202
11328TIP3    H255476   1.906   5.568   4.700  0.1996  0.4430 -0.2562
11329TIP3   OH255477   2.532   1.464   2.680 -0.1240 -0.0775 -0.3396
11329TIP3    H155478   2.610   1.516   2.699 -0.5145 -0.0026  1.1549
11329TIP3    H255479   2.464   1.528   2.660 -0.5453  0.0083  1.2739
11330TIP3   OH255480   5.242   0.211  12.975  0.0786 -0.0084 -0.1074
11330TIP3    H155481   5.271   0.264  12.901 -0.3976 -0.6389 -0.7569
11330TIP3    H255482   5.200   0.134  12.935 -2.6613  0.9091  0.7435
11331TIP3   OH255483   1.524   1.612   0.864  0.4816 -0.2107 -0.1445
11331TIP3    H155484   1.484   1.537   0.907 -0.2676 -0.5690 -1.4327
11331TIP3    H255485   1.451   1.659   0.823  0.8914  1.4106  0.8806
11332TIP3   OH255486   4.591   1.828   3.111 -0.4055 -0.0312  0.1547
11332TIP3    H155487   4.546   1.848   3.029 -0.2486  1.4472  0.4042
11332TIP3    H255488   4.670   1.882   3.109 -1.5993  1.9470  2.3486
11333TIP3   OH255489   5.713   1.625  11.352  0.6400  0.6446 -0.1463
11333TIP3    H155490   5.619   1.640  11.349  0.5115 -0.2681 -1.4356
11333TIP3    H255491   5.752   1.713  11.347 -0.1282  1.0462  0.7190
11334TIP3   OH255492   2.147   5.497   5.291  0.4287 -0.2912 -0.3862
11334TIP3    H155493   2.172   5.536   5.375  0.7151 -0.9244 -0.1687
11334TIP3    H255494   2.054   5.518   5.281  0.3336 -0.4087  0.2030
11335TIP3   OH255495   6.555   3.700   6.451  0.1598  0.0826 -0.5209
11335TIP3    H155496   6.603   3.752   6.516 -0.9133  0.9865 -0.4168
11335TIP3    H255497   6.472   3.747   6.439  0.8221  0.7119 -3.5342
11336TIP3   OH255498   0.246   5.213  12.441 -0.0207 -0.0449 -0.5218
11336TIP3    H155499   0.166   5.260  12.416  0.2203 -0.7988 -3.0899
11336TIP3    H255500   0.297   5.276  12.492 -2.2680  0.3986  1.2956
11337TIP3   OH255501   2.649   0.281  14.263 -0.1948 -0.1251 -0.5644
11337TIP3    H155502   2.741   0.256  14.272 -0.6251 -1.8970 -0.6915
11337TIP3    H255503   2.618   0.231  14.187 -1.0817  1.0390 -0.9919
11338TIP3   OH255504   3.296   2.931  14.539  0.1354 -0.0978 -0.4304
11338TIP3    H155505   3.368   2.985  14.572  0.3719 -1.2167  1.0109
11338TIP3    H255506   3.339   2.853  14.504 -0.3454 -0.6917  0.2698
11339TIP3   OH255507   3.255   5.114  11.292  0.0884  0.5474  0.7108
11339TIP3    H155508   3.210   5.096  11.375 -0.0565 -2.2954  0.1416
11339TIP3    H255509   3.198   5.176  11.246 -1.4120 -0.1955  1.4989
11340TIP3   OH255510   1.518   3.816   5.597 -0.3769 -0.2577  0.1230
11340TIP3    H155511   1.527   3.836   5.690  0.7617 -1.0743  0.2164
11340TIP3    H255512   1.460   3.741   5.594 -0.9041  0.1463  0.1231
11341TIP3   OH255513   5.810   0.985  14.448  0.1028  0.6033 -0.2505
11341TIP3    H155514   5.809   0.889  14.455 -0.3669  0.5602 -0.8795
11341TIP3    H255515   5.892   1.011  14.491  0.2639 -0.0812 -0.1273
11342TIP3   OH255516   1.782   6.466  15.347 -0.2023 -0.9202 -0.5186
11342TIP3    H155517   1.819   6.455  15.435  0.5622  0.0709 -0.6985
11342TIP3    H255518   1.814   6.390  15.298  0.4406 -0.8120 -0.2792
11343TIP3   OH255519   0.253   5.867   3.513  0.6568  0.0609  0.5238
11343TIP3    H155520   0.243   5.772   3.501  0.6175  0.3030 -1.7892
11343TIP3    H255521   0.166   5.903   3.495  1.2855  0.7154 -1.4726
11344TIP3   OH255522   1.780   4.720   3.755  0.3212 -0.4689 -0.0736
11344TIP3    H155523   1.789   4.643   3.811  2.8090  0.5032  1.0297
11344TIP3    H255524   1.845   4.706   3.686  0.9861  0.7186  0.2821
11345TIP3   OH255525   6.336   1.320  16.068 -0.1333 -0.2167  0.2064
11345TIP3    H155526   6.268   1.318  16.136 -0.0462 -2.5417  0.2967
11345TIP3    H255527   6.411   1.361  16.110 -1.1699  1.6200  0.3667
11346TIP3   OH255528   1.743   6.391  12.113 -0.2112  0.1226 -0.2586
11346TIP3    H155529   1.737   6.342  12.032 -0.6218 -0.8692  0.3489
11346TIP3    H255530   1.667   6.362  12.164 -1.0798  2.1626 -0.2701
11347TIP3   OH255531   0.247   3.559  15.618 -0.2956 -0.6282 -0.0584
11347TIP3    H155532   0.315   3.616  15.582 -1.9517  1.4878 -0.0684
11347TIP3    H255533   0.267   3.472  15.584  1.5140  0.2051 -1.2630
11348TIP3   OH255534   0.300   4.685   3.118  0.2340  0.1031  0.2759
11348TIP3    H155535   0.362   4.717   3.052 -2.0517  1.1334 -1.5079
11348TIP3    H255536   0.234   4.754   3.125 -0.9671 -1.1104  1.8018
11349TIP3   OH255537   1.709   2.686  14.342  0.1378 -0.3024 -0.3469
11349TIP3    H155538   1.716   2.624  14.415  1.0783  0.6760  0.4353
11349TIP3    H255539   1.663   2.761  14.379 -0.6162 -0.3405 -1.1691
11350TIP3   OH255540   1.256   5.327   1.668 -0.3061  0.1893  0.3818
11350TIP3    H155541   1.167   5.308   1.637 -1.0257  1.9355  1.2282
11350TIP3    H255542   1.300   5.242   1.668 -2.4230 -0.9917  1.3171
11351TIP3   OH255543   5.241   1.839  14.231 -0.1185  0.0626 -0.0350
11351TIP3    H155544   5.204   1.887  14.305  0.8460  0.4231  0.2287
11351TIP3    H255545   5.167   1.795  14.191 -0.6708 -0.0189  1.0660
11352TIP3   OH255546   0.720   2.550   3.282 -0.3390  0.1641  0.3120
11352TIP3    H155547   0.781   2.594   3.341 -0.7901  0.8257  0.2890
11352TIP3    H255548   0.634   2.579   3.311 -0.6001 -0.0722 -0.2181
11353TIP3   OH255549   2.053   0.540  11.003  0.4122  0.2657 -0.0111
11353TIP3    H155550   2.110   0.489  10.946  0.7150  0.7500 -0.1507
11353TIP3    H255551   1.969   0.494  11.002  0.4444  0.2217 -0.7783
11354TIP3   OH255552   4.715   2.819   1.625 -0.2783  0.1054  0.2870
11354TIP3    H155553   4.806   2.849   1.616 -0.9656  2.5476  0.8120
11354TIP3    H255554   4.683   2.815   1.535 -0.6127  2.6825  0.2128
11355TIP3   OH255555   3.490   5.241  13.428 -0.0871  0.2069 -0.2316
11355TIP3    H155556   3.576   5.282  13.435  0.5077 -0.9359 -0.7419
11355TIP3    H255557   3.504   5.150  13.453 -1.0377 -0.1187 -0.8406
11356TIP3   OH255558   0.731   0.663  13.717  0.0843 -0.3112 -0.4808
11356TIP3    H155559   0.824   0.687  13.722  0.7082 -2.4436 -0.8811
11356TIP3    H255560   0.710   0.632  13.805  0.2320 -1.3671 -0.8056
11357TIP3   OH255561   0.201   2.867  16.848  0.3966  0.4294 -0.6333
11357TIP3    H155562   0.270   2.805  16.872  0.5603  1.3792  1.7257
11357TIP3    H255563   0.247   2.937  16.801  1.1580  1.1382  1.0654
11358TIP3   OH255564   3.794   2.286  16.384  0.7447  0.2944 -0.2660
11358TIP3    H155565   3.832   2.313  16.468  0.6470  3.1243 -1.0480
11358TIP3    H255566   3.700   2.294  16.397  0.5577 -1.7583  0.0671
11359TIP3   OH255567   6.175   2.972  11.227  0.3083  0.6313 -0.2512
11359TIP3    H155568   6.265   2.956  11.197  0.4254  0.5854  0.1234
11359TIP3    H255569   6.120   2.930  11.160  0.5705  0.4791 -0.3732
11360TIP3   OH255570   2.776   1.876  14.915 -0.1119  0.3088  0.3302
11360TIP3    H155571   2.740   1.960  14.942 -0.7735 -0.2549  1.2916
11360TIP3    H255572   2.767   1.820  14.993 -0.7449 -0.9728 -0.6314
11361TIP3   OH255573   6.254   6.501   2.509 -0.1755  0.4705 -0.3905
11361TIP3    H155574   6.304   6.560   2.454 -2.1967  2.2845 -0.4043
11361TIP3    H255575   6.301   6.501   2.593  0.9344  0.5015 -0.9889
11362TIP3   OH255576   1.521   4.619   5.112 -0.0873 -0.2545  0.0176
11362TIP3    H155577   1.464   4.573   5.173  1.4689 -1.5551  0.5868
11362TIP3    H255578   1.534   4.705   5.151  0.8457 -1.0484  1.5728
11363TIP3   OH255579   0.353   5.970   0.497 -0.0279 -0.2060 -0.6824
11363TIP3    H155580   0.351   5.975   0.592 -1.2281  0.5091 -0.7305
11363TIP3    H255581   0.315   5.885   0.476  0.5495 -0.5104 -0.5272
11364TIP3   OH255582   6.838   5.133  15.193  0.0076  0.3158  0.0273
11364TIP3    H155583   6.766   5.197  15.195 -0.4437 -0.2110  1.5305
11364TIP3    H255584   6.799   5.052  15.225  0.5736 -0.7554 -1.8579
11365TIP3   OH255585   4.221   5.688   0.370 -0.1065 -0.8319  0.0800
11365TIP3    H155586   4.210   5.778   0.339 -2.2881 -0.9569  0.3252
11365TIP3    H255587   4.300   5.657   0.326  1.1298  1.4170  0.5476
11366TIP3   OH255588   5.011   5.094   4.990 -0.2966  0.3503 -0.7717
11366TIP3    H155589   5.073   5.157   4.954 -0.1464  1.3112  1.0235
11366TIP3    H255590   5.065   5.022   5.023 -0.2871  0.3038 -0.8883
11367TIP3   OH255591   6.226   1.818   3.710  0.2185  0.3576 -0.3516
11367TIP3    H155592   6.315   1.794   3.735  0.0852  0.7933  0.5930
11367TIP3    H255593   6.236   1.864   3.627  1.0140  1.4059  0.2955
11368TIP3   OH255594   0.286   1.244  12.970  0.0369  0.2614 -0.1902
11368TIP3    H155595   0.290   1.309  13.040  1.2702 -0.0611  0.0557
11368TIP3    H255596   0.225   1.281  12.906 -0.7610  0.7635  0.8404
11369TIP3   OH255597   2.811   3.595   2.130 -0.2374  0.2242  0.0785
11369TIP3    H155598   2.777   3.536   2.196  0.1430  2.4104  2.3649
11369TIP3    H255599   2.906   3.587   2.137 -0.1021  2.3206  1.7478
11370TIP3   OH255600   5.472   5.451   5.237 -0.4426  0.5356  0.0629
11370TIP3    H155601   5.517   5.390   5.180 -0.6317  0.6788 -0.2408
11370TIP3    H255602   5.379   5.435   5.222 -0.5004  0.0557  0.8828
11371TIP3   OH255603   1.823   3.201   2.725 -0.0194  0.2993  0.1588
11371TIP3    H155604   1.755   3.134   2.736  1.0614 -0.8766 -0.0189
11371TIP3    H255605   1.826   3.217   2.631 -0.7541  1.1374  0.2666
11372TIP3   OH255606   5.070   1.072  16.111 -0.3288  0.1022  0.3422
11372TIP3    H155607   5.096   1.136  16.045 -0.0498 -0.4280 -0.0701
11372TIP3    H255608   4.980   1.051  16.089  0.2185 -1.1949 -0.8162
11373TIP3   OH255609   5.624   0.912   0.606  0.3286  0.1619  0.0875
11373TIP3    H155610   5.602   0.824   0.636 -0.1920 -0.0229 -0.7966
11373TIP3    H255611   5.606   0.968   0.682  1.5001 -0.5731  0.9420
11374TIP3   OH255612   4.342   5.242   4.070  1.0517  0.3526 -0.4453
11374TIP3    H155613   4.272   5.183   4.041  0.6442  1.0158 -0.8654
11374TIP3    H255614   4.408   5.236   4.002  1.1165  0.1976 -0.3675
11375TIP3   OH255615   2.663   2.117  15.486  0.4264  0.0873 -0.8870
11375TIP3    H155616   2.704   2.112  15.573 -0.1462 -0.2695 -0.6298
11375TIP3    H255617   2.590   2.177  15.497 -1.0270 -1.6584 -0.5250
11376TIP3   OH255618   6.800   5.225  11.674  0.2176 -0.3325  0.2168
11376TIP3    H155619   6.820   5.134  11.698  1.4878 -0.4276 -1.0575
11376TIP3    H255620   6.751   5.218  11.592  0.8325  0.1359 -0.2003
11377TIP3   OH255621   6.596   5.914   4.607 -0.2485 -1.2449 -0.0945
11377TIP3    H155622   6.635   5.988   4.562 -0.0210 -0.8424  0.7505
11377TIP3    H255623   6.506   5.911   4.573 -0.0471 -1.0324 -0.6628
11378TIP3   OH255624   5.177   2.533   5.530 -0.4313 -0.0335  0.1487
11378TIP3    H155625   5.141   2.493   5.609 -3.2372  0.4463 -0.8049
11378TIP3    H255626   5.154   2.474   5.459  0.8756  0.2157 -0.5288
11379TIP3   OH255627   0.937   5.694   4.328  0.0195 -0.1480 -0.8822
11379TIP3    H155628   0.875   5.755   4.287 -1.0337 -0.0586  0.7744
11379TIP3    H255629   0.998   5.672   4.257 -0.8452  1.1403 -2.0955
11380TIP3   OH255630   4.087   4.042  10.909 -0.6056 -0.6470  0.1615
11380TIP3    H155631   4.082   4.137  10.898  0.8325 -0.3111  1.8548
11380TIP3    H255632   4.023   4.007  10.847 -1.4407  1.4289 -0.2380
11381TIP3   OH255633   0.481   6.166   3.391  0.5033  0.1321  0.2977
11381TIP3    H155634   0.468   6.257   3.363 -0.1327  0.1235  0.5623
11381TIP3    H255635   0.576   6.159   3.402  0.9689 -0.2030 -2.9771
11382TIP3   OH255636   2.908   1.331  16.406 -0.6543  0.1990  0.5919
11382TIP3    H155637   2.932   1.359  16.495 -1.1242 -0.3089  0.8835
11382TIP3    H255638   2.959   1.252  16.391 -0.3223  0.4695  0.2753
11383TIP3   OH255639   4.302   3.376  16.483 -0.2215  0.7161  0.0077
11383TIP3    H155640   4.353   3.339  16.411 -1.6006  0.9210 -1.1049
11383TIP3    H255641   4.333   3.329  16.561 -0.1222 -0.9451 -1.0058
11384TIP3   OH255642   3.941   5.808   0.554 -0.1985  0.1741 -0.0582
11384TIP3    H155643   4.028   5.771   0.566 -0.0115 -1.1218 -3.9062
11384TIP3    H255644   3.883   5.732   0.548 -0.9106  0.7884 -1.4092
11385TIP3   OH255645   1.845   0.263   1.045  0.4048  0.4607  0.1459
11385TIP3    H155646   1.833   0.325   0.973  0.8081 -0.0203 -0.3452
11385TIP3    H255647   1.917   0.301   1.096  2.3886 -0.8118 -1.5504
11386TIP3   OH255648   3.087   0.901   1.995  0.1247  0.2073  0.0627
11386TIP3    H155649   3.113   0.842   2.065  0.3118  0.6744  0.3924
11386TIP3    H255650   3.088   0.988   2.035 -0.6395  0.3862 -0.2823
11387TIP3   OH255651   0.669   6.343   0.967  0.4495 -0.1157  0.3559
11387TIP3    H155652   0.747   6.392   0.991  0.3470 -0.2387  0.9590
11387TIP3    H255653   0.695   6.294   0.889  0.6411  0.6535 -0.0772
11388TIP3   OH255654   5.732   1.401  15.426 -0.1483  0.7845 -0.2228
11388TIP3    H155655   5.775   1.475  15.384  0.6953  1.6612  2.0289
11388TIP3    H255656   5.801   1.335  15.435 -0.0342  1.0036  0.6398
11389TIP3   OH255657   4.465   6.842   4.914 -0.3922  0.1933  0.7922
11389TIP3    H155658   4.370   6.852   4.907 -0.0739  2.8075 -1.5939
11389TIP3    H255659   4.480   6.748   4.904 -2.6526 -0.0952 -0.6835
11390TIP3   OH255660   3.359   6.047   2.786  0.0702  0.2439  0.6973
11390TIP3    H155661   3.296   6.116   2.767  0.0673  0.3495  1.0838
11390TIP3    H255662   3.433   6.066   2.728 -0.3134  0.0245  0.1273
11391TIP3   OH255663   0.702   2.841   1.976  0.5209 -0.1886 -0.4619
11391TIP3    H155664   0.628   2.851   1.915 -0.2266  0.3658  0.4984
11391TIP3    H255665   0.670   2.779   2.042  0.4905  0.9096  0.5783
11392TIP3   OH255666   4.531   2.994   3.785 -0.6026  0.3851 -0.0669
11392TIP3    H155667   4.543   3.089   3.773 -0.6427  0.4574  0.4379
11392TIP3    H255668   4.466   2.987   3.855 -2.2932 -0.0101 -1.5887
11393TIP3   OH255669   5.059   6.040  14.435 -0.3581 -0.0961  0.2204
11393TIP3    H155670   5.019   6.079  14.357  1.0912  2.4711  0.6561
11393TIP3    H255671   5.127   5.982  14.401 -1.6411 -1.3135 -0.4102
11394TIP3   OH255672   5.997   3.727  12.540  0.2951 -0.1115 -0.7753
11394TIP3    H155673   6.088   3.747  12.562  0.4944 -0.1596 -1.5135
11394TIP3    H255674   5.971   3.798  12.480 -0.0021 -0.3532 -0.9366
11395TIP3   OH255675   4.806   1.904   1.748 -0.0884 -0.3139  0.1655
11395TIP3    H155676   4.747   1.940   1.682 -0.0975  0.3875  0.5498
11395TIP3    H255677   4.887   1.952   1.737  0.3384 -1.1040 -0.1932
11396TIP3   OH255678   6.501   1.858  13.573  0.1266  0.0516 -0.2512
11396TIP3    H155679   6.591   1.860  13.606  0.1281  1.1897 -0.2847
11396TIP3    H255680   6.448   1.891  13.647 -0.3912 -1.4640  0.0990
11397TIP3   OH255681   6.721   0.133  11.359  0.0386 -0.1825 -0.3612
11397TIP3    H155682   6.737   0.052  11.408  2.0248  0.9326  0.9743
11397TIP3    H255683   6.799   0.143  11.304  0.0691  1.0979 -0.1035
11398TIP3   OH255684   2.146   3.317   0.362 -0.0522  0.6557  0.0356
11398TIP3    H155685   2.153   3.326   0.267  0.2015  0.3941  0.0259
11398TIP3    H255686   2.151   3.406   0.395 -0.5715  0.7802 -0.2207
11399TIP3   OH255687   1.069   0.383  17.074  0.0129 -0.1285 -0.2204
11399TIP3    H155688   1.107   0.322  17.137  1.1447  0.9840  0.2180
11399TIP3    H255689   1.108   0.357  16.990  0.5079 -0.0072 -0.0329
11400TIP3   OH255690   6.801   4.294   1.535  0.1562  0.1991  0.3617
11400TIP3    H155691   6.874   4.257   1.584  0.3431  0.1049  0.0163
11400TIP3    H255692   6.774   4.223   1.476 -1.7602 -0.6378  2.1180
11401TIP3   OH255693   3.710   4.184  16.546 -0.0875 -0.1310 -0.4476
11401TIP3    H155694   3.664   4.111  16.506 -1.2431  0.7863 -0.8603
11401TIP3    H255695   3.700   4.256  16.484 -0.0651  0.7219  0.5072
11402TIP3   OH255696   4.244   4.064   3.050  1.2077  0.1700  0.0655
11402TIP3    H155697   4.315   4.126   3.030  0.5672  0.5433 -1.1702
11402TIP3    H255698   4.189   4.065   2.972 -0.5275  0.3915  1.2322
11403TIP3   OH255699   1.489   1.029  13.020  0.0791 -0.0310  0.6931
11403TIP3    H155700   1.396   1.029  12.999  0.6618 -0.4315 -2.2959
11403TIP3    H255701   1.525   0.956  12.969  1.9500 -0.3450  2.3369
11404TIP3   OH255702   2.889   6.295   4.615  0.0448  0.4880 -0.0734
11404TIP3    H155703   2.965   6.300   4.674  1.2623  1.7656 -1.6803
11404TIP3    H255704   2.817   6.334   4.665  0.5841 -0.0967  1.2108
11405TIP3   OH255705   6.043   3.566  13.047  0.0958  0.3426  0.5214
11405TIP3    H155706   6.089   3.585  12.965  1.3386  1.8968  1.5139
11405TIP3    H255707   6.073   3.479  13.072  0.7849  0.4299  0.0287
11406TIP3   OH255708   2.470   6.093   1.841 -0.5846 -0.2171 -0.5253
11406TIP3    H155709   2.486   6.175   1.794  2.3000 -0.0722  0.5396
11406TIP3    H255710   2.455   6.028   1.772 -1.3511  0.8700 -1.4166
11407TIP3   OH255711   2.184   0.438   3.374 -0.1074  0.2535 -0.5123
11407TIP3    H155712   2.097   0.401   3.359 -0.4783  0.9853 -0.2238
11407TIP3    H255713   2.235   0.410   3.298 -0.8807  0.6727 -1.2031
11408TIP3   OH255714   6.108   0.445   1.530 -0.1511  0.1994 -0.1913
11408TIP3    H155715   6.200   0.467   1.546 -0.1549 -0.6683  1.2167
11408TIP3    H255716   6.104   0.428   1.436  1.4600 -1.1486 -0.0710
11409TIP3   OH255717   3.078   4.998   3.893  0.4920  0.3186 -0.0097
11409TIP3    H155718   3.041   5.000   3.805  1.8161 -1.8863 -0.6863
11409TIP3    H255719   3.007   5.027   3.950 -1.1538 -0.4898 -1.5727
11410TIP3   OH255720   0.621   5.582   5.086  0.2955  0.3015 -0.4750
11410TIP3    H155721   0.671   5.555   5.162  1.0475 -0.1496 -1.1106
11410TIP3    H255722   0.561   5.648   5.119  0.7535  0.2678  0.4621
11411TIP3   OH255723   0.649   0.129  14.363 -0.0548  0.2553  0.5919
11411TIP3    H155724   0.614   0.200  14.416 -0.0567  1.5793 -1.0974
11411TIP3    H255725   0.574   0.071  14.347 -0.5784  1.0355  0.1828
11412TIP3   OH255726   1.116   2.382  12.672 -0.7412  0.3726  0.3038
11412TIP3    H155727   1.188   2.319  12.670 -1.6180 -0.7692  1.8364
11412TIP3    H255728   1.158   2.467  12.681  0.4474 -0.3957  3.0670
11413TIP3   OH255729   3.680   2.097   1.320  0.0842 -0.2040  0.4742
11413TIP3    H155730   3.597   2.077   1.363  0.0734  0.1931  0.6424
11413TIP3    H255731   3.710   2.178   1.362  0.8761 -0.6899  0.8716
11414TIP3   OH255732   6.270   5.054   3.057  0.3435  0.7383  0.2979
11414TIP3    H155733   6.337   5.059   2.989 -1.8804  0.1051 -2.1215
11414TIP3    H255734   6.236   5.143   3.064  0.2536  0.7096  0.2294
11415TIP3   OH255735   5.044   2.374  14.571  0.2447  0.0324 -0.0583
11415TIP3    H155736   5.109   2.338  14.631 -0.3530 -0.0554  0.5487
11415TIP3    H255737   4.964   2.326  14.590 -0.9806  2.5778  1.7906
11416TIP3   OH255738   6.380   3.485   2.203 -0.1314  0.2872 -0.2783
11416TIP3    H155739   6.285   3.480   2.194 -0.1541  0.6200 -0.2398
11416TIP3    H255740   6.408   3.394   2.211 -0.6075  0.2320  1.2350
11417TIP3   OH255741   4.359   5.012   4.217 -0.1565 -0.1766  0.3402
11417TIP3    H155742   4.368   5.103   4.188 -0.3606 -0.4159 -0.4961
11417TIP3    H255743   4.325   4.966   4.141 -0.0263 -0.9662  0.7528
11418TIP3   OH255744   6.153   4.191   3.647 -0.1132  0.3443 -0.2303
11418TIP3    H155745   6.111   4.117   3.691  0.0284  0.2445 -0.2651
11418TIP3    H255746   6.244   4.189   3.677 -0.5441  1.6968  1.3922
11419TIP3   OH255747   0.860   0.073  14.204  0.3736  0.0638  0.0078
11419TIP3    H155748   0.912  -0.006  14.218  0.6971  0.5566  1.8219
11419TIP3    H255749   0.783   0.061  14.259  0.1031  0.7352 -0.2167
11420TIP3   OH255750   6.227   2.880   6.307 -0.5753 -0.0759  0.0839
11420TIP3    H155751   6.202   2.929   6.385 -0.6353  3.1097 -1.7657
11420TIP3    H255752   6.317   2.908   6.289 -1.0781  0.4857 -1.7882
11421TIP3   OH255753   2.212   2.325  15.468  0.1309  0.3347 -0.1723
11421TIP3    H155754   2.147   2.321  15.538 -0.0757 -0.6037 -0.4042
11421TIP3    H255755   2.295   2.341  15.513 -0.3712  2.8269  0.0403
11422TIP3   OH255756   5.900   3.927   0.109  0.3911 -0.2608  0.1480
11422TIP3    H155757   5.981   3.888   0.077  0.0484  0.7154 -2.1311
11422TIP3    H255758   5.902   4.017   0.077 -0.6391  0.4350  1.8857
11423TIP3   OH255759   3.974   3.531   5.640  0.3614 -0.3672 -0.4837
11423TIP3    H155760   4.062   3.558   5.667 -0.0882  0.5650  0.1289
11423TIP3    H255761   3.946   3.598   5.578 -0.3276 -0.0433  0.1594
11424TIP3   OH255762   6.260   0.100  16.179  0.7963  0.1358 -0.0153
11424TIP3    H155763   6.262   0.101  16.083  1.7941 -0.0173 -0.0085
11424TIP3    H255764   6.221   0.184  16.204  1.3962  0.5796 -0.5455
11425TIP3   OH255765   3.726   4.952  14.909 -0.4034 -0.5204 -0.4855
11425TIP3    H155766   3.745   4.859  14.923 -1.2680 -0.9184 -1.7215
11425TIP3    H255767   3.804   4.986  14.865  0.7153 -0.1617  1.6548
11426TIP3   OH255768   0.870   1.847  13.443  0.0956  0.1753  1.1003
11426TIP3    H155769   0.949   1.793  13.437  0.5001  0.7604  1.0738
11426TIP3    H255770   0.863   1.888  13.357 -0.7078 -0.5165  0.8322
11427TIP3   OH255771   3.668   5.269  12.802  0.1089 -0.1885  0.7512
11427TIP3    H155772   3.692   5.240  12.713 -0.1494  0.3387  0.5046
11427TIP3    H255773   3.751   5.282  12.846  0.2799  0.8057  0.1707
11428TIP3   OH255774   3.248   4.875  10.632 -0.2578 -0.1582  0.1174
11428TIP3    H155775   3.313   4.932  10.591 -1.9586  3.0620  1.5838
11428TIP3    H255776   3.170   4.885  10.579 -0.7987 -0.5675  0.8153
11429TIP3   OH255777   3.973   5.386  15.816  0.1138 -0.2045 -0.2168
11429TIP3    H155778   4.015   5.444  15.879 -1.4331  1.5589 -0.7516
11429TIP3    H255779   3.975   5.434  15.734 -2.4196 -0.2738 -0.3799
11430TIP3   OH255780   4.087   3.449   3.766 -0.6199  0.5036 -0.1554
11430TIP3    H155781   4.136   3.473   3.688 -0.3613  0.3798 -0.0312
11430TIP3    H255782   4.154   3.426   3.831 -0.8588 -0.9413 -0.3829
11431TIP3   OH255783   6.318   5.996   0.398 -0.3111  0.0232  0.0630
11431TIP3    H155784   6.364   6.049   0.463  1.1059 -0.1373 -0.7743
11431TIP3    H255785   6.238   6.045   0.380  0.3080  1.1711  0.3354
11432TIP3   OH255786   3.632   1.723  12.267 -0.3726 -0.2224 -0.7514
11432TIP3    H155787   3.574   1.650  12.246 -1.1510  0.0202  0.4368
11432TIP3    H255788   3.611   1.745  12.358 -1.0233  2.2573 -1.4250
11433TIP3   OH255789   6.647   4.166   5.330 -0.1104 -0.0706 -0.2199
11433TIP3    H155790   6.558   4.199   5.322 -0.3127 -0.1116  1.5298
11433TIP3    H255791   6.701   4.234   5.289 -0.8679  0.3915 -0.4780
11434TIP3   OH255792   3.133   1.927   3.558 -0.3241 -0.5059  0.9334
11434TIP3    H155793   3.197   1.995   3.579 -0.9120  0.1465  0.6864
11434TIP3    H255794   3.076   1.968   3.493  1.1766 -2.3053 -1.6636
11435TIP3   OH255795   0.072   6.627   2.611  0.5065  0.1371 -0.0604
11435TIP3    H155796   0.150   6.635   2.666 -1.2584 -0.1037  2.6802
11435TIP3    H255797   0.048   6.534   2.617 -0.1933  0.2815 -0.5545
11436TIP3   OH255798   6.114   4.487   0.490  0.0189 -0.4891 -0.0404
11436TIP3    H155799   6.155   4.413   0.535 -0.1636 -1.2709 -1.1244
11436TIP3    H255800   6.167   4.501   0.412 -1.2578 -0.9841 -1.0341
11437TIP3   OH255801   2.888   4.744   3.116 -0.4625 -0.6396  0.2205
11437TIP3    H155802   2.960   4.793   3.077  0.1705  1.0026  3.1393
11437TIP3    H255803   2.831   4.721   3.043  1.3727  0.8390 -1.7803
11438TIP3   OH255804   3.815   4.447  14.708 -0.2622 -0.0347 -0.7446
11438TIP3    H155805   3.899   4.455  14.663  1.0950 -0.3373  1.5462
11438TIP3    H255806   3.809   4.355  14.733 -0.0663  0.4302  1.1843
11439TIP3   OH255807   4.742   2.255  15.888 -0.7919  0.3359  0.3334
11439TIP3    H155808   4.682   2.214  15.826 -1.1494 -0.1416  0.9854
11439TIP3    H255809   4.710   2.229  15.974 -0.9481  1.8796  0.7779
11440TIP3   OH255810   4.467   1.508  14.254  0.1927  0.2363  0.1537
11440TIP3    H155811   4.379   1.544  14.244 -1.0779 -2.9098 -1.2985
11440TIP3    H255812   4.486   1.468  14.169  2.0807 -1.1218  1.1382
11441TIP3   OH255813   2.064   4.976  16.217  0.7104 -0.2042  0.4925
11441TIP3    H155814   2.040   4.883  16.216 -0.9464  0.1931  0.2277
11441TIP3    H255815   2.098   4.992  16.305  1.7488 -1.2133  0.3010
11442TIP3   OH255816   2.197   3.451   3.245 -0.2478  0.8014  0.4582
11442TIP3    H155817   2.108   3.421   3.228 -0.0896  1.6218 -2.3407
11442TIP3    H255818   2.188   3.541   3.276 -0.3930  1.4394 -1.3474
11443TIP3   OH255819   3.867   0.749   4.415  0.5562  0.1643 -0.4380
11443TIP3    H155820   3.923   0.782   4.345  0.2101 -0.7428 -1.1741
11443TIP3    H255821   3.882   0.808   4.488 -0.3782  2.2218 -1.8120
11444TIP3   OH255822   3.095   1.000   5.249  0.2606 -0.4951  0.6356
11444TIP3    H155823   3.122   1.089   5.226 -1.3429  1.2363  4.4929
11444TIP3    H255824   3.171   0.964   5.297 -0.1045  0.0021  1.6235
11445TIP3   OH255825   5.856   4.568   5.731  0.0064 -0.2890 -0.9271
11445TIP3    H155826   5.839   4.649   5.682  1.7837 -0.6158 -2.1694
11445TIP3    H255827   5.813   4.500   5.680  0.3088 -0.4018 -1.0293
11446TIP3   OH255828   3.005   1.416  13.246 -0.6264 -0.0859  0.0274
11446TIP3    H155829   3.061   1.366  13.187 -0.5838  0.6548 -0.5637
11446TIP3    H255830   2.935   1.450  13.190 -0.8286  0.2584  0.4823
11447TIP3   OH255831   1.294   2.956   3.267  0.3931 -0.5150 -0.2678
11447TIP3    H155832   1.238   2.891   3.226  0.7506 -0.5523 -0.7064
11447TIP3    H255833   1.358   2.905   3.316 -1.0193 -0.4714  1.7440
11448TIP3   OH255834   0.229   3.947  16.717 -0.5371  0.1613 -0.0839
11448TIP3    H155835   0.296   3.927  16.652  0.2758 -0.5677  0.9492
11448TIP3    H255836   0.189   4.029  16.686  2.4182  1.9654  0.4795
11449TIP3   OH255837   4.622   3.661  14.105 -0.1553  0.1738 -0.2904
11449TIP3    H155838   4.680   3.721  14.150  0.1378 -0.1337 -0.2563
11449TIP3    H255839   4.572   3.618  14.175  0.5256 -0.5380 -0.2248
11450TIP3   OH255840   3.725   2.547   2.251  0.3084  0.2323  0.1085
11450TIP3    H155841   3.819   2.535   2.270  0.3671  0.0157 -0.3016
11450TIP3    H255842   3.723   2.594   2.168  0.0575 -1.0099 -0.6117
11451TIP3   OH255843   3.991   2.058   3.859 -0.1918  0.1443  0.3256
11451TIP3    H155844   3.915   2.007   3.886  0.7715 -0.9042  1.1265
11451TIP3    H255845   3.981   2.069   3.764 -1.6703  0.5999  0.5156
11452TIP3   OH255846   5.380   0.557   0.206  0.0427  0.3599 -0.3574
11452TIP3    H155847   5.412   0.487   0.264 -0.2896  0.3548 -0.1817
11452TIP3    H255848   5.457   0.580   0.154  0.5148  0.7952  0.5063
11453TIP3   OH255849   2.739   0.247   2.702 -0.1009  0.0762 -0.4030
11453TIP3    H155850   2.733   0.186   2.775 -1.2581  0.1574 -0.4186
11453TIP3    H255851   2.832   0.247   2.679 -0.1767 -2.4853 -1.0694
11454TIP3   OH255852   3.216   3.416  11.442 -0.2151  0.2165 -0.0788
11454TIP3    H155853   3.268   3.368  11.507 -0.4447  0.6860  0.4643
11454TIP3    H255854   3.265   3.406  11.361  1.0601  1.1001  0.5283
11455TIP3   OH255855   6.573   5.622  10.563  0.0406 -0.2727 -0.1776
11455TIP3    H155856   6.499   5.579  10.520  0.2971 -0.3043 -0.5883
11455TIP3    H255857   6.602   5.689  10.502  0.0833  0.0283  0.1685
11456TIP3   OH255858   1.807   1.811  15.110 -0.0197  0.4333 -0.2111
11456TIP3    H155859   1.726   1.863  15.112 -1.7076 -2.0319  0.4907
11456TIP3    H255860   1.828   1.796  15.202  0.4363 -0.1142 -0.4001
11457TIP3   OH255861   0.515   0.761   0.725  0.1107  0.1971  0.2497
11457TIP3    H155862   0.472   0.733   0.806  0.2336  3.5925  1.6769
11457TIP3    H255863   0.444   0.788   0.667  0.0886  2.0018  1.0502
11458TIP3   OH255864   2.292   1.991  16.199 -0.2474  0.0128  0.1253
11458TIP3    H155865   2.232   1.994  16.124 -1.4700  2.6898  1.0729
11458TIP3    H255866   2.364   2.049  16.175  0.5315 -0.9360  0.1362
11459TIP3   OH255867   3.283   1.434   1.134 -0.0016 -0.4469  0.3902
11459TIP3    H155868   3.257   1.523   1.112  0.4830 -0.2799  0.4861
11459TIP3    H255869   3.277   1.386   1.051 -0.1835 -0.3061  0.3223
11460TIP3   OH255870   6.278   0.827  10.838 -0.2780 -0.4403  0.1505
11460TIP3    H155871   6.286   0.898  10.902  2.7724  0.5072 -1.1395
11460TIP3    H255872   6.267   0.871  10.754 -0.4513 -1.5691 -0.4383
11461TIP3   OH255873   6.456   0.357   4.915  0.4452 -0.0586  0.2799
11461TIP3    H155874   6.513   0.384   4.843 -0.7827 -0.0601 -0.7277
11461TIP3    H255875   6.427   0.269   4.890 -1.9691  0.8925 -0.5275
11462TIP3   OH255876   5.807   1.283  17.042 -0.4915 -0.1065 -0.4081
11462TIP3    H155877   5.767   1.370  17.036  0.7741  0.6043  0.9280
11462TIP3    H255878   5.860   1.275  16.963 -0.5295  0.3775 -0.4809
11463TIP3   OH255879   3.265   0.147  13.209 -0.0044 -0.2822 -0.1063
11463TIP3    H155880   3.319   0.069  13.215  0.1930 -0.2114 -0.8373
11463TIP3    H255881   3.219   0.138  13.125 -0.7926 -0.1278  0.2941
11464TIP3   OH255882   0.097   0.448  15.858 -0.3700  0.1667 -0.5530
11464TIP3    H155883   0.190   0.427  15.864 -0.7076 -0.9577  2.2505
11464TIP3    H255884   0.064   0.392  15.787  1.0196  0.5072 -1.5189
11465TIP3   OH255885   5.601   1.344  16.586  0.4376  0.4642  0.0102
11465TIP3    H155886   5.542   1.323  16.658  0.9707 -0.7825  0.1091
11465TIP3    H255887   5.623   1.259  16.548  1.2735  1.0015 -0.7295
11466TIP3   OH255888   2.261   3.868   5.774 -0.6202  0.6139 -0.2966
11466TIP3    H155889   2.193   3.807   5.743  0.0013 -0.2665  0.0316
11466TIP3    H255890   2.212   3.941   5.812 -1.3928 -0.1014  0.1180
11467TIP3   OH255891   6.562   2.302  11.232  0.1397  0.4722  0.0334
11467TIP3    H155892   6.616   2.260  11.299 -0.2565  1.2308  0.8728
11467TIP3    H255893   6.581   2.396  11.242  0.3226  0.5754 -1.1615
11468TIP3   OH255894   5.818   1.490   2.433 -0.5121 -0.7074 -0.5974
11468TIP3    H155895   5.777   1.456   2.513  0.6501  2.6195  1.6363
11468TIP3    H255896   5.747   1.536   2.388 -0.2561  1.8918  1.3798
11469TIP3   OH255897   3.979   3.694  12.221  0.3407  0.2982 -0.1715
11469TIP3    H155898   4.052   3.643  12.184 -0.8430  0.2481 -2.6238
11469TIP3    H255899   3.939   3.635  12.285  1.0016 -0.5991 -0.5512
11470TIP3   OH255900   1.918   6.300  15.180 -0.1435  0.2352 -0.2397
11470TIP3    H155901   1.979   6.250  15.124 -0.2843  0.3003 -0.4517
11470TIP3    H255902   1.894   6.376  15.127 -1.5785 -0.5470 -0.7497
11471TIP3   OH255903   6.380   4.152  13.987  0.1734  0.2553  0.8286
11471TIP3    H155904   6.342   4.095  13.920  0.5844 -0.1085  0.9009
11471TIP3    H255905   6.304   4.190  14.032 -0.1345 -1.2639  1.6680
11472TIP3   OH255906   2.211   2.287  14.897  0.0551  0.2858 -0.2985
11472TIP3    H155907   2.161   2.232  14.957  0.5182 -1.5379 -1.5108
11472TIP3    H255908   2.269   2.338  14.953 -2.6717  2.0596  1.1106
11473TIP3   OH255909   0.821   0.504  16.321 -0.1099 -0.1865 -0.4427
11473TIP3    H155910   0.788   0.445  16.254 -0.1471  0.0280 -0.6142
11473TIP3    H255911   0.899   0.544  16.283 -1.6754  2.0823 -1.5353
11474TIP3   OH255912   1.959   3.604  10.851 -0.1083 -0.3964 -0.2297
11474TIP3    H155913   1.986   3.668  10.785 -1.3113  0.4117  0.0220
11474TIP3    H255914   1.903   3.542  10.804 -1.8469  0.7864  0.1811
11475TIP3   OH255915   2.099   5.041  11.563 -0.4090  0.4146 -0.6024
11475TIP3    H155916   2.173   4.981  11.564 -0.4350  0.3382  1.3128
11475TIP3    H255917   2.132   5.120  11.606 -1.3952  0.4161  0.1953
11476TIP3   OH255918   3.755   1.640  15.815 -0.3805 -0.0997 -0.1699
11476TIP3    H155919   3.665   1.668  15.795 -0.2068 -0.4902 -1.6387
11476TIP3    H255920   3.745   1.558  15.863 -0.8389  1.0741  1.8319
11477TIP3   OH255921   1.081   0.801   6.323  0.3439 -0.1294 -0.0092
11477TIP3    H155922   1.093   0.802   6.418  1.1554 -0.7990 -0.0901
11477TIP3    H255923   1.126   0.880   6.292 -2.4309  1.7197  0.3906
11478TIP3   OH255924   0.865   2.517  14.944 -0.2215  0.0639  0.0126
11478TIP3    H155925   0.928   2.446  14.936  0.7678  0.8282  0.6878
11478TIP3    H255926   0.913   2.587  14.988 -0.6875  1.7424 -1.9785
11479TIP3   OH255927   4.534   0.069   4.673 -0.2581  0.3294  0.3306
11479TIP3    H155928   4.512   0.048   4.764 -1.6924  0.1241 -0.0453
11479TIP3    H255929   4.563  -0.015   4.636  3.0041  0.9176  1.2780
11480TIP3   OH255930   2.796   6.569  11.221 -0.0951 -0.4032 -0.0127
11480TIP3    H155931   2.847   6.597  11.144  0.6119 -1.2848  0.1045
11480TIP3    H255932   2.741   6.497  11.188 -0.2264 -0.3867  0.1706
11481TIP3   OH255933   5.831   3.869  13.131 -0.4117  0.1783 -0.8296
11481TIP3    H155934   5.828   3.911  13.045 -0.3003  0.5213 -0.6649
11481TIP3    H255935   5.907   3.907  13.175  0.3955 -1.0483 -1.1154
11482TIP3   OH255936   4.606   5.433  14.056 -0.2590  0.3292  0.2395
11482TIP3    H155937   4.562   5.515  14.079  0.2008  0.3795  0.9648
11482TIP3    H255938   4.674   5.459  13.994 -0.3488  0.4464  0.1902
11483TIP3   OH255939   5.108   4.551   0.994  0.3553 -0.0204 -0.3838
11483TIP3    H155940   5.197   4.537   1.026  0.8093 -1.0140 -1.9503
11483TIP3    H255941   5.081   4.466   0.960 -1.0966  0.3396 -0.1996
11484TIP3   OH255942   5.146   2.602  15.088  0.2963  0.5593 -0.1136
11484TIP3    H155943   5.207   2.597  15.162  1.0549  1.0697 -0.6815
11484TIP3    H255944   5.193   2.561  15.016 -1.5980 -2.7340  0.3435
11485TIP3   OH255945   6.017   1.449   1.757 -0.6408  0.4062 -0.7511
11485TIP3    H155946   5.928   1.457   1.790 -0.6944  0.5141 -0.9227
11485TIP3    H255947   6.058   1.533   1.778 -0.1822 -0.1031  0.5035
11486TIP3   OH255948   6.310   4.769   2.959  0.0310  0.1444  0.7957
11486TIP3    H155949   6.288   4.857   2.991 -1.9020 -0.6518  1.8440
11486TIP3    H255950   6.358   4.784   2.878  0.0132  2.1711  1.1092
11487TIP3   OH255951   3.924   0.709  11.566 -0.0399 -0.0090 -0.3421
11487TIP3    H155952   3.940   0.722  11.660 -3.6799 -0.0753  0.4521
11487TIP3    H255953   3.869   0.783  11.541 -0.3117 -0.7590 -2.0734
11488TIP3   OH255954   0.447   5.284   0.017  0.4231  0.1008 -0.6266
11488TIP3    H155955   0.488   5.205   0.053 -0.9575 -0.6872 -0.7115
11488TIP3    H255956   0.502   5.356   0.047  1.5333 -0.8612 -0.2770
11489TIP3   OH255957   2.976   1.499  16.199 -0.6039  0.0802  0.2751
11489TIP3    H155958   2.900   1.516  16.144 -0.2439 -1.2504 -0.6878
11489TIP3    H255959   2.941   1.446  16.271 -0.5263 -1.0238 -0.4706
11490TIP3   OH255960   0.190   1.431  10.146  0.0029  0.7154  0.6022
11490TIP3    H155961   0.182   1.521  10.177  1.3935  0.6811  1.1483
11490TIP3    H255962   0.172   1.377  10.223 -0.3859  0.5312  0.3857
11491TIP3   OH255963   5.165   0.402  15.549  0.5612  0.3953 -0.0661
11491TIP3    H155964   5.089   0.423  15.604 -0.8328 -0.7778 -1.4183
11491TIP3    H255965   5.208   0.330  15.594 -1.6902 -1.8976 -1.3101
11492TIP3   OH255966   6.431   4.870  12.829 -0.3842  0.5663 -0.2032
11492TIP3    H155967   6.435   4.794  12.771 -0.9564 -0.3759  0.9610
11492TIP3    H255968   6.480   4.843  12.907  0.5360  1.8842 -0.2944
11493TIP3   OH255969   1.138   6.585   1.506  0.2311  0.2535 -0.3844
11493TIP3    H155970   1.055   6.629   1.528  0.6237  0.7664  0.0958
11493TIP3    H255971   1.120   6.540   1.424 -0.4860  0.4790 -0.3600
11494TIP3   OH255972   5.602   4.690   2.241 -0.3246  0.5981 -0.1565
11494TIP3    H155973   5.678   4.665   2.188 -1.6844 -1.5125 -1.2822
11494TIP3    H255974   5.629   4.672   2.331  0.3848 -0.6367 -0.5800
11495TIP3   OH255975   0.344   4.527  13.912 -0.5170  0.6600 -0.0083
11495TIP3    H155976   0.343   4.614  13.871  0.4458  1.2910  1.2257
11495TIP3    H255977   0.419   4.482  13.872  0.3514  1.2324  0.9316
11496TIP3   OH255978   4.123   1.853  11.466  0.3684  0.0186  0.1570
11496TIP3    H155979   4.152   1.891  11.383 -0.6699 -1.1630 -0.7811
11496TIP3    H255980   4.198   1.801  11.495  0.4081 -0.3345 -0.5450
11497TIP3   OH255981   1.826   1.883  14.638 -0.1782 -0.2598 -0.8356
11497TIP3    H155982   1.792   1.821  14.703 -0.2395 -0.3131 -0.9187
11497TIP3    H255983   1.761   1.883  14.568  0.0060 -0.3855 -1.0075
11498TIP3   OH255984   1.778   1.484   4.690 -0.0103 -0.0816  0.7746
11498TIP3    H155985   1.868   1.458   4.707 -0.2187 -0.4545  1.3522
11498TIP3    H255986   1.777   1.514   4.599  0.7473  0.1692  0.8489
11499TIP3   OH255987   6.136   1.897   0.338 -0.3710 -0.1211 -0.1330
11499TIP3    H155988   6.170   1.886   0.249 -0.2563  2.7262 -0.5382
11499TIP3    H255989   6.074   1.825   0.349  0.2368 -1.0490 -2.1848
11500TIP3   OH255990   6.764   5.217   1.494 -0.1041  0.1212 -0.6872
11500TIP3    H155991   6.714   5.299   1.499  1.6513  1.1991  0.3256
11500TIP3    H255992   6.732   5.165   1.568 -0.5947  0.2487 -0.8002
11501TIP3   OH255993   2.902   2.016   2.507 -0.3093  0.0700  0.8016
11501TIP3    H155994   2.947   1.962   2.442  0.7409  0.2113  1.3967
11501TIP3    H255995   2.815   2.029   2.470 -0.4093 -1.5635  0.3845
11502TIP3   OH255996   0.553   5.397   4.354 -0.2145 -0.0951  0.0501
11502TIP3    H155997   0.576   5.460   4.422 -1.2187 -1.2909  1.5624
11502TIP3    H255998   0.548   5.449   4.274 -1.8862  1.9179  1.3697
11503TIP3   OH255999   5.957   1.465  14.682  0.0333  0.3454 -0.1935
11503TIP3    H156000   5.921   1.395  14.737 -1.0267  0.2495 -0.9693
11503TIP3    H256001   5.882   1.495  14.630  0.6730  1.4708 -0.4928
11504TIP3   OH256002   4.321   3.670   3.895 -0.3192 -0.2901 -0.4029
11504TIP3    H156003   4.344   3.577   3.899 -0.1853 -0.2426  0.0212
11504TIP3    H256004   4.405   3.716   3.895 -0.3922 -0.1562 -0.2103
11505TIP3   OH256005   0.128   2.336  11.074 -0.3209 -0.3232  0.2243
11505TIP3    H156006   0.055   2.352  11.134 -0.2261 -0.1922  0.3072
11505TIP3    H256007   0.117   2.401  11.005 -1.2414 -1.3898 -0.6667
11506TIP3   OH256008   4.763   5.748  13.013  0.0344  0.3050  0.2843
11506TIP3    H156009   4.819   5.751  13.090  0.7515  0.7135 -0.2405
11506TIP3    H256010   4.796   5.675  12.961 -0.1731  0.3003  0.1567
11507TIP3   OH256011   1.409   3.296  12.005 -0.4744  0.2319 -0.6823
11507TIP3    H156012   1.489   3.339  12.037 -0.1033 -0.0442 -1.2211
11507TIP3    H256013   1.369   3.359  11.946 -0.5844  0.3184 -0.5148
11508TIP3   OH256014   3.000   6.649   3.612 -0.5857  0.3790  0.5680
11508TIP3    H156015   2.996   6.744   3.609 -0.9505  0.3859  1.1039
11508TIP3    H256016   3.067   6.625   3.548 -1.4547  0.9121 -0.5692
11509TIP3   OH256017   0.378   3.326  16.499 -0.5216 -0.0491  0.4824
11509TIP3    H156018   0.368   3.391  16.568 -1.1823  0.8989 -0.4715
11509TIP3    H256019   0.289   3.316  16.463 -0.3603 -1.1995  0.3537
11510TIP3   OH256020   2.337   5.547   1.578 -0.5361  0.0323  0.5371
11510TIP3    H156021   2.325   5.459   1.542 -1.8364  0.1854  0.5419
11510TIP3    H256022   2.400   5.589   1.520 -1.8773 -0.0381 -1.0663
11511TIP3   OH256023   3.610   2.985  11.499 -0.3235  0.4112  0.0375
11511TIP3    H156024   3.642   2.985  11.409  0.6342  0.8784  0.3640
11511TIP3    H256025   3.543   2.917  11.501 -1.0241  1.0327 -1.2602
11512TIP3   OH256026   4.356   3.918  16.338 -0.4778  0.4087  0.4648
11512TIP3    H156027   4.418   3.872  16.394 -1.1088  0.3176  1.1032
11512TIP3    H256028   4.330   3.995  16.389  0.1888  1.2230 -0.3844
11513TIP3   OH256029   0.899   1.837  16.836 -0.0454  0.4226  0.1515
11513TIP3    H156030   0.983   1.793  16.823  0.5751  2.1239 -2.3658
11513TIP3    H256031   0.843   1.805  16.765 -0.6684  1.1765  0.2810
11514TIP3   OH256032   3.287   6.821   1.154  0.0922 -0.1916 -0.2483
11514TIP3    H156033   3.265   6.885   1.087 -1.0464  1.3527  1.4860
11514TIP3    H256034   3.338   6.871   1.218 -1.6572 -0.7026  1.6400
11515TIP3   OH256035   6.277   0.180  15.285 -0.1398  0.3253 -0.5342
11515TIP3    H156036   6.297   0.258  15.233 -0.3442  0.1432 -0.8879
11515TIP3    H256037   6.231   0.122  15.224 -1.5296  0.6290  0.1841
11516TIP3   OH256038   1.581   2.853  11.753 -0.1055 -0.1139  0.8702
11516TIP3    H156039   1.508   2.837  11.812 -0.3782 -1.1489  0.2766
11516TIP3    H256040   1.541   2.882  11.671  0.1584 -0.3555  0.6518
11517TIP3   OH256041   2.609   5.846  11.008 -0.0627 -0.7636  0.4550
11517TIP3    H156042   2.635   5.906  10.939 -1.3411 -1.5053 -0.7345
11517TIP3    H256043   2.642   5.760  10.979 -0.8243 -1.1247  0.6284
11518TIP3   OH256044   6.662   0.622  12.238 -0.5300  0.2184 -0.3432
11518TIP3    H156045   6.610   0.579  12.170 -0.0767 -0.5161 -0.2395
11518TIP3    H256046   6.743   0.572  12.241  1.5080  3.1046 -2.5797
11519TIP3   OH256047   6.555   0.415   4.687  0.9997  0.0020 -0.4007
11519TIP3    H156048   6.544   0.489   4.627  1.0360  1.0711  0.8576
11519TIP3    H256049   6.507   0.343   4.646 -0.7937  1.3030 -0.6860
11520TIP3   OH256050   2.415   4.366   5.004  0.4109  0.5506  0.1940
11520TIP3    H156051   2.480   4.432   4.981  0.2803  0.5381 -0.2083
11520TIP3    H256052   2.463   4.301   5.055  0.3127  1.5253  1.5886
11521TIP3   OH256053   5.963   4.931  15.429  0.2295  0.3721  0.0474
11521TIP3    H156054   5.974   5.001  15.494  0.2180 -0.4814  0.9841
11521TIP3    H256055   5.869   4.912  15.430  0.5112 -1.1622  1.4319
11522TIP3   OH256056   4.869   5.414   2.152 -0.3059 -1.0048 -0.4147
11522TIP3    H156057   4.784   5.458   2.140  0.7178  1.1291 -0.2566
11522TIP3    H256058   4.861   5.333   2.103 -2.1271 -0.4289 -1.1633
11523TIP3   OH256059   0.282   1.730   3.003  0.1640  0.2587  0.2344
11523TIP3    H156060   0.270   1.636   3.014 -0.3031  0.3410  0.4144
11523TIP3    H256061   0.377   1.742   3.003  0.2172 -0.0823  1.3252
11524TIP3   OH256062   1.743   0.788   2.858  0.0064 -0.6145 -0.0660
11524TIP3    H156063   1.694   0.857   2.903  0.4502 -0.4472  0.1704
11524TIP3    H256064   1.740   0.812   2.766  0.9474  0.2412  0.1062
11525TIP3   OH256065   0.913   1.120   6.304  0.0186 -0.1744 -0.4931
11525TIP3    H156066   0.910   1.059   6.230 -1.0418 -1.0493  0.2252
11525TIP3    H256067   1.006   1.131   6.324  0.2641 -0.7804 -1.2748
11526TIP3   OH256068   5.496   0.056   4.641 -0.3089 -0.1070  0.1588
11526TIP3    H156069   5.566   0.113   4.674 -0.1975 -0.2270  0.1331
11526TIP3    H256070   5.424   0.115   4.620  0.1688  0.1377 -0.8330
11527TIP3   OH256071   0.176   2.723   4.640  0.3551  0.3984 -0.0349
11527TIP3    H156072   0.232   2.788   4.684  1.3979 -0.9043  0.6605
11527TIP3    H256073   0.093   2.769   4.625  1.1604  1.9922  0.0943
11528TIP3   OH256074   3.752   0.987   3.552  0.0048 -0.2787  0.6214
11528TIP3    H156075   3.827   0.940   3.517  1.1186  1.8354 -0.0455
11528TIP3    H256076   3.789   1.048   3.616 -0.9368  1.4604 -0.3915
11529TIP3   OH256077   0.655   5.488  12.228 -0.1210 -0.0144 -0.1891
11529TIP3    H156078   0.609   5.405  12.218  0.2825 -0.3272  0.5001
11529TIP3    H256079   0.613   5.530  12.303 -0.0132  0.1927 -0.2429
11530TIP3   OH256080   5.817   5.293   5.373 -0.3145  0.2615 -0.2746
11530TIP3    H156081   5.792   5.263   5.461 -0.4956  1.5510  0.1359
11530TIP3    H256082   5.907   5.262   5.362 -0.8170 -1.2754 -0.2910
11531TIP3   OH256083   6.183   5.446  11.721  0.4600  0.0059 -0.5744
11531TIP3    H156084   6.128   5.512  11.763  0.6714 -1.0162  1.3856
11531TIP3    H256085   6.131   5.416  11.646 -1.0611  0.0226  0.4363
11532TIP3   OH256086   0.582   2.202  14.499 -0.2629  0.0883  0.1885
11532TIP3    H156087   0.672   2.173  14.485  0.1313  1.8355 -1.1941
11532TIP3    H256088   0.561   2.173  14.588  1.4568 -0.8364  0.3364
11533TIP3   OH256089   2.378   1.955   0.989  0.0122  0.6356 -0.2232
11533TIP3    H156090   2.386   1.982   0.897  0.2613 -2.9975 -1.4005
11533TIP3    H256091   2.319   1.880   0.988 -1.5084  1.6074  2.9305
11534TIP3   OH256092   6.280   6.357   5.331 -0.1323 -0.2601  0.0292
11534TIP3    H156093   6.280   6.447   5.300  0.3577 -0.7445 -1.4808
11534TIP3    H256094   6.285   6.364   5.427 -0.5859  1.2995 -0.0413
11535TIP3   OH256095   2.386   4.931   0.326 -0.4825 -0.2069 -1.2038
11535TIP3    H156096   2.410   4.987   0.253  3.0817 -1.1458 -0.9150
11535TIP3    H256097   2.406   4.842   0.296 -1.2897 -0.8635  0.0833
11536TIP3   OH256098   0.171   0.723  13.111  0.5612  0.4412 -0.1830
11536TIP3    H156099   0.125   0.788  13.059  0.8850  1.3447  0.6341
11536TIP3    H256100   0.216   0.667  13.048 -2.0961 -0.8633 -1.0796
11537TIP3   OH256101   1.078   0.918   3.439 -0.5580 -0.0038 -0.1765
11537TIP3    H156102   1.101   0.852   3.374  1.2764  0.2382  0.1689
11537TIP3    H256103   1.118   0.999   3.407  0.8990  0.0028  1.4792
11538TIP3   OH256104   0.841   0.626  15.812 -0.5098  0.0025 -0.1387
11538TIP3    H156105   0.768   0.682  15.788 -1.2254 -1.2925 -1.0856
11538TIP3    H256106   0.803   0.538  15.819  1.0673 -0.8448 -1.4457
11539TIP3   OH256107   5.961   0.211  12.124  0.3860  0.3465  0.0795
11539TIP3    H156108   5.891   0.168  12.172  1.6736 -2.9042 -0.6468
11539TIP3    H256109   6.026   0.232  12.191  0.8109 -1.2701  0.2292
11540TIP3   OH256110   5.010   4.545   0.577  0.1683 -0.0167 -0.2771
11540TIP3    H156111   5.095   4.589   0.577  0.5476 -0.7271 -0.5034
11540TIP3    H256112   4.984   4.541   0.485  0.1568 -0.2925 -0.2645
11541TIP3   OH256113   4.480   5.946  15.005 -0.3950  0.3640 -0.3787
11541TIP3    H156114   4.478   6.023  14.948  0.3282  0.3374 -0.4458
11541TIP3    H256115   4.556   5.896  14.976 -0.9693 -0.4827 -0.4602
11542TIP3   OH256116   4.039   3.574  16.243 -0.3026  0.0551 -0.0060
11542TIP3    H156117   4.050   3.507  16.310 -1.5485 -0.7036 -0.5321
11542TIP3    H256118   4.127   3.610  16.231  0.0227 -0.0899  1.7022
11543TIP3   OH256119   1.714   1.384  13.041 -0.2041  0.1465 -0.6799
11543TIP3    H156120   1.675   1.328  13.107  0.9737 -0.5375 -0.5268
11543TIP3    H256121   1.643   1.402  12.979 -1.0509 -0.0436  0.2182
11544TIP3   OH256122   6.726   3.466  16.362  0.4771  0.3860  0.3795
11544TIP3    H156123   6.672   3.545  16.366  0.0651  0.0817  1.0083
11544TIP3    H256124   6.665   3.396  16.338  1.1066  0.4851 -1.6888
11545TIP3   OH256125   2.110   3.055  14.110  0.9462  0.0999 -0.2508
11545TIP3    H156126   2.021   3.046  14.074  0.7109  0.0319  0.3342
11545TIP3    H256127   2.167   3.031  14.037  0.4470 -1.9117 -0.0398
11546TIP3   OH256128   1.645   5.239   3.785 -0.6123  0.1083  0.0667
11546TIP3    H156129   1.685   5.156   3.809 -1.0028 -0.2346 -0.4519
11546TIP3    H256130   1.550   5.222   3.788 -0.7572  0.9840  1.5583
11547TIP3   OH256131   1.021   2.528  15.307 -0.1446  0.0557  0.4379
11547TIP3    H156132   1.046   2.493  15.392  0.4469 -2.3436 -0.6333
11547TIP3    H256133   1.085   2.490  15.246 -1.0669  1.0008 -1.1902
11548TIP3   OH256134   6.257   6.725   1.196  0.1178  0.5400 -0.0686
11548TIP3    H156135   6.352   6.733   1.188  0.2259 -0.2423  0.3457
11548TIP3    H256136   6.237   6.757   1.284  0.1291 -0.2744  0.2382
11549TIP3   OH256137   3.267   2.055   4.833 -0.1193  0.2304 -0.0018
11549TIP3    H156138   3.193   1.998   4.855  1.4365 -1.6789  0.6180
11549TIP3    H256139   3.312   2.008   4.763  1.3019  0.5965  0.6329
11550TIP3   OH256140   1.414   2.012  12.848  0.1031 -0.3334 -0.2483
11550TIP3    H156141   1.364   2.081  12.890  0.9926  0.3465 -0.2745
11550TIP3    H256142   1.353   1.939  12.840 -0.5662  0.1166  0.6584
11551TIP3   OH256143   1.793   5.678   5.564  0.7790  0.0212  0.1108
11551TIP3    H156144   1.854   5.750   5.579  1.2951 -0.4640  0.3582
11551TIP3    H256145   1.707   5.721   5.562  1.2280  1.0008 -2.2344
11552TIP3   OH256146   5.396   0.372   2.320  0.0717 -0.3308  0.0685
11552TIP3    H156147   5.348   0.383   2.239 -0.8216 -0.2314  0.5988
11552TIP3    H256148   5.364   0.290   2.357 -2.5542  1.5034  2.2724
11553TIP3   OH256149   6.626   1.862  12.025 -0.3658  0.0418 -0.3793
11553TIP3    H156150   6.692   1.929  12.008 -0.5139  0.6297  1.1687
11553TIP3    H256151   6.551   1.911  12.058  0.5949 -0.9596  3.9157
11554TIP3   OH256152   0.373   1.394   0.811  0.5536 -0.3098  0.2818
11554TIP3    H156153   0.356   1.369   0.720 -0.7003 -3.1241  1.1584
11554TIP3    H256154   0.442   1.334   0.839 -0.7036 -1.1345  1.7890
11555TIP3   OH256155   1.086   6.569   5.701  0.1638  0.1168  0.3398
11555TIP3    H156156   1.052   6.629   5.635 -0.8014  1.4168  1.9441
11555TIP3    H256157   1.026   6.577   5.775  1.1446 -1.3450  1.3685
11556TIP3   OH256158   1.367   3.247  16.279  0.0957 -0.1286  0.2588
11556TIP3    H156159   1.380   3.183  16.209  0.3114 -0.8572  0.9506
11556TIP3    H256160   1.321   3.198  16.348  2.1232 -0.1560  1.6647
11557TIP3   OH256161   0.091   5.112  13.024  0.5525  0.6544 -0.4034
11557TIP3    H156162   0.180   5.132  13.052  0.2796  1.8686 -0.3551
11557TIP3    H256163   0.038   5.186  13.054 -0.3253  0.3766 -1.1836
11558TIP3   OH256164   0.309   0.051  14.620  0.0130  0.1486 -0.6340
11558TIP3    H156165   0.354   0.084  14.542  0.4398 -1.2703 -1.0106
11558TIP3    H256166   0.371  -0.008  14.661  0.3587  1.9557  1.6484
11559TIP3   OH256167   5.014   0.385   0.601 -0.2287  0.1084  0.5562
11559TIP3    H156168   5.102   0.377   0.564  0.0295 -1.8380  1.4527
11559TIP3    H256169   5.017   0.465   0.654  1.4359 -0.6200  1.6221
11560TIP3   OH256170   3.078   2.288   5.555 -0.1371 -1.0571  0.1540
11560TIP3    H156171   3.124   2.275   5.638  1.0093  0.0762 -0.2789
11560TIP3    H256172   3.013   2.217   5.552  0.0269 -1.3135  1.8507
11561TIP3   OH256173   0.621   6.217  14.604  0.5257 -0.7575  0.3655
11561TIP3    H156174   0.671   6.202  14.524 -0.0768 -1.7651  0.1603
11561TIP3    H256175   0.599   6.129  14.635 -2.5098 -0.3885 -0.4429
11562TIP3   OH256176   3.952   4.546   0.914 -0.2882  0.2171  0.3721
11562TIP3    H156177   3.878   4.542   0.975 -0.5855  0.2907  0.0188
11562TIP3    H256178   3.995   4.629   0.935  0.1474 -0.1768  1.0911
11563TIP3   OH256179   0.077   3.477   2.066  0.0313 -0.6256  0.0627
11563TIP3    H156180   0.128   3.413   2.017  1.2605  0.5695 -0.3115
11563TIP3    H256181   0.142   3.526   2.117 -0.8818  0.1561  0.5259
11564TIP3   OH256182   2.091   2.396   3.257  0.2005  0.2254 -0.6973
11564TIP3    H156183   2.141   2.353   3.326 -1.5465 -1.1301 -0.1883
11564TIP3    H256184   2.032   2.456   3.303  0.7286  1.1798 -1.2229
11565TIP3   OH256185   0.751   4.162   3.942  0.2795  0.1514  0.3547
11565TIP3    H156186   0.656   4.176   3.939  0.3544  0.8707  1.2331
11565TIP3    H256187   0.785   4.237   3.989  1.2339 -0.4083  0.5712
11566TIP3   OH256188   5.093   1.997   4.911 -1.0152  0.0907 -0.2077
11566TIP3    H156189   5.169   1.949   4.943  0.0977  1.6765 -0.3494
11566TIP3    H256190   5.021   1.935   4.919  0.1079 -1.1618  0.8120
11567TIP3   OH256191   2.634   4.239   3.578  0.0218  0.2470  0.3442
11567TIP3    H156192   2.560   4.206   3.630  1.3205 -2.2779  0.7521
11567TIP3    H256193   2.611   4.218   3.488  0.1333 -0.3787  0.4544
11568TIP3   OH256194   6.311   1.140  14.646  0.3292 -0.6153 -0.3450
11568TIP3    H156195   6.296   1.133  14.740  0.2487 -2.0817 -0.4341
11568TIP3    H256196   6.286   1.230  14.624  0.1831 -0.3032  0.9977
11569TIP3   OH256197   1.131   2.689   3.153 -0.1083 -0.0497 -0.3225
11569TIP3    H156198   1.093   2.611   3.194  0.3040  0.5138  1.1829
11569TIP3    H256199   1.223   2.666   3.137  0.2020  0.3629  0.8018
11570TIP3   OH256200   6.382   0.277  14.892 -0.1691 -0.2678 -0.1460
11570TIP3    H156201   6.347   0.334  14.960 -0.2125  1.6095 -1.6759
11570TIP3    H256202   6.477   0.287  14.898 -0.1550 -0.3939 -0.1443
11571TIP3   OH256203   3.221   5.321  13.463 -0.2652 -0.0986  0.0537
11571TIP3    H156204   3.312   5.314  13.435 -0.1985  0.8358 -0.0002
11571TIP3    H256205   3.202   5.237  13.504  0.6727 -0.2364  0.2321
11572TIP3   OH256206   1.327   6.178  14.505  0.3609 -0.1800 -0.1011
11572TIP3    H156207   1.339   6.103  14.447 -0.4720 -0.3462 -0.0719
11572TIP3    H256208   1.396   6.170  14.571  1.5861  0.2357 -1.2875
11573TIP3   OH256209   2.919   0.538   4.088 -0.0051  0.4756  0.1323
11573TIP3    H156210   2.993   0.530   4.028 -0.4314  2.8225 -0.7941
11573TIP3    H256211   2.859   0.468   4.061  0.1910  0.9484 -1.6516
11574TIP3   OH256212   4.454   1.652  13.171 -0.1381 -0.2039  0.0815
11574TIP3    H156213   4.482   1.742  13.191  0.9116 -0.7727  1.2533
11574TIP3    H256214   4.442   1.610  13.256 -1.9531 -0.8160 -0.4242
11575TIP3   OH256215   1.814   6.381   1.103 -0.0522 -0.1519 -0.0803
11575TIP3    H156216   1.816   6.449   1.170 -0.7599  0.5628 -0.7790
11575TIP3    H256217   1.721   6.364   1.088  0.0065  0.9531 -2.1182
11576TIP3   OH256218   4.785   3.878  13.189 -0.9202 -0.4527  0.4150
11576TIP3    H156219   4.690   3.870  13.199 -0.9720 -0.3218  0.0334
11576TIP3    H256220   4.811   3.943  13.254 -1.2606  0.4298 -0.3035
11577TIP3   OH256221   5.060   2.089  11.219  0.3915  0.0925  0.2193
11577TIP3    H156222   5.054   2.159  11.154  0.5463 -1.2426 -1.2877
11577TIP3    H256223   5.131   2.117  11.277  0.1347  1.3985 -0.0628
11578TIP3   OH256224   2.704   6.308   0.271 -0.1737 -0.3187 -0.3532
11578TIP3    H156225   2.631   6.357   0.234  1.0207  3.3341  1.5772
11578TIP3    H256226   2.700   6.327   0.365  1.8247 -2.0077  0.1457
11579TIP3   OH256227   5.669   5.505   1.592  0.1978 -0.1779 -0.4212
11579TIP3    H156228   5.593   5.460   1.629  0.6235 -0.8047 -0.2886
11579TIP3    H256229   5.678   5.468   1.504 -0.2131  0.5820 -0.7884
11580TIP3   OH256230   3.418   6.296   0.600  0.1571  0.3522 -0.1148
11580TIP3    H156231   3.431   6.292   0.505  2.7965  2.6303  0.0347
11580TIP3    H256232   3.435   6.207   0.630  1.7940  0.1172 -1.5692
11581TIP3   OH256233   1.914   0.847  13.965  0.1676 -0.6405 -0.4985
11581TIP3    H156234   1.981   0.893  13.913  0.0424  1.1698  0.8310
11581TIP3    H256235   1.964   0.786  14.019  0.4364 -1.4425 -1.6147
11582TIP3   OH256236   1.321   0.925  16.175 -0.4960 -0.2081  0.9316
11582TIP3    H156237   1.284   0.915  16.088  1.0758 -1.2946  0.3556
11582TIP3    H256238   1.301   1.016  16.199 -0.8846  0.1297 -0.5801
11583TIP3   OH256239   4.389   1.121  16.126  0.5664 -0.6278 -0.4416
11583TIP3    H156240   4.450   1.077  16.184 -0.9384 -2.0675  0.1534
11583TIP3    H256241   4.303   1.088  16.152 -0.3550  0.2734 -2.1212
11584TIP3   OH256242   3.161   1.162  15.647 -0.1737 -0.0791  0.2354
11584TIP3    H156243   3.127   1.250  15.665 -0.2082 -0.0766  0.1616
11584TIP3    H256244   3.224   1.175  15.576 -1.3162 -0.3103 -0.8748
11585TIP3   OH256245   5.010   2.296  13.359  0.2757 -0.3534  0.4576
11585TIP3    H156246   4.965   2.212  13.370  0.0198 -0.2669  0.0683
11585TIP3    H256247   5.026   2.326  13.449  1.1615 -1.2344  0.6259
11586TIP3   OH256248   3.707   1.842  15.071 -0.4181  0.5980 -0.0780
11586TIP3    H156249   3.792   1.870  15.105  0.9107 -2.5706 -0.5030
11586TIP3    H256250   3.657   1.818  15.149 -0.5691  1.4695  0.1045
11587TIP3   OH256251   2.258   0.950   0.063 -0.4578 -0.3919  0.3508
11587TIP3    H156252   2.183   1.003   0.037  0.8564  2.0989  1.3308
11587TIP3    H256253   2.266   0.963   0.157  3.2327  2.4637 -0.1067
11588TIP3   OH256254   6.750   4.190   0.722 -0.0650 -0.1273  0.1216
11588TIP3    H156255   6.807   4.236   0.784 -1.4636 -0.3743  1.6364
11588TIP3    H256256   6.753   4.099   0.750 -1.9093  0.0004  0.8266
11589TIP3   OH256257   6.681   0.438  10.809 -0.1784  0.1496 -0.1520
11589TIP3    H156258   6.639   0.391  10.737  1.0005  1.0703 -1.5001
11589TIP3    H256259   6.627   0.515  10.823  1.0635  1.4495 -2.0364
11590TIP3   OH256260   3.724   6.082  12.738 -0.1583  0.0207 -0.5551
11590TIP3    H156261   3.786   6.010  12.727 -0.9890 -0.5314 -1.7402
11590TIP3    H256262   3.780   6.160  12.742  0.8565 -0.7212  2.1481
11591TIP3   OH256263   4.605   0.749   2.482  0.1094  0.4335  0.3232
11591TIP3    H156264   4.685   0.736   2.431 -0.0728 -0.2761  0.2178
11591TIP3    H256265   4.565   0.828   2.444  0.2762  0.2508 -0.2393
11592TIP3   OH256266   1.576   6.775  11.096  0.2806  0.2921 -0.2472
11592TIP3    H156267   1.648   6.837  11.085  0.8014  0.1384  1.9242
11592TIP3    H256268   1.544   6.789  11.185 -0.1301 -1.9618  0.0368
11593TIP3   OH256269   3.809   3.603   2.624 -0.2277 -0.0283  0.1217
11593TIP3    H156270   3.860   3.527   2.653  0.4299 -0.3965 -1.8991
11593TIP3    H256271   3.785   3.647   2.706  1.1537 -1.2460  1.2484
11594TIP3   OH256272   5.971   5.647   2.012 -0.4527  0.4684  0.1107
11594TIP3    H156273   5.920   5.726   1.994  3.8388  3.5137 -0.2264
11594TIP3    H256274   5.946   5.586   1.943 -2.4622  2.3133 -0.9169
11595TIP3   OH256275   1.163   1.737  14.179 -0.0406 -0.2856 -0.1855
11595TIP3    H156276   1.130   1.709  14.264 -0.5054  0.6225 -0.0503
11595TIP3    H256277   1.134   1.828  14.171  3.3903  1.0437  0.4686
11596TIP3   OH256278   6.769   1.991   0.249 -0.6996  0.0158  0.5489
11596TIP3    H156279   6.859   1.981   0.217 -0.3908  0.4924  1.2212
11596TIP3    H256280   6.761   2.085   0.267 -1.6178  0.1081 -0.2918
11597TIP3   OH256281   1.175   3.372   4.819 -0.4782  0.7038 -0.3905
11597TIP3    H156282   1.208   3.313   4.887 -0.4953  1.8435  0.6572
11597TIP3    H256283   1.242   3.371   4.751 -0.3971 -0.3574 -0.3195
11598TIP3   OH256284   3.502   6.776  15.095 -0.1377 -0.1128 -0.7270
11598TIP3    H156285   3.553   6.856  15.084  0.3637 -0.3718 -0.2842
11598TIP3    H256286   3.469   6.780  15.185  0.9227 -0.9942 -0.2769
11599TIP3   OH256287   1.586   0.273  15.333  0.1323  0.8653  0.9926
11599TIP3    H156288   1.499   0.313  15.333  0.5689  1.8550  0.3993
11599TIP3    H256289   1.633   0.321  15.401  0.3621  0.6901  0.9551
11600TIP3   OH256290   5.761   2.522  14.340 -0.0776  0.0329 -0.1299
11600TIP3    H156291   5.827   2.586  14.367  0.1842  0.2862 -1.3167
11600TIP3    H256292   5.679   2.556  14.374  0.2615  0.2229  0.5196
11601TIP3   OH256293   5.614   4.882   1.036  0.2930  0.7569  0.7026
11601TIP3    H156294   5.697   4.859   1.078  0.2521  0.2118  0.4955
11601TIP3    H256295   5.573   4.797   1.016  1.3093  0.8675 -2.4511
11602TIP3   OH256296   2.154   5.158   1.266  0.4817 -0.0825 -0.0431
11602TIP3    H156297   2.112   5.082   1.306 -0.2889  0.9136  1.1114
11602TIP3    H256298   2.106   5.233   1.300  0.2838  0.8854 -2.2711
11603TIP3   OH256299   0.213   1.431   2.148 -0.1062 -0.1174  0.1839
11603TIP3    H156300   0.158   1.493   2.099  0.5274  1.9780  1.9218
11603TIP3    H256301   0.184   1.442   2.239  2.3474  0.1753  0.9925
11604TIP3   OH256302   0.431   1.766  16.448 -0.0413  0.6751  0.4469
11604TIP3    H156303   0.476   1.820  16.513 -0.7125  1.3640  0.3546
11604TIP3    H256304   0.488   1.768  16.371  0.9148 -0.4026  1.0911
11605TIP3   OH256305   4.563   0.695   3.447  0.2379 -0.3430 -0.4897
11605TIP3    H156306   4.468   0.695   3.462  0.3577 -1.1554  0.3228
11605TIP3    H256307   4.579   0.777   3.400 -1.1615 -1.2435 -2.6830
11606TIP3   OH256308   5.564   1.349   5.484 -0.4042  0.1655 -0.5372
11606TIP3    H156309   5.588   1.440   5.497 -0.5454 -0.0701  1.7475
11606TIP3    H256310   5.537   1.344   5.392  0.9871  2.0756 -1.1109
11607TIP3   OH256311   2.196   2.566   2.380 -0.2992  0.2803  0.0678
11607TIP3    H156312   2.191   2.660   2.400 -0.3652  0.3762 -0.3857
11607TIP3    H256313   2.169   2.523   2.461  0.8806  0.6215  0.6574
11608TIP3   OH256314   5.745   6.311  12.825  0.3028 -0.4463  0.1409
11608TIP3    H156315   5.786   6.248  12.885 -0.0301 -0.7279  0.0741
11608TIP3    H256316   5.652   6.291  12.829  0.4539 -2.1997 -2.3984
11609TIP3   OH256317   5.485   0.410   4.428  0.5271  0.0956  0.3089
11609TIP3    H156318   5.434   0.456   4.362  1.5035  0.3144 -0.3225
11609TIP3    H256319   5.551   0.362   4.378  1.6680  0.7490  1.1256
11610TIP3   OH256320   3.798   1.708   4.953 -0.1144 -0.1429  1.1353
11610TIP3    H156321   3.727   1.773   4.955 -0.2128 -0.2688  1.7965
11610TIP3    H256322   3.868   1.751   4.903 -0.2332  0.4220  1.4422
11611TIP3   OH256323   2.173   0.002   2.825 -0.1059  0.0441 -0.0406
11611TIP3    H156324   2.231   0.024   2.752 -2.5489  0.7468 -1.9059
11611TIP3    H256325   2.193  -0.090   2.845  2.2351  0.5156  0.0473
11612TIP3   OH256326   3.808   3.517  15.923 -0.1528 -0.6305 -0.0322
11612TIP3    H156327   3.795   3.467  15.842  0.5381  0.2409 -0.7090
11612TIP3    H256328   3.859   3.459  15.980  0.5028 -0.7666 -0.7386
11613TIP3   OH256329   2.547   1.847   5.144  0.4607 -0.7927 -0.2595
11613TIP3    H156330   2.615   1.823   5.081 -0.4752 -1.1186 -1.1570
11613TIP3    H256331   2.509   1.764   5.172  1.1732 -0.6908  1.1115
11614TIP3   OH256332   5.374   6.576  15.692  0.9656  0.5239  0.2488
11614TIP3    H156333   5.322   6.496  15.696  0.1935  0.9802 -0.4548
11614TIP3    H256334   5.411   6.578  15.604  2.7244 -0.1037  0.9181
11615TIP3   OH256335   1.301   3.148   1.190 -0.3973  0.3452 -0.2962
11615TIP3    H156336   1.336   3.148   1.279  0.6681  0.6897 -0.6930
11615TIP3    H256337   1.309   3.239   1.161 -1.2227  0.3438 -0.5684
11616TIP3   OH256338   2.376   3.612  12.802 -0.0445  0.4715  0.3162
11616TIP3    H156339   2.452   3.601  12.746 -1.0935 -0.7911 -0.9386
11616TIP3    H256340   2.380   3.703  12.830  1.1135  0.8399 -0.9156
11617TIP3   OH256341   3.712   0.766  11.010 -0.0081 -0.7451 -0.0332
11617TIP3    H156342   3.623   0.729  11.008  0.7940 -2.7312 -1.7444
11617TIP3    H256343   3.770   0.691  10.994  1.8061  0.9636 -2.0438
11618TIP3   OH256344   2.472   4.671   3.711 -0.3271  0.1409  0.0598
11618TIP3    H156345   2.500   4.685   3.801  0.9255  1.1715 -0.4655
11618TIP3    H256346   2.428   4.586   3.712  0.9318 -0.5266  1.3510
11619TIP3   OH256347   4.122   1.009  11.011 -0.4337 -0.5478  0.4149
11619TIP3    H156348   4.141   0.937  10.950 -0.0322 -1.4083  1.5200
11619TIP3    H256349   4.141   0.973  11.098  0.3811  1.0896  0.9632
11620TIP3   OH256350   4.133   4.288  10.852  0.5295  0.3130 -0.7673
11620TIP3    H156351   4.097   4.376  10.839  0.2897  0.7745  2.4214
11620TIP3    H256352   4.219   4.303  10.892 -0.5316 -0.7923  2.1949
11621TIP3   OH256353   3.109   0.469   2.074  0.1313 -0.2718 -0.2360
11621TIP3    H156354   3.059   0.458   2.155  0.5486  1.4005  0.2889
11621TIP3    H256355   3.197   0.494   2.103 -0.0577  1.6873 -1.1781
11622TIP3   OH256356   5.275   1.627  13.999 -0.2731 -0.3156  0.0682
11622TIP3    H156357   5.262   1.619  13.904  1.5715 -0.1926 -0.2188
11622TIP3    H256358   5.188   1.649  14.033 -0.6253  1.4876 -1.7934
11623TIP3   OH256359   0.956   5.793   5.168 -0.0537  0.2240  0.6222
11623TIP3    H156360   0.871   5.800   5.124 -0.1255 -1.7238  0.3775
11623TIP3    H256361   1.004   5.726   5.119  0.9114 -0.0535  1.8732
11624TIP3   OH256362   0.778   3.948   1.743  0.1552 -0.1139 -0.3605
11624TIP3    H156363   0.725   3.931   1.821 -0.8825  0.0090 -1.0225
11624TIP3    H256364   0.797   4.041   1.746  0.8640 -0.2646  0.1901
11625TIP3   OH256365   2.366   5.768  12.532  0.1245  0.1153  0.0879
11625TIP3    H156366   2.297   5.827  12.561 -1.4661 -0.8655 -1.4965
11625TIP3    H256367   2.331   5.680  12.546  0.4721 -0.3995 -1.8742
11626TIP3   OH256368   2.824   4.816  14.268  0.1030  0.6300  0.0213
11626TIP3    H156369   2.768   4.859  14.333 -1.2805 -1.6749  0.4653
11626TIP3    H256370   2.901   4.789  14.318 -1.6309 -2.5568  1.3219
11627TIP3   OH256371   2.896   0.809  10.711  0.9676  0.5729  0.1370
11627TIP3    H156372   2.857   0.847  10.632  1.1237  1.7084  0.5819
11627TIP3    H256373   2.892   0.880  10.776  0.3711 -0.4944  1.3063
11628TIP3   OH256374   2.309   1.018   5.751  0.3478 -0.7143  0.1494
11628TIP3    H156375   2.214   1.008   5.753  0.3946 -1.1459  1.1453
11628TIP3    H256376   2.327   1.086   5.815  0.7294 -0.8563  0.1973
11629TIP3   OH256377   1.057   5.355   2.081 -0.0545  0.0697  0.1330
11629TIP3    H156378   1.036   5.264   2.100  0.1041 -0.1931 -0.9007
11629TIP3    H256379   1.006   5.376   2.003 -0.0262  0.8430  0.3126
11630TIP3   OH256380   2.309   6.211   5.586 -0.5869  0.0893 -0.1093
11630TIP3    H156381   2.337   6.299   5.612 -0.9871  0.1750  0.0369
11630TIP3    H256382   2.287   6.219   5.493 -0.1660  0.0299 -0.2161
11631TIP3   OH256383   0.350   5.264  11.497  0.2112  0.3612 -0.0532
11631TIP3    H156384   0.368   5.357  11.507 -1.0280  0.5050  1.2070
11631TIP3    H256385   0.427   5.221  11.533  0.4364  0.9015  0.1217
11632TIP3   OH256386   6.075   5.052   1.448  0.3957  0.0753 -0.0441
11632TIP3    H156387   6.153   5.105   1.433 -0.8114  1.7389 -0.8031
11632TIP3    H256388   6.067   4.998   1.370  0.0792  0.8748 -0.5819
11633TIP3   OH256389   5.958   0.379   3.606 -0.5654 -0.2065  0.1877
11633TIP3    H156390   6.026   0.324   3.645 -0.9143 -0.3967  0.5324
11633TIP3    H256391   5.969   0.464   3.648 -1.3753 -0.5951  1.2141
11634TIP3   OH256392   1.761   2.948   1.744 -0.4958 -0.1207  0.1477
11634TIP3    H156393   1.806   2.977   1.823 -0.8472 -0.3360  0.4259
11634TIP3    H256394   1.699   2.881   1.773  2.4400 -3.6001 -0.8448
11635TIP3   OH256395   2.295   6.641  11.893  0.4223 -0.0098 -0.1791
11635TIP3    H156396   2.264   6.554  11.868  1.0129  0.0066 -1.0263
11635TIP3    H256397   2.312   6.685  11.810 -1.0301  1.3708  0.2150
11636TIP3   OH256398   2.362   1.746   2.803 -0.1509 -0.7722 -0.0708
11636TIP3    H156399   2.370   1.731   2.709 -2.1997  2.8695 -1.0372
11636TIP3    H256400   2.416   1.824   2.819 -1.0639 -0.4111  1.4250
11637TIP3   OH256401   0.009   0.127  16.960  0.1443  0.2484 -0.0536
11637TIP3    H156402  -0.049   0.170  16.897 -0.2819  0.4341  0.4526
11637TIP3    H256403  -0.050   0.077  17.016  0.3411  1.2951  1.1480
11638TIP3   OH256404   3.317   3.544   0.921 -0.1130  0.4060  0.1056
11638TIP3    H156405   3.354   3.526   1.007 -0.3337  0.4272  0.2050
11638TIP3    H256406   3.224   3.523   0.930 -0.5116  2.1556  0.3944
11639TIP3   OH256407   1.394   5.832  11.205 -0.2469  0.1095  0.5219
11639TIP3    H156408   1.412   5.788  11.122 -0.1840 -0.0261  0.6071
11639TIP3    H256409   1.480   5.840  11.247 -0.3113 -0.0509  0.6868
11640TIP3   OH256410   6.171   2.443  16.848 -0.2447 -0.2578  0.0796
11640TIP3    H156411   6.204   2.361  16.885 -0.3944 -0.8143 -0.9590
11640TIP3    H256412   6.226   2.458  16.771 -0.5715  0.3236 -0.0477
11641TIP3   OH256413   5.000   6.693   0.586  0.1055 -0.0411 -0.2359
11641TIP3    H156414   4.995   6.738   0.502  0.4506 -0.6893 -0.6199
11641TIP3    H256415   5.012   6.601   0.562  0.0912 -0.2442  0.5260
11642TIP3   OH256416   1.087   2.164   2.437  0.6455 -0.0184 -0.4122
11642TIP3    H156417   1.105   2.139   2.346  1.1586  0.4068 -0.4334
11642TIP3    H256418   1.149   2.235   2.455  2.4566 -1.8765  1.1447
11643TIP3   OH256419   4.800   0.853  11.019  0.3071  0.2116  0.5873
11643TIP3    H156420   4.723   0.836  10.965 -0.0325  3.4568 -0.1287
11643TIP3    H256421   4.772   0.830  11.108 -1.6939  1.6590  0.4051
11644TIP3   OH256422   2.674   3.381  14.790  0.0721  0.0391 -0.1484
11644TIP3    H156423   2.716   3.436  14.724  0.1135  0.1278 -0.0492
11644TIP3    H256424   2.582   3.377  14.764 -0.5508  2.4146  1.3078
11645TIP3   OH256425   4.442   4.124   5.600  0.3386  0.1766 -0.6187
11645TIP3    H156426   4.488   4.042   5.581 -1.4411 -1.1269  0.3949
11645TIP3    H256427   4.381   4.135   5.527  1.8247  1.6530 -1.7173
11646TIP3   OH256428   2.278   5.518  12.605  0.7267 -0.4488 -0.0311
11646TIP3    H156429   2.220   5.445  12.627 -0.2196  0.0038 -0.9479
11646TIP3    H256430   2.361   5.495  12.646  0.7923 -2.6149 -1.2525
11647TIP3   OH256431   3.157   0.950   2.752 -0.0810 -0.5542 -0.6402
11647TIP3    H156432   3.184   0.955   2.661  2.6625  1.1664  0.1384
11647TIP3    H256433   3.176   1.037   2.788 -0.7823 -1.2562  1.6526
11648TIP3   OH256434   6.583   5.276   2.148  0.2627  0.0487  0.4096
11648TIP3    H156435   6.514   5.336   2.177 -1.4143 -1.8782  0.6842
11648TIP3    H256436   6.558   5.251   2.060  0.5754 -0.7312  0.5347
11649TIP3   OH256437   2.596   0.303  12.645  0.1382 -0.3690 -0.2431
11649TIP3    H156438   2.691   0.300  12.657  0.2776  0.6532 -0.9598
11649TIP3    H256439   2.561   0.306  12.734  0.7758 -0.6527  0.0260
11650TIP3   OH256440   1.533   0.083   3.532 -0.5039 -0.0383 -0.2918
11650TIP3    H156441   1.623   0.098   3.501 -0.8294 -0.7875 -1.6585
11650TIP3    H256442   1.484   0.160   3.503 -0.6187 -0.3221 -0.8494
11651TIP3   OH256443   6.144   6.221   2.449  0.3280 -0.1070 -0.0165
11651TIP3    H156444   6.101   6.276   2.514  0.3522 -1.2313  1.0044
11651TIP3    H256445   6.216   6.275   2.415  0.7340  0.2984  1.4028
11652TIP3   OH256446   4.564   1.828  15.190 -0.0258  0.1204  0.0114
11652TIP3    H156447   4.609   1.878  15.258 -0.3250  0.9405 -0.3843
11652TIP3    H256448   4.570   1.882  15.112  0.4133 -0.8694 -0.6541
11653TIP3   OH256449   0.115   4.089   1.560 -0.0005 -0.1567 -0.2714
11653TIP3    H156450   0.161   4.066   1.641  0.5241  0.0820 -0.4948
11653TIP3    H256451   0.076   4.007   1.530 -1.2746 -0.0048  0.8899
11654TIP3   OH256452   3.441   3.544   1.173  0.4743  0.4110  0.5939
11654TIP3    H156453   3.379   3.612   1.201  0.1425  0.1482  0.5044
11654TIP3    H256454   3.523   3.567   1.217  0.8662  1.8714 -0.8248
11655TIP3   OH256455   5.021   6.447   3.550 -0.4973 -0.1418 -0.6228
11655TIP3    H156456   5.071   6.525   3.528 -0.8352  0.5459  0.8820
11655TIP3    H256457   4.995   6.461   3.642 -2.9520 -0.7047 -1.1597
11656TIP3   OH256458   2.860   4.477  11.336 -0.8823  0.1778 -0.3430
11656TIP3    H156459   2.772   4.513  11.328  0.4581  4.1613  0.6393
11656TIP3    H256460   2.897   4.484  11.248 -0.8450  0.5518 -0.2966
11657TIP3   OH256461   3.845   3.211  10.831  0.0459  0.1453  0.6954
11657TIP3    H156462   3.902   3.232  10.758  0.0457  0.3593  0.7561
11657TIP3    H256463   3.866   3.120  10.853 -0.6944 -0.2710 -0.2426
11658TIP3   OH256464   3.598   0.445   3.667  0.0988  0.3328  0.0697
11658TIP3    H156465   3.639   0.363   3.643  1.7721  1.4017 -0.8933
11658TIP3    H256466   3.658   0.513   3.635  0.5177  1.9456  3.7432
11659TIP3   OH256467   3.233   1.534  16.245  0.5336  0.1084 -0.5754
11659TIP3    H156468   3.254   1.484  16.324 -1.1415  1.4956  0.8691
11659TIP3    H256469   3.144   1.506  16.223  0.4029  0.8691 -1.0323
11660TIP3   OH256470   2.334   4.972   4.879 -0.4559 -0.0624  0.1725
11660TIP3    H156471   2.275   4.911   4.923 -0.8111  0.7421  0.8150
11660TIP3    H256472   2.371   4.920   4.807 -1.5679 -0.7147  0.0430
11661TIP3   OH256473   6.458   6.584   6.123  0.2615  0.0756  0.7054
11661TIP3    H156474   6.471   6.523   6.196 -0.9193 -1.3913 -0.2456
11661TIP3    H256475   6.363   6.590   6.114  0.3834  0.9832 -0.1159
11662TIP3   OH256476   5.800   4.435   4.072  0.0318  0.2498 -0.1095
11662TIP3    H156477   5.722   4.465   4.026  0.3893  0.1685 -0.7880
11662TIP3    H256478   5.873   4.467   4.019  0.4351 -1.0579 -0.3729
11663TIP3   OH256479   2.511   1.782  14.338 -0.0517  0.2876 -0.7573
11663TIP3    H156480   2.473   1.866  14.362  1.7883  1.2718 -1.0835
11663TIP3    H256481   2.563   1.756  14.413  0.5314  0.1644 -1.1936
11664TIP3   OH256482   2.020   2.725   0.894  0.3025  0.0978  0.3218
11664TIP3    H156483   2.105   2.734   0.852  0.5688 -3.1652 -0.1001
11664TIP3    H256484   1.966   2.679   0.829 -1.6168  1.4364  0.8557
11665TIP3   OH256485   5.199   3.799  11.576  0.0510 -0.6506 -0.1187
11665TIP3    H156486   5.123   3.763  11.621  0.0155 -2.0116 -1.1921
11665TIP3    H256487   5.202   3.752  11.493  0.7104  1.0542 -1.1032
11666TIP3   OH256488   5.688   6.643  10.098  0.1378  0.0180  0.3469
11666TIP3    H156489   5.628   6.635  10.172 -1.6193 -1.8092 -1.1565
11666TIP3    H256490   5.772   6.612  10.132 -0.0235  1.4204  2.1558
11667TIP3   OH256491   1.052   6.625  16.682  0.2011  0.1355  0.5218
11667TIP3    H156492   1.037   6.548  16.626 -2.4685  1.4971 -0.8405
11667TIP3    H256493   1.088   6.589  16.763 -0.9579 -2.5688 -0.0457
11668TIP3   OH256494   0.427   2.677   2.595  0.1973  0.5375 -0.4165
11668TIP3    H156495   0.338   2.642   2.588  1.3423 -2.5530 -1.4023
11668TIP3    H256496   0.443   2.681   2.690 -0.7519  0.4948 -0.2417
11669TIP3   OH256497   0.408   4.190  16.876 -0.2125  0.6850  0.2219
11669TIP3    H156498   0.441   4.116  16.825  1.0171  0.2191  1.6295
11669TIP3    H256499   0.384   4.152  16.960  1.1800  1.9910  1.2541
11670TIP3   OH256500   3.247   1.672  13.455  0.1490  0.3997 -0.1582
11670TIP3    H156501   3.290   1.736  13.399  0.2330 -0.0470 -0.6173
11670TIP3    H256502   3.287   1.684  13.541  0.7660  0.3954 -0.4386
11671TIP3   OH256503   5.011   2.941  12.295  0.2634 -0.3875 -0.4824
11671TIP3    H156504   4.942   2.932  12.361 -0.6133  0.4231 -1.2603
11671TIP3    H256505   5.076   2.875  12.319 -0.9303 -1.3928  0.0833
11672TIP3   OH256506   6.547   4.727   2.620 -0.1933 -0.0834  0.1798
11672TIP3    H156507   6.639   4.751   2.635  0.1114 -0.1976 -1.3075
11672TIP3    H256508   6.516   4.696   2.705  0.5323  1.8966  1.2415
11673TIP3   OH256509   0.498   0.112  16.886 -0.4354 -0.0909 -0.0136
11673TIP3    H156510   0.501   0.017  16.882 -0.3401 -0.1099  0.4031
11673TIP3    H256511   0.439   0.132  16.958 -2.7967  0.2182 -1.9227
11674TIP3   OH256512   4.913   3.339   2.439 -0.4429  0.5718 -0.4614
11674TIP3    H156513   4.931   3.424   2.398 -0.4035  0.6328 -0.3170
11674TIP3    H256514   4.988   3.323   2.496  0.3048 -0.2809 -1.6304
11675TIP3   OH256515   2.332   2.044  11.598 -0.2448 -0.0849 -0.7008
11675TIP3    H156516   2.262   2.002  11.549  0.1020 -0.2889 -1.0272
11675TIP3    H256517   2.386   1.972  11.630 -1.4715 -0.0938  1.5790
11676TIP3   OH256518   3.332   2.080  15.447 -0.0457 -0.3821  0.6531
11676TIP3    H156519   3.284   2.047  15.372 -2.1907  2.0607  0.8331
11676TIP3    H256520   3.419   2.100  15.412 -0.4294 -0.9821 -0.7185
11677TIP3   OH256521   4.912   1.558  12.130  0.7345 -0.2083 -0.1885
11677TIP3    H156522   4.991   1.602  12.101  1.1879 -0.7080  0.2745
11677TIP3    H256523   4.924   1.467  12.105  1.6068 -0.8846  2.4231
11678TIP3   OH256524   0.319   3.873  14.185 -0.1898 -0.7338 -0.2486
11678TIP3    H156525   0.287   3.832  14.266  0.1926 -0.0677  0.2526
11678TIP3    H256526   0.347   3.799  14.131 -1.5117 -1.2499 -0.2485
11679TIP3   OH256527   0.505   4.726  16.744  0.0226 -0.3913  0.4328
11679TIP3    H156528   0.482   4.721  16.651 -1.9722 -0.5403  0.8752
11679TIP3    H256529   0.508   4.820  16.763  0.2837 -0.3632  0.2562
11680TIP3   OH256530   4.035   5.312  16.415 -0.8016 -0.5611  0.6849
11680TIP3    H156531   4.106   5.322  16.478 -0.8573 -1.7764  0.9559
11680TIP3    H256532   4.011   5.219  16.419 -1.6197 -0.4128 -0.2476
11681TIP3   OH256533   6.670   3.975   6.323 -0.1953 -0.1960 -0.1658
11681TIP3    H156534   6.665   3.899   6.382 -2.7513 -1.4118 -1.7530
11681TIP3    H256535   6.588   4.022   6.339 -0.8169 -0.3984 -2.4763
11682TIP3   OH256536   2.748   2.320  13.620  0.0559  0.7535 -0.5270
11682TIP3    H156537   2.699   2.354  13.545 -0.9368 -0.7443 -0.6111
11682TIP3    H256538   2.825   2.279  13.581 -0.2739  0.2992 -0.7248
11683TIP3   OH256539   3.069   2.734   0.235  0.1621 -0.2208 -0.4548
11683TIP3    H156540   3.059   2.662   0.297 -1.2605 -0.7622 -1.2660
11683TIP3    H256541   3.140   2.787   0.271  0.2518 -1.2271  0.9289
11684TIP3   OH256542   2.669   4.571  12.526  0.5243 -0.2873  0.2641
11684TIP3    H156543   2.727   4.537  12.457  2.2029 -1.6969  2.2259
11684TIP3    H256544   2.721   4.639  12.569  0.7925 -1.5025  1.9975
11685TIP3   OH256545   2.573   3.789  14.268  0.1776  0.3439  0.2152
11685TIP3    H156546   2.585   3.694  14.264 -2.4943 -0.0367 -1.0417
11685TIP3    H256547   2.608   3.821  14.185 -0.2603  0.2466 -0.0108
11686TIP3   OH256548   0.091   6.590  16.522 -0.0167 -0.0510  0.4393
11686TIP3    H156549   0.068   6.588  16.615  2.4580 -1.1947  1.1134
11686TIP3    H256550   0.149   6.665  16.514  1.6721 -1.3143  0.3819
11687TIP3   OH256551   1.679   5.019   5.703 -0.0293  0.2063 -0.0022
11687TIP3    H156552   1.692   5.007   5.609  4.4034 -0.8820  0.5256
11687TIP3    H256553   1.716   5.105   5.722 -2.9658  1.4602  0.5745
11688TIP3   OH256554   0.659   2.918   6.445  0.0832 -0.6440  0.0717
11688TIP3    H156555   0.636   3.010   6.431 -0.8837 -0.7431  0.9281
11688TIP3    H256556   0.580   2.870   6.422  0.3468 -1.2101  0.3333
11689TIP3   OH256557   0.643   0.713   9.936  0.4250  0.3870  0.1156
11689TIP3    H156558   0.668   0.630   9.978 -2.4547  0.4150  2.2069
11689TIP3    H256559   0.679   0.781   9.993  1.3019  0.5960 -0.6537
11690TIP3   OH256560   0.512   2.261   3.397  0.0781 -0.0515 -0.1094
11690TIP3    H156561   0.581   2.195   3.392 -0.5442 -0.9446  1.9852
11690TIP3    H256562   0.460   2.247   3.317  2.3962  0.8493 -1.8951
11691TIP3   OH256563   4.096   1.853  14.231 -0.0488 -0.0880  0.5167
11691TIP3    H156564   4.053   1.939  14.227  0.8132  0.4390  1.8452
11691TIP3    H256565   4.027   1.792  14.254 -0.8438  0.0844 -1.2380
11692TIP3   OH256566   4.617   1.615   4.654 -0.2598  0.3962 -0.0110
11692TIP3    H156567   4.618   1.671   4.576  0.5181  0.1399 -0.1903
11692TIP3    H256568   4.698   1.564   4.649 -1.0982 -0.9925 -0.0190
11693TIP3   OH256569   0.148   0.232   3.763 -0.0305 -0.2963  0.1828
11693TIP3    H156570   0.123   0.284   3.838  0.0145  0.7628 -0.5151
11693TIP3    H256571   0.130   0.288   3.687  1.0707 -0.8506 -0.5267
11694TIP3   OH256572   5.149   1.461   1.788 -0.6153 -0.5513 -0.2277
11694TIP3    H156573   5.140   1.554   1.809 -1.0606 -0.6497  0.0421
11694TIP3    H256574   5.226   1.432   1.837  1.0713  0.2285 -2.2643
11695TIP3   OH256575   6.303   3.785   6.214 -0.2400  0.0068  0.8907
11695TIP3    H156576   6.321   3.837   6.292 -1.3568 -0.2427  1.3367
11695TIP3    H256577   6.210   3.800   6.196 -0.7408 -2.2443  1.3646
11696TIP3   OH256578   5.500   3.526   3.034  0.3911  0.1810  0.5450
11696TIP3    H156579   5.556   3.516   2.957 -0.0221  0.2193  0.2341
11696TIP3    H256580   5.539   3.470   3.101  0.4395 -0.2773  0.1323
11697TIP3   OH256581   0.313   6.196  11.571 -0.3178  0.4582  0.5038
11697TIP3    H156582   0.338   6.142  11.646 -2.1827 -0.0040  0.8566
11697TIP3    H256583   0.286   6.133  11.504 -0.2016  0.9079  0.0267
11698TIP3   OH256584   1.146   2.962  16.381 -0.2327  0.2506  0.6181
11698TIP3    H156585   1.082   2.895  16.406  0.0430 -0.3552 -0.2448
11698TIP3    H256586   1.229   2.931  16.418 -0.2069  0.4032  0.6885
11699TIP3   OH256587   2.521   4.016  15.774  0.2243  0.1296 -0.5937
11699TIP3    H156588   2.596   4.048  15.825 -0.6459 -0.3303  1.0511
11699TIP3    H256589   2.446   4.062  15.811 -0.4824 -0.4314 -1.2985
11700TIP3   OH256590   3.715   4.426   0.029  0.2170  0.0517 -0.5542
11700TIP3    H156591   3.713   4.358  -0.038 -0.2801  1.7692 -2.3821
11700TIP3    H256592   3.730   4.507  -0.020 -1.4184  1.5489  1.2662
11701TIP3   OH256593   4.248   0.132   1.891 -0.3453  0.1691 -0.3558
11701TIP3    H156594   4.198   0.123   1.972  1.4030 -0.4197  0.6953
11701TIP3    H256595   4.272   0.043   1.868  1.4689  0.5337 -0.0030
11702TIP3   OH256596   0.921   0.031  16.577 -0.6777 -0.0877  0.2760
11702TIP3    H156597   0.948  -0.059  16.600  1.4052  0.6639  1.0109
11702TIP3    H256598   0.899   0.026  16.484  2.5885 -0.7857 -0.6188
11703TIP3   OH256599   1.089   6.638   0.684  0.4244  0.0607  0.6029
11703TIP3    H156600   1.044   6.666   0.764 -0.6231 -0.2947  0.1458
11703TIP3    H256601   1.065   6.704   0.619  0.9126  0.1002  0.4576
11704TIP3   OH256602   6.526   2.018  13.345 -0.1076  0.4452 -0.5500
11704TIP3    H156603   6.497   1.961  13.416 -2.0802  1.6446 -0.3116
11704TIP3    H256604   6.622   2.014  13.348 -0.1730 -0.7971  1.1037
11705TIP3   OH256605   2.403   6.399   5.066 -0.6951  0.4355  0.3614
11705TIP3    H156606   2.314   6.433   5.070 -0.8669 -0.0906  1.4915
11705TIP3    H256607   2.456   6.473   5.037 -1.6689  0.3762 -1.7679
11706TIP3   OH256608   0.846   1.817   0.849 -0.5956 -0.1462  0.3091
11706TIP3    H156609   0.914   1.873   0.886 -1.0956 -0.0007  1.0401
11706TIP3    H256610   0.890   1.735   0.828 -0.0219  0.2461 -0.0198
11707TIP3   OH256611   6.529   3.663  16.379  0.0602  0.0890  0.0585
11707TIP3    H156612   6.551   3.756  16.377 -0.6721  0.2920  0.8693
11707TIP3    H256613   6.455   3.655  16.320  1.9069 -0.5231 -2.3453
11708TIP3   OH256614   1.154   3.467  13.645  0.6863 -0.7012 -0.2746
11708TIP3    H156615   1.071   3.514  13.641  0.3781 -1.2010  0.0984
11708TIP3    H256616   1.219   3.529  13.613  0.2829 -0.0448  0.1714
11709TIP3   OH256617   1.371   0.919   1.443 -1.1155 -0.4278 -0.2949
11709TIP3    H156618   1.451   0.910   1.494 -2.3202 -1.4727  1.4849
11709TIP3    H256619   1.306   0.868   1.490 -2.4381 -1.0223 -2.6149
11710TIP3   OH256620   1.293   0.304   5.247 -0.3912  0.0665  0.1706
11710TIP3    H156621   1.332   0.220   5.224 -0.1071  0.0803  0.5917
11710TIP3    H256622   1.281   0.349   5.163  0.0226 -0.1460 -0.0052
11711TIP3   OH256623   5.764   0.343   4.119  0.1996 -0.0178 -0.3144
11711TIP3    H156624   5.835   0.285   4.143  0.6963 -1.0079 -3.5915
11711TIP3    H256625   5.687   0.287   4.114 -0.8395  0.9606  2.7724
11712TIP3   OH256626   5.760   0.029  12.741  0.3076 -0.2830 -0.0860
11712TIP3    H156627   5.781   0.122  12.739  4.3273 -1.0310 -1.0411
11712TIP3    H256628   5.742   0.010  12.833  2.3824  0.9593  0.6330
11713TIP3   OH256629   1.071   2.929  14.242  0.2030  0.0730  0.2383
11713TIP3    H156630   0.981   2.897  14.243  0.2781 -0.2286 -0.8328
11713TIP3    H256631   1.124   2.849  14.238  0.4618  0.2680 -0.4177
11714TIP3   OH256632   4.109   2.315  12.079  0.0866  0.3293 -0.5322
11714TIP3    H156633   4.106   2.349  11.989 -1.2687  2.0763  0.1128
11714TIP3    H256634   4.169   2.374  12.125 -0.4697  0.4354  0.0737
11715TIP3   OH256635   0.580   5.808  13.043  0.3689  0.3421  0.0759
11715TIP3    H156636   0.586   5.813  13.139 -0.9387 -1.9158  0.3505
11715TIP3    H256637   0.644   5.872  13.012  2.0521 -0.0352  2.4531
11716TIP3   OH256638   4.600   0.373  15.538  0.6268 -0.0730 -0.1056
11716TIP3    H156639   4.678   0.427  15.549  0.3293  0.0393  1.7751
11716TIP3    H256640   4.598   0.317  15.615 -1.2598  0.0601 -0.0147
11717TIP3   OH256641   4.123   4.348  12.661  0.2721 -0.0667 -0.1330
11717TIP3    H156642   4.121   4.409  12.587  0.9062 -0.8308 -0.8014
11717TIP3    H256643   4.206   4.368  12.705  0.6394 -0.6564 -0.5464
11718TIP3   OH256644   4.555   1.722   2.090  0.9562 -0.0034 -0.6648
11718TIP3    H156645   4.550   1.817   2.085  0.0804 -0.0935 -1.9974
11718TIP3    H256646   4.482   1.691   2.036  0.9261 -1.4286  0.1421
11719TIP3   OH256647   4.029   6.835   3.049  0.3832  0.2854  0.3364
11719TIP3    H156648   4.023   6.740   3.053  1.9228  0.1228 -0.3202
11719TIP3    H256649   4.011   6.856   2.957 -1.2683  0.7752  0.7419
11720TIP3   OH256650   0.484   3.119  16.354 -0.0016  0.1239  0.3519
11720TIP3    H156651   0.449   3.199  16.391  1.8838  0.6722  1.0540
11720TIP3    H256652   0.579   3.126  16.366  0.6164 -0.3827 -3.1559
11721TIP3   OH256653   5.744   3.963  15.179 -0.2649  0.6141 -0.1685
11721TIP3    H156654   5.787   3.995  15.259  0.2704 -0.1292 -0.1435
11721TIP3    H256655   5.799   3.994  15.108  1.1447 -1.4792 -0.0763
11722TIP3   OH256656   1.075   2.960  11.898 -0.2102 -0.2202  0.0651
11722TIP3    H156657   0.994   2.910  11.891  0.8157 -1.8024 -1.0587
11722TIP3    H256658   1.046   3.049  11.919 -2.1642 -0.9385  0.6540
11723TIP3   OH256659   6.727   1.413   3.006  0.1921  0.5074 -0.1557
11723TIP3    H156660   6.696   1.365   3.082  1.5107 -0.0283  0.0830
11723TIP3    H256661   6.687   1.369   2.931  1.4502 -1.1094  0.0451
11724TIP3   OH256662   2.772   5.556   5.620 -0.4962  0.0897  0.2101
11724TIP3    H156663   2.724   5.633   5.590 -0.2307  0.4405  0.6778
11724TIP3    H256664   2.815   5.523   5.541  0.3173  1.0927  0.2186
11725TIP3   OH256665   0.656   0.149  11.080 -0.1415  0.5359  0.0535
11725TIP3    H156666   0.580   0.092  11.068 -0.1517  0.2462  1.3970
11725TIP3    H256667   0.645   0.186  11.167  2.2481 -1.0022  1.1100
11726TIP3   OH256668   3.506   3.694  17.051  0.1505 -0.9135 -0.2266
11726TIP3    H156669   3.461   3.772  17.082 -0.8686 -1.8387  0.7135
11726TIP3    H256670   3.562   3.725  16.980 -1.2925  0.4297 -0.8419
11727TIP3   OH256671   3.333   0.760  12.167 -0.0645  0.1361  0.3186
11727TIP3    H156672   3.400   0.797  12.110 -0.7056 -0.2456 -0.6934
11727TIP3    H256673   3.257   0.747  12.111 -1.0340  0.6338  1.4604
11728TIP3   OH256674   5.004   4.965   3.413  0.0353  0.2965  0.7912
11728TIP3    H156675   4.916   4.926   3.414  0.3878 -0.5826 -0.5709
11728TIP3    H256676   4.995   5.042   3.357  0.3814 -0.5086 -0.4266
11729TIP3   OH256677   2.039   5.855  15.402 -0.2833  0.0749 -0.3867
11729TIP3    H156678   2.003   5.771  15.430  2.1370 -1.0763 -0.5090
11729TIP3    H256679   2.028   5.856  15.307  1.9021 -1.3148 -0.7220
11730TIP3   OH256680   0.234   0.776   4.675 -0.0032  0.0214  0.0091
11730TIP3    H156681   0.269   0.693   4.643  0.3450 -0.1333  0.7668
11730TIP3    H256682   0.139   0.761   4.683 -0.6290  0.9580 -3.6457
11731TIP3   OH256683   4.458   1.066  10.928 -0.0700 -0.0868 -0.1245
11731TIP3    H156684   4.383   1.075  10.870  0.2563  2.1816 -0.3016
11731TIP3    H256685   4.505   0.989  10.896 -0.9769 -0.0674 -1.5936
11732TIP3   OH256686   4.446   5.938   0.456 -0.2007  0.2533 -0.3150
11732TIP3    H156687   4.367   5.931   0.402  0.6336  1.1012 -1.7071
11732TIP3    H256688   4.482   5.850   0.458  0.2587  0.3573 -2.0013
11733TIP3   OH256689   3.433   2.080  11.047  0.2212  0.5866  0.0470
11733TIP3    H156690   3.380   2.160  11.050 -0.1506  0.3776 -0.6280
11733TIP3    H256691   3.492   2.094  10.973  1.3690  0.9573  0.9959
11734TIP3   OH256692   6.649   5.585  12.965  0.5711  0.1250  0.5698
11734TIP3    H156693   6.683   5.605  13.052 -0.8026  1.1200  0.8999
11734TIP3    H256694   6.557   5.565  12.979  0.3202  0.3435 -0.6662
11735TIP3   OH256695   3.345   5.733  14.665  0.3617  0.3806  0.1763
11735TIP3    H156696   3.273   5.770  14.716 -0.2153 -0.6596  0.1219
11735TIP3    H256697   3.405   5.697  14.731  0.3537  0.3692  0.1772
11736TIP3   OH256698   1.083   4.253   5.606  0.2244  0.2313  0.7135
11736TIP3    H156699   1.042   4.194   5.669  1.9854 -0.8991  0.8848
11736TIP3    H256700   1.033   4.241   5.526 -0.7666  0.1259  1.3355
11737TIP3   OH256701   4.278   5.051   4.474 -0.2217 -0.1761 -0.1664
11737TIP3    H156702   4.334   5.046   4.396 -0.4841  1.6365 -0.5223
11737TIP3    H256703   4.306   5.131   4.518 -1.5272 -0.0421  0.4581
11738TIP3   OH256704   5.473   3.946   1.196 -0.5049  0.1171 -0.1386
11738TIP3    H156705   5.567   3.937   1.181 -0.5658  1.6905 -1.9317
11738TIP3    H256706   5.433   3.879   1.141 -0.4801  0.9779 -1.2317
11739TIP3   OH256707   4.107   4.067  12.188 -0.6333  0.0964 -0.2109
11739TIP3    H156708   4.202   4.056  12.193 -0.7037 -0.2496  0.3513
11739TIP3    H256709   4.072   4.019  12.263 -1.1398  1.7304  0.6660
11740TIP3   OH256710   5.068   5.420  12.244 -0.6267 -0.7202  0.4409
11740TIP3    H156711   5.055   5.335  12.285 -0.2246 -1.4753 -0.9588
11740TIP3    H256712   4.981   5.449  12.219 -0.7094 -0.9315  0.4901
11741TIP3   OH256713   6.165   0.817  16.739  0.6522 -0.3208 -0.8836
11741TIP3    H156714   6.253   0.779  16.740  1.2194  0.9436 -1.1897
11741TIP3    H256715   6.111   0.754  16.787  2.0311 -0.3516  0.7230
11742TIP3   OH256716   6.115   2.098  11.724  0.2276 -0.0490 -0.1162
11742TIP3    H156717   6.203   2.063  11.738  0.0513 -0.0083  1.1822
11742TIP3    H256718   6.117   2.186  11.762 -0.8066 -0.6571  1.4578
11743TIP3   OH256719   0.131   2.423   6.498 -0.0420 -0.3862  0.0747
11743TIP3    H156720   0.204   2.469   6.539  0.4065 -1.5255  0.5901
11743TIP3    H256721   0.082   2.492   6.453  0.5333  0.6099  0.9243
11744TIP3   OH256722   6.536   4.104   3.153  0.2504  0.5855  0.3526
11744TIP3    H156723   6.488   4.108   3.070 -0.4919 -1.6115  0.6153
11744TIP3    H256724   6.611   4.162   3.139 -0.0278  0.5389 -1.7409
11745TIP3   OH256725   5.636   5.745  10.522 -0.7052  0.3093 -0.4355
11745TIP3    H156726   5.629   5.825  10.470 -0.3395  0.7673  0.2090
11745TIP3    H256727   5.562   5.749  10.583 -0.3800  0.4342 -0.0405
11746TIP3   OH256728   6.375   2.263   2.710 -0.6212 -0.1321  0.3159
11746TIP3    H156729   6.433   2.263   2.633  0.6673  1.1688  1.2362
11746TIP3    H256730   6.289   2.287   2.675 -0.1271  0.1305 -0.7560
11747TIP3   OH256731   6.813   4.173   1.946  0.4914 -0.3560  0.3129
11747TIP3    H156732   6.736   4.226   1.925 -0.4849 -0.0977  3.8984
11747TIP3    H256733   6.798   4.090   1.900 -0.6849  0.5550 -1.0188
11748TIP3   OH256734   0.458   0.102   4.071 -0.2824 -0.2247 -0.2996
11748TIP3    H156735   0.532   0.070   4.020 -0.0083 -0.7206  0.4111
11748TIP3    H256736   0.381   0.062   4.028 -0.2368  0.9571 -1.5572
11749TIP3   OH256737   2.651   1.656   2.093 -0.1760  0.0174 -0.2880
11749TIP3    H156738   2.622   1.699   2.012 -1.5002 -1.0903 -0.4334
11749TIP3    H256739   2.621   1.566   2.085  1.7012 -0.7077  0.4461
11750TIP3   OH256740   2.838   0.060  10.714 -0.2279 -0.1634 -0.7771
11750TIP3    H156741   2.925   0.096  10.697 -0.2603 -0.4612 -1.6296
11750TIP3    H256742   2.814   0.017  10.632 -1.1384 -0.1723 -0.5121
11751TIP3   OH256743   4.694   6.177   2.532 -0.0614 -0.5725 -0.3475
11751TIP3    H156744   4.613   6.227   2.534  0.3929  0.2245 -1.1723
11751TIP3    H256745   4.757   6.235   2.490  1.3531 -0.5528  1.6204
11752TIP3   OH256746   4.086   4.862  12.795  0.1763 -0.4928 -0.2994
11752TIP3    H156747   4.010   4.850  12.851 -0.1717  0.9620 -0.4253
11752TIP3    H256748   4.161   4.840  12.851 -0.2102  0.2648  0.5372
11753TIP3   OH256749   3.026   1.510   0.270 -0.1789 -1.1676 -0.0635
11753TIP3    H156750   2.991   1.496   0.182 -0.5191 -0.4913 -0.0438
11753TIP3    H256751   3.117   1.535   0.256 -0.1085 -1.4947 -0.1974
11754TIP3   OH256752   5.177   4.380  12.834 -0.6868 -0.3825 -0.0769
11754TIP3    H156753   5.232   4.302  12.827 -0.0545  0.0926 -0.5567
11754TIP3    H256754   5.232   4.443  12.880 -0.7224  0.1876 -0.8029
11755TIP3   OH256755   0.202   5.991   2.432  0.2780 -0.3934 -0.5967
11755TIP3    H156756   0.129   6.053   2.437 -0.0038 -0.7628 -0.0522
11755TIP3    H256757   0.235   5.986   2.522  0.4237 -0.8846 -0.6780
11756TIP3   OH256758   3.795   3.877   1.801  0.5062  0.2782  0.3482
11756TIP3    H156759   3.836   3.796   1.832  1.7756  0.2943 -1.1640
11756TIP3    H256760   3.736   3.903   1.872 -0.1284 -2.1005  0.7673
11757TIP3   OH256761   5.499   6.678   4.937 -0.0911 -0.2146  0.1420
11757TIP3    H156762   5.549   6.658   4.858  2.1373  0.9112  1.1709
11757TIP3    H256763   5.487   6.594   4.980 -2.8507 -1.1494 -2.0856
11758TIP3   OH256764   6.535   2.459   0.607 -0.4203 -0.0104 -0.2359
11758TIP3    H156765   6.488   2.518   0.548 -1.3709 -0.0168  0.4908
11758TIP3    H256766   6.572   2.517   0.674  0.2663 -0.0525 -0.5688
11759TIP3   OH256767   4.059   3.948  14.636  0.0652 -0.8041  0.0700
11759TIP3    H156768   3.988   3.938  14.572  0.2204 -1.6277  0.0086
11759TIP3    H256769   4.113   4.020  14.602  0.3330 -1.4524 -0.9183
11760TIP3   OH256770   2.459   4.710   0.199  0.3889 -0.0322  0.1805
11760TIP3    H156771   2.453   4.696   0.104  2.2621  0.0937 -0.0013
11760TIP3    H256772   2.405   4.642   0.237  0.1330 -0.5017 -0.9735
11761TIP3   OH256773   5.124   2.332  11.074  0.4657 -0.0821  0.3281
11761TIP3    H156774   5.111   2.320  10.980  0.1094 -0.2809  0.4015
11761TIP3    H256775   5.198   2.393  11.080  0.3927  0.0519 -0.0801
11762TIP3   OH256776   1.841   0.380  16.619  0.4397 -0.2386  0.2044
11762TIP3    H156777   1.817   0.411  16.707  0.0179 -1.0847  0.3906
11762TIP3    H256778   1.895   0.451  16.584  0.3823  0.2396  1.0372
11763TIP3   OH256779   4.538   4.271  10.458 -0.0447 -0.3108 -0.1169
11763TIP3    H156780   4.634   4.275  10.463 -0.0807  0.0049  0.3030
11763TIP3    H256781   4.521   4.224  10.376  0.4650  0.1435 -0.4947
11764TIP3   OH256782   6.198   6.087   5.271 -0.3026  0.4637  0.4514
11764TIP3    H156783   6.211   6.057   5.361 -1.2406 -0.8018  0.1845
11764TIP3    H256784   6.241   6.173   5.269  1.7483 -0.4607  1.4725
11765TIP3   OH256785   1.100   6.073  16.801  0.1392 -0.6911 -0.3103
11765TIP3    H156786   1.017   6.050  16.760 -0.1127 -1.8862  0.7686
11765TIP3    H256787   1.158   6.000  16.779  0.0629 -1.2441  1.1765
11766TIP3   OH256788   3.411   5.541  15.798  0.1604  0.3011  0.2553
11766TIP3    H156789   3.413   5.491  15.880 -0.3031 -2.1622 -1.1304
11766TIP3    H256790   3.501   5.572  15.786  0.3425  0.2644  1.4473
11767TIP3   OH256791   0.046   1.283  14.444  0.1280  0.0904 -0.4232
11767TIP3    H156792   0.019   1.200  14.405  1.5689  0.0625 -1.4277
11767TIP3    H256793  -0.011   1.293  14.521  2.3118 -3.6699  1.9793
11768TIP3   OH256794   6.167   6.446  11.107 -0.5958 -0.3524 -1.0707
11768TIP3    H156795   6.190   6.530  11.067  0.4361 -0.1510 -0.1342
11768TIP3    H256796   6.213   6.381  11.054  0.9476 -0.0706 -0.1357
11769TIP3   OH256797   5.074   6.827  12.899 -0.0869  0.0292 -0.3364
11769TIP3    H156798   4.983   6.853  12.909  0.1752  0.4822  0.9928
11769TIP3    H256799   5.070   6.735  12.871 -0.9398 -0.2855  0.7546
11770TIP3   OH256800   3.549   5.106  10.801  0.4105 -0.6609 -0.4057
11770TIP3    H156801   3.510   5.051  10.732  0.5344  0.3211 -1.2775
11770TIP3    H256802   3.627   5.143  10.760  1.8162 -1.8740  1.0185
11771TIP3   OH256803   1.059   0.336   2.667  0.0807  0.2114  0.1921
11771TIP3    H156804   1.089   0.369   2.752 -2.2185  2.0348  0.4115
11771TIP3    H256805   1.050   0.241   2.681  1.5298  0.1982  1.3497
11772TIP3   OH256806   0.006   2.790  14.939 -0.3249 -0.3772 -0.0262
11772TIP3    H156807   0.006   2.746  14.853  1.8980 -1.0475  0.2498
11772TIP3    H256808  -0.081   2.771  14.975 -0.9637 -0.9100 -1.7139
11773TIP3   OH256809   1.878   4.618   1.195  0.3566  0.0520 -0.0256
11773TIP3    H156810   1.786   4.639   1.210  0.9771  2.1392  1.3326
11773TIP3    H256811   1.890   4.625   1.100 -0.8900 -0.4400 -0.2396
11774TIP3   OH256812   3.700   1.828   3.541 -0.0103 -0.4412  0.5106
11774TIP3    H156813   3.707   1.860   3.451  2.2347  0.2097  0.8640
11774TIP3    H256814   3.606   1.827   3.558 -0.5490 -1.2389 -2.0413
11775TIP3   OH256815   0.698   5.304   3.898 -0.3643 -1.1294 -0.7605
11775TIP3    H156816   0.614   5.265   3.921  0.2471 -1.8422  0.3973
11775TIP3    H256817   0.681   5.355   3.819 -2.5603  1.1903  1.0284
11776TIP3   OH256818   4.547   1.592   1.524 -0.1010 -0.2154  0.0794
11776TIP3    H156819   4.596   1.510   1.532  1.0103  0.5532  1.8946
11776TIP3    H256820   4.610   1.653   1.486  0.3470  0.6940  2.1090
11777TIP3   OH256821   0.316   4.471  15.348  0.1691 -0.4823  0.3977
11777TIP3    H156822   0.301   4.517  15.431  2.3626 -0.2768  0.7214
11777TIP3    H256823   0.310   4.378  15.371 -0.8022 -0.4270  0.4337
11778TIP3   OH256824   4.538   6.312   3.221  0.4060 -0.3788  0.0002
11778TIP3    H156825   4.617   6.359   3.248  0.0909  0.3517 -0.3162
11778TIP3    H256826   4.559   6.281   3.132  0.0276  0.5835 -0.4408
11779TIP3   OH256827   0.928   4.784  15.816 -0.2334  0.0896  0.0925
11779TIP3    H156828   0.844   4.816  15.782 -0.0332  1.1726  0.5671
11779TIP3    H256829   0.965   4.859  15.863  1.7575  0.1456 -1.4531
11780TIP3   OH256830   1.719   6.778  13.712  0.1563 -0.1086 -0.4058
11780TIP3    H156831   1.729   6.684  13.698  3.0301 -0.0309  0.3648
11780TIP3    H256832   1.791   6.801  13.771 -0.2834  2.6121 -0.7917
11781TIP3   OH256833   5.854   4.039   1.924 -0.0171 -0.3717 -0.5559
11781TIP3    H156834   5.774   3.988   1.922  0.9566 -1.9831 -0.2175
11781TIP3    H256835   5.924   3.974   1.922  1.2952  0.8185  1.9661
11782TIP3   OH256836   2.636   2.201   4.540 -0.0530 -0.0736  0.3580
11782TIP3    H156837   2.603   2.230   4.625  1.0992  1.7029  0.2511
11782TIP3    H256838   2.612   2.272   4.480  2.0612  0.2831 -0.1226
11783TIP3   OH256839   1.628   6.209   2.257 -0.1680  0.1072  0.3375
11783TIP3    H156840   1.537   6.227   2.280  0.2141 -1.2681  3.5475
11783TIP3    H256841   1.678   6.274   2.305  0.6223  1.3345 -1.9958
11784TIP3   OH256842   5.127   2.537  11.705  0.2971 -0.4391  0.4376
11784TIP3    H156843   5.120   2.487  11.623  0.4013 -0.0368  0.1801
11784TIP3    H256844   5.137   2.628  11.676 -2.5100  0.0999  0.8892
11785TIP3   OH256845   1.569   0.193   2.181 -0.0428 -0.3739  0.2419
11785TIP3    H156846   1.656   0.153   2.177  0.4485  0.7019 -0.3855
11785TIP3    H256847   1.585   0.280   2.219 -0.6344  0.3393 -1.0787
11786TIP3   OH256848   4.289   4.712   0.449 -0.0764  0.1740 -0.1083
11786TIP3    H156849   4.216   4.755   0.493 -0.1446  0.6762 -0.6965
11786TIP3    H256850   4.300   4.761   0.367 -0.3364 -1.1009 -0.9291
11787TIP3   OH256851   5.112   2.211   1.321  0.1272  0.1131 -0.0281
11787TIP3    H156852   5.049   2.146   1.351 -0.8671  1.7663  1.6085
11787TIP3    H256853   5.115   2.276   1.391  1.4456  1.5944 -1.3954
11788TIP3   OH256854   5.558   2.818  15.886 -0.1745  0.5254  0.3970
11788TIP3    H156855   5.548   2.726  15.863 -1.8741  1.0806 -1.3930
11788TIP3    H256856   5.638   2.821  15.938  1.3946 -1.6099 -1.6810
11789TIP3   OH256857   1.258   1.379   3.750  0.0716  0.3715 -0.5956
11789TIP3    H156858   1.263   1.419   3.663 -0.9609 -0.1137 -0.9015
11789TIP3    H256859   1.336   1.324   3.757  1.0556  1.7219 -0.5146
11790TIP3   OH256860   3.461   0.062  14.445 -0.4092  0.4799 -0.2612
11790TIP3    H156861   3.465   0.096  14.535 -0.9191  0.4519 -0.2300
11790TIP3    H256862   3.460  -0.033  14.456 -1.4852  0.4819 -0.2526
11791TIP3   OH256863   6.786   4.024  14.732  0.3308  0.7063 -0.0228
11791TIP3    H156864   6.715   3.964  14.710 -0.8195  2.1073 -0.3168
11791TIP3    H256865   6.856   4.003  14.671 -1.5078  2.2213 -2.8411
11792TIP3   OH256866   3.095   4.112   0.952  0.6885  0.2782  0.5694
11792TIP3    H156867   3.063   4.087   0.865  0.3255  0.5134  0.6316
11792TIP3    H256868   3.190   4.109   0.945  0.6907  1.3910 -0.1775
11793TIP3   OH256869   4.843   3.770   5.654  0.2037  0.5987  0.8523
11793TIP3    H156870   4.889   3.756   5.737 -0.1477 -0.3400  0.9028
11793TIP3    H256871   4.896   3.723   5.590 -0.5741 -0.3383  0.8793
11794TIP3   OH256872   3.222   0.440   3.285 -0.3542 -0.1974 -0.1948
11794TIP3    H156873   3.277   0.489   3.347  0.8469 -1.1776 -0.4514
11794TIP3    H256874   3.137   0.483   3.291 -0.1286  0.0827  1.7350
11795TIP3   OH256875   0.487   5.536   5.467  0.2508  0.4039  0.6096
11795TIP3    H156876   0.396   5.524   5.440  0.0741  0.9450  0.9493
11795TIP3    H256877   0.510   5.454   5.511 -0.0420  0.2272  0.4358
11796TIP3   OH256878   2.440   5.186   4.644  0.4756 -0.4554 -0.2837
11796TIP3    H156879   2.354   5.217   4.616 -0.4375 -1.6060  1.0596
11796TIP3    H256880   2.428   5.091   4.656  1.5623 -0.4517  1.1191
11797TIP3   OH256881   1.103   5.373   5.423 -0.3476  0.2792 -0.5581
11797TIP3    H156882   1.048   5.388   5.500  0.5824 -2.2412  0.6935
11797TIP3    H256883   1.045   5.329   5.360 -0.5455  0.4102 -0.4702
11798TIP3   OH256884   2.697   0.024   0.620  0.1132 -0.4354 -0.0137
11798TIP3    H156885   2.681  -0.021   0.537  0.2343 -0.8106  0.1647
11798TIP3    H256886   2.639  -0.019   0.683  1.5520 -1.6122  0.5770
11799TIP3   OH256887   2.471   4.192  11.736  0.2229 -0.3327 -0.5432
11799TIP3    H156888   2.429   4.205  11.651 -0.4067  0.4589 -0.1168
11799TIP3    H256889   2.497   4.280  11.764 -1.4283 -0.2957  1.0291
11800TIP3   OH256890   5.377   2.760   3.743  0.2343  0.3699 -0.2913
11800TIP3    H156891   5.372   2.793   3.833 -1.4339 -0.8042  0.0945
11800TIP3    H256892   5.371   2.838   3.689  2.8277  1.2738  0.5619
11801TIP3   OH256893   1.818   0.804   2.073  0.0380 -0.3204 -0.3359
11801TIP3    H156894   1.870   0.823   1.996  0.2868 -0.7864 -0.2913
11801TIP3    H256895   1.816   0.886   2.122  1.1155 -0.4011 -0.1190
11802TIP3   OH256896   3.979   5.824  10.488  0.1100  0.2710 -1.0930
11802TIP3    H156897   3.906   5.869  10.531 -0.0740 -2.0300  1.2215
11802TIP3    H256898   3.992   5.872  10.406 -2.2358  2.3757 -0.3378
11803TIP3   OH256899   0.371   2.774   5.847 -0.4549  0.1175 -0.2351
11803TIP3    H156900   0.342   2.773   5.938  0.1040  0.6777 -0.0474
11803TIP3    H256901   0.290   2.764   5.797 -1.0751  2.1091  0.2691
11804TIP3   OH256902   1.761   3.804  11.103 -0.8236  0.9275  0.5112
11804TIP3    H156903   1.779   3.896  11.084 -1.5961  1.0163  0.1661
11804TIP3    H256904   1.665   3.797  11.098 -0.8804  0.4087  1.9566
11805TIP3   OH256905   5.213   6.199   3.630 -0.0715 -0.2182  0.4863
11805TIP3    H156906   5.194   6.290   3.651 -0.5689 -0.5669  1.6505
11805TIP3    H256907   5.249   6.201   3.541  0.8186  1.1987  0.8579
11806TIP3   OH256908   0.659   1.128  16.919  0.1472  0.0890 -0.1194
11806TIP3    H156909   0.567   1.100  16.917  0.1710  0.0402 -1.1095
11806TIP3    H256910   0.654   1.223  16.929 -0.0640  0.2564 -1.5939
11807TIP3   OH256911   5.077   2.859   6.084 -0.4437  0.3943  0.3710
11807TIP3    H156912   4.987   2.891   6.078 -0.2418  1.1463  1.0283
11807TIP3    H256913   5.069   2.764   6.088 -1.2338  0.4658  0.6953
11808TIP3   OH256914   0.357   1.677  17.029  0.8676 -1.5923 -0.4778
11808TIP3    H156915   0.339   1.733  16.954 -1.0164 -1.6694 -0.1397
11808TIP3    H256916   0.321   1.725  17.104 -2.1483 -3.7413 -0.3535
11809TIP3   OH256917   5.017   2.582  11.240 -0.2180 -0.1250  0.2427
11809TIP3    H156918   4.953   2.521  11.277 -0.6383  1.9646  3.3130
11809TIP3    H256919   4.980   2.606  11.155 -2.3158 -0.7788  0.8988
11810TIP3   OH256920   4.131   3.064  14.617 -0.1082  0.4358  0.0405
11810TIP3    H156921   4.120   3.032  14.528  2.0377  2.8777 -1.2512
11810TIP3    H256922   4.145   2.985  14.670 -0.6244 -1.0296 -1.8999
11811TIP3   OH256923   5.256   6.233   2.284  0.0051 -0.2535  0.1624
11811TIP3    H156924   5.231   6.144   2.307 -0.8602  0.5698  2.7791
11811TIP3    H256925   5.219   6.247   2.197 -0.6974 -2.1188  0.1262
11812TIP3   OH256926   3.367   5.404   2.241  0.8312  0.7384  0.0891
11812TIP3    H156927   3.446   5.401   2.295  1.1572 -1.3559 -0.4145
11812TIP3    H256928   3.304   5.454   2.292  1.5720 -0.0234  1.8117
11813TIP3   OH256929   2.884   1.557   1.095  0.7346  0.2029 -0.5811
11813TIP3    H156930   2.935   1.637   1.109  1.6050 -0.1609 -1.5244
11813TIP3    H256931   2.912   1.498   1.165  1.6849 -0.0154 -1.1239
11814TIP3   OH256932   0.057   0.655   3.486 -0.9444  0.7883  0.1224
11814TIP3    H156933   0.060   0.686   3.577 -0.6469 -0.4967  0.5756
11814TIP3    H256934   0.133   0.598   3.477 -0.7216  1.2524 -1.0852
11815TIP3   OH256935   2.961   6.563  10.872 -0.0972 -0.3768 -0.1650
11815TIP3    H156936   2.876   6.605  10.884 -0.8616 -1.9729  0.2073
11815TIP3    H256937   2.941   6.470  10.865  1.6036 -0.7521 -0.3788
11816TIP3   OH256938   2.763   3.837   0.061  0.1320  0.3564  0.3073
11816TIP3    H156939   2.780   3.743   0.071 -1.6835 -0.1270 -0.7232
11816TIP3    H256940   2.747   3.849  -0.033 -1.7953  1.2873  0.7089
11817TIP3   OH256941   5.266   5.101  12.918  0.0117 -0.3892 -0.7523
11817TIP3    H156942   5.291   5.102  13.010 -0.8493 -1.6662 -0.4833
11817TIP3    H256943   5.196   5.166  12.911 -0.3102 -0.6884 -0.3738
11818TIP3   OH256944   4.397   2.329   5.533 -0.2465 -0.0537 -0.2536
11818TIP3    H156945   4.474   2.290   5.492 -0.4869 -2.8581  1.6877
11818TIP3    H256946   4.428   2.412   5.568  1.6068 -0.5984 -0.5070
11819TIP3   OH256947   4.874   3.536   1.758 -0.1901 -0.0695  0.2847
11819TIP3    H156948   4.781   3.545   1.780 -1.1131 -1.2481 -2.5397
11819TIP3    H256949   4.908   3.625   1.761 -2.0063  0.7126 -0.6880
11820TIP3   OH256950   5.589   6.657  12.245  0.2400 -0.6559 -0.1200
11820TIP3    H156951   5.523   6.672  12.312  0.8560  0.6051  0.2386
11820TIP3    H256952   5.540   6.635  12.166 -0.6352  0.5819  0.0500
11821TIP3   OH256953   5.696   4.972   5.799 -0.0722  0.0193 -0.5973
11821TIP3    H156954   5.630   5.018   5.851  0.0979 -1.4425  0.9996
11821TIP3    H256955   5.738   4.912   5.861  3.0828  1.1762 -1.4284
11822TIP3   OH256956   2.413   0.126  11.983 -0.1290 -0.3267  0.1021
11822TIP3    H156957   2.443   0.065  12.050 -0.6486 -0.3522  0.3188
11822TIP3    H256958   2.405   0.073  11.904 -0.0893 -0.4319  0.1688
11823TIP3   OH256959   3.830   3.042   1.227 -0.0364  0.3100  0.0862
11823TIP3    H156960   3.776   2.984   1.174 -3.3649  0.7778  2.5786
11823TIP3    H256961   3.852   3.115   1.168 -0.4509 -0.8612 -1.5880
11824TIP3   OH256962   0.347   2.443   4.705  0.0099 -0.3017  0.1511
11824TIP3    H156963   0.353   2.472   4.796 -2.0892  0.0257  0.2440
11824TIP3    H256964   0.255   2.457   4.682  0.2600 -1.3997 -1.6880
11825TIP3   OH256965   2.438   1.703   1.597  0.2967 -0.4345  0.0815
11825TIP3    H156966   2.364   1.761   1.581  0.6065 -0.4036 -1.3395
11825TIP3    H256967   2.492   1.709   1.518  1.5536 -0.8629  0.8695
11826TIP3   OH256968   5.938   6.172   0.883  0.3430 -0.4094  1.1015
11826TIP3    H156969   5.893   6.257   0.876  0.5486 -0.4168 -1.0595
11826TIP3    H256970   5.868   6.107   0.878  0.4163 -0.4607 -3.4267
11827TIP3   OH256971   6.387   4.652  15.644  0.2513  0.3032 -0.1967
11827TIP3    H156972   6.293   4.661  15.629 -0.5728 -4.0012  1.0483
11827TIP3    H256973   6.404   4.701  15.724 -1.1893  0.2078  0.1879
11828TIP3   OH256974   0.499   1.159   2.323  0.2213  0.0154  0.5138
11828TIP3    H156975   0.405   1.141   2.312  0.0093  0.1964  1.8542
11828TIP3    H256976   0.504   1.254   2.328  0.5999  0.0554 -0.4005
11829TIP3   OH256977   1.547   0.826   4.173 -0.0921 -0.5303 -0.0205
11829TIP3    H156978   1.568   0.738   4.204 -0.9047 -0.1037  1.9609
11829TIP3    H256979   1.616   0.881   4.209  0.1408 -0.2922 -0.8283
11830TIP3   OH256980   1.171   0.774  12.419 -0.2138  0.3758  0.0980
11830TIP3    H156981   1.088   0.779  12.371 -0.3758 -1.5018  0.1165
11830TIP3    H256982   1.238   0.781  12.351 -0.2814  3.0466  0.1836
11831TIP3   OH256983   1.117   1.248  17.003  0.7468  0.4164  0.0068
11831TIP3    H156984   1.097   1.155  16.989 -0.3514  0.6113  0.2264
11831TIP3    H256985   1.166   1.273  16.924  0.0915 -0.0775 -0.5725
11832TIP3   OH256986   6.198   6.250  13.758 -0.7771  0.0824  0.2151
11832TIP3    H156987   6.188   6.192  13.835  0.5994  2.3786  2.2793
11832TIP3    H256988   6.251   6.199  13.697  2.8661 -0.0438  3.1367
11833TIP3   OH256989   5.424   3.241   1.332 -0.1075 -0.2923  0.1488
11833TIP3    H156990   5.386   3.322   1.366 -0.1072  0.2200 -1.0300
11833TIP3    H256991   5.464   3.200   1.408 -0.7779  0.4340  0.9142
11834TIP3   OH256992   3.315   5.869   3.537 -0.2489 -0.1015 -0.4280
11834TIP3    H156993   3.230   5.911   3.528 -0.4721 -0.5047 -0.2553
11834TIP3    H256994   3.294   5.776   3.551 -0.1322  0.3796  5.5736
11835TIP3   OH256995   5.226   5.079  12.374 -0.0280 -0.0705  1.0038
11835TIP3    H156996   5.205   4.993  12.339 -0.0251 -0.2010  1.3205
11835TIP3    H256997   5.244   5.064  12.467 -0.3306  0.3155  1.1282
11836TIP3   OH256998   0.218   0.903   3.669  0.0930  0.0572  0.0166
11836TIP3    H156999   0.147   0.885   3.730  0.7891 -1.1132  0.5149
11836TIP3    H257000   0.279   0.830   3.681  0.6880  0.2888 -1.4189
11837TIP3   OH257001   5.754   6.377   2.233 -0.0377  0.1562  0.5621
11837TIP3    H157002   5.691   6.314   2.197 -0.2791  1.0398 -0.6291
11837TIP3    H257003   5.836   6.329   2.239 -0.1103 -0.1654 -0.7478
11838TIP3   OH257004   0.187   0.583   1.156  0.3083  0.1588 -0.5238
11838TIP3    H157005   0.228   0.667   1.175 -1.1731  0.4974  1.4886
11838TIP3    H257006   0.213   0.526   1.228 -0.1538 -0.5846 -0.9229
11839TIP3   OH257007   3.307   2.805  12.260 -0.2006  0.1326  0.2179
11839TIP3    H157008   3.273   2.800  12.171  2.3444 -1.2286 -0.7944
11839TIP3    H257009   3.297   2.897  12.284  0.9034  1.0294 -2.3363
11840TIP3   OH257010   3.187   1.354  11.020 -0.4186 -0.3094  0.0132
11840TIP3    H157011   3.244   1.341  10.944 -0.0615  1.8269 -0.1262
11840TIP3    H257012   3.138   1.433  11.000 -1.3384 -0.4955  1.4241
11841TIP3   OH257013   2.135   5.262   6.017  0.2712 -0.2145  0.3878
11841TIP3    H157014   2.074   5.315   6.069  0.0728  0.1002 -0.1525
11841TIP3    H257015   2.109   5.172   6.035 -0.6636 -0.0752 -0.1855
11842TIP3   OH257016   5.153   0.256  12.082 -0.4939  0.0346 -0.6737
11842TIP3    H157017   5.140   0.336  12.133  0.0537 -0.0422 -0.4183
11842TIP3    H257018   5.066   0.237  12.046 -1.1505 -0.5215  1.0984
11843TIP3   OH257019   2.395   4.510   1.980  0.5880 -0.1549  0.2655
11843TIP3    H157020   2.383   4.544   1.891 -1.3192  0.5496  0.7367
11843TIP3    H257021   2.432   4.584   2.028  1.6447 -0.5447  0.0753
11844TIP3   OH257022   3.155   6.453  15.607  0.3266  0.2947  0.3235
11844TIP3    H157023   3.216   6.397  15.559  2.3765  1.0032  1.9712
11844TIP3    H257024   3.081   6.396  15.626  2.3696 -2.0009  2.0548
11845TIP3   OH257025   5.929   5.175   1.850  0.1789  0.7611  0.1614
11845TIP3    H157026   5.910   5.085   1.826  0.3929  0.7160  0.1604
11845TIP3    H257027   5.917   5.225   1.769 -0.0530  0.7513  0.1891
11846TIP3   OH257028   5.640   5.535   0.381  0.7388 -0.2339  0.2659
11846TIP3    H157029   5.715   5.566   0.332 -0.3914  1.8346 -0.2929
11846TIP3    H257030   5.567   5.590   0.351 -0.7439 -1.3461  1.6277
11847TIP3   OH257031   5.362   5.894   5.058 -0.0360 -0.3590  0.1769
11847TIP3    H157032   5.297   5.927   5.121  0.9379 -0.5311  1.3152
11847TIP3    H257033   5.311   5.843   4.995 -1.2590  1.2107 -0.1710
11848TIP3   OH257034   2.612   1.614   1.353 -0.1522  0.6304  0.1522
11848TIP3    H157035   2.563   1.614   1.270  0.4735  0.1502 -0.2308
11848TIP3    H257036   2.603   1.524   1.385 -1.5289  1.1505  1.3090
11849TIP3   OH257037   4.657   5.951  14.120 -0.0864 -0.3996 -0.1972
11849TIP3    H157038   4.681   5.858  14.125  1.5271 -0.0589 -0.8705
11849TIP3    H257039   4.684   5.978  14.032  1.4199  1.1931  0.6889
11850TIP3   OH257040   6.384   3.169  12.718  0.0697  0.3339 -0.0572
11850TIP3    H157041   6.296   3.199  12.739  0.5191  1.4297  0.3320
11850TIP3    H257042   6.385   3.077  12.745 -0.5117  0.7077  1.3202
11851TIP3   OH257043   1.324   3.443   1.588  0.3487  0.7500 -0.3849
11851TIP3    H157044   1.342   3.392   1.667 -1.5020  0.0277 -0.3908
11851TIP3    H257045   1.367   3.527   1.604 -1.7407  1.4327  2.3783
11852TIP3   OH257046   0.437   2.794  11.252 -0.2807  0.0935 -0.5324
11852TIP3    H157047   0.385   2.875  11.253 -0.7603 -0.1748 -1.6922
11852TIP3    H257048   0.526   2.824  11.238 -0.4624  0.4264 -1.0110
11853TIP3   OH257049   5.208   4.255  14.004  0.2917  0.0627 -0.0325
11853TIP3    H157050   5.124   4.215  13.984  0.8345 -0.5134 -1.2977
11853TIP3    H257051   5.216   4.327  13.942  0.3277  0.7113  0.7104
11854TIP3   OH257052   4.353   6.270   0.967 -0.0827  0.0811  0.6314
11854TIP3    H157053   4.383   6.180   0.971  2.0713  0.6954 -0.2780
11854TIP3    H257054   4.275   6.267   0.911  0.1947 -1.1450  0.2857
11855TIP3   OH257055   6.501   5.063   3.845  0.2502  0.1044  0.6990
11855TIP3    H157056   6.448   5.142   3.857  0.2746  0.1910  0.2262
11855TIP3    H257057   6.467   5.002   3.911  0.1999  0.4882  1.0341
11856TIP3   OH257058   6.207   3.895  16.233 -0.2673 -0.3218 -0.1498
11856TIP3    H157059   6.274   3.947  16.277 -0.4410 -0.1926 -0.0347
11856TIP3    H257060   6.255   3.838  16.174 -0.0819  0.1426 -0.4562
11857TIP3   OH257061   3.207   3.691  13.157  0.3852 -0.1919  0.6415
11857TIP3    H157062   3.210   3.762  13.221 -0.1832 -1.4938  2.1735
11857TIP3    H257063   3.224   3.612  13.208  0.8451 -1.1885 -0.9905
11858TIP3   OH257064   1.422   6.244  11.519  0.6037  0.1050  0.4402
11858TIP3    H157065   1.394   6.285  11.601 -2.9902 -1.1227  0.0415
11858TIP3    H257066   1.433   6.317  11.459 -2.1478  0.8667  0.6765
11859TIP3   OH257067   3.643   4.093   1.616 -0.1757  0.5554  0.0621
11859TIP3    H157068   3.658   4.132   1.702 -0.7947 -0.7171  0.7912
11859TIP3    H257069   3.704   4.019   1.613 -0.0890  0.6513 -0.6419
11860TIP3   OH257070   1.517   4.226  15.025 -0.1406 -0.1796  0.1428
11860TIP3    H157071   1.439   4.226  15.081 -0.7102 -1.0020 -0.6301
11860TIP3    H257072   1.542   4.318  15.020  0.2602 -0.1160  2.1952
11861TIP3   OH257073   2.102   3.771  13.938  0.3630  0.3961 -0.0055
11861TIP3    H157074   2.071   3.798  14.024  0.4706  2.2457 -0.5068
11861TIP3    H257075   2.037   3.708  13.907  0.3347 -0.3009  1.4209
11862TIP3   OH257076   3.909   3.178  13.363 -0.4231  0.0954  0.5532
11862TIP3    H157077   3.986   3.187  13.306 -1.2406  0.7971 -0.4694
11862TIP3    H257078   3.930   3.231  13.440 -0.2614  1.0705 -0.1445
11863TIP3   OH257079   0.341   3.908   1.412 -0.2535  0.4226 -0.4903
11863TIP3    H157080   0.400   3.922   1.337 -2.0341  0.3926 -1.9639
11863TIP3    H257081   0.259   3.950   1.386 -1.2241 -0.4113  1.0675
11864TIP3   OH257082   4.425   5.907   1.318  0.4084 -0.4399 -0.4888
11864TIP3    H157083   4.500   5.851   1.341  3.2882  2.7326 -1.4166
11864TIP3    H257084   4.386   5.931   1.402  1.5762 -0.7191  0.1487
11865TIP3   OH257085   5.715   3.509   3.749  0.1283  0.2556 -0.6293
11865TIP3    H157086   5.681   3.590   3.711  0.6125  0.5216 -0.5082
11865TIP3    H257087   5.649   3.482   3.812  0.6189  1.3378  0.3752
11866TIP3   OH257088   6.432   2.254   1.927 -0.5089 -0.0643 -0.2121
11866TIP3    H157089   6.427   2.238   1.833  2.6533  1.7256 -0.8162
11866TIP3    H257090   6.443   2.166   1.965 -0.8464 -0.7291 -1.5873
11867TIP3   OH257091   6.076   2.123  16.770  0.0997  1.0853 -0.0926
11867TIP3    H157092   6.131   2.145  16.846  2.6095 -3.2486 -0.3686
11867TIP3    H257093   6.137   2.115  16.698 -0.6042 -3.7970 -0.4805
11868TIP3   OH257094   0.099   6.759   2.316  0.3262  0.3091 -0.1202
11868TIP3    H157095   0.116   6.852   2.306 -1.2584  0.6166 -0.1785
11868TIP3    H257096   0.012   6.746   2.280 -0.0610 -0.9430  1.1440
11869TIP3   OH257097   6.205   5.525   5.504 -0.2057  0.2675  0.5317
11869TIP3    H157098   6.275   5.468   5.536  0.6716  0.7624 -0.4627
11869TIP3    H257099   6.245   5.576   5.433 -0.7847  2.5007  1.6988
11870TIP3   OH257100   4.758   4.114  11.301 -0.1491  0.2477  0.2526
11870TIP3    H157101   4.784   4.081  11.387  0.5949  0.6117  0.1747
11870TIP3    H257102   4.827   4.083  11.242 -1.3356 -1.1408 -0.4645
11871TIP3   OH257103   5.669   5.990  15.344 -0.0303  0.0129  0.1230
11871TIP3    H157104   5.761   5.974  15.366 -0.0685  0.9978  1.0904
11871TIP3    H257105   5.666   5.988  15.249  0.4338 -2.9867  0.0769
11872TIP3   OH257106   6.242   0.198   5.719  0.2567 -0.0640 -0.4553
11872TIP3    H157107   6.275   0.246   5.643  0.3097 -0.7362 -0.8636
11872TIP3    H257108   6.157   0.166   5.692 -0.1339  0.4776  0.1078
11873TIP3   OH257109   2.630   4.452  16.772  0.1055 -0.1306  0.4237
11873TIP3    H157110   2.547   4.482  16.734  1.2596 -0.3695 -2.4718
11873TIP3    H257111   2.646   4.513  16.844 -1.9042  0.7692  0.1785
11874TIP3   OH257112   1.700   2.910   5.363 -0.2088  0.4568  0.2674
11874TIP3    H157113   1.739   2.883   5.279 -0.4666  1.1706 -0.0917
11874TIP3    H257114   1.658   2.994   5.344 -3.2287 -0.9058  0.2135
11875TIP3   OH257115   1.932   1.715   3.711  0.1382  0.1117 -0.3209
11875TIP3    H157116   2.005   1.691   3.654 -0.0008 -0.8225 -0.1233
11875TIP3    H257117   1.974   1.754   3.788  0.5754 -1.8162  0.4906
11876TIP3   OH257118   2.994   0.024  10.958 -0.3597  0.1911 -0.2122
11876TIP3    H157119   2.931  -0.022  10.903  0.3600 -0.3543 -0.5869
11876TIP3    H257120   2.940   0.081  11.013 -1.0437  1.6420 -2.2643
11877TIP3   OH257121   3.600   6.568  10.790  0.7861 -0.4683  0.4620
11877TIP3    H157122   3.664   6.499  10.807  3.3842  1.7015  0.2123
11877TIP3    H257123   3.562   6.546  10.705 -0.1022 -2.6630  1.3574
11878TIP3   OH257124   0.024   6.762   5.870 -0.9729 -0.1089  0.4966
11878TIP3    H157125   0.039   6.761   5.776  0.1390  1.1017  0.6398
11878TIP3    H257126  -0.071   6.756   5.880 -1.0286 -1.8062 -0.6294
11879TIP3   OH257127   2.015   3.193  16.117  0.0455  0.0769 -0.2856
11879TIP3    H157128   2.052   3.106  16.126 -0.7009 -0.1114  1.0732
11879TIP3    H257129   1.922   3.179  16.101 -0.0856  0.6182 -0.0413
11880TIP3   OH257130   0.754   1.307   3.740  0.2010 -0.3926  0.2984
11880TIP3    H157131   0.827   1.255   3.773  0.8480  0.0342 -0.4246
11880TIP3    H257132   0.796   1.381   3.696 -0.6809  0.0234  0.1423
11881TIP3   OH257133   6.474   3.570   4.234  0.2409  0.2113  0.0128
11881TIP3    H157134   6.419   3.585   4.311  0.3118  0.0191  0.1038
11881TIP3    H257135   6.414   3.541   4.166 -0.1651  2.6170 -0.7207
11882TIP3   OH257136   2.667   4.801   1.375  0.3282  0.4963  0.0671
11882TIP3    H157137   2.604   4.736   1.406  1.3622 -0.2480  0.6583
11882TIP3    H257138   2.633   4.884   1.408  0.2935 -0.0396  1.4786
11883TIP3   OH257139   3.352   5.790   2.528 -0.4715  0.1592 -0.2425
11883TIP3    H157140   3.354   5.853   2.600  0.6192  0.0899 -0.1903
11883TIP3    H257141   3.440   5.796   2.489  0.2235 -2.4412  0.7281
11884TIP3   OH257142   3.234   1.777   6.354  0.4192 -0.3731 -0.5157
11884TIP3    H157143   3.319   1.741   6.381  0.3822  0.2987  0.5519
11884TIP3    H257144   3.172   1.705   6.368  0.9229 -1.1774 -2.1818
11885TIP3   OH257145   3.565   1.171  12.523 -0.0809 -0.1574 -0.1993
11885TIP3    H157146   3.629   1.110  12.558 -0.5124 -0.8611 -0.5968
11885TIP3    H257147   3.616   1.239  12.480  0.4145 -0.0606  0.5355
11886TIP3   OH257148   1.743   5.848  14.459  0.3727  0.1470  0.0277
11886TIP3    H157149   1.736   5.869  14.366 -0.9767 -0.7245 -0.0888
11886TIP3    H257150   1.698   5.919  14.504 -3.2078 -1.6644 -0.3058
11887TIP3   OH257151   4.107   0.744  15.834 -0.2842  0.4433 -0.2538
11887TIP3    H157152   4.151   0.661  15.853 -2.2004 -0.3515  1.0036
11887TIP3    H257153   4.156   0.809  15.884  0.0299 -0.2510  0.3582
11888TIP3   OH257154   6.312   0.383  16.515 -0.6055 -0.4121  0.1686
11888TIP3    H157155   6.359   0.305  16.546  0.1468 -0.1103 -0.1899
11888TIP3    H257156   6.375   0.428  16.460 -0.7613  0.8696  0.9985
11889TIP3   OH257157   5.360   1.411   4.015 -0.0674  0.8126  0.0147
11889TIP3    H157158   5.324   1.353   3.948  0.8922 -2.2999  1.9667
11889TIP3    H257159   5.312   1.388   4.095  2.4608  0.3177  1.5295
11890TIP3   OH257160   1.994   2.620   4.875  0.3102  0.5188 -0.2036
11890TIP3    H157161   1.930   2.612   4.803 -1.5464  0.6677  1.3568
11890TIP3    H257162   2.041   2.701   4.855  0.0617  0.3926 -1.4184
11891TIP3   OH257163   6.827   1.802   5.823 -0.8127 -0.0415 -0.0051
11891TIP3    H157164   6.847   1.881   5.773  0.1372  1.0241  1.9483
11891TIP3    H257165   6.903   1.745   5.810 -0.2274  0.5406  0.7564
11892TIP3   OH257166   0.028   1.686  15.491 -0.3265 -0.4097 -0.2052
11892TIP3    H157167   0.070   1.633  15.423  1.0814 -0.8389  0.9379
11892TIP3    H257168  -0.062   1.655  15.493  0.5768 -3.3521  0.8748
11893TIP3   OH257169   6.102   3.041   6.540  0.7660  0.1091 -0.0742
11893TIP3    H157170   6.129   3.016   6.629 -1.1922 -0.7788  0.3134
11893TIP3    H257171   6.048   3.119   6.553 -1.3022 -1.2384 -0.1960
11894TIP3   OH257172   5.303   3.430  15.875 -0.0600  0.2271 -0.6139
11894TIP3    H157173   5.392   3.395  15.875 -0.4582 -0.8220 -0.6396
11894TIP3    H257174   5.286   3.454  15.967 -0.9242 -2.7594  0.1079
11895TIP3   OH257175   0.439   3.067  11.382 -0.5569  0.5524 -0.0188
11895TIP3    H157176   0.412   3.155  11.408  0.7880  0.5541  1.4623
11895TIP3    H257177   0.534   3.066  11.393 -0.5615 -1.1331  0.1534
11896TIP3   OH257178   5.576   0.430  13.128 -0.3075  0.3309 -0.5699
11896TIP3    H157179   5.635   0.505  13.119  1.0905 -0.7207 -0.5277
11896TIP3    H257180   5.566   0.417  13.222  2.2858 -1.5905 -0.4527
11897TIP3   OH257181   2.225   6.521  13.483  0.0304  0.2519 -0.3706
11897TIP3    H157182   2.280   6.597  13.505 -0.3252  0.4671 -0.2202
11897TIP3    H257183   2.179   6.501  13.564 -1.0019  0.8105 -0.7952
11898TIP3   OH257184   0.323   6.630   1.804  0.5606  0.8483 -0.8256
11898TIP3    H157185   0.338   6.721   1.826  2.9585  0.0718  1.2839
11898TIP3    H257186   0.288   6.591   1.884 -1.4530  0.0663 -2.0164
11899TIP3   OH257187   3.301   0.608   4.555  0.2272 -0.3165  0.7145
11899TIP3    H157188   3.360   0.666   4.604 -0.1885  0.2875  0.4977
11899TIP3    H257189   3.337   0.606   4.467 -0.4558  0.5912  0.4078
11900TIP3   OH257190   4.884   2.321  16.276  0.8812 -0.3638  0.1673
11900TIP3    H157191   4.829   2.400  16.275  1.7405  0.2855  1.7220
11900TIP3    H257192   4.823   2.250  16.295 -0.0499 -0.2632 -2.0507
11901TIP3   OH257193   0.680   0.584  12.808 -0.3032  0.1634  0.0629
11901TIP3    H157194   0.655   0.532  12.884 -1.1710  1.0309  0.3922
11901TIP3    H257195   0.630   0.665  12.817 -1.2057 -0.1164 -1.9497
11902TIP3   OH257196   4.487   4.967  13.507 -0.2620 -0.3592  0.1617
11902TIP3    H157197   4.577   4.974  13.538 -0.2408  0.6492 -0.0790
11902TIP3    H257198   4.488   4.893  13.448 -0.0922 -1.7419  1.8244
11903TIP3   OH257199   2.242   0.092   3.100 -0.1593 -0.7777  0.0288
11903TIP3    H157200   2.264   0.085   3.007 -1.9957 -3.4097 -0.3195
11903TIP3    H257201   2.299   0.029   3.143  2.2145  1.9139  1.1393
11904TIP3   OH257202   0.828   0.516  13.498  0.2443  0.3273 -0.2060
11904TIP3    H157203   0.855   0.429  13.529 -1.4501 -0.8647 -1.8839
11904TIP3    H257204   0.780   0.554  13.571 -1.2974 -1.2764 -0.3372
11905TIP3   OH257205   5.500   3.831   0.654 -0.8428 -0.3657  0.4090
11905TIP3    H157206   5.476   3.794   0.739 -1.3461 -2.0514 -0.4123
11905TIP3    H257207   5.451   3.913   0.648 -1.2908 -0.5390  1.4690
11906TIP3   OH257208   4.796   6.789   2.124  0.2241  0.3402  0.4554
11906TIP3    H157209   4.878   6.808   2.168  1.0647 -1.8507 -0.0367
11906TIP3    H257210   4.791   6.693   2.123 -1.2770  0.3752 -1.4287
11907TIP3   OH257211   5.871   0.405   1.347  0.1994  0.0115 -0.2663
11907TIP3    H157212   5.874   0.321   1.394 -0.2796  0.6640  0.9659
11907TIP3    H257213   5.779   0.431   1.351  0.4732  0.9487 -0.0143
11908TIP3   OH257214   1.622   0.105  10.380  0.0226  0.5280  0.5610
11908TIP3    H157215   1.689   0.173  10.372 -0.0344  0.4195 -1.4699
11908TIP3    H257216   1.539   0.151  10.367  0.0118  0.0716 -1.3176
11909TIP3   OH257217   1.696   6.128   3.930  0.0829 -0.3597  0.1482
11909TIP3    H157218   1.720   6.036   3.939  0.1330 -0.5519 -1.5566
11909TIP3    H257219   1.776   6.170   3.900 -0.3852 -0.0898 -0.7498
11910TIP3   OH257220   5.099   0.335  13.174 -0.5452 -0.1665  0.3506
11910TIP3    H157221   5.152   0.284  13.112 -2.1555 -2.8872  1.0180
11910TIP3    H257222   5.162   0.373  13.235  0.7880 -1.2791 -0.2796
11911TIP3   OH257223   6.056   3.340   2.701 -0.0703 -0.7139  0.3304
11911TIP3    H157224   6.116   3.300   2.764 -0.5118  0.0488  1.2716
11911TIP3    H257225   5.987   3.378   2.755 -1.5635 -1.8012 -0.7415
11912TIP3   OH257226   0.826   3.611   1.391 -0.6079  0.2893  0.4903
11912TIP3    H157227   0.914   3.601   1.427  0.6775  2.5816 -1.7291
11912TIP3    H257228   0.807   3.704   1.399 -2.9409 -0.1482  0.9692
11913TIP3   OH257229   2.106   2.848   2.775  0.3818  1.2991 -0.0309
11913TIP3    H157230   2.151   2.764   2.767 -1.6270  0.2022 -0.6210
11913TIP3    H257231   2.101   2.880   2.685 -0.0429  1.3742  0.0179
11914TIP3   OH257232   2.969   1.039  11.419 -0.2171  0.0938 -0.2854
11914TIP3    H157233   2.876   1.017  11.421 -0.2616  0.0327 -1.8221
11914TIP3    H257234   3.013   0.957  11.396  0.2435  0.0840  0.5998
11915TIP3   OH257235   6.725   3.285  12.181  0.7242  0.0584 -0.4301
11915TIP3    H157236   6.785   3.348  12.221  0.0521  0.6609 -0.3667
11915TIP3    H257237   6.773   3.202  12.184  1.6073  0.5544 -0.4951
11916TIP3   OH257238   2.462   3.117  14.098 -0.2786  0.3825  0.2264
11916TIP3    H157239   2.485   3.027  14.120  0.0689 -0.0599 -1.7523
11916TIP3    H257240   2.434   3.155  14.180  0.3274 -1.2984  1.2670
11917TIP3   OH257241   1.575   0.017  14.765 -0.1607 -0.1190 -0.2255
11917TIP3    H157242   1.570   0.090  14.827 -1.9841  0.1837 -0.6810
11917TIP3    H257243   1.515   0.041  14.694 -0.7637 -2.0102 -0.4158
11918TIP3   OH257244   0.322   5.066  14.588  0.3909 -0.1768 -0.1728
11918TIP3    H157245   0.267   4.998  14.627  0.6286 -0.6865 -0.7187
11918TIP3    H257246   0.272   5.147  14.599  0.2181 -0.3900  0.7113
11919TIP3   OH257247   6.145   1.224   4.496 -0.7772  0.4312 -0.0352
11919TIP3    H157248   6.172   1.228   4.588 -1.9021  1.1796  0.2839
11919TIP3    H257249   6.216   1.266   4.448  0.0327 -0.3765  0.4354
11920TIP3   OH257250   3.675   5.553  14.610  0.0342  0.3699  0.3759
11920TIP3    H157251   3.656   5.584  14.522 -1.0571 -2.3718 -0.4552
11920TIP3    H257252   3.589   5.548  14.652  0.3012 -0.3768  0.8522
11921TIP3   OH257253   6.736   1.596   0.709 -0.4678  0.2329 -0.8871
11921TIP3    H157254   6.645   1.623   0.693 -0.6932 -0.2564 -0.4405
11921TIP3    H257255   6.779   1.610   0.624 -0.2784  3.0545 -0.4260
11922TIP3   OH257256   1.060   6.841  12.151 -0.1538 -0.1881  0.5170
11922TIP3    H157257   1.005   6.901  12.203 -1.4626  1.0951 -2.1060
11922TIP3    H257258   1.138   6.892  12.130 -0.5377  0.0649 -0.3694
11923TIP3   OH257259   5.621   1.734  15.727 -0.1668  0.3114 -0.3205
11923TIP3    H157260   5.706   1.778  15.717 -0.2218  0.4651 -0.1150
11923TIP3    H257261   5.626   1.690  15.812 -0.3527  0.4549 -0.2342
11924TIP3   OH257262   4.186   0.911   0.417  0.2663 -0.4106 -0.6153
11924TIP3    H157263   4.107   0.895   0.365  0.0617 -0.1279 -0.3964
11924TIP3    H257264   4.241   0.835   0.400 -0.0937 -0.6579 -0.6953
11925TIP3   OH257265   5.304   2.224   4.113  0.4356 -0.7788  0.0396
11925TIP3    H157266   5.371   2.185   4.170 -1.0401 -2.6742  0.5975
11925TIP3    H257267   5.230   2.163   4.119 -0.8157  0.4930 -1.6815
11926TIP3   OH257268   2.965   5.569  10.774  0.6425 -0.3097 -0.1376
11926TIP3    H157269   3.039   5.602  10.723  0.3205  0.2134 -0.2633
11926TIP3    H257270   2.932   5.495  10.722 -0.2367  0.7660 -1.1463
11927TIP3   OH257271   2.399   0.784   0.691 -0.6415  0.4100 -0.1576
11927TIP3    H157272   2.359   0.746   0.613  1.0670  0.2115 -0.9895
11927TIP3    H257273   2.398   0.713   0.756 -0.1413 -0.1300 -0.7253
11928TIP3   OH257274   2.404   0.905  13.271 -0.1625 -0.1446  0.3189
11928TIP3    H157275   2.463   0.955  13.327  1.0173  1.0919 -1.8989
11928TIP3    H257276   2.456   0.832  13.238 -0.2145  0.2436 -0.6667
11929TIP3   OH257277   3.632   1.655   5.678 -0.2913 -0.1582  0.1162
11929TIP3    H157278   3.561   1.705   5.637  1.4094  0.4345 -2.3834
11929TIP3    H257279   3.600   1.636   5.766 -2.9108  1.3442 -0.3802
11930TIP3   OH257280   6.733   4.778   5.528  0.1114  0.2668  0.0373
11930TIP3    H157281   6.710   4.708   5.468  0.9103 -0.0916  0.1398
11930TIP3    H257282   6.805   4.743   5.581  0.4233  1.1006  0.1905
11931TIP3   OH257283   5.818   0.156   1.099 -0.7017  0.1503 -0.3320
11931TIP3    H157284   5.867   0.109   1.032  0.0101 -1.4420  1.2430
11931TIP3    H257285   5.829   0.104   1.179 -1.6099  1.9063  1.0171
11932TIP3   OH257286   0.738   4.434   3.176  0.3513  0.1852  0.2647
11932TIP3    H157287   0.643   4.420   3.181  0.3262  0.2592 -0.0124
11932TIP3    H257288   0.761   4.412   3.086 -0.0240  3.8478 -0.8612
11933TIP3   OH257289   4.544   0.309  12.910  0.5421 -0.0897  0.4493
11933TIP3    H157290   4.603   0.234  12.904  0.4062 -0.1898  0.3567
11933TIP3    H257291   4.485   0.288  12.983  0.4083 -0.1411  0.3260
11934TIP3   OH257292   0.246   1.314   1.692  0.0264 -0.2056  0.3108
11934TIP3    H157293   0.331   1.351   1.669 -0.6450  0.2461 -1.6746
11934TIP3    H257294   0.199   1.310   1.608 -2.4686  1.0471  1.5382
11935TIP3   OH257295   4.212   6.425   0.282 -0.2164  0.3215 -0.0359
11935TIP3    H157296   4.237   6.505   0.235 -0.7390  0.0402 -0.8299
11935TIP3    H257297   4.267   6.424   0.359  0.5099  0.9357 -0.5295
11936TIP3   OH257298   5.063   0.729  15.053 -0.0780  0.4992 -0.2153
11936TIP3    H157299   4.971   0.719  15.029  0.4442 -0.2982 -2.1306
11936TIP3    H257300   5.062   0.768  15.140 -2.2443 -1.7257  0.8793
11937TIP3   OH257301   3.779   4.358   1.051  0.7429 -0.4925 -0.0098
11937TIP3    H157302   3.868   4.367   1.085  1.8426 -1.5043 -2.4460
11937TIP3    H257303   3.745   4.278   1.093  1.4183 -0.7486  0.0529
11938TIP3   OH257304   3.106   2.574   3.753 -0.3792  0.2035 -0.4328
11938TIP3    H157305   3.100   2.480   3.737 -1.0982 -0.4420  2.9820
11938TIP3    H257306   3.198   2.595   3.741 -0.2599 -0.8502 -1.4837
11939TIP3   OH257307   5.784   0.013  13.757 -0.0964  0.1600  0.3041
11939TIP3    H157308   5.815   0.102  13.745  0.0530 -0.2442 -3.5428
11939TIP3    H257309   5.861  -0.036  13.786  0.5953  0.7835 -0.4218
11940TIP3   OH257310   5.724   3.312  13.111 -0.2752 -0.0109  0.0246
11940TIP3    H157311   5.752   3.293  13.021  2.5940  0.2418  0.7778
11940TIP3    H257312   5.755   3.401  13.127  0.3413 -0.4890  1.6473
11941TIP3   OH257313   0.896   1.086  10.811 -0.4438 -0.0414  0.3142
11941TIP3    H157314   0.914   1.180  10.812 -0.3926 -0.0374 -0.4905
11941TIP3    H257315   0.884   1.064  10.719 -2.1648 -0.5046  0.6120
11942TIP3   OH257316   1.933   3.652  13.751 -0.5946 -0.2951  0.3868
11942TIP3    H157317   1.858   3.619  13.702 -0.6264  0.4824 -0.1062
11942TIP3    H257318   2.009   3.618  13.705 -0.6187  0.6696 -0.3981
11943TIP3   OH257319   0.415   6.516  13.004 -0.5467  0.2881 -0.0359
11943TIP3    H157320   0.435   6.440  13.060 -1.8489  0.6444  0.9658
11943TIP3    H257321   0.379   6.479  12.924 -0.1215 -0.1828 -0.0124
11944TIP3   OH257322   5.095   0.103   2.191  0.0511  0.1608  0.6323
11944TIP3    H157323   5.096   0.009   2.174  0.5041  0.2829 -0.0572
11944TIP3    H257324   5.156   0.115   2.264 -0.4746 -0.1484  1.1286
11945TIP3   OH257325   2.678   5.848  15.629 -0.1142 -0.1197 -0.2833
11945TIP3    H157326   2.601   5.905  15.636 -0.1683 -0.2975  0.5535
11945TIP3    H257327   2.643   5.763  15.604 -0.2040 -0.2268  0.1986
11946TIP3   OH257328   0.005   6.662  15.023 -0.5789 -0.5574 -0.5565
11946TIP3    H157329   0.080   6.698  14.977  0.2357  0.4162  1.4152
11946TIP3    H257330  -0.065   6.726  15.008 -0.7474 -0.9569 -1.5557
11947TIP3   OH257331   0.170   2.810  11.396  0.0797 -0.1179 -0.3768
11947TIP3    H157332   0.172   2.898  11.358 -0.6421 -0.6343 -1.6709
11947TIP3    H257333   0.261   2.790  11.415  0.3227  0.6439 -0.7025
11948TIP3   OH257334   3.409   2.570  14.002  0.1068 -0.0311  0.2752
11948TIP3    H157335   3.357   2.570  13.921 -0.3500 -0.0609  0.5643
11948TIP3    H257336   3.345   2.552  14.071  0.2685  1.3119  0.7954
11949TIP3   OH257337   1.579   6.838  11.691  0.0056  0.6281  0.0621
11949TIP3    H157338   1.548   6.748  11.699 -0.8585  1.0115  1.5641
11949TIP3    H257339   1.673   6.833  11.702  0.1656 -0.2378 -1.4445
11950TIP3   OH257340   5.639   3.241   1.144 -0.8951  0.7991 -0.1203
11950TIP3    H157341   5.586   3.238   1.224  1.3638 -0.4236  1.4423
11950TIP3    H257342   5.725   3.207   1.171 -0.2775 -0.4893 -3.2581
11951TIP3   OH257343   5.524   4.039  12.267  0.2973  0.7222  0.4144
11951TIP3    H157344   5.570   4.058  12.348 -0.3901 -1.1031  1.2981
11951TIP3    H257345   5.593   4.021  12.203  0.8465  0.1714  1.1474
11952TIP3   OH257346   0.686   1.678   3.475  0.1688 -0.0844  0.5296
11952TIP3    H157347   0.779   1.700   3.465  0.8505 -2.0702  1.9913
11952TIP3    H257348   0.651   1.683   3.386  1.2933  2.1025  0.1296
11953TIP3   OH257349   3.726   1.546   6.329 -0.5291  0.4576 -0.5465
11953TIP3    H157350   3.757   1.495   6.404 -1.2242 -0.9676 -1.1935
11953TIP3    H257351   3.762   1.501   6.253 -2.6324 -0.1804 -1.2258
11954TIP3   OH257352   2.676   5.907   4.827 -0.1925 -0.2408  0.2826
11954TIP3    H157353   2.647   5.976   4.766  2.2094  0.7358  0.1170
11954TIP3    H257354   2.678   5.828   4.774  0.2619  0.2611 -0.4681
11955TIP3   OH257355   0.199   3.475  17.036  0.2383 -0.0274  0.0754
11955TIP3    H157356   0.210   3.546  16.973  1.1781 -0.7846 -0.6458
11955TIP3    H257357   0.269   3.414  17.015 -1.6134 -2.0651 -0.5458
11956TIP3   OH257358   3.970   5.061  16.455  1.0686 -0.0932  0.2025
11956TIP3    H157359   3.878   5.044  16.471  0.8833  1.4028  0.8772
11956TIP3    H257360   4.011   4.974  16.457  0.1409 -0.5720  2.9322
11957TIP3   OH257361   2.297   1.243   2.800  0.0761  0.4096  0.0570
11957TIP3    H157362   2.388   1.249   2.829  0.1763  0.0997 -0.1847
11957TIP3    H257363   2.245   1.260   2.878  0.3041 -3.2925  1.1909
11958TIP3   OH257364   1.286   6.241  13.944 -0.2607 -0.0023 -0.3382
11958TIP3    H157365   1.329   6.211  14.024 -0.0122  2.4462  0.5332
11958TIP3    H257366   1.193   6.221  13.958 -0.0404 -0.9225 -0.1115
11959TIP3   OH257367   4.285   4.744   2.266 -0.6099  0.2455  0.1326
11959TIP3    H157368   4.352   4.813   2.262  0.2753 -0.5846  0.1481
11959TIP3    H257369   4.249   4.751   2.354 -0.5646  0.7302  0.1148
11960TIP3   OH257370   1.230   1.947  13.877 -0.3673 -0.8238  0.0591
11960TIP3    H157371   1.324   1.926  13.882  0.0147  0.6396 -0.3335
11960TIP3    H257372   1.214   2.000  13.955 -0.6336 -0.2295 -0.3966
11961TIP3   OH257373   1.349   6.681   1.965 -0.0171 -0.3867  0.0390
11961TIP3    H157374   1.274   6.724   1.924  1.4404 -0.3128 -2.7905
11961TIP3    H257375   1.345   6.708   2.057 -2.0623  1.5581 -0.5323
11962TIP3   OH257376   5.755   2.161  17.029 -0.2551 -0.4137  0.2256
11962TIP3    H157377   5.835   2.136  17.075 -1.6828  0.3566  3.3645
11962TIP3    H257378   5.684   2.119  17.078 -2.0007  1.7646 -0.2804
11963TIP3   OH257379   1.578   0.981  15.962 -0.4041 -0.3983 -0.0610
11963TIP3    H157380   1.659   1.025  15.936  0.3829 -1.5778  0.3254
11963TIP3    H257381   1.511   1.049  15.955  0.4344  0.3427 -1.3608
11964TIP3   OH257382   1.191   5.257  11.795 -0.4908 -0.1911 -0.7484
11964TIP3    H157383   1.183   5.258  11.700 -1.0978 -1.1165 -0.7133
11964TIP3    H257384   1.154   5.341  11.823 -0.9918 -0.2308 -1.2709
11965TIP3   OH257385   3.558   4.660  12.836  0.0037  0.4299  0.4439
11965TIP3    H157386   3.527   4.701  12.917 -0.1852  0.4810  0.3462
11965TIP3    H257387   3.495   4.590  12.818  0.2390  0.1937  0.5277
11966TIP3   OH257388   3.272   0.632   0.617  0.0315 -0.1106  0.8284
11966TIP3    H157389   3.259   0.609   0.525  0.2190  0.6517  0.5986
11966TIP3    H257390   3.188   0.667   0.646  0.6676  2.1379  0.1630
11967TIP3   OH257391   3.775   5.948   5.361 -0.4104  0.0649  0.2495
11967TIP3    H157392   3.745   5.859   5.380  0.9770 -0.1911  1.4976
11967TIP3    H257393   3.700   6.004   5.380 -1.5326 -0.8657 -1.2405
11968TIP3   OH257394   2.068   1.127   1.704  0.1474  0.1354  0.6686
11968TIP3    H157395   2.149   1.084   1.678 -0.1998  1.4145 -3.2485
11968TIP3    H257396   2.093   1.217   1.726 -0.0355  0.1674  0.7535
11969TIP3   OH257397   1.397   1.092  15.194  0.4101  0.0469  0.6649
11969TIP3    H157398   1.314   1.111  15.151  1.4391  3.1954 -0.2061
11969TIP3    H257399   1.373   1.070  15.284 -1.3380  3.0204  1.0619
11970TIP3   OH257400   1.417   6.410   4.551 -0.3728  0.3975 -0.6706
11970TIP3    H157401   1.421   6.365   4.467  1.1966 -0.4104 -0.1997
11970TIP3    H257402   1.497   6.464   4.553  0.8456 -1.3517  1.2068
11971TIP3   OH257403   3.131   5.094  11.550 -0.5433  0.3819 -0.1380
11971TIP3    H157404   3.103   5.138  11.631 -1.8494 -0.4459 -0.1181
11971TIP3    H257405   3.081   5.013  11.548 -0.4462  0.3330 -1.7228
11972TIP3   OH257406   1.829   3.976  17.102  0.5644  0.3962  0.0946
11972TIP3    H157407   1.796   3.901  17.053 -0.0703  0.5667  0.2416
11972TIP3    H257408   1.907   4.004  17.055 -0.0612  0.5965 -0.8489
11973TIP3   OH257409   6.117   6.005  11.567  0.4378 -0.3748  0.2760
11973TIP3    H157410   6.202   6.028  11.607  0.4593  0.9119 -0.4633
11973TIP3    H257411   6.061   6.081  11.585 -0.1740 -0.6701 -0.3559
11974TIP3   OH257412   0.264   3.739  16.887 -0.4435  0.2985 -0.2296
11974TIP3    H157413   0.341   3.790  16.914 -0.1770  0.4521 -1.2273
11974TIP3    H257414   0.217   3.798  16.827 -0.4167 -0.4199 -0.9742
11975TIP3   OH257415   0.679   1.616  11.843  0.3460 -0.0944 -0.0523
11975TIP3    H157416   0.639   1.676  11.779  1.3988  0.6699 -0.0079
11975TIP3    H257417   0.624   1.624  11.921 -0.3435 -0.2536 -0.5115
11976TIP3   OH257418   1.037   0.570  15.180  0.2575  0.1649 -0.0990
11976TIP3    H157419   0.953   0.526  15.179  0.9046 -1.1210  0.3978
11976TIP3    H257420   1.093   0.517  15.124  1.0902  0.2588  0.6196
11977TIP3   OH257421   0.416   1.374  14.263  0.3301 -0.5626 -0.2122
11977TIP3    H157422   0.368   1.359  14.344  0.5544 -1.4490 -0.2395
11977TIP3    H257423   0.505   1.396  14.291 -0.1926  1.7299 -0.1338
11978TIP3   OH257424   1.375   1.896  10.989 -0.2228 -0.2120 -0.2150
11978TIP3    H157425   1.330   1.980  11.002  0.3192  0.1877 -0.9092
11978TIP3    H257426   1.468   1.916  10.996 -0.1166 -1.0222  1.1021
11979TIP3   OH257427   1.095   0.783   5.721  0.2274 -0.0901  0.5730
11979TIP3    H157428   1.023   0.725   5.695 -1.0178  1.3804  0.5949
11979TIP3    H257429   1.052   0.859   5.761  1.8432  0.4571  1.3633
11980TIP3   OH257430   4.063   3.682   5.025 -0.4428  0.2721 -0.4612
11980TIP3    H157431   4.142   3.728   5.053  0.0093 -0.6348 -0.2230
11980TIP3    H257432   4.045   3.619   5.096  0.3956 -1.6693 -1.8870
11981TIP3   OH257433   5.969   0.247  12.621 -0.2777 -0.8492  0.1687
11981TIP3    H157434   5.885   0.280  12.590  0.5591  0.7100 -0.5633
11981TIP3    H257435   6.006   0.201  12.545 -0.1897 -0.9567  0.2772
11982TIP3   OH257436   4.090   3.683   2.521 -0.2987 -0.2554  0.4678
11982TIP3    H157437   3.998   3.657   2.512  0.5244 -2.9354 -2.0037
11982TIP3    H257438   4.095   3.768   2.478 -1.2407 -1.3555 -2.0394
11983TIP3   OH257439   2.639   5.135   4.375  0.3044  0.1703 -0.6853
11983TIP3    H157440   2.670   5.179   4.454 -0.1192  0.6514 -0.7764
11983TIP3    H257441   2.702   5.065   4.359 -0.4091 -0.8927  0.9161
11984TIP3   OH257442   5.271   5.004   2.166  0.1168  0.3957 -0.7444
11984TIP3    H157443   5.223   4.954   2.231  1.2363  0.1961 -0.0445
11984TIP3    H257444   5.336   4.942   2.131  0.5508  0.9409 -0.9211
11985TIP3   OH257445   1.978   3.379  13.135  0.2959  0.7317 -0.1863
11985TIP3    H157446   2.054   3.332  13.168 -1.1516 -2.0097 -0.4795
11985TIP3    H257447   1.903   3.337  13.177 -1.3445  0.0132 -3.4501
11986TIP3   OH257448   5.099   1.793  13.431  0.1129 -0.0074  0.7417
11986TIP3    H157449   5.056   1.713  13.400  0.6058 -0.6590  1.6796
11986TIP3    H257450   5.161   1.815  13.362 -0.7466  0.1543  0.0079
11987TIP3   OH257451   1.309   1.589  11.431  0.2843 -0.3589  0.1884
11987TIP3    H157452   1.238   1.525  11.445 -1.7019  1.3991 -1.1816
11987TIP3    H257453   1.343   1.569  11.344 -1.6416  1.4825 -1.0828
11988TIP3   OH257454   2.462   0.875   6.057 -1.0150 -0.4301  0.1613
11988TIP3    H157455   2.535   0.819   6.084 -0.4888  0.6938  1.1916
11988TIP3    H257456   2.501   0.936   5.994 -1.6632 -1.3967 -1.2337
11989TIP3   OH257457   0.172   2.589   6.042  0.2427  0.1138 -0.4344
11989TIP3    H157458   0.086   2.558   6.067  0.7465 -0.7268  0.3223
11989TIP3    H257459   0.178   2.677   6.079  0.7778 -0.9026  2.0647
11990TIP3   OH257460   1.279   3.034   0.264 -0.0830  0.2797 -0.1594
11990TIP3    H157461   1.275   3.102   0.197 -1.1010  0.7064  0.3054
11990TIP3    H257462   1.196   2.986   0.255  0.5645 -0.8278 -0.3920
11991TIP3   OH257463   4.242   4.985  15.732 -0.2011  0.4809  0.1744
11991TIP3    H157464   4.171   5.027  15.782  0.6728  1.9983  0.1823
11991TIP3    H257465   4.196   4.929  15.670 -1.3940  0.8718  0.6600
11992TIP3   OH257466   6.543   3.664  11.741  0.2665  0.5886 -0.4751
11992TIP3    H157467   6.509   3.674  11.830 -1.5291  0.9335 -1.1686
11992TIP3    H257468   6.624   3.614  11.752  0.0185  0.5213  1.3296
11993TIP3   OH257469   2.449   5.106  15.200  0.0583  0.1612  0.1797
11993TIP3    H157470   2.406   5.041  15.256  0.5861 -0.6423 -0.3286
11993TIP3    H257471   2.500   5.159  15.261  0.4531 -0.5647  0.5014
11994TIP3   OH257472   5.033   6.007   3.044 -0.1805 -0.7425 -0.0960
11994TIP3    H157473   5.037   6.026   2.950  2.6670  0.2019  0.0998
11994TIP3    H257474   4.999   5.918   3.050  0.2969 -1.1019 -2.0970
11995TIP3   OH257475   4.086   0.290  10.809 -0.4702  0.5787  0.0633
11995TIP3    H157476   4.130   0.361  10.857  3.0294 -1.4050  0.1455
11995TIP3    H257477   4.117   0.210  10.853 -4.2350 -1.1057 -0.0193
11996TIP3   OH257478   2.689   2.186   1.982  0.3070 -0.1791 -0.1366
11996TIP3    H157479   2.660   2.110   1.931 -0.3789  0.2393 -0.3682
11996TIP3    H257480   2.784   2.188   1.968 -0.0097  0.7835 -2.6042
11997TIP3   OH257481   4.873   5.486  12.606 -0.5464 -0.1563 -0.0949
11997TIP3    H157482   4.950   5.534  12.576 -0.3971  0.3245  1.0114
11997TIP3    H257483   4.903   5.437  12.682 -1.0671 -0.8253 -0.3122
11998TIP3   OH257484   2.829   4.071   3.894 -0.7121  0.1819 -0.2758
11998TIP3    H157485   2.899   4.136   3.886 -1.0018  0.5891  0.3884
11998TIP3    H257486   2.777   4.101   3.969 -1.2905 -0.4023 -0.4330
11999TIP3   OH257487   5.935   0.393  13.988  0.1052  0.2197 -0.2449
11999TIP3    H157488   6.030   0.386  13.994  0.1081 -0.4114 -0.8549
11999TIP3    H257489   5.903   0.364  14.073  0.4139 -0.8140 -0.4687
12000TIP3   OH257490   1.890   1.135   3.521  0.0828  0.4346 -0.2658
12000TIP3    H157491   1.938   1.062   3.482 -2.3276 -1.4099 -0.0067
12000TIP3    H257492   1.912   1.132   3.614  0.5228  0.4839 -0.3668
12001TIP3   OH257493   6.728   4.465   5.521  0.0227 -0.3497 -0.2309
12001TIP3    H157494   6.660   4.402   5.496 -0.0985 -0.5194  0.4920
12001TIP3    H257495   6.697   4.503   5.603 -0.3060  1.2841 -1.0758
12002TIP3   OH257496   4.032   2.330  14.069 -0.0461 -0.5085  0.2514
12002TIP3    H157497   3.967   2.312  14.001  0.4356 -0.8065 -0.1323
12002TIP3    H257498   4.004   2.414  14.107  0.2255  0.1465 -0.9631
12003TIP3   OH257499   3.450   6.047  14.082 -0.0495 -0.0263  0.4491
12003TIP3    H157500   3.408   6.130  14.106  1.4847  1.1277 -0.5588
12003TIP3    H257501   3.394   5.979  14.118 -0.5444  1.4827  2.7070
12004TIP3   OH257502   4.641   2.113   2.986 -1.0854 -0.3282 -0.3757
12004TIP3    H157503   4.593   2.196   2.996  0.8058  0.8368 -0.6133
12004TIP3    H257504   4.634   2.093   2.893 -0.4385  0.2552 -0.5487
12005TIP3   OH257505   2.892   3.194  16.571 -0.2374 -0.2546 -0.5225
12005TIP3    H157506   2.977   3.230  16.545 -0.5133  1.3834  0.6810
12005TIP3    H257507   2.831   3.224  16.503  0.2734 -2.6262 -2.1977
12006TIP3   OH257508   1.413   2.023  11.891  0.4921  0.7409 -0.2691
12006TIP3    H157509   1.349   2.085  11.857  0.0145  0.4533  0.0828
12006TIP3    H257510   1.423   1.957  11.822 -0.0670  0.4491 -0.0779
12007TIP3   OH257511   1.830   6.231   1.945 -0.0273  0.5781  0.2274
12007TIP3    H157512   1.857   6.167   1.879 -1.0708  0.2647  0.0847
12007TIP3    H257513   1.882   6.309   1.926  0.8606 -0.0478  0.0640
12008TIP3   OH257514   6.125   5.558   2.214  0.2105 -0.4907 -0.7270
12008TIP3    H157515   6.076   5.494   2.265  0.7850 -0.3301  0.0564
12008TIP3    H257516   6.065   5.587   2.146 -0.4247 -1.0404 -0.4045
12009TIP3   OH257517   3.464   4.150  13.756  0.0101 -0.0429 -0.3428
12009TIP3    H157518   3.505   4.078  13.706  1.0386  0.8929 -0.9066
12009TIP3    H257519   3.533   4.216  13.761 -1.0475  1.0591 -0.1733
12010TIP3   OH257520   4.722   4.682   2.292 -0.0823 -0.8415 -0.1825
12010TIP3    H157521   4.675   4.658   2.213 -0.0177 -1.3232 -0.0789
12010TIP3    H257522   4.814   4.682   2.266 -0.1971  2.3356 -0.9918
12011TIP3   OH257523   1.321   5.219   0.072 -0.1601  0.1545 -1.0506
12011TIP3    H157524   1.397   5.253   0.119 -0.7742  0.0216  0.0636
12011TIP3    H257525   1.320   5.126   0.092 -0.5307  0.1290 -1.1823
12012TIP3   OH257526   6.410   4.587  14.385 -0.6870  0.5404 -0.3334
12012TIP3    H157527   6.399   4.548  14.298 -2.9079 -1.8894  0.8785
12012TIP3    H257528   6.320   4.605  14.414 -0.0197  1.0397  1.5484
12013TIP3   OH257529   4.149   1.817  14.778  0.0590  0.2156 -0.1892
12013TIP3    H157530   4.156   1.913  14.771 -0.4143  0.1952 -1.0067
12013TIP3    H257531   4.185   1.784  14.696  0.1978 -0.3159  0.0794
12014TIP3   OH257532   3.363   4.410  13.950 -0.1862 -0.0649 -0.4426
12014TIP3    H157533   3.267   4.406  13.952 -0.1840 -1.1277 -1.6036
12014TIP3    H257534   3.390   4.323  13.921  1.1378  0.2335 -0.1520
12015TIP3   OH257535   4.527   0.100   2.412 -0.1687 -0.5378  0.1642
12015TIP3    H157536   4.463   0.061   2.352  0.9748 -2.0549 -0.1214
12015TIP3    H257537   4.597   0.131   2.355  0.2794 -0.7121  0.6150
12016TIP3   OH257538   1.273   4.133  14.343  0.1429  0.5777  0.8437
12016TIP3    H157539   1.225   4.190  14.283  0.6931  0.8357  0.6452
12016TIP3    H257540   1.319   4.071  14.287  1.3643  1.3710  0.9485
12017TIP3   OH257541   4.125   3.819  15.585  0.0547 -0.3178 -0.4163
12017TIP3    H157542   4.209   3.853  15.612 -0.3942  1.4907 -1.1608
12017TIP3    H257543   4.146   3.753  15.519  0.8994 -0.5681  0.0903
12018TIP3   OH257544   4.775   4.836   2.679  0.8389  0.2271 -0.2974
12018TIP3    H157545   4.683   4.857   2.690  0.5626 -1.2965  0.5153
12018TIP3    H257546   4.809   4.905   2.622 -0.7528  0.8891 -0.4777
12019TIP3   OH257547   1.793   0.474   4.637 -0.7241 -0.1421 -0.2596
12019TIP3    H157548   1.809   0.389   4.596 -1.0804  0.1970 -1.1190
12019TIP3    H257549   1.794   0.536   4.565  1.7965  0.9284  0.5962
12020TIP3   OH257550   1.785   3.091   5.893  0.0386  0.7380  0.1774
12020TIP3    H157551   1.817   3.002   5.911 -0.0872  0.7447  0.4339
12020TIP3    H257552   1.863   3.145   5.894  0.2457  0.4902 -0.9121
12021TIP3   OH257553   4.490   3.490   2.262  0.6470 -0.2807  0.1773
12021TIP3    H157554   4.550   3.532   2.324 -0.1614  0.3821  0.5363
12021TIP3    H257555   4.544   3.469   2.187  1.3608  0.1780  0.5492
12022TIP3   OH257556   3.171   2.807  16.871 -0.1157  0.1784  0.7660
12022TIP3    H157557   3.076   2.803  16.873 -0.0943 -0.7927  0.5172
12022TIP3    H257558   3.192   2.871  16.803 -0.5927 -1.1401 -0.6690
12023TIP3   OH257559   4.091   2.269  16.120  0.3919  0.3506  0.0717
12023TIP3    H157560   4.142   2.222  16.187 -0.2288  2.2549  1.9889
12023TIP3    H257561   4.000   2.254  16.145  0.1591  1.2708 -0.1961
12024TIP3   OH257562   4.136   2.574   2.081 -0.1374  0.5936  0.2495
12024TIP3    H157563   4.224   2.559   2.046 -0.5725 -1.9076  0.0045
12024TIP3    H257564   4.138   2.663   2.116  2.2942  0.8105 -0.2978
12025TIP3   OH257565   5.326   6.727   5.740 -0.2620 -0.1446  0.7565
12025TIP3    H157566   5.269   6.799   5.711 -0.1178  0.7570  2.5562
12025TIP3    H257567   5.269   6.671   5.793  0.1131 -0.1922  1.1139
12026TIP3   OH257568   5.567   6.145   6.230 -0.3777 -0.3019 -0.3920
12026TIP3    H157569   5.485   6.183   6.199  0.2092  0.0025 -1.6325
12026TIP3    H257570   5.592   6.082   6.162  0.5453 -0.1963 -0.1754
12027TIP3   OH257571   1.966   0.553  12.056  0.1423 -0.2944  0.3937
12027TIP3    H157572   1.902   0.563  11.986  1.3223 -0.4594 -0.7650
12027TIP3    H257573   1.914   0.543  12.136 -1.2355  1.1783 -0.2589
12028TIP3   OH257574   3.499   5.240   1.186 -0.0854 -0.3959  0.3482
12028TIP3    H157575   3.503   5.187   1.265  1.0753  0.9157  1.2200
12028TIP3    H257576   3.432   5.305   1.204 -1.1676 -1.2350 -0.5282
12029TIP3   OH257577   0.018   3.281   4.214 -0.3011  0.6667  0.1981
12029TIP3    H157578   0.026   3.359   4.268  1.7099 -1.2890  2.9951
12029TIP3    H257579   0.090   3.288   4.151  0.8074  0.4435  1.4040
12030TIP3   OH257580   1.478   6.459  13.187  0.1599 -0.5547 -0.2195
12030TIP3    H157581   1.491   6.372  13.150  0.7309 -0.3022 -0.6323
12030TIP3    H257582   1.554   6.473  13.243  0.1690 -0.2409 -0.3088
12031TIP3   OH257583   0.279   4.574   0.827 -0.3481  0.1510 -0.1904
12031TIP3    H157584   0.323   4.597   0.745  0.8315  1.5402  0.7841
12031TIP3    H257585   0.314   4.635   0.892 -3.5822  1.2454  0.7249
12032TIP3   OH257586   1.280   0.841  11.538  0.2155 -0.5355 -0.5486
12032TIP3    H157587   1.263   0.851  11.444 -1.7975  0.1587 -0.1615
12032TIP3    H257588   1.200   0.802  11.572  0.0572  1.1496  1.1776
12033TIP3   OH257589   5.140   5.209   2.009  0.3867 -0.2551  0.3953
12033TIP3    H157590   5.197   5.133   2.023  0.8569  0.0991  0.4078
12033TIP3    H257591   5.052   5.172   2.005  0.5019 -0.6816  1.5188
12034TIP3   OH257592   3.794   4.223  10.836 -0.4753 -0.2336 -0.3030
12034TIP3    H157593   3.806   4.217  10.741 -1.1100 -0.0632 -0.3999
12034TIP3    H257594   3.817   4.313  10.858 -2.2548  0.3500 -0.6150
12035TIP3   OH257595   3.101   3.484  13.010 -0.0785 -0.1000 -0.4949
12035TIP3    H157596   3.085   3.529  12.927 -0.1114  0.3983 -0.2195
12035TIP3    H257597   3.141   3.551  13.066 -1.4217 -0.0114  0.3905
12036TIP3   OH257598   5.458   4.332   2.629  0.4351  0.0376  0.2242
12036TIP3    H157599   5.492   4.345   2.717 -1.7654 -0.3977  1.2178
12036TIP3    H257600   5.364   4.350   2.637 -0.5358 -3.5241 -1.1283
12037TIP3   OH257601   1.847   2.504  16.867 -0.8938  0.2663  0.5854
12037TIP3    H157602   1.866   2.584  16.916 -2.1128 -0.2983  2.0528
12037TIP3    H257603   1.934   2.469  16.844 -0.3498  2.0979 -0.3050
12038TIP3   OH257604   3.778   1.462   4.688 -0.4270 -0.1636  0.0616
12038TIP3    H157605   3.807   1.510   4.611 -0.1746 -1.7961 -0.9145
12038TIP3    H257606   3.716   1.520   4.731  0.6853  1.4564 -0.4436
12039TIP3   OH257607   5.385   6.066  17.124 -0.0259  0.2356  0.0066
12039TIP3    H157608   5.358   5.984  17.084  0.4636  0.4665 -0.8316
12039TIP3    H257609   5.331   6.074  17.203 -1.3882  0.0057 -0.8719
12040TIP3   OH257610   0.846   1.274  14.209 -0.1113  0.4094  0.3358
12040TIP3    H157611   0.883   1.303  14.125 -0.5774  0.4786  0.1489
12040TIP3    H257612   0.921   1.241  14.258  0.4375  1.8711  0.5410
12041TIP3   OH257613   1.464   0.413  11.231 -0.1780 -0.3501  0.0245
12041TIP3    H157614   1.509   0.403  11.147 -1.4763  1.3483 -0.9263
12041TIP3    H257615   1.380   0.369  11.218 -1.0888  1.3826 -0.1925
12042TIP3   OH257616   5.302   4.610   0.606 -0.6709  0.3055 -0.2486
12042TIP3    H157617   5.331   4.691   0.648  2.3222 -1.0507  0.5913
12042TIP3    H257618   5.321   4.623   0.513 -2.8525  1.5244 -0.5973
12043TIP3   OH257619   6.678   2.212   5.865 -0.5480  0.1381  0.1651
12043TIP3    H157620   6.701   2.299   5.897  0.7970 -0.6009  1.3503
12043TIP3    H257621   6.707   2.211   5.774 -1.1676  1.1269 -0.0532
12044TIP3   OH257622   5.866   5.768  13.213  0.1182  0.0916  0.2566
12044TIP3    H157623   5.779   5.808  13.215 -0.5197 -1.1812  2.8728
12044TIP3    H257624   5.895   5.778  13.122 -0.8511  4.4319  0.1970
12045TIP3   OH257625   4.935   4.807   4.714 -0.4051  0.3003 -0.2880
12045TIP3    H157626   4.967   4.717   4.700 -1.2103 -0.1009  0.3786
12045TIP3    H257627   4.843   4.804   4.690 -0.3062  1.1100 -0.8274
12046TIP3   OH257628   6.750   3.873   3.830 -0.1275 -0.0177 -0.5513
12046TIP3    H157629   6.715   3.796   3.873 -0.8805  0.7295  0.2117
12046TIP3    H257630   6.840   3.849   3.807  0.0537 -0.6883  0.7845
12047TIP3   OH257631   1.704   2.673   5.697 -0.0312 -0.1367 -0.2616
12047TIP3    H157632   1.700   2.579   5.680 -1.9035  0.1447 -1.7981
12047TIP3    H257633   1.742   2.680   5.784 -0.6676 -2.3650  0.2650
12048TIP3   OH257634   4.344   2.034   0.401  0.4588 -0.1427  0.5323
12048TIP3    H157635   4.327   1.942   0.379 -0.1353  0.4258 -1.5817
12048TIP3    H257636   4.438   2.038   0.419  0.6199 -1.0365 -0.0716
12049TIP3   OH257637   3.810   4.170  11.605  0.7017  0.3364 -0.2779
12049TIP3    H157638   3.818   4.248  11.660 -1.2067 -0.3286  1.0861
12049TIP3    H257639   3.806   4.097  11.667 -0.8007 -0.5153 -1.2985
12050TIP3   OH257640   3.723   1.567   0.513 -0.1783 -0.2750  0.3488
12050TIP3    H157641   3.681   1.550   0.597 -1.5582  1.3309  0.0340
12050TIP3    H257642   3.653   1.597   0.457  0.8815 -0.4770 -1.1491
12051TIP3   OH257643   2.571   4.939   5.833  0.2939  0.1959  0.2101
12051TIP3    H157644   2.543   4.856   5.871  1.8072 -0.5579 -0.2585
12051TIP3    H257645   2.655   4.958   5.875  1.7461 -0.3732 -2.2296
12052TIP3   OH257646   4.685   1.490  11.280  0.1178  0.0101 -0.3003
12052TIP3    H157647   4.698   1.428  11.208  2.1615  0.4036 -0.3384
12052TIP3    H257648   4.691   1.438  11.359 -1.3556 -0.3007 -0.3658
12053TIP3   OH257649   4.566   2.975   4.339 -0.0589  0.0526 -0.3413
12053TIP3    H157650   4.642   2.920   4.316  0.6005  0.7119  0.2156
12053TIP3    H257651   4.511   2.973   4.261  0.7413 -0.0916 -0.9192
12054TIP3   OH257652   6.596   5.528   5.489 -0.1631 -0.1678 -0.2208
12054TIP3    H157653   6.669   5.525   5.427 -0.7554 -1.0484 -0.9065
12054TIP3    H257654   6.623   5.473   5.562  0.7831  1.3464  0.6138
12055TIP3   OH257655   5.101   6.571  15.018 -0.0647  0.0702  0.7342
12055TIP3    H157656   5.176   6.615  14.979  0.3697 -1.9779 -0.8892
12055TIP3    H257657   5.139   6.511  15.083 -0.4301  0.0962  0.9778
12056TIP3   OH257658   6.571   0.506  16.433  0.1679 -0.0480  0.0291
12056TIP3    H157659   6.515   0.497  16.357  0.5598 -0.4387 -0.2153
12056TIP3    H257660   6.614   0.591  16.422  1.0418 -0.5784 -0.7399
12057TIP3   OH257661   0.496   3.096  15.429 -0.0950 -0.8158 -0.2394
12057TIP3    H157662   0.591   3.088  15.431 -0.1100 -2.0084 -1.9909
12057TIP3    H257663   0.465   3.013  15.393 -1.5630  0.5928 -2.5107
12058TIP3   OH257664   1.934   4.503   1.850  0.6454  0.2004  0.3356
12058TIP3    H157665   1.897   4.496   1.938 -2.0757  2.1305 -0.5344
12058TIP3    H257666   1.912   4.591   1.820  0.5407 -0.7037 -2.6695
12059TIP3   OH257667   4.590   2.975  12.833 -0.4357  0.4646 -0.3353
12059TIP3    H157668   4.558   2.996  12.745  1.8258  0.3752 -1.2417
12059TIP3    H257669   4.648   3.047  12.855 -0.7872  0.3599  1.0101
12060TIP3   OH257670   1.038   2.085  15.782  0.2121  0.1079 -0.4613
12060TIP3    H157671   1.091   2.074  15.861  0.5122 -0.4585 -0.7401
12060TIP3    H257672   1.101   2.095  15.711 -0.0535  1.5948 -0.5207
12061TIP3   OH257673   1.879   1.346   0.260  0.6772 -0.0695 -0.0213
12061TIP3    H157674   1.849   1.435   0.242  1.1816 -0.3225 -2.4342
12061TIP3    H257675   1.974   1.353   0.263  0.7560 -0.6139 -0.9415
12062TIP3   OH257676   5.705   4.805  14.354  0.3502  0.3579 -0.0279
12062TIP3    H157677   5.717   4.725  14.302 -2.1314  1.0383 -1.8042
12062TIP3    H257678   5.629   4.787  14.409  2.0608  0.1974  2.4323
12063TIP3   OH257679   6.024   3.694   2.000 -0.0199 -0.7670 -0.0574
12063TIP3    H157680   6.034   3.689   2.095 -0.5926 -0.1022  0.0446
12063TIP3    H257681   6.036   3.787   1.979 -1.4410 -0.6409 -0.4323
12064TIP3   OH257682   4.694   5.475  15.555 -0.0595  0.0675 -0.3781
12064TIP3    H157683   4.741   5.404  15.511  2.1675  1.5179 -0.4944
12064TIP3    H257684   4.690   5.448  15.647 -2.5300 -1.8302 -0.9428
12065TIP3   OH257685   1.011   1.766  11.369  0.1549 -0.5333  0.3069
12065TIP3    H157686   0.966   1.847  11.394 -1.4621 -1.2129 -0.2148
12065TIP3    H257687   1.092   1.795  11.328 -0.4374  0.8455  0.0449
12066TIP3   OH257688   2.059   5.563  11.574 -0.4291 -0.5229 -0.1916
12066TIP3    H157689   2.071   5.532  11.663 -0.9548  1.4112  0.6053
12066TIP3    H257690   2.082   5.656  11.578  1.8976 -0.8702 -2.5947
12067TIP3   OH257691   3.279   0.237   1.036  0.1561 -0.7040 -0.1935
12067TIP3    H157692   3.302   0.230   0.943  0.6558  0.3885 -0.1621
12067TIP3    H257693   3.183   0.227   1.037  0.2045 -1.3515 -0.7430
12068TIP3   OH257694   3.184   6.508   3.437  0.0029 -0.0406 -0.3082
12068TIP3    H157695   3.248   6.438   3.445 -0.6275 -0.4084  2.5979
12068TIP3    H257696   3.228   6.574   3.383  0.6389 -2.4998 -3.0740
12069TIP3   OH257697   6.324   5.980  14.832 -0.1815 -0.0588  0.6142
12069TIP3    H157698   6.300   6.029  14.911  0.3059 -1.1703  1.4666
12069TIP3    H257699   6.419   5.974  14.836 -0.2363 -1.0341  0.4941
12070TIP3   OH257700   2.500   3.037  15.458  0.5409 -0.7600  0.5310
12070TIP3    H157701   2.595   3.036  15.464  0.5931 -2.1348 -0.0986
12070TIP3    H257702   2.482   3.048  15.364  0.0129  2.0180  0.8740
12071TIP3   OH257703   2.136   1.679   0.086 -0.4274  0.4772 -0.0638
12071TIP3    H157704   2.139   1.591   0.124 -0.7830  0.5202  0.0661
12071TIP3    H257705   2.226   1.710   0.089 -0.4103  0.3755  0.4995
12072TIP3   OH257706   5.212   0.186   1.886  0.1072 -0.5740 -0.0412
12072TIP3    H157707   5.282   0.129   1.854  0.3123 -0.5822  0.4111
12072TIP3    H257708   5.186   0.149   1.970 -0.1239 -0.3078  0.0086
12073TIP3   OH257709   1.599   0.457  10.416 -0.0824 -0.0098  0.3527
12073TIP3    H157710   1.523   0.412  10.378 -1.0803  1.4137  0.5817
12073TIP3    H257711   1.613   0.413  10.500 -0.3721 -0.5704  0.1133
12074TIP3   OH257712   4.251   0.792   4.252 -0.1667 -0.2207  0.1519
12074TIP3    H157713   4.193   0.719   4.230  0.7384 -0.3590 -2.0117
12074TIP3    H257714   4.207   0.837   4.323 -1.2774 -2.2475  0.8178
12075TIP3   OH257715   4.735   4.420   6.196 -0.2622 -0.3080  0.8398
12075TIP3    H157716   4.773   4.342   6.156  0.2261 -0.6220  1.9049
12075TIP3    H257717   4.752   4.490   6.132  0.0474 -0.8956  0.2689
12076TIP3   OH257718   4.996   1.631  10.549 -0.2908  0.7225 -0.3737
12076TIP3    H157719   4.911   1.613  10.588 -0.7010  0.5079 -1.3488
12076TIP3    H257720   5.033   1.545  10.531  0.1007  0.8152 -0.0402
12077TIP3   OH257721   4.741   5.917   3.307 -0.3341 -0.1307  0.2979
12077TIP3    H157722   4.758   6.000   3.262  1.4200 -1.2955 -1.3626
12077TIP3    H257723   4.698   5.943   3.389  2.4961  2.6858  1.1403
12078TIP3   OH257724   2.595   5.015   3.705  0.0153 -0.2017  0.0816
12078TIP3    H157725   2.613   4.947   3.770  0.7019 -0.7957 -0.7051
12078TIP3    H257726   2.601   4.970   3.621  1.3624  1.0016 -0.5059
12079TIP3   OH257727   1.665   1.403  15.164 -0.1928 -0.4958  0.1301
12079TIP3    H157728   1.589   1.425  15.216  0.0543 -2.3724  1.3987
12079TIP3    H257729   1.633   1.399  15.074 -1.6307 -1.3551  0.6569
12080TIP3   OH257730   1.683   5.793  15.579 -0.2481 -0.9670 -0.4077
12080TIP3    H157731   1.598   5.751  15.570  0.2117 -1.9876 -0.1409
12080TIP3    H257732   1.731   5.737  15.641 -0.3194  1.0783  1.6072
12081TIP3   OH257733   0.807   4.946  16.061  0.1420 -0.3482 -0.7437
12081TIP3    H157734   0.743   4.926  16.129 -0.3589  0.9369 -0.8155
12081TIP3    H257735   0.889   4.910  16.094  0.2347  1.5583  1.2720
12082TIP3   OH257736   3.452   4.339  11.543  0.1914 -0.2953 -0.4025
12082TIP3    H157737   3.497   4.414  11.503  2.3833 -1.3523 -0.0879
12082TIP3    H257738   3.401   4.301  11.473 -0.9115  1.4361 -0.5826
12083TIP3   OH257739   5.687   1.640   4.054 -0.3057  0.1308 -0.1857
12083TIP3    H157740   5.757   1.648   4.119  0.0551 -0.1735 -0.5288
12083TIP3    H257741   5.679   1.728   4.017 -0.2909  0.2297  0.0454
12084TIP3   OH257742   3.161   1.679   3.715  0.3201 -0.2444 -0.6809
12084TIP3    H157743   3.160   1.755   3.657 -1.0686 -0.1418 -0.5780
12084TIP3    H257744   3.105   1.705   3.788  3.3040  0.2691  1.6100
12085TIP3   OH257745   3.403   3.729   3.290 -0.4708 -0.5371 -0.3824
12085TIP3    H157746   3.381   3.788   3.218  1.1244  0.4829 -0.0725
12085TIP3    H257747   3.318   3.698   3.322 -1.3476  1.2467 -0.8498
12086TIP3   OH257748   5.559   1.358  15.651  0.1366  0.8082  0.0497
12086TIP3    H157749   5.568   1.336  15.744  0.5841  1.0391  0.0631
12086TIP3    H257750   5.638   1.323  15.610 -0.2774  0.2846 -0.3268
12087TIP3   OH257751   4.370   3.860  16.050 -0.5588 -0.6270 -0.4978
12087TIP3    H157752   4.386   3.899  16.136 -3.0430 -0.5421 -0.0148
12087TIP3    H257753   4.333   3.932  15.998 -0.1809 -0.9893 -1.2864
12088TIP3   OH257754   6.641   5.457  15.657 -0.0274 -0.0718  0.2451
12088TIP3    H157755   6.552   5.424  15.645  0.3314 -0.5589 -1.3184
12088TIP3    H257756   6.686   5.389  15.708 -0.2986 -0.2604  0.2328
12089TIP3   OH257757   6.138   6.815   2.349 -0.3315 -0.0348  0.1821
12089TIP3    H157758   6.097   6.733   2.319  1.1776 -0.3318 -1.1871
12089TIP3    H257759   6.072   6.854   2.407 -1.9674 -1.1702 -0.8076
12090TIP3   OH257760   5.892   1.142   4.378 -0.1594 -0.4990 -0.2116
12090TIP3    H157761   5.858   1.117   4.464  0.2198  2.5428  0.9463
12090TIP3    H257762   5.987   1.144   4.389 -0.1634  1.4582 -0.1348
12091TIP3   OH257763   3.785   0.553  12.997  0.5690  0.4544  0.1665
12091TIP3    H157764   3.829   0.469  12.990 -1.6874 -0.6332 -2.4757
12091TIP3    H257765   3.731   0.545  13.076 -1.2139 -1.4646 -1.1687
12092TIP3   OH257766   6.777   2.142  13.260  0.1356 -0.7991 -0.1035
12092TIP3    H157767   6.749   2.230  13.236 -1.9030 -0.7896  1.9600
12092TIP3    H257768   6.829   2.154  13.339  2.5088 -1.2496 -1.4924
12093TIP3   OH257769   1.946   1.863  16.171 -0.2106  0.2519  0.6694
12093TIP3    H157770   1.998   1.904  16.102  0.6215 -0.3364  0.9198
12093TIP3    H257771   1.897   1.935  16.210  0.0125  0.7410  0.0668
12094TIP3   OH257772   3.571   1.686  13.191  0.5832  0.5285 -0.0788
12094TIP3    H157773   3.488   1.730  13.170 -1.3925 -1.1146  3.3726
12094TIP3    H257774   3.607   1.737  13.263  1.4397 -0.0643 -0.0735
12095TIP3   OH257775   3.870   2.821   3.584  0.3708 -0.0754  0.1099
12095TIP3    H157776   3.784   2.861   3.594  0.0390 -0.6026 -0.4999
12095TIP3    H257777   3.930   2.880   3.629 -0.3829  0.0102  1.0362
12096TIP3   OH257778   3.414   1.732   0.646 -0.1914 -0.4100  0.2612
12096TIP3    H157779   3.370   1.650   0.624  1.1428 -1.4671  1.3578
12096TIP3    H257780   3.426   1.728   0.741 -2.0571  2.0927  0.7177
12097TIP3   OH257781   6.228   5.749  14.686  0.1444  0.4798  0.2671
12097TIP3    H157782   6.246   5.834  14.726  0.6547 -0.3646  1.9348
12097TIP3    H257783   6.305   5.732  14.632  1.0519  0.1444  1.6250
12098TIP3   OH257784   5.840   4.080  13.753 -0.2190  0.1309 -0.0982
12098TIP3    H157785   5.813   4.148  13.815  0.1868 -1.0740  1.4748
12098TIP3    H257786   5.891   4.127  13.687 -1.8146  1.6626 -0.3148
12099TIP3   OH257787   1.077   3.873  13.579  0.3368  0.5112 -0.0488
12099TIP3    H157788   1.046   3.886  13.669 -0.3490 -0.8251 -0.0767
12099TIP3    H257789   1.036   3.944  13.529  0.8183  1.3354  0.6995
12100TIP3   OH257790   1.874   1.947   4.065 -0.2825  0.1821 -0.4620
12100TIP3    H157791   1.823   1.982   3.992 -0.1500  0.2217 -0.5360
12100TIP3    H257792   1.957   1.920   4.026  1.2380  3.3662  0.1768
12101TIP3   OH257793   1.395   4.202  16.389 -0.1106  1.1679 -0.3052
12101TIP3    H157794   1.309   4.235  16.418 -0.4973 -0.4899  0.5833
12101TIP3    H257795   1.374   4.134  16.324  0.4183 -0.1597  0.8486
12102TIP3   OH257796   4.731   1.183  15.168 -0.0387  0.2455 -0.5858
12102TIP3    H157797   4.705   1.116  15.105 -0.2206  0.7321 -1.0409
12102TIP3    H257798   4.657   1.245  15.169 -0.6797 -0.4823  1.1718
12103TIP3   OH257799   1.604   5.769  16.998 -0.2611  0.0932  0.3677
12103TIP3    H157800   1.586   5.851  16.952  0.5551  0.1189  0.0833
12103TIP3    H257801   1.532   5.711  16.972  0.8991 -0.3652 -2.0852
12104TIP3   OH257802   6.369   2.671   0.509 -0.4023  0.8201 -0.6278
12104TIP3    H157803   6.335   2.695   0.423 -1.7212 -0.9709 -0.6771
12104TIP3    H257804   6.300   2.698   0.570 -1.5990 -1.8982 -0.6240
12105TIP3   OH257805   0.163   4.472  14.580 -0.4469  0.4611  0.8233
12105TIP3    H157806   0.130   4.562  14.580  0.6416  0.8828  0.8536
12105TIP3    H257807   0.120   4.431  14.506 -0.2215  1.2992  0.2083
12106TIP3   OH257808   6.109   3.907   1.857  0.6346  0.1095 -0.0133
12106TIP3    H157809   6.202   3.922   1.872  0.3672 -0.3144  2.5226
12106TIP3    H257810   6.097   3.920   1.763  3.2826 -0.1193 -0.4491
12107TIP3   OH257811   6.199   4.531   5.750  0.9510  0.1934  0.2954
12107TIP3    H157812   6.108   4.537   5.780  1.1043 -1.6892  1.3167
12107TIP3    H257813   6.192   4.515   5.656  0.0798 -2.0572  0.6782
12108TIP3   OH257814   0.581   1.862   0.935 -0.1020 -0.1608  0.2690
12108TIP3    H157815   0.530   1.839   0.857 -1.2958  2.8959  0.0315
12108TIP3    H257816   0.672   1.853   0.906 -0.5104  0.6053 -1.4260
12109TIP3   OH257817   1.343   1.918   3.040 -0.7130 -0.3398 -0.5607
12109TIP3    H157818   1.275   1.962   3.091 -0.6533 -0.7543 -0.1156
12109TIP3    H257819   1.392   1.867   3.105  1.3315  1.5396 -0.5295
12110TIP3   OH257820   4.612   6.533   0.285  0.0073  0.1701 -0.1786
12110TIP3    H157821   4.532   6.506   0.330  0.6447  2.1507  2.3753
12110TIP3    H257822   4.674   6.553   0.355  1.8102  1.3995 -1.9972
12111TIP3   OH257823   2.116   2.561  16.510  0.0885 -0.0533  0.4714
12111TIP3    H157824   2.107   2.471  16.541 -0.5850 -0.9250 -2.0585
12111TIP3    H257825   2.131   2.553  16.416  0.4716  2.4806  0.2464
12112TIP3   OH257826   0.553   3.565  11.845 -0.0265 -0.3290  0.1302
12112TIP3    H157827   0.573   3.503  11.775  1.8873 -0.3311  0.6185
12112TIP3    H257828   0.484   3.621  11.808  0.2027 -0.9706 -1.3668
12113TIP3   OH257829   6.195   5.307   2.742 -0.0416  0.1333 -0.3116
12113TIP3    H157830   6.174   5.241   2.676 -0.0146  1.6629 -1.9211
12113TIP3    H257831   6.261   5.363   2.701 -0.3730  1.4271  0.8204
12114TIP3   OH257832   0.467   6.408  12.141  0.2099 -0.6942  0.8772
12114TIP3    H157833   0.501   6.345  12.078  1.2231  0.5227  0.1545
12114TIP3    H257834   0.407   6.464  12.091  3.0829  2.0466  0.1190
12115TIP3   OH257835   4.925   0.922   0.401 -0.1492 -0.2610 -0.2542
12115TIP3    H157836   4.892   0.949   0.316 -3.0149 -1.7924  0.2548
12115TIP3    H257837   4.927   0.827   0.398 -0.7054 -0.3743  1.4734
12116TIP3   OH257838   1.530   0.825  11.071 -0.8881 -0.5901 -0.5401
12116TIP3    H157839   1.605   0.788  11.024 -0.3676 -0.1568 -0.0738
12116TIP3    H257840   1.522   0.771  11.150 -0.6795 -0.2652 -0.2926
12117TIP3   OH257841   6.183   4.976  13.988  0.3138 -0.2764 -0.6015
12117TIP3    H157842   6.158   5.063  14.020  0.7839 -0.8697  1.5228
12117TIP3    H257843   6.117   4.956  13.922 -1.4562  0.5821  0.8039
12118TIP3   OH257844   0.940   6.280  16.301 -0.5016 -0.2291  0.0534
12118TIP3    H157845   0.914   6.295  16.210  1.3597 -1.7199 -0.7857
12118TIP3    H257846   1.035   6.292  16.301 -0.6098  1.1681  2.1521
12119TIP3   OH257847   1.384   1.606   0.615 -0.0615 -0.1585  0.8633
12119TIP3    H157848   1.473   1.595   0.581 -0.6828  1.6822 -1.6597
12119TIP3    H257849   1.327   1.578   0.543 -1.5326 -0.2055  1.9891
12120TIP3   OH257850   1.033   6.079   1.024  0.0074  0.2889  0.0555
12120TIP3    H157851   1.007   6.004   1.077  0.1371  0.6954  0.7059
12120TIP3    H257852   1.098   6.045   0.963 -1.1165 -0.4791 -0.7607
12121TIP3   OH257853   4.476   3.009  12.560  0.7223  0.5201 -0.1523
12121TIP3    H157854   4.499   2.992  12.469 -0.9578  0.4521 -0.5857
12121TIP3    H257855   4.383   2.986  12.567  0.9019  0.1462  1.6712
12122TIP3   OH257856   1.528   1.612  17.141  0.1800  0.0236 -0.4247
12122TIP3    H157857   1.525   1.531  17.089  2.4407  1.9093 -3.9147
12122TIP3    H257858   1.447   1.658  17.118 -0.8093 -0.9032  1.0788
12123TIP3   OH257859   0.424   6.288  13.185 -0.2153  0.0535  0.2231
12123TIP3    H157860   0.426   6.278  13.280 -0.1945 -0.8338  0.1430
12123TIP3    H257861   0.334   6.315  13.166  0.0097  1.0654  0.5601
12124TIP3   OH257862   4.483   0.698   4.360  0.2243  0.7286 -0.1870
12124TIP3    H157863   4.479   0.617   4.411  1.2631  1.1463  0.5840
12124TIP3    H257864   4.396   0.705   4.319  0.1621 -0.8339 -0.3742
12125TIP3   OH257865   2.971   3.563  14.128  0.4578 -0.4540  0.4154
12125TIP3    H157866   2.918   3.636  14.096  0.3987 -1.0753 -0.9875
12125TIP3    H257867   3.006   3.593  14.211  2.9232  2.4264 -1.4866
12126TIP3   OH257868   3.223   1.821   3.167  0.0830  0.3427  0.1545
12126TIP3    H157869   3.271   1.815   3.250  0.2591  1.8929  0.1898
12126TIP3    H257870   3.137   1.782   3.186 -0.0109  1.0164  1.1788
12127TIP3   OH257871   1.531   5.230   0.338 -0.1755 -0.1726  0.1974
12127TIP3    H157872   1.623   5.209   0.322 -0.0351 -0.7364  1.6069
12127TIP3    H257873   1.531   5.325   0.353 -0.0209  0.0266 -0.9664
12128TIP3   OH257874   2.861   1.989   0.907 -0.0424 -0.2133  0.4586
12128TIP3    H157875   2.924   2.061   0.917 -1.2093  1.2642 -1.9610
12128TIP3    H257876   2.776   2.028   0.929 -0.6661 -0.9156 -0.6216
12129TIP3   OH257877   2.881   5.909  14.304  0.4860 -0.4279 -0.4423
12129TIP3    H157878   2.959   5.932  14.356 -0.4299  0.1374  0.7260
12129TIP3    H257879   2.807   5.933  14.360 -0.6225  2.6240 -2.9187
12130TIP3   OH257880   0.313   5.471  14.253 -0.0141  0.2037  0.0505
12130TIP3    H157881   0.253   5.402  14.225  0.5163 -0.2773  0.0592
12130TIP3    H257882   0.399   5.428  14.256  0.3555  0.9092 -0.0982
12131TIP3   OH257883   3.421   1.413   2.117 -0.0091 -0.2849  0.7967
12131TIP3    H157884   3.326   1.400   2.115  0.1048 -1.5922  2.2634
12131TIP3    H257885   3.434   1.490   2.172 -0.2473  0.7603 -0.5450
12132TIP3   OH257886   3.407   5.812  16.549  0.4949 -0.5058  0.0092
12132TIP3    H157887   3.419   5.828  16.456  0.7162 -1.0925 -0.0704
12132TIP3    H257888   3.493   5.826  16.588  0.4225 -0.3460  0.1133
12133TIP3   OH257889   2.414   1.796  14.780  0.1163 -0.4210 -0.1069
12133TIP3    H157890   2.430   1.886  14.809  1.1213 -0.3139 -0.9383
12133TIP3    H257891   2.462   1.742  14.843  1.8956 -0.2120 -1.2056
12134TIP3   OH257892   4.669   2.051   2.304  0.1560 -0.4444 -0.1677
12134TIP3    H157893   4.626   2.058   2.219 -0.1517 -0.2946 -0.0000
12134TIP3    H257894   4.662   2.139   2.341  0.4467 -0.4655 -0.0617
12135TIP3   OH257895   0.208   4.546   3.856 -0.1441  0.1056  0.4420
12135TIP3    H157896   0.149   4.584   3.791 -0.0974  0.4707  0.6089
12135TIP3    H257897   0.250   4.473   3.810 -0.6742 -0.1225  0.3004
12136TIP3   OH257898   5.747   5.957   4.530 -0.9503  0.6356 -0.4033
12136TIP3    H157899   5.705   5.952   4.444 -0.7555  0.0979 -0.4741
12136TIP3    H257900   5.755   5.866   4.557 -0.5074  0.7730 -0.0610
12137TIP3   OH257901   4.204   0.407  11.572  0.0978 -0.9882 -0.1361
12137TIP3    H157902   4.251   0.491  11.578  1.8793 -2.0127  1.5892
12137TIP3    H257903   4.218   0.378  11.482  1.1964 -0.3456 -0.1938
12138TIP3   OH257904   2.505   6.238   1.602 -0.1319  0.5804  0.1818
12138TIP3    H157905   2.493   6.324   1.562  0.2237 -0.2891 -1.8944
12138TIP3    H257906   2.490   6.176   1.531  2.6117 -0.9876  0.8299
12139TIP3   OH257907   6.644   1.580   0.088  0.1305  0.2354  0.0063
12139TIP3    H157908   6.575   1.514   0.090  0.1326  0.2368  1.7896
12139TIP3    H257909   6.653   1.603  -0.004 -0.7024 -1.3762 -0.5138
12140TIP3   OH257910   5.826   3.475  11.866 -0.3828 -0.1003  0.2185
12140TIP3    H157911   5.875   3.452  11.945  1.5244 -1.5228 -1.2694
12140TIP3    H257912   5.755   3.411  11.862 -1.0507  0.5614  1.2329
12141TIP3   OH257913   6.308   4.462   2.710  0.3578 -0.1773 -0.2780
12141TIP3    H157914   6.271   4.411   2.782  1.5836  2.1222  2.1448
12141TIP3    H257915   6.237   4.469   2.646 -1.6677 -0.2301  1.8342
12142TIP3   OH257916   6.684   3.254  12.952  0.1256  0.4114 -0.3886
12142TIP3    H157917   6.706   3.218  13.039 -0.3136  0.0712 -0.4152
12142TIP3    H257918   6.589   3.264  12.954  0.1342  0.5569 -0.7753
12143TIP3   OH257919   3.950   0.304   3.459  0.0084  0.0473  0.1896
12143TIP3    H157920   3.860   0.270   3.461  0.5188 -1.3249  0.4124
12143TIP3    H257921   4.004   0.229   3.437  1.2880  0.4748  1.6912
12144TIP3   OH257922   4.219   0.170  14.962 -0.0637  0.8506 -0.9074
12144TIP3    H157923   4.133   0.192  14.927  0.1090  1.6565 -0.8490
12144TIP3    H257924   4.241   0.244  15.020 -0.1156 -0.1953  0.4975
12145TIP3   OH257925   5.840   2.962   2.118  0.3761 -0.8284  0.2468
12145TIP3    H157926   5.782   2.887   2.135  1.3841 -1.4046  1.2838
12145TIP3    H257927   5.804   3.033   2.172 -0.7628 -0.4237 -0.9706
12146TIP3   OH257928   2.984   2.319  13.468  0.3255  0.3047 -0.0882
12146TIP3    H157929   3.076   2.297  13.453  0.0490  0.4320 -2.2309
12146TIP3    H257930   2.938   2.285  13.391 -1.3373  0.8314  0.6264
12147TIP3   OH257931   0.348   0.672   3.730  0.2406 -0.5791  0.4173
12147TIP3    H157932   0.439   0.682   3.756  0.7195  3.0934 -1.9960
12147TIP3    H257933   0.351   0.623   3.648 -0.0341 -0.7746  0.5183
12148TIP3   OH257934   1.292   1.130   1.849 -0.1157 -0.0271  0.1909
12148TIP3    H157935   1.250   1.158   1.768  0.8034  0.2579 -0.2115
12148TIP3    H257936   1.334   1.046   1.826 -2.2932 -1.4859  1.2015
12149TIP3   OH257937   5.688   6.248  15.573 -0.5064 -0.1067 -0.2734
12149TIP3    H157938   5.741   6.168  15.567 -0.6016 -0.2190  0.3367
12149TIP3    H257939   5.664   6.254  15.666 -1.4015  0.0472 -0.5077
12150TIP3   OH257940   6.803   6.140  13.271  0.5025  0.7690  0.1557
12150TIP3    H157941   6.709   6.130  13.263  0.4939  2.0820 -3.0027
12150TIP3    H257942   6.839   6.053  13.252 -0.0743  0.7805 -1.1107
12151TIP3   OH257943   2.071   5.500  11.831 -0.2220  0.7010  0.3751
12151TIP3    H157944   2.140   5.531  11.889 -0.3945  2.7795 -0.4460
12151TIP3    H257945   1.992   5.543  11.863 -0.6992  0.2482 -0.1681
12152TIP3   OH257946   5.615   2.188  14.674  0.3442 -0.0366 -0.3071
12152TIP3    H157947   5.599   2.234  14.592  1.8241 -1.5899 -1.5328
12152TIP3    H257948   5.568   2.106  14.665 -0.0769  0.0768  0.7263
12153TIP3   OH257949   0.767   4.885   2.699 -0.1630  0.4942 -0.2509
12153TIP3    H157950   0.812   4.922   2.774 -1.5775  1.6829  0.0682
12153TIP3    H257951   0.768   4.791   2.714  1.7603  0.5215 -0.0411
12154TIP3   OH257952   4.801   5.528   4.394 -0.0978  0.5622  0.4094
12154TIP3    H157953   4.746   5.521   4.472  1.3425 -1.2555  1.3602
12154TIP3    H257954   4.868   5.592   4.419  0.2593  0.1124  0.6309
12155TIP3   OH257955   0.558   4.441  14.117 -0.5092 -0.1365 -0.9373
12155TIP3    H157956   0.631   4.380  14.109 -0.1033 -0.0275  1.2306
12155TIP3    H257957   0.598   4.520  14.154 -1.9030 -0.6449  1.8940
12156TIP3   OH257958   6.160   0.681  11.457 -0.0600 -0.6827  0.6454
12156TIP3    H157959   6.108   0.625  11.515  0.0245 -1.7896 -0.3258
12156TIP3    H257960   6.245   0.639  11.453  0.6183  0.5487  1.3726
12157TIP3   OH257961   5.258   1.396  15.648 -0.3599  0.2883 -0.0611
12157TIP3    H157962   5.335   1.357  15.690 -1.1189  0.3386  1.4363
12157TIP3    H257963   5.219   1.324  15.598 -0.1478 -0.1117  0.3439
12158TIP3   OH257964   2.917   3.876   2.129 -0.0609  0.6524 -0.0509
12158TIP3    H157965   2.890   3.787   2.107 -0.9651  0.9666 -0.2844
12158TIP3    H257966   2.939   3.916   2.045 -1.0613  1.0757 -0.1333
12159TIP3   OH257967   2.689   4.898  14.815 -0.1309 -0.5832 -0.4124
12159TIP3    H157968   2.734   4.853  14.886 -0.0350 -0.6187 -0.4952
12159TIP3    H257969   2.616   4.840  14.793 -0.3075 -0.4544 -0.1768
12160TIP3   OH257970   0.247   5.162   4.288  0.6018  0.1826  0.3110
12160TIP3    H157971   0.155   5.144   4.310  0.4172 -0.0995 -0.6776
12160TIP3    H257972   0.280   5.078   4.256  1.1980  0.2958  0.6286
12161TIP3   OH257973   3.400   1.084   3.364 -0.1326  0.0814 -0.0338
12161TIP3    H157974   3.489   1.097   3.331 -0.2877 -0.9302 -0.8883
12161TIP3    H257975   3.368   1.173   3.383  0.5984  0.5504 -0.9278
12162TIP3   OH257976   0.556   6.374   3.030  0.0461  0.1363  0.1862
12162TIP3    H157977   0.603   6.387   3.113  0.9839 -1.5558 -0.0333
12162TIP3    H257978   0.546   6.279   3.023  1.6346  0.0718 -2.5265
12163TIP3   OH257979   1.886   5.463  14.369 -0.6852  0.2766  0.6638
12163TIP3    H157980   1.813   5.417  14.327 -0.0963  0.0292 -0.1120
12163TIP3    H257981   1.845   5.533  14.419 -1.3640  1.4189 -1.3503
12164TIP3   OH257982   0.202   6.734   2.892  0.6103 -0.2309  0.0014
12164TIP3    H157983   0.120   6.775   2.864  1.1038 -0.3052 -1.6843
12164TIP3    H257984   0.223   6.775   2.976 -0.0422  1.3675 -0.5887
12165TIP3   OH257985   5.686   4.037   2.683 -0.1909  0.6557  0.1972
12165TIP3    H157986   5.781   4.043   2.693  0.2193 -0.2248 -2.3359
12165TIP3    H257987   5.668   4.074   2.597 -2.1595  0.7712  0.5977
12166TIP3   OH257988   6.650   3.872  12.676 -0.2334  0.1851 -0.0090
12166TIP3    H157989   6.635   3.914  12.761  0.1017 -0.7346  0.5144
12166TIP3    H257990   6.650   3.945  12.614 -0.7976  0.8391  0.7338
12167TIP3   OH257991   0.802   6.303   4.700  0.1115 -0.2541 -0.6069
12167TIP3    H157992   0.870   6.354   4.743 -2.7585  3.8147 -0.3268
12167TIP3    H257993   0.786   6.229   4.760  0.0181  2.1873  2.6680
12168TIP3   OH257994   1.561   2.514  14.061 -0.0198 -0.3199  0.5792
12168TIP3    H157995   1.645   2.480  14.093 -0.5503 -1.9156  0.3494
12168TIP3    H257996   1.495   2.472  14.117 -0.7482 -0.2851 -0.2351
12169TIP3   OH257997   2.877   3.199   2.258 -0.1215  0.1743 -0.0278
12169TIP3    H157998   2.942   3.267   2.273  0.2268 -0.1029 -0.2699
12169TIP3    H257999   2.793   3.245   2.259  0.1101  0.5993 -0.1460
12170TIP3   OH258000   2.311   3.315   0.840  0.8560 -0.0730  0.1686
12170TIP3    H158001   2.226   3.324   0.884  0.3460 -1.9481 -0.3502
12170TIP3    H258002   2.293   3.340   0.750  0.8908 -0.3356  0.0897
12171TIP3   OH258003   2.023   2.570  11.725  0.5380 -0.9827 -0.2302
12171TIP3    H158004   1.976   2.578  11.808  1.3906 -2.7946  0.4773
12171TIP3    H258005   2.115   2.584  11.747  0.6323  0.1178 -1.1817
12172TIP3   OH258006   5.494   4.265  10.926 -0.4849 -0.2403  0.3964
12172TIP3    H158007   5.531   4.332  10.869 -1.6826  0.6617  0.6422
12172TIP3    H258008   5.399   4.269  10.910 -0.5580 -2.0394  0.2416
12173TIP3   OH258009   6.261   2.173  16.962  0.0019  0.0936  0.2677
12173TIP3    H158010   6.225   2.174  17.050  1.8028 -1.1050  1.0673
12173TIP3    H258011   6.347   2.214  16.971  0.0846  0.2370 -1.0011
12174TIP3   OH258012   3.715   4.236   4.281  0.5041 -0.1630  0.0638
12174TIP3    H158013   3.757   4.308   4.234  0.0335 -0.0558 -0.1963
12174TIP3    H258014   3.787   4.179   4.308  0.8224  0.0764 -0.2875
12175TIP3   OH258015   1.242   0.328  14.485  0.1921 -0.1630  0.1428
12175TIP3    H158016   1.274   0.307  14.397 -2.0330 -2.3567 -0.2585
12175TIP3    H258017   1.151   0.297  14.485 -0.3732  1.2578  2.7232
12176TIP3   OH258018   5.200   4.302   6.410 -0.5239 -0.0117 -0.6138
12176TIP3    H158019   5.198   4.253   6.492  0.8362 -0.3028 -0.7225
12176TIP3    H258020   5.186   4.236   6.342 -0.6931  0.0715 -0.6593
12177TIP3   OH258021   5.204   4.650   2.459 -0.6342  0.0483  0.1817
12177TIP3    H158022   5.153   4.570   2.444 -0.0544 -0.3885  0.4830
12177TIP3    H258023   5.294   4.625   2.438 -0.6355  1.0246 -1.1012
12178TIP3   OH258024   5.257   2.691   0.425  0.1835 -0.1876  0.4746
12178TIP3    H158025   5.164   2.705   0.443  0.6415  0.6452  2.4104
12178TIP3    H258026   5.268   2.596   0.433 -0.2166 -0.1412  1.8418
12179TIP3   OH258027   3.424   2.961  15.842 -0.5124  0.3465  0.3116
12179TIP3    H158028   3.438   2.938  15.751 -0.6437  0.0465  0.3650
12179TIP3    H258029   3.475   3.041  15.855 -2.2691  1.6927 -0.6287
12180TIP3   OH258030   3.356   3.613  12.300 -0.0798  0.2520  0.0143
12180TIP3    H158031   3.414   3.556  12.249 -0.0337  0.2823  0.0321
12180TIP3    H258032   3.268   3.581  12.281  0.0358 -1.1876  1.6408
12181TIP3   OH258033   3.638   5.990   4.530  0.1117  0.4541  0.3606
12181TIP3    H158034   3.689   5.954   4.603  0.8221 -0.9415 -0.7670
12181TIP3    H258035   3.700   6.047   4.484  0.6566 -1.1171 -0.9188
12182TIP3   OH258036   0.027   0.913   5.234  0.3968  0.1521  0.3549
12182TIP3    H158037   0.046   0.971   5.308  0.2398  0.2113  0.3480
12182TIP3    H258038   0.011   0.828   5.274  1.1952 -0.0201  0.3246
12183TIP3   OH258039   1.680   6.038   4.916 -0.6747  0.2775 -0.2904
12183TIP3    H158040   1.616   5.968   4.901  0.3800 -0.9332  0.6530
12183TIP3    H258041   1.674   6.056   5.010  0.2320  0.2779 -0.2260
12184TIP3   OH258042   3.649   3.430   6.596 -0.3005  0.2462 -0.0464
12184TIP3    H158043   3.653   3.362   6.662 -0.9322 -0.5707 -0.8319
12184TIP3    H258044   3.730   3.420   6.546 -0.6880 -0.3634 -0.5666
12185TIP3   OH258045   6.577   2.857  14.710 -0.2665  0.0522  0.4205
12185TIP3    H158046   6.503   2.868  14.649 -0.8121 -1.7305  0.6968
12185TIP3    H258047   6.564   2.925  14.776 -0.9405  0.5628 -0.2181
12186TIP3   OH258048   0.473   4.449   3.129  0.3261  0.1839  0.6382
12186TIP3    H158049   0.474   4.496   3.046 -0.1937 -0.3416  0.3247
12186TIP3    H258050   0.391   4.476   3.171 -1.6713 -2.7873 -0.9747
12187TIP3   OH258051   4.254   4.743   3.456 -0.1886  0.3272 -0.2391
12187TIP3    H158052   4.190   4.796   3.504 -2.1324  0.2776 -2.6269
12187TIP3    H258053   4.202   4.684   3.403  1.9171 -2.7963  0.8850
12188TIP3   OH258054   2.536   5.581   0.253  0.7858 -0.1104  0.1009
12188TIP3    H158055   2.485   5.534   0.187  1.2037  0.9394 -1.0002
12188TIP3    H258056   2.554   5.666   0.214 -0.3853  1.2151  2.2571
12189TIP3   OH258057   2.473   1.286  15.171  0.3169 -0.0678  0.2581
12189TIP3    H158058   2.499   1.360  15.225  1.1352 -0.9559  1.1120
12189TIP3    H258059   2.426   1.227  15.231  0.8596 -0.8645 -0.0834
12190TIP3   OH258060   4.944   3.266  13.731 -0.9196  0.3076 -0.5272
12190TIP3    H158061   4.945   3.179  13.691  0.0584 -0.2145  0.5612
12190TIP3    H258062   5.027   3.306  13.704 -0.4383  0.1065  0.5559
12191TIP3   OH258063   3.088   1.880   6.151 -0.2370  0.0326 -0.4408
12191TIP3    H158064   3.010   1.841   6.191 -1.1916  2.4115  0.2002
12191TIP3    H258065   3.160   1.853   6.208 -0.5475 -2.1371 -0.9975
12192TIP3   OH258066   4.018   0.042  17.061  0.0381  0.1901 -0.2433
12192TIP3    H158067   3.995  -0.039  17.106 -2.3882 -0.0998 -1.8036
12192TIP3    H258068   4.108   0.028  17.031  0.0754 -1.4371  0.5139
12193TIP3   OH258069   0.153   4.993  14.300  0.4469 -0.1439  0.0366
12193TIP3    H158070   0.158   4.938  14.378  1.8600  0.1393  0.1566
12193TIP3    H258071   0.138   4.931  14.229  1.3186 -0.6255  0.2580
12194TIP3   OH258072   6.592   4.029  15.792 -0.1517  0.5752 -0.0534
12194TIP3    H158073   6.614   4.121  15.803  0.3742  0.7951 -2.2951
12194TIP3    H258074   6.654   3.997  15.727 -1.6562 -0.7883 -0.9132
12195TIP3   OH258075   4.850   5.197   3.595  0.3055 -0.1816  0.1403
12195TIP3    H158076   4.897   5.133   3.648 -0.1534 -0.9053 -0.3154
12195TIP3    H258077   4.757   5.182   3.615  0.1505 -0.1809 -0.5319
12196TIP3   OH258078   5.998   2.048   1.043  0.0648 -0.2426  0.0148
12196TIP3    H158079   6.020   2.071   1.133  0.4945  0.2177 -0.2017
12196TIP3    H258080   5.903   2.034   1.044 -0.4446  2.5978 -0.0385
12197TIP3   OH258081   5.725   3.257  16.371 -0.1610 -0.4384  0.3217
12197TIP3    H158082   5.807   3.271  16.419  0.0002 -2.5957  0.7921
12197TIP3    H258083   5.659   3.303  16.421  0.3600 -0.9089  1.4703
12198TIP3   OH258084   0.945   3.485   0.109  0.1444  0.1233 -0.0310
12198TIP3    H158085   0.870   3.490   0.169  1.5239  0.2960  1.7400
12198TIP3    H258086   0.993   3.567   0.123  1.5538 -0.6909  0.0844
12199TIP3   OH258087   3.708   4.679  14.809 -0.0452 -0.3467  0.0752
12199TIP3    H158088   3.730   4.586  14.805 -0.8753 -0.5374 -0.2309
12199TIP3    H258089   3.647   4.692  14.737 -1.1881  0.0884  1.0951
12200TIP3   OH258090   1.294   2.095   0.483 -0.0079 -0.1060  0.4446
12200TIP3    H158091   1.277   2.033   0.412 -0.2178  0.8498 -0.3644
12200TIP3    H258092   1.291   2.042   0.563 -2.3784 -0.7893 -0.0246
12201TIP3   OH258093   6.266   2.720  16.486  0.2264 -0.6204  0.4223
12201TIP3    H158094   6.246   2.690  16.397 -1.3310  0.2821  0.4267
12201TIP3    H258095   6.312   2.646  16.527 -1.1746 -1.9935 -0.3647
12202TIP3   OH258096   3.969   0.971   2.245 -0.0781 -0.0856  0.1866
12202TIP3    H158097   3.994   0.909   2.314 -0.5355 -0.1185  0.3217
12202TIP3    H258098   3.903   1.027   2.285  0.4886  0.6453  0.1367
12203TIP3   OH258099   5.172   5.145  14.405 -0.0404  0.1747 -0.0498
12203TIP3    H158100   5.136   5.063  14.370  0.1791  0.0394  0.0339
12203TIP3    H258101   5.104   5.210  14.391 -0.7963 -0.3112  1.1446
12204TIP3   OH258102   5.000   3.760  11.743 -0.2028  0.4612 -0.1414
12204TIP3    H158103   5.050   3.805  11.811 -2.7495  2.0722  0.8238
12204TIP3    H258104   4.940   3.704  11.791 -0.5566 -0.0678 -1.1709
12205TIP3   OH258105   6.295   0.408  15.125  0.1037 -0.2614  0.3009
12205TIP3    H158106   6.316   0.498  15.098 -0.9704 -0.0819  0.0045
12205TIP3    H258107   6.208   0.415  15.164  0.7084 -0.9118  1.7998
12206TIP3   OH258108   2.730   4.676   0.255  0.7038 -0.2904  0.1659
12206TIP3    H158109   2.749   4.672   0.349  1.4639 -0.4813  0.0144
12206TIP3    H258110   2.636   4.660   0.249  0.8541 -1.5575  0.8202
12207TIP3   OH258111   1.177   6.381  16.208  0.3139  0.0059 -0.0106
12207TIP3    H158112   1.158   6.346  16.120 -0.2117 -2.2708  0.9224
12207TIP3    H258113   1.268   6.412  16.202  0.5378 -0.7857 -1.1908
12208TIP3   OH258114   1.263   3.503  15.329  0.1090  0.6429 -0.1181
12208TIP3    H158115   1.194   3.563  15.300 -0.0502  0.5545  0.0751
12208TIP3    H258116   1.245   3.489  15.422 -0.2923 -0.3002 -0.3348
12209TIP3   OH258117   1.728   4.707   3.437  0.3995  0.3205  0.3922
12209TIP3    H158118   1.724   4.797   3.404  0.1892 -0.1536 -0.9434
12209TIP3    H258119   1.818   4.696   3.468  0.5301  0.8765  0.2190
12210TIP3   OH258120   6.388   6.824   5.747 -0.3031 -0.2602  0.0923
12210TIP3    H158121   6.347   6.905   5.717 -1.4464 -0.0720  1.9652
12210TIP3    H258122   6.348   6.756   5.693 -0.2532  0.2950 -0.6624
12211TIP3   OH258123   3.700   6.406   1.027  0.0377  0.9357 -0.0286
12211TIP3    H158124   3.631   6.418   0.961 -0.4817  0.0815  0.3367
12211TIP3    H258125   3.754   6.484   1.020 -0.8489  1.5228 -0.4825
12212TIP3   OH258126   0.225   6.593  12.107 -0.1011  0.0288 -0.0237
12212TIP3    H158127   0.136   6.596  12.142  0.7076  1.1937  2.1176
12212TIP3    H258128   0.213   6.575  12.013 -2.6283  0.9191  0.0403
12213TIP3   OH258129   3.637   2.019  17.137  0.0382  0.9219 -0.6876
12213TIP3    H158130   3.611   2.047  17.224  0.0769 -0.4554 -0.2009
12213TIP3    H258131   3.621   1.924  17.136  0.2314  0.8711 -2.1035
12214TIP3   OH258132   3.653   4.007   3.786  0.2052 -0.1979 -0.2277
12214TIP3    H158133   3.616   4.076   3.732 -0.6125 -0.3977  0.0592
12214TIP3    H258134   3.670   4.049   3.871 -3.4402 -1.0073  1.1175
12215TIP3   OH258135   3.580   4.579   4.417 -0.4069  0.5636 -0.3975
12215TIP3    H158136   3.659   4.630   4.399 -0.3345  1.1428  1.3381
12215TIP3    H258137   3.603   4.524   4.492 -1.0605 -0.6986 -1.0890
12216TIP3   OH258138   6.217   4.089   5.009 -0.5402 -0.6288  0.4866
12216TIP3    H158139   6.142   4.097   4.950  1.0300  1.2081 -1.3609
12216TIP3    H258140   6.272   4.021   4.969 -0.1290 -0.3636  0.5991
12217TIP3   OH258141   1.665   5.643   1.636  0.1482 -0.2217 -0.0860
12217TIP3    H158142   1.614   5.562   1.637 -0.1049 -0.0767  1.3870
12217TIP3    H258143   1.757   5.614   1.639  0.2178 -0.4769 -2.5898
12218TIP3   OH258144   1.806   0.618   0.440  0.4601  0.0544  0.0974
12218TIP3    H158145   1.752   0.689   0.405  0.9505 -0.3068 -1.5041
12218TIP3    H258146   1.776   0.606   0.530 -0.1818  1.7395  0.1350
12219TIP3   OH258147   0.699   0.601  12.517 -0.2896  0.3525  0.3035
12219TIP3    H158148   0.613   0.615  12.478  0.6927  1.7355 -1.5098
12219TIP3    H258149   0.683   0.602  12.611 -2.3321 -0.0614  0.0065
12220TIP3   OH258150   0.070   3.702   5.079  0.5353  0.0641 -0.2544
12220TIP3    H158151   0.007   3.718   5.150  1.9778  1.8831  0.6940
12220TIP3    H258152   0.079   3.607   5.077 -1.3796 -0.1876  0.3166
12221TIP3   OH258153   1.953   1.018   0.984  0.0394  0.1159 -0.3341
12221TIP3    H158154   1.974   1.059   0.900  0.8093 -0.7845 -0.6056
12221TIP3    H258155   2.037   1.017   1.031 -0.6431  1.8946  1.0625
12222TIP3   OH258156   6.222   5.047   0.050  0.2739  0.4078  0.1577
12222TIP3    H158157   6.217   4.963   0.004  1.1818  0.2529  0.3218
12222TIP3    H258158   6.315   5.071   0.046  0.1171  1.1226  0.6174
12223TIP3   OH258159   6.382   5.822   5.916 -0.4020  0.2505  0.4402
12223TIP3    H158160   6.461   5.778   5.947  0.6833  0.6264 -1.5951
12223TIP3    H258161   6.311   5.780   5.964  1.0299  0.2375  2.7108
12224TIP3   OH258162   2.441   0.681  13.871 -0.4512 -0.3189 -0.2500
12224TIP3    H158163   2.425   0.767  13.909  1.2382 -0.7276  1.5398
12224TIP3    H258164   2.387   0.621  13.922  1.5332 -0.8154  1.4207
12225TIP3   OH258165   0.233   0.840   5.067  0.3921  0.2732  0.0487
12225TIP3    H158166   0.291   0.808   5.136  0.5476  1.5067  0.5202
12225TIP3    H258167   0.169   0.895   5.114 -0.7347 -0.5104 -0.5454
12226TIP3   OH258168   6.792   1.741  14.539 -0.1094  0.4638 -0.0714
12226TIP3    H158169   6.845   1.687  14.597  0.0383 -0.4858 -1.0663
12226TIP3    H258170   6.850   1.812  14.513 -0.1226  0.8030  0.7828
12227TIP3   OH258171   4.719   4.317  12.414 -0.6438 -0.1914  0.3260
12227TIP3    H158172   4.701   4.268  12.334 -1.3598  0.5094  0.0435
12227TIP3    H258173   4.644   4.298  12.471 -0.5996  0.0613  0.4685
12228TIP3   OH258174   6.829   1.584  11.716 -0.3887  0.3026 -0.4787
12228TIP3    H158175   6.824   1.553  11.626 -2.9864  1.1769 -0.7080
12228TIP3    H258176   6.773   1.525  11.766  0.0780  0.5458  0.3646
12229TIP3   OH258177   6.669   0.399   5.437 -0.2195 -0.5187 -0.0987
12229TIP3    H158178   6.673   0.356   5.351  4.7874  2.8686 -2.0558
12229TIP3    H258179   6.710   0.337   5.497  2.1675 -0.5989 -1.6957
12230TIP3   OH258180   6.354   4.451  13.949 -0.2386 -0.1918 -0.2451
12230TIP3    H158181   6.308   4.369  13.931 -0.3282 -0.3213  0.5362
12230TIP3    H258182   6.384   4.481  13.864 -1.0596 -0.5293 -0.6632
12231TIP3   OH258183   5.048   4.542   5.035 -0.6950  0.5220  0.0665
12231TIP3    H158184   5.130   4.520   5.080 -1.5191  0.0024  1.3562
12231TIP3    H258185   5.062   4.511   4.945  0.3344 -0.0042  0.3856
12232TIP3   OH258186   4.853   3.996  11.533  0.4883 -0.2474 -0.3803
12232TIP3    H158187   4.916   3.973  11.464  0.1990  0.0102 -0.7345
12232TIP3    H258188   4.782   3.932  11.523  0.0993  0.2444 -0.7991
12233TIP3   OH258189   6.439   1.861   0.810  0.3835 -0.0254 -0.2872
12233TIP3    H158190   6.467   1.942   0.768  1.3980 -0.6478 -0.8382
12233TIP3    H258191   6.344   1.870   0.817  0.4715  1.2050 -0.3380
12234TIP3   OH258192   1.778   2.212   1.092 -0.2258 -0.1727 -0.5308
12234TIP3    H158193   1.712   2.260   1.041 -0.7018 -0.0185  0.2154
12234TIP3    H258194   1.783   2.260   1.175 -0.4711 -1.2231  0.1082
12235TIP3   OH258195   0.904   2.497   5.332 -0.1704 -0.1806  0.3373
12235TIP3    H158196   0.872   2.522   5.245  0.1063 -1.0815 -0.0429
12235TIP3    H258197   0.829   2.454   5.373 -0.6451  1.2466  0.9870
12236TIP3   OH258198   4.100   5.651   3.884  0.1386 -0.2021  0.0911
12236TIP3    H158199   4.078   5.636   3.976  1.4621  0.4360  0.5358
12236TIP3    H258200   4.143   5.570   3.856  1.7135  0.3683  0.7062
12237TIP3   OH258201   6.233   4.160  13.312  0.0536 -0.5195 -0.5437
12237TIP3    H158202   6.292   4.181  13.240  0.0643 -0.6913 -0.5864
12237TIP3    H258203   6.277   4.192  13.390 -0.5121  0.7836 -0.7345
12238TIP3   OH258204   1.174   2.141   2.192  0.3616  0.2856 -0.7968
12238TIP3    H158205   1.142   2.195   2.120  1.0493  0.4020 -1.0124
12238TIP3    H258206   1.254   2.100   2.159  0.5416  0.1366 -0.1911
12239TIP3   OH258207   4.712   5.400   5.477 -0.1034  0.0197  0.4385
12239TIP3    H158208   4.714   5.449   5.559 -0.3501 -0.1881  0.5699
12239TIP3    H258209   4.621   5.369   5.470 -0.5074  1.3615 -0.6936
12240TIP3   OH258210   5.468   1.367  14.835 -0.1923  0.0109  0.2251
12240TIP3    H158211   5.414   1.288  14.834 -0.5364  0.2462 -0.0758
12240TIP3    H258212   5.500   1.375  14.746  1.3134 -0.7780  0.6659
12241TIP3   OH258213   5.306   4.908   4.302  1.0125  0.1930 -0.0698
12241TIP3    H158214   5.361   4.869   4.234 -0.2591 -1.3218 -0.2666
12241TIP3    H258215   5.236   4.845   4.317  0.5460  1.0605  1.7713
12242TIP3   OH258216   6.531   3.051  14.014 -0.0786 -0.3208  0.3880
12242TIP3    H158217   6.453   3.077  13.964  0.0407  0.0775  0.4019
12242TIP3    H258218   6.603   3.098  13.971  0.2440 -1.1597 -0.0022
12243TIP3   OH258219   4.743   3.612   0.898  0.1135 -0.2866  0.3688
12243TIP3    H158220   4.657   3.654   0.895 -0.2275 -0.9647  0.5348
12243TIP3    H258221   4.732   3.533   0.846  1.0026  0.2707 -0.6949
12244TIP3   OH258222   0.122   1.268  10.362  0.2834 -0.5717 -0.2663
12244TIP3    H158223   0.089   1.188  10.320 -1.3636 -0.8366  1.3845
12244TIP3    H258224   0.048   1.300  10.413  1.4385  1.0952  0.4400
12245TIP3   OH258225   1.196   4.950   1.757 -0.3950 -0.2901  0.6120
12245TIP3    H158226   1.221   4.885   1.823  1.1890  0.5933  0.9354
12245TIP3    H258227   1.108   4.977   1.782 -0.2539 -0.7864  1.7125
12246TIP3   OH258228   1.494   1.867  12.123  0.1640  0.1095  0.4983
12246TIP3    H158229   1.461   1.927  12.190 -0.5430  0.6944 -0.3522
12246TIP3    H258230   1.455   1.899  12.042  1.2746 -0.3934 -0.2444
12247TIP3   OH258231   4.364   5.263  13.381 -0.1182 -0.4170 -0.0728
12247TIP3    H158232   4.450   5.237  13.348 -0.2698 -0.1622 -0.6945
12247TIP3    H258233   4.302   5.224  13.320 -0.4231 -0.2054  0.0964
12248TIP3   OH258234   6.331   5.358  13.534 -0.3793 -0.1796 -0.2546
12248TIP3    H158235   6.283   5.286  13.574  1.9874 -2.0362 -0.5182
12248TIP3    H258236   6.399   5.315  13.482 -0.6076  2.2079 -2.7688
12249TIP3   OH258237   0.365   4.006  11.364  1.2394 -0.0770 -0.0121
12249TIP3    H158238   0.331   3.932  11.314 -0.3259  0.0784  0.7736
12249TIP3    H258239   0.459   4.005  11.346  1.1047 -1.6161 -0.8358
12250TIP3   OH258240   5.976   5.848   3.019  0.0795 -0.4069  0.8754
12250TIP3    H158241   5.960   5.844   2.924 -0.7879  0.7622  0.9571
12250TIP3    H258242   6.058   5.897   3.026 -0.4273  0.4807  0.7576
12251TIP3   OH258243   6.083   6.344   1.716 -0.0213  0.2012 -0.1772
12251TIP3    H158244   6.158   6.286   1.698  0.3573  0.2732  1.0837
12251TIP3    H258245   6.098   6.376   1.805 -1.4283  0.4268  0.0015
12252TIP3   OH258246   5.124   1.958  16.349  0.7485 -0.4002  0.5403
12252TIP3    H158247   5.208   2.003  16.338  0.5500  0.0011  0.6309
12252TIP3    H258248   5.130   1.881  16.292  0.9363 -0.0287  0.0447
12253TIP3   OH258249   1.656   4.069   2.855  0.1077  0.6685 -0.2871
12253TIP3    H158250   1.650   4.000   2.788 -0.4246 -0.0556  0.4821
12253TIP3    H258251   1.603   4.036   2.927  1.5305  0.9490  0.9327
12254TIP3   OH258252   1.378   4.671  14.397 -0.1319  0.2296  0.1946
12254TIP3    H158253   1.350   4.659  14.306 -0.5361 -1.1236  0.4745
12254TIP3    H258254   1.456   4.727  14.391  0.0417 -0.1177 -1.0111
12255TIP3   OH258255   4.065   2.151  15.162 -0.0722  0.2503  0.2792
12255TIP3    H158256   4.009   2.187  15.231 -1.5489  0.3686 -0.9452
12255TIP3    H258257   4.127   2.222  15.143  0.2580  0.2726  1.3396
12256TIP3   OH258258   2.569   1.294   1.231 -0.0809 -0.6064 -0.1724
12256TIP3    H158259   2.474   1.308   1.236 -0.0767 -0.1285 -1.1514
12256TIP3    H258260   2.578   1.211   1.183  0.0005 -0.3296 -0.6398
12257TIP3   OH258261   2.917   4.856  14.009  0.3746 -0.2318  0.7822
12257TIP3    H158262   2.871   4.865  14.092  0.3893  0.1535  0.7517
12257TIP3    H258263   2.854   4.814  13.951  0.0127  0.4114  0.7027
12258TIP3   OH258264   5.416   2.647  14.735 -0.2342 -0.1239  0.3887
12258TIP3    H158265   5.455   2.725  14.775 -0.5880  0.1010  0.2996
12258TIP3    H258266   5.454   2.645  14.647  0.3911 -0.5089  0.6607
12259TIP3   OH258267   0.922   3.134   3.904  0.3347 -0.2917 -0.3052
12259TIP3    H158268   0.875   3.126   3.821 -0.3307  1.3011 -0.1338
12259TIP3    H258269   1.008   3.167   3.880 -0.0853  0.8234 -0.3433
12260TIP3   OH258270   2.384   4.240  13.383 -0.5898  0.3586  0.0461
12260TIP3    H158271   2.459   4.195  13.345  0.1931  0.9612  0.8371
12260TIP3    H258272   2.370   4.196  13.467 -0.4593  0.9302  0.3698
12261TIP3   OH258273   1.618   2.241   0.613 -0.5773  0.1017  0.0610
12261TIP3    H158274   1.648   2.162   0.568  1.1910  1.8601 -2.1232
12261TIP3    H258275   1.535   2.263   0.572 -1.0942 -0.6001  0.7033
12262TIP3   OH258276   0.641   2.840  14.674  0.0221  0.1258 -0.4587
12262TIP3    H158277   0.630   2.754  14.714  1.8380 -0.0678 -0.2993
12262TIP3    H258278   0.602   2.831  14.587 -2.2402 -0.0128  0.5008
12263TIP3   OH258279   2.956   0.832  13.624  0.0793  0.1518  0.1380
12263TIP3    H158280   3.031   0.782  13.594  0.1932 -1.6622  3.0712
12263TIP3    H258281   2.994   0.911  13.664  0.1208  0.9649 -1.4284
12264TIP3   OH258282   4.146   4.496   6.573  0.2485 -0.1492  0.0849
12264TIP3    H158283   4.141   4.401   6.558  0.3928 -0.3868  1.4174
12264TIP3    H258284   4.095   4.510   6.652 -1.8086  1.2543 -1.3745
12265TIP3   OH258285   2.445   5.450  15.744  0.0603 -0.3522  0.2721
12265TIP3    H158286   2.449   5.537  15.705  0.8378 -0.7010 -0.4647
12265TIP3    H258287   2.469   5.391  15.672 -1.5327 -1.2773  0.4548
12266TIP3   OH258288   2.344   6.198  14.874  0.2172 -0.0820  0.1158
12266TIP3    H158289   2.280   6.136  14.839 -1.1856  0.0952  2.1767
12266TIP3    H258290   2.425   6.148  14.882 -0.4970 -1.2267  0.3546
12267TIP3   OH258291   1.936   6.294   2.638 -0.0880 -1.1344  0.4643
12267TIP3    H158292   1.980   6.379   2.637 -0.0625 -1.1345 -1.2273
12267TIP3    H258293   1.995   6.235   2.592 -1.8327 -1.0989 -2.0144
12268TIP3   OH258294   2.566   2.151   0.621  0.5682  0.1645  0.2736
12268TIP3    H158295   2.628   2.080   0.604 -0.2041 -0.2052 -1.2196
12268TIP3    H258296   2.620   2.224   0.649  1.7645 -0.0179 -1.4046
12269TIP3   OH258297   2.696   4.546  14.164  0.1245  0.3169 -0.0576
12269TIP3    H158298   2.761   4.613  14.185  0.1081  0.0809  0.7642
12269TIP3    H258299   2.626   4.595  14.119  0.0593  0.8841  0.6343
12270TIP3   OH258300   0.179   4.709  17.061  0.0450 -0.1791 -0.0397
12270TIP3    H158301   0.216   4.679  17.144  0.7124 -1.9997 -0.9614
12270TIP3    H258302   0.237   4.674  16.994 -0.8699  0.6805 -1.3340
12271TIP3   OH258303   6.264   1.266  11.547  0.0086  0.2297  0.1290
12271TIP3    H158304   6.232   1.343  11.594 -0.3989  0.4239 -0.4589
12271TIP3    H258305   6.235   1.279  11.457  1.4973  0.2810 -0.3767
12272TIP3   OH258306   0.516   5.712   6.358 -0.2584 -0.1101  0.2914
12272TIP3    H158307   0.563   5.772   6.416  0.7847 -0.9065  0.2986
12272TIP3    H258308   0.583   5.678   6.299 -1.0191 -0.5085 -0.3636
12273TIP3   OH258309   0.979   1.494  14.421  0.0724  0.6986  0.5288
12273TIP3    H158310   0.951   1.581  14.392  1.0132  1.2677  1.2823
12273TIP3    H258311   0.930   1.479  14.501 -0.4298  0.3236  0.1609
12274TIP3   OH258312   5.804   2.967  16.492 -0.1141 -0.5221  0.0151
12274TIP3    H158313   5.799   3.037  16.558  0.1518  0.2393 -0.7522
12274TIP3    H258314   5.718   2.927  16.493  0.0572 -0.9208  1.2407
12275TIP3   OH258315   5.706   5.774   2.849  0.0694  0.0842 -0.1110
12275TIP3    H158316   5.771   5.723   2.800  1.8159  0.9190  1.1957
12275TIP3    H258317   5.748   5.789   2.934 -0.4379  3.4307 -0.3256
12276TIP3   OH258318   3.366   2.925   0.702 -0.4177 -0.2558  0.0571
12276TIP3    H158319   3.398   2.848   0.656 -1.0270 -0.5015  0.0433
12276TIP3    H258320   3.271   2.924   0.690 -0.4556  0.3825  0.2264
12277TIP3   OH258321   2.665   6.154  11.609  0.4081 -0.2263 -0.0398
12277TIP3    H158322   2.645   6.179  11.700 -2.0965  3.3294 -1.3267
12277TIP3    H258323   2.753   6.187  11.594  1.2614 -1.7574  1.3093
12278TIP3   OH258324   0.814   0.954   3.616 -0.2123 -0.3279 -0.3274
12278TIP3    H158325   0.894   0.989   3.655  0.2142  0.0654 -1.5240
12278TIP3    H258326   0.767   1.031   3.584 -1.1654 -0.5409  0.4976
12279TIP3   OH258327   5.598   0.674   4.523 -0.3884 -0.3208 -0.1096
12279TIP3    H158328   5.622   0.668   4.616  2.4204 -0.5586 -0.7581
12279TIP3    H258329   5.543   0.597   4.508 -0.7528 -0.3708  1.3008
12280TIP3   OH258330   0.210   1.437  13.456  0.2613  0.5005  0.0610
12280TIP3    H158331   0.233   1.355  13.500  0.0710  0.6569  0.4487
12280TIP3    H258332   0.290   1.490  13.460  0.0283  0.7942  0.8460
12281TIP3   OH258333   4.863   1.454   6.540  0.1171  0.0959  0.0655
12281TIP3    H158334   4.910   1.516   6.596  0.4146 -2.1481  2.4787
12281TIP3    H258335   4.931   1.396   6.505 -0.3602 -0.1232 -0.5245
12282TIP3   OH258336   5.709   4.510   5.040 -0.1543  0.3641 -0.1401
12282TIP3    H158337   5.683   4.479   5.127 -0.3126  1.5254  0.2488
12282TIP3    H258338   5.790   4.559   5.056  1.1921 -1.4780 -1.0288
12283TIP3   OH258339   0.657   4.998  13.722 -0.1442  0.2827  0.3202
12283TIP3    H158340   0.744   4.997  13.682  0.2075  1.5810  0.9799
12283TIP3    H258341   0.663   4.934  13.793 -1.0193 -2.6422 -2.0444
12284TIP3   OH258342   4.749   4.854   3.471 -0.2797  0.3241  0.0235
12284TIP3    H158343   4.713   4.867   3.559 -1.6287  1.6677 -0.6736
12284TIP3    H258344   4.691   4.791   3.430 -1.0397  1.4020 -0.6213
12285TIP3   OH258345   3.718   1.370  12.424  0.1511 -0.6073 -0.0075
12285TIP3    H158346   3.664   1.404  12.353  1.7301  1.1146 -0.4740
12285TIP3    H258347   3.807   1.395  12.401  0.6081  1.5677  3.3275
12286TIP3   OH258348   2.676   5.232  10.338  0.0839  0.4351 -0.4818
12286TIP3    H158349   2.731   5.201  10.409  0.1880  1.0861 -0.2723
12286TIP3    H258350   2.588   5.240  10.376 -0.0318  0.0038 -0.6478
12287TIP3   OH258351   0.625   3.170  13.141 -0.2181 -0.1052 -0.4018
12287TIP3    H158352   0.559   3.234  13.112 -0.0926 -0.3461 -1.2335
12287TIP3    H258353   0.607   3.092  13.089  1.4880  0.2172 -1.5448
12288TIP3   OH258354   3.383   5.698  12.089  0.3967 -0.4934  0.1365
12288TIP3    H158355   3.341   5.646  12.021 -0.6957 -0.2089  0.5758
12288TIP3    H258356   3.335   5.780  12.090 -0.0289 -0.7293  1.6736
12289TIP3   OH258357   4.232   0.823   1.486  0.0079  0.0167  0.1956
12289TIP3    H158358   4.312   0.867   1.512  0.3355 -0.2750 -0.2868
12289TIP3    H258359   4.257   0.770   1.410 -0.7281  0.2201 -0.2014
12290TIP3   OH258360   1.674   6.808   5.023 -0.2493  0.3171  0.6166
12290TIP3    H158361   1.660   6.713   5.030 -0.8735  0.4367  1.1033
12290TIP3    H258362   1.645   6.830   4.935  4.0690 -0.6158 -1.2915
12291TIP3   OH258363   5.305   5.245  12.187 -0.6479  0.2945 -0.2679
12291TIP3    H158364   5.231   5.303  12.166 -2.0854 -1.7556 -1.2365
12291TIP3    H258365   5.267   5.178  12.244  0.4195 -0.8810 -0.9026
12292TIP3   OH258366   3.049   3.932  14.272  0.6514 -0.5284  0.8359
12292TIP3    H158367   3.027   3.906  14.183  1.2074  1.5923  0.0245
12292TIP3    H258368   2.965   3.944  14.315  0.3778 -1.4780  0.5758
12293TIP3   OH258369   5.887   5.551   2.869 -0.2091 -0.1620  0.0909
12293TIP3    H158370   5.827   5.495   2.917  0.0096 -0.6202 -0.1642
12293TIP3    H258371   5.910   5.501   2.791 -0.6418  0.6174 -0.5499
12294TIP3   OH258372   0.887   1.928   4.109 -0.1253  0.0512  0.0631
12294TIP3    H158373   0.869   2.022   4.107  0.9057  0.2538 -0.3568
12294TIP3    H258374   0.982   1.921   4.116 -0.1757 -0.9648  0.0034
12295TIP3   OH258375   4.921   6.774   4.156 -0.0956  0.3852  0.8017
12295TIP3    H158376   4.962   6.837   4.097  0.4721 -1.4223 -0.8650
12295TIP3    H258377   4.891   6.826   4.231  0.8852  2.4910 -0.1901
12296TIP3   OH258378   5.639   4.233   1.631  0.2784  0.0171  0.1897
12296TIP3    H158379   5.669   4.307   1.579 -2.5336  0.3163 -1.1802
12296TIP3    H258380   5.695   4.160   1.603 -0.8186  0.2653 -3.0722
12297TIP3   OH258381   6.568   5.960  10.960  0.7823 -0.1463 -0.6654
12297TIP3    H158382   6.656   5.958  10.996  0.7493  1.2709 -0.4564
12297TIP3    H258383   6.558   6.048  10.924 -0.1242 -0.6670 -1.7923
12298TIP3   OH258384   1.302   3.429   0.210 -0.4101  0.3832  0.0905
12298TIP3    H158385   1.356   3.420   0.289  0.4374  1.8352 -0.2691
12298TIP3    H258386   1.212   3.426   0.242 -0.0790  0.6526  1.0869
12299TIP3   OH258387   4.292   2.531   0.156  0.4337  0.3544  0.1291
12299TIP3    H158388   4.361   2.535   0.090 -1.1047 -0.6650 -1.6181
12299TIP3    H258389   4.278   2.622   0.182  1.9924  0.6302  0.0820
12300TIP3   OH258390   6.425   4.775   0.332  0.0660 -0.5089 -0.3276
12300TIP3    H158391   6.413   4.870   0.342  0.2069 -0.3757 -1.3227
12300TIP3    H258392   6.496   4.754   0.393 -0.6784 -0.1654  0.6777
12301TIP3   OH258393   1.186   0.246  13.905 -0.2873  0.4083 -0.2366
12301TIP3    H158394   1.274   0.245  13.869  0.5906 -0.4965  1.7841
12301TIP3    H258395   1.131   0.276  13.833  1.7626  1.8772 -1.2736
12302TIP3   OH258396   5.558   2.459   2.615  0.5791 -0.0247  0.3819
12302TIP3    H158397   5.558   2.366   2.635 -0.4125 -0.0231  0.4370
12302TIP3    H258398   5.467   2.485   2.621  0.8515  0.9694  0.4212
12303TIP3   OH258399   6.089   6.689   0.467  0.4780  0.2426 -0.0463
12303TIP3    H158400   6.074   6.715   0.558  0.1864 -0.9126  0.2514
12303TIP3    H258401   6.119   6.598   0.473 -1.8241 -0.6800 -1.2150
12304TIP3   OH258402   6.774   3.727  17.089 -0.1877 -0.0900  0.2969
12304TIP3    H158403   6.741   3.815  17.106 -0.4443 -0.3593  1.2279
12304TIP3    H258404   6.798   3.728  16.996 -0.6919  0.7913  0.1681
12305TIP3   OH258405   0.859   2.974   4.727 -0.2964  0.6113 -0.6477
12305TIP3    H158406   0.942   2.934   4.701 -1.2055 -0.4759 -1.9944
12305TIP3    H258407   0.831   3.024   4.651 -0.8269  1.0884 -0.1515
12306TIP3   OH258408   4.628   1.245   2.238  0.2052 -0.2372  0.0935
12306TIP3    H158409   4.536   1.270   2.240  0.5608  1.2875 -0.9907
12306TIP3    H258410   4.671   1.315   2.189  1.5123 -2.2532 -1.8546
12307TIP3   OH258411   4.140   6.171   5.830  0.0758  0.2675 -0.4106
12307TIP3    H158412   4.116   6.080   5.849 -3.4927  0.8586 -1.3674
12307TIP3    H258413   4.142   6.214   5.915 -0.9427 -0.1697 -0.1496
12308TIP3   OH258414   5.011   3.481  14.419 -0.2621 -0.0922 -0.1290
12308TIP3    H158415   4.995   3.443  14.506  2.9488 -1.1944  0.1001
12308TIP3    H258416   4.992   3.410  14.358 -0.4024 -0.0110 -0.1804
12309TIP3   OH258417   1.570   0.818   5.617  0.1902  0.0642 -0.1275
12309TIP3    H158418   1.548   0.728   5.641 -0.8286  0.2854 -0.1908
12309TIP3    H258419   1.518   0.872   5.676  0.6009  0.6189 -0.2657
12310TIP3   OH258420   3.602   4.319  16.338  0.0612  0.8464  1.0153
12310TIP3    H158421   3.605   4.406  16.297  2.6777  0.1385 -0.5302
12310TIP3    H258422   3.579   4.260  16.266 -1.5560  0.1942  2.0188
12311TIP3   OH258423   0.355   1.113  16.616 -0.4454 -0.4583  0.4129
12311TIP3    H158424   0.436   1.104  16.565  0.3568  1.6271  1.1929
12311TIP3    H258425   0.288   1.133  16.552 -0.0287 -0.6487 -0.0910
12312TIP3   OH258426   0.983   1.750  16.346  0.4725 -0.6576 -0.5636
12312TIP3    H158427   0.889   1.741  16.361  0.7315 -0.9365  1.1314
12312TIP3    H258428   0.995   1.735  16.253 -1.1459 -0.7578 -0.7703
12313TIP3   OH258429   5.299   6.262   0.494 -0.3032  0.3060  0.0719
12313TIP3    H158430   5.235   6.207   0.539  0.9639  0.7268  2.5703
12313TIP3    H258431   5.370   6.204   0.470 -0.7676  0.1709 -1.0551
12314TIP3   OH258432   6.665   4.894   1.939 -0.3025 -0.0038 -0.5176
12314TIP3    H158433   6.679   4.805   1.971  0.5093 -0.0733 -1.0305
12314TIP3    H258434   6.609   4.934   2.005  0.9660 -0.2869  0.8078
12315TIP3   OH258435   6.691   4.928  12.957  0.0660 -0.5817 -0.0568
12315TIP3    H158436   6.773   4.978  12.961 -0.0584 -0.2568 -1.2019
12315TIP3    H258437   6.624   4.991  12.984  0.0463 -0.4509 -0.3998
12316TIP3   OH258438   4.062   6.445   4.584 -0.1208 -0.1892 -0.1371
12316TIP3    H158439   4.116   6.425   4.660 -0.2207  1.0950  0.2947
12316TIP3    H258440   4.053   6.362   4.538  1.6349 -0.5778  0.1613
12317TIP3   OH258441   0.719   5.323  12.714 -0.5112 -0.0201 -0.3948
12317TIP3    H158442   0.778   5.263  12.669 -2.0177 -0.2768 -2.1516
12317TIP3    H258443   0.763   5.408  12.709  0.4444 -0.4965 -0.1974
12318TIP3   OH258444   3.314   4.629  15.934  0.3565 -0.7258 -0.6778
12318TIP3    H158445   3.380   4.659  15.872  0.1974  0.5167 -0.2710
12318TIP3    H258446   3.347   4.657  16.019  0.0831 -1.5363 -0.2955
12319TIP3   OH258447   2.144   5.473  15.903  0.2599 -0.3748  0.6005
12319TIP3    H158448   2.120   5.415  15.831 -0.3909 -0.3917  0.8153
12319TIP3    H258449   2.238   5.483  15.896 -0.1178  3.1228 -2.9102
12320TIP3   OH258450   6.730   4.487   4.187  0.0537 -0.1382  0.2831
12320TIP3    H158451   6.810   4.454   4.227 -0.5052 -1.6425  0.2248
12320TIP3    H258452   6.671   4.411   4.185 -0.9843  0.6607 -0.6568
12321TIP3   OH258453   2.961   0.677   2.297  0.3258 -0.0650 -0.0544
12321TIP3    H158454   2.933   0.729   2.373  0.8561  1.8934 -1.1414
12321TIP3    H258455   2.884   0.623   2.275  0.0053 -0.3127  1.5409
12322TIP3   OH258456   5.105   2.569  16.987  0.0050 -0.0939  0.5458
12322TIP3    H158457   5.182   2.530  16.946  1.5436  2.9346  0.2918
12322TIP3    H258458   5.140   2.619  17.061 -1.8210  0.7250  0.9250
12323TIP3   OH258459   4.199   6.186   0.672  0.3192  0.0959 -0.4790
12323TIP3    H158460   4.189   6.108   0.727  0.9315  0.8013  0.6694
12323TIP3    H258461   4.133   6.176   0.605 -0.4202 -0.8354  0.3513
12324TIP3   OH258462   5.134   1.321  11.314 -0.2187  0.1695  0.2367
12324TIP3    H158463   5.094   1.399  11.276  3.0963  1.5009 -0.9357
12324TIP3    H258464   5.185   1.354  11.389  0.1182 -1.1101  0.6003
12325TIP3   OH258465   3.092   3.203   4.523  0.3437  0.5405 -0.5261
12325TIP3    H158466   3.114   3.294   4.500 -0.3344  0.7337 -0.4404
12325TIP3    H258467   3.161   3.151   4.482 -0.3339  0.9433 -2.2955
12326TIP3   OH258468   2.369   5.999  15.399  0.4254 -0.0760 -0.3774
12326TIP3    H158469   2.426   6.036  15.466 -0.4500 -1.0839  0.9767
12326TIP3    H258470   2.406   5.913  15.380 -0.4090 -0.6006  0.2717
12327TIP3   OH258471   1.648   3.568  13.089 -0.1820  0.3286  0.4439
12327TIP3    H158472   1.686   3.648  13.124  1.9130  0.4869 -1.8838
12327TIP3    H258473   1.708   3.499  13.117  0.7636  0.2915 -1.5158
12328TIP3   OH258474   2.638   0.923   2.864  0.2197  0.3181 -0.2655
12328TIP3    H158475   2.732   0.908   2.863 -0.0337 -1.7540 -1.9879
12328TIP3    H258476   2.626   0.999   2.807  0.8763  1.2450  0.7830
12329TIP3   OH258477   0.039   3.025   4.546  0.2301 -0.6969 -0.7020
12329TIP3    H158478  -0.005   2.987   4.470  0.9689 -0.8436 -1.0710
12329TIP3    H258479   0.132   3.025   4.522  0.4019 -0.1156 -0.0676
12330TIP3   OH258480   0.717   0.096   3.347 -0.0198  0.2010 -0.3468
12330TIP3    H158481   0.622   0.104   3.354  0.0757  0.5952  0.6078
12330TIP3    H258482   0.747   0.183   3.320  0.1766  0.4378  0.6081
12331TIP3   OH258483   0.703   4.368   0.288 -0.1475  0.1306  0.2669
12331TIP3    H158484   0.726   4.457   0.314 -0.2496 -0.1981  1.5418
12331TIP3    H258485   0.783   4.334   0.248  0.4995  0.1647  1.5044
12332TIP3   OH258486   1.446   3.400   3.994 -0.0410  0.1332 -0.0732
12332TIP3    H158487   1.441   3.493   3.972  0.0665  0.0780 -0.3446
12332TIP3    H258488   1.359   3.378   4.028 -0.0563  0.3392  0.0239
12333TIP3   OH258489   3.007   1.393  13.960 -0.6465  0.1786 -0.3844
12333TIP3    H158490   2.952   1.408  14.036 -1.7705 -0.8406 -0.9638
12333TIP3    H258491   2.949   1.406  13.885 -0.2096 -1.2506 -1.0042
12334TIP3   OH258492   0.684   1.439   1.504 -0.3907 -0.4158 -0.3230
12334TIP3    H158493   0.602   1.407   1.465 -0.1063 -1.8514  0.2075
12334TIP3    H258494   0.697   1.525   1.465 -2.4433  0.0871 -0.0163
12335TIP3   OH258495   0.337   4.443   2.831 -0.4594  0.1272  0.2841
12335TIP3    H158496   0.419   4.395   2.829 -0.0445  0.8347 -0.6136
12335TIP3    H258497   0.311   4.450   2.739 -0.9534  0.8719  0.4685
12336TIP3   OH258498   4.104   5.855   2.253 -0.3920  0.3010  0.0253
12336TIP3    H158499   4.035   5.910   2.290  0.4869  1.2043  0.3811
12336TIP3    H258500   4.180   5.872   2.309  0.2771 -0.2201 -0.7127
12337TIP3   OH258501   6.846   4.858   1.329 -0.7391 -0.2988  0.4062
12337TIP3    H158502   6.804   4.817   1.405 -1.5233  0.8286  0.6124
12337TIP3    H258503   6.939   4.838   1.339 -0.6331  0.9058  2.4173
12338TIP3   OH258504   1.735   3.515  11.086  0.2070  0.1505  0.0244
12338TIP3    H158505   1.743   3.610  11.096 -0.1372  0.5443 -2.7332
12338TIP3    H258506   1.667   3.503  11.019 -0.0540 -2.0775  0.5843
12339TIP3   OH258507   2.648   5.803   0.862  0.0427  0.4581  0.1433
12339TIP3    H158508   2.574   5.848   0.903 -0.1225 -0.7100  1.1731
12339TIP3    H258509   2.626   5.801   0.769 -0.9741  0.5799  0.3686
12340TIP3   OH258510   5.052   3.081   1.066  0.1745  0.0532  0.3218
12340TIP3    H158511   5.143   3.089   1.095  0.1382  0.8621  0.2100
12340TIP3    H258512   5.054   3.009   1.002  0.6952 -0.0644  0.4631
12341TIP3   OH258513   2.705   3.580  13.666 -0.2159  0.5120 -0.1422
12341TIP3    H158514   2.701   3.498  13.617 -0.8585  0.1576  0.4865
12341TIP3    H258515   2.767   3.563  13.737  1.0339  1.1551 -1.0354
12342TIP3   OH258516   4.550   1.232  12.174 -0.2746 -0.2167  0.5541
12342TIP3    H158517   4.568   1.146  12.136  1.6687 -0.1133  1.1322
12342TIP3    H258518   4.589   1.294  12.113  0.0570  0.1369  1.1173
12343TIP3   OH258519   5.047   4.045   4.224 -0.2045 -0.2880 -0.0510
12343TIP3    H158520   5.125   4.034   4.169  0.6309 -1.5543  1.3170
12343TIP3    H258521   5.023   3.956   4.249 -0.6274  0.2523  1.5532
12344TIP3   OH258522   6.747   0.015  10.876 -0.3435 -0.8487 -0.0172
12344TIP3    H158523   6.726  -0.077  10.860 -0.4694 -1.3213  2.4475
12344TIP3    H258524   6.665   0.054  10.906  0.1712 -0.4624  0.9354
12345TIP3   OH258525   4.432   1.652  15.349  0.2194  0.1994 -0.0406
12345TIP3    H158526   4.344   1.646  15.313  0.4253 -0.8748 -0.3885
12345TIP3    H258527   4.480   1.707  15.286  0.3593 -0.9932 -1.0164
12346TIP3   OH258528   3.872   0.069  15.322 -0.6918 -0.3979  0.1955
12346TIP3    H158529   3.825   0.153  15.322 -0.5811 -0.3342 -0.0484
12346TIP3    H258530   3.809   0.006  15.356 -0.2261  0.0841  2.0536
12347TIP3   OH258531   1.084   0.062   5.905  0.2026  0.2447 -0.8907
12347TIP3    H158532   1.133  -0.018   5.922  0.0542  0.0821 -1.2141
12347TIP3    H258533   1.037   0.080   5.986  1.2490  0.7278 -0.3620
12348TIP3   OH258534   5.424   1.424   3.085  0.2109 -0.2881 -0.3584
12348TIP3    H158535   5.467   1.495   3.038 -1.3320  0.4985 -0.6210
12348TIP3    H258536   5.497   1.374   3.124  1.3547  0.9209 -0.8735
12349TIP3   OH258537   5.228   0.607   3.528 -0.1081  0.6363  0.3110
12349TIP3    H158538   5.213   0.661   3.450 -0.4639 -0.6868 -0.5871
12349TIP3    H258539   5.295   0.545   3.501 -2.1806 -1.6571  0.0561
12350TIP3   OH258540   6.234   4.334   0.686 -0.4100  0.2339  0.9158
12350TIP3    H158541   6.191   4.398   0.742  0.4972  1.4320  0.2981
12350TIP3    H258542   6.215   4.250   0.727 -4.2997  0.5174  0.0363
12351TIP3   OH258543   6.704   4.733   2.341 -0.0538  0.0301  0.0468
12351TIP3    H158544   6.611   4.719   2.328 -0.1932  1.5185 -0.7493
12351TIP3    H258545   6.712   4.766   2.431  0.0831 -2.9511  1.2374
12352TIP3   OH258546   0.098   0.400   3.204  0.4828  0.1981  0.1089
12352TIP3    H158547   0.057   0.313   3.208 -0.1677  0.4933 -0.0099
12352TIP3    H258548   0.163   0.392   3.134 -0.4781  0.1741 -0.8020
12353TIP3   OH258549   6.048   5.690   3.793  0.1669 -0.2110 -0.3054
12353TIP3    H158550   6.085   5.708   3.706  0.4333  1.5483  0.1270
12353TIP3    H258551   5.954   5.705   3.782  0.3593  1.4251 -0.0044
12354TIP3   OH258552   2.011   3.953   4.952 -0.0566 -0.1437  0.4098
12354TIP3    H158553   2.088   3.959   4.895 -0.4640  2.3560  0.0150
12354TIP3    H258554   2.020   4.027   5.012 -0.7981 -1.4131  2.1641
12355TIP3   OH258555   1.376   1.239   0.475 -0.0122 -0.6053 -0.5175
12355TIP3    H158556   1.456   1.228   0.525  2.0126 -1.3329 -3.6551
12355TIP3    H258557   1.364   1.333   0.469 -0.3219 -0.4955  1.2239
12356TIP3   OH258558   5.510   2.118   4.282  0.0665 -0.3994 -0.4881
12356TIP3    H158559   5.565   2.123   4.360  0.3411 -2.2380 -0.5260
12356TIP3    H258560   5.572   2.121   4.209 -0.2861  3.2019 -0.8006
12357TIP3   OH258561   6.014   2.346   0.274 -0.2637  0.0257  0.1778
12357TIP3    H158562   5.941   2.406   0.262 -0.1079  0.7003  2.1301
12357TIP3    H258563   5.972   2.261   0.290 -0.6694  0.4130  1.3140
12358TIP3   OH258564   4.377   5.256  15.998  0.2847  0.0704  0.1391
12358TIP3    H158565   4.462   5.291  16.021 -0.1989  0.5124  1.3813
12358TIP3    H258566   4.325   5.332  15.973 -1.0118  0.5576  3.6249
12359TIP3   OH258567   5.699   2.607  13.036  0.5244 -0.5342 -0.1324
12359TIP3    H158568   5.768   2.543  13.021 -0.2887 -0.9828 -2.2974
12359TIP3    H258569   5.625   2.556  13.070  0.8971 -0.1915  1.2856
12360TIP3   OH258570   4.595   5.303  13.618  0.2919  0.0187 -0.2879
12360TIP3    H158571   4.640   5.385  13.639  0.2460  0.8390 -2.9703
12360TIP3    H258572   4.515   5.331  13.574 -0.8642 -1.4904  0.7713
12361TIP3   OH258573   0.282   1.359  14.517  0.2104 -0.4435 -0.2068
12361TIP3    H158574   0.194   1.346  14.482  0.5821 -1.0254 -0.9523
12361TIP3    H258575   0.291   1.291  14.585  0.6052 -1.3665 -1.1541
12362TIP3   OH258576   4.064   4.380   5.313  0.3565  0.4104 -0.1407
12362TIP3    H158577   4.030   4.303   5.359  0.3832  1.4629  1.7293
12362TIP3    H258578   4.151   4.353   5.282  1.2810  0.3143  2.3687
12363TIP3   OH258579   4.571   6.707  13.341  0.4105  0.1624 -0.2481
12363TIP3    H158580   4.636   6.760  13.295 -0.1201 -1.3262 -2.9598
12363TIP3    H258581   4.621   6.633  13.377  0.8528  1.4126  1.8786
12364TIP3   OH258582   0.057   2.432   4.661 -0.1364 -0.1595 -0.5377
12364TIP3    H158583   0.101   2.355   4.695 -0.8357 -0.5945 -0.6029
12364TIP3    H258584  -0.036   2.410   4.663 -0.4839  1.2883  0.9671
12365TIP3   OH258585   1.415   4.396   4.594 -0.3470 -0.3136 -0.5856
12365TIP3    H158586   1.385   4.315   4.636  2.1900 -0.7904  0.4962
12365TIP3    H258587   1.414   4.461   4.665 -0.1926  0.0171 -0.8843
12366TIP3   OH258588   5.616   3.675   2.814  0.1587  0.2351 -0.1476
12366TIP3    H158589   5.578   3.756   2.848 -0.3709 -0.0700  0.0038
12366TIP3    H258590   5.541   3.625   2.782  0.6288  0.5320 -1.8286
12367TIP3   OH258591   4.708   4.021   5.749 -0.8507  0.1235  0.4835
12367TIP3    H158592   4.729   3.978   5.832 -0.4421  0.8068  0.7416
12367TIP3    H258593   4.701   3.949   5.686 -2.2457 -0.4979  1.3140
12368TIP3   OH258594   1.582   1.291  13.849  0.1962  0.0359  0.0829
12368TIP3    H158595   1.548   1.238  13.777  0.3087 -1.5606  1.1616
12368TIP3    H258596   1.674   1.269  13.855  0.4767  1.1036 -0.0575
12369TIP3   OH258597   3.662   4.015   2.019  0.0570  0.8640  0.5362
12369TIP3    H158598   3.597   4.075   2.053  0.1793  0.6968  1.0727
12369TIP3    H258599   3.743   4.038   2.065 -0.0446 -0.1574  1.2816
12370TIP3   OH258600   5.871   3.777   1.196  0.1756  0.5046 -0.2643
12370TIP3    H158601   5.851   3.866   1.224  2.5814  0.7234  1.0549
12370TIP3    H258602   5.872   3.726   1.278 -4.4080 -1.5996 -1.2308
12371TIP3   OH258603   4.854   1.658   2.928  0.2626 -0.3630 -0.3579
12371TIP3    H158604   4.832   1.726   2.991 -1.1439 -0.8836 -0.2548
12371TIP3    H258605   4.855   1.704   2.843  0.3763 -0.0130 -0.1700
12372TIP3   OH258606   6.644   6.047   0.742 -0.0856  0.2272  0.1792
12372TIP3    H158607   6.696   6.011   0.670  0.7607 -0.7081  1.2307
12372TIP3    H258608   6.554   6.025   0.720  0.2574 -0.9317 -0.1095
12373TIP3   OH258609   0.474   1.646   4.871 -0.2387 -0.0861  0.3510
12373TIP3    H158610   0.432   1.592   4.937  0.1103  0.2286  0.8469
12373TIP3    H258611   0.460   1.736   4.901 -0.5660  0.0870 -0.3068
12374TIP3   OH258612   4.415   3.791  13.688  0.2632  0.4494  0.2014
12374TIP3    H158613   4.426   3.717  13.628  1.8179 -0.1879  1.2118
12374TIP3    H258614   4.391   3.864  13.631  1.6933 -0.1174 -1.2145
12375TIP3   OH258615   2.069   1.322  14.672  0.6674  0.7060  0.2181
12375TIP3    H158616   2.105   1.376  14.743  0.5064  2.8003 -1.2045
12375TIP3    H258617   2.135   1.324  14.603 -0.4390  1.2543 -0.8603
12376TIP3   OH258618   2.442   2.245   2.082  0.1022  0.4669  1.1127
12376TIP3    H158619   2.535   2.225   2.069 -0.0210 -0.1626  1.1677
12376TIP3    H258620   2.400   2.159   2.090 -0.7930  0.6443 -0.9622
12377TIP3   OH258621   1.776   3.031   0.793  0.1618 -0.1021  0.1036
12377TIP3    H158622   1.723   3.093   0.744  1.3353  0.8059 -0.0565
12377TIP3    H258623   1.729   2.948   0.787 -0.5507  0.3803 -1.1313
12378TIP3   OH258624   4.816   4.781  11.782 -0.0010  0.8545 -0.0837
12378TIP3    H158625   4.898   4.799  11.736 -0.4418 -1.0356 -1.7856
12378TIP3    H258626   4.747   4.806  11.720 -0.6310 -0.6104 -0.0252
12379TIP3   OH258627   1.278   3.393   0.622 -0.1835 -0.5493  0.3636
12379TIP3    H158628   1.244   3.470   0.669 -3.2535 -0.1775 -2.1258
12379TIP3    H258629   1.251   3.319   0.675  0.1527 -0.0507  1.2655
12380TIP3   OH258630   0.032   5.556  12.328 -0.4190  0.2968 -0.3420
12380TIP3    H158631  -0.051   5.595  12.300  0.5764  2.2120 -0.8128
12380TIP3    H258632   0.027   5.465  12.297 -1.6443  0.8224 -1.8757
12381TIP3   OH258633   5.469   6.758  10.543  0.1273 -0.2586 -0.1280
12381TIP3    H158634   5.387   6.781  10.588  0.3447  0.4954 -0.0941
12381TIP3    H258635   5.500   6.680  10.587 -0.8994 -0.9305 -0.5527
12382TIP3   OH258636   6.809   4.550  15.412 -0.2965  0.1800 -0.0465
12382TIP3    H158637   6.858   4.622  15.450  0.4639  0.0210 -0.6967
12382TIP3    H258638   6.760   4.512  15.485  0.8443  0.1108  0.6919
12383TIP3   OH258639   5.131   4.598  16.522  0.0438 -0.7664 -0.4714
12383TIP3    H158640   5.092   4.519  16.486 -1.1516 -1.0088  1.2497
12383TIP3    H258641   5.078   4.669  16.485 -0.5959 -0.9549  0.0589
12384TIP3   OH258642   0.612   3.432   5.266 -0.3799 -0.0949 -0.0097
12384TIP3    H158643   0.621   3.351   5.316 -1.4000 -0.3381 -0.2087
12384TIP3    H258644   0.648   3.412   5.180 -2.1817 -0.9000 -0.6284
12385TIP3   OH258645   5.793   4.885   0.668  0.0667  0.0337 -0.3701
12385TIP3    H158646   5.781   4.979   0.669  3.0049  0.5639 -2.2253
12385TIP3    H258647   5.724   4.852   0.609  0.8988  1.4795 -2.2591
12386TIP3   OH258648   3.872   2.574  10.832 -0.0575 -0.4172 -0.0601
12386TIP3    H158649   3.964   2.600  10.848  0.0605 -0.5700 -0.4917
12386TIP3    H258650   3.822   2.654  10.851  0.3096  0.1573 -1.4133
12387TIP3   OH258651   4.566   3.945   2.198  0.2731 -0.4315  0.3678
12387TIP3    H158652   4.645   3.999   2.192  0.0378 -0.0779  0.4071
12387TIP3    H258653   4.598   3.856   2.207  0.6657 -0.3469 -0.1533
12388TIP3   OH258654   0.702   5.687   3.256 -0.0037  0.3138 -0.1043
12388TIP3    H158655   0.775   5.742   3.283  0.6565 -0.9135  0.7092
12388TIP3    H258656   0.738   5.598   3.252 -1.2675 -0.2141 -0.4204
12389TIP3   OH258657   2.739   6.450  12.502 -0.7056  0.3739  0.1227
12389TIP3    H158658   2.829   6.433  12.528  0.2331  2.4714 -1.4920
12389TIP3    H258659   2.694   6.366  12.515  1.1637 -0.4124  2.0308
12390TIP3   OH258660   3.233   2.179  13.377 -0.3250 -0.0924  0.2785
12390TIP3    H158661   3.293   2.115  13.413  0.9051  0.9200  0.1283
12390TIP3    H258662   3.248   2.175  13.282  1.7103  2.1212  0.3830
12391TIP3   OH258663   5.768   0.881  11.039  0.2205  0.3284  0.3921
12391TIP3    H158664   5.799   0.970  11.059 -0.6580  0.7408 -0.0575
12391TIP3    H258665   5.837   0.844  10.983  0.7584  0.5976  0.8664
12392TIP3   OH258666   5.516   5.445  14.304  0.0223  0.4453  0.2464
12392TIP3    H158667   5.490   5.353  14.307  3.0188 -0.6306 -1.5667
12392TIP3    H258668   5.578   5.454  14.377  0.5314  0.7028 -0.2118
12393TIP3   OH258669   2.646   0.726   2.338  0.3141  0.1827 -0.0103
12393TIP3    H158670   2.587   0.799   2.319 -1.1477 -0.7760  0.6374
12393TIP3    H258671   2.686   0.748   2.422 -0.6361 -0.0550  0.5145
12394TIP3   OH258672   3.430   1.178  10.644  0.1410  0.2574 -0.0767
12394TIP3    H158673   3.387   1.094  10.659  0.4836  0.1206  0.1566
12394TIP3    H258674   3.460   1.206  10.730  1.6696 -0.2886 -0.3930
12395TIP3   OH258675   2.157   1.953  13.534 -0.4919 -0.0801  0.7074
12395TIP3    H158676   2.063   1.944  13.518 -0.2930  1.6629 -2.1765
12395TIP3    H258677   2.187   1.864  13.553 -2.5307 -0.8406  0.5815
12396TIP3   OH258678   4.481   6.692  14.783 -0.2879  0.4263 -0.1560
12396TIP3    H158679   4.407   6.644  14.822  1.1114 -1.7986 -0.0348
12396TIP3    H258680   4.496   6.650  14.699  0.5788  1.1166 -0.3670
12397TIP3   OH258681   0.886   5.510  11.750  0.1875  0.1455  0.5784
12397TIP3    H158682   0.898   5.594  11.705 -0.9266  1.0850  1.9290
12397TIP3    H258683   0.803   5.476  11.717 -0.2420  0.4605  1.2930
12398TIP3   OH258684   2.943   3.930  15.752  0.6301 -0.1767 -0.5006
12398TIP3    H158685   3.016   3.868  15.749 -0.7440 -1.8626 -0.7259
12398TIP3    H258686   2.908   3.921  15.841  0.7075  0.6610 -0.3760
12399TIP3   OH258687   3.921   3.559  10.642 -0.2969  0.6580  0.4517
12399TIP3    H158688   3.893   3.605  10.721 -0.8906  1.8438 -0.4244
12399TIP3    H258689   3.931   3.628  10.576 -1.1244 -0.4357 -0.8811
12400TIP3   OH258690   6.296   6.228  12.624  0.1758 -0.4380  0.9788
12400TIP3    H158691   6.357   6.247  12.695  0.2351  0.3785  0.7214
12400TIP3    H258692   6.235   6.302  12.624  0.4707 -0.1704 -0.1299
12401TIP3   OH258693   5.287   0.088  14.949  0.3479 -0.1866 -0.0249
12401TIP3    H158694   5.279   0.061  15.040 -1.5503 -2.9131 -0.8589
12401TIP3    H258695   5.281   0.184  14.951 -2.1690 -0.2609  2.5716
12402TIP3   OH258696   3.507   3.278  12.452  0.0797  0.3264 -0.4521
12402TIP3    H158697   3.431   3.332  12.473  0.1456  0.3900 -0.3785
12402TIP3    H258698   3.568   3.337  12.408  0.2073  0.3446 -0.2530
12403TIP3   OH258699   0.785   5.093   5.562 -0.4673 -0.6616  0.3897
12403TIP3    H158700   0.877   5.066   5.557 -0.4167 -0.5539  0.7052
12403TIP3    H258701   0.744   5.029   5.620 -0.8040 -1.2597 -0.4835
12404TIP3   OH258702   3.943   5.480  16.635  0.2431  0.6266 -0.0935
12404TIP3    H158703   3.980   5.458  16.550  0.1239 -0.8844  0.2180
12404TIP3    H258704   4.001   5.547  16.670  0.7507  0.6897 -1.0301
12405TIP3   OH258705   4.850   3.482  15.499 -0.2494  0.0787  0.2951
12405TIP3    H158706   4.820   3.409  15.446 -0.6372  0.0346  0.5723
12405TIP3    H258707   4.881   3.442  15.580  3.8764 -0.2988 -1.2096
12406TIP3   OH258708   0.169   6.165   6.304  0.2159  0.4333  0.4923
12406TIP3    H158709   0.239   6.124   6.254  1.4881  1.4672  1.3387
12406TIP3    H258710   0.207   6.248   6.335 -0.4952 -0.1014  3.0810
12407TIP3   OH258711   4.937   2.862  11.721  1.0611 -0.5889  0.7145
12407TIP3    H158712   5.014   2.853  11.777  1.8349 -0.8783 -0.3646
12407TIP3    H258713   4.973   2.875  11.633 -0.1137 -2.2086 -0.0464
12408TIP3   OH258714   3.977   1.969  15.584 -0.1938  0.1901 -0.3190
12408TIP3    H158715   3.923   1.974  15.505 -1.6176  0.3930  0.6464
12408TIP3    H258716   4.067   1.980  15.551 -0.6367 -0.8937 -2.0396
12409TIP3   OH258717   4.310   1.740   4.996  0.1379 -0.3011 -0.3330
12409TIP3    H158718   4.388   1.686   5.007  1.2087  1.2343 -0.0695
12409TIP3    H258719   4.336   1.826   5.029 -1.3749  0.4979 -1.1385
12410TIP3   OH258720   6.835   6.438   1.031  0.0354  0.1484  0.2840
12410TIP3    H158721   6.870   6.446   1.120  0.1218  0.2367  0.2424
12410TIP3    H258722   6.843   6.345   1.011  0.1790  0.1548  0.3042
12411TIP3   OH258723   0.870   2.098   5.423  0.1215 -0.4182  0.4247
12411TIP3    H158724   0.790   2.145   5.403  0.0628 -0.9326 -0.5859
12411TIP3    H258725   0.844   2.031   5.486 -0.0539  0.0139  0.8153
12412TIP3   OH258726   2.213   2.792  13.497  0.3735  0.1435 -0.1651
12412TIP3    H158727   2.229   2.799  13.403  0.4166  0.1915 -0.1542
12412TIP3    H258728   2.168   2.708  13.508  2.3035 -0.9074  0.0442
12413TIP3   OH258729   1.422   2.257  11.173  0.4661  0.5696 -0.5168
12413TIP3    H158730   1.516   2.273  11.180  0.7033 -0.8688 -0.2472
12413TIP3    H258731   1.409   2.224  11.084  0.2558  0.5191 -0.4690
12414TIP3   OH258732   6.431   4.732  15.333 -0.0571 -0.0339 -0.3032
12414TIP3    H158733   6.424   4.692  15.419  0.0109  0.8383  0.1183
12414TIP3    H258734   6.378   4.812  15.339 -2.2508 -1.2564 -1.8831
12415TIP3   OH258735   1.916   0.822  16.742  0.3273  0.4251 -0.2799
12415TIP3    H158736   1.850   0.782  16.686  0.1275 -1.2208  1.0594
12415TIP3    H258737   1.914   0.915  16.718 -1.3941  0.1701 -1.3266
12416TIP3   OH258738   2.756   0.402  12.208 -0.0183  0.0422 -0.2427
12416TIP3    H158739   2.726   0.321  12.248 -2.4247 -1.1806 -3.9564
12416TIP3    H258740   2.842   0.418  12.246 -1.0688 -2.0520  3.4618
12417TIP3   OH258741   1.285   2.312   6.271  0.0670  0.3094 -0.2129
12417TIP3    H158742   1.344   2.350   6.206 -0.4603 -0.4545 -1.1631
12417TIP3    H258743   1.343   2.274   6.337  0.6297 -0.1764 -0.9812
12418TIP3   OH258744   0.756   1.006   2.774 -0.0898 -0.0851 -0.3161
12418TIP3    H158745   0.730   0.921   2.810 -0.1478 -0.5064 -1.3332
12418TIP3    H258746   0.704   1.015   2.694  1.8832 -0.3428 -1.6941
12419TIP3   OH258747   5.632   4.993  11.464  0.0435  0.1671 -0.5437
12419TIP3    H158748   5.694   4.921  11.466 -0.1076  0.0195  1.6890
12419TIP3    H258749   5.567   4.970  11.531  1.7112  3.7209  2.7122
12420TIP3   OH258750   6.044   5.736  16.551 -0.0714 -0.3633  0.1143
12420TIP3    H158751   6.046   5.656  16.603 -0.4186  0.2223  1.0567
12420TIP3    H258752   6.117   5.727  16.489 -0.3387 -1.5658 -0.0513
12421TIP3   OH258753   5.333   4.612   1.916 -1.0659 -0.4876 -0.4856
12421TIP3    H158754   5.261   4.660   1.875  0.8217  2.1892 -0.9394
12421TIP3    H258755   5.294   4.528   1.942 -4.7577  1.3984  0.7976
12422TIP3   OH258756   6.787   0.968  12.434  0.0960  0.2715  0.3918
12422TIP3    H158757   6.756   1.015  12.512  0.3092 -1.4646  1.5839
12422TIP3    H258758   6.726   0.895  12.424 -0.3553  0.8642 -1.5513
12423TIP3   OH258759   3.860   6.599   3.379  0.3505  0.2196 -0.0509
12423TIP3    H158760   3.806   6.656   3.433 -0.1478 -0.3004  0.0109
12423TIP3    H258761   3.814   6.515   3.379  1.1675 -0.2428  0.0205
12424TIP3   OH258762   5.529   1.922   2.638  0.2841 -0.4068 -0.2021
12424TIP3    H158763   5.615   1.914   2.678  0.1041  0.2971  0.3433
12424TIP3    H258764   5.480   1.845   2.668  0.6887 -0.7578 -0.4398
12425TIP3   OH258765   6.072   1.306  12.201  0.0078 -0.7646  0.2581
12425TIP3    H158766   6.064   1.399  12.220 -0.0025 -0.1068 -2.4357
12425TIP3    H258767   6.022   1.262  12.269 -1.3344  1.3133  0.6996
12426TIP3   OH258768   3.159   2.388  16.207  0.1324  0.2602 -0.0546
12426TIP3    H158769   3.128   2.368  16.295 -0.5640 -0.5604 -0.4656
12426TIP3    H258770   3.170   2.302  16.166  1.0665  0.6076 -0.5695
12427TIP3   OH258771   5.015   0.599  13.725  0.0414 -0.3734 -0.5400
12427TIP3    H158772   4.922   0.605  13.748 -0.0986 -1.4874 -0.7601
12427TIP3    H258773   5.015   0.567  13.635  0.6224  1.7728 -1.3671
12428TIP3   OH258774   5.111   0.717  11.566  0.2916 -0.1609  0.3004
12428TIP3    H158775   5.069   0.725  11.652 -2.6415  1.7125 -1.1398
12428TIP3    H258776   5.155   0.802  11.554 -0.0745 -0.0645 -0.3816
12429TIP3   OH258777   1.863   6.703  10.959  0.2700  0.0771 -0.6463
12429TIP3    H158778   1.934   6.679  10.899  1.9297  0.8299  0.9200
12429TIP3    H258779   1.863   6.798  10.959 -1.5405  0.1067 -1.4708
12430TIP3   OH258780   1.792   5.711  14.071  0.4644  0.5670 -0.2998
12430TIP3    H158781   1.836   5.636  14.110  1.4772  1.2543 -0.0642
12430TIP3    H258782   1.810   5.704  13.977  3.3296  2.1590  0.0108
12431TIP3   OH258783   2.597   4.062   5.869  0.4106 -0.5733 -0.2541
12431TIP3    H158784   2.690   4.065   5.850  0.3538  0.1936 -0.4284
12431TIP3    H258785   2.560   4.136   5.822 -0.1049 -0.1355  0.7905
12432TIP3   OH258786   3.744   0.109  10.680 -0.5226  0.2552 -0.3607
12432TIP3    H158787   3.686   0.158  10.621 -0.5017 -1.3303 -1.7687
12432TIP3    H258788   3.830   0.149  10.668 -0.6470  0.3670 -0.9274
12433TIP3   OH258789   5.373   3.296   1.678  0.0930 -0.5853  0.8399
12433TIP3    H158790   5.459   3.263   1.653  0.5016  1.2474 -0.4229
12433TIP3    H258791   5.357   3.368   1.617 -2.1658 -0.6102  1.3117
12434TIP3   OH258792   3.978   5.194   4.264 -0.0866  0.7519  0.2260
12434TIP3    H158793   3.922   5.162   4.193  3.4538 -1.6330 -1.8631
12434TIP3    H258794   3.993   5.117   4.319  2.7020  0.5879 -0.5802
12435TIP3   OH258795   4.884   2.678   4.782  0.0780 -0.4703  0.4530
12435TIP3    H158796   4.817   2.747   4.775  0.9197  0.2360 -0.9029
12435TIP3    H258797   4.869   2.641   4.869 -0.8686  0.9309  0.9404
12436TIP3   OH258798   2.028   5.311  15.687 -0.4669  0.3820  0.2816
12436TIP3    H158799   1.994   5.227  15.658 -0.8723  0.8675 -0.6933
12436TIP3    H258800   2.073   5.346  15.611 -1.3978  1.6106  0.2661
12437TIP3   OH258801   0.505   0.874  15.551  0.1242  0.0569 -0.4334
12437TIP3    H158802   0.493   0.916  15.466 -0.1914  0.6488 -0.1074
12437TIP3    H258803   0.482   0.783  15.537 -2.7391  0.6850 -0.3621
12438TIP3   OH258804   5.464   6.113   4.397 -0.3512 -0.2955 -0.3686
12438TIP3    H158805   5.477   6.018   4.392 -1.2817 -0.4147 -0.7362
12438TIP3    H258806   5.487   6.145   4.310  1.6753  0.0743  0.2383
12439TIP3   OH258807   5.319   1.659   6.232 -0.0028 -0.0154 -0.3651
12439TIP3    H158808   5.228   1.652   6.203  0.6265  1.0742 -2.8433
12439TIP3    H258809   5.318   1.725   6.302 -1.0621  0.2248 -0.5968
12440TIP3   OH258810   3.928   1.606  16.374 -0.2471 -0.4029  0.4622
12440TIP3    H158811   4.016   1.637  16.396 -0.2767  0.3608 -0.4382
12440TIP3    H258812   3.882   1.684  16.344 -1.0424 -0.9072  0.3455
12441TIP3   OH258813   0.669   3.620   5.496  0.1095 -0.2684 -0.8550
12441TIP3    H158814   0.621   3.585   5.421  0.3170 -0.9474 -0.6767
12441TIP3    H258815   0.744   3.562   5.507  1.0198  0.8049 -1.1558
12442TIP3   OH258816   5.098   0.691  10.429 -0.4959  0.1436  0.1616
12442TIP3    H158817   5.187   0.669  10.458 -0.2119  1.2636  0.2043
12442TIP3    H258818   5.081   0.778  10.466 -1.3200  0.2644 -0.4559
12443TIP3   OH258819   5.277   4.344  16.525  0.6027 -0.3773  0.1990
12443TIP3    H158820   5.208   4.356  16.590  0.5709 -2.9224  0.7149
12443TIP3    H258821   5.230   4.333  16.442  0.4740 -0.3407  0.2674
12444TIP3   OH258822   5.859   3.634   5.932 -0.5069  0.4403  0.0587
12444TIP3    H158823   5.933   3.581   5.962 -0.7297  0.6797  1.0757
12444TIP3    H258824   5.804   3.644   6.010  0.0665  3.0935  0.1892
12445TIP3   OH258825   6.807   6.271   0.054 -0.0176  0.2221 -0.1712
12445TIP3    H158826   6.786   6.364   0.057 -0.6380  0.1004 -0.5256
12445TIP3    H258827   6.863   6.256   0.130 -0.6584  0.7044  0.3984
12446TIP3   OH258828   2.992   4.062   4.771 -0.0561 -0.0270 -0.0313
12446TIP3    H158829   2.922   4.125   4.787  0.1443  0.2447 -0.2212
12446TIP3    H258830   2.947   3.983   4.741 -0.2319  0.3811 -0.8496
12447TIP3   OH258831   0.162   5.708  13.020 -0.2575 -0.4933 -0.8285
12447TIP3    H158832   0.093   5.752  12.970 -0.2277  1.9030  1.0790
12447TIP3    H258833   0.115   5.654  13.084 -0.5900  2.6105  1.7661
12448TIP3   OH258834   0.377   6.775   0.547  0.0673 -0.5435 -0.5329
12448TIP3    H158835   0.402   6.799   0.457  1.3300 -0.9780 -0.3195
12448TIP3    H258836   0.364   6.681   0.544  0.1714 -0.5680 -0.2497
12449TIP3   OH258837   1.811   3.656   2.088  0.2453  0.1234 -0.0629
12449TIP3    H158838   1.808   3.701   2.003  1.0456 -0.2034 -0.2761
12449TIP3    H258839   1.778   3.720   2.150 -1.4757 -0.0284 -0.7708
12450TIP3   OH258840   4.005   6.507  15.699  0.0405  0.4812 -0.0207
12450TIP3    H158841   4.078   6.509  15.637 -1.0904  1.8656 -1.3859
12450TIP3    H258842   3.963   6.422  15.684  0.4389  0.3384 -0.3455
12451TIP3   OH258843   0.178   2.532  11.984 -0.1929 -0.0026 -0.0468
12451TIP3    H158844   0.173   2.597  12.054  0.5206  0.7419 -0.6622
12451TIP3    H258845   0.247   2.565  11.926  1.2576 -2.0663  0.3995
12452TIP3   OH258846   6.758   3.036   0.687  0.0653  0.1205  0.3842
12452TIP3    H158847   6.680   2.981   0.700  0.6492 -0.8661 -0.1262
12452TIP3    H258848   6.822   2.977   0.646  0.6942  1.2065 -0.2510
12453TIP3   OH258849   5.500   5.599   4.358 -0.1252  0.2004  0.0446
12453TIP3    H158850   5.584   5.595   4.404 -0.2983 -0.8428  0.2836
12453TIP3    H258851   5.477   5.508   4.341 -2.1034  0.3161  1.6197
12454TIP3   OH258852   5.700   5.333   4.425 -0.0066 -0.0169  0.8623
12454TIP3    H158853   5.628   5.280   4.391  0.2537  0.1706  0.0033
12454TIP3    H258854   5.665   5.372   4.506 -0.4214 -0.9619  1.1564
12455TIP3   OH258855   5.230   6.346  11.845  0.1707  0.2174 -0.1041
12455TIP3    H158856   5.153   6.299  11.876  0.5047  0.6890  1.5425
12455TIP3    H258857   5.236   6.423  11.902  2.7623 -0.6424  0.9598
12456TIP3   OH258858   2.675   3.270  16.381  0.1502 -0.7662 -0.0842
12456TIP3    H158859   2.664   3.180  16.351 -3.0814 -0.4605 -0.1260
12456TIP3    H258860   2.624   3.322  16.320  1.3706  1.0517  0.3739
12457TIP3   OH258861   2.472   1.574   2.347 -0.4792  0.0465 -0.3278
12457TIP3    H158862   2.498   1.485   2.321 -0.7264 -0.3493  0.7251
12457TIP3    H258863   2.553   1.613   2.380 -0.2890  0.3481 -1.1463
12458TIP3   OH258864   2.239   0.645  15.900  0.2189 -0.1413 -0.2981
12458TIP3    H158865   2.154   0.649  15.858  0.4995  1.5691 -0.7788
12458TIP3    H258866   2.266   0.553  15.891 -1.7325 -0.8159  0.2636
12459TIP3   OH258867   0.494   4.881  12.322 -0.4956  0.2932 -0.6737
12459TIP3    H158868   0.482   4.976  12.322  0.0258  0.4126 -3.0964
12459TIP3    H258869   0.581   4.868  12.283 -1.2238 -1.2226 -1.8787
12460TIP3   OH258870   3.283   5.388   4.592 -0.2512 -0.0111 -0.3383
12460TIP3    H158871   3.304   5.367   4.683 -1.3930  0.7927  0.1437
12460TIP3    H258872   3.311   5.311   4.542  0.9103 -0.2254  0.6095
12461TIP3   OH258873   3.734   0.866   3.917 -0.0790  0.3181 -0.2384
12461TIP3    H158874   3.788   0.939   3.887 -0.0859 -0.0192 -1.0941
12461TIP3    H258875   3.727   0.878   4.011  1.0588  0.6475 -0.1913
12462TIP3   OH258876   1.507   2.175   4.362  0.3549 -0.4143  0.3029
12462TIP3    H158877   1.591   2.144   4.327  1.0630 -0.9894  2.3686
12462TIP3    H258878   1.445   2.161   4.291  1.3919 -3.0678 -0.1872
12463TIP3   OH258879   5.451   2.316  14.451 -0.0003  0.4937  0.1911
12463TIP3    H158880   5.418   2.299  14.363  1.1463  0.2417 -0.2053
12463TIP3    H258881   5.448   2.411  14.461 -1.6516  0.4445  0.5091
12464TIP3   OH258882   5.095   2.272  17.127  0.1615 -0.0761  0.1643
12464TIP3    H158883   5.145   2.206  17.175 -0.8521 -0.7467  0.3294
12464TIP3    H258884   5.004   2.255  17.150 -0.0829  1.9340  0.8851
12465TIP3   OH258885   3.890   2.630  11.428 -0.7613  0.2648 -0.1459
12465TIP3    H158886   3.804   2.641  11.470 -0.4114 -0.0657  0.6932
12465TIP3    H258887   3.931   2.716  11.434 -1.2351  0.5669 -1.0426
12466TIP3   OH258888   1.517   0.101  13.796  0.0861  0.3636 -0.1963
12466TIP3    H158889   1.574   0.083  13.722 -0.3968  1.6712 -0.9363
12466TIP3    H258890   1.500   0.196  13.791 -0.2625  0.4244  1.3655
12467TIP3   OH258891   2.170   1.974   3.587 -0.1036  0.0921  0.1762
12467TIP3    H158892   2.173   1.879   3.593  0.8915  0.0500 -0.6870
12467TIP3    H258893   2.202   1.993   3.499  0.8545  1.2684  0.7491
12468TIP3   OH258894   3.083   3.596  11.662  0.3895 -0.7918  0.0194
12468TIP3    H158895   3.041   3.561  11.741  0.1930  0.8629  0.6801
12468TIP3    H258896   3.131   3.521  11.626 -0.4927 -1.8933  1.0256
12469TIP3   OH258897   4.900   6.012  12.729 -0.0718  0.4442  0.0696
12469TIP3    H158898   4.977   6.063  12.703 -0.2448  0.6774  0.0134
12469TIP3    H258899   4.862   5.982  12.647  1.3089 -1.7183  0.1249
12470TIP3   OH258900   0.702   2.127   1.619  0.4258 -0.4481 -0.5919
12470TIP3    H158901   0.609   2.145   1.605  0.1643 -0.3173  1.0410
12470TIP3    H258902   0.704   2.077   1.701  1.9297  1.8023  0.8456
12471TIP3   OH258903   3.773   2.722   4.899  0.2850  0.1357  0.9008
12471TIP3    H158904   3.755   2.653   4.963 -1.4849 -0.6283 -0.3445
12471TIP3    H258905   3.689   2.767   4.888  0.6312  0.4599 -0.6419
12472TIP3   OH258906   6.477   3.543  12.812  0.2074 -0.5657  0.5640
12472TIP3    H158907   6.412   3.499  12.757  1.5402 -1.7907 -0.1258
12472TIP3    H258908   6.478   3.492  12.893  0.1182 -0.3880  0.6762
12473TIP3   OH258909   3.974   4.938   5.220  0.0986  0.1351  0.1866
12473TIP3    H158910   3.910   4.892   5.166  0.1717 -0.9489  0.9839
12473TIP3    H258911   3.924   4.967   5.297  0.2241  0.6952  0.0595
12474TIP3   OH258912   2.040   5.875   1.090 -0.2078  0.0174  0.5711
12474TIP3    H158913   2.019   5.952   1.143 -0.9958  1.7061 -1.9924
12474TIP3    H258914   1.956   5.848   1.052  0.3597 -0.9606 -0.0448
12475TIP3   OH258915   1.591   2.592  16.544  0.2755 -0.9394  0.0258
12475TIP3    H158916   1.573   2.554  16.630  0.3136 -2.4043 -0.5825
12475TIP3    H258917   1.558   2.528  16.482  0.2690  0.0834 -1.0700
12476TIP3   OH258918   6.703   2.785   2.344 -0.1005  0.0857 -0.2514
12476TIP3    H158919   6.772   2.846   2.372 -0.6834  0.6546 -0.0201
12476TIP3    H258920   6.624   2.838   2.344 -0.9496 -1.0650  1.5948
12477TIP3   OH258921   3.649   5.791  13.504 -0.9680  0.6254  0.0688
12477TIP3    H158922   3.583   5.861  13.510 -3.8207 -1.8124 -0.8055
12477TIP3    H258923   3.637   5.754  13.417  1.2761 -0.2897  0.0880
12478TIP3   OH258924   3.318   2.578   4.699 -0.2346 -0.1402  0.2837
12478TIP3    H158925   3.299   2.584   4.793  1.1374  0.2897  0.5508
12478TIP3    H258926   3.328   2.669   4.671  0.5522 -0.3148 -0.0177
12479TIP3   OH258927   0.408   0.379   4.064  0.3353  0.4307 -0.3749
12479TIP3    H158928   0.424   0.284   4.067  0.8618  0.5580  1.8144
12479TIP3    H258929   0.495   0.417   4.051  0.5432  0.6970  1.5646
12480TIP3   OH258930   2.644   2.321   3.264  0.4774  0.0376 -0.1236
12480TIP3    H158931   2.709   2.266   3.307  0.7937 -0.4278 -1.1457
12480TIP3    H258932   2.683   2.408   3.262 -0.1764  0.4215  1.8202
12481TIP3   OH258933   0.230   3.193   3.652 -0.5906 -0.4432  0.0276
12481TIP3    H158934   0.281   3.114   3.667 -0.7279 -0.6937 -0.7869
12481TIP3    H258935   0.179   3.174   3.573 -0.0282  0.7566 -0.6519
12482TIP3   OH258936   4.546   2.644  15.108 -0.0057 -0.0616  0.4820
12482TIP3    H158937   4.621   2.653  15.049  1.2218 -2.4773  1.5221
12482TIP3    H258938   4.473   2.621  15.050  0.3728  0.9182 -0.4063
12483TIP3   OH258939   4.164   2.340   2.467 -0.3608  0.3012 -0.3953
12483TIP3    H158940   4.168   2.245   2.478 -0.6450  0.4535  1.4087
12483TIP3    H258941   4.255   2.368   2.454 -0.3203 -0.2332 -1.3655
12484TIP3   OH258942   5.385   0.278  15.737 -0.1387  0.2276  0.4407
12484TIP3    H158943   5.423   0.199  15.701 -2.2196 -1.0008  0.7857
12484TIP3    H258944   5.411   0.278  15.829  1.4731  1.0278  0.0257
12485TIP3   OH258945   0.432   1.810   1.619  0.6268 -0.2786  0.7598
12485TIP3    H158946   0.463   1.814   1.529 -0.9226 -1.6674  0.0945
12485TIP3    H258947   0.463   1.891   1.659  3.3528 -0.6895 -0.3135
12486TIP3   OH258948   5.763   3.918  16.411  0.2314  0.2646 -0.3346
12486TIP3    H158949   5.769   3.993  16.352  1.2344 -0.9215 -1.7924
12486TIP3    H258950   5.845   3.870  16.399 -0.4054 -1.1199  0.5170
12487TIP3   OH258951   4.405   4.895   5.370 -0.6160  0.4095  0.2197
12487TIP3    H158952   4.472   4.838   5.408 -1.4207  0.0637  1.1664
12487TIP3    H258953   4.437   4.916   5.283  0.6373  0.1096  0.5980
12488TIP3   OH258954   6.747   3.837  12.254 -0.0220 -0.5075  0.4005
12488TIP3    H158955   6.712   3.766  12.307 -0.6927 -0.6392 -0.2112
12488TIP3    H258956   6.755   3.911  12.315 -2.2281 -0.1950  0.3953
12489TIP3   OH258957   0.353   0.559  12.956 -0.6031 -0.7289 -0.1168
12489TIP3    H158958   0.289   0.491  12.977 -2.4301  0.9556  0.1402
12489TIP3    H258959   0.351   0.565  12.860 -4.8228  2.6091 -0.1496
12490TIP3   OH258960   2.940   6.132   0.896  0.0444 -0.1623  0.0260
12490TIP3    H158961   2.959   6.049   0.940  2.2875 -0.0508 -0.5851
12490TIP3    H258962   2.904   6.106   0.811  0.2633 -0.5090  0.0364
12491TIP3   OH258963   6.793   2.778  16.898  0.1535 -0.3183 -0.1819
12491TIP3    H158964   6.882   2.814  16.901  0.7547 -1.6102 -1.3792
12491TIP3    H258965   6.737   2.853  16.877  0.8268  0.6817  1.4364
12492TIP3   OH258966   1.093   2.046  12.058 -0.0432  0.5131 -0.1202
12492TIP3    H158967   1.009   2.090  12.070 -1.1916 -0.9646 -2.1254
12492TIP3    H258968   1.146   2.106  12.006 -0.3421  0.8858  0.0072
12493TIP3   OH258969   4.411   5.674  11.369 -0.1072 -0.2966  0.3292
12493TIP3    H158970   4.472   5.743  11.346 -2.6807  1.8750 -0.4515
12493TIP3    H258971   4.438   5.599  11.316  3.1711 -0.2387  1.6980
12494TIP3   OH258972   2.068   3.270  14.965  0.6346 -0.5849  0.4381
12494TIP3    H158973   1.980   3.283  15.001  1.0850  0.3927  1.2479
12494TIP3    H258974   2.055   3.211  14.891 -0.9501  0.7557 -0.4457
12495TIP3   OH258975   1.454   5.847  13.236 -0.1373  0.2378  0.0925
12495TIP3    H158976   1.442   5.802  13.319 -0.3633  0.8720  0.4102
12495TIP3    H258977   1.431   5.938  13.254  0.5636  0.5390 -0.4675
12496TIP3   OH258978   5.489   2.901  12.747 -0.4369 -0.0454 -0.4744
12496TIP3    H158979   5.441   2.923  12.826 -1.1296 -1.6971 -0.4021
12496TIP3    H258980   5.492   2.982  12.697 -3.0638  0.2068 -0.3499
12497TIP3   OH258981   6.466   5.771   0.855 -0.3733  0.3608 -0.4866
12497TIP3    H158982   6.430   5.732   0.776 -0.7042  0.2847 -0.2999
12497TIP3    H258983   6.390   5.807   0.901 -0.0707  1.3069 -0.7000
12498TIP3   OH258984   6.836   6.723   5.586  0.0351 -0.0510  0.2964
12498TIP3    H158985   6.742   6.730   5.601 -0.2352 -0.3963 -1.0824
12498TIP3    H258986   6.855   6.630   5.596 -0.0931 -0.2383 -1.0375
12499TIP3   OH258987   1.742   2.627   4.530 -0.1737  0.2056 -0.3579
12499TIP3    H158988   1.836   2.620   4.515 -0.1330 -0.0417 -0.0010
12499TIP3    H258989   1.703   2.564   4.469 -0.1985  1.2893 -1.4730
12500TIP3   OH258990   4.646   4.493  15.353 -0.1250 -0.1326 -0.2287
12500TIP3    H158991   4.615   4.403  15.351  2.1759 -1.0104 -0.2247
12500TIP3    H258992   4.742   4.485  15.354  0.1477  2.2915  0.8708
12501TIP3   OH258993   1.813   6.801   4.028  0.3119 -0.4110  0.2340
12501TIP3    H158994   1.744   6.736   4.013  0.4982 -0.6058  0.2137
12501TIP3    H258995   1.790   6.875   3.972  1.4737 -1.4693 -1.7280
12502TIP3   OH258996   6.232   1.065  11.977  0.8007  0.3060 -0.3602
12502TIP3    H158997   6.308   1.122  11.962  2.0261 -0.7357  1.4149
12502TIP3    H258998   6.242   0.995  11.913  0.4394  0.9875 -1.1777
12503TIP3   OH258999   1.318   2.512   1.484 -0.1678  0.3078  0.4078
12503TIP3    H159000   1.270   2.495   1.565  0.4045 -0.8786  0.5214
12503TIP3    H259001   1.256   2.494   1.414 -0.2072 -0.1740  0.5650
12504TIP3   OH259002   5.204   0.813  12.340 -0.4978 -0.3374 -0.3365
12504TIP3    H159003   5.204   0.825  12.435  0.0638 -0.3218 -0.3381
12504TIP3    H259004   5.270   0.746  12.325  0.5384  0.7681 -0.8551
12505TIP3   OH259005   1.654   2.148  13.864 -0.1072  0.3297  0.0584
12505TIP3    H159006   1.669   2.211  13.935 -1.9628  0.1835  0.6373
12505TIP3    H259007   1.700   2.069  13.892  0.8678  0.9055  0.1169
12506TIP3   OH259008   0.852   3.963   4.501  0.3144  0.2398  0.5371
12506TIP3    H159009   0.875   3.881   4.457 -3.1734 -0.8760  0.5413
12506TIP3    H259010   0.818   4.019   4.432  0.1691  0.6754  0.9588
12507TIP3   OH259011   3.167   3.300   1.619 -0.0443 -0.1257  0.3443
12507TIP3    H159012   3.123   3.291   1.535 -0.5874  1.1251  0.4719
12507TIP3    H259013   3.261   3.298   1.598 -0.1729 -0.3331 -0.2188
12508TIP3   OH259014   3.748   5.265  14.463 -0.4699 -0.0922 -0.0654
12508TIP3    H159015   3.802   5.204  14.412  2.5209  0.3083  2.2939
12508TIP3    H259016   3.811   5.315  14.515 -3.0695  2.0200  1.3202
12509TIP3   OH259017   4.054   0.106   2.085 -0.1768  0.6663  0.1531
12509TIP3    H159018   3.973   0.085   2.129 -0.6546  0.5529 -0.7465
12509TIP3    H259019   4.070   0.198   2.105  0.2803  0.2951  1.5652
12510TIP3   OH259020   0.119   4.052   2.630  0.2221  0.7141  0.1232
12510TIP3    H159021   0.196   4.003   2.659  0.2739  0.6369 -0.1375
12510TIP3    H259022   0.108   4.121   2.695  0.5204  0.7330  0.1556
12511TIP3   OH259023   0.706   5.114   5.254  0.8225  0.1160  0.2928
12511TIP3    H159024   0.716   5.088   5.346  0.6175 -0.2937  0.2024
12511TIP3    H259025   0.613   5.135   5.246  0.4240 -1.6646 -0.2696
12512TIP3   OH259026   0.612   3.772   1.532 -0.2555 -0.2512  0.0329
12512TIP3    H159027   0.646   3.861   1.519 -1.5201  0.3000  0.3865
12512TIP3    H259028   0.562   3.776   1.613  1.0272 -1.7247  0.9714
12513TIP3   OH259029   0.647   6.149  16.534  0.0372 -0.2332 -0.0268
12513TIP3    H159030   0.676   6.064  16.568 -0.6676  0.0803  1.4153
12513TIP3    H259031   0.696   6.213  16.586  0.4581  0.2607 -1.0105
12514TIP3   OH259032   2.065   1.428   4.729 -0.5366 -0.6436  0.0548
12514TIP3    H159033   2.159   1.410   4.727 -0.7017 -1.5415 -1.7430
12514TIP3    H259034   2.040   1.418   4.821  1.3463  1.0136  0.8193
12515TIP3   OH259035   4.370   5.374   2.145  0.3379  0.2738 -0.1101
12515TIP3    H159036   4.356   5.464   2.116 -1.1305 -0.1882 -0.9776
12515TIP3    H259037   4.429   5.336   2.080  0.6798  0.5021  0.0635
12516TIP3   OH259038   6.291   5.998  16.360  0.1448 -0.3014  0.0744
12516TIP3    H159039   6.269   5.906  16.375 -0.5614 -0.3375 -1.0399
12516TIP3    H259040   6.328   5.999  16.271 -0.3885  0.5602 -0.1470
12517TIP3   OH259041   4.570   2.456  10.527  0.2349 -0.0945 -0.1335
12517TIP3    H159042   4.544   2.438  10.436  2.8623 -0.2364 -0.9685
12517TIP3    H259043   4.655   2.412  10.536 -0.1914 -0.5245  2.6048
12518TIP3   OH259044   4.181   5.703   1.303 -0.5862 -0.2655 -0.6195
12518TIP3    H159045   4.130   5.671   1.230  0.4856  1.3739 -2.1797
12518TIP3    H259046   4.195   5.796   1.284  1.6546 -0.3027  0.4889
12519TIP3   OH259047   1.303   3.222   5.850 -0.2143  0.2706 -0.1131
12519TIP3    H159048   1.381   3.167   5.846 -0.9468 -0.9145  0.9958
12519TIP3    H259049   1.232   3.161   5.872 -1.2678  1.4812 -0.0539
12520TIP3   OH259050   0.564   3.420   5.965  0.0540 -0.5520 -0.6294
12520TIP3    H159051   0.608   3.464   6.038  0.5325 -0.5075 -0.9379
12520TIP3    H259052   0.474   3.406   5.995  0.8765 -2.9456  1.0668
12521TIP3   OH259053   0.909   1.644   2.038 -0.1315 -0.3033  0.2942
12521TIP3    H159054   0.842   1.582   2.011 -1.4412  1.6906 -1.2621
12521TIP3    H259055   0.864   1.707   2.093  1.1649 -0.5942  1.7889
12522TIP3   OH259056   5.463   2.506  16.183  0.3405  0.3401 -0.6448
12522TIP3    H159057   5.534   2.543  16.235 -2.5103  2.3717  2.1828
12522TIP3    H259058   5.436   2.576  16.124 -1.9083  1.3094  1.3268
12523TIP3   OH259059   3.589   4.754   4.041 -0.3622 -0.0090 -0.5705
12523TIP3    H159060   3.565   4.663   4.027  0.2753 -0.3561  0.4627
12523TIP3    H259061   3.506   4.802   4.039 -0.6261 -0.4751 -1.9300
12524TIP3   OH259062   4.383   4.603  11.969  0.0595  0.2283  0.1958
12524TIP3    H159063   4.445   4.595  11.897 -0.4925  1.9263 -0.5122
12524TIP3    H259064   4.328   4.678  11.946 -0.7744  0.2030  1.9087
12525TIP3   OH259065   3.023   2.573  11.962 -0.1734 -0.2502  0.3024
12525TIP3    H159066   2.952   2.616  12.009 -0.8553 -0.1754 -0.7792
12525TIP3    H259067   3.016   2.480  11.986 -2.5683 -0.8001 -2.1018
12526TIP3   OH259068   1.323   5.568   1.509  0.1088 -0.1999 -0.1483
12526TIP3    H159069   1.348   5.514   1.584  1.0025 -0.5229 -0.6546
12526TIP3    H259070   1.270   5.638   1.547 -1.3189 -1.5602  0.4794
12527TIP3   OH259071   0.337   4.261  14.077 -0.1219  0.4419 -0.9604
12527TIP3    H159072   0.425   4.296  14.065 -0.5247  1.9210  0.0223
12527TIP3    H259073   0.287   4.296  14.003 -0.6717  2.6518  0.3378
12528TIP3   OH259074   3.824   1.002  15.477 -0.0987 -0.3053 -0.1939
12528TIP3    H159075   3.793   0.912  15.488 -1.1631 -0.0988 -1.3257
12528TIP3    H259076   3.747   1.056  15.497  0.0009  0.2771 -1.3086
12529TIP3   OH259077   5.533   3.572  11.822 -0.3949 -0.2533  0.3393
12529TIP3    H159078   5.606   3.536  11.771 -0.3698  0.1697  0.0684
12529TIP3    H259079   5.516   3.657  11.782 -0.3557  0.1018  1.0567
12530TIP3   OH259080   4.393   2.800   3.674  0.0119 -0.1670  0.3223
12530TIP3    H159081   4.411   2.806   3.581 -0.3888  1.6834  0.3367
12530TIP3    H259082   4.451   2.864   3.715  0.3465 -1.1054  1.3962
12531TIP3   OH259083   5.500   3.913  14.200 -0.5966 -0.1667 -0.1764
12531TIP3    H159084   5.493   4.006  14.179 -1.8509 -0.0809  0.5252
12531TIP3    H259085   5.414   3.890  14.236 -0.0635 -1.4133  0.3552
12532TIP3   OH259086   0.189   5.346   1.523 -0.1908  0.4302  0.2355
12532TIP3    H159087   0.105   5.301   1.511  0.5498 -2.3861  3.6688
12532TIP3    H259088   0.201   5.346   1.618  3.3474  1.3965 -0.0915
12533TIP3   OH259089   4.369   0.560  12.084 -0.1808 -0.0964 -0.4689
12533TIP3    H159090   4.343   0.514  12.004 -0.2214  0.1711 -0.6120
12533TIP3    H259091   4.357   0.496  12.154 -1.2767  0.0256 -0.5202
12534TIP3   OH259092   5.666   2.788   0.385  0.1570 -0.1919 -0.4447
12534TIP3    H159093   5.706   2.776   0.471 -1.1809 -0.4328  0.1760
12534TIP3    H259094   5.669   2.702   0.344 -1.5551 -0.7237  0.4535
12535TIP3   OH259095   6.688   3.751   2.894 -0.5002 -0.0847  0.3741
12535TIP3    H159096   6.734   3.688   2.838 -0.8831 -0.7114  0.7431
12535TIP3    H259097   6.596   3.744   2.867 -0.8076 -0.9110  1.5137
12536TIP3   OH259098   2.428   5.321   3.024 -0.6684 -0.3243 -0.0490
12536TIP3    H159099   2.506   5.294   2.976 -0.5480 -0.1424  0.0449
12536TIP3    H259100   2.396   5.240   3.065  1.3803  0.0967  2.7276
12537TIP3   OH259101   2.696   5.604  11.224  0.3140  0.0373  0.3004
12537TIP3    H159102   2.685   5.643  11.137  0.4627 -2.3105 -0.8524
12537TIP3    H259103   2.615   5.555  11.239  1.0594 -1.1572  0.5922
12538TIP3   OH259104   1.015   0.010   1.173  0.1059  0.5303  0.7607
12538TIP3    H159105   0.968   0.008   1.256 -3.4809  0.4145 -1.0453
12538TIP3    H259106   1.055  -0.077   1.166 -2.4410 -0.7890  1.0020
12539TIP3   OH259107   4.240   3.073   0.789 -0.2245 -0.2397  0.4790
12539TIP3    H159108   4.219   3.012   0.718 -2.8773  0.9954  0.0671
12539TIP3    H259109   4.187   3.044   0.863  1.3634 -0.6072  1.5266
12540TIP3   OH259110   2.700   2.314  13.903 -0.4378 -0.4744  0.1364
12540TIP3    H159111   2.605   2.318  13.909 -0.5116 -1.4547 -0.2737
12540TIP3    H259112   2.719   2.332  13.811 -0.0279  2.4661  0.6820
12541TIP3   OH259113   2.825   3.451   4.689  0.3165 -0.9534 -0.2483
12541TIP3    H159114   2.740   3.474   4.726 -2.1416 -4.6417 -2.8890
12541TIP3    H259115   2.854   3.375   4.741  1.2570 -0.6896 -0.3660
12542TIP3   OH259116   2.022   3.445  15.287  0.4782  0.1943 -0.7849
12542TIP3    H159117   1.946   3.499  15.263  0.4757  0.2947 -0.5471
12542TIP3    H259118   2.091   3.508  15.307  0.6008  0.1035 -0.9191
12543TIP3   OH259119   0.366   0.520   5.221 -0.1521  0.1112  0.0059
12543TIP3    H159120   0.416   0.596   5.250 -0.6143  0.6533 -0.5808
12543TIP3    H259121   0.285   0.524   5.271 -0.8239  0.8808 -1.0933
12544TIP3   OH259122   1.756   2.378   2.784  0.0711 -0.8305 -0.0228
12544TIP3    H159123   1.782   2.330   2.705  0.0792 -1.7924  0.5440
12544TIP3    H259124   1.783   2.468   2.767  1.9098 -1.3821 -0.3242
12545TIP3   OH259125   5.328   3.694   5.628  0.3258  0.1743 -0.1561
12545TIP3    H159126   5.311   3.630   5.697  0.5569 -0.3079 -0.5393
12545TIP3    H259127   5.387   3.649   5.567 -0.6476  0.2354 -1.1866
12546TIP3   OH259128   1.364   2.237   3.162  0.2556  0.3989  0.2214
12546TIP3    H159129   1.340   2.284   3.243  0.9135  0.6895  0.2565
12546TIP3    H259130   1.436   2.179   3.189 -0.2561 -0.3149  0.0772
12547TIP3   OH259131   2.743   6.556  16.856  0.6362  0.0897  0.8144
12547TIP3    H159132   2.705   6.469  16.844  0.2462  0.2217  1.0745
12547TIP3    H259133   2.679   6.603  16.909 -0.0050  1.1079 -0.7975
12548TIP3   OH259134   5.052   4.937  14.279  0.5397  0.1956 -0.3418
12548TIP3    H159135   5.113   4.956  14.207 -1.0369  2.1840 -1.2781
12548TIP3    H259136   4.979   4.892  14.237  0.3867 -0.2252  0.3641
12549TIP3   OH259137   0.427   6.703   5.205  0.0967  0.4610 -0.5038
12549TIP3    H159138   0.363   6.683   5.273 -0.0506 -1.6777 -1.1939
12549TIP3    H259139   0.418   6.797   5.191 -1.1836  0.6315  1.0893
12550TIP3   OH259140   5.959   3.828  15.850  0.3799 -0.4526  0.2832
12550TIP3    H159141   6.017   3.859  15.919  1.5462  1.7195 -1.5424
12550TIP3    H259142   5.872   3.855  15.878  0.5050 -1.6087  1.9176
12551TIP3   OH259143   3.929   3.758  14.066  0.2465 -0.0289  0.4802
12551TIP3    H159144   3.953   3.674  14.106 -0.3727 -1.7267 -2.4664
12551TIP3    H259145   4.000   3.776  14.005 -0.5029  0.6760 -0.1970
12552TIP3   OH259146   6.441   2.933   1.381 -0.2238 -0.0855 -0.5803
12552TIP3    H159147   6.380   2.978   1.323 -0.5162 -0.6665 -0.7248
12552TIP3    H259148   6.495   2.880   1.323  0.9316  0.9991 -0.5314
12553TIP3   OH259149   0.580   0.208   2.740  0.0794 -0.0070  0.2473
12553TIP3    H159150   0.565   0.155   2.662 -2.1819  1.0262 -0.0818
12553TIP3    H259151   0.626   0.149   2.800  1.2664 -1.0323 -1.5709
12554TIP3   OH259152   3.939   5.607  14.669  0.6542  0.3178 -0.1135
12554TIP3    H159153   3.923   5.699  14.692  0.1669  0.6695 -1.7105
12554TIP3    H259154   3.852   5.573  14.646  0.7569 -0.7009  0.9428
12555TIP3   OH259155   0.321   2.201   3.196  0.0789  0.4232 -0.2038
12555TIP3    H159156   0.322   2.274   3.135 -0.2413  0.4395 -0.1902
12555TIP3    H259157   0.277   2.130   3.147 -1.6483  0.9153  0.5475
12556TIP3   OH259158   6.071   1.930   4.212 -0.0656  0.1572 -0.5959
12556TIP3    H159159   6.158   1.901   4.241 -0.3672  0.3408  0.5486
12556TIP3    H259160   6.085   1.962   4.123  1.2829  1.2803 -0.0222
12557TIP3   OH259161   0.666   1.511   2.296 -0.3089 -0.2952  0.4397
12557TIP3    H159162   0.583   1.473   2.324  0.2650 -1.3407  0.7999
12557TIP3    H259163   0.697   1.453   2.226 -0.7169  1.1047 -0.9539
12558TIP3   OH259164   3.880   6.144  16.390  0.2395  0.7141  0.4425
12558TIP3    H159165   3.916   6.131  16.302  1.0246 -1.8389  1.0568
12558TIP3    H259166   3.948   6.193  16.437  0.9804 -0.1878  0.3335
12559TIP3   OH259167   1.561   3.360   2.154  0.0541  0.2826  0.5081
12559TIP3    H159168   1.478   3.392   2.190  0.2830  1.9526 -0.3312
12559TIP3    H259169   1.580   3.281   2.204 -1.5002  0.4629  1.4574
12560TIP3   OH259170   5.971   6.614  16.786  0.0787  0.0792  0.9910
12560TIP3    H159171   6.053   6.615  16.737 -0.2702  0.5361  0.4008
12560TIP3    H259172   5.982   6.543  16.849  0.9956  0.2465  1.0420
12561TIP3   OH259173   5.649   0.384   1.851 -0.1503 -0.6507  0.0899
12561TIP3    H159174   5.706   0.316   1.887 -0.0086 -0.1026  0.8953
12561TIP3    H259175   5.606   0.424   1.927  0.7625  1.0647 -0.2490
12562TIP3   OH259176   0.262   4.597   0.163 -0.0363  1.0422 -0.4708
12562TIP3    H159177   0.193   4.535   0.186  0.9228  0.2064  0.2577
12562TIP3    H259178   0.342   4.544   0.161  1.0156  2.4446  1.3848
12563TIP3   OH259179   4.439   3.414   0.056 -0.0115 -0.0432  0.0157
12563TIP3    H159180   4.414   3.494   0.101 -2.1688  0.5895 -2.1067
12563TIP3    H259181   4.528   3.396   0.087 -0.3913  1.7144  2.4540
12564TIP3   OH259182   1.296   3.127  14.948 -0.1578  0.0147 -0.5566
12564TIP3    H159183   1.320   3.203  15.000  1.3030 -0.0133 -1.1609
12564TIP3    H259184   1.200   3.124  14.954 -0.1898  1.4297  0.1036
12565TIP3   OH259185   5.550   5.988  12.890 -0.9328  0.7794 -0.2222
12565TIP3    H159186   5.545   5.968  12.983 -0.4930  0.1154 -0.3379
12565TIP3    H259187   5.513   6.077  12.883 -3.2356 -0.0730  0.2484
12566TIP3   OH259188   4.585   4.364   1.641  0.1389 -0.2032 -0.5085
12566TIP3    H159189   4.653   4.312   1.597 -0.1715 -0.3959 -0.7594
12566TIP3    H259190   4.578   4.443   1.589  0.3315 -0.0838 -0.3529
12567TIP3   OH259191   5.275   6.004   2.692  0.0975 -0.1855 -0.1830
12567TIP3    H159192   5.353   5.966   2.650  0.1677 -0.0719 -0.1570
12567TIP3    H259193   5.306   6.086   2.729  0.5191 -1.1591  1.7817
12568TIP3   OH259194   1.010   5.372  11.149 -0.2885 -0.1187 -0.6183
12568TIP3    H159195   1.032   5.412  11.065  2.2828  1.2879  0.6075
12568TIP3    H259196   1.069   5.297  11.157 -0.3861 -0.1405  0.0065
12569TIP3   OH259197   3.216   2.954  15.581  0.5289 -0.2702 -0.4319
12569TIP3    H159198   3.267   2.965  15.501  3.6242 -0.4883  1.3652
12569TIP3    H259199   3.183   3.041  15.601 -1.6687 -0.4826 -2.6758
12570TIP3   OH259200   1.720   6.709  10.357 -0.0595  0.3438  0.2190
12570TIP3    H159201   1.801   6.736  10.401  0.7986  1.2314 -1.7824
12570TIP3    H259202   1.660   6.783  10.369  0.4243  0.8965 -0.6604
12571TIP3   OH259203   4.395   0.983   1.772 -0.2770  0.3539  0.0661
12571TIP3    H159204   4.415   0.988   1.678 -0.7716  1.6092  0.0042
12571TIP3    H259205   4.419   0.894   1.797  2.1450  0.7212 -0.7278
12572TIP3   OH259206   6.243   5.567  17.038 -0.0622  0.5968 -0.5550
12572TIP3    H159207   6.288   5.608  17.112  0.9308  1.2587 -1.4775
12572TIP3    H259208   6.295   5.489  17.018  0.8597  1.4897 -1.7739
12573TIP3   OH259209   6.258   3.165  12.228 -0.2763  0.1599 -0.2394
12573TIP3    H159210   6.226   3.150  12.317 -0.4066 -0.3026 -0.3623
12573TIP3    H259211   6.325   3.233  12.238 -1.4480  1.3389 -0.0093
12574TIP3   OH259212   3.605   6.500   0.053 -0.5522  0.1300 -0.1425
12574TIP3    H159213   3.541   6.458  -0.005 -0.4089  0.4468 -0.5359
12574TIP3    H259214   3.552   6.531   0.127 -0.7762 -0.0639 -0.2191
12575TIP3   OH259215   2.122   6.393   0.463 -0.0192 -0.0590 -0.4208
12575TIP3    H159216   2.186   6.359   0.400  1.3608  0.4051  0.6776
12575TIP3    H259217   2.045   6.412   0.410  0.0108 -2.4659 -1.4958
12576TIP3   OH259218   5.408   0.360  11.585 -0.0349  0.1488  0.0884
12576TIP3    H159219   5.377   0.429  11.526  1.4259  2.6304  2.0462
12576TIP3    H259220   5.410   0.401  11.671  2.7727 -1.7089  1.0341
12577TIP3   OH259221   6.189   5.762   3.242 -0.0318  0.4446 -0.2137
12577TIP3    H159222   6.137   5.682   3.229  1.6682 -0.8915  0.7704
12577TIP3    H259223   6.179   5.811   3.161 -1.6599 -0.4345 -0.5868
12578TIP3   OH259224   5.556   0.983   5.089 -0.2784 -0.1597  0.2749
12578TIP3    H159225   5.543   0.895   5.053  0.2962 -0.8600  1.7076
12578TIP3    H259226   5.542   0.973   5.183 -2.5987  1.7653  0.2623
12579TIP3   OH259227   4.842   1.744   5.848 -0.2961 -0.1248  0.2886
12579TIP3    H159228   4.888   1.664   5.821  0.9189 -0.1761  2.3488
12579TIP3    H259229   4.880   1.766   5.933 -2.6094  1.0763  1.0755
12580TIP3   OH259230   6.752   4.412   0.038  1.1127  0.0721 -0.6470
12580TIP3    H159231   6.820   4.425   0.103  1.2249  0.0080 -0.7509
12580TIP3    H259232   6.681   4.471   0.064  0.5597 -0.9841  0.3494
12581TIP3   OH259233   0.822   1.737   4.422 -0.2456  0.3159 -0.1479
12581TIP3    H159234   0.911   1.768   4.406  0.7260 -1.2303  1.7728
12581TIP3    H259235   0.773   1.815   4.446  0.8864  1.0464 -0.1506
12582TIP3   OH259236   2.765   6.100  13.044  1.0689 -0.0646 -0.4132
12582TIP3    H159237   2.798   6.104  13.133  0.2253 -0.1903 -0.0844
12582TIP3    H259238   2.807   6.174  12.999  0.1866  1.0636  0.5517
12583TIP3   OH259239   3.522   2.876   6.023 -0.5591 -0.0659 -0.0870
12583TIP3    H159240   3.602   2.830   6.046 -1.6729 -1.7241  0.6520
12583TIP3    H259241   3.493   2.916   6.105 -1.3813 -0.9427  0.0663
12584TIP3   OH259242   5.905   0.469   3.896  0.3237  0.3794  0.5312
12584TIP3    H159243   5.886   0.442   3.986 -1.2279  0.8416  0.3781
12584TIP3    H259244   5.826   0.516   3.868  0.5317 -0.2654 -1.2775
12585TIP3   OH259245   1.488   5.406   5.113  0.3671 -0.0740 -0.0984
12585TIP3    H159246   1.444   5.365   5.188  1.6851 -1.7518 -0.1751
12585TIP3    H259247   1.559   5.456   5.151 -0.1657  0.7163 -0.1235
12586TIP3   OH259248   4.350   1.192   2.277 -0.3813  0.3779  0.3495
12586TIP3    H159249   4.328   1.117   2.331 -0.0834 -1.8789 -2.4196
12586TIP3    H259250   4.273   1.249   2.281 -1.7283 -1.3780  0.4850
12587TIP3   OH259251   3.141   2.970   3.152 -0.5772 -0.5344 -0.3042
12587TIP3    H159252   3.228   2.931   3.161 -0.6792 -0.4523  1.3846
12587TIP3    H259253   3.158   3.059   3.121 -0.1917 -1.0627 -1.6888
12588TIP3   OH259254   0.854   6.005  14.807 -0.3547 -0.7579 -0.0421
12588TIP3    H159255   0.942   6.041  14.800 -1.2629  1.3498 -1.7096
12588TIP3    H259256   0.867   5.910  14.810  1.9952 -0.4731  1.3152
12589TIP3   OH259257   5.863   2.173  12.023 -0.3446  0.5552 -0.5814
12589TIP3    H159258   5.791   2.234  12.034 -1.1414 -0.2955 -0.8816
12589TIP3    H259259   5.901   2.164  12.110 -1.5273 -0.0658 -0.0960
12590TIP3   OH259260   5.094   6.225  12.693 -0.2736 -0.0672 -0.4965
12590TIP3    H159261   5.183   6.207  12.665 -0.6920 -0.7311 -1.4664
12590TIP3    H259262   5.079   6.316  12.667  0.3394  0.2741  0.3084
12591TIP3   OH259263   1.114   2.022  11.597 -0.0716  0.3732 -0.0834
12591TIP3    H159264   1.156   1.936  11.589  0.7500  0.8215 -0.7638
12591TIP3    H259265   1.135   2.050  11.686 -0.4990 -0.1997  0.2094
12592TIP3   OH259266   0.518   5.866   6.619  0.5172  0.1903 -0.1331
12592TIP3    H159267   0.577   5.826   6.683 -1.0086 -1.3417  0.3704
12592TIP3    H259268   0.432   5.865   6.661  0.0836  2.3555 -0.8619
12593TIP3   OH259269   5.098   2.582   6.108  0.0656  0.1499  0.9283
12593TIP3    H159270   5.146   2.499   6.117  0.6432  0.2603 -0.7745
12593TIP3    H259271   5.007   2.559   6.125 -0.1623 -1.3818 -1.7179
12594TIP3   OH259272   1.126   6.440  12.019  0.5076 -0.0226  0.4009
12594TIP3    H159273   1.120   6.488  12.101 -0.4922 -0.6200  0.6942
12594TIP3    H259274   1.087   6.498  11.954  0.9916  0.3111  0.4043
12595TIP3   OH259275   3.748   1.485  12.669 -0.1443 -0.1414  0.4585
12595TIP3    H159276   3.756   1.437  12.586 -2.8413  1.3636 -0.8031
12595TIP3    H259277   3.762   1.418  12.736 -0.8895 -2.1073 -1.2159
12596TIP3   OH259278   4.883   1.051   4.977 -0.8183  0.4119  0.0579
12596TIP3    H159279   4.856   0.959   4.983 -0.0677  0.2400  1.1861
12596TIP3    H259280   4.865   1.087   5.064 -2.2267  1.6775 -0.7093
12597TIP3   OH259281   3.014   0.582   4.459  0.4355  0.1169  0.1179
12597TIP3    H159282   3.001   0.490   4.481  0.5370  0.2459  0.7450
12597TIP3    H259283   3.082   0.582   4.391  0.0367 -0.3011 -0.2892
12598TIP3   OH259284   3.333   1.190  14.822  0.6213  0.2442 -0.1378
12598TIP3    H159285   3.260   1.233  14.777  0.3932 -0.2094 -0.2140
12598TIP3    H259286   3.397   1.173  14.753 -0.3410 -1.7597 -0.6092
12599TIP3   OH259287   2.327   6.649   2.357 -0.1504 -0.0101 -0.4672
12599TIP3    H159288   2.264   6.617   2.422  0.7559 -2.7835 -0.8314
12599TIP3    H259289   2.274   6.667   2.280 -0.7888 -0.0428 -0.0470
12600TIP3   OH259290   3.696   4.129  15.177 -0.3884 -0.5132 -0.1123
12600TIP3    H159291   3.721   4.221  15.189 -0.0523 -0.4370 -1.3131
12600TIP3    H259292   3.600   4.131  15.179 -0.3915 -0.4156  1.6777
12601TIP3   OH259293   6.055   3.432  12.047  0.1270  0.3280 -0.2927
12601TIP3    H159294   6.073   3.360  11.987  1.6490  0.3110  0.1458
12601TIP3    H259295   6.102   3.507  12.011  0.4489  0.5103  0.4740
12602TIP3   OH259296   4.527   4.044   4.251 -0.2723 -0.3360 -0.5095
12602TIP3    H159297   4.460   4.002   4.305 -0.6578 -0.9403 -1.4463
12602TIP3    H259298   4.600   3.983   4.252 -0.4474 -0.5555 -1.0328
12603TIP3   OH259299   2.581   0.836  15.671  0.3925 -0.2429 -0.8538
12603TIP3    H159300   2.623   0.782  15.738 -2.7974 -0.3712  1.2339
12603TIP3    H259301   2.568   0.921  15.713  1.6296  0.9193 -2.6762
12604TIP3   OH259302   0.097   2.528   5.278 -0.0680 -0.1463 -0.6307
12604TIP3    H159303   0.098   2.622   5.292  0.0366 -0.5979  3.7702
12604TIP3    H259304   0.177   2.496   5.320 -1.1608 -2.3630 -0.0812
12605TIP3   OH259305   5.411   5.637  16.542 -0.4383 -0.5371 -0.1234
12605TIP3    H159306   5.324   5.661  16.511  0.9389  1.1825 -3.0117
12605TIP3    H259307   5.422   5.546  16.514 -1.5873 -1.1141  1.1451
12606TIP3   OH259308   5.730   0.889   1.162 -0.3707  0.0344 -0.4574
12606TIP3    H159309   5.680   0.813   1.192  2.7938 -1.7368  0.7610
12606TIP3    H259310   5.721   0.888   1.067  0.0745 -2.2506 -0.5126
12607TIP3   OH259311   1.834   2.004  15.386 -0.0880  0.3747  0.1220
12607TIP3    H159312   1.788   2.058  15.322 -0.1124 -0.3679 -0.5042
12607TIP3    H259313   1.927   2.019  15.368 -0.0869  0.7678  0.4385
12608TIP3   OH259314   0.541   2.120  15.597  0.3570  0.1397  0.0309
12608TIP3    H159315   0.505   2.081  15.517 -0.0389  1.1723 -0.3031
12608TIP3    H259316   0.549   2.046  15.657 -0.8206 -0.3936 -0.4287
12609TIP3   OH259317   4.579   0.666  14.334 -0.0220 -0.2817 -0.3739
12609TIP3    H159318   4.572   0.617  14.252 -1.1364  2.2212 -1.8900
12609TIP3    H259319   4.489   0.690  14.356  0.3640 -0.0576  1.0823
12610TIP3   OH259320   3.638   5.557  12.016  0.4880 -0.2255 -0.1966
12610TIP3    H159321   3.544   5.565  12.036  0.1154  0.1239 -1.9579
12610TIP3    H259322   3.641   5.533  11.923  2.1493 -0.6828 -0.0593
12611TIP3   OH259323   4.143   6.763   1.316 -0.4298 -0.1619  0.1771
12611TIP3    H159324   4.235   6.782   1.298 -0.5659  0.8275  0.4880
12611TIP3    H259325   4.097   6.789   1.236 -0.4538 -0.6278  0.0333
12612TIP3   OH259326   0.756   3.231   2.948 -0.6942 -0.8005 -0.3084
12612TIP3    H159327   0.786   3.149   2.909 -0.8131 -1.1519  0.3287
12612TIP3    H259328   0.782   3.226   3.040  1.3350  0.8712 -0.7014
12613TIP3   OH259329   5.357   6.316  13.471 -0.2032  0.2171 -0.3999
12613TIP3    H159330   5.399   6.302  13.556 -1.9195  0.4591  0.5229
12613TIP3    H259331   5.327   6.406  13.474 -2.5027 -0.4998 -0.2015
12614TIP3   OH259332   6.751   1.079  12.184 -0.2677  0.1578 -0.0484
12614TIP3    H159333   6.778   1.169  12.204  1.5454 -0.3602  0.0255
12614TIP3    H259334   6.772   1.030  12.263  1.5884 -0.8467 -1.0850
12615TIP3   OH259335   4.392   3.512   5.456 -0.0737 -0.3989 -0.0812
12615TIP3    H159336   4.414   3.547   5.542  1.4751  0.3836 -0.7570
12615TIP3    H259337   4.464   3.454   5.435 -0.2364 -0.2738 -1.0188
12616TIP3   OH259338   2.162   3.057   1.892 -0.0630  0.3094  0.3703
12616TIP3    H159339   2.202   3.109   1.823  3.3942 -1.0467  1.1423
12616TIP3    H259340   2.133   2.977   1.848  1.0779 -0.0613  0.2657
12617TIP3   OH259341   0.709   3.682   3.286 -0.1785  0.5096 -0.1459
12617TIP3    H159342   0.775   3.708   3.221  0.2941  0.2586  0.2227
12617TIP3    H259343   0.713   3.751   3.352 -0.8487  0.9047 -0.5144
12618TIP3   OH259344   2.014   3.217  11.351 -0.4380  0.0330  0.2216
12618TIP3    H159345   1.984   3.270  11.277  0.9841 -0.5992 -0.8584
12618TIP3    H259346   1.966   3.252  11.426 -0.6080  1.9056 -0.6813
12619TIP3   OH259347   3.608   4.607   5.498  0.2166 -0.0327  0.0208
12619TIP3    H159348   3.655   4.687   5.522 -0.5464 -0.2283  2.4709
12619TIP3    H259349   3.534   4.638   5.445  1.6431  0.5065 -1.7540
12620TIP3   OH259350   4.421   4.845  11.350 -0.2633 -0.1462  0.1077
12620TIP3    H159351   4.477   4.922  11.352  1.5315 -1.4040  0.8751
12620TIP3    H259352   4.414   4.824  11.257 -0.0794  0.4684 -0.0519
12621TIP3   OH259353   0.590   3.497  13.833 -0.2598 -0.1433 -0.0660
12621TIP3    H159354   0.595   3.508  13.738 -0.4834  0.9550  0.0450
12621TIP3    H259355   0.596   3.402  13.845  2.4029 -0.1836 -1.0094
12622TIP3   OH259356   6.030   3.262  16.250 -0.0907  0.2858  0.3905
12622TIP3    H159357   6.080   3.295  16.325  0.6332  1.9742 -0.7581
12622TIP3    H259358   5.998   3.177  16.278 -0.0579  0.9601  2.6993
12623TIP3   OH259359   0.311   1.002  13.097  0.5593 -0.4673 -0.0303
12623TIP3    H159360   0.257   1.009  13.176  0.7908 -0.8668  0.1645
12623TIP3    H259361   0.279   1.072  13.040  0.4471 -0.1269  0.4481
12624TIP3   OH259362   2.094   0.440   6.046  0.1488 -0.7266  0.2835
12624TIP3    H159363   2.146   0.491   6.108 -0.5573 -0.6254  0.7978
12624TIP3    H259364   2.023   0.403   6.098 -1.3649  0.6381 -0.7325
12625TIP3   OH259365   5.418   6.024  14.055 -0.1476  0.7543 -0.0497
12625TIP3    H159366   5.400   6.055  14.144  1.9704  1.9282  0.0435
12625TIP3    H259367   5.467   6.096  14.014  2.6978 -1.3501 -0.7019
12626TIP3   OH259368   0.858   1.759   1.205  0.0300 -0.2196  0.1995
12626TIP3    H159369   0.917   1.751   1.130 -0.9632 -0.4234 -0.5772
12626TIP3    H259370   0.863   1.851   1.230 -1.4273  0.4092 -1.6389
12627TIP3   OH259371   4.359   0.641   3.783 -0.0387 -0.8489 -0.0956
12627TIP3    H159372   4.382   0.558   3.824 -0.3412 -1.0574 -0.3426
12627TIP3    H259373   4.424   0.703   3.815 -0.1924 -1.0368  0.5900
12628TIP3   OH259374   1.564   2.631  15.449  0.5822  0.0236 -0.3624
12628TIP3    H159375   1.553   2.727  15.449 -0.4026 -0.0821  0.0299
12628TIP3    H259376   1.479   2.597  15.477  0.8850 -0.9783 -0.6279
12629TIP3   OH259377   0.556   6.126   1.447 -0.3244  0.9329 -0.0871
12629TIP3    H159378   0.616   6.167   1.384  0.3500  0.9965  0.5799
12629TIP3    H259379   0.500   6.070   1.393  0.1239  1.1183 -0.7654
12630TIP3   OH259380   3.313   2.068  16.666 -0.4305  0.2539  0.3888
12630TIP3    H159381   3.227   2.058  16.707 -0.5272  1.7544  0.6173
12630TIP3    H259382   3.309   2.153  16.621  1.3783  1.0507  1.6070
12631TIP3   OH259383   1.600   2.052   2.603 -0.2149  0.7780  0.9945
12631TIP3    H159384   1.584   1.962   2.630  4.0552 -0.4137  0.3092
12631TIP3    H259385   1.671   2.046   2.540 -0.4497  4.5998  0.1109
12632TIP3   OH259386   4.170   4.491  11.703  0.1562  0.2857 -0.2087
12632TIP3    H159387   4.185   4.533  11.619 -1.6519 -1.7861 -1.6780
12632TIP3    H259388   4.245   4.434  11.716  0.0835  0.0587 -0.7889
12633TIP3   OH259389   3.011   0.403   0.599 -0.3087  0.3698  0.0911
12633TIP3    H159390   3.090   0.355   0.624 -1.1744 -2.4142 -1.9968
12633TIP3    H259391   2.939   0.350   0.634 -1.3133 -0.1022 -2.4757
12634TIP3   OH259392   2.258   3.894   1.586  0.1582 -0.4037 -0.3536
12634TIP3    H159393   2.207   3.844   1.522  3.0945 -1.4708 -2.1105
12634TIP3    H259394   2.264   3.982   1.549 -0.7270 -0.1544  0.0818
12635TIP3   OH259395   3.612   2.752   3.854 -0.4746 -0.2778 -0.8360
12635TIP3    H159396   3.694   2.741   3.902 -0.4299  1.1851 -0.5453
12635TIP3    H259397   3.602   2.669   3.806  0.6386 -0.8795 -0.0899
12636TIP3   OH259398   1.774   5.905  14.823  0.1297  0.0795 -0.1384
12636TIP3    H159399   1.838   5.834  14.810  1.9601  1.9829 -2.4230
12636TIP3    H259400   1.819   5.967  14.880 -1.6344 -0.6614  2.2117
12637TIP3   OH259401   6.473   5.190  13.349  0.2178  0.5433 -0.7712
12637TIP3    H159402   6.549   5.212  13.294  0.8550  2.5992  0.8349
12637TIP3    H259403   6.411   5.149  13.288  2.7446 -1.7114 -2.0543
12638TIP3   OH259404   3.893   4.093  12.034  0.1157 -0.0173  1.1148
12638TIP3    H159405   3.973   4.084  12.086 -0.0109  1.9072  1.7431
12638TIP3    H259406   3.853   4.174  12.066 -1.1137  0.0576 -0.4760
12639TIP3   OH259407   6.680   2.134  16.579  0.0640 -0.5419  0.0829
12639TIP3    H159408   6.730   2.177  16.648  1.5390 -0.9804 -0.6506
12639TIP3    H259409   6.639   2.205  16.530  1.0279 -0.0595 -0.0511
12640TIP3   OH259410   1.415   6.339  14.972 -0.1471  0.1825  0.7676
12640TIP3    H159411   1.368   6.334  14.889 -0.4644  0.3268  0.9363
12640TIP3    H259412   1.347   6.325  15.038  0.3632 -1.6407  0.9669
12641TIP3   OH259413   2.054   3.043  14.414 -0.4976 -0.3430 -0.0104
12641TIP3    H159414   2.057   3.008  14.325  0.1865 -0.7854  0.1739
12641TIP3    H259415   1.975   3.096  14.417 -1.8562 -2.2780 -0.1622
12642TIP3   OH259416   4.886   6.258  12.274 -0.2854 -0.7500  0.1694
12642TIP3    H159417   4.981   6.249  12.270 -0.1129  0.6013  1.0418
12642TIP3    H259418   4.856   6.173  12.308  0.5208 -1.4531 -0.7935
12643TIP3   OH259419   5.664   3.561  14.676  0.3252  0.1976  0.2058
12643TIP3    H159420   5.638   3.561  14.768 -0.9121 -0.6405 -0.1219
12643TIP3    H259421   5.582   3.553  14.627  0.8785  1.3904 -1.0123
12644TIP3   OH259422   1.104   4.071  11.237  0.3203  0.0357 -0.2152
12644TIP3    H159423   1.039   4.141  11.243 -1.5273 -1.5692 -0.5289
12644TIP3    H259424   1.170   4.094  11.303 -0.9788  1.3117  0.7089
12645TIP3   OH259425   4.327   6.285   4.117  1.0189 -0.2428  0.1885
12645TIP3    H159426   4.287   6.361   4.158  0.0501  0.1148 -1.3195
12645TIP3    H259427   4.350   6.314   4.028 -0.3449 -1.9571 -0.8085
12646TIP3   OH259428   2.971   1.204  13.502  0.1145 -0.2886  0.5053
12646TIP3    H159429   2.952   1.152  13.424 -0.4806 -0.3346  0.6756
12646TIP3    H259430   2.995   1.290  13.469 -1.7478  0.1828  0.3210
12647TIP3   OH259431   3.158   3.146   2.198  0.2920  0.1031 -0.1097
12647TIP3    H159432   3.195   3.101   2.122  0.3448  1.5960 -0.9938
12647TIP3    H259433   3.066   3.159   2.175 -0.1269 -0.9547  0.8370
12648TIP3   OH259434   0.000   6.370   2.576  0.2177 -0.1734  0.4325
12648TIP3    H159435  -0.034   6.287   2.609 -1.0258  1.1552  2.7228
12648TIP3    H259436  -0.006   6.362   2.481  0.6509 -2.8700  0.5371
12649TIP3   OH259437   2.016   2.354   0.203 -0.1205  0.6224 -0.0365
12649TIP3    H159438   2.061   2.415   0.262  1.2501  0.0012 -0.3862
12649TIP3    H259439   2.006   2.403   0.122  0.4285  0.5927 -0.1263
12650TIP3   OH259440   4.426   6.070  14.202 -0.4132 -0.3892 -0.0399
12650TIP3    H159441   4.462   6.155  14.227 -0.5658 -0.2268 -0.3761
12650TIP3    H259442   4.502   6.014  14.189 -0.2851 -1.1413  2.9802
12651TIP3   OH259443   0.408   2.899   4.288  0.1268 -0.2707  0.2138
12651TIP3    H159444   0.345   2.866   4.351  0.2460  0.5042  0.7527
12651TIP3    H259445   0.492   2.897   4.334 -0.1098  2.4085  0.9356
12652TIP3   OH259446   2.002   1.234   3.182  0.1016  0.2490  0.0851
12652TIP3    H159447   1.935   1.173   3.212  1.0691 -1.2145 -0.6331
12652TIP3    H259448   1.983   1.247   3.089 -1.1075  2.4494  0.5476
12653TIP3   OH259449   1.612   3.018   2.058  0.1945  0.2881 -0.1283
12653TIP3    H159450   1.638   3.099   2.013 -0.1953 -0.5623 -1.9728
12653TIP3    H259451   1.675   2.953   2.029  0.7563 -0.0298  1.6679
12654TIP3   OH259452   5.782   4.037  16.980  0.6612  0.2834 -0.1465
12654TIP3    H159453   5.783   4.049  16.885  0.1531  0.1011 -0.1796
12654TIP3    H259454   5.842   4.103  17.013  0.1494  0.9535 -0.5290
12655TIP3   OH259455   2.294   5.497  14.758 -0.3368 -0.2702 -0.3811
12655TIP3    H159456   2.370   5.449  14.790  0.4463  0.7245 -0.6845
12655TIP3    H259457   2.305   5.497  14.662 -1.3261 -1.0849 -0.5103
12656TIP3   OH259458   4.099   3.265   2.560 -0.0056 -0.4003  0.4444
12656TIP3    H159459   4.179   3.216   2.541 -0.0396  0.1548 -1.3278
12656TIP3    H259460   4.118   3.354   2.530 -1.3134 -0.2817 -0.0867
12657TIP3   OH259461   0.233   0.277  16.913  0.3795  0.0139 -0.3033
12657TIP3    H159462   0.181   0.340  16.862 -0.3156  0.0632  0.4593
12657TIP3    H259463   0.169   0.216  16.949  0.9745 -0.6474 -0.3546
12658TIP3   OH259464   4.005   2.719   4.266 -0.5810  0.4024 -0.1816
12658TIP3    H159465   4.091   2.712   4.224 -1.1413  1.2477 -1.5486
12658TIP3    H259466   3.989   2.632   4.302  0.9499  0.2996  0.3450
12659TIP3   OH259467   3.240   1.467   6.604  0.3902 -0.2907 -0.3761
12659TIP3    H159468   3.254   1.399   6.670 -0.9458 -0.3596 -0.1481
12659TIP3    H259469   3.329   1.492   6.577  0.9189 -1.6487  0.0085
12660TIP3   OH259470   2.067   0.294   0.548 -0.7650 -0.1943  0.1351
12660TIP3    H159471   2.136   0.270   0.486  0.1663 -0.1848  1.1404
12660TIP3    H259472   1.989   0.304   0.493 -0.5578 -2.5684 -0.7559
12661TIP3   OH259473   2.269   6.111   4.445 -0.0521  0.0378  0.2213
12661TIP3    H159474   2.197   6.047   4.439  0.7757 -0.8863 -0.1809
12661TIP3    H259475   2.253   6.172   4.373  0.9171 -1.6270 -1.4962
12662TIP3   OH259476   3.904   3.042   4.877  0.0490  0.0734 -0.3566
12662TIP3    H159477   3.818   3.035   4.919 -0.5809  0.5464 -1.5125
12662TIP3    H259478   3.966   3.013   4.944 -1.1299 -1.8680 -0.0200
12663TIP3   OH259479   4.139   5.613   0.981  0.3335 -0.7191  0.2063
12663TIP3    H159480   4.072   5.607   1.049  0.4780 -1.1335  0.3167
12663TIP3    H259481   4.192   5.534   0.993  0.2552 -0.8850 -0.4921
12664TIP3   OH259482   4.508   1.745   5.560  0.3466 -0.0890  0.0938
12664TIP3    H159483   4.440   1.728   5.495  0.3757 -0.7409  0.2315
12664TIP3    H259484   4.589   1.749   5.509  0.5222 -1.6818  0.1884
12665TIP3   OH259485   6.433   1.986   4.624  0.2083 -0.6391  0.0848
12665TIP3    H159486   6.372   1.975   4.697  1.1483 -0.9180  0.8381
12665TIP3    H259487   6.481   1.904   4.620  2.7752  0.6417  1.6105
12666TIP3   OH259488   4.483   6.256   5.370  0.2374 -1.1355 -0.3396
12666TIP3    H159489   4.500   6.163   5.387  0.1077 -1.0889  0.0394
12666TIP3    H259490   4.457   6.258   5.278  2.2934 -1.2045 -0.9761
12667TIP3   OH259491   0.309   5.501  16.869 -0.3344 -0.6307 -0.1390
12667TIP3    H159492   0.289   5.594  16.881  0.7013 -0.4435  0.2318
12667TIP3    H259493   0.234   5.455  16.907 -0.0640  0.0465  1.3003
12668TIP3   OH259494   6.478   1.872  16.341  0.0539  0.6416 -0.6819
12668TIP3    H159495   6.408   1.806  16.338  1.2226 -0.6620 -0.0433
12668TIP3    H259496   6.556   1.824  16.366  1.1324  2.1436 -1.0050
12669TIP3   OH259497   6.436   6.700   5.138 -0.6906  0.1127 -0.1308
12669TIP3    H159498   6.404   6.652   5.214 -0.9255  1.1763  0.4632
12669TIP3    H259499   6.409   6.790   5.154  0.4699  0.6036 -0.8028
12670TIP3   OH259500   4.372   4.957   1.886  0.0182 -0.0927 -0.1830
12670TIP3    H159501   4.443   4.965   1.823 -1.2763 -0.6829 -1.7953
12670TIP3    H259502   4.415   4.931   1.968  1.6880  0.1279 -0.9589
12671TIP3   OH259503   0.045   1.083  10.942 -0.0016 -0.2793  0.2219
12671TIP3    H159504   0.083   1.106  10.857 -0.5215 -0.6291 -0.1081
12671TIP3    H259505  -0.031   1.029  10.921 -0.3779 -0.0239  0.9005
12672TIP3   OH259506   4.043   2.516  15.544  0.0055  0.2036 -0.1764
12672TIP3    H159507   3.948   2.529  15.533 -0.0142  1.5822  1.2954
12672TIP3    H259508   4.082   2.593  15.504  0.6868 -1.3139 -2.6258
12673TIP3   OH259509   3.961   4.413  15.295 -0.1497 -0.1772 -0.9533
12673TIP3    H159510   4.020   4.486  15.279 -2.1283  1.6132 -0.6319
12673TIP3    H259511   3.896   4.418  15.225 -2.4427  0.7790  1.0912
12674TIP3   OH259512   4.997   4.414  12.417  0.4544  0.4515 -0.1739
12674TIP3    H159513   5.068   4.381  12.361  0.9914  0.4343  0.5018
12674TIP3    H259514   4.921   4.360  12.394  0.8734 -0.0761 -0.3344
12675TIP3   OH259515   3.276   6.231  14.506  0.4249  0.3154 -0.3181
12675TIP3    H159516   3.353   6.176  14.492  0.0650 -0.5118  0.8457
12675TIP3    H259517   3.202   6.171  14.506  0.1246  0.6146  2.0089
12676TIP3   OH259518   6.136   0.817  13.470 -0.3278 -0.9599  0.1491
12676TIP3    H159519   6.064   0.757  13.490  0.9115 -2.0094  1.7090
12676TIP3    H259520   6.104   0.902  13.499 -1.7028 -1.0222 -1.0968
12677TIP3   OH259521   6.067   2.728  14.250 -0.4802  0.5812  0.2017
12677TIP3    H159522   6.031   2.808  14.289  0.6984  1.5382 -0.6073
12677TIP3    H259523   6.141   2.758  14.197  0.2029 -1.0969  0.1503
12678TIP3   OH259524   4.656   0.043   2.831 -0.2062 -0.5590  0.0353
12678TIP3    H159525   4.744   0.031   2.865  0.3233  1.3158 -0.5728
12678TIP3    H259526   4.666   0.042   2.736 -0.3700  2.2446 -0.0845
12679TIP3   OH259527   6.388   1.480  15.375 -0.3550  0.1093 -0.4816
12679TIP3    H159528   6.339   1.559  15.396 -0.1276  0.5728 -1.5902
12679TIP3    H259529   6.384   1.427  15.454  0.3476  1.6682  0.6544
12680TIP3   OH259530   2.192   5.000  12.590 -0.2796 -0.1534 -0.6377
12680TIP3    H159531   2.144   5.022  12.670  0.4531 -0.3720 -0.1259
12680TIP3    H259532   2.166   4.910  12.569  0.0043 -0.3156 -0.2916
12681TIP3   OH259533   6.197   3.348  10.964  0.0375  0.6214 -0.2774
12681TIP3    H159534   6.232   3.274  10.914 -1.5799 -0.6922  0.4264
12681TIP3    H259535   6.103   3.344  10.949 -0.3074  1.2158  1.4805
12682TIP3   OH259536   5.132   4.255   0.921  0.2233  0.0009 -0.1763
12682TIP3    H159537   5.045   4.229   0.891  1.1913 -0.5878 -2.7327
12682TIP3    H259538   5.163   4.181   0.972 -0.2152 -0.4148 -0.5022
12683TIP3   OH259539   6.008   3.684   5.693  0.1126 -0.3398  0.5845
12683TIP3    H159540   5.939   3.699   5.757  0.7005 -0.2466  1.2151
12683TIP3    H259541   5.974   3.721   5.611 -1.0980 -1.4518  0.5647
12684TIP3   OH259542   6.390   4.266   3.325 -0.0349 -0.1125  0.1047
12684TIP3    H159543   6.329   4.216   3.379  0.1068 -0.6559 -0.2328
12684TIP3    H259544   6.424   4.202   3.262 -0.0325  0.4682 -0.4841
12685TIP3   OH259545   5.610   0.675   2.641 -0.2020 -0.4018 -0.5169
12685TIP3    H159546   5.653   0.666   2.726  0.7748 -0.0592 -0.9519
12685TIP3    H259547   5.659   0.745   2.597 -0.1103 -1.1614 -1.6956
12686TIP3   OH259548   4.040   6.034   4.680 -0.0248  0.0281 -0.3198
12686TIP3    H159549   3.968   5.974   4.699  0.3403 -0.2240  0.2825
12686TIP3    H259550   4.099   6.025   4.754  0.7909 -0.0066 -0.9566
12687TIP3   OH259551   0.192   6.562  15.973 -0.6096 -0.1136  0.3912
12687TIP3    H159552   0.256   6.554  16.044 -0.4542  1.7778  0.5075
12687TIP3    H259553   0.114   6.596  16.015 -0.6994  0.4893 -0.2583
12688TIP3   OH259554   2.116   2.338   4.664 -0.6956 -0.0057 -0.2585
12688TIP3    H159555   2.056   2.358   4.735  0.6689  0.2398  0.8731
12688TIP3    H259556   2.195   2.305   4.707 -0.6748 -2.1692 -1.7773
12689TIP3   OH259557   2.790   1.956   1.536  0.3731  0.7556 -0.9367
12689TIP3    H159558   2.882   1.975   1.520  0.1996  0.7127 -2.0738
12689TIP3    H259559   2.760   1.914   1.456  0.0531 -1.8445  0.4585
12690TIP3   OH259560   6.463   5.780  16.619 -0.9804 -0.9725 -0.8663
12690TIP3    H159561   6.456   5.705  16.679 -0.2434 -0.1955  0.2159
12690TIP3    H259562   6.429   5.747  16.536  0.9812 -3.0763 -0.9268
12691TIP3   OH259563   5.475   5.776  15.983 -0.3386 -0.0783  0.0392
12691TIP3    H159564   5.479   5.735  16.070 -0.6282  3.6742  2.0181
12691TIP3    H259565   5.382   5.782  15.963 -0.3268  0.1922  0.0644
12692TIP3   OH259566   1.721   5.601  13.504 -0.1418  0.1650  0.2407
12692TIP3    H159567   1.712   5.696  13.508 -0.9219  0.1365 -0.6391
12692TIP3    H259568   1.746   5.582  13.414 -2.5945 -0.6442 -0.3385
12693TIP3   OH259569   1.931   0.371   6.240  0.2294 -0.0245  0.0042
12693TIP3    H159570   1.915   0.281   6.268 -0.4335  0.0033 -0.2792
12693TIP3    H259571   1.950   0.419   6.321 -0.4861 -0.1953  0.2763
12694TIP3   OH259572   4.338   0.594  12.862  0.0470  0.0976 -0.1012
12694TIP3    H159573   4.255   0.593  12.815 -0.1998  0.4937  0.3217
12694TIP3    H259574   4.321   0.648  12.940  0.8552  0.6378 -0.2920
12695TIP3   OH259575   4.922   2.618   3.126 -0.0192  0.0092  0.2572
12695TIP3    H159576   4.920   2.673   3.205  1.4304 -1.1380  1.1534
12695TIP3    H259577   4.900   2.530   3.158 -2.5760  0.0219 -1.1875
12696TIP3   OH259578   6.351   6.446   1.359 -0.3297  0.0969  0.4531
12696TIP3    H159579   6.329   6.504   1.287  1.0327  0.2776  0.1417
12696TIP3    H259580   6.271   6.438   1.410 -0.8189  1.4235 -0.0704
12697TIP3   OH259581   5.390   1.583   4.239 -0.0591 -0.1811  0.3054
12697TIP3    H159582   5.362   1.569   4.149  1.0533 -0.8328  0.0390
12697TIP3    H259583   5.486   1.582   4.235  0.0122 -1.2064  1.6433
12698TIP3   OH259584   6.320   4.894  11.144  0.2865  0.2722  0.1017
12698TIP3    H159585   6.370   4.888  11.063 -0.2289  1.9137 -0.3712
12698TIP3    H259586   6.294   4.803  11.163  1.0060 -0.2275 -1.1724
12699TIP3   OH259587   2.002   3.685   3.175  0.3899 -0.6144 -0.2851
12699TIP3    H159588   1.922   3.704   3.125 -0.3156  0.7654  1.2614
12699TIP3    H259589   1.971   3.632   3.248  0.9272 -0.3253  0.1558
12700TIP3   OH259590   0.361   2.211   2.338 -0.3538 -0.1150  0.3322
12700TIP3    H159591   0.383   2.254   2.420  1.8115 -0.0933 -0.2218
12700TIP3    H259592   0.308   2.135   2.364  1.4143 -0.8717  1.8927
12701TIP3   OH259593   0.282   6.703   1.272  0.3252 -0.0952  0.3166
12701TIP3    H159594   0.261   6.610   1.284  0.0944 -0.1210 -0.2843
12701TIP3    H259595   0.368   6.713   1.312 -0.1749 -0.3032  1.4950
12702TIP3   OH259596   0.833   5.753   5.936  0.0897  0.5022  0.4266
12702TIP3    H159597   0.769   5.786   5.999 -0.0092 -0.3478  0.7763
12702TIP3    H259598   0.817   5.659   5.932  0.6217  0.4331 -0.2795
12703TIP3   OH259599   4.363   0.205  13.070 -0.2150 -0.2015  0.1475
12703TIP3    H159600   4.278   0.207  13.114  1.0410 -1.3864  2.8001
12703TIP3    H259601   4.393   0.115  13.079  1.4479  0.2390 -0.5425
12704TIP3   OH259602   0.880   4.077  13.520  0.2250 -0.0336 -0.5969
12704TIP3    H159603   0.914   4.163  13.547  2.0183 -0.6065 -0.8880
12704TIP3    H259604   0.807   4.098  13.462 -0.3698  1.2671  0.5601
12705TIP3   OH259605   0.454   2.178   4.014  0.5950  0.1370 -0.1938
12705TIP3    H159606   0.361   2.156   4.007  0.5856  0.1367 -0.0765
12705TIP3    H259607   0.458   2.271   3.992  0.7382 -0.1555 -1.4467
12706TIP3   OH259608   3.941   4.430  16.527 -0.2831 -0.0781 -0.1216
12706TIP3    H159609   3.890   4.510  16.519 -0.1554  0.1375  1.0696
12706TIP3    H259610   3.937   4.390  16.440  0.9473  1.9663 -1.1984
12707TIP3   OH259611   2.341   3.304   3.926 -0.1167 -0.4605  0.5935
12707TIP3    H159612   2.364   3.354   4.004  0.6245 -0.4344  0.3737
12707TIP3    H259613   2.425   3.269   3.894 -0.3160  0.0179 -0.5178
12708TIP3   OH259614   3.329   1.434   2.952 -0.1273  0.7051  0.3473
12708TIP3    H159615   3.314   1.528   2.961  2.0417  1.0969  0.2279
12708TIP3    H259616   3.408   1.426   2.899 -0.2895 -1.1955  0.3022
12709TIP3   OH259617   2.794   1.834  12.294  0.3926 -0.1570  0.4017
12709TIP3    H159618   2.739   1.813  12.369  0.4986 -0.0224  0.5180
12709TIP3    H259619   2.883   1.812  12.323  0.9255  3.0330  1.5721
12710TIP3   OH259620   3.758   0.443   2.051  0.2166 -0.3944 -0.1385
12710TIP3    H159621   3.703   0.463   1.975 -0.2893  2.4137  0.8496
12710TIP3    H259622   3.702   0.391   2.108 -0.0848 -0.8190 -0.8150
12711TIP3   OH259623   3.563   4.210  16.780 -0.7071 -0.0954  0.1441
12711TIP3    H159624   3.515   4.128  16.789  0.3959 -0.8922 -0.9821
12711TIP3    H259625   3.617   4.198  16.702 -1.9894  2.4311 -1.2569
12712TIP3   OH259626   1.487   6.035  16.551 -0.2980 -0.3340 -0.3047
12712TIP3    H159627   1.508   5.950  16.588  1.1284  0.4320  0.7377
12712TIP3    H259628   1.395   6.028  16.525 -1.1128 -1.2971  2.4565
12713TIP3   OH259629   5.300   2.231   4.819  0.2190 -0.5300  0.2914
12713TIP3    H159630   5.361   2.230   4.893  2.3132 -0.2977 -1.3528
12713TIP3    H259631   5.313   2.147   4.776 -0.0281 -0.1333 -0.5640
12714TIP3   OH259632   2.830   4.440  12.311 -0.0182 -0.2148 -0.2228
12714TIP3    H159633   2.821   4.475  12.222  2.6976 -0.3215 -0.6468
12714TIP3    H259634   2.883   4.361  12.300  0.5141 -0.1365  1.4863
12715TIP3   OH259635   2.451   3.296   1.244  0.1939  0.2116 -0.3294
12715TIP3    H159636   2.371   3.325   1.200  1.3510  1.0159 -2.0038
12715TIP3    H259637   2.481   3.222   1.191  0.5529 -0.0995  0.3083
12716TIP3   OH259638   3.499   6.629  15.648  0.2688  0.5903 -0.5388
12716TIP3    H159639   3.428   6.671  15.599  0.1568 -0.0404 -0.9275
12716TIP3    H259640   3.505   6.678  15.730 -3.5383 -1.9203  1.5189
12717TIP3   OH259641   4.900   6.720   2.833 -0.0164 -0.0821  0.1576
12717TIP3    H159642   4.871   6.655   2.897  0.7956 -0.4461  0.1726
12717TIP3    H259643   4.875   6.683   2.748 -0.4325  0.0492  0.2242
12718TIP3   OH259644   4.132   4.221   2.246  0.3420 -0.7262  0.5253
12718TIP3    H159645   4.147   4.127   2.247 -0.3045 -0.8622  2.4895
12718TIP3    H259646   4.212   4.258   2.285  0.7687 -0.3975 -0.6142
12719TIP3   OH259647   4.774   3.259  15.337  0.4355  0.0527  0.9747
12719TIP3    H159648   4.813   3.304  15.261 -0.9442  1.6510  1.1530
12719TIP3    H259649   4.685   3.237  15.309  1.2892 -3.4658  0.6076
12720TIP3   OH259650   4.217   3.898  13.496  0.0660 -0.3953 -0.1464
12720TIP3    H159651   4.248   3.875  13.408 -1.5751 -0.7288 -0.6925
12720TIP3    H259652   4.215   3.994  13.496 -1.8304 -0.3765 -1.2667
12721TIP3   OH259653   3.946   5.637   4.122 -0.6871  0.6031  0.7571
12721TIP3    H159654   3.851   5.630   4.113 -0.6053 -0.0248  0.2780
12721TIP3    H259655   3.976   5.546   4.122 -0.0099  0.8141 -0.0794
12722TIP3   OH259656   5.968   0.485  12.328 -0.6429  0.4884 -0.6910
12722TIP3    H159657   6.026   0.510  12.400  0.3643 -0.4023 -1.1744
12722TIP3    H259658   5.885   0.465  12.370 -0.8591  2.4633 -0.0571
12723TIP3   OH259659   0.271   6.649   2.122 -0.2483 -0.4271  0.0157
12723TIP3    H159660   0.241   6.655   2.213 -0.3338  0.9569 -0.0786
12723TIP3    H259661   0.278   6.555   2.105  0.2900 -0.7075  1.6224
12724TIP3   OH259662   2.161   0.225  16.625  0.8420 -0.1929 -0.3441
12724TIP3    H159663   2.134   0.304  16.579 -1.8046 -0.5065  0.4916
12724TIP3    H259664   2.244   0.249  16.667  0.4651  1.8858 -0.6702
12725TIP3   OH259665   2.735   3.678  12.128  0.1682 -0.7921 -0.4766
12725TIP3    H159666   2.674   3.750  12.147  0.6697 -0.5110  0.1138
12725TIP3    H259667   2.684   3.617  12.076 -0.6124 -0.5355 -0.0336
12726TIP3   OH259668   0.832   1.597  11.472  1.3931 -0.1811 -0.7213
12726TIP3    H159669   0.898   1.656  11.436  1.3302  0.3262 -0.0230
12726TIP3    H259670   0.768   1.655  11.513  1.7293 -0.7506  0.6569
12727TIP3   OH259671   5.331   2.114  12.454  0.3211  0.0860 -0.9698
12727TIP3    H159672   5.347   2.069  12.371 -2.7490  0.8347 -2.0911
12727TIP3    H259673   5.356   2.050  12.521 -0.0242 -1.7376 -2.5109
12728TIP3   OH259674   6.546   4.284   4.797 -0.1760  0.7966 -0.6158
12728TIP3    H159675   6.553   4.203   4.849 -1.6292  1.3636  0.5456
12728TIP3    H259676   6.565   4.256   4.707  1.2448 -0.4474  0.0265
12729TIP3   OH259677   1.064   2.909  11.550  0.0599  0.3538 -0.2748
12729TIP3    H159678   1.148   2.906  11.596  1.2911 -0.9401 -2.4545
12729TIP3    H259679   1.070   2.987  11.494  0.0203 -0.0221 -0.8059
12730TIP3   OH259680   1.576   4.440   4.192  0.2738 -0.2924  0.1657
12730TIP3    H159681   1.647   4.495   4.159 -0.5714  0.5091 -0.3247
12730TIP3    H259682   1.609   4.350   4.181  2.2100  0.0584  2.1841
12731TIP3   OH259683   4.282   6.083   3.121  0.3963  0.0393  0.0682
12731TIP3    H159684   4.286   6.137   3.200 -0.5279 -1.7437  1.4068
12731TIP3    H259685   4.344   6.011   3.139  1.1662  0.3004 -1.4149
12732TIP3   OH259686   0.794   2.767   4.147 -0.2966 -0.2516  0.4112
12732TIP3    H159687   0.854   2.746   4.075  0.0921  0.2494  0.5773
12732TIP3    H259688   0.707   2.750   4.112 -0.0624 -0.9114  0.1356
12733TIP3   OH259689   5.068   2.220  14.140  0.3339  0.1889  0.0353
12733TIP3    H159690   5.096   2.171  14.217 -2.0016  0.2327  1.0157
12733TIP3    H259691   5.023   2.155  14.085  1.1006  0.3673 -0.8302
12734TIP3   OH259692   3.492   2.894   0.027  0.7199 -0.0251  0.2664
12734TIP3    H159693   3.473   2.928   0.114 -1.0622  1.5871 -0.6696
12734TIP3    H259694   3.433   2.942  -0.031  2.5831 -0.2643 -1.9840
12735TIP3   OH259695   4.877   6.443  12.465  0.0066  0.5550  0.0461
12735TIP3    H159696   4.889   6.363  12.413 -1.3976  1.0813 -1.1645
12735TIP3    H259697   4.941   6.504  12.428  0.7467  0.1697  0.6517
12736TIP3   OH259698   0.638   1.783  11.567 -0.4224 -0.1260 -0.0476
12736TIP3    H159699   0.630   1.849  11.637  0.4578 -0.8385  0.7470
12736TIP3    H259700   0.619   1.832  11.487 -2.3063  0.5239  0.7355
12737TIP3   OH259701   1.940   1.268  12.904 -0.2820 -0.0852 -0.3026
12737TIP3    H159702   1.981   1.340  12.858  2.2258  0.0827  1.9315
12737TIP3    H259703   1.870   1.308  12.956  2.0765  1.1836  2.1315
12738TIP3   OH259704   1.936   1.659   3.381 -0.0201 -0.3194  0.6124
12738TIP3    H159705   2.022   1.618   3.376 -0.4304 -1.2181  0.8055
12738TIP3    H259706   1.885   1.603   3.439  0.2885  2.0908  3.4341
12739TIP3   OH259707   0.432   0.692   3.273 -0.0220 -0.8756 -0.0883
12739TIP3    H159708   0.479   0.673   3.191 -0.9557 -1.5905 -0.4708
12739TIP3    H259709   0.382   0.771   3.253 -0.2910 -1.0800 -0.2305
12740TIP3   OH259710   3.907   2.134  15.793 -0.0821  0.4266  0.0654
12740TIP3    H159711   3.825   2.087  15.806  0.0563  0.3894  0.8381
12740TIP3    H259712   3.947   2.091  15.718  0.7211 -1.6925  1.5934
12741TIP3   OH259713   1.442   1.602  13.169  0.4251 -0.0981  0.1031
12741TIP3    H159714   1.423   1.627  13.260 -0.0517 -1.1794  0.3127
12741TIP3    H259715   1.440   1.507  13.170 -0.3194 -0.1088 -1.2086
12742TIP3   OH259716   2.194   4.049   0.367  0.5782 -0.1982  0.3547
12742TIP3    H159717   2.217   4.141   0.377  0.3798  0.1212 -1.5867
12742TIP3    H259718   2.101   4.045   0.389  0.3521  0.2715 -0.4759
12743TIP3   OH259719   5.436   1.647   1.441 -0.2682 -0.6262  0.0432
12743TIP3    H159720   5.515   1.700   1.443  0.2030 -1.3211 -0.0111
12743TIP3    H259721   5.390   1.676   1.362 -1.6644  2.0136  1.6711
12744TIP3   OH259722   1.127   2.355   5.341  0.0539  0.0744 -0.3994
12744TIP3    H159723   1.201   2.412   5.362  0.8585 -1.1632  0.2241
12744TIP3    H259724   1.050   2.411   5.353  0.8755  1.4737 -1.3693
12745TIP3   OH259725   3.432   3.657  16.135  0.1559 -0.0233  0.5890
12745TIP3    H159726   3.471   3.738  16.099 -1.0636 -0.4057 -1.8045
12745TIP3    H259727   3.342   3.658  16.103 -0.0147 -2.1027  0.9091
12746TIP3   OH259728   6.080   6.367   3.433  0.1181  0.1222 -0.4104
12746TIP3    H159729   6.122   6.441   3.476 -0.4411 -0.4450  1.1588
12746TIP3    H259730   6.087   6.295   3.495 -0.8304 -0.7007 -1.2176
12747TIP3   OH259731   1.609   3.436  12.152  0.4240  0.3313  0.2819
12747TIP3    H159732   1.648   3.351  12.175  0.5898  0.3959  0.2375
12747TIP3    H259733   1.632   3.493  12.226 -0.3055  0.1468  0.6612
12748TIP3   OH259734   4.656   5.825  14.527 -0.2218  0.2360 -0.0604
12748TIP3    H159735   4.596   5.821  14.453 -1.3117  0.2000  0.7979
12748TIP3    H259736   4.625   5.758  14.588  1.6295 -0.8517 -0.2471
12749TIP3   OH259737   4.025   5.511   0.458 -0.3782  0.4135  0.3712
12749TIP3    H159738   4.055   5.434   0.409 -2.2025  0.0620 -0.2920
12749TIP3    H259739   4.075   5.584   0.423 -0.5745 -0.0733 -0.9665
12750TIP3   OH259740   5.898   0.955   5.938 -0.1603 -0.4169 -0.0779
12750TIP3    H159741   5.879   0.946   5.844 -0.3588 -0.4080 -0.0393
12750TIP3    H259742   5.973   0.898   5.952 -0.7700 -1.2315 -0.0448
12751TIP3   OH259743   5.606   3.639   5.458 -0.0338  0.1866  0.0335
12751TIP3    H159744   5.638   3.552   5.434  1.1076  0.6576 -0.1987
12751TIP3    H259745   5.628   3.694   5.383 -0.1326  0.8255  0.4685
12752TIP3   OH259746   3.948   2.912  13.234 -0.1104 -0.5223  0.3682
12752TIP3    H159747   3.969   2.990  13.181 -1.9106 -0.8220 -0.8868
12752TIP3    H259748   4.002   2.921  13.312  2.8162 -0.1250 -1.5425
12753TIP3   OH259749   4.444   6.535  13.995  0.9531  0.1235  0.2349
12753TIP3    H159750   4.372   6.581  13.952 -0.5383 -2.0646  0.2038
12753TIP3    H259751   4.492   6.494  13.923  0.3108 -1.0014  0.4286
12754TIP3   OH259752   2.438   3.053   6.528  0.1884  0.4054 -0.9074
12754TIP3    H159753   2.393   2.970   6.545 -1.1117  1.3817  0.6749
12754TIP3    H259754   2.531   3.032   6.538 -0.0662 -1.0263 -1.3316
12755TIP3   OH259755   5.052   1.709   6.377 -0.0986 -1.0478  0.7335
12755TIP3    H159756   5.106   1.641   6.417  0.3013 -0.0905  1.9172
12755TIP3    H259757   5.104   1.789   6.386 -0.3245 -0.6464 -1.0851
12756TIP3   OH259758   3.692   5.240  12.055  0.2828 -0.6423  0.0200
12756TIP3    H159759   3.743   5.169  12.015 -0.1150 -0.0631 -1.6311
12756TIP3    H259760   3.751   5.316  12.052 -0.6691  0.0970 -2.1444
12757TIP3   OH259761   2.757   2.030  14.082 -0.3001  0.2440  0.2325
12757TIP3    H159762   2.712   2.034  13.998  1.1170  0.7532 -0.5349
12757TIP3    H259763   2.830   2.090  14.073  0.5861 -0.6120  1.4092
12758TIP3   OH259764   0.095   1.100   0.830  0.2780 -0.1900  0.2233
12758TIP3    H159765   0.106   1.192   0.807  0.5016  0.0293  1.1931
12758TIP3    H259766   0.082   1.056   0.745  2.2071  0.4289 -0.4424
12759TIP3   OH259767   3.758   0.648   0.239 -0.0283  0.0404  0.0756
12759TIP3    H159768   3.819   0.573   0.236 -0.8049 -0.6283 -3.9253
12759TIP3    H259769   3.783   0.702   0.164 -3.3057  0.5656 -0.7782
12760TIP3   OH259770   3.198   3.230  14.436  0.2698  0.1538 -0.2945
12760TIP3    H159771   3.232   3.151  14.476  1.8236  1.5244  1.2349
12760TIP3    H259772   3.235   3.230  14.348  1.1206 -0.3056  0.0511
12761TIP3   OH259773   0.432   1.882   0.073  0.4020 -0.1199  0.0667
12761TIP3    H159774   0.489   1.898   0.148  2.0817 -0.8037 -1.0247
12761TIP3    H259775   0.396   1.969   0.052  1.1216  0.3514  0.7063
12762TIP3   OH259776   2.518   4.789  13.397 -0.1147 -0.2135 -0.0107
12762TIP3    H159777   2.441   4.797  13.454 -0.1669 -1.9236  0.2351
12762TIP3    H259778   2.591   4.814  13.454 -0.4136  0.7508 -0.0368
12763TIP3   OH259779   1.800   2.714  15.865  0.4407 -0.2058 -0.3498
12763TIP3    H159780   1.864   2.746  15.929  1.8627 -1.9889 -0.7843
12763TIP3    H259781   1.722   2.694  15.917  0.5401  1.0902  0.3445
12764TIP3   OH259782   2.387   0.453   4.376 -0.1609  0.6105 -0.1002
12764TIP3    H159783   2.451   0.384   4.394 -1.8302 -0.6789  1.3095
12764TIP3    H259784   2.352   0.432   4.290 -1.1176 -0.7602  0.5834
12765TIP3   OH259785   2.496   1.957  11.256 -0.0706 -0.0348  0.1615
12765TIP3    H159786   2.508   1.892  11.188 -2.0618 -0.2312 -0.0741
12765TIP3    H259787   2.528   1.915  11.336  0.1032 -0.6964 -0.2510
12766TIP3   OH259788   3.407   5.786   4.995 -0.5625  0.2185 -0.6687
12766TIP3    H159789   3.394   5.692   5.010  0.8362 -0.2464 -2.0647
12766TIP3    H259790   3.500   5.800   5.015 -0.6960  1.2574 -0.7456
12767TIP3   OH259791   6.248   3.287   1.973 -0.0270 -0.4699  0.6651
12767TIP3    H159792   6.249   3.329   1.887  4.1354  0.7278  1.0988
12767TIP3    H259793   6.191   3.344   2.026 -1.5093 -0.4405 -0.8587
12768TIP3   OH259794   4.114   3.329  11.972 -0.1183 -0.1459  0.0722
12768TIP3    H159795   4.096   3.258  11.911 -0.1694  0.2152 -0.3358
12768TIP3    H259796   4.103   3.409  11.920  2.3975  0.1191 -0.1474
12769TIP3   OH259797   3.949   5.102  17.111 -0.0821 -0.4012 -0.5188
12769TIP3    H159798   3.902   5.067  17.187  1.5344  1.3001  1.3968
12769TIP3    H259799   4.030   5.052  17.108  0.9542  1.1043  0.4796
12770TIP3   OH259800   5.824   0.805   5.391 -0.9469  0.0381  0.3158
12770TIP3    H159801   5.791   0.749   5.462  0.7190 -0.0431  1.0705
12770TIP3    H259802   5.826   0.747   5.315  0.5094 -0.9238  1.0274
12771TIP3   OH259803   4.327   3.573  12.026  0.4578 -0.0833 -0.2519
12771TIP3    H159804   4.404   3.614  11.988  1.2514 -1.7015 -0.4719
12771TIP3    H259805   4.271   3.552  11.952  0.3242  0.0409 -0.1889
12772TIP3   OH259806   3.321   4.349   1.082  0.2197  0.2460  0.0618
12772TIP3    H159807   3.241   4.329   1.130  0.9512  2.1080  2.2415
12772TIP3    H259808   3.349   4.266   1.044 -0.4894 -1.3614  2.8167
12773TIP3   OH259809   5.267   4.702  10.778  0.2680  0.1468 -0.1780
12773TIP3    H159810   5.230   4.684  10.692 -0.8445 -0.5475  0.4206
12773TIP3    H259811   5.351   4.657  10.779  0.4661  0.4838 -1.0225
12774TIP3   OH259812   2.877   2.941  16.645 -0.0684 -0.4551  0.1659
12774TIP3    H159813   2.886   3.033  16.623  2.8675 -0.5054  0.7191
12774TIP3    H259814   2.882   2.895  16.561  1.4483 -0.2049  0.0938
12775TIP3   OH259815   1.159   6.301   3.795 -0.2165 -0.5570 -0.5082
12775TIP3    H159816   1.185   6.264   3.879  2.5046  2.3759  0.1139
12775TIP3    H259817   1.064   6.295   3.794 -0.6812  1.7985  4.1453
12776TIP3   OH259818   4.338   4.514  14.067 -0.0076 -0.3726 -0.0072
12776TIP3    H159819   4.310   4.423  14.056 -1.5573  0.3144 -2.4608
12776TIP3    H259820   4.360   4.543  13.979  5.9105  0.1284  1.2188
12777TIP3   OH259821   2.621   1.243  11.646 -0.4565  0.3483  0.5282
12777TIP3    H159822   2.634   1.203  11.560 -0.3756  2.2515 -0.4092
12777TIP3    H259823   2.637   1.173  11.709 -3.7981 -2.0301 -1.0179
12778TIP3   OH259824   4.667   4.373   3.345  0.2099  0.1479 -0.2885
12778TIP3    H159825   4.639   4.384   3.436  0.7617  0.7255 -0.1801
12778TIP3    H259826   4.741   4.432   3.336  2.5159 -2.4905 -0.0715
12779TIP3   OH259827   3.733   3.659  12.112  0.1803 -0.4117  0.1603
12779TIP3    H159828   3.828   3.666  12.108  0.2436 -1.0296  0.4205
12779TIP3    H259829   3.703   3.686  12.025  0.6144 -0.4899 -0.0148
12780TIP3   OH259830   4.641   5.140   2.832  0.1801 -0.1906  0.3613
12780TIP3    H159831   4.667   5.109   2.746 -0.6467  1.4591 -0.5302
12780TIP3    H259832   4.557   5.097   2.849  0.7573 -1.1964  0.7689
12781TIP3   OH259833   5.605   4.111  13.317 -0.3434 -0.1009  0.3596
12781TIP3    H159834   5.521   4.065  13.317 -1.6015  2.0437  0.7719
12781TIP3    H259835   5.665   4.053  13.363 -2.3537 -0.4862  2.6948
12782TIP3   OH259836   5.836   1.541  13.062 -0.4252  0.2852  0.2266
12782TIP3    H159837   5.929   1.522  13.074 -0.3444 -0.0091 -0.7976
12782TIP3    H259838   5.829   1.636  13.071 -0.1874  0.2230  1.2373
12783TIP3   OH259839   4.931   4.169  15.286 -0.6600 -0.2731  0.3418
12783TIP3    H159840   4.865   4.164  15.216 -2.0817 -2.4022  1.7006
12783TIP3    H259841   4.981   4.088  15.277  2.4495  1.6311 -1.1215
12784TIP3   OH259842   4.087   4.427   0.435 -0.2271  0.4219  0.6324
12784TIP3    H159843   4.117   4.506   0.481  3.1028 -0.6599  0.5849
12784TIP3    H259844   4.167   4.378   0.417 -2.0810 -2.6135 -0.0789
12785TIP3   OH259845   0.589   5.934  16.298  0.0816  0.7511 -0.5087
12785TIP3    H159846   0.642   6.014  16.299 -0.1657  0.9437 -1.6458
12785TIP3    H259847   0.519   5.952  16.361 -0.5139  1.8392 -1.4410
12786TIP3   OH259848   0.230   4.159  17.107 -0.3233 -0.3386 -0.0049
12786TIP3    H159849   0.315   4.142  17.147 -0.0718 -0.6272 -0.6349
12786TIP3    H259850   0.166   4.136  17.174  0.1006  0.4684  0.6929
12787TIP3   OH259851   3.944   4.117   2.525 -0.5955 -0.0423  0.2516
12787TIP3    H159852   3.870   4.175   2.507 -1.4639 -1.0813  0.3406
12787TIP3    H259853   3.965   4.133   2.617 -1.9858 -1.0966  0.7840
12788TIP3   OH259854   3.675   3.754  12.590  0.0795 -0.2007  0.0025
12788TIP3    H159855   3.754   3.770  12.642  0.5190 -0.4184 -0.5945
12788TIP3    H259856   3.629   3.685  12.638  0.6810 -0.6876 -0.1045
12789TIP3   OH259857   4.769   3.186  13.399  0.7510  0.4277  0.6925
12789TIP3    H159858   4.825   3.119  13.361 -1.5488 -0.0461 -2.3043
12789TIP3    H259859   4.793   3.267  13.353  0.2510  0.5993  0.7210
12790TIP3   OH259860   5.893   2.009  15.420 -0.5583 -0.1025  0.0918
12790TIP3    H159861   5.916   2.045  15.334 -1.3906 -0.0456 -0.1187
12790TIP3    H259862   5.816   1.954  15.403 -0.7436 -0.0725  0.8018
12791TIP3   OH259863   2.992   0.989   4.977  0.3464  0.0534 -0.4277
12791TIP3    H159864   3.028   0.990   5.065  1.0584  2.3168 -0.6893
12791TIP3    H259865   2.983   0.896   4.956 -0.9011 -0.5839  2.3976
12792TIP3   OH259866   1.164   6.308   1.917  0.2437  0.2767  0.3210
12792TIP3    H159867   1.223   6.260   1.861  2.4943  3.4587 -0.3266
12792TIP3    H259868   1.204   6.303   2.004  0.6595  1.1254  0.1922
12793TIP3   OH259869   6.473   2.574   2.385 -0.3403 -0.0202 -0.2665
12793TIP3    H159870   6.415   2.627   2.441 -2.2503 -1.2316 -1.0211
12793TIP3    H259871   6.466   2.615   2.299 -0.5458 -0.5280 -0.4919
12794TIP3   OH259872   2.407   0.682  16.428 -0.6413  0.0484  0.4282
12794TIP3    H159873   2.353   0.678  16.349  0.4607 -0.5355 -0.3277
12794TIP3    H259874   2.448   0.768  16.425  0.8361 -0.6495 -0.6607
12795TIP3   OH259875   5.490   1.323   4.948 -0.1997 -0.2828 -0.4961
12795TIP3    H159876   5.556   1.277   4.896  0.5673  0.8267 -0.5380
12795TIP3    H259877   5.481   1.409   4.905 -0.4296  0.2062  0.4970
12796TIP3   OH259878   1.671   5.640  15.068 -0.1016  0.1592 -0.2269
12796TIP3    H159879   1.620   5.658  15.148 -1.8185 -0.5795 -1.1106
12796TIP3    H259880   1.748   5.696  15.076 -0.9442  1.1722  1.2778
12797TIP3   OH259881   3.854   1.288  10.829  0.1362  0.0362  0.6567
12797TIP3    H159882   3.942   1.258  10.806 -1.0573 -1.9578 -1.6855
12797TIP3    H259883   3.860   1.384  10.824  1.9887 -0.0797 -0.0942
12798TIP3   OH259884   1.047   0.698  10.252  0.7927 -0.3041 -1.2132
12798TIP3    H159885   1.061   0.771  10.192 -0.0019  0.8694 -0.0458
12798TIP3    H259886   1.118   0.706  10.316  1.3687 -1.2677 -1.7114
12799TIP3   OH259887   6.014   0.575   4.683 -0.4815 -0.6059  0.3035
12799TIP3    H159888   5.986   0.643   4.621 -0.5127 -0.9388 -0.0522
12799TIP3    H259889   6.106   0.595   4.701 -0.3667 -0.7234 -0.1418
12800TIP3   OH259890   0.648   0.510   1.768 -0.4567 -0.3925 -0.0717
12800TIP3    H159891   0.696   0.427   1.761  0.1389 -0.1158  0.6240
12800TIP3    H259892   0.685   0.564   1.699 -0.4746 -0.5206 -0.1837
12801TIP3   OH259893   5.199   4.950  14.032 -0.6424 -0.0291  0.2456
12801TIP3    H159894   5.170   4.868  13.994 -1.1368  0.9002 -1.4619
12801TIP3    H259895   5.286   4.930  14.067 -0.0385 -0.8864 -1.6285
12802TIP3   OH259896   2.900   5.368  12.628  0.6074  0.0853 -0.3122
12802TIP3    H159897   2.864   5.322  12.704  0.5437  0.6154 -0.0156
12802TIP3    H259898   2.961   5.432  12.665  0.0919  0.7899 -0.6561
12803TIP3   OH259899   2.479   0.364  16.474  0.1315  0.4792  0.5949
12803TIP3    H159900   2.500   0.277  16.508  1.2281  0.4359 -0.1569
12803TIP3    H259901   2.518   0.424  16.537  0.0777  0.4251  0.6806
12804TIP3   OH259902   5.208   0.217   3.074 -0.5919 -0.5287 -0.2649
12804TIP3    H159903   5.141   0.175   3.020 -0.3677 -1.1357 -0.0798
12804TIP3    H259904   5.177   0.206   3.164 -1.0147  0.5686 -0.2636
12805TIP3   OH259905   3.011   6.817  12.496  0.3515  0.0482  0.2625
12805TIP3    H159906   3.053   6.735  12.522  1.5827  0.8151  0.7791
12805TIP3    H259907   3.054   6.841  12.414 -0.9157 -0.4505 -0.5838
12806TIP3   OH259908   4.599   3.465  15.066  0.2247  0.0419  0.3255
12806TIP3    H159909   4.587   3.389  15.123  0.1722 -0.5567 -0.4710
12806TIP3    H259910   4.675   3.443  15.012 -1.6821 -0.8572 -2.1245
12807TIP3   OH259911   1.635   1.650  12.149  0.1692 -0.2921  0.4580
12807TIP3    H159912   1.576   1.610  12.212 -0.7547 -0.5772 -0.5519
12807TIP3    H259913   1.583   1.721  12.109  0.9375  0.2789  0.4494
12808TIP3   OH259914   0.130   3.873  12.774 -0.4725  0.3217 -0.3360
12808TIP3    H159915   0.158   3.886  12.864 -2.5933  1.9192  0.1673
12808TIP3    H259916   0.052   3.817  12.781  2.7010 -5.1124 -1.7692
12809TIP3   OH259917   1.846   3.517   1.623 -0.0778 -0.2719 -0.2748
12809TIP3    H159918   1.751   3.522   1.634 -0.0215 -1.9840  1.5850
12809TIP3    H259919   1.880   3.584   1.683 -0.0804  0.3714 -0.9729
12810TIP3   OH259920   4.388   3.240  14.558 -0.3491  0.4234 -0.5821
12810TIP3    H159921   4.365   3.213  14.647 -1.7861  1.0996 -0.7120
12810TIP3    H259922   4.415   3.160  14.515  0.8835  0.1679  0.5988
12811TIP3   OH259923   0.585   0.299   1.253 -0.2414  1.0260 -0.2898
12811TIP3    H159924   0.608   0.366   1.189  0.2954  0.4449 -0.7205
12811TIP3    H259925   0.590   0.216   1.204 -0.2128  0.6119  0.3990
12812TIP3   OH259926   3.627   6.194   1.159 -0.3634  0.0598 -0.9959
12812TIP3    H159927   3.541   6.228   1.183  1.2616  2.3286  2.5205
12812TIP3    H259928   3.666   6.263   1.104  0.6153  1.0249  0.8321
12813TIP3   OH259929   3.768   3.652  14.395  0.2872 -0.2780 -0.2811
12813TIP3    H159930   3.772   3.738  14.436  1.1326 -0.7714  0.7130
12813TIP3    H259931   3.722   3.667  14.312 -0.6752  0.8978  0.4318
12814TIP3   OH259932   5.165   1.747   4.590 -0.6512 -0.1528  0.4374
12814TIP3    H159933   5.205   1.833   4.604 -0.8983  0.0128  0.1601
12814TIP3    H259934   5.083   1.750   4.639 -1.0511  0.0738 -0.2317
12815TIP3   OH259935   1.468   5.354   1.044 -0.9091 -0.1334  0.7365
12815TIP3    H159936   1.445   5.442   1.073 -1.7023  0.2439 -0.9700
12815TIP3    H259937   1.502   5.312   1.123  0.6556  2.0558  1.3316
12816TIP3   OH259938   2.257   5.076   2.460 -0.0439 -0.4280  0.4344
12816TIP3    H159939   2.280   5.053   2.550 -0.2093 -0.0263  0.5782
12816TIP3    H259940   2.329   5.131   2.430 -1.1634  1.5444  1.1678
12817TIP3   OH259941   2.438   2.340   4.370  0.2479  0.4008 -0.3362
12817TIP3    H159942   2.385   2.295   4.304 -0.0708 -0.4506  0.4853
12817TIP3    H259943   2.380   2.350   4.445  0.8061  0.7649  0.0534
12818TIP3   OH259944   1.240   5.247   0.854  0.4285  0.3667  0.5083
12818TIP3    H159945   1.334   5.255   0.872  0.4146  1.3921  0.1936
12818TIP3    H259946   1.231   5.278   0.764  0.2934 -3.2265 -0.8588
12819TIP3   OH259947   2.022   0.435   4.806 -0.4874 -0.5172 -0.0871
12819TIP3    H159948   2.011   0.522   4.766  0.3270 -0.7127 -0.7768
12819TIP3    H259949   2.044   0.378   4.732 -1.9546 -1.5235  0.2105
12820TIP3   OH259950   1.839   3.700   1.168  0.4509 -0.5883 -0.2163
12820TIP3    H159951   1.820   3.610   1.144  1.2776 -0.2658 -2.2742
12820TIP3    H259952   1.778   3.720   1.239  0.0664 -2.6545  0.0731
12821TIP3   OH259953   5.635   2.936   4.261 -0.4170  0.3697 -0.4963
12821TIP3    H159954   5.674   2.848   4.255 -0.5521  0.1185  1.6867
12821TIP3    H259955   5.545   2.920   4.287 -0.1489  1.1577  1.0429
12822TIP3   OH259956   6.427   1.879  16.906  0.1879 -0.2161  0.6170
12822TIP3    H159957   6.389   1.948  16.960  0.5953 -0.0388  0.6747
12822TIP3    H259958   6.387   1.893  16.819 -2.2332 -1.8754  1.3493
12823TIP3   OH259959   1.526   6.378  15.361  0.4168 -0.5503 -0.0134
12823TIP3    H159960   1.535   6.311  15.430  0.1668 -1.2397 -0.6354
12823TIP3    H259961   1.616   6.405  15.342  0.6641 -1.9053 -0.8957
12824TIP3   OH259962   1.600   6.575  14.755 -0.9980 -0.7627 -0.0308
12824TIP3    H159963   1.622   6.668  14.759  1.1723 -1.0110 -2.7966
12824TIP3    H259964   1.515   6.572  14.711 -0.8139 -0.0968 -0.4469
12825TIP3   OH259965   0.882   2.634   4.688  0.1672 -0.5995  0.1044
12825TIP3    H159966   0.955   2.591   4.732 -0.2299 -1.0365  0.3529
12825TIP3    H259967   0.913   2.722   4.669  0.5979 -0.6377  0.6220
12826TIP3   OH259968   2.221   3.301  12.008  0.3741 -0.2379 -0.2104
12826TIP3    H159969   2.136   3.278  12.046  0.0074  0.5157 -0.5625
12826TIP3    H259970   2.210   3.390  11.975  1.3761 -0.0454 -0.0576
12827TIP3   OH259971   4.108   1.004   3.663 -0.2883 -0.6304  0.0055
12827TIP3    H159972   4.130   0.965   3.579  0.9338 -0.0729  0.0389
12827TIP3    H259973   4.167   0.962   3.726 -1.2830 -1.1411  0.6164
12828TIP3   OH259974   2.236   4.574   1.202 -0.1563 -0.4374 -0.2678
12828TIP3    H159975   2.268   4.484   1.198  0.0077 -0.3612 -0.8788
12828TIP3    H259976   2.235   4.596   1.295  2.0559 -0.2774 -0.2359
12829TIP3   OH259977   6.572   2.724  13.857 -0.1868 -0.0868 -0.2151
12829TIP3    H159978   6.657   2.761  13.833 -0.7105  0.7146 -0.8952
12829TIP3    H259979   6.555   2.758  13.945 -0.6872  1.3876 -0.8562
12830TIP3   OH259980   1.845   4.308  10.564 -0.0040  0.7751 -0.1282
12830TIP3    H159981   1.937   4.323  10.586 -0.0167  0.5751  0.0600
12830TIP3    H259982   1.847   4.266  10.478 -0.0371  4.7250 -2.3503
12831TIP3   OH259983   0.916   3.976  15.348  0.2224 -0.4504 -0.2183
12831TIP3    H159984   0.876   4.025  15.419  0.9097  1.2378 -0.9245
12831TIP3    H259985   1.008   4.004  15.348  0.5479 -1.4294 -0.9313
12832TIP3   OH259986   4.088   0.440   4.284  0.1285  0.0542 -0.2913
12832TIP3    H159987   4.140   0.439   4.364 -0.8836 -0.7584  0.3746
12832TIP3    H259988   4.149   0.468   4.216  0.7280  1.9500  0.9408
12833TIP3   OH259989   5.412   5.196  14.285 -0.0907  0.5484  0.1509
12833TIP3    H159990   5.321   5.182  14.314 -0.0839  1.5454  0.7006
12833TIP3    H259991   5.464   5.140  14.344 -0.2327  1.1509  0.8640
12834TIP3   OH259992   0.710   2.929   3.300  0.0067 -0.0480 -0.1262
12834TIP3    H159993   0.694   3.003   3.359  0.8943 -0.2426  0.3937
12834TIP3    H259994   0.660   2.857   3.338  0.7466 -0.2283  0.5348
12835TIP3   OH259995   0.426   1.086   4.084  1.1974  0.2658  0.1425
12835TIP3    H159996   0.506   1.062   4.038  0.6318  0.8251 -1.1962
12835TIP3    H259997   0.364   1.016   4.063  1.0145  0.3861  0.2769
12836TIP3   OH259998   6.253   5.121   4.283  0.2408  0.0402 -0.0423
12836TIP3    H159999   6.250   5.215   4.302  2.0943  0.2411 -0.4911
12836TIP3    H260000   6.212   5.080   4.358 -0.1658  1.1896  0.3879
12837TIP3   OH260001   5.584   3.644   1.317 -0.0931 -0.4918 -0.2426
12837TIP3    H160002   5.672   3.627   1.349  0.1265  0.4505 -0.3152
12837TIP3    H260003   5.574   3.586   1.242  0.4519 -0.6263 -0.2152
12838TIP3   OH260004   3.662   1.271   2.132 -0.2865 -0.1556  0.3001
12838TIP3    H160005   3.586   1.322   2.104  1.6983  1.8284 -1.9508
12838TIP3    H260006   3.642   1.181   2.107 -1.8958  0.3140 -0.2055
12839TIP3   OH260007   2.429   4.481  15.383 -0.0520  0.1477 -0.0845
12839TIP3    H160008   2.440   4.389  15.357  0.9036  0.5286 -1.0611
12839TIP3    H260009   2.489   4.530  15.328 -0.9241  1.4405  0.0618
12840TIP3   OH260010   4.628   0.331   4.763 -0.0672  0.0169  0.2769
12840TIP3    H160011   4.548   0.284   4.738  0.1474  0.6948 -1.8678
12840TIP3    H260012   4.665   0.361   4.680  2.5889 -0.5165  1.1992
12841TIP3   OH260013   2.412   4.523  13.359  0.3293 -0.4729  0.0675
12841TIP3    H160014   2.424   4.436  13.321  0.8720 -0.1502 -0.5235
12841TIP3    H260015   2.495   4.541  13.404  0.3627 -0.1116 -0.1315
12842TIP3   OH260016   1.703   4.083  11.598  0.4667  0.2820 -0.4184
12842TIP3    H160017   1.729   4.121  11.514  0.7612 -0.3318 -0.6091
12842TIP3    H260018   1.608   4.073  11.591  0.2970  1.5420 -0.1259
12843TIP3   OH260019   4.042   0.775   2.434  0.4037 -0.2659  0.1711
12843TIP3    H160020   4.090   0.745   2.511 -1.0898 -1.8188  0.5691
12843TIP3    H260021   4.034   0.697   2.379 -0.6429  0.2235 -0.3997
12844TIP3   OH260022   2.940   6.152  15.945 -0.1760 -0.0775 -0.2493
12844TIP3    H160023   3.012   6.104  15.987  0.3828 -0.2024 -1.3271
12844TIP3    H260024   2.956   6.243  15.967 -0.6194 -0.2520  0.8803
12845TIP3   OH260025   2.345   2.533  15.253 -0.0493 -0.4172  0.2535
12845TIP3    H160026   2.409   2.584  15.203 -1.1994 -0.7601 -1.6601
12845TIP3    H260027   2.321   2.462  15.194  0.0800 -2.0939  2.1325
12846TIP3   OH260028   4.121   6.620   3.489  0.9473 -0.2700  0.7152
12846TIP3    H160029   4.039   6.616   3.440  1.0950 -0.1376  0.4514
12846TIP3    H260030   4.099   6.591   3.577  0.6874 -0.5640  0.5525
12847TIP3   OH260031   3.289   3.979  13.499  0.2937 -0.4951 -0.0395
12847TIP3    H160032   3.240   4.055  13.530  2.6198  1.0249  0.1241
12847TIP3    H260033   3.222   3.917  13.470 -1.6716  1.8794 -0.8495
12848TIP3   OH260034   4.482   3.080   4.598 -0.2729 -0.3493 -0.5574
12848TIP3    H160035   4.519   3.073   4.510 -1.5645  0.8319 -1.2397
12848TIP3    H260036   4.525   3.011   4.648  0.3613 -1.1680 -2.1569
12849TIP3   OH260037   5.240   4.099  10.704 -0.2797 -0.0804 -0.2556
12849TIP3    H160038   5.291   4.180  10.693  0.3137 -0.4583 -0.3580
12849TIP3    H260039   5.201   4.108  10.791  2.0383 -0.8715  0.9719
12850TIP3   OH260040   5.787   1.835  13.446  0.5966 -0.6370 -0.4171
12850TIP3    H160041   5.785   1.906  13.381  0.4165 -1.2263 -1.0677
12850TIP3    H260042   5.833   1.873  13.521 -2.6417  1.4113  0.7630
12851TIP3   OH260043   3.720   4.551   0.325  0.0500 -0.0829 -0.5325
12851TIP3    H160044   3.728   4.489   0.253  0.6411 -0.3181 -0.2726
12851TIP3    H260045   3.664   4.507   0.389  0.4271 -0.3260 -0.3707
12852TIP3   OH260046   1.544   3.492   5.648  0.6485  0.3799  0.2190
12852TIP3    H160047   1.573   3.451   5.567 -0.1223 -2.5110  1.2748
12852TIP3    H260048   1.448   3.484   5.647  0.6839 -1.1970  2.0231
12853TIP3   OH260049   3.745   2.163  13.075  0.4629  0.5214 -0.1358
12853TIP3    H160050   3.743   2.154  12.980 -0.4335 -1.4674  0.0149
12853TIP3    H260051   3.820   2.219  13.092  0.4990  1.1228 -2.0193
12854TIP3   OH260052   2.907   2.244  12.701 -0.2108  0.0323 -0.4015
12854TIP3    H160053   2.894   2.257  12.607 -0.3189 -0.6477 -0.4828
12854TIP3    H260054   2.855   2.167  12.723  1.1791 -0.8508 -0.1157
12855TIP3   OH260055   1.299   0.176   3.188 -0.4862  0.6618 -0.4622
12855TIP3    H160056   1.355   0.112   3.144  0.5587  1.7082 -0.6962
12855TIP3    H260057   1.210   0.149   3.165  0.0019  0.7089 -2.5769
12856TIP3   OH260058   4.069   6.729   5.933 -0.1500  0.2287 -0.5232
12856TIP3    H160059   4.036   6.685   5.855  0.7767 -0.6307 -0.4433
12856TIP3    H260060   4.092   6.817   5.904 -3.4659  1.3012 -0.3796
12857TIP3   OH260061   2.518   3.815   1.737  0.2952 -0.3108 -0.4007
12857TIP3    H160062   2.466   3.894   1.751 -0.2078 -0.6062 -0.5835
12857TIP3    H260063   2.554   3.824   1.649 -0.4004 -0.6372 -0.7309
12858TIP3   OH260064   3.513   0.698   4.916 -0.8815  0.5423  0.0213
12858TIP3    H160065   3.556   0.687   5.001  0.8873 -0.3696 -0.9300
12858TIP3    H260066   3.542   0.785   4.886 -0.0315  0.1323 -0.3992
12859TIP3   OH260067   6.357   5.047  15.692 -0.3015  0.6691 -0.2985
12859TIP3    H160068   6.377   5.133  15.729 -2.1410  0.3677  1.5430
12859TIP3    H260069   6.322   5.067  15.605  0.5300  1.6730 -0.4271
12860TIP3   OH260070   3.282   1.388   0.330 -0.5890 -0.1139  0.0878
12860TIP3    H160071   3.308   1.402   0.239 -0.1615 -1.3507 -0.0095
12860TIP3    H260072   3.307   1.297   0.348 -0.2322  0.2500  1.5923
12861TIP3   OH260073   3.434   2.382   1.772  0.1694 -0.6209  0.5738
12861TIP3    H160074   3.474   2.466   1.753 -0.5509 -0.8098 -2.1336
12861TIP3    H260075   3.506   2.319   1.768  0.6588 -0.2441  2.3346
12862TIP3   OH260076   3.621   0.615   5.165  0.3908 -0.2280  0.1686
12862TIP3    H160077   3.714   0.594   5.157  0.2581 -1.3493  1.1815
12862TIP3    H260078   3.587   0.548   5.225 -0.6398  1.3703  1.4691
12863TIP3   OH260079   2.883   4.890  15.394  0.3100 -0.0887  0.1595
12863TIP3    H160080   2.796   4.875  15.431  1.1331 -1.1044  1.7874
12863TIP3    H260081   2.921   4.802  15.384  0.2594  0.1227 -2.9521
12864TIP3   OH260082   5.070   4.042   0.542  0.0618  0.0033  0.7128
12864TIP3    H160083   5.077   3.947   0.528  1.5147 -0.0936  1.7713
12864TIP3    H260084   5.094   4.080   0.458 -1.6190 -0.5484 -0.0531
12865TIP3   OH260085   1.355   2.381  12.070 -0.3439  0.5861 -0.3512
12865TIP3    H160086   1.331   2.463  12.112 -1.3812  0.4633 -0.6794
12865TIP3    H260087   1.439   2.399  12.029  1.5299  0.3043  2.9527
12866TIP3   OH260088   1.381   6.452   1.543  0.5222  0.6940  0.5806
12866TIP3    H160089   1.297   6.496   1.555  0.2542  0.2161  0.4975
12866TIP3    H260090   1.416   6.441   1.631 -0.3434 -0.7013  0.7905
12867TIP3   OH260091   6.471   0.641   0.662  0.3280 -0.3437 -0.4389
12867TIP3    H160092   6.509   0.622   0.748  1.2647  0.4359 -0.6589
12867TIP3    H260093   6.544   0.630   0.601  0.3077  1.3820 -0.8478
12868TIP3   OH260094   2.562   3.299  16.676  0.0169 -0.2322  0.1347
12868TIP3    H160095   2.558   3.212  16.716  1.6684  0.3413  1.6960
12868TIP3    H260096   2.514   3.291  16.594 -3.0350 -1.6648  1.9156
12869TIP3   OH260097   4.024   3.442   5.189 -0.1402  0.0469 -0.1189
12869TIP3    H160098   3.973   3.363   5.173 -0.3291 -0.0230  0.8059
12869TIP3    H260099   4.070   3.426   5.271  2.2673 -0.3287 -1.4385
12870TIP3   OH260100   4.211   1.109   4.892  0.4648 -0.0984  0.0220
12870TIP3    H160101   4.206   1.072   4.980  1.9381  0.0929  0.2124
12870TIP3    H260102   4.184   1.201   4.904  1.4147  0.1448  0.4462
12871TIP3   OH260103   6.750   3.578   5.676  0.2400 -0.0478  0.3218
12871TIP3    H160104   6.672   3.526   5.698 -0.2403  1.0590  1.3036
12871TIP3    H260105   6.733   3.664   5.714  0.7620  1.0367 -1.7572
12872TIP3   OH260106   6.652   1.582   4.061  0.1338  0.1512  0.0104
12872TIP3    H160107   6.692   1.566   4.146  0.1945  0.0135 -0.0443
12872TIP3    H260108   6.688   1.667   4.033  0.2259  0.1273  0.0562
12873TIP3   OH260109   4.559   5.603  13.812 -0.3070 -0.5521  0.4689
12873TIP3    H160110   4.505   5.676  13.782  0.8171  0.4356  0.7471
12873TIP3    H260111   4.499   5.528  13.817 -1.6319  0.4994  0.7945
12874TIP3   OH260112   5.967   2.573   5.352  0.2061  0.2778 -0.3970
12874TIP3    H160113   6.055   2.571   5.388  0.5938 -0.9723 -1.3494
12874TIP3    H260114   5.925   2.494   5.384 -0.7792  1.1426  0.5038
12875TIP3   OH260115   4.493   6.648   2.223 -0.1652  0.2297 -0.0821
12875TIP3    H160116   4.417   6.616   2.272 -1.6133 -2.3923 -3.5521
12875TIP3    H260117   4.461   6.724   2.174  0.2085  0.6561  0.3282
12876TIP3   OH260118   0.355   3.532  16.715  0.1966  0.4393  0.4213
12876TIP3    H160119   0.341   3.605  16.775  0.7828  0.2291  0.8250
12876TIP3    H260120   0.281   3.536  16.654 -0.3397  0.7259  1.0831
12877TIP3   OH260121   1.932   0.189  11.677  0.1604  0.2018 -0.3960
12877TIP3    H160122   1.918   0.248  11.603  0.3736 -1.0342 -1.4707
12877TIP3    H260123   1.872   0.219  11.745 -2.4431 -0.5233 -2.2189
12878TIP3   OH260124   1.293   6.687  13.880 -0.4585 -0.1592  0.2938
12878TIP3    H160125   1.352   6.690  13.805 -0.1357 -0.3143  0.5341
12878TIP3    H260126   1.336   6.742  13.946  0.2809 -1.5974  1.0662
12879TIP3   OH260127   3.088   4.446   4.668  0.7922 -0.0380  0.5654
12879TIP3    H160128   3.029   4.457   4.593 -0.7107 -0.0712  1.6860
12879TIP3    H260129   3.132   4.531   4.677 -2.2850  1.5581  2.2471
12880TIP3   OH260130   2.859   4.947  10.788  0.2107 -0.1176 -0.1710
12880TIP3    H160131   2.940   4.956  10.837 -0.5565  1.4426  0.8859
12880TIP3    H260132   2.822   4.864  10.817  0.4437  0.1342  0.8928
12881TIP3   OH260133   3.116   4.661   3.591 -0.1702 -0.6209 -0.1688
12881TIP3    H160134   3.053   4.733   3.598 -1.0050 -1.4608  1.5155
12881TIP3    H260135   3.074   4.598   3.532 -0.0950 -0.3783 -0.4808
12882TIP3   OH260136   5.877   1.698   5.655  0.3566 -0.1407  0.0612
12882TIP3    H160137   5.821   1.775   5.663 -1.7067 -1.4672 -0.9823
12882TIP3    H260138   5.947   1.713   5.720 -0.2749  2.3034  0.2816
12883TIP3   OH260139   3.401   2.493   3.522 -0.3308  0.7817 -0.4819
12883TIP3    H160140   3.436   2.457   3.603 -0.8460  1.5927  0.1069
12883TIP3    H260141   3.478   2.506   3.466 -0.0512 -0.4679 -0.4205
12884TIP3   OH260142   3.276   6.205  16.325 -0.3340  0.0650 -0.6592
12884TIP3    H160143   3.355   6.257  16.310  0.4821 -1.5010 -2.1015
12884TIP3    H260144   3.248   6.179  16.237 -1.4031 -0.9265 -0.0481
12885TIP3   OH260145   4.485   0.692  16.944  0.5120  0.0385  0.3257
12885TIP3    H160146   4.436   0.619  16.905  1.0375  0.2350 -0.7533
12885TIP3    H260147   4.496   0.754  16.872  0.7497  0.8323  1.0337
12886TIP3   OH260148   1.682   0.146   3.870 -0.3137  0.0142  0.1605
12886TIP3    H160149   1.663   0.224   3.818 -0.8541 -0.9454 -1.1370
12886TIP3    H260150   1.602   0.094   3.865 -0.1440 -0.4020  1.4481
12887TIP3   OH260151   1.214   6.299  11.267  0.3375 -0.3420 -0.8051
12887TIP3    H160152   1.204   6.349  11.187  3.6326  0.2396 -0.9751
12887TIP3    H260153   1.292   6.245  11.253  1.4610  0.2697  2.1552
12888TIP3   OH260154   1.397   1.964   4.664  0.0493  0.0320 -0.6124
12888TIP3    H160155   1.432   1.875   4.669  0.7016  0.2948 -0.4352
12888TIP3    H260156   1.423   2.005   4.746 -1.4318 -0.0305 -0.0833
12889TIP3   OH260157   6.377   6.267   4.173 -0.0398  0.8615 -0.0539
12889TIP3    H160158   6.379   6.288   4.266 -0.1794 -1.9490  0.6615
12889TIP3    H260159   6.309   6.324   4.137 -0.4878  1.4894  1.7000
12890TIP3   OH260160   0.749   0.753   5.841 -0.2833  0.5952  0.0644
12890TIP3    H160161   0.682   0.785   5.901 -1.6589  2.1478 -2.1516
12890TIP3    H260162   0.710   0.676   5.801 -0.4673  1.0711 -0.6914
12891TIP3   OH260163   0.330   3.545  13.420 -0.2348  0.4961 -0.1138
12891TIP3    H160164   0.355   3.480  13.355  1.1145 -0.6377  1.4589
12891TIP3    H260165   0.354   3.629  13.381  0.7412 -0.1683 -0.9910
12892TIP3   OH260166   5.805   2.928   3.056  0.1581  0.7583  0.2295
12892TIP3    H160167   5.747   2.994   3.018 -0.9794  0.9247  2.1622
12892TIP3    H260168   5.850   2.890   2.980 -1.4322  1.5988 -1.2117
12893TIP3   OH260169   3.558   2.856  14.097 -0.2073  0.5480 -0.1995
12893TIP3    H160170   3.593   2.850  14.008  2.2565 -1.3244  0.7832
12893TIP3    H260171   3.481   2.800  14.096  2.3172 -3.3212 -0.2120
12894TIP3   OH260172   1.697   1.428   1.949  0.1335 -0.5487  0.3341
12894TIP3    H160173   1.710   1.509   1.999  1.7084 -2.5132  3.4103
12894TIP3    H260174   1.602   1.417   1.947 -0.2317  1.9644 -1.3758
12895TIP3   OH260175   1.000   4.839   0.258  0.5478 -0.2434 -0.6898
12895TIP3    H160176   0.967   4.914   0.209 -0.5197 -0.3512 -0.1638
12895TIP3    H260177   1.056   4.877   0.326  0.1389  0.0720 -0.5236
12896TIP3   OH260178   5.584   3.327  11.073  0.2215 -0.2129  0.4492
12896TIP3    H160179   5.629   3.278  11.142  0.7273 -0.6890 -0.2138
12896TIP3    H260180   5.556   3.260  11.011  0.4929  0.2913 -0.2194
12897TIP3   OH260181   1.427   2.551   2.057 -0.3130  0.7135  0.4264
12897TIP3    H160182   1.513   2.509   2.062 -0.4389  0.5619  1.6202
12897TIP3    H260183   1.370   2.495   2.109 -1.3522  0.3600 -1.0213
12898TIP3   OH260184   6.770   5.312   1.886 -0.1596 -0.2617 -0.5464
12898TIP3    H160185   6.707   5.381   1.869  0.7289  0.5970 -0.4426
12898TIP3    H260186   6.808   5.335   1.971  1.2738  0.0238 -1.2274
12899TIP3   OH260187   5.546   0.655  14.579  0.4109 -0.2892  0.1975
12899TIP3    H160188   5.483   0.676  14.511  1.1205 -3.1253 -1.4877
12899TIP3    H260189   5.505   0.686  14.660 -1.5149  1.0816 -1.2134
12900TIP3   OH260190   0.886   2.243  15.161 -0.2509  0.2384  0.4165
12900TIP3    H160191   0.922   2.186  15.230  0.3991  1.2813  0.9619
12900TIP3    H260192   0.805   2.278  15.198 -1.0524 -0.8703 -0.2052
12901TIP3   OH260193   3.862   1.633   3.948 -0.1100  0.1922 -0.0630
12901TIP3    H160194   3.924   1.654   3.879 -2.1523  0.9040 -1.7697
12901TIP3    H260195   3.833   1.543   3.929 -0.7000  0.3990 -0.1654
12902TIP3   OH260196   6.382   1.191  13.154 -0.3112  0.0404 -0.5804
12902TIP3    H160197   6.404   1.265  13.097 -0.3339  0.1654 -0.4255
12902TIP3    H260198   6.458   1.182  13.212  0.6126 -1.3392 -1.9081
12903TIP3   OH260199   5.140   5.512   3.797 -0.3106 -0.5229 -0.1887
12903TIP3    H160200   5.113   5.600   3.822  1.0160 -0.7160  2.1861
12903TIP3    H260201   5.228   5.523   3.759  0.0255 -0.8336  0.4746
12904TIP3   OH260202   0.565   1.102  15.773 -0.0856  0.0915 -0.3709
12904TIP3    H160203   0.560   1.197  15.786 -0.8760 -0.0269  0.2603
12904TIP3    H260204   0.591   1.068  15.859 -1.2044 -0.3677 -0.1964
12905TIP3   OH260205   5.825   0.494  12.065 -0.4909 -0.2367  0.2188
12905TIP3    H160206   5.893   0.471  12.002 -0.0085 -0.8176  0.9428
12905TIP3    H260207   5.873   0.512  12.146 -1.1336  0.1763  0.5143
12906TIP3   OH260208   5.671   0.570  10.939 -0.2130  0.1850 -0.8701
12906TIP3    H160209   5.602   0.504  10.947 -0.0444 -0.0502 -1.3511
12906TIP3    H260210   5.749   0.528  10.974 -0.3786  0.5712 -0.0003
12907TIP3   OH260211   6.461   3.080  14.833 -0.3613 -0.2153 -0.7251
12907TIP3    H160212   6.491   3.141  14.765 -0.9729  1.2735  0.2690
12907TIP3    H260213   6.532   3.082  14.898  0.0408 -1.3186 -1.1193
12908TIP3   OH260214   5.867   1.670  15.378 -0.3554  0.2443  0.6003
12908TIP3    H160215   5.910   1.723  15.311 -1.9886 -0.3999 -1.0584
12908TIP3    H260216   5.788   1.719  15.401 -0.5703 -0.2390  0.9282
12909TIP3   OH260217   0.143   6.136   4.622 -0.1620 -0.1232  0.3789
12909TIP3    H160218   0.162   6.171   4.709 -1.1125 -0.2679  0.6617
12909TIP3    H260219   0.074   6.193   4.588 -1.4905 -1.4617  0.7099
12910TIP3   OH260220   2.041   2.842  15.989  0.1408 -0.3907  0.6206
12910TIP3    H160221   2.088   2.891  16.055  2.6095  1.2702 -2.1604
12910TIP3    H260222   2.108   2.794  15.942 -1.2076  0.0312 -1.9100
12911TIP3   OH260223   0.030   4.010  16.238  0.3327  0.3436 -0.0061
12911TIP3    H160224   0.016   3.963  16.156  1.5765 -0.0838 -0.0112
12911TIP3    H260225   0.002   4.100  16.220  0.5837  0.2564 -0.9087
12912TIP3   OH260226   5.492   3.172  16.867 -0.3050  0.5450  0.4304
12912TIP3    H160227   5.555   3.124  16.921  0.0117  1.4059  0.8413
12912TIP3    H260228   5.420   3.192  16.927 -0.6593  0.1659  0.1361
12913TIP3   OH260229   6.268   6.159  14.306 -0.4310  0.0104  0.0208
12913TIP3    H160230   6.335   6.167  14.238 -0.6724  0.9843 -0.1257
12913TIP3    H260231   6.191   6.127  14.259 -0.3560 -0.1375 -0.0018
12914TIP3   OH260232   5.248   6.555  16.611  0.3629  0.3448  0.2635
12914TIP3    H160233   5.341   6.541  16.627  0.2378 -0.3235  0.4169
12914TIP3    H260234   5.206   6.472  16.632 -0.0279 -0.0257 -1.7246
12915TIP3   OH260235   6.191   3.485   3.391 -0.0635 -0.5237 -0.0488
12915TIP3    H160236   6.275   3.440   3.385  0.5908  0.5797  0.5175
12915TIP3    H260237   6.211   3.567   3.436 -1.3788 -0.0753 -0.2400
12916TIP3   OH260238   5.062   2.549   4.618  0.5516  0.7145  0.5103
12916TIP3    H160239   5.002   2.602   4.671  0.3460 -0.7577  1.8171
12916TIP3    H260240   5.006   2.506   4.553 -0.1361 -1.6020  2.4726
12917TIP3   OH260241   3.448   6.625   0.251 -0.0483 -0.1580 -0.3605
12917TIP3    H160242   3.353   6.626   0.265 -0.0753  1.1787 -0.4303
12917TIP3    H260243   3.486   6.639   0.338  0.0686 -0.3113 -0.3869
12918TIP3   OH260244   2.803   1.089  17.021 -0.5599 -0.9426  0.3299
12918TIP3    H160245   2.841   1.043  16.947  0.6499 -0.4962  0.6498
12918TIP3    H260246   2.820   1.032  17.096 -1.5268 -1.2619  0.3168
12919TIP3   OH260247   2.636   6.534   4.285 -0.6222  0.6389  0.4204
12919TIP3    H160248   2.556   6.485   4.266  0.6780 -1.4761  0.1186
12919TIP3    H260249   2.669   6.560   4.199 -0.9103  1.4431  0.5404
12920TIP3   OH260250   5.260   1.144  14.834 -0.1038 -0.2862  0.3878
12920TIP3    H160251   5.175   1.127  14.876  0.1709 -1.5953  0.4673
12920TIP3    H260252   5.267   1.077  14.766  0.7140  0.0302  0.1478
12921TIP3   OH260253   4.703   3.726  13.852  0.4704 -0.1691 -0.6065
12921TIP3    H160254   4.727   3.642  13.813  3.6282 -0.2398  1.0988
12921TIP3    H260255   4.665   3.703  13.937 -1.4393  0.1078 -1.3509
12922TIP3   OH260256   4.681   3.863  16.103  0.1249 -0.0301 -0.2079
12922TIP3    H160257   4.668   3.832  16.013 -0.1302 -1.2867  0.2437
12922TIP3    H260258   4.656   3.789  16.158  1.1722  0.3952  0.8924
12923TIP3   OH260259   3.473   1.126   1.430 -0.2583 -0.5009 -0.4454
12923TIP3    H160260   3.503   1.208   1.391  0.9856 -0.5417  0.3458
12923TIP3    H260261   3.519   1.058   1.380  2.7725 -0.5074  2.0377
12924TIP3   OH260262   3.478   1.524  16.980  0.1577  0.5842  0.2222
12924TIP3    H160263   3.387   1.538  17.004 -0.0699 -0.4953  0.0379
12924TIP3    H260264   3.484   1.554  16.889 -0.6312 -1.6128 -0.6022
12925TIP3   OH260265   2.311   4.238  11.956  0.0081 -0.3004 -0.6281
12925TIP3    H160266   2.356   4.192  11.885  3.9166  1.3033  0.5463
12925TIP3    H260267   2.319   4.179  12.032  1.1527  0.4192 -0.1649
12926TIP3   OH260268   3.478   3.116   3.609 -0.0329 -0.1545 -0.1145
12926TIP3    H160269   3.385   3.121   3.585 -0.1915 -1.0645  0.2660
12926TIP3    H260270   3.499   3.205   3.639 -1.2668 -0.3485  1.4793
12927TIP3   OH260271   6.458   0.276  13.979  0.1162 -0.2039 -0.2028
12927TIP3    H160272   6.420   0.236  13.902 -2.2122 -0.9235  1.2187
12927TIP3    H260273   6.507   0.205  14.022  2.9201  0.6126 -1.7976
12928TIP3   OH260274   1.830   3.120  12.584 -0.1471 -0.3483  0.1644
12928TIP3    H160275   1.808   3.202  12.630  1.1700 -0.1260  0.4230
12928TIP3    H260276   1.751   3.067  12.592  0.2536 -0.6301  3.3694
12929TIP3   OH260277   3.918   2.859   4.680 -0.5590 -0.9451  0.0016
12929TIP3    H160278   3.930   2.941   4.726  2.9747 -1.5199  0.3972
12929TIP3    H260279   3.872   2.803   4.742 -2.7964  0.5847 -0.1894
12930TIP3   OH260280   0.856   1.657   4.062  0.4667  0.1413 -0.8461
12930TIP3    H160281   0.851   1.749   4.086  1.0294 -0.5974  2.6017
12930TIP3    H260282   0.903   1.656   3.979  1.2472  2.8959 -0.5190
12931TIP3   OH260283   3.788   1.207  14.782  0.1898  0.1532  0.5835
12931TIP3    H160284   3.763   1.128  14.830 -0.4645 -0.6543 -1.0185
12931TIP3    H260285   3.780   1.183  14.690  0.6377  1.8925  0.0521
12932TIP3   OH260286   4.387   0.162  14.746 -0.4507 -0.2862 -0.6427
12932TIP3    H160287   4.428   0.077  14.761  1.2987  0.8387  1.4778
12932TIP3    H260288   4.323   0.171  14.817 -0.3125  0.3309 -0.5917
12933TIP3   OH260289   0.172   2.596   2.618 -0.3368  0.5488 -0.0552
12933TIP3    H160290   0.084   2.610   2.585 -0.4807 -0.5380 -0.1515
12933TIP3    H260291   0.161   2.537   2.693  0.0016  2.7489  1.8404
12934TIP3   OH260292   4.771   5.166   2.327 -0.2906 -0.3259  0.5635
12934TIP3    H160293   4.837   5.225   2.361 -1.5666  0.4988  1.7301
12934TIP3    H260294   4.805   5.137   2.242 -0.5545  3.9384 -1.2746
12935TIP3   OH260295   4.600   0.330   3.783 -0.3073 -0.0290 -0.1546
12935TIP3    H160296   4.587   0.320   3.689  1.4850  2.0355 -0.7139
12935TIP3    H260297   4.617   0.242   3.815  1.4503 -0.5118 -2.2106
12936TIP3   OH260298   3.776   3.285  15.740 -0.2882 -0.3869 -0.2072
12936TIP3    H160299   3.858   3.237  15.732 -0.8502 -1.3833 -0.2338
12936TIP3    H260300   3.749   3.302  15.650 -0.4155 -0.6147 -0.2137
12937TIP3   OH260301   3.044   1.167   0.170  0.4354  0.2934  0.3973
12937TIP3    H160302   3.060   1.228   0.243  1.9697 -0.7737  1.0167
12937TIP3    H260303   3.025   1.223   0.095  0.0795  1.4669  1.3404
12938TIP3   OH260304   5.378   1.610   1.994 -0.4616  0.0967  0.4518
12938TIP3    H160305   5.380   1.515   1.981 -0.8622 -0.3760  3.1470
12938TIP3    H260306   5.408   1.646   1.911 -0.2581 -2.3724 -0.6567
12939TIP3   OH260307   4.915   4.297   4.656 -0.0088  0.4542 -0.1141
12939TIP3    H160308   5.005   4.328   4.663 -0.3341  1.3814  0.1093
12939TIP3    H260309   4.911   4.254   4.570  0.5988  0.5821 -0.2094
12940TIP3   OH260310   0.029   0.044  15.747 -0.4514  0.3079  0.7788
12940TIP3    H160311   0.009  -0.034  15.798 -0.6416  0.6295  1.2029
12940TIP3    H260312  -0.049   0.061  15.695 -0.3861  0.1827  0.6377
12941TIP3   OH260313   1.399   1.314  13.173  0.5483 -0.3051 -0.0043
12941TIP3    H160314   1.372   1.247  13.111  1.9147 -1.8015  0.9267
12941TIP3    H260315   1.484   1.285  13.205  0.6784  1.3042  1.2861
12942TIP3   OH260316   4.120   4.526   3.848 -0.1441 -0.7814  0.4882
12942TIP3    H160317   4.154   4.442   3.817  0.6241 -0.6781  1.0213
12942TIP3    H260318   4.029   4.527   3.818  0.4562 -0.8141 -1.4601
12943TIP3   OH260319   6.515   3.576  11.098 -0.1214  0.5083  0.2830
12943TIP3    H160320   6.442   3.533  11.143  0.2348  0.8117  1.1655
12943TIP3    H260321   6.516   3.536  11.011 -2.4323  1.7187 -0.3841
12944TIP3   OH260322   0.473   3.553  12.545 -0.1798 -0.9542  0.2123
12944TIP3    H160323   0.510   3.641  12.557  1.1707 -1.1651 -1.8182
12944TIP3    H260324   0.415   3.562  12.469 -2.2965 -1.2592  1.7011
12945TIP3   OH260325   0.915   5.206  13.756  0.0431  0.1895 -0.4166
12945TIP3    H160326   0.939   5.131  13.811  2.3973  1.7545  0.8918
12945TIP3    H260327   0.959   5.191  13.673 -2.0909 -1.3318 -1.3537
12946TIP3   OH260328   0.824   5.792  11.670 -0.4456  0.1372  0.1199
12946TIP3    H160329   0.805   5.777  11.577  0.0651  1.1477 -0.1512
12946TIP3    H260330   0.749   5.752  11.716 -1.4481  0.9272 -0.7835
12947TIP3   OH260331   2.829   6.657  13.777  0.0478  0.3035 -0.1225
12947TIP3    H160332   2.801   6.681  13.689 -2.0927  0.1085  0.4585
12947TIP3    H260333   2.910   6.707  13.791 -2.0589  4.1493 -0.4648
12948TIP3   OH260334   0.683   6.671  10.439  0.3806  0.4170 -0.7146
12948TIP3    H160335   0.742   6.631  10.376  0.7855 -1.2058  0.6444
12948TIP3    H260336   0.740   6.717  10.501  0.0493  1.1409 -0.9350
12949TIP3   OH260337   2.205   0.013   2.166  0.1929  0.7883 -0.2130
12949TIP3    H160338   2.199   0.044   2.256  1.2931 -1.0507  0.5456
12949TIP3    H260339   2.140  -0.058   2.161  2.0897 -1.0620  0.0575
12950TIP3   OH260340   3.378   4.154  14.901 -0.4442  0.2382 -0.7427
12950TIP3    H160341   3.360   4.118  14.987  2.2159  0.6321  0.0586
12950TIP3    H260342   3.321   4.104  14.842 -1.7361 -0.5876  1.1160
12951TIP3   OH260343   6.625   3.845   3.236  0.2204 -0.2484 -0.5358
12951TIP3    H160344   6.699   3.830   3.177 -0.1725  0.2829 -1.1766
12951TIP3    H260345   6.572   3.910   3.192 -0.7192 -0.7369 -0.1562
12952TIP3   OH260346   6.403   5.653   2.399  0.0858 -0.1896 -0.3397
12952TIP3    H160347   6.472   5.650   2.332 -0.3510  1.6157 -0.9287
12952TIP3    H260348   6.338   5.713   2.363 -2.2692 -2.4782 -0.1921
12953TIP3   OH260349   0.288   0.284   4.537  0.1046 -0.4369 -0.2745
12953TIP3    H160350   0.333   0.200   4.528 -0.1451 -0.4617 -1.5166
12953TIP3    H260351   0.276   0.314   4.447  0.4736  1.0836  0.1430
12954TIP3   OH260352   5.727   1.780   5.110 -0.4571  0.1153 -0.0675
12954TIP3    H160353   5.809   1.800   5.066 -0.8672  0.9534 -0.4816
12954TIP3    H260354   5.687   1.711   5.056  0.7440 -1.5605  1.0985
12955TIP3   OH260355   0.897   5.416  16.188 -0.1895 -0.3748  0.5889
12955TIP3    H160356   0.807   5.382  16.179 -0.6709  0.9092  0.3947
12955TIP3    H260357   0.909   5.428  16.282 -0.6105  0.4561  0.5404
12956TIP3   OH260358   2.816   6.695  13.415 -0.8755 -0.2829  0.4369
12956TIP3    H160359   2.799   6.766  13.478 -2.5323  0.3514 -0.6469
12956TIP3    H260360   2.886   6.729  13.359  0.2510 -0.6481  1.5702
12957TIP3   OH260361   5.902   0.269  13.728 -0.1996 -0.1313 -0.3960
12957TIP3    H160362   5.966   0.306  13.669  0.4559 -1.4218 -0.5300
12957TIP3    H260363   5.927   0.301  13.815  1.6920 -1.9173 -0.2010
12958TIP3   OH260364   1.615   4.963  16.590 -0.4402 -0.5024 -0.6829
12958TIP3    H160365   1.650   4.908  16.660 -2.8349 -0.7797  0.4162
12958TIP3    H260366   1.687   5.021  16.567  0.8521 -1.2990  1.0797
12959TIP3   OH260367   1.051   1.357  11.681 -0.0154  0.4567  0.3219
12959TIP3    H160368   1.085   1.335  11.767 -0.4372  2.5208  1.0512
12959TIP3    H260369   1.030   1.450  11.685 -3.4632 -0.1028 -0.8324
12960TIP3   OH260370   2.985   0.745   0.709  0.4652  0.2013  0.2297
12960TIP3    H160371   2.942   0.669   0.671 -0.2104  0.2997  0.7851
12960TIP3    H260372   2.972   0.815   0.645 -0.8636  0.4249  0.7115
12961TIP3   OH260373   4.304   1.760   0.389  0.0646  0.3705  0.0180
12961TIP3    H160374   4.283   1.692   0.453 -0.7021  0.2651 -0.3458
12961TIP3    H260375   4.282   1.722   0.304  2.0680  0.1003 -0.4444
12962TIP3   OH260376   0.237   3.904   3.933  0.5988  0.0905 -0.1382
12962TIP3    H160377   0.185   3.904   4.014 -0.1809  0.9712 -0.6308
12962TIP3    H260378   0.210   3.824   3.888 -2.2576  1.6988 -1.5644
12963TIP3   OH260379   3.334   3.882  15.063 -0.6185  0.5757 -0.4670
12963TIP3    H160380   3.379   3.881  14.979  1.0014  0.7097  0.3654
12963TIP3    H260381   3.401   3.860  15.127 -2.1172 -0.9028  0.6930
12964TIP3   OH260382   1.813   0.931  16.384 -0.7759  0.5247 -0.2052
12964TIP3    H160383   1.890   0.981  16.358 -1.4571  1.1451 -1.1000
12964TIP3    H260384   1.779   0.896  16.302 -0.1623 -1.6905  0.4187
12965TIP3   OH260385   6.163   5.682   3.527 -0.0011  0.0113  0.0627
12965TIP3    H160386   6.157   5.741   3.451 -1.3633 -0.6387 -0.3754
12965TIP3    H260387   6.111   5.606   3.501  0.2727 -0.6164  1.3117
12966TIP3   OH260388   3.559   2.411  16.506  0.1368  0.3409 -0.4585
12966TIP3    H160389   3.548   2.455  16.422 -1.1201 -0.2821 -0.6400
12966TIP3    H260390   3.507   2.462  16.567 -2.0798 -1.3203 -0.8475
12967TIP3   OH260391   4.651   0.987  12.088  0.1947  0.0087 -0.4896
12967TIP3    H160392   4.618   0.898  12.084 -0.5541  0.2985 -0.9716
12967TIP3    H260393   4.687   1.003  12.001  1.3733 -0.2034 -0.0609
12968TIP3   OH260394   0.555   2.732   1.414  0.2175  0.8671  0.2921
12968TIP3    H160395   0.545   2.672   1.488  0.1769 -0.0019 -0.4006
12968TIP3    H260396   0.483   2.794   1.424 -0.5393  0.0052  0.2884
12969TIP3   OH260397   1.827   3.177  16.383 -0.1534 -0.3949 -0.2549
12969TIP3    H160398   1.890   3.213  16.444  0.0066  1.0228 -1.2116
12969TIP3    H260399   1.800   3.251  16.329 -0.3505 -1.5508 -1.8450
12970TIP3   OH260400   1.766   5.064   1.678  0.5363 -0.2785  0.1626
12970TIP3    H160401   1.830   5.135   1.685  1.8048 -1.3122 -0.4488
12970TIP3    H260402   1.687   5.106   1.644  0.9109  1.0120  0.8182
12971TIP3   OH260403   4.741   5.410  16.379  0.1701  0.9144  0.1614
12971TIP3    H160404   4.670   5.348  16.394  1.8298 -1.2690 -0.3829
12971TIP3    H260405   4.700   5.485  16.337 -1.6214 -0.8341 -1.3816
12972TIP3   OH260406   5.209   3.105  12.193  0.7794  0.2319 -0.1052
12972TIP3    H160407   5.184   3.161  12.120  0.7742  0.7261  0.2722
12972TIP3    H260408   5.129   3.056  12.214  0.8319 -0.0507 -0.5466
12973TIP3   OH260409   0.591   1.640  10.924 -0.1235 -0.1314  0.3041
12973TIP3    H160410   0.682   1.671  10.931 -0.3508  0.3971  1.0273
12973TIP3    H260411   0.589   1.559  10.974  0.1856 -0.7028 -0.5813
12974TIP3   OH260412   5.998   3.268  11.227 -0.1666  0.8264  0.3451
12974TIP3    H160413   6.042   3.184  11.242 -3.2675 -0.9696  0.2613
12974TIP3    H260414   5.958   3.259  11.141 -0.6940  2.3669  0.4028
12975TIP3   OH260415   2.803   3.777  11.276  0.4450 -0.6477  0.1085
12975TIP3    H160416   2.745   3.749  11.346  0.9442 -1.7472  0.1045
12975TIP3    H260417   2.869   3.830  11.320 -0.3442  0.3157  0.1624
12976TIP3   OH260418   6.512   3.829   4.189  0.5251  0.3957  0.5509
12976TIP3    H160419   6.477   3.809   4.276  0.2324  1.1176  0.6056
12976TIP3    H260420   6.504   3.747   4.140  1.1230 -0.1441  1.3423
12977TIP3   OH260421   6.111   6.441  12.614 -0.3671 -0.0422  0.2556
12977TIP3    H160422   6.018   6.419  12.613 -0.5078  0.3192 -2.4231
12977TIP3    H260423   6.120   6.509  12.548  1.7862  0.1015  0.6227
12978TIP3   OH260424   3.043   1.411  17.144  0.0053  0.1747  0.0181
12978TIP3    H160425   3.000   1.436  17.062  0.4431  1.6948  0.2345
12978TIP3    H260426   3.131   1.447  17.138 -0.0506  0.5842  1.2878
12979TIP3   OH260427   1.538   2.052  12.528 -0.4599  0.6740  0.1890
12979TIP3    H160428   1.451   2.029  12.493  0.3681 -0.4228 -1.2799
12979TIP3    H260429   1.588   2.078  12.451  0.8340  0.2268  0.8543
12980TIP3   OH260430   5.733   4.546  14.043  0.2125 -0.1081  0.2431
12980TIP3    H160431   5.784   4.582  14.115  1.9907  0.6091 -1.2909
12980TIP3    H260432   5.798   4.513  13.982 -1.2909 -2.5158 -0.1682
12981TIP3   OH260433   2.874   1.968   5.732 -0.2404 -0.2971  0.0349
12981TIP3    H160434   2.953   1.928   5.769 -0.2948 -0.1941  0.2654
12981TIP3    H260435   2.882   2.061   5.753  0.4822  0.0365 -1.5581
12982TIP3   OH260436   4.881   5.036  11.122 -0.1374 -0.1714  0.1423
12982TIP3    H160437   4.837   5.026  11.038  0.1712  0.7150 -0.1394
12982TIP3    H260438   4.972   5.012  11.105  0.3849  1.8669 -0.3013
12983TIP3   OH260439   4.958   2.473  14.224 -0.4552  0.1424  0.2536
12983TIP3    H160440   4.954   2.377  14.225  0.6709  0.0517 -0.9848
12983TIP3    H260441   5.022   2.495  14.291  1.3238 -0.1712 -1.2506
12984TIP3   OH260442   6.568   4.512   5.766 -0.1794  0.7534 -0.1472
12984TIP3    H160443   6.505   4.500   5.837  1.1305 -0.2983  0.9022
12984TIP3    H260444   6.627   4.581   5.798  0.4143  0.2778 -0.2130
12985TIP3   OH260445   1.065   2.450  13.165 -0.5321 -0.1549  0.7215
12985TIP3    H160446   0.987   2.499  13.192 -0.9212 -0.7730  0.7572
12985TIP3    H260447   1.102   2.502  13.094 -1.2962 -0.1235  0.3249
12986TIP3   OH260448   0.285   6.316  15.097 -0.0775  0.2258  0.3200
12986TIP3    H160449   0.233   6.241  15.068 -0.3123  0.6651 -0.4065
12986TIP3    H260450   0.375   6.283  15.102 -0.1721 -0.0824 -0.0476
12987TIP3   OH260451   4.542   3.167  13.546  0.9080  0.2049 -0.6554
12987TIP3    H160452   4.629   3.174  13.506  0.9943  0.0975 -0.4900
12987TIP3    H260453   4.483   3.209  13.484  1.0529  0.1129 -0.8541
12988TIP3   OH260454   5.056   1.829  11.870  0.2913  0.3062  0.4336
12988TIP3    H160455   5.137   1.780  11.856  0.9922  1.4788  0.3009
12988TIP3    H260456   5.008   1.820  11.788 -0.7460 -2.1716  1.1987
12989TIP3   OH260457   0.629   1.081   6.407  0.0709  0.3769  0.2948
12989TIP3    H160458   0.713   1.111   6.371  0.6872 -0.3540  1.0974
12989TIP3    H260459   0.650   1.001   6.456 -1.1881 -0.1628  0.0154
12990TIP3   OH260460   1.979   6.496   1.698 -0.7103 -0.2879 -0.2421
12990TIP3    H160461   2.066   6.489   1.658  0.0214 -1.5665  1.4438
12990TIP3    H260462   1.973   6.586   1.728 -1.3011  0.7291 -3.1237
12991TIP3   OH260463   6.030   1.081  12.605 -0.0139 -0.0796 -0.2759
12991TIP3    H160464   5.970   1.135  12.657 -0.6828 -1.2270  0.1993
12991TIP3    H260465   6.014   1.107  12.515  0.4356  1.2329  0.0024
12992TIP3   OH260466   1.046   1.289   1.851 -0.2150  0.0505 -0.1086
12992TIP3    H160467   1.092   1.208   1.831  4.0850  1.1690  3.6977
12992TIP3    H260468   0.977   1.264   1.912 -0.5979 -0.9370 -0.9134
12993TIP3   OH260469   6.628   1.117  12.976 -0.4488  0.2662  0.1898
12993TIP3    H160470   6.686   1.066  13.033  1.0076  1.0753 -0.5341
12993TIP3    H260471   6.658   1.207  12.985 -1.8309  0.7662  0.0529
12994TIP3   OH260472   1.862   2.111   0.259 -1.0152  1.0342 -0.1521
12994TIP3    H160473   1.897   2.199   0.242 -1.7081  1.0432 -1.6603
12994TIP3    H260474   1.879   2.097   0.352  0.6654  2.0666 -0.2461
12995TIP3   OH260475   6.599   3.604  14.517  0.5543 -0.3745 -0.3187
12995TIP3    H160476   6.573   3.685  14.561 -0.2359 -1.4728  1.3201
12995TIP3    H260477   6.691   3.619  14.493 -0.2055  1.8942 -2.2853
12996TIP3   OH260478   2.298   0.197   3.464 -0.3320 -0.2857  0.2026
12996TIP3    H160479   2.226   0.258   3.477 -1.4081 -1.5314  0.3131
12996TIP3    H260480   2.264   0.132   3.402  1.0944 -0.2673 -0.6325
12997TIP3   OH260481   5.159   4.114   5.323  0.1506 -0.3180 -0.1267
12997TIP3    H160482   5.101   4.166   5.269  0.6289 -0.7687 -1.1019
12997TIP3    H260483   5.205   4.178   5.377  0.2583  0.2211 -0.8416
12998TIP3   OH260484   0.331   3.614   1.426 -1.2127 -0.4277 -0.1438
12998TIP3    H160485   0.335   3.707   1.403 -0.4295  0.1171  1.9611
12998TIP3    H260486   0.238   3.592   1.423 -1.7687  1.2750  2.2891
12999TIP3   OH260487   6.051   2.713  13.813  0.1074 -0.5293 -0.5508
12999TIP3    H160488   5.970   2.664  13.830 -1.3374  2.1616  1.0094
12999TIP3    H260489   6.023   2.790  13.765  1.4863  1.1532  1.1968
13000TIP3   OH260490   2.712   1.115   6.218 -0.1514 -0.1362  0.0655
13000TIP3    H160491   2.732   1.190   6.274 -0.3743  0.5188 -0.7113
13000TIP3    H260492   2.718   1.150   6.129  1.3333 -1.4099 -0.3837
13001TIP3   OH260493   3.399   4.403   2.349 -0.4125  0.1953  0.1265
13001TIP3    H160494   3.446   4.486   2.358  1.1724 -0.6160 -0.3145
13001TIP3    H260495   3.468   4.336   2.353 -1.5614 -1.0563 -0.3675
13002TIP3   OH260496   1.332   5.707  14.685  0.4450  0.6901 -0.4996
13002TIP3    H160497   1.361   5.681  14.597 -0.6093  1.4367 -1.0978
13002TIP3    H260498   1.406   5.686  14.742  0.5712 -1.2459 -1.3126
13003TIP3   OH260499   3.554   3.941   2.939 -0.2341 -0.1893  0.0263
13003TIP3    H160500   3.547   4.004   2.868 -0.1336  0.0197  0.1983
13003TIP3    H260501   3.487   3.876   2.921  1.0464 -1.2003 -1.3214
13004TIP3   OH260502   5.821   1.412   4.930  0.1682  0.0421 -1.0553
13004TIP3    H160503   5.830   1.319   4.952 -0.1282  0.3693  0.5909
13004TIP3    H260504   5.780   1.451   5.007  3.0140  2.0961 -0.3866
13005TIP3   OH260505   0.927   4.984  15.337 -0.7306  0.1903 -0.0620
13005TIP3    H160506   0.964   5.073  15.341  1.5729 -0.7407  1.6352
13005TIP3    H260507   0.985   4.937  15.278 -0.9441 -0.6114  0.3623
13006TIP3   OH260508   6.472   5.489  12.576  0.2427 -0.4866  0.4234
13006TIP3    H160509   6.406   5.420  12.574  0.7918 -1.1292  2.2645
13006TIP3    H260510   6.517   5.482  12.492 -2.1739  0.1649 -1.0137
13007TIP3   OH260511   2.161   3.622  12.554 -0.0544 -0.1585  0.0005
13007TIP3    H160512   2.172   3.546  12.497 -0.8115  0.3786 -0.9008
13007TIP3    H260513   2.220   3.606  12.628  1.2258 -0.7188 -1.0908
13008TIP3   OH260514   1.295   1.932  14.994 -0.2076  1.0427 -0.5731
13008TIP3    H160515   1.308   2.019  15.032 -0.4522  0.3957  1.0697
13008TIP3    H260516   1.366   1.879  15.031 -1.1442  0.1051 -0.0713
13009TIP3   OH260517   5.551   4.740  14.803  0.3023  0.3689 -0.0387
13009TIP3    H160518   5.456   4.754  14.794  0.4245 -0.1006 -2.9159
13009TIP3    H260519   5.589   4.827  14.795  0.1701  0.6165  1.5328
13010TIP3   OH260520   3.762   5.849   2.205  0.1450  0.2135 -0.5118
13010TIP3    H160521   3.692   5.835   2.268  1.2686  0.0550  0.7308
13010TIP3    H260522   3.826   5.902   2.251  1.4473 -0.7170 -1.1897
13011TIP3   OH260523   5.623   1.919  10.886  0.3345 -0.1597  0.1429
13011TIP3    H160524   5.569   1.955  10.816  2.1589  0.1689 -1.1835
13011TIP3    H260525   5.701   1.974  10.887  1.9937 -2.3654 -0.1069
13012TIP3   OH260526   5.747   5.444   3.396  0.0427  0.5639  0.3437
13012TIP3    H160527   5.741   5.537   3.373  1.7548  0.4643 -0.6468
13012TIP3    H260528   5.657   5.412   3.385 -0.3885  1.8740 -0.2583
13013TIP3   OH260529   4.689   2.843  13.337 -0.3638  0.4321 -0.2206
13013TIP3    H160530   4.770   2.884  13.308  0.4755 -0.0823  1.2915
13013TIP3    H260531   4.644   2.817  13.256  1.3121  0.0791 -1.0687
13014TIP3   OH260532   3.390   3.433   5.547 -0.1656 -0.1812 -0.3419
13014TIP3    H160533   3.332   3.372   5.593  0.5737  0.7955  2.0455
13014TIP3    H260534   3.455   3.376   5.504  0.8428 -1.1713  2.2738
13015TIP3   OH260535   1.677   2.302   5.691  0.4829 -0.0867 -0.2973
13015TIP3    H160536   1.752   2.356   5.667  1.3665 -0.8226  0.7070
13015TIP3    H260537   1.655   2.255   5.610 -1.7619  3.2693 -1.9086
13016TIP3   OH260538   4.516   5.108   1.512 -0.4403  0.2830 -0.1669
13016TIP3    H160539   4.476   5.022   1.527  1.3206 -0.5843 -0.0828
13016TIP3    H260540   4.463   5.148   1.444 -2.6093  0.0788  1.3170
13017TIP3   OH260541   1.986   5.532  16.162  0.0318 -0.3880  0.3281
13017TIP3    H160542   1.898   5.550  16.129 -0.0356 -0.3795  0.5101
13017TIP3    H260543   2.039   5.518  16.083  0.2890  1.5040  0.1017
13018TIP3   OH260544   2.259   2.273  15.192  0.0152  0.1893  0.2076
13018TIP3    H160545   2.343   2.227  15.200 -1.7777 -3.7000 -0.7760
13018TIP3    H260546   2.232   2.287  15.283  0.8600 -0.2440  0.5449
13019TIP3   OH260547   3.656   1.499  14.432 -1.1707  0.1912  0.1790
13019TIP3    H160548   3.655   1.495  14.528 -0.8116 -0.6534  0.1633
13019TIP3    H260549   3.729   1.557  14.412 -1.4955  0.6872  0.4210
13020TIP3   OH260550   3.275   1.959  12.465  0.2225 -0.3643  0.1613
13020TIP3    H160551   3.367   1.936  12.452 -0.0929 -1.4299 -0.3105
13020TIP3    H260552   3.277   2.043  12.510  1.4307 -0.5534  0.4896
13021TIP3   OH260553   5.074   2.651  15.959  0.2295  0.0506 -0.0681
13021TIP3    H160554   5.130   2.576  15.979  1.4882  0.7144 -0.9442
13021TIP3    H260555   4.986   2.624  15.984  0.4327 -2.1999 -1.5628
13022TIP3   OH260556   5.151   1.852  10.145  0.4557  0.0349  0.3575
13022TIP3    H160557   5.153   1.757  10.159 -0.5521  0.2292  2.0793
13022TIP3    H260558   5.059   1.873  10.135  0.5413  1.0001  1.3880
13023TIP3   OH260559   2.998   5.416  13.334  0.1152  0.0550 -0.7513
13023TIP3    H160560   2.947   5.484  13.377  0.5576 -0.0293 -0.0862
13023TIP3    H260561   3.068   5.394  13.396  1.3718  0.6376 -1.9029
13024TIP3   OH260562   0.336   1.354   4.643  0.5311 -0.2333  0.5850
13024TIP3    H160563   0.334   1.445   4.616  1.1743 -0.8485 -1.7849
13024TIP3    H260564   0.246   1.324   4.635  0.6176 -0.2536 -0.4582
13025TIP3   OH260565   1.307   1.188  16.307  0.5032  0.0770  0.1462
13025TIP3    H160566   1.241   1.245  16.268 -0.1392 -1.0813 -0.5115
13025TIP3    H260567   1.370   1.248  16.346 -1.2463  1.2323  1.3749
13026TIP3   OH260568   5.666   2.826   3.536  0.4530 -0.6173 -0.2106
13026TIP3    H160569   5.704   2.783   3.460 -0.2684  0.1903 -1.0442
13026TIP3    H260570   5.700   2.915   3.533  0.0727 -0.4531  0.1607
13027TIP3   OH260571   5.949   2.431  11.698  0.0783 -0.3668  0.0097
13027TIP3    H160572   6.040   2.450  11.677  0.0594 -2.3822 -2.4736
13027TIP3    H260573   5.951   2.395  11.786  2.1369 -2.7529 -0.8918
13028TIP3   OH260574   5.256   3.912   3.233  0.7840 -0.0416  0.8846
13028TIP3    H160575   5.277   3.967   3.157 -2.1955 -2.1857 -1.7856
13028TIP3    H260576   5.304   3.830   3.217  0.0858 -0.5384  1.2687
13029TIP3   OH260577   1.993   2.308  16.396 -0.0004  0.2001 -0.3412
13029TIP3    H160578   1.965   2.348  16.314  0.3967  0.1446 -0.5116
13029TIP3    H260579   1.938   2.347  16.463  0.5112  1.1810 -0.4733
13030TIP3   OH260580   2.558   4.546  16.388 -0.1018 -0.0096 -0.3043
13030TIP3    H160581   2.650   4.568  16.380  0.0011 -0.4890 -0.4565
13030TIP3    H260582   2.514   4.599  16.322  0.0299  0.4309 -0.0385
13031TIP3   OH260583   6.243   0.830   3.570 -0.3944 -0.5136  0.0955
13031TIP3    H160584   6.208   0.905   3.523 -0.1413 -0.5567 -0.1670
13031TIP3    H260585   6.248   0.858   3.661  1.0156  0.2895 -0.1921
13032TIP3   OH260586   2.532   0.830  12.019  0.1115  0.7307 -0.4417
13032TIP3    H160587   2.487   0.904  12.060 -1.0544  0.8214 -1.8062
13032TIP3    H260588   2.572   0.783  12.092 -0.7037  1.6551  0.6444
13033TIP3   OH260589   3.940   0.934   1.246  0.0530 -0.1547 -0.0864
13033TIP3    H160590   3.956   0.940   1.341  0.5512  2.0915 -0.2432
13033TIP3    H260591   3.982   1.013   1.210 -1.2964 -0.2471 -2.0155
13034TIP3   OH260592   0.980   4.083  16.336  0.2772  0.1512  0.0717
13034TIP3    H160593   0.939   4.094  16.422  3.7739 -2.6616  2.3280
13034TIP3    H260594   0.949   3.998  16.305  0.9533  0.0456 -0.3248
13035TIP3   OH260595   2.294   1.326   3.090 -0.0483  0.3509  0.3066
13035TIP3    H160596   2.208   1.286   3.077 -1.1535  2.2412  1.4123
13035TIP3    H260597   2.294   1.404   3.035  0.0545  1.5984  2.0155
13036TIP3   OH260598   0.830   6.662  15.370  0.0599 -0.1973 -0.0715
13036TIP3    H160599   0.779   6.713  15.434  0.0156 -1.9359  1.3347
13036TIP3    H260600   0.907   6.633  15.418 -0.0718 -1.7120 -0.7306
13037TIP3   OH260601   1.681   3.756   4.298  0.1773 -0.1062  0.7423
13037TIP3    H160602   1.687   3.753   4.202  1.5266 -0.3202  0.8083
13037TIP3    H260603   1.589   3.741   4.317 -0.2166  0.5437 -0.5433
13038TIP3   OH260604   0.477   4.853   4.625 -0.3179  0.2264 -0.4848
13038TIP3    H160605   0.446   4.831   4.537  0.2140  1.0413 -0.8986
13038TIP3    H260606   0.544   4.788   4.644 -1.2828 -0.6968 -0.1626
13039TIP3   OH260607   6.825   1.759   3.296 -0.2248 -0.4373 -0.2692
13039TIP3    H160608   6.781   1.815   3.233 -1.5638 -1.4908 -0.3382
13039TIP3    H260609   6.912   1.744   3.260  0.6113  2.4736  0.3253
13040TIP3   OH260610   5.110   0.925  10.561 -0.1312  0.6149 -0.3585
13040TIP3    H160611   5.168   0.954  10.631  0.1045  0.9943 -0.6986
13040TIP3    H260612   5.042   0.993  10.556 -0.1425  0.5945 -0.5015
13041TIP3   OH260613   6.468   3.337  12.276 -0.3051 -0.2136  0.9759
13041TIP3    H160614   6.549   3.340  12.225 -0.3182  0.1271  0.9721
13041TIP3    H260615   6.496   3.349  12.367 -0.3995  0.4685  0.9212
13042TIP3   OH260616   1.094   1.280   4.478  0.2710 -0.0547 -0.5317
13042TIP3    H160617   1.176   1.253   4.518 -2.1271 -2.4934  3.4858
13042TIP3    H260618   1.090   1.375   4.494  2.0625  0.0407 -0.4713
13043TIP3   OH260619   3.269   4.635  16.573  0.3249  0.7854 -0.4560
13043TIP3    H160620   3.183   4.609  16.608  0.4667 -1.0425 -1.3661
13043TIP3    H260621   3.331   4.603  16.638  0.3692  1.4059 -0.1866
13044TIP3   OH260622   0.050   6.682   4.088  0.7558 -0.4376 -0.4116
13044TIP3    H160623   0.012   6.682   4.000 -0.2532  1.2333 -0.0423
13044TIP3    H260624   0.030   6.770   4.121  0.9467 -1.0958  1.5446
13045TIP3   OH260625   5.640   3.059  17.050 -0.1591  0.3602 -0.1257
13045TIP3    H160626   5.733   3.077  17.060 -0.2706  0.0713  1.5830
13045TIP3    H260627   5.629   2.968  17.077 -0.9588  0.4334 -0.1668
13046TIP3   OH260628   2.892   6.089  13.593 -0.4038 -0.3933  0.2950
13046TIP3    H160629   2.864   6.111  13.504  0.6793 -1.1639 -0.2564
13046TIP3    H260630   2.865   6.165  13.645 -2.5077 -0.6193 -0.3546
13047TIP3   OH260631   6.732   5.696   0.805 -0.3698  0.1977  0.3412
13047TIP3    H160632   6.641   5.720   0.823 -0.4681 -0.1956  0.3761
13047TIP3    H260633   6.764   5.766   0.748 -0.8092  0.1321  0.0064
13048TIP3   OH260634   5.306   1.757   0.378  0.1313 -0.5846  0.0957
13048TIP3    H160635   5.285   1.785   0.467  1.7060 -0.7306  0.5344
13048TIP3    H260636   5.221   1.731   0.341 -0.8038  1.0248  0.9766
13049TIP3   OH260637   6.623   2.764   2.059 -0.1339  0.0869 -0.7904
13049TIP3    H160638   6.536   2.748   2.096 -0.4614 -0.7397 -1.8968
13049TIP3    H260639   6.680   2.765   2.136 -0.7266 -2.0638 -0.2452
13050TIP3   OH260640   6.068   4.206  16.520  0.7153  0.0447 -0.2779
13050TIP3    H160641   6.042   4.277  16.579 -0.0144 -0.4422  0.0117
13050TIP3    H260642   6.065   4.245  16.433 -0.5632  0.1491 -0.2058
13051TIP3   OH260643   4.075   1.697  12.813  0.2967 -0.1153  0.3849
13051TIP3    H160644   3.998   1.639  12.818  0.7315 -0.9969 -1.8630
13051TIP3    H260645   4.095   1.717  12.905 -2.4770  0.0061  1.0635
13052TIP3   OH260646   2.290   0.847  15.417  0.3889 -0.3640 -0.0962
13052TIP3    H160647   2.367   0.797  15.446 -0.9956 -3.0903 -0.7427
13052TIP3    H260648   2.248   0.875  15.499 -0.3126 -2.8620  0.4931
13053TIP3   OH260649   1.464   5.649  15.563 -0.6347  0.5428 -0.3397
13053TIP3    H160650   1.380   5.656  15.518 -0.2959 -0.0309 -1.1023
13053TIP3    H260651   1.451   5.580  15.628 -0.7254  0.3588 -0.5495
13054TIP3   OH260652   6.287   3.947  15.490  0.2749  1.1955  0.6395
13054TIP3    H160653   6.309   4.025  15.440  0.9536  0.7690  0.2560
13054TIP3    H260654   6.362   3.888  15.477  0.5262  1.1181  2.2569
13055TIP3   OH260655   4.235   5.976   3.788 -0.4047 -0.6095  0.5483
13055TIP3    H160656   4.176   6.049   3.805 -1.8842 -2.1818  2.8280
13055TIP3    H260657   4.256   5.942   3.876  3.6888 -0.3785 -0.1326
13056TIP3   OH260658   6.727   1.631   0.370 -0.1377  0.2072 -0.2114
13056TIP3    H160659   6.646   1.641   0.421 -0.3641  1.9603 -0.8240
13056TIP3    H260660   6.696   1.625   0.279  0.4025  0.9277 -0.4516
13057TIP3   OH260661   1.241   6.405  13.367  0.2099 -0.1156  0.3808
13057TIP3    H160662   1.261   6.415  13.274 -0.0974 -2.4518 -0.0017
13057TIP3    H260663   1.325   6.387  13.409  0.2911  0.5289  0.5059
13058TIP3   OH260664   0.129   4.587   6.401  0.0042  0.2628 -0.4452
13058TIP3    H160665   0.046   4.589   6.449  0.7111  1.5056  0.8075
13058TIP3    H260666   0.137   4.497   6.370 -1.4334 -0.0718  0.0567
13059TIP3   OH260667   5.895   2.743  15.267  0.6017 -0.4478 -0.8606
13059TIP3    H160668   5.990   2.745  15.265  0.6595  1.4132  0.5985
13059TIP3    H260669   5.868   2.794  15.190  0.8258  0.1590 -0.5412
13060TIP3   OH260670   0.722   3.097  14.785  0.2480 -0.2443  0.6338
13060TIP3    H160671   0.689   3.080  14.873  1.5077 -0.4090  1.0960
13060TIP3    H260672   0.698   3.020  14.735  0.3395 -0.5665  1.0765
13061TIP3   OH260673   5.694   5.799   6.324  0.2546  0.5611 -0.7647
13061TIP3    H160674   5.726   5.733   6.385 -1.0854  0.7641  0.2147
13061TIP3    H260675   5.608   5.765   6.297 -1.0061  2.4038  0.6732
13062TIP3   OH260676   6.517   2.250  16.400  0.1300  0.2485  0.2148
13062TIP3    H160677   6.533   2.290  16.314  1.2063 -1.0033 -0.1945
13062TIP3    H260678   6.457   2.178  16.382 -0.1073  0.3511  0.6045
13063TIP3   OH260679   3.374   5.158   0.922 -0.2348 -0.2755  0.5748
13063TIP3    H160680   3.391   5.120   1.009 -1.1360 -1.0626  0.4273
13063TIP3    H260681   3.278   5.163   0.916 -0.3483 -2.8011 -1.4007
13064TIP3   OH260682   1.954   0.601   2.734 -0.1340  0.2252  0.4031
13064TIP3    H160683   2.045   0.617   2.758  0.1080 -0.9620  0.3369
13064TIP3    H260684   1.904   0.626   2.811  0.2874  0.4222  0.6168
13065TIP3   OH260685   6.466   5.406  10.913 -0.4515  0.2660 -0.4937
13065TIP3    H160686   6.555   5.374  10.926 -0.3882  0.9789  0.9893
13065TIP3    H260687   6.453   5.401  10.818  1.0963 -0.0020 -0.7237
13066TIP3   OH260688   2.735   1.204  16.699  1.4012  0.2009 -1.0566
13066TIP3    H160689   2.709   1.199  16.607 -1.7893 -0.1346 -0.2573
13066TIP3    H260690   2.690   1.131  16.740  1.8271  1.0216  0.9746
13067TIP3   OH260691   0.610   6.144   6.041  0.4224 -0.3751 -0.3512
13067TIP3    H160692   0.557   6.192   5.977  1.3546 -0.3043 -1.0962
13067TIP3    H260693   0.696   6.186   6.037  0.2288  0.3310  1.7500
13068TIP3   OH260694   0.004   5.945   1.621  0.1826 -0.2296 -0.0977
13068TIP3    H160695   0.036   6.027   1.658  1.7483 -1.1777  0.7389
13068TIP3    H260696   0.075   5.913   1.566 -0.3230 -1.1163 -0.2742
13069TIP3   OH260697   1.402   6.087  15.288  0.1098  0.8246  0.2254
13069TIP3    H160698   1.494   6.076  15.266 -0.0450  1.1207 -0.5910
13069TIP3    H260699   1.389   6.032  15.365  0.7527  0.0860 -0.1846
13070TIP3   OH260700   0.753   1.626  15.156  0.4177  0.1770  0.4946
13070TIP3    H160701   0.827   1.577  15.193 -0.5294 -0.8885  1.0709
13070TIP3    H260702   0.722   1.571  15.083  0.0302  0.4661  0.4388
13071TIP3   OH260703   2.563   0.346   3.175 -0.2490  0.5732  0.4734
13071TIP3    H160704   2.546   0.266   3.225  0.5044 -1.1401 -1.8207
13071TIP3    H260705   2.477   0.372   3.142 -0.5984  1.1418  1.7833
13072TIP3   OH260706   1.966   4.354  13.648 -0.4046 -0.2433 -0.8107
13072TIP3    H160707   2.005   4.270  13.674  2.9917  1.6597  0.8832
13072TIP3    H260708   2.026   4.389  13.583 -1.6229  1.0744 -1.2866
13073TIP3   OH260709   4.535   0.647  13.500  0.1416 -0.1426  0.6686
13073TIP3    H160710   4.479   0.588  13.449  2.1397  0.2920 -2.2947
13073TIP3    H260711   4.533   0.730  13.452  3.0530 -0.0400  0.5213
13074TIP3   OH260712   6.180   4.423  15.842 -0.2538 -0.3942  0.1879
13074TIP3    H160713   6.208   4.376  15.921 -2.3675 -1.8480  0.1431
13074TIP3    H260714   6.138   4.502  15.875  1.0246  0.2353  0.3756
13075TIP3   OH260715   0.909   4.345  16.357  0.6465 -0.4815  0.3158
13075TIP3    H160716   0.910   4.253  16.332 -0.7093 -0.3876 -0.1906
13075TIP3    H260717   0.982   4.384  16.307  0.7970 -1.1494  0.0036
13076TIP3   OH260718   3.746   5.568   0.030  0.4622  0.5494 -0.2869
13076TIP3    H160719   3.751   5.526   0.116 -1.1097 -1.9423 -1.3151
13076TIP3    H260720   3.837   5.592   0.010  1.4942 -2.3021  0.4911
13077TIP3   OH260721   4.322   6.290  12.667 -1.0082  0.0180  0.3237
13077TIP3    H160722   4.243   6.238  12.656 -0.9105  0.3309 -2.5311
13077TIP3    H260723   4.368   6.282  12.583  1.1414  1.2264  1.3075
13078TIP3   OH260724   1.326   3.302  14.236 -0.1455 -0.3263  0.3442
13078TIP3    H160725   1.316   3.331  14.145 -2.1223 -0.6838  0.4179
13078TIP3    H260726   1.403   3.244  14.233 -0.4633 -0.7168 -1.2012
13079TIP3   OH260727   0.427   6.317   5.929  0.0504  0.2099 -0.1584
13079TIP3    H160728   0.460   6.407   5.931 -0.8547  0.5709 -0.9128
13079TIP3    H260729   0.332   6.326   5.919 -0.6387 -0.7434  3.7242
13080TIP3   OH260730   0.416   1.420   5.438  0.1293 -0.4822 -0.6999
13080TIP3    H160731   0.405   1.360   5.512 -1.0397  0.4933 -0.0602
13080TIP3    H260732   0.327   1.448   5.416  0.6994  2.0206 -0.1398
13081TIP3   OH260733   1.366   5.767  13.549 -0.2142  0.0887  0.4130
13081TIP3    H160734   1.429   5.807  13.609  1.1507 -1.6366  0.2239
13081TIP3    H260735   1.325   5.698  13.600  0.5380 -1.0108 -0.4237
13082TIP3   OH260736   5.423   5.140  14.861  0.2162  0.1183  0.0793
13082TIP3    H160737   5.450   5.089  14.937 -0.3694 -1.8410 -0.9760
13082TIP3    H260738   5.488   5.119  14.794 -0.3961  0.2706 -0.5694
13083TIP3   OH260739   0.352   4.689   0.519  0.2231 -0.3804  0.4113
13083TIP3    H160740   0.427   4.657   0.469  1.8478  0.1179  2.3912
13083TIP3    H260741   0.327   4.770   0.475  2.2507  0.5854  0.9082
13084TIP3   OH260742   6.829   1.000  11.359  0.3851 -0.0734 -0.0565
13084TIP3    H160743   6.917   0.997  11.322  0.0778 -0.8193 -0.7590
13084TIP3    H260744   6.770   0.996  11.284 -0.3061  2.7230  0.2233
13085TIP3   OH260745   5.905   4.213  17.121  0.2076 -0.0334 -0.1177
13085TIP3    H160746   5.996   4.236  17.142 -0.1050  0.6010  0.6271
13085TIP3    H260747   5.854   4.290  17.148 -0.4748 -0.0694 -1.2463
13086TIP3   OH260748   3.727   0.128  16.260  0.6130  0.2683  1.0571
13086TIP3    H160749   3.659   0.191  16.287  0.4535  1.3708 -1.5748
13086TIP3    H260750   3.804   0.182  16.244  0.6330 -0.2253 -0.7146
13087TIP3   OH260751   1.106   6.247  15.976  0.3595  0.2456  0.4339
13087TIP3    H160752   1.106   6.157  15.945  0.8654  0.2167  0.5052
13087TIP3    H260753   1.015   6.266  15.996  0.2304 -0.2010  0.2749
13088TIP3   OH260754   2.388   1.397  14.296 -0.2973  0.1219  0.4956
13088TIP3    H160755   2.353   1.391  14.207 -0.2195  0.3047  0.4510
13088TIP3    H260756   2.483   1.402  14.284 -0.2206 -0.9098  0.6442
13089TIP3   OH260757   3.526   6.794  13.794 -0.5702  0.3455  0.9743
13089TIP3    H160758   3.467   6.855  13.839 -1.7986 -0.3628  0.3666
13089TIP3    H260759   3.579   6.755  13.864 -0.0467  1.7752  1.4185
13090TIP3   OH260760   3.026   3.764  15.387  0.4637  0.3874  0.0888
13090TIP3    H160761   3.028   3.806  15.301 -1.6266 -1.8926 -1.2184
13090TIP3    H260762   2.937   3.776  15.418  0.7507 -0.2153  1.2015
13091TIP3   OH260763   3.424   5.422  15.367  0.4846 -0.5061 -0.0422
13091TIP3    H160764   3.353   5.398  15.308 -0.7786 -1.2510  1.6857
13091TIP3    H260765   3.400   5.383  15.451  1.9221  0.9618  1.1321
13092TIP3   OH260766   2.155   5.701  13.771 -0.2124 -0.3084  0.5796
13092TIP3    H160767   2.087   5.634  13.772  0.2691 -0.7959  0.7415
13092TIP3    H260768   2.230   5.660  13.814 -0.3054  0.7509  1.8118
13093TIP3   OH260769   4.785   1.399   0.697  0.1249 -0.2124  0.4758
13093TIP3    H160770   4.704   1.372   0.653  0.5901 -0.0885 -0.4978
13093TIP3    H260771   4.759   1.472   0.753 -0.1756  0.9718 -1.1124
13094TIP3   OH260772   1.129   2.580   0.050 -0.0375  0.2135  0.2308
13094TIP3    H160773   1.094   2.494   0.026 -2.9294  0.9695  1.3069
13094TIP3    H260774   1.107   2.636  -0.024  1.7218  0.1237 -0.4072
13095TIP3   OH260775   0.464   5.818  11.216  0.6609 -0.0619  0.2282
13095TIP3    H160776   0.403   5.890  11.236  1.0717 -0.1020  1.7215
13095TIP3    H260777   0.494   5.838  11.127 -0.1649  0.9393  0.1388
13096TIP3   OH260778   3.369   2.647  11.805 -0.0956  0.0728  0.0014
13096TIP3    H160779   3.421   2.667  11.883  1.1742 -1.7612 -0.3231
13096TIP3    H260780   3.282   2.626  11.839 -0.3809  2.0864  0.6450
13097TIP3   OH260781   6.126   3.391  13.770 -0.1134  0.3484 -0.7340
13097TIP3    H160782   6.085   3.459  13.824 -0.1788 -0.0563 -0.2658
13097TIP3    H260783   6.055   3.328  13.755  0.0032  0.2785 -0.9911
13098TIP3   OH260784   0.987   0.020  15.860  0.2152  0.7205 -0.6952
13098TIP3    H160785   1.067  -0.032  15.872  0.5094  1.1317 -0.8274
13098TIP3    H260786   0.964   0.049  15.949 -1.2629 -1.4973 -0.2745
13099TIP3   OH260787   3.568   4.560  11.839 -0.1793 -0.2692 -0.1469
13099TIP3    H160788   3.478   4.528  11.842 -0.9815  1.3494 -3.1860
13099TIP3    H260789   3.577   4.612  11.920 -1.9951 -0.3952  0.1784
13100TIP3   OH260790   5.900   4.837   3.891  0.7211 -0.6870  0.3015
13100TIP3    H160791   5.973   4.828   3.830  0.1995 -0.5760 -0.3503
13100TIP3    H260792   5.926   4.909   3.949  0.6911  0.0636 -0.5855
13101TIP3   OH260793   3.633   0.148  15.020  0.3070  0.1901 -0.1208
13101TIP3    H160794   3.576   0.220  14.993 -0.4917 -0.6669 -0.8312
13101TIP3    H260795   3.680   0.181  15.096 -1.5764  0.7557  0.8668
13102TIP3   OH260796   3.864   2.344  16.642 -0.3911  0.1238  0.1872
13102TIP3    H160797   3.921   2.270  16.665 -0.8810 -0.1382  0.5882
13102TIP3    H260798   3.800   2.347  16.713 -0.8500  0.4417 -0.2353
13103TIP3   OH260799   4.218   1.584  11.316 -0.0823 -0.1724 -0.0421
13103TIP3    H160800   4.225   1.659  11.257  1.1436 -0.3023 -0.0703
13103TIP3    H260801   4.306   1.570  11.349 -0.2832 -1.6292 -0.0510
13104TIP3   OH260802   5.512   2.679  12.519 -0.1912 -0.0382  0.1986
13104TIP3    H160803   5.556   2.683  12.604 -0.6617 -1.1760  0.5070
13104TIP3    H260804   5.442   2.744  12.526 -1.3317 -1.3418  1.3553
13105TIP3   OH260805   1.254   1.307  11.496 -0.5178  0.4577 -0.0442
13105TIP3    H160806   1.337   1.280  11.535 -1.2356 -3.2237 -0.6663
13105TIP3    H260807   1.197   1.326  11.570  0.4680  1.7762  0.4078
13106TIP3   OH260808   0.083   3.711  15.429 -0.1955 -0.4264  0.4655
13106TIP3    H160809   0.094   3.631  15.480 -0.6358  0.4174  1.9366
13106TIP3    H260810   0.173   3.737  15.407 -0.0555 -1.4597 -0.3039
13107TIP3   OH260811   6.669   5.609  14.206  0.4353  0.2520  0.2835
13107TIP3    H160812   6.658   5.693  14.250  0.2711 -0.3596  1.4656
13107TIP3    H260813   6.606   5.551  14.249  1.7963 -0.9390  0.8036
13108TIP3   OH260814   3.344   1.363   0.065 -0.2426  0.3338 -0.4168
13108TIP3    H160815   3.389   1.383  -0.017  2.2232 -0.6816  0.6074
13108TIP3    H260816   3.321   1.270   0.059  0.0721  0.2193  0.0964
13109TIP3   OH260817   4.307   6.523  13.105  0.3468 -0.0018  0.0513
13109TIP3    H160818   4.396   6.496  13.083  0.5870 -0.3917  1.3594
13109TIP3    H260819   4.252   6.451  13.076  0.4816  0.1580 -0.5978
13110TIP3   OH260820   6.704   2.819   3.517  0.0583  0.0789  0.0005
13110TIP3    H160821   6.612   2.799   3.498  0.1979  1.1594 -2.2040
13110TIP3    H260822   6.752   2.743   3.484  0.0142 -0.1553  0.4677
13111TIP3   OH260823   0.160   5.328  15.753  0.3818 -0.1234 -0.0815
13111TIP3    H160824   0.195   5.263  15.692  2.2360  0.8579 -0.1058
13111TIP3    H260825   0.131   5.400  15.697 -2.0906 -1.0276 -0.0930
13112TIP3   OH260826   5.903   4.349   1.309  0.0175  0.5900  0.1979
13112TIP3    H160827   5.983   4.333   1.359 -0.6897  2.1237  1.9203
13112TIP3    H260828   5.935   4.373   1.221  1.6650  3.2965  1.3772
13113TIP3   OH260829   2.159   1.040  16.385 -0.1114 -0.2646 -0.1040
13113TIP3    H160830   2.152   1.135  16.389  1.7220 -0.1061  0.9169
13113TIP3    H260831   2.150   1.012  16.476  0.4764 -0.9430 -0.2476
13114TIP3   OH260832   3.317   6.846   0.801  0.4840 -0.6611 -0.4971
13114TIP3    H160833   3.297   6.774   0.742  2.4993 -0.0625 -2.0315
13114TIP3    H260834   3.390   6.814   0.854  1.5087  0.2751 -1.3101
13115TIP3   OH260835   5.994   0.593  16.485 -0.1307 -0.0952  0.2945
13115TIP3    H160836   6.044   0.674  16.473  0.1283 -0.2480  0.3205
13115TIP3    H260837   5.908   0.622  16.514 -0.9557  0.3281 -2.3649
13116TIP3   OH260838   4.160   2.241  15.813  0.2658 -0.3009  0.6289
13116TIP3    H160839   4.065   2.229  15.806  0.0665  1.3743  0.1280
13116TIP3    H260840   4.178   2.235  15.906 -0.1746 -1.5919  0.6531
13117TIP3   OH260841   4.784   6.840  13.235  0.2674  0.7133 -0.1375
13117TIP3    H160842   4.781   6.856  13.140  2.0449 -0.1493 -0.3918
13117TIP3    H260843   4.865   6.789  13.247 -0.1888  0.3942  1.7867
13118TIP3   OH260844   2.741   5.262   2.012  0.3618  0.9207 -0.3475
13118TIP3    H160845   2.830   5.229   2.026  0.1862 -0.0198 -1.3959
13118TIP3    H260846   2.698   5.195   1.960 -0.9141  1.4689 -0.0326
13119TIP3   OH260847   2.814   3.291   3.848 -0.0368  0.1875  0.0403
13119TIP3    H160848   2.845   3.228   3.782 -1.9731  0.8174 -1.5965
13119TIP3    H260849   2.825   3.376   3.805  1.3519  0.9190  1.7320
13120TIP3   OH260850   6.790   6.112   2.615  0.1310 -0.1590 -0.4591
13120TIP3    H160851   6.707   6.093   2.571  0.0173  0.8356 -0.6977
13120TIP3    H260852   6.809   6.033   2.665 -1.5865  0.0330  0.5924
13121TIP3   OH260853   1.981   2.938   1.049  0.1842 -0.0126  0.0948
13121TIP3    H160854   2.009   2.891   0.970 -2.4136 -0.4252 -0.6852
13121TIP3    H260855   1.887   2.919   1.056 -0.2947  2.4670  1.5832
13122TIP3   OH260856   3.390   4.412   4.296  0.5957  0.0271  0.3211
13122TIP3    H160857   3.471   4.453   4.327  0.6785 -0.8270  1.2919
13122TIP3    H260858   3.371   4.344   4.361 -1.5962  1.0228  0.8266
13123TIP3   OH260859   2.478   3.688   2.293  0.4149  0.7393 -0.1495
13123TIP3    H160860   2.494   3.644   2.210  0.7196 -1.3741  0.9584
13123TIP3    H260861   2.484   3.781   2.273  0.6432  0.2796 -2.4378
13124TIP3   OH260862   6.598   4.400   0.897 -0.2932 -0.0425 -0.1370
13124TIP3    H160863   6.640   4.317   0.877 -0.5507 -0.0602 -0.6070
13124TIP3    H260864   6.571   4.435   0.812 -0.8179  0.1857  0.1213
13125TIP3   OH260865   5.759   1.878  11.477  0.4531 -0.2651 -0.5937
13125TIP3    H160866   5.718   1.925  11.405 -1.0201 -0.6636 -0.0425
13125TIP3    H260867   5.800   1.946  11.530 -1.0292  0.3618 -0.1998
13126TIP3   OH260868   6.186   2.774  11.622  0.2860 -0.1868 -0.6346
13126TIP3    H160869   6.267   2.725  11.635  0.1199 -0.6870 -1.4710
13126TIP3    H260870   6.212   2.852  11.575  0.3455 -0.1237 -0.4988
13127TIP3   OH260871   4.151   0.086   3.538 -0.1901  0.1576 -0.4105
13127TIP3    H160872   4.130   0.092   3.445 -1.5760 -1.1908 -0.2233
13127TIP3    H260873   4.110   0.004   3.566 -0.6603  1.0407  1.6122
13128TIP3   OH260874   1.269   2.386   4.861 -0.4059  0.9432 -0.6885
13128TIP3    H160875   1.209   2.370   4.788 -0.6260 -1.8394 -0.0357
13128TIP3    H260876   1.269   2.304   4.910  3.0677  1.1703 -0.0047
13129TIP3   OH260877   4.587   1.050   5.488 -0.0870  0.0920  0.3402
13129TIP3    H160878   4.623   1.139   5.478 -0.1095  0.0543 -0.1066
13129TIP3    H260879   4.664   0.995   5.502 -0.0498  0.1478  0.3565
13130TIP3   OH260880   1.573   6.574  16.744 -0.2678 -1.0541 -0.5001
13130TIP3    H160881   1.520   6.516  16.688  1.3224 -2.7034 -0.4024
13130TIP3    H260882   1.648   6.520  16.769  0.5573  0.6250  0.8187
13131TIP3   OH260883   4.317   0.642   2.155 -0.3119  0.3077  0.2259
13131TIP3    H160884   4.248   0.639   2.221  0.1028  1.4082  0.7406
13131TIP3    H260885   4.307   0.729   2.115 -0.6879 -0.4264 -1.3178
13132TIP3   OH260886   2.969   2.986  15.814  0.0436  0.7942  0.2022
13132TIP3    H160887   3.057   2.952  15.833  0.1599  0.5708 -0.6551
13132TIP3    H260888   2.984   3.065  15.762 -0.2595  0.3577 -0.5696
13133TIP3   OH260889   3.494   0.600  14.974 -0.1648  0.0472 -0.1071
13133TIP3    H160890   3.490   0.577  15.067  0.2410  0.0540 -0.0857
13133TIP3    H260891   3.482   0.695  14.972  1.6536  0.3208  0.1030
13134TIP3   OH260892   6.639   3.218   1.291  0.0818 -0.2789 -0.3799
13134TIP3    H160893   6.727   3.217   1.251 -0.3360 -0.5085 -1.3338
13134TIP3    H260894   6.648   3.166   1.370  1.1550  0.9125  0.3222
13135TIP3   OH260895   1.108   6.607  12.263 -0.2852 -0.1711 -0.3571
13135TIP3    H160896   1.191   6.639  12.298  0.2491 -1.8492  0.0291
13135TIP3    H260897   1.072   6.680  12.213  1.5823  0.4831 -0.8032
13136TIP3   OH260898   0.661   2.561   2.956 -0.1332 -0.1439  0.3153
13136TIP3    H160899   0.684   2.548   3.048 -0.0544  1.1281  0.5015
13136TIP3    H260900   0.683   2.478   2.914 -0.2858 -0.7894  1.4605
13137TIP3   OH260901   3.936   1.630  15.226 -0.0074  0.0056 -0.2959
13137TIP3    H160902   3.947   1.710  15.175 -1.1385 -1.2117 -2.6207
13137TIP3    H260903   4.016   1.580  15.209  0.8461  0.6992  1.4163
13138TIP3   OH260904   5.030   0.258  14.965 -0.2555  0.2516  0.1076
13138TIP3    H160905   5.103   0.284  15.022  1.8465  0.1760 -2.3608
13138TIP3    H260906   5.014   0.166  14.988 -0.2139  0.5143  1.2704
13139TIP3   OH260907   3.833   0.816  12.599  0.1919  0.3305  0.4297
13139TIP3    H160908   3.791   0.799  12.684  5.0636  0.2534  3.1609
13139TIP3    H260909   3.842   0.911  12.595 -0.1635  0.3431 -0.0897
13140TIP3   OH260910   2.796   3.156   5.775 -0.0875 -0.3609  0.1233
13140TIP3    H160911   2.820   3.248   5.767  0.1540 -0.2753  1.5644
13140TIP3    H260912   2.725   3.144   5.712 -1.3851  1.2890  1.1898
13141TIP3   OH260913   0.654   1.201   5.088  0.4506 -0.1283  0.2744
13141TIP3    H160914   0.671   1.290   5.057 -1.2099  0.4648  0.9598
13141TIP3    H260915   0.559   1.198   5.102  0.6871 -1.4706  1.8903
13142TIP3   OH260916   2.360   3.151  16.130  0.1258 -0.5379  0.1024
13142TIP3    H160917   2.443   3.178  16.092 -0.0972 -3.4933 -2.8947
13142TIP3    H260918   2.319   3.232  16.159  2.6506  1.3487 -1.2744
13143TIP3   OH260919   0.087   6.695  10.095 -0.3268  0.2398 -0.3531
13143TIP3    H160920   0.022   6.760  10.068 -1.5111 -0.4696  0.6752
13143TIP3    H260921   0.170   6.729  10.062 -0.8837  2.3557  0.2579
13144TIP3   OH260922   0.640   2.349   2.562  0.3657 -0.2596  0.0114
13144TIP3    H160923   0.687   2.412   2.617 -0.7497  1.4146 -0.8595
13144TIP3    H260924   0.708   2.300   2.517  1.2807 -0.4668  1.5602
13145TIP3   OH260925   2.597   6.805   5.554 -0.3027 -0.1628  0.0406
13145TIP3    H160926   2.634   6.722   5.586 -0.0370 -0.5140 -1.1306
13145TIP3    H260927   2.665   6.870   5.570  0.3216 -0.5655 -0.9174
13146TIP3   OH260928   6.280   0.780  15.255 -0.3181  0.0173 -0.3573
13146TIP3    H160929   6.199   0.800  15.301 -0.0166  3.1278 -0.9197
13146TIP3    H260930   6.303   0.862  15.211  2.2393 -1.2532 -1.6219
13147TIP3   OH260931   1.009   5.734  13.245  0.2292 -0.6489 -0.4137
13147TIP3    H160932   0.927   5.686  13.252 -1.1188  1.4743 -0.8112
13147TIP3    H260933   1.077   5.666  13.248 -1.5283 -2.5069 -0.5943
13148TIP3   OH260934   1.425   1.139   2.095  0.0898  0.3151  0.2153
13148TIP3    H160935   1.476   1.215   2.067 -1.1614  0.9435 -0.5011
13148TIP3    H260936   1.358   1.129   2.027  0.7016 -1.9548 -0.1351
13149TIP3   OH260937   5.423   4.837   0.741 -0.0153 -0.3044 -0.1724
13149TIP3    H160938   5.453   4.926   0.760 -1.1515  0.5344 -2.0362
13149TIP3    H260939   5.499   4.782   0.760  1.4044  1.2831 -0.9057
13150TIP3   OH260940   4.833   2.520  15.922  0.5356 -0.0200  0.3630
13150TIP3    H160941   4.808   2.428  15.919  1.8449 -0.4062  0.8437
13150TIP3    H260942   4.755   2.565  15.954 -0.7514 -0.6847 -1.6325
13151TIP3   OH260943   4.432   0.276  16.466  0.1442  0.4012  0.2388
13151TIP3    H160944   4.487   0.201  16.487 -1.5553 -0.6588  1.1595
13151TIP3    H260945   4.462   0.346  16.525  0.5770 -0.1023  0.6210
13152TIP3   OH260946   2.329   1.627   5.760 -0.5564 -0.2114  0.1465
13152TIP3    H160947   2.269   1.564   5.721 -2.0156  1.0734  0.2101
13152TIP3    H260948   2.329   1.605   5.853 -1.6238  0.2822  0.2831
13153TIP3   OH260949   3.405   1.431   5.090  0.1059 -0.0061  0.1943
13153TIP3    H160950   3.490   1.464   5.062  0.2711 -1.6978 -1.3986
13153TIP3    H260951   3.417   1.410   5.183  1.0115  0.9701  0.3198
13154TIP3   OH260952   6.404   0.311   3.859  0.1995  0.5649  0.3214
13154TIP3    H160953   6.497   0.314   3.839  0.5736 -0.2941  1.8018
13154TIP3    H260954   6.382   0.401   3.883  0.8550  0.6036  0.8078
13155TIP3   OH260955   0.282   5.169   5.450 -0.4247 -0.1447  0.3650
13155TIP3    H160956   0.214   5.159   5.517  0.2900 -0.6805  1.0207
13155TIP3    H260957   0.267   5.257   5.414 -0.3708  0.4548  1.7358
13156TIP3   OH260958   0.610   4.112  10.943 -0.4351  0.0385 -0.0148
13156TIP3    H160959   0.629   4.045  10.877  1.3299  1.4037 -1.0015
13156TIP3    H260960   0.583   4.189  10.892  1.7214  1.3740  0.6910
13157TIP3   OH260961   3.880   1.548  17.069 -0.4734  0.3819  0.2551
13157TIP3    H160962   3.923   1.478  17.119 -0.2344  0.6722  0.4625
13157TIP3    H260963   3.868   1.511  16.982  2.2761  1.0619 -0.4916
13158TIP3   OH260964   3.401   5.563  11.149 -0.0624 -0.3891  0.0020
13158TIP3    H160965   3.494   5.575  11.167  0.3437 -0.0447 -2.0496
13158TIP3    H260966   3.399   5.493  11.083 -1.2571 -0.4149  0.0536
13159TIP3   OH260967   4.102   1.100  14.714  0.1343 -0.1965  0.7759
13159TIP3    H160968   4.158   1.026  14.741 -0.2152 -0.3119  1.2051
13159TIP3    H260969   4.022   1.088  14.764 -1.2480 -1.3948 -1.5655
13160TIP3   OH260970   4.452   5.627   2.516  0.6379  0.3093  0.0259
13160TIP3    H160971   4.492   5.556   2.465  0.3762 -1.6593  2.3798
13160TIP3    H260972   4.373   5.588   2.554  0.0918  2.0969  0.8290
13161TIP3   OH260973   5.554   3.870  16.579  0.3344 -0.5714  0.1171
13161TIP3    H160974   5.618   3.870  16.508  0.9769  0.3956  0.6692
13161TIP3    H260975   5.576   3.792  16.631  1.5352  0.1298  0.6938
13162TIP3   OH260976   3.164   3.793  16.125  0.3499 -0.1580 -0.3790
13162TIP3    H160977   3.165   3.798  16.221  0.8508 -1.7225 -0.2762
13162TIP3    H260978   3.228   3.859  16.097 -1.2891  1.8037  0.2206
13163TIP3   OH260979   5.438   4.779   4.103  0.5225  0.1442  0.7375
13163TIP3    H160980   5.432   4.753   4.011  0.3551  1.3848  0.3922
13163TIP3    H260981   5.469   4.700   4.147 -0.0535 -0.6809 -0.2713
13164TIP3   OH260982   3.368   3.634  16.779  0.0203  0.3171 -0.4282
13164TIP3    H160983   3.361   3.626  16.875 -0.7273  2.0936 -0.2853
13164TIP3    H260984   3.336   3.550  16.746  1.0283 -0.6331  0.8712
13165TIP3   OH260985   1.651   6.044   3.298  0.3143  0.3542  0.0120
13165TIP3    H160986   1.727   6.101   3.311  0.6964 -0.2719  0.5867
13165TIP3    H260987   1.579   6.089   3.343  0.5168  0.5838  0.1091
13166TIP3   OH260988   4.936   1.119   0.657 -0.6053 -0.8238  0.3193
13166TIP3    H160989   4.888   1.098   0.576  1.6911 -0.3839 -1.2595
13166TIP3    H260990   4.943   1.214   0.656 -1.0597 -0.7703  1.3891
13167TIP3   OH260991   3.957   0.935  13.517 -0.2186  0.2118  0.2059
13167TIP3    H160992   3.875   0.938  13.566 -0.1466  1.0141  0.2913
13167TIP3    H260993   3.974   0.842  13.503 -1.2509  0.0518 -0.0019
13168TIP3   OH260994   6.311   3.109   2.166  0.4583  0.1786 -0.3280
13168TIP3    H160995   6.286   3.173   2.099  0.4848  0.7016  0.1493
13168TIP3    H260996   6.335   3.031   2.117 -0.5389  0.1982 -0.8785
13169TIP3   OH260997   0.223   4.326   1.167  0.1526 -0.3670  0.1519
13169TIP3    H160998   0.215   4.421   1.175  0.4453 -0.2652 -0.7026
13169TIP3    H260999   0.256   4.298   1.252  2.0816  0.5387 -0.2418
13170TIP3   OH261000   3.879   4.272   1.351 -0.8292 -0.0317  0.6457
13170TIP3    H161001   3.886   4.179   1.331 -2.1627  0.2195 -1.2999
13170TIP3    H261002   3.946   4.313   1.296 -2.6351  0.4229 -1.3324
13171TIP3   OH261003   1.268   3.437  15.007 -0.1641 -0.3101  0.1640
13171TIP3    H161004   1.353   3.480  14.999 -0.6055  0.7247  0.8309
13171TIP3    H261005   1.260   3.416  15.100 -1.6348  1.8082  0.5981
13172TIP3   OH261006   2.821   6.091   1.402  0.5908  0.1994  0.2509
13172TIP3    H161007   2.847   6.171   1.357  1.6362 -1.2962 -1.9544
13172TIP3    H261008   2.823   6.023   1.335 -0.6313 -1.6445  1.9535
13173TIP3   OH261009   5.416   1.669   2.637 -0.0197  0.4216  0.0874
13173TIP3    H161010   5.389   1.646   2.726  1.0675 -1.1935  0.0475
13173TIP3    H261011   5.356   1.620   2.580  0.6256 -0.2359 -0.0364
13174TIP3   OH261012   4.321   5.091  16.832 -0.4326  0.2270  0.6129
13174TIP3    H161013   4.313   4.999  16.805  0.3048  0.1045  0.8080
13174TIP3    H261014   4.230   5.120  16.845 -0.8474  0.2476 -1.8464
13175TIP3   OH261015   1.993   2.258   4.028 -0.0477 -1.0542  0.1001
13175TIP3    H161016   1.906   2.295   4.008  0.4374  1.6767  2.3766
13175TIP3    H261017   1.976   2.192   4.095 -0.4810 -1.6243 -0.5563
13176TIP3   OH261018   1.269   4.641   2.404  0.0272  0.5746 -0.4769
13176TIP3    H161019   1.275   4.556   2.360 -0.9578  0.3679 -0.2397
13176TIP3    H261020   1.315   4.701   2.346  1.3135 -0.2378 -0.3281
13177TIP3   OH261021   4.760   3.041  16.984 -0.5339  0.0555 -0.6099
13177TIP3    H161022   4.670   3.025  16.957  0.5687 -3.5089 -2.9573
13177TIP3    H261023   4.793   3.104  16.921 -0.8258 -0.2078 -1.0293
13178TIP3   OH261024   0.751   1.648  10.561 -0.1504  0.2327 -0.2588
13178TIP3    H161025   0.739   1.738  10.591 -2.2852 -0.3351  0.7668
13178TIP3    H261026   0.777   1.600  10.640  0.4756 -0.1455 -0.6893
13179TIP3   OH261027   4.473   2.771   0.454  0.4168 -0.3938 -0.0167
13179TIP3    H161028   4.534   2.734   0.390  2.4492 -0.3627  1.7946
13179TIP3    H261029   4.430   2.695   0.492  2.1677 -0.7623  1.3583
13180TIP3   OH261030   4.328   4.592  16.550 -0.3085  0.0827  0.6273
13180TIP3    H161031   4.312   4.499  16.567  0.1308  0.1338  1.3927
13180TIP3    H261032   4.383   4.620  16.624  0.8435  0.5841 -0.3871
13181TIP3   OH261033   5.056   2.928  10.892 -0.5499  0.8721  0.1056
13181TIP3    H161034   4.984   2.926  10.829 -0.3239 -1.3998 -0.1514
13181TIP3    H261035   5.015   2.959  10.973 -1.1344  2.4967 -0.7524
13182TIP3   OH261036   2.975   2.207   2.000  0.0019  0.8437  0.1810
13182TIP3    H161037   3.006   2.249   2.080 -1.1626  1.2298  0.4455
13182TIP3    H261038   3.039   2.234   1.933  1.3355  0.0102  1.0712
13183TIP3   OH261039   1.606   0.606   1.014 -0.4266  0.0716  0.2332
13183TIP3    H161040   1.663   0.683   1.010  1.8969 -1.5387  0.5975
13183TIP3    H261041   1.599   0.586   1.107 -2.2089  0.6094  0.2573
13184TIP3   OH261042   5.540   6.564   5.805  0.3594 -0.1053 -0.1513
13184TIP3    H161043   5.467   6.620   5.778 -0.4755 -0.9015  0.4114
13184TIP3    H261044   5.531   6.485   5.754  1.1629  0.0020 -0.4747
13185TIP3   OH261045   3.573   4.901   2.433  0.3022  0.5480  0.0566
13185TIP3    H161046   3.507   4.966   2.409  0.6755  0.6565 -0.6917
13185TIP3    H261047   3.654   4.933   2.394  0.7824  0.3686  0.8953
13186TIP3   OH261048   4.258   1.213  15.274 -0.0281  0.0723  0.5594
13186TIP3    H161049   4.310   1.222  15.354 -0.2654  0.9524  0.6233
13186TIP3    H261050   4.322   1.219  15.203 -0.0132  0.9949  0.6424
13187TIP3   OH261051   2.361   3.253  10.435  0.5090  0.4718 -0.2635
13187TIP3    H161052   2.430   3.273  10.498  0.8265 -0.7888 -0.2039
13187TIP3    H261053   2.375   3.162  10.411 -0.5784  0.4702 -0.9563
13188TIP3   OH261054   4.661   0.980  15.036  0.5355  0.1297  0.3321
13188TIP3    H161055   4.570   0.954  15.044  0.7339 -0.4990  0.6235
13188TIP3    H261056   4.671   1.005  14.944  0.2749 -0.6095  0.0940
13189TIP3   OH261057   4.707   1.442  13.578  0.1294  0.8335 -0.9155
13189TIP3    H161058   4.639   1.470  13.639  1.6698  1.1613  0.7395
13189TIP3    H261059   4.660   1.395  13.509 -1.7723  1.2544  0.0336
13190TIP3   OH261060   6.300   0.561   4.714  0.3047  0.1429 -0.3902
13190TIP3    H161061   6.299   0.484   4.658 -0.8236 -0.3775  0.3227
13190TIP3    H261062   6.335   0.530   4.797  0.7192  0.6106 -0.3873
13191TIP3   OH261063   2.480   3.165   3.591  0.2699  0.1912 -0.1915
13191TIP3    H161064   2.446   3.191   3.505 -0.3468 -0.3407 -0.1096
13191TIP3    H261065   2.512   3.247   3.629  1.8890  0.2297 -1.5013
13192TIP3   OH261066   0.350   0.794  11.977  0.0998 -0.2775 -0.0581
13192TIP3    H161067   0.282   0.821  11.916  1.0371 -1.4573 -1.7230
13192TIP3    H261068   0.361   0.700  11.960 -0.2421 -0.8957  2.6342
13193TIP3   OH261069   0.278   5.334   0.241  0.1431 -0.1863  0.7129
13193TIP3    H161070   0.347   5.305   0.182 -0.6321 -0.0406 -0.2861
13193TIP3    H261071   0.322   5.394   0.301  1.0924 -0.9026  0.7598
13194TIP3   OH261072   0.631   4.120  13.720 -0.0727  0.3265 -0.0681
13194TIP3    H161073   0.537   4.104  13.713  0.2579 -1.8885 -0.3284
13194TIP3    H261074   0.671   4.041  13.683  1.9112  1.6902 -1.0068
13195TIP3   OH261075   1.504   4.156  11.103  0.8104 -0.1509 -0.0697
13195TIP3    H161076   1.467   4.231  11.149  1.1601  0.4517 -0.7479
13195TIP3    H261077   1.519   4.188  11.014 -0.1528 -1.3834 -0.7107
13196TIP3   OH261078   0.367   1.502   3.683  0.6356 -0.0540 -0.2151
13196TIP3    H161079   0.277   1.518   3.712  1.0586  0.2377  0.9838
13196TIP3    H261080   0.394   1.423   3.730  0.3926 -1.2713 -2.0043
13197TIP3   OH261081   2.690   6.142  16.662  0.0247 -0.1988 -0.4407
13197TIP3    H161082   2.638   6.142  16.582 -2.1168  0.0293  0.8985
13197TIP3    H261083   2.774   6.181  16.635  0.9022 -3.5486 -3.4110
13198TIP3   OH261084   0.522   4.699   2.930 -0.0006 -0.0294 -0.0372
13198TIP3    H161085   0.591   4.738   2.983  0.0225  0.7022 -0.5885
13198TIP3    H261086   0.555   4.705   2.840 -0.8400  0.4568 -0.3176
13199TIP3   OH261087   4.588   2.814  13.602 -0.0516 -0.5184 -0.0071
13199TIP3    H161088   4.635   2.768  13.671  1.6952 -0.4098 -1.0734
13199TIP3    H261089   4.653   2.873  13.563 -1.1931 -0.0050 -1.2436
13200TIP3   OH261090   5.556   6.035  13.156  0.4190  0.2608 -0.4917
13200TIP3    H161091   5.560   6.016  13.250 -1.0488 -0.4366 -0.5485
13200TIP3    H261092   5.614   6.110  13.145  0.2136  0.6985  1.0593
13201TIP3   OH261093   5.549   2.091   2.208  0.6964  0.7678  0.2912
13201TIP3    H161094   5.458   2.081   2.181  1.0309 -1.4342 -0.1660
13201TIP3    H261095   5.599   2.086   2.127  1.2698  1.3915  0.5963
13202TIP3   OH261096   2.026   4.674   5.275 -0.0944  0.1803 -0.1775
13202TIP3    H161097   1.931   4.680   5.275 -0.1367  0.8904  2.6061
13202TIP3    H261098   2.055   4.740   5.338  2.2409 -0.1082 -0.8446
13203TIP3   OH261099   2.572   0.821   4.575 -0.2996  0.4526 -0.3606
13203TIP3    H161100   2.663   0.802   4.597 -0.1772  0.6558 -0.6835
13203TIP3    H261101   2.577   0.877   4.497 -0.7294 -0.5872 -1.1542
13204TIP3   OH261102   5.962   1.880   5.416 -0.5382  0.0356  0.1976
13204TIP3    H161103   5.890   1.852   5.360  0.6561 -1.6639 -0.5810
13204TIP3    H261104   5.955   1.825   5.494 -1.1298  1.1441  0.9498
13205TIP3   OH261105   3.752   2.866  16.610 -0.9527 -0.2410  0.6680
13205TIP3    H161106   3.695   2.873  16.533 -0.9950 -0.4993  0.6740
13205TIP3    H261107   3.739   2.776  16.641 -1.6471  0.1455  1.5401
13206TIP3   OH261108   2.546   4.613   5.054 -0.9375  0.1092  0.0498
13206TIP3    H161109   2.574   4.704   5.058 -1.6061  0.2755  1.6794
13206TIP3    H261110   2.624   4.563   5.077 -1.2617  0.4521  2.1179
13207TIP3   OH261111   3.065   4.981   2.411  0.6821  0.3778  0.7690
13207TIP3    H161112   3.141   4.984   2.469  0.3140  1.3720  1.2400
13207TIP3    H261113   3.094   5.026   2.332  0.5359  0.9266  1.0222
13208TIP3   OH261114   2.315   2.476   0.600 -0.1683 -0.1406  0.2479
13208TIP3    H161115   2.249   2.411   0.624  0.3705 -0.7143  0.1919
13208TIP3    H261116   2.319   2.472   0.505 -1.1832  1.0322  0.1172
13209TIP3   OH261117   0.492   6.713  11.948 -0.2611  0.2282  0.6125
13209TIP3    H161118   0.400   6.688  11.953  0.2433 -2.2353 -0.7232
13209TIP3    H261119   0.502   6.782  12.015 -2.5592 -0.9613  2.3331
13210TIP3   OH261120   0.904   2.885   5.010 -0.3473  0.1601 -0.1183
13210TIP3    H161121   0.828   2.909   4.957 -0.3502 -0.4093 -0.3752
13210TIP3    H261122   0.979   2.918   4.961 -0.0742 -3.0203 -2.1273
13211TIP3   OH261123   2.160   3.856   1.841  0.7462  0.5085 -0.4045
13211TIP3    H161124   2.129   3.945   1.854 -0.1159  0.2966 -0.9128
13211TIP3    H261125   2.181   3.851   1.747  0.0364 -0.0342 -0.5502
13212TIP3   OH261126   0.319   3.084   3.090 -0.3305  0.2195 -0.2810
13212TIP3    H161127   0.226   3.077   3.069 -0.4003 -1.5024  0.4066
13212TIP3    H261128   0.361   3.023   3.029  0.2831  0.5166 -0.1593
13213TIP3   OH261129   0.210   2.689   1.286  0.2442  0.2157 -0.3469
13213TIP3    H161130   0.224   2.637   1.207  0.5940 -0.0561 -0.1104
13213TIP3    H261131   0.257   2.770   1.269  0.2093  0.2111 -0.4706
13214TIP3   OH261132   6.528   0.504   0.043  0.5879 -0.6151 -0.7981
13214TIP3    H161133   6.505   0.563   0.114 -0.8416 -0.0210 -1.7277
13214TIP3    H261134   6.621   0.521   0.027  0.7580 -0.2761  0.4509
13215TIP3   OH261135   2.782   4.898   6.010  0.3419  0.1976 -0.6704
13215TIP3    H161136   2.866   4.939   6.030 -0.4553  0.9416  1.4618
13215TIP3    H261137   2.765   4.840   6.085  0.3187 -2.3209 -2.4964
13216TIP3   OH261138   2.317   5.969  11.819  0.1949  0.3030 -0.1770
13216TIP3    H161139   2.331   6.020  11.898  1.4218 -0.8325  0.3673
13216TIP3    H261140   2.229   5.933  11.829  0.6151 -0.4497  1.0554
13217TIP3   OH261141   6.397   0.609  16.693 -0.4153  0.8195 -0.4661
13217TIP3    H161142   6.401   0.570  16.605  0.4323 -0.0044 -0.0918
13217TIP3    H261143   6.323   0.565  16.735 -0.5332  0.8747 -0.6148
13218TIP3   OH261144   2.203   2.738   6.300  0.0718 -0.3067 -0.1729
13218TIP3    H161145   2.108   2.742   6.287 -0.1372 -0.4610  1.1625
13218TIP3    H261146   2.240   2.759   6.215 -1.1623 -3.1919 -1.5643
13219TIP3   OH261147   0.152   4.414  12.851 -0.5715  0.2086  0.6242
13219TIP3    H161148   0.197   4.492  12.884 -1.0560 -0.1589  2.2319
13219TIP3    H261149   0.085   4.449  12.793  0.2173  0.8941  0.0991
13220TIP3   OH261150   5.458   5.174   5.663 -0.0294  0.0071  0.1780
13220TIP3    H161151   5.500   5.147   5.745  0.9783  0.4942 -0.1518
13220TIP3    H261152   5.470   5.269   5.660 -2.4470  0.3876  0.7420
13221TIP3   OH261153   0.948   4.106   5.803  0.4213 -0.2463  0.0314
13221TIP3    H161154   0.912   4.133   5.887 -0.0198  0.0906 -0.2608
13221TIP3    H261155   0.971   4.014   5.815  0.5444 -0.1507  0.5747
13222TIP3   OH261156   5.990   6.156  16.299  0.3250  0.1784 -0.0300
13222TIP3    H161157   5.902   6.184  16.276  0.6444  0.9043 -0.4087
13222TIP3    H261158   6.009   6.084  16.239 -1.4525 -2.6785  2.6021
13223TIP3   OH261159   2.884   5.772   1.499  0.2608  0.2803 -0.4287
13223TIP3    H161160   2.829   5.714   1.552 -1.4464  2.9833  0.9609
13223TIP3    H261161   2.828   5.798   1.426  0.7380  0.7953 -0.6167
13224TIP3   OH261162   6.648   5.746  15.876 -0.6907  0.4514  0.2313
13224TIP3    H161163   6.741   5.738  15.858 -0.7336 -0.1537  0.2454
13224TIP3    H261164   6.634   5.695  15.956 -1.6999 -3.1046 -1.9763
13225TIP3   OH261165   2.481   6.218  11.012  0.4404  0.4357 -0.0399
13225TIP3    H161166   2.501   6.165  11.089 -0.6731  0.8145  0.5321
13225TIP3    H261167   2.396   6.186  10.982  0.7947  0.3830 -1.0463
13226TIP3   OH261168   4.847   1.867  15.786  0.3823 -0.3220 -0.2437
13226TIP3    H161169   4.754   1.860  15.808  0.8437 -0.6863  1.8442
13226TIP3    H261170   4.848   1.895  15.695 -1.7652 -0.6368 -0.4229
13227TIP3   OH261171   4.473   2.457  13.699  0.6607 -0.2557  0.7515
13227TIP3    H161172   4.467   2.371  13.741 -0.1388  0.0405  1.2560
13227TIP3    H261173   4.474   2.519  13.772 -1.3191  0.3021  0.3508
13228TIP3   OH261174   1.883   1.541  17.069  0.0090 -0.4279  0.6825
13228TIP3    H161175   1.854   1.584  17.149 -1.8424  0.9466 -0.6360
13228TIP3    H261176   1.964   1.586  17.045 -0.2263  0.1733  1.0057
13229TIP3   OH261177   0.384   2.621  11.484  0.0362  0.4684  0.1188
13229TIP3    H161178   0.357   2.529  11.491 -0.2998  0.6016  0.6350
13229TIP3    H261179   0.469   2.618  11.439  1.3099 -0.3245  2.4079
13230TIP3   OH261180   1.395   6.326  14.218  0.0379  0.1259  0.0470
13230TIP3    H161181   1.462   6.322  14.286  0.6046  0.3634 -0.4854
13230TIP3    H261182   1.329   6.262  14.245 -0.6130  1.4204  1.7170
13231TIP3   OH261183   3.894   1.059   3.803 -0.7465 -0.4730 -0.3352
13231TIP3    H161184   3.983   1.032   3.781 -0.3901  0.1523  0.3119
13231TIP3    H261185   3.877   1.134   3.746 -1.1189 -1.0013 -0.9379
13232TIP3   OH261186   4.874   2.147   5.809 -0.5694 -0.1085 -0.8095
13232TIP3    H161187   4.925   2.150   5.890 -2.0132  2.8864  0.1251
13232TIP3    H261188   4.820   2.068   5.818  1.2792 -1.3734 -0.2203
13233TIP3   OH261189   6.046   5.988  12.202 -0.7631  0.0733  0.3764
13233TIP3    H161190   6.085   5.933  12.134 -1.8386 -0.1363 -0.0945
13233TIP3    H261191   6.023   6.070  12.157  1.1441  1.0922  1.1464
13234TIP3   OH261192   4.952   6.152   1.024 -0.0763 -0.4320  0.6845
13234TIP3    H161193   4.857   6.165   1.034  0.0857  1.3501  0.2971
13234TIP3    H261194   4.974   6.086   1.089 -1.9451 -2.7495 -0.8531
13235TIP3   OH261195   6.680   5.740  16.928 -0.2223  0.2156  0.2470
13235TIP3    H161196   6.604   5.688  16.906  1.1576 -1.2568 -1.3605
13235TIP3    H261197   6.698   5.791  16.849  2.4691 -2.1485 -0.8516
13236TIP3   OH261198   0.603   4.669  15.373 -0.2243 -0.1296  0.6549
13236TIP3    H161199   0.635   4.648  15.285  1.8014 -0.4993  1.4315
13236TIP3    H261200   0.523   4.719  15.358 -1.4772 -2.5053 -1.3574
13237TIP3   OH261201   4.425   1.681  12.895 -0.7886  0.7454 -0.1874
13237TIP3    H161202   4.415   1.662  12.989  2.8174  0.6338  0.3241
13237TIP3    H261203   4.367   1.618  12.852 -0.9456 -0.6567  1.9205
13238TIP3   OH261204   3.017   3.772   4.846  0.0947  0.4171  0.0889
13238TIP3    H161205   2.952   3.757   4.778 -0.7658 -1.4665  1.2585
13238TIP3    H261206   3.098   3.791   4.798 -0.4451 -1.0329 -1.4957
13239TIP3   OH261207   2.338   4.897  11.578  0.3048  0.1939  0.2278
13239TIP3    H161208   2.343   4.861  11.667 -0.3728 -0.2546  0.0896
13239TIP3    H261209   2.396   4.841  11.526  0.3236  0.1569  0.2886
13240TIP3   OH261210   1.071   2.926   5.604 -0.5181 -0.9551 -0.1166
13240TIP3    H161211   0.989   2.890   5.571 -0.5837 -0.1890 -0.8121
13240TIP3    H261212   1.139   2.885   5.551 -0.5280 -0.7665 -0.2759
13241TIP3   OH261213   5.061   3.928  13.370 -0.3074  0.0013  0.6690
13241TIP3    H161214   4.976   3.962  13.399 -0.0113  0.3341  1.1625
13241TIP3    H261215   5.103   3.896  13.450 -0.2166 -0.7220  0.3345
13242TIP3   OH261216   6.059   3.024   4.646  0.1117  0.4744 -0.3062
13242TIP3    H161217   5.974   2.999   4.608  0.8179  1.1356 -2.4367
13242TIP3    H261218   6.091   3.094   4.589  0.8535  2.2187  2.0920
13243TIP3   OH261219   3.742   4.058  16.205 -0.5906 -0.4707  0.0776
13243TIP3    H161220   3.793   4.105  16.271  0.9268 -1.4144 -0.3758
13243TIP3    H261221   3.749   3.966  16.230 -0.6230 -0.7700 -0.9618
13244TIP3   OH261222   0.372   6.504   0.572  0.2508  0.6084 -0.1032
13244TIP3    H161223   0.405   6.495   0.661  0.2902  2.6738  0.1381
13244TIP3    H261224   0.311   6.430   0.561 -1.9799  1.8519  2.6911
13245TIP3   OH261225   6.120   2.344   0.517 -0.0380  0.1366 -0.4587
13245TIP3    H161226   6.099   2.363   0.425 -0.0326  3.0343  0.0439
13245TIP3    H261227   6.211   2.314   0.515  0.5490  1.8107 -1.2986
13246TIP3   OH261228   2.140   4.126   5.989 -0.1942 -0.5186 -0.3193
13246TIP3    H161229   2.231   4.137   6.017  0.1136  0.5011 -1.6144
13246TIP3    H261230   2.095   4.091   6.066  1.1837 -0.5451  0.5026
13247TIP3   OH261231   1.288   4.146   2.895  0.2489 -0.3156  0.4760
13247TIP3    H161232   1.337   4.064   2.900 -0.7726 -0.8820  1.7055
13247TIP3    H261233   1.319   4.197   2.970  1.2592  0.6867 -0.5715
13248TIP3   OH261234   1.579   4.335  15.818 -0.1742  1.1341  0.5255
13248TIP3    H161235   1.511   4.294  15.871  0.8544 -1.8017 -0.2583
13248TIP3    H261236   1.551   4.321  15.728  0.8419  0.9776  0.2228
13249TIP3   OH261237   1.443   2.905  14.199  0.5352 -0.6066  0.1727
13249TIP3    H161238   1.397   2.961  14.136  0.3017 -2.0637 -1.0078
13249TIP3    H261239   1.374   2.858  14.245  0.6360  1.2578  2.4137
13250TIP3   OH261240   2.331   4.684   4.892 -0.1943 -0.0409 -0.3247
13250TIP3    H161241   2.344   4.652   4.980  0.3504  0.8652 -0.0527
13250TIP3    H261242   2.416   4.670   4.849 -0.7021 -1.2486 -0.9776
13251TIP3   OH261243   6.407   5.986   4.183  0.4672  0.8806 -0.1337
13251TIP3    H161244   6.388   5.957   4.094 -5.0989  0.9893  0.6750
13251TIP3    H261245   6.404   6.082   4.178 -0.5342  0.8746  0.2384
13252TIP3   OH261246   2.059   4.852  15.377 -0.3101  0.8386  0.0220
13252TIP3    H161247   1.982   4.894  15.339  0.2876  0.4516 -1.7202
13252TIP3    H261248   2.073   4.774  15.324  0.6919  0.3484  0.9543
13253TIP3   OH261249   2.756   0.852  15.131  0.0898 -0.1097  0.1314
13253TIP3    H161250   2.743   0.901  15.050 -1.7402  0.6315  0.8379
13253TIP3    H261251   2.840   0.883  15.164  0.1003  0.7602 -0.6676
13254TIP3   OH261252   4.275   0.886   4.727  0.0042 -0.0197  1.2141
13254TIP3    H161253   4.370   0.880   4.716  0.0031 -0.7650  1.5573
13254TIP3    H261254   4.263   0.937   4.807  0.0812  1.0904  0.5527
13255TIP3   OH261255   4.933   5.238  10.882 -0.5177  0.1447 -0.3165
13255TIP3    H161256   5.027   5.235  10.862 -0.1119 -1.5491  1.5084
13255TIP3    H261257   4.903   5.148  10.869 -1.6751  0.4459  0.1597
13256TIP3   OH261258   2.094   4.793  17.099  0.0615  0.6498  0.3409
13256TIP3    H161259   2.183   4.828  17.102  0.5816 -0.6239  3.0871
13256TIP3    H261260   2.104   4.709  17.054 -0.1323  1.2838 -0.9448
13257TIP3   OH261261   5.752   0.114   6.028 -0.0100 -0.0707 -0.2474
13257TIP3    H161262   5.783   0.032   6.067 -0.6186 -0.2998 -0.2419
13257TIP3    H261263   5.716   0.163   6.102 -0.9545 -0.4064 -0.4758
13258TIP3   OH261264   1.768   5.516   6.058 -0.4182 -0.4931 -0.4710
13258TIP3    H161265   1.731   5.567   6.130 -0.6186  0.2218 -1.0727
13258TIP3    H261266   1.767   5.426   6.091 -0.4527 -0.1781  0.4389
13259TIP3   OH261267   2.197   0.901   5.155  0.1947 -0.1235 -0.2058
13259TIP3    H161268   2.169   0.955   5.229  0.7957 -0.1551  0.0564
13259TIP3    H261269   2.116   0.874   5.112 -0.1062  1.7655 -0.9160
13260TIP3   OH261270   3.097   0.897  14.255  0.2635  0.0576  0.8826
13260TIP3    H161271   3.067   0.961  14.320 -0.9479 -0.9552  1.3575
13260TIP3    H261272   3.019   0.876  14.205  0.8256 -0.4646  0.2161
13261TIP3   OH261273   0.418   4.636   6.170  0.0817 -0.4107  0.2496
13261TIP3    H161274   0.456   4.608   6.254 -2.0389  1.4592  1.9702
13261TIP3    H261275   0.394   4.554   6.127  1.7318 -1.4481  1.1571
13262TIP3   OH261276   0.112   3.906  12.080  0.5466  0.0638 -0.3011
13262TIP3    H161277   0.037   3.913  12.139 -0.7092 -1.0560 -1.6889
13262TIP3    H261278   0.127   3.811  12.073  1.6586  0.2508 -0.6031
13263TIP3   OH261279   2.875   0.168  13.874 -0.4526 -0.2466 -0.5932
13263TIP3    H161280   2.784   0.186  13.896  0.2155  1.2943  1.1879
13263TIP3    H261281   2.894   0.084  13.915 -0.5884  0.2980  0.6165
13264TIP3   OH261282   1.004   4.735  16.622 -0.0042 -0.5945 -0.2317
13264TIP3    H161283   0.989   4.818  16.668 -1.3264 -1.0737  0.2409
13264TIP3    H261284   1.100   4.728  16.618  0.1400  0.7326  0.1028
13265TIP3   OH261285   5.580   3.084  13.895 -0.7432  0.1692 -0.5684
13265TIP3    H161286   5.508   3.027  13.923  0.8294 -1.2192  0.9398
13265TIP3    H261287   5.583   3.075  13.800 -1.4173 -1.2066 -0.4800
13266TIP3   OH261288   2.028   5.691  14.439 -0.6798 -0.2388 -0.1790
13266TIP3    H161289   1.947   5.741  14.448 -1.7495 -1.9524  0.3329
13266TIP3    H261290   2.003   5.614  14.388  1.2932  0.5030 -2.4427
13267TIP3   OH261291   4.114   5.374   3.564 -0.5945  0.1880  0.0072
13267TIP3    H161292   4.074   5.461   3.558 -0.1035  0.5600  1.6106
13267TIP3    H261293   4.089   5.342   3.651  2.0490  0.2077  0.8632
13268TIP3   OH261294   2.496   2.222  12.823 -0.2303 -0.0135  0.6882
13268TIP3    H161295   2.462   2.160  12.758  1.4900  0.7113 -1.0002
13268TIP3    H261296   2.476   2.181  12.907 -0.8983 -1.8981 -0.3166
13269TIP3   OH261297   0.860   1.834   0.341 -0.1835  0.2462 -0.3715
13269TIP3    H161298   0.904   1.911   0.306  0.1761  0.0542 -0.3527
13269TIP3    H261299   0.838   1.857   0.431 -1.7698  1.0097 -0.9307
13270TIP3   OH261300   4.823   3.141  12.834 -0.0727 -0.1851 -0.0632
13270TIP3    H161301   4.896   3.080  12.822 -1.4681 -1.7435 -0.9980
13270TIP3    H261302   4.815   3.185  12.749  0.7740  1.2121  0.5317
13271TIP3   OH261303   0.663   3.396  15.089  0.1633 -0.0972  0.1320
13271TIP3    H161304   0.603   3.466  15.067  0.1660  0.0085  0.4574
13271TIP3    H261305   0.624   3.353  15.165  0.1680 -0.4376 -0.0556
13272TIP3   OH261306   1.791   2.665   2.707  0.0977  0.1831  0.6245
13272TIP3    H161307   1.878   2.639   2.737 -0.1229 -0.5594  0.6472
13272TIP3    H261308   1.807   2.722   2.632  0.6762  2.2480  2.2370
13273TIP3   OH261309   3.062   6.666   4.479 -0.4710 -0.0479  0.3283
13273TIP3    H161310   2.978   6.689   4.519 -0.1543  0.4897  0.6918
13273TIP3    H261311   3.039   6.607   4.408 -1.1938  0.4475  0.1417
13274TIP3   OH261312   4.188   2.341   0.952  0.9249 -0.2340 -0.0861
13274TIP3    H161313   4.166   2.426   0.915 -0.0539 -0.2692  0.3873
13274TIP3    H261314   4.271   2.318   0.910  0.6193  0.4170 -1.0983
13275TIP3   OH261315   0.612   5.532  11.126  0.2478 -0.6826 -0.8931
13275TIP3    H161316   0.534   5.565  11.171  1.9339  0.8441  1.1152
13275TIP3    H261317   0.650   5.610  11.085  3.7727  0.0708  3.0866
13276TIP3   OH261318   6.334   5.594  16.099  0.6938 -0.2995  0.4306
13276TIP3    H161319   6.287   5.527  16.149 -1.0611 -0.7022 -1.6090
13276TIP3    H261320   6.418   5.553  16.078  0.2161 -1.3182  0.4358
13277TIP3   OH261321   5.202   0.208   0.420 -0.1849 -0.2299 -0.3172
13277TIP3    H161322   5.278   0.172   0.374  0.1320  0.5536 -0.4181
13277TIP3    H261323   5.238   0.277   0.476 -0.8842  0.5184 -0.7698
13278TIP3   OH261324   1.103   3.587  14.067  0.0859  0.0898  0.2024
13278TIP3    H161325   1.082   3.516  14.129 -1.6943  0.0562 -0.3840
13278TIP3    H261326   1.081   3.551  13.981  1.3577  0.5780 -0.3553
13279TIP3   OH261327   2.301   5.140  14.242 -0.1965 -0.2246 -0.0988
13279TIP3    H161328   2.274   5.173  14.328 -0.7649  0.6685 -0.5978
13279TIP3    H261329   2.233   5.077  14.218  0.3627 -1.0488  0.4198
13280TIP3   OH261330   5.907   3.111  12.418 -0.2771  0.6666  0.0709
13280TIP3    H161331   6.002   3.104  12.408 -0.4888 -0.0115 -1.9348
13280TIP3    H261332   5.887   3.201  12.393 -0.1594  0.8673  0.6789
13281TIP3   OH261333   5.069   0.433   0.163 -0.2222  0.1200 -0.1411
13281TIP3    H161334   5.155   0.398   0.143  0.4994  1.1273  1.0870
13281TIP3    H261335   5.064   0.515   0.115 -0.3134  0.2795  0.1375
13282TIP3   OH261336   2.993   4.925  15.134  0.3976  0.1646  0.4945
13282TIP3    H161337   3.005   5.007  15.086  0.7055 -1.0094 -1.5096
13282TIP3    H261338   2.940   4.950  15.210 -0.5262  2.0241 -0.6849
13283TIP3   OH261339   5.479   1.633  14.836  0.3483  0.3583 -0.2016
13283TIP3    H161340   5.449   1.542  14.847  0.8925  0.1379 -0.5201
13283TIP3    H261341   5.541   1.647  14.907 -0.3641  0.7636  0.3584
13284TIP3   OH261342   5.515   4.403   3.873  0.1150  0.0505  0.4580
13284TIP3    H161343   5.508   4.314   3.909  0.8698  0.5370  1.9021
13284TIP3    H261344   5.447   4.452   3.920 -1.4257 -0.0603 -1.4959
13285TIP3   OH261345   1.435   3.222  11.191 -0.8656  0.0893 -0.1239
13285TIP3    H161346   1.429   3.195  11.100  1.1284  2.0259 -0.9190
13285TIP3    H261347   1.529   3.223  11.210 -1.2633 -1.4448  2.3736
13286TIP3   OH261348   1.034   2.790   5.964  0.2743  0.0468 -0.8508
13286TIP3    H161349   1.127   2.801   5.943  0.5928  0.1025  0.5071
13286TIP3    H261350   1.029   2.807   6.058 -0.8066 -1.7738 -0.5397
13287TIP3   OH261351   0.120   0.668  16.580  0.0749  0.4429 -0.2537
13287TIP3    H161352   0.120   0.608  16.506 -0.7564 -0.4329  0.4331
13287TIP3    H261353   0.107   0.754  16.541 -0.1976  0.0142 -1.1367
13288TIP3   OH261354   6.068   0.564  12.570  0.1355 -0.3948  0.6357
13288TIP3    H161355   6.133   0.494  12.574  0.8071  0.1881  0.1981
13288TIP3    H261356   6.119   0.645  12.576 -0.2580  0.1627 -2.2134
13289TIP3   OH261357   1.529   2.904  15.477 -0.4949  0.2320  0.5494
13289TIP3    H161358   1.464   2.949  15.422  0.7063 -0.2729 -1.3538
13289TIP3    H261359   1.594   2.971  15.497  1.4151 -0.5174 -2.4751
13290TIP3   OH261360   4.839   3.670  16.865  0.2414  0.2953 -0.3011
13290TIP3    H161361   4.810   3.757  16.893  0.2600  0.5046 -0.9338
13290TIP3    H261362   4.916   3.686  16.811 -0.4903 -0.0122 -1.4683
13291TIP3   OH261363   5.377   3.044  15.816 -0.0232  0.8015 -0.2740
13291TIP3    H161364   5.452   2.986  15.828  0.1757  1.2200  0.5635
13291TIP3    H261365   5.312   2.989  15.772  0.3673  0.1074 -0.0133
13292TIP3   OH261366   0.536   3.046   5.109  0.2009  0.3628 -0.0463
13292TIP3    H161367   0.450   3.060   5.069 -0.2012  0.0614  0.6960
13292TIP3    H261368   0.599   3.067   5.040 -0.4636  1.0781 -0.4356
13293TIP3   OH261369   2.094   2.698   1.193 -0.4848  0.3472  0.1351
13293TIP3    H161370   2.149   2.624   1.168  3.5004  2.0645  2.7378
13293TIP3    H261371   2.072   2.741   1.110  1.5139 -0.9265 -1.1267
13294TIP3   OH261372   5.377   1.696   1.189 -0.2323 -0.5360 -0.5721
13294TIP3    H161373   5.287   1.668   1.173 -0.0345 -0.9326 -1.0028
13294TIP3    H261374   5.431   1.634   1.139  0.2909 -0.4596 -0.1140
13295TIP3   OH261375   2.700   5.582   3.470 -0.1004  0.3613 -0.2448
13295TIP3    H161376   2.675   5.674   3.468 -0.2810  0.3930  1.6439
13295TIP3    H261377   2.694   5.553   3.379  0.1747  2.2562 -0.8922
13296TIP3   OH261378   2.279   6.579   0.803 -0.3220  0.0473 -0.2784
13296TIP3    H161379   2.252   6.492   0.835 -0.5729 -0.0241 -0.6841
13296TIP3    H261380   2.273   6.635   0.880 -1.8069  0.0716 -0.3955
13297TIP3   OH261381   6.357   1.251  12.584  0.5727 -0.0844 -0.2466
13297TIP3    H161382   6.354   1.233  12.490  0.1617  0.1717 -0.2872
13297TIP3    H261383   6.368   1.345  12.590  0.5264 -0.0919 -0.0367
13298TIP3   OH261384   5.796   2.970  14.785  0.7263 -0.0988 -0.0013
13298TIP3    H161385   5.724   2.962  14.722  0.8147 -1.0366  0.0084
13298TIP3    H261386   5.872   2.994  14.732  0.1719  2.2573  0.1347
13299TIP3   OH261387   6.400   1.324  16.998  0.2882 -0.0010 -0.2050
13299TIP3    H161388   6.337   1.280  16.941  0.4450  0.2764 -0.5971
13299TIP3    H261389   6.374   1.299  17.086 -0.3503  0.0909 -0.3647
13300TIP3   OH261390   5.204   2.249  12.153  0.5732 -0.1846  0.3195
13300TIP3    H161391   5.174   2.299  12.077  2.4500 -0.6584 -0.8137
13300TIP3    H261392   5.242   2.170  12.114 -1.1500 -1.9283  1.9675
13301TIP3   OH261393   5.980   6.136  11.946 -0.8632  0.0262 -0.0342
13301TIP3    H161394   6.023   6.069  11.892 -0.4242  0.5097 -0.2952
13301TIP3    H261395   5.892   6.144  11.908 -0.6112  0.2443 -0.5900
13302TIP3   OH261396   2.730   0.109  16.469 -0.0149  0.2387 -0.0551
13302TIP3    H161397   2.722   0.073  16.380 -1.0395  3.3453 -1.3505
13302TIP3    H261398   2.653   0.074  16.515 -0.0889 -0.5158 -0.7164
13303TIP3   OH261399   0.637   6.587   4.480 -0.7271  0.2107 -0.3456
13303TIP3    H161400   0.565   6.585   4.542 -0.2357 -1.0596  0.2287
13303TIP3    H261401   0.715   6.602   4.533 -0.2621 -1.2218 -0.5854
13304TIP3   OH261402   2.326   2.261  11.434 -0.3424  0.3335  0.0475
13304TIP3    H161403   2.299   2.325  11.499  1.2936  0.6781  0.4390
13304TIP3    H261404   2.334   2.179  11.483 -0.4975  0.2799 -0.0182
13305TIP3   OH261405   4.534   1.031   2.667  0.4280 -0.2715  0.0908
13305TIP3    H161406   4.446   0.994   2.667 -0.4048  1.5443  1.4166
13305TIP3    H261407   4.565   1.021   2.577 -0.3964 -2.5198 -0.0055
13306TIP3   OH261408   4.670   0.846  16.042  0.4951 -0.1425  0.0752
13306TIP3    H161409   4.574   0.837  16.044  0.1974  2.3194  0.8260
13306TIP3    H261410   4.699   0.804  16.123  0.0318 -0.7776 -0.0853
13307TIP3   OH261411   0.013   6.529   1.912  0.1489 -0.0500 -0.5440
13307TIP3    H161412  -0.018   6.518   1.822 -1.1676 -0.3208 -0.0763
13307TIP3    H261413   0.034   6.622   1.919  0.8451 -0.1399 -1.3022
13308TIP3   OH261414   0.184   6.181   1.459 -0.5006  0.1905  0.2331
13308TIP3    H161415   0.252   6.248   1.450  0.2671 -0.6303 -0.1586
13308TIP3    H261416   0.132   6.210   1.535 -0.7613  1.7127 -0.4759
13309TIP3   OH261417   3.971   4.568   4.266 -0.4552 -0.5512 -0.3403
13309TIP3    H161418   3.996   4.639   4.207  1.1091  1.1651  2.1866
13309TIP3    H261419   3.919   4.611   4.334 -0.1118 -1.9569  0.8460
13310TIP3   OH261420   6.042   1.515  12.791 -0.3021  0.2007 -0.8519
13310TIP3    H161421   6.077   1.445  12.736  1.7773  1.8512 -1.7782
13310TIP3    H261422   6.020   1.585  12.730 -0.6290  1.0279  0.1832
13311TIP3   OH261423   3.617   3.351   0.466 -0.7148  0.4622 -0.1150
13311TIP3    H161424   3.699   3.338   0.512  0.0955 -0.7492 -1.7680
13311TIP3    H261425   3.567   3.270   0.482 -0.7526  0.3660 -0.6942
13312TIP3   OH261426   1.395   4.221  16.014 -0.3981 -0.0442 -0.0631
13312TIP3    H161427   1.369   4.144  15.962  0.0932 -0.8849  0.8970
13312TIP3    H261428   1.316   4.243  16.063 -0.2741 -0.5454  0.3758
13313TIP3   OH261429   4.803   5.127   4.791  0.0377 -0.0572 -0.5082
13313TIP3    H161430   4.852   5.093   4.865  1.5871 -2.3330 -2.4372
13313TIP3    H261431   4.859   5.194   4.754  0.2763 -0.4525 -0.8728
13314TIP3   OH261432   6.084   3.839  12.102 -0.6550  0.1058  0.4549
13314TIP3    H161433   6.160   3.784  12.087 -1.3693 -0.9374  0.5681
13314TIP3    H261434   6.053   3.861  12.014 -1.0593 -0.6622  0.4006
13315TIP3   OH261435   0.508   3.689   5.727 -0.6176  0.5521  0.3288
13315TIP3    H161436   0.431   3.706   5.673  0.0175  1.0580 -0.4488
13315TIP3    H261437   0.580   3.680   5.665 -0.3706 -2.0386  0.9074
13316TIP3   OH261438   6.158   0.103   2.837  0.2967  0.5594 -0.4596
13316TIP3    H161439   6.142   0.009   2.828 -1.1898  0.6426  0.9785
13316TIP3    H261440   6.244   0.116   2.797  0.9630 -1.5714  0.1299
13317TIP3   OH261441   0.829   3.924  12.012 -0.2268 -0.1111  0.9585
13317TIP3    H161442   0.744   3.960  12.037 -0.9227 -0.4248 -0.8608
13317TIP3    H261443   0.892   3.988  12.044 -1.2590  1.1789  0.4916
13318TIP3   OH261444   4.627   3.444  10.417 -0.4559 -0.3750  0.4676
13318TIP3    H161445   4.713   3.485  10.424 -0.9969  0.6781  1.2437
13318TIP3    H261446   4.646   3.350  10.407  0.7780 -0.0972  0.0761
13319TIP3   OH261447   4.609   6.136  13.323  0.4290  0.3023  0.0415
13319TIP3    H161448   4.572   6.093  13.246 -1.8716 -0.7787  1.6369
13319TIP3    H261449   4.698   6.160  13.297 -0.1422 -0.3521 -2.7912
13320TIP3   OH261450   6.454   2.149  11.949  0.1410 -0.3109 -0.4320
13320TIP3    H161451   6.450   2.086  11.877  1.3325  0.6415 -1.3741
13320TIP3    H261452   6.546   2.172  11.956 -0.0751  0.2767  0.8412
13321TIP3   OH261453   2.332   1.640   2.571 -0.0986  0.2349 -0.3566
13321TIP3    H161454   2.237   1.634   2.567 -0.2002  1.5280 -0.2733
13321TIP3    H261455   2.361   1.627   2.480 -0.1902 -1.9820 -0.1296
13322TIP3   OH261456   1.425   3.940  16.762  0.1118  0.6714 -0.3529
13322TIP3    H161457   1.358   3.878  16.733  0.4808  0.1221 -0.0609
13322TIP3    H261458   1.390   4.026  16.740 -1.3805  0.5011  1.1764
13323TIP3   OH261459   4.199   1.842  12.476 -0.4626  0.1888  0.5081
13323TIP3    H161460   4.289   1.868  12.497 -0.0351 -0.5265 -0.3980
13323TIP3    H261461   4.189   1.755  12.514 -0.5650 -0.0011  0.0463
13324TIP3   OH261462   2.472   5.130   0.110  0.2406  0.4383 -0.1176
13324TIP3    H161463   2.551   5.156   0.063 -0.5450  1.5042 -0.9168
13324TIP3    H261464   2.408   5.197   0.087 -0.8104 -0.2347  0.7540
13325TIP3   OH261465   5.226   6.490  12.181  0.3466  0.0472  0.0388
13325TIP3    H161466   5.180   6.530  12.107  0.7462  0.9221  0.2571
13325TIP3    H261467   5.222   6.556  12.250 -0.0969 -0.7902  0.8409
13326TIP3   OH261468   4.719   0.867  14.643 -0.4384 -0.6320 -0.5539
13326TIP3    H161469   4.770   0.799  14.686 -0.3366  1.1724  2.4772
13326TIP3    H261470   4.631   0.830  14.637 -0.0399 -1.6309 -0.4586
13327TIP3   OH261471   0.562   3.784   4.558  0.2583 -0.2519 -0.1060
13327TIP3    H161472   0.641   3.822   4.520 -0.6703  1.1174 -0.7583
13327TIP3    H261473   0.543   3.708   4.503  0.4908  0.0887 -0.6631
13328TIP3   OH261474   6.797   3.274  15.619 -0.1656  0.3289 -0.0696
13328TIP3    H161475   6.718   3.221  15.623 -0.2340  0.4782  1.5744
13328TIP3    H261476   6.768   3.358  15.585 -0.8699  0.5875  1.1029
13329TIP3   OH261477   5.121   2.354  11.921  0.0984 -0.0381 -0.2269
13329TIP3    H161478   5.102   2.398  11.839 -1.1257  1.0275  0.5913
13329TIP3    H261479   5.038   2.352  11.968  1.1630  1.4159  1.9302
13330TIP3   OH261480   5.175   6.415  13.714 -0.0463 -0.1905  0.5943
13330TIP3    H161481   5.149   6.488  13.658 -0.5998 -0.7686  0.0797
13330TIP3    H261482   5.252   6.447  13.761 -1.4450  1.4572  1.9083
13331TIP3   OH261483   1.916   3.059  12.061  0.1804 -0.1670  0.0517
13331TIP3    H161484   1.849   2.998  12.032 -0.0223 -0.3586  0.8873
13331TIP3    H261485   1.961   3.013  12.132  0.0645  0.6298  0.6568
13332TIP3   OH261486   0.246   5.968  11.363 -0.2004 -0.3095  0.2827
13332TIP3    H161487   0.179   5.901  11.373  0.8804 -1.9875 -2.4862
13332TIP3    H261488   0.206   6.033  11.305 -0.7437  0.8129  1.8351
13333TIP3   OH261489   3.182   4.962   2.089 -0.1322  0.1765  0.1937
13333TIP3    H161490   3.134   4.904   2.031 -1.0466  1.2843 -0.1916
13333TIP3    H261491   3.265   4.978   2.045  0.1596 -0.8778  0.3420
13334TIP3   OH261492   0.465   6.535  10.349 -0.2077  0.4056 -0.4092
13334TIP3    H161493   0.529   6.599  10.381  0.0437  1.1782 -2.3275
13334TIP3    H261494   0.380   6.578  10.361 -0.6061 -1.0285  3.1200
13335TIP3   OH261495   1.823   2.968  16.042 -0.6245 -0.3517  0.3495
13335TIP3    H161496   1.908   2.926  16.056  0.4118  1.3361 -0.5921
13335TIP3    H261497   1.823   2.993  15.950 -1.5886  0.8234  0.6386
13336TIP3   OH261498   2.635   2.201  11.179  0.9821 -0.0270 -0.6190
13336TIP3    H161499   2.584   2.121  11.189 -2.2360  1.8947 -0.3549
13336TIP3    H261500   2.639   2.215  11.085 -1.1616  1.0003 -0.6122
13337TIP3   OH261501   1.713   1.790   0.641  0.0569  0.0286  0.3977
13337TIP3    H161502   1.632   1.840   0.638 -0.0782 -0.0885  1.7972
13337TIP3    H261503   1.685   1.700   0.654  0.4215  0.2373  3.1978
13338TIP3   OH261504   5.917   4.678  12.483  0.3609 -0.5348 -0.2731
13338TIP3    H161505   5.967   4.607  12.521  0.4496 -1.3052 -1.7584
13338TIP3    H261506   5.826   4.657  12.503  0.4857 -0.0659  0.8823
13339TIP3   OH261507   5.121   4.208   1.365  0.1613  0.1927  0.1125
13339TIP3    H161508   5.089   4.134   1.417  1.5727 -1.3155 -1.0512
13339TIP3    H261509   5.215   4.192   1.358  0.3121  1.4997 -1.1300
13340TIP3   OH261510   2.894   4.727  17.143  0.2801 -0.3850 -0.3397
13340TIP3    H161511   2.840   4.648  17.141  0.7161 -0.6700 -1.0230
13340TIP3    H261512   2.940   4.723  17.227 -2.2929  0.9252  1.2722
13341TIP3   OH261513   4.346   6.636   6.035 -0.2173 -0.1367 -0.2395
13341TIP3    H161514   4.406   6.709   6.021 -1.2760  0.5410 -1.4975
13341TIP3    H261515   4.263   6.666   5.997 -0.9514 -1.6043  0.1393
13342TIP3   OH261516   4.461   2.585  13.450 -0.8443  0.4179 -0.6570
13342TIP3    H161517   4.442   2.542  13.534 -0.6568 -1.1194 -1.3669
13342TIP3    H261518   4.497   2.670  13.474  1.4444 -0.9100  0.8983
13343TIP3   OH261519   6.654   5.234  14.865  0.3561 -0.2637  0.3185
13343TIP3    H161520   6.570   5.218  14.823 -0.0122  0.0054  0.9441
13343TIP3    H261521   6.667   5.329  14.860  0.9353 -0.3720 -0.3602
13344TIP3   OH261522   5.173   3.194   2.537 -0.2102 -0.0687  0.0035
13344TIP3    H161523   5.174   3.112   2.586  1.2333  0.5016  0.9682
13344TIP3    H261524   5.217   3.257   2.593 -0.2356  1.0934 -1.2237
13345TIP3   OH261525   2.440   3.672   0.978 -0.1979 -0.2057  0.6520
13345TIP3    H161526   2.518   3.651   0.927  0.2248  0.9508  0.7921
13345TIP3    H261527   2.373   3.691   0.912 -0.0083  0.0313  0.5252
13346TIP3   OH261528   6.247   3.658  15.829  0.1514 -1.0847 -0.1044
13346TIP3    H161529   6.174   3.667  15.767 -0.7478  1.0030  1.1447
13346TIP3    H261530   6.293   3.742  15.824  1.3814 -1.7038  0.4613
13347TIP3   OH261531   5.661   5.798   4.036  0.4398 -0.4004 -0.9397
13347TIP3    H161532   5.572   5.785   4.005  0.8154  0.1863 -2.3570
13347TIP3    H261533   5.706   5.717   4.013  0.5059 -0.3038 -1.1585
13348TIP3   OH261534   5.377   3.785   4.488  0.2764 -0.3662 -0.2517
13348TIP3    H161535   5.293   3.802   4.531 -0.1516  0.0865 -1.2220
13348TIP3    H261536   5.354   3.766   4.398  1.2592  0.5608 -0.7284
13349TIP3   OH261537   3.956   6.685  11.020 -0.1013 -0.1121  0.7040
13349TIP3    H161538   3.931   6.727  10.938  0.2384  0.1113  0.7098
13349TIP3    H261539   3.917   6.598  11.015  0.7281 -0.4634 -0.1463
13350TIP3   OH261540   6.608   4.734   0.581 -0.2880 -0.0211 -0.0909
13350TIP3    H161541   6.657   4.804   0.623 -0.9910  0.5904 -0.2828
13350TIP3    H261542   6.559   4.693   0.652  0.5425 -0.6870  0.1161
13351TIP3   OH261543   1.879   3.276  15.426 -0.1122 -0.5319  0.1451
13351TIP3    H161544   1.866   3.345  15.491  0.5622  0.2784 -0.5582
13351TIP3    H261545   1.957   3.303  15.378  0.7262 -2.2861  0.4719
13352TIP3   OH261546   5.909   2.380  11.210  0.1926  0.0260  0.1715
13352TIP3    H161547   5.968   2.305  11.217  0.0323 -0.1713 -0.4858
13352TIP3    H261548   5.888   2.403  11.300  0.1433 -0.8001  0.3795
13353TIP3   OH261549   1.405   0.122  14.575 -0.2054  0.5948  0.2215
13353TIP3    H161550   1.463   0.085  14.508 -0.6103 -0.0547  0.2205
13353TIP3    H261551   1.384   0.209  14.543  0.9562  0.9290  0.3382
13354TIP3   OH261552   3.155   6.263   2.733 -0.2832  0.3205  0.3617
13354TIP3    H161553   3.199   6.342   2.703 -0.9007  0.2853 -0.6822
13354TIP3    H261554   3.156   6.270   2.829 -1.5530  2.3105  0.2997
13355TIP3   OH261555   4.591   2.004  14.670 -0.6527  0.0543  0.0218
13355TIP3    H161556   4.679   2.025  14.699 -0.8800  1.2991 -0.1161
13355TIP3    H261557   4.570   2.072  14.605 -1.3872 -0.7279 -0.5946
13356TIP3   OH261558   6.675   4.698  13.137 -0.2333 -0.0621  0.0004
13356TIP3    H161559   6.675   4.776  13.081  0.0749 -0.0451  0.0223
13356TIP3    H261560   6.613   4.638  13.094  0.8529 -0.5108 -1.0293
13357TIP3   OH261561   1.635   0.341  10.644 -0.9041  0.4904 -0.3682
13357TIP3    H161562   1.692   0.269  10.671  1.9600  3.5153  2.7320
13357TIP3    H261563   1.547   0.310  10.664  0.1724 -2.1705  0.7862
13358TIP3   OH261564   2.072   4.355   4.543 -0.6655 -0.2122 -0.0526
13358TIP3    H161565   2.146   4.328   4.597 -0.6342 -2.1217 -0.9845
13358TIP3    H261566   2.109   4.417   4.480 -0.0089 -0.6329 -0.0831
13359TIP3   OH261567   0.484   4.936  17.071  0.2480 -0.2887  0.3414
13359TIP3    H161568   0.572   4.972  17.073  0.4683 -0.7835  2.4559
13359TIP3    H261569   0.496   4.842  17.055  0.1754 -0.4554  1.2056
13360TIP3   OH261570   1.911   5.274  12.300  0.1062  0.0195 -0.1051
13360TIP3    H161571   1.870   5.310  12.221  0.2401 -0.1939 -0.2742
13360TIP3    H261572   1.841   5.224  12.342 -0.0012  0.2392 -0.0198
13361TIP3   OH261573   0.810   0.999  12.855 -0.1881 -0.0249  0.2674
13361TIP3    H161574   0.718   0.981  12.874 -0.2832  0.4485  0.2610
13361TIP3    H261575   0.821   0.973  12.763 -0.2699 -0.2372  0.3155
13362TIP3   OH261576   6.167   6.374  13.077  0.1717 -0.5778  0.4092
13362TIP3    H161577   6.203   6.292  13.044  2.0459  0.3491 -0.0205
13362TIP3    H261578   6.168   6.365  13.172  0.2565 -1.0904  0.3611
13363TIP3   OH261579   5.449   0.979  13.897 -0.1505  0.0897  0.0750
13363TIP3    H161580   5.473   0.913  13.832 -0.0157 -1.1129  1.2790
13363TIP3    H261581   5.532   0.998  13.942 -0.4724 -0.1242  0.7740
13364TIP3   OH261582   0.186   4.872   2.213 -0.0332 -0.1397 -0.0857
13364TIP3    H161583   0.270   4.888   2.257 -0.8275  0.3364  1.3351
13364TIP3    H261584   0.128   4.843   2.283 -1.6244  1.5788 -0.6172
13365TIP3   OH261585   1.879   6.561   0.802  0.2478  0.5503 -0.6648
13365TIP3    H161586   1.907   6.478   0.840  0.3102 -0.1164 -2.0771
13365TIP3    H261587   1.802   6.586   0.853 -0.6114 -1.1092 -1.0647
13366TIP3   OH261588   3.995   3.115   2.865  0.2353 -0.5665 -0.5087
13366TIP3    H161589   4.072   3.170   2.873  0.8306 -1.2261 -1.4428
13366TIP3    H261590   3.945   3.153   2.792 -0.2365 -0.2502 -0.0281
13367TIP3   OH261591   4.512   2.869  17.077  0.4904  0.3100  0.3428
13367TIP3    H161592   4.424   2.885  17.044  0.0147 -1.7979  0.4879
13367TIP3    H261593   4.565   2.857  16.999  0.3539  0.1083  0.2822
13368TIP3   OH261594   6.565   5.514   1.824  0.3528  0.6431 -0.6149
13368TIP3    H161595   6.516   5.533   1.905 -2.6836  0.6582 -2.3223
13368TIP3    H261596   6.624   5.588   1.815  1.0427  0.4781  1.7352
13369TIP3   OH261597   1.863   0.377  11.495  1.1478 -0.5836 -0.3803
13369TIP3    H161598   1.856   0.470  11.518 -0.4299 -0.4295 -1.3432
13369TIP3    H261599   1.774   0.344  11.500  1.8516 -2.3964  1.1737
13370TIP3   OH261600   4.855   1.600  15.199  0.4626  0.0139  0.2616
13370TIP3    H161601   4.844   1.695  15.196 -1.1331 -0.1374  0.8169
13370TIP3    H261602   4.880   1.576  15.109 -1.7065  0.6750 -0.5763
13371TIP3   OH261603   3.989   4.926  15.129  0.8489 -0.2936 -0.1101
13371TIP3    H161604   4.031   4.840  15.131  0.7774 -0.3241  0.9084
13371TIP3    H261605   3.952   4.937  15.217  0.5336  0.6214 -0.3377
13372TIP3   OH261606   3.675   1.515   5.133 -0.6490  0.1755 -0.2840
13372TIP3    H161607   3.729   1.447   5.174 -0.5539  1.1598  1.3366
13372TIP3    H261608   3.736   1.566   5.080 -0.7539 -1.0756 -1.6614
13373TIP3   OH261609   0.716   0.400  14.773 -0.1901 -0.2587 -0.0281
13373TIP3    H161610   0.657   0.360  14.709 -0.8257 -1.1780  1.0731
13373TIP3    H261611   0.745   0.326  14.827  1.2383  0.3258  0.0400
13374TIP3   OH261612   5.435   2.809   0.596 -0.3549 -0.2113 -0.5234
13374TIP3    H161613   5.358   2.786   0.545  0.9284  0.2727 -2.8523
13374TIP3    H261614   5.509   2.779   0.543  1.1104 -1.0059  1.7788
13375TIP3   OH261615   4.075   2.501  15.249  0.1298  0.2269  0.4781
13375TIP3    H161616   4.104   2.520  15.160 -0.2634  0.6103  0.4290
13375TIP3    H261617   4.005   2.564  15.266  0.5936  0.5480  1.2705
13376TIP3   OH261618   4.946   4.629   3.646 -0.1928 -0.5646  0.3199
13376TIP3    H161619   4.905   4.707   3.683  1.8147  0.9548 -0.4743
13376TIP3    H261620   5.015   4.606   3.708  0.1887 -0.7963 -0.1865
13377TIP3   OH261621   5.759   5.277  11.570 -0.2976  0.1599 -0.0735
13377TIP3    H161622   5.854   5.271  11.579 -0.4622  0.4848  2.6122
13377TIP3    H261623   5.731   5.188  11.547  0.4843 -0.4831  1.3627
13378TIP3   OH261624   0.889   1.745  14.304  0.7166  0.2574 -0.8370
13378TIP3    H161625   0.904   1.838  14.286 -0.0676  0.4868 -0.4011
13378TIP3    H261626   0.864   1.707  14.220  0.5310  0.5581 -0.9186
13379TIP3   OH261627   5.914   6.107   5.307  0.1908  0.2913 -0.4245
13379TIP3    H161628   6.006   6.113   5.281  0.1033  1.1203 -0.5734
13379TIP3    H261629   5.907   6.162   5.385 -0.1124 -0.0160 -0.2352
13380TIP3   OH261630   4.252   6.582  16.166 -0.4443  0.3510 -0.0509
13380TIP3    H161631   4.308   6.549  16.096  2.2581  0.1125  2.0363
13380TIP3    H261632   4.278   6.531  16.243 -4.1083 -0.2731  0.9917
13381TIP3   OH261633   2.044   3.209  12.438 -0.3582 -0.5516 -0.5367
13381TIP3    H161634   2.010   3.278  12.381 -0.7194 -0.6755 -0.4739
13381TIP3    H261635   1.969   3.183  12.492 -0.2403 -1.0309 -0.5975
13382TIP3   OH261636   6.058   3.242  15.957  0.4083 -0.1875 -0.3580
13382TIP3    H161637   6.101   3.187  15.892  1.1476  0.6915 -0.6405
13382TIP3    H261638   6.087   3.206  16.041  3.3209  1.4838 -0.5082
13383TIP3   OH261639   1.822   6.802  11.403 -0.1622 -0.7460  0.2129
13383TIP3    H161640   1.840   6.787  11.496 -0.0027  0.2133  0.3452
13383TIP3    H261641   1.746   6.861  11.402 -1.4189 -2.3034 -0.3107
13384TIP3   OH261642   5.980   1.074   0.547  0.4848 -0.8395  0.0057
13384TIP3    H161643   5.919   1.147   0.539  0.9292 -0.5251 -0.5602
13384TIP3    H261644   5.946   1.007   0.488  0.4807 -0.8047 -0.0316
13385TIP3   OH261645   2.533   3.006  11.723 -0.1209 -0.4250  0.2395
13385TIP3    H161646   2.620   3.026  11.759 -0.6688  0.8579  0.8962
13385TIP3    H261647   2.532   2.910  11.716  1.2570 -0.4795  0.4284
13386TIP3   OH261648   5.881   2.945  13.765 -0.7335  0.0684 -0.0762
13386TIP3    H161649   5.790   2.928  13.740 -0.9461  3.0444 -1.9210
13386TIP3    H261650   5.878   2.957  13.860 -2.1156 -0.6815 -0.0049
13387TIP3   OH261651   5.240   3.234  16.985  0.0682  0.1187  0.2647
13387TIP3    H161652   5.234   3.176  17.061  0.3436 -0.4726 -0.1478
13387TIP3    H261653   5.211   3.180  16.912  2.1046 -0.1370 -0.4396
13388TIP3   OH261654   5.114   2.712   2.489  0.6473  0.5600 -0.0677
13388TIP3    H161655   5.154   2.633   2.525 -0.2117 -0.4642 -1.2750
13388TIP3    H261656   5.059   2.745   2.561  0.1605 -0.5760  0.1042
13389TIP3   OH261657   1.988   4.160  14.915 -0.1208 -0.2806  0.1257
13389TIP3    H161658   2.075   4.122  14.925  1.1573  2.4301  0.4162
13389TIP3    H261659   1.943   4.139  14.996  1.1900  0.3048  1.0449
13390TIP3   OH261660   1.458   5.884  11.795 -0.6055  0.5801  0.3466
13390TIP3    H161661   1.458   5.904  11.701 -0.5756  0.2236  0.2680
13390TIP3    H261662   1.409   5.802  11.801 -1.9446  1.3759  0.8205
13391TIP3   OH261663   0.706   2.255  13.717  0.1051  0.6185  0.3027
13391TIP3    H161664   0.763   2.323  13.754  0.5517 -0.4986  1.7316
13391TIP3    H261665   0.760   2.176  13.716 -1.2399 -0.3508  1.1939
13392TIP3   OH261666   5.905   1.620   6.219 -0.2172 -0.5710  0.2601
13392TIP3    H161667   5.876   1.711   6.217 -1.9767 -1.1127 -1.0367
13392TIP3    H261668   5.999   1.624   6.199 -0.4142  0.9186 -0.4843
13393TIP3   OH261669   1.824   3.505  15.598  0.6702  0.3169  0.3735
13393TIP3    H161670   1.729   3.503  15.599  0.6683 -0.5235  2.1703
13393TIP3    H261671   1.847   3.591  15.633  0.5712  0.4585  0.0895
13394TIP3   OH261672   4.586   3.249  10.769  0.1698  0.2241  0.3815
13394TIP3    H161673   4.672   3.229  10.804  0.2028  0.2563  0.3178
13394TIP3    H261674   4.569   3.340  10.796  0.3965  0.4094 -0.0930
13395TIP3   OH261675   5.028   1.320   4.819 -0.1618  0.1008  0.4541
13395TIP3    H161676   5.102   1.260   4.811  0.3746  0.7455  0.3832
13395TIP3    H261677   5.060   1.388   4.880  0.2954  1.8008 -1.5650
13396TIP3   OH261678   0.481   3.651  14.991  0.1132  0.0268 -0.6942
13396TIP3    H161679   0.428   3.691  14.921  0.6800 -1.4615 -2.0250
13396TIP3    H261680   0.542   3.720  15.016 -0.0725  0.5900 -1.7025
13397TIP3   OH261681   2.334   0.290   5.198  0.0148  0.0507  0.1062
13397TIP3    H161682   2.295   0.377   5.191  0.2333  0.1640  0.3026
13397TIP3    H261683   2.392   0.295   5.273  1.9397  0.4772 -1.3351
13398TIP3   OH261684   4.609   5.359   4.536 -0.5484  0.9726  0.1160
13398TIP3    H161685   4.550   5.358   4.461 -1.8545  0.2163  1.0911
13398TIP3    H261686   4.670   5.287   4.520 -3.4350 -2.1074  1.6152
13399TIP3   OH261687   1.806   2.396   0.016 -0.3356  0.4949  0.4451
13399TIP3    H161688   1.833   2.416  -0.074  0.5447 -0.7532  0.4139
13399TIP3    H261689   1.775   2.306   0.012  0.3767  0.1921  1.5480
13400TIP3   OH261690   5.176   1.111   2.515  0.5610  0.3779 -0.1595
13400TIP3    H161691   5.248   1.048   2.525  0.2073 -0.0443 -0.2185
13400TIP3    H261692   5.151   1.103   2.423 -0.7608 -0.8176  0.2683
13401TIP3   OH261693   0.440   6.285   0.044  0.1653 -0.3731  0.0683
13401TIP3    H161694   0.531   6.256   0.049  0.3986  0.4346  0.6393
13401TIP3    H261695   0.393   6.210   0.008  0.6201 -1.7491  2.2215
13402TIP3   OH261696   2.213   0.416   5.806  0.1956 -0.1009 -0.3107
13402TIP3    H161697   2.210   0.389   5.898 -0.0530  1.0941  0.0500
13402TIP3    H261698   2.269   0.352   5.763 -0.1365 -0.9911  0.5644
13403TIP3   OH261699   0.700   2.116  17.138  0.1072  0.1429 -0.0971
13403TIP3    H161700   0.760   2.129  17.065 -0.5371  3.3628 -0.1917
13403TIP3    H261701   0.756   2.119  17.216  0.3300  1.2520 -0.2804
13404TIP3   OH261702   6.489   1.228   3.904 -1.3044 -1.3091  0.0032
13404TIP3    H161703   6.503   1.321   3.921  2.0458 -2.0822  2.5931
13404TIP3    H261704   6.528   1.213   3.818  2.2477 -0.8867  1.3636
13405TIP3   OH261705   2.024   3.601   5.157 -0.1847 -0.0962  0.1385
13405TIP3    H161706   2.056   3.511   5.162  0.6385  0.0598 -1.5881
13405TIP3    H261707   2.103   3.654   5.151 -0.6554  0.7813  1.2813
13406TIP3   OH261708   0.032   0.760   0.115 -0.9428 -0.4455 -0.1533
13406TIP3    H161709   0.097   0.697   0.147 -1.5579 -1.6926 -1.2960
13406TIP3    H261710   0.083   0.840   0.099 -0.3005 -0.2968  2.1562
13407TIP3   OH261711   4.442   4.377  14.451 -0.6007  0.0983 -0.6537
13407TIP3    H161712   4.526   4.345  14.483 -0.3196  0.8942 -0.6003
13407TIP3    H261713   4.378   4.344  14.515 -0.1527  0.8434  0.1959
13408TIP3   OH261714   0.361   5.514  13.090  0.5929 -0.4111  0.0819
13408TIP3    H161715   0.359   5.512  12.994  0.1534  0.7767  0.0498
13408TIP3    H261716   0.341   5.425  13.117  1.1183 -0.8491 -0.9380
13409TIP3   OH261717   3.256   1.155   2.949 -0.2954 -0.0421  0.1730
13409TIP3    H161718   3.258   1.243   2.987  2.1303  0.3056 -0.5857
13409TIP3    H261719   3.330   1.110   2.989  0.5655 -0.5990 -1.8835
13410TIP3   OH261720   2.343   3.845   3.047  0.2982  0.0297 -0.0783
13410TIP3    H161721   2.381   3.908   2.985 -0.0607  0.3789  0.0521
13410TIP3    H261722   2.327   3.766   2.995  0.4473  0.1570 -0.3191
13411TIP3   OH261723   2.624   4.877  16.519 -0.3616  0.1910  0.0976
13411TIP3    H161724   2.703   4.845  16.476 -1.6700 -3.1708 -0.1012
13411TIP3    H261725   2.576   4.923  16.449 -0.5323 -1.5796 -1.0101
13412TIP3   OH261726   2.177   3.176   2.533  0.4230  0.8265 -0.4864
13412TIP3    H161727   2.154   3.210   2.620  2.3097 -0.8540  0.7407
13412TIP3    H261728   2.108   3.113   2.513 -0.3254  1.6262 -0.4838
13413TIP3   OH261729   4.227   2.119  16.831  0.1288  0.1293  0.0630
13413TIP3    H161730   4.220   2.193  16.891 -1.6112  0.4234 -0.4370
13413TIP3    H261731   4.144   2.072  16.842 -0.0077 -0.1094 -1.6827
13414TIP3   OH261732   0.141   1.716   0.399  0.0137  0.1067  0.4142
13414TIP3    H161733   0.150   1.789   0.337 -0.4465 -1.0313 -1.0388
13414TIP3    H261734   0.058   1.675   0.376  1.5695 -2.6203 -0.7674
13415TIP3   OH261735   2.788   2.486  11.277  0.4989  0.0874  0.1189
13415TIP3    H161736   2.848   2.534  11.220 -0.1208  1.6501  0.7076
13415TIP3    H261737   2.738   2.430  11.218  2.2485 -0.9690 -0.4170
13416TIP3   OH261738   6.530   4.156  11.052 -0.4407  0.0970 -0.3608
13416TIP3    H161739   6.595   4.198  10.995  0.4968 -0.8601 -0.0330
13416TIP3    H261740   6.541   4.062  11.035  0.4940 -0.2971  2.0020
13417TIP3   OH261741   3.610   4.045   5.512 -0.3540  0.1547 -0.4059
13417TIP3    H161742   3.704   4.040   5.532 -0.3213 -1.5863 -0.8038
13417TIP3    H261743   3.599   3.985   5.438 -1.6341  1.0461 -0.9555
13418TIP3   OH261744   6.154   4.337  12.722  0.2790  0.4161  0.4146
13418TIP3    H161745   6.120   4.409  12.670 -2.6279 -0.4672  0.8669
13418TIP3    H261746   6.117   4.351  12.809  0.7847 -0.8598  0.8625
13419TIP3   OH261747   1.219   5.149  15.093  0.1005 -0.2132 -0.2439
13419TIP3    H161748   1.183   5.219  15.038  1.4818  0.5729 -0.1999
13419TIP3    H261749   1.176   5.070  15.062 -0.1300  0.4016 -1.5714
13420TIP3   OH261750   5.274   6.693   6.314 -0.2812 -0.3754  0.2236
13420TIP3    H161751   5.338   6.635   6.272 -0.3487  1.1673 -2.2200
13420TIP3    H261752   5.320   6.727   6.390 -0.1716 -3.3559  1.6335
13421TIP3   OH261753   4.558   2.028   5.023 -0.3670  0.0119  0.2678
13421TIP3    H161754   4.499   2.017   5.098 -0.3302  0.2250  0.3291
13421TIP3    H261755   4.529   2.109   4.982 -0.1766  0.0683  0.2429
13422TIP3   OH261756   3.168   5.865   4.345 -0.0623  0.2254 -0.2317
13422TIP3    H161757   3.147   5.779   4.381 -0.7281  1.1839  1.8151
13422TIP3    H261758   3.234   5.900   4.404 -0.4310  1.4519 -0.5276
13423TIP3   OH261759   3.880   3.766  16.785 -0.3212  0.3904 -0.1230
13423TIP3    H161760   3.870   3.676  16.755 -1.1742  0.8829 -1.4026
13423TIP3    H261761   3.949   3.802  16.730 -1.3873  1.0873 -1.0516
13424TIP3   OH261762   6.378   2.059   5.145 -0.0907  0.7746 -0.0811
13424TIP3    H161763   6.328   2.004   5.205 -1.8029  1.5328 -0.7440
13424TIP3    H261764   6.407   2.133   5.198  0.3059  0.3506  0.3005
13425TIP3   OH261765   1.512   2.127  16.357 -0.4721  0.2132 -0.3962
13425TIP3    H161766   1.548   2.043  16.329  1.6111  0.9250 -0.0404
13425TIP3    H261767   1.577   2.162  16.419 -1.3405  2.0110 -0.4323
13426TIP3   OH261768   6.292   1.860   4.380 -0.0194 -0.2168  0.0356
13426TIP3    H161769   6.360   1.896   4.437  0.3441 -1.2148  0.2523
13426TIP3    H261770   6.337   1.792   4.329 -0.7429 -0.5616 -0.1548
13427TIP3   OH261771   2.648   1.569  11.458 -0.3622  0.0663 -0.1459
13427TIP3    H161772   2.606   1.511  11.394 -2.0752  0.0964  0.8980
13427TIP3    H261773   2.735   1.586  11.421 -0.7487 -1.1165 -1.7135
13428TIP3   OH261774   2.745   0.356  16.346 -0.2555  0.2214  0.2332
13428TIP3    H161775   2.759   0.414  16.420 -1.7860 -0.3720  1.0324
13428TIP3    H261776   2.774   0.270  16.377  0.5898  0.2510 -0.4252
13429TIP3   OH261777   3.285   0.698  16.749  0.4277  0.1270 -0.1057
13429TIP3    H161778   3.341   0.647  16.808 -1.2439 -1.9949 -0.2384
13429TIP3    H261779   3.343   0.767  16.715  1.7390  0.8038  3.1101
13430TIP3   OH261780   0.570   2.903   2.573  0.0657 -0.2388 -0.1012
13430TIP3    H161781   0.528   2.817   2.583  1.1532 -0.8229 -0.3671
13430TIP3    H261782   0.567   2.920   2.479 -0.1840  0.0402 -0.0436
13431TIP3   OH261783   5.810   0.194   0.598 -0.5098  0.0303  0.4787
13431TIP3    H161784   5.721   0.221   0.617  0.0216  1.5487  0.9858
13431TIP3    H261785   5.857   0.276   0.580  1.1159 -0.5773  1.6796
13432TIP3   OH261786   3.520   6.056  14.674  0.0412 -0.3108 -0.3087
13432TIP3    H161787   3.611   6.072  14.648 -0.2395 -0.0126 -1.1476
13432TIP3    H261788   3.480   6.015  14.597 -0.6055 -0.1716 -0.0523
13433TIP3   OH261789   3.809   0.550  14.958 -0.3270 -0.0837  0.1310
13433TIP3    H161790   3.821   0.644  14.971 -0.6855  0.1777 -1.2867
13433TIP3    H261791   3.718   0.534  14.984 -0.7494  0.2628 -1.0665
13434TIP3   OH261792   1.379   4.569  16.621 -0.5730 -0.2773  0.6078
13434TIP3    H161793   1.429   4.558  16.540 -0.3959  2.1477  0.3178
13434TIP3    H261794   1.412   4.500  16.679 -0.2930 -1.6911 -1.1559
13435TIP3   OH261795   4.391   1.824   1.131 -0.6032  0.3640  0.5176
13435TIP3    H161796   4.343   1.753   1.172 -0.6912  0.4051  0.4880
13435TIP3    H261797   4.401   1.890   1.200  1.3661 -0.5637  1.1697
13436TIP3   OH261798   3.302   1.380  15.474  0.4317  0.9284 -0.3691
13436TIP3    H161799   3.364   1.317  15.436 -0.2490 -0.9458  1.4111
13436TIP3    H261800   3.358   1.440  15.525  0.8911 -0.7654  1.2581
13437TIP3   OH261801   1.240   1.593   0.201  0.4016 -0.0330  0.3459
13437TIP3    H161802   1.215   1.577   0.110  0.1422  1.3970  0.1434
13437TIP3    H261803   1.182   1.537   0.252 -0.4344  0.2119 -0.3143
13438TIP3   OH261804   5.505   2.673  11.308 -0.5267  0.3513  0.2190
13438TIP3    H161805   5.502   2.716  11.223 -0.8438  0.4625  0.2855
13438TIP3    H261806   5.497   2.579  11.288  2.1323  0.1101 -0.0854
13439TIP3   OH261807   2.810   0.131   2.304  0.1410 -0.2382 -0.5983
13439TIP3    H161808   2.837   0.077   2.230 -0.0719 -0.9390 -0.1700
13439TIP3    H261809   2.866   0.209   2.299  0.3300 -0.4156 -1.3178
13440TIP3   OH261810   0.924   2.818  16.630  0.2645 -0.3205  0.8493
13440TIP3    H161811   0.935   2.728  16.662 -0.1557 -1.0558 -0.9546
13440TIP3    H261812   0.830   2.828  16.616  0.0364  1.1771  3.0527
13441TIP3   OH261813   1.307   5.017  10.576  0.8469 -0.2485 -0.2126
13441TIP3    H161814   1.379   4.993  10.517  1.0062  0.3664 -0.2746
13441TIP3    H261815   1.314   4.954  10.648  2.0580  0.3979  0.2723
13442TIP3   OH261816   2.795   1.126  16.097 -0.0322  0.4296 -0.4626
13442TIP3    H161817   2.854   1.086  16.161 -1.1470 -1.2606 -0.4207
13442TIP3    H261818   2.841   1.120  16.014 -0.4341 -1.6948 -0.5832
13443TIP3   OH261819   6.120   5.076  11.231  0.1084  0.0670  0.7043
13443TIP3    H161820   6.146   4.993  11.192  1.0068  0.8818 -0.5048
13443TIP3    H261821   6.151   5.071  11.322 -1.1212 -1.4607  1.0796
13444TIP3   OH261822   3.111   4.797  16.292  0.4082 -0.2801 -0.5302
13444TIP3    H161823   3.154   4.847  16.222 -1.4978  1.4413 -0.5495
13444TIP3    H261824   3.075   4.720  16.248  1.5056 -0.5863 -0.9217
13445TIP3   OH261825   2.752   4.386   0.928  0.3465 -0.4733  0.8366
13445TIP3    H161826   2.756   4.481   0.941 -0.1669 -0.1450 -1.0860
13445TIP3    H261827   2.773   4.374   0.835 -1.6641 -2.0434  0.5197
13446TIP3   OH261828   4.283   3.950  15.285  0.2110 -0.2054  0.8328
13446TIP3    H161829   4.261   3.865  15.247  0.1113 -0.2633  1.0233
13446TIP3    H261830   4.318   4.000  15.211 -1.3890  0.1997  0.3117
13447TIP3   OH261831   3.946   3.839   0.085 -0.3342 -0.0293  0.6468
13447TIP3    H161832   3.985   3.901   0.146 -0.3242  1.0203 -0.3926
13447TIP3    H261833   4.010   3.769   0.077  0.6217  0.8737  0.2122
13448TIP3   OH261834   6.739   2.351   3.317  0.6349 -0.1260  0.2072
13448TIP3    H161835   6.713   2.259   3.320 -2.2738  0.6193  0.9143
13448TIP3    H261836   6.773   2.362   3.228 -1.6294 -1.3041 -0.9136
13449TIP3   OH261837   2.555   0.458   2.280  0.1892 -0.4137  0.0775
13449TIP3    H161838   2.614   0.408   2.224  0.2933  0.5271 -0.6725
13449TIP3    H261839   2.600   0.542   2.294 -1.2665  0.5995 -1.0981
13450TIP3   OH261840   0.048   2.839   3.824 -0.2008  0.1086  0.2790
13450TIP3    H161841  -0.035   2.792   3.832 -2.2125  2.6735 -3.0241
13450TIP3    H261842   0.025   2.931   3.838  2.1258  0.8914 -0.5737
13451TIP3   OH261843   3.219   0.100   5.672  0.2353  0.0225 -0.2151
13451TIP3    H161844   3.268   0.093   5.754  1.2459  0.6061 -0.7437
13451TIP3    H261845   3.239   0.020   5.624 -0.7139 -0.5258  0.2817
13452TIP3   OH261846   4.141   2.697   4.626  0.0183  0.1006  0.1564
13452TIP3    H161847   4.057   2.743   4.627  0.7890  1.6239  1.7508
13452TIP3    H261848   4.183   2.725   4.545 -0.6734 -0.0056 -0.2402
13453TIP3   OH261849   1.031   5.030   2.645  0.5845  0.1813 -0.3163
13453TIP3    H161850   1.110   4.984   2.616 -0.0038 -0.6187 -0.6635
13453TIP3    H261851   1.028   5.109   2.591  0.6844 -0.2087 -0.8948
13454TIP3   OH261852   5.979   5.404   4.503 -0.0017 -0.0600 -0.1150
13454TIP3    H161853   6.003   5.484   4.550  0.3584 -0.3755  0.2324
13454TIP3    H261854   6.038   5.402   4.428 -0.6521  0.5033 -0.6611
13455TIP3   OH261855   3.328   3.698  11.755 -0.0412  0.1434  0.0516
13455TIP3    H161856   3.239   3.661  11.752  0.6175 -1.5673  0.1057
13455TIP3    H261857   3.322   3.779  11.705 -1.8944  0.7036  1.0717
13456TIP3   OH261858   1.048   6.203  14.469  0.0292  0.4419  0.4188
13456TIP3    H161859   1.029   6.264  14.398  0.2287  0.9391  0.7902
13456TIP3    H261860   1.144   6.199  14.472  0.0160  0.0386  0.3360
13457TIP3   OH261861   6.707   0.138  10.431  0.0999  0.1223  0.0753
13457TIP3    H161862   6.788   0.102  10.396  0.6477  0.1647  1.2521
13457TIP3    H261863   6.647   0.064  10.437 -0.6398  0.4002 -2.5539
13458TIP3   OH261864   4.320   1.982  12.146  0.2220  0.0610  0.4347
13458TIP3    H161865   4.351   1.891  12.150  1.6694  0.5206  0.0278
13458TIP3    H261866   4.225   1.974  12.154  0.4521 -1.3043  3.0539
13459TIP3   OH261867   6.843   0.990  14.406  0.1662 -0.4770  0.0842
13459TIP3    H161868   6.922   0.943  14.433  0.4844  0.4908  0.8919
13459TIP3    H261869   6.844   0.985  14.310  0.1563 -2.1424  0.1572
13460TIP3   OH261870   2.214   4.714   0.952 -0.1311  0.0089 -0.0641
13460TIP3    H161871   2.241   4.672   1.034  0.7833  2.4452  0.9587
13460TIP3    H261872   2.121   4.692   0.944  0.1598 -1.7122  0.6629
13461TIP3   OH261873   1.889   4.755  15.906 -0.4711  0.2960  0.4655
13461TIP3    H161874   1.908   4.757  16.000 -2.5343 -2.5703  1.0588
13461TIP3    H261875   1.805   4.801  15.897 -0.1432  0.8161 -0.0601
13462TIP3   OH261876   6.135   3.290  13.345  0.1186  0.5708  0.4800
13462TIP3    H161877   6.116   3.265  13.255  0.3714  2.0226 -0.0103
13462TIP3    H261878   6.064   3.350  13.370  1.2456  2.0128  0.4002
13463TIP3   OH261879   2.824   2.929  14.729 -0.1580  0.2221  0.1677
13463TIP3    H161880   2.835   3.000  14.793  1.7362  0.5019 -0.3944
13463TIP3    H261881   2.751   2.878  14.762 -0.7863  1.7366  1.2559
13464TIP3   OH261882   4.444   3.078   1.214  0.5467 -0.3267  0.1111
13464TIP3    H161883   4.442   3.065   1.119 -0.7508 -2.3937  0.3634
13464TIP3    H261884   4.532   3.051   1.241  0.9098  0.2393 -0.4683
13465TIP3   OH261885   5.341   3.070  14.780 -0.0405  0.2941 -0.3956
13465TIP3    H161886   5.391   3.006  14.830  2.2537  1.3958 -1.1489
13465TIP3    H261887   5.406   3.116  14.727 -1.8811  1.7707 -1.5175
13466TIP3   OH261888   3.921   2.474   1.461  0.5855 -0.3915  0.0203
13466TIP3    H161889   3.849   2.536   1.446 -0.7729 -1.7653  0.6679
13466TIP3    H261890   3.978   2.486   1.385  0.7870  2.1696  0.4698
13467TIP3   OH261891   3.725   4.640   1.056  0.0153  0.1517  0.5088
13467TIP3    H161892   3.766   4.666   1.139  0.7272 -0.0974  0.2313
13467TIP3    H261893   3.641   4.601   1.083  1.1946 -2.0028  1.2878
13468TIP3   OH261894   4.982   5.506  15.017 -0.3457 -0.2426 -0.0556
13468TIP3    H161895   4.960   5.569  14.949  0.3772 -0.2668 -0.3227
13468TIP3    H261896   5.073   5.483  14.999 -1.0466 -2.5759 -0.9267
13469TIP3   OH261897   0.304   3.084  16.725  0.6722 -0.6398 -0.0307
13469TIP3    H161898   0.250   3.135  16.785  1.1284 -2.1671  1.7572
13469TIP3    H261899   0.382   3.137  16.712 -0.3072  0.6409 -0.9770
13470TIP3   OH261900   4.148   4.931  14.264 -0.2062  0.0323 -0.5686
13470TIP3    H161901   4.091   5.008  14.261 -1.5536 -0.8676  0.5542
13470TIP3    H261902   4.180   4.921  14.174 -4.1125 -1.0796 -2.0110
13471TIP3   OH261903   5.431   2.964   3.543  0.1837  0.1371 -0.2412
13471TIP3    H161904   5.517   2.934   3.511  0.7838 -0.3888  1.6988
13471TIP3    H261905   5.393   3.011   3.469  2.4766  1.0680 -0.9407
13472TIP3   OH261906   3.372   2.761   3.649 -0.4890  0.4030 -0.5029
13472TIP3    H161907   3.378   2.677   3.603 -0.5041  0.7619 -1.1661
13472TIP3    H261908   3.422   2.822   3.595 -1.4054  1.0689 -0.6129
13473TIP3   OH261909   0.650   6.392   3.288  0.8504  0.0596 -0.6326
13473TIP3    H161910   0.701   6.374   3.368 -1.2476 -1.6077  0.4177
13473TIP3    H261911   0.613   6.479   3.303 -0.4142 -0.6767  0.7827
13474TIP3   OH261912   4.535   5.099  12.055  0.0629  0.0417  0.0107
13474TIP3    H161913   4.595   5.026  12.068  0.1406  0.4378  2.1219
13474TIP3    H261914   4.553   5.129  11.965  2.1738 -0.6021  0.1789
13475TIP3   OH261915   6.529   1.410   2.757 -0.0829  0.5441 -0.8268
13475TIP3    H161916   6.442   1.376   2.778 -0.0489  0.8382 -0.1712
13475TIP3    H261917   6.522   1.504   2.775  0.9855  0.2637  1.4804
13476TIP3   OH261918   6.181   2.200   0.904 -0.4948 -0.5584  0.0505
13476TIP3    H161919   6.129   2.147   0.965 -0.4381  0.4781  1.0294
13476TIP3    H261920   6.258   2.226   0.955  0.2840 -0.8694 -0.9333
13477TIP3   OH261921   2.715   2.392  15.620 -0.2307 -0.2350 -0.3785
13477TIP3    H161922   2.782   2.339  15.576 -1.1102 -1.6424 -0.0972
13477TIP3    H261923   2.636   2.379  15.567 -1.1264 -1.3613  1.1446
13478TIP3   OH261924   6.204   1.709   3.252 -0.2244  0.0897  0.0690
13478TIP3    H161925   6.249   1.635   3.294  1.5844  0.6906 -0.7002
13478TIP3    H261926   6.225   1.784   3.307 -1.6529  0.1520  0.5752
13479TIP3   OH261927   1.421   0.637   2.564 -0.0378 -0.2703  0.5119
13479TIP3    H161928   1.474   0.716   2.560  2.1703 -1.7049 -1.3287
13479TIP3    H261929   1.364   0.642   2.487 -0.1521 -0.2772  0.5967
13480TIP3   OH261930   2.331   3.584   2.483 -0.4174 -0.1110  0.6373
13480TIP3    H161931   2.390   3.612   2.413 -0.4391  1.3086  1.1534
13480TIP3    H261932   2.244   3.598   2.448 -0.4287  0.9079  1.0443
13481TIP3   OH261933   0.035   5.608   1.952  0.2065 -0.1981 -0.3626
13481TIP3    H161934   0.055   5.547   2.023  0.6154  2.8555  2.4089
13481TIP3    H261935  -0.043   5.654   1.981  0.8430  1.7152 -1.4880
13482TIP3   OH261936   4.175   1.980  16.013 -0.3603  0.1309  0.2861
13482TIP3    H161937   4.155   1.984  16.107 -1.2660  0.7515  0.0832
13482TIP3    H261938   4.089   1.972  15.971  0.0774 -0.8771 -0.4644
13483TIP3   OH261939   4.065   4.783   4.684 -0.0488 -0.1677  0.1054
13483TIP3    H161940   4.035   4.694   4.702  0.5237 -0.3750  0.0681
13483TIP3    H261941   4.097   4.815   4.769  1.1056 -0.5402 -0.1677
13484TIP3   OH261942   0.217   5.487   3.711  0.3799 -0.2694  0.0675
13484TIP3    H161943   0.269   5.410   3.733  1.0799  0.8117  2.5565
13484TIP3    H261944   0.278   5.545   3.664  0.5320 -0.2572  0.2809
13485TIP3   OH261945   2.574   1.809   4.804  0.3521  0.0264  0.1892
13485TIP3    H161946   2.661   1.782   4.833 -0.4329 -0.3038  2.4241
13485TIP3    H261947   2.540   1.735   4.755  0.2223 -1.0400  1.8352
13486TIP3   OH261948   4.350   4.519  13.035 -0.0230 -0.3290 -0.7622
13486TIP3    H161949   4.303   4.568  13.102 -0.1692 -0.5156 -0.7264
13486TIP3    H261950   4.442   4.525  13.060 -0.0647 -0.2851 -0.6206
13487TIP3   OH261951   3.347   3.091   2.405  0.0773 -0.3766  0.3432
13487TIP3    H161952   3.301   3.096   2.321 -0.8816 -0.9542  0.8151
13487TIP3    H261953   3.389   3.005   2.404  1.8477  0.4360 -0.4025
13488TIP3   OH261954   2.029   1.555  12.879  0.0829  0.0197 -0.1591
13488TIP3    H161955   2.037   1.555  12.784  1.7826  0.9573 -0.0393
13488TIP3    H261956   2.005   1.645  12.901  1.3901  0.2445  0.4030
13489TIP3   OH261957   2.390   1.939  10.561  0.1644  0.4804 -0.0056
13489TIP3    H161958   2.357   1.886  10.488 -1.8565  0.9150  0.5375
13489TIP3    H261959   2.399   1.876  10.633  0.5462  0.3577 -0.1588
13490TIP3   OH261960   2.294   5.375   2.197 -0.0479  0.0222 -0.1023
13490TIP3    H161961   2.325   5.465   2.209  3.3822 -1.0447  0.2876
13490TIP3    H261962   2.251   5.375   2.112 -0.7600  2.1526  0.2022
13491TIP3   OH261963   5.275   4.448   5.175 -0.1172 -0.0489  0.3888
13491TIP3    H161964   5.304   4.381   5.113 -0.2704 -1.1557  1.4667
13491TIP3    H261965   5.274   4.404   5.260 -3.8731  0.1705  0.6556
13492TIP3   OH261966   0.615   1.780   2.278 -0.1394 -0.1963  0.3431
13492TIP3    H161967   0.600   1.753   2.188 -1.1442 -0.2912  0.5272
13492TIP3    H261968   0.654   1.703   2.320  0.0114 -0.2651  0.0761
13493TIP3   OH261969   4.389   5.366   4.344 -0.0480 -0.0206 -0.1013
13493TIP3    H161970   4.300   5.380   4.376 -0.4793 -1.3300 -0.6521
13493TIP3    H261971   4.378   5.347   4.251  0.9169  0.8079 -0.4106
13494TIP3   OH261972   3.782   2.472  17.105  0.1699  0.4603 -0.3518
13494TIP3    H161973   3.734   2.502  17.182  0.8525 -0.7003  0.5769
13494TIP3    H261974   3.855   2.534  17.097  0.8689 -0.1609  0.7977
13495TIP3   OH261975   6.118   0.839  16.465  0.2460 -0.3925 -0.4586
13495TIP3    H161976   6.136   0.848  16.558  0.7346 -1.7191 -0.4052
13495TIP3    H261977   6.204   0.840  16.423  0.0213  0.3509 -0.9233
13496TIP3   OH261978   0.522   6.523  13.449  0.4161 -0.4879 -0.1268
13496TIP3    H161979   0.564   6.438  13.438  3.4062  0.9320 -0.4718
13496TIP3    H261980   0.447   6.505  13.506 -0.1724 -3.6118 -1.6601
13497TIP3   OH261981   4.770   2.351   3.683 -0.0541 -0.9455  0.5005
13497TIP3    H161982   4.707   2.308   3.625 -1.8089  0.3950  1.3011
13497TIP3    H261983   4.802   2.281   3.740  0.9850 -2.0957 -1.3920
13498TIP3   OH261984   1.251   2.203   0.179  0.2338  0.0251 -0.2479
13498TIP3    H161985   1.250   2.115   0.139  1.4082  0.6992 -1.8853
13498TIP3    H261986   1.160   2.232   0.175 -0.1558 -1.0746  0.2286
13499TIP3   OH261987   6.286   2.718   2.517 -0.0224  0.0219  0.4612
13499TIP3    H161988   6.205   2.668   2.527  1.1154 -1.6185  2.0830
13499TIP3    H261989   6.280   2.787   2.584 -0.4789  0.5310 -0.0877
13500TIP3   OH261990   5.054   1.478   2.859 -0.4163 -0.8402  0.3462
13500TIP3    H161991   4.985   1.544   2.859  1.4850  1.2462 -0.0806
13500TIP3    H261992   5.008   1.396   2.839 -2.6022  0.6330 -1.1061
13501TIP3   OH261993   5.035   3.079  14.855 -0.0179  0.2833  0.1619
13501TIP3    H161994   5.040   3.102  14.948  1.4169  1.0975 -0.0814
13501TIP3    H261995   5.119   3.107  14.819 -1.0008  1.1209 -1.6279
13502TIP3   OH261996   1.213   3.991  13.352 -0.6137 -0.2095  0.2337
13502TIP3    H161997   1.257   3.957  13.274  0.9153  0.6899  0.6691
13502TIP3    H261998   1.169   3.914  13.389  3.2971 -2.1176  1.5892
13503TIP3   OH261999   0.705   0.332  15.543  0.6355 -0.7410  0.0869
13503TIP3    H162000   0.788   0.325  15.590  2.0225 -1.6128 -2.3096
13503TIP3    H262001   0.660   0.406  15.584  2.6727 -0.0955  1.3037
13504TIP3   OH262002   0.715   0.184  15.886 -0.5087 -0.2392  0.4113
13504TIP3    H162003   0.778   0.214  15.820  0.2525  0.2910  1.3468
13504TIP3    H262004   0.685   0.099  15.854  1.5537 -1.0569  0.4729
13505TIP3   OH262005   5.839   4.176   5.209 -0.0403 -0.0463  0.5200
13505TIP3    H162006   5.933   4.184   5.230  0.2591  1.8845 -1.2422
13505TIP3    H262007   5.837   4.119   5.132 -0.1254  1.1614 -0.3995
13506TIP3   OH262008   6.140   4.713  15.578  0.5339  0.0383  0.0578
13506TIP3    H162009   6.136   4.763  15.496  0.4804 -0.8151 -0.4658
13506TIP3    H262010   6.071   4.647  15.569 -0.0873  0.5112  1.1813
13507TIP3   OH262011   0.816   6.604   3.858  0.5010  0.5122  0.5311
13507TIP3    H162012   0.891   6.624   3.802  0.0758  0.1153 -0.1983
13507TIP3    H262013   0.845   6.530   3.911  0.6026  0.3109  0.1966
13508TIP3   OH262014   4.757   2.655   2.888 -0.1740 -0.4695  0.4504
13508TIP3    H162015   4.781   2.566   2.861 -0.4145 -1.2344  2.5394
13508TIP3    H262016   4.802   2.667   2.972  0.2862  1.6119 -0.0501
13509TIP3   OH262017   5.913   2.290  14.387  0.2864 -0.4200 -0.1571
13509TIP3    H162018   5.876   2.254  14.307  0.8494  0.5655 -0.8846
13509TIP3    H262019   5.856   2.364  14.409 -0.2153 -1.0446  0.6988
13510TIP3   OH262020   0.189   3.187   2.703 -0.2420  0.3272  0.6396
13510TIP3    H162021   0.272   3.188   2.654 -1.3054  1.2211 -1.2778
13510TIP3    H262022   0.188   3.271   2.750 -1.0754  1.4659 -1.2891
13511TIP3   OH262023   1.553   4.202   2.643 -0.4860 -0.1597 -0.1273
13511TIP3    H162024   1.606   4.173   2.717  1.1624 -0.0324 -1.2047
13511TIP3    H262025   1.569   4.296   2.638 -0.6190 -0.1615 -0.6171
13512TIP3   OH262026   2.930   0.409   5.099  0.2947  0.0735  0.4731
13512TIP3    H162027   2.906   0.497   5.128  1.8446  1.1823 -1.3164
13512TIP3    H262028   3.022   0.399   5.126  0.8025 -0.0742 -1.1855
13513TIP3   OH262029   2.259   6.253  15.114  0.5487 -0.2948 -0.1471
13513TIP3    H162030   2.284   6.230  15.025  0.3299  0.0253 -0.2935
13513TIP3    H262031   2.222   6.173  15.150 -0.9676  0.0230 -0.9245
13514TIP3   OH262032   4.869   3.531   2.753 -0.2016  0.0519 -0.2024
13514TIP3    H162033   4.796   3.591   2.739 -0.7747 -0.2957  1.1232
13514TIP3    H262034   4.844   3.451   2.706 -0.1482  0.3262 -0.6960
13515TIP3   OH262035   1.430   3.876   4.706 -0.3799 -0.6684 -0.2085
13515TIP3    H162036   1.357   3.824   4.740 -1.4065  1.4161  0.9731
13515TIP3    H262037   1.496   3.872   4.775 -1.2549  1.0946  0.8124
13516TIP3   OH262038   1.580   3.619  17.033  0.3005  0.9132  0.9894
13516TIP3    H162039   1.575   3.527  17.008  1.4684  0.9769  0.4523
13516TIP3    H262040   1.670   3.630  17.066  0.5012  2.0822  0.0919
13517TIP3   OH262041   0.927   0.351  15.990  0.5765 -0.5579  0.0196
13517TIP3    H162042   0.843   0.307  16.006 -0.4394  0.5076 -1.9516
13517TIP3    H262043   0.992   0.292  16.026 -0.9616 -1.8750  0.7905
13518TIP3   OH262044   3.616   5.243  12.536  0.3278 -0.0866  0.5758
13518TIP3    H162045   3.521   5.228  12.530  0.7080 -2.3509 -0.8905
13518TIP3    H262046   3.639   5.286  12.454  0.6464  0.1135  0.7661
13519TIP3   OH262047   2.247   1.180   4.969  0.0233  0.2160  0.1746
13519TIP3    H162048   2.313   1.214   5.030 -0.8223 -0.8282  1.7465
13519TIP3    H262049   2.237   1.088   4.993 -0.6373 -0.1357 -1.3146
13520TIP3   OH262050   0.890   4.094   5.432 -0.1882  0.6813 -0.0113
13520TIP3    H162051   0.979   4.076   5.402 -0.6275 -1.1932 -0.3602
13520TIP3    H262052   0.844   4.011   5.418 -1.6702  1.2450  1.3163
13521TIP3   OH262053   5.383   2.384   5.769 -1.2142  0.3079 -0.3245
13521TIP3    H162054   5.289   2.367   5.763 -1.0745 -1.2413  1.1274
13521TIP3    H262055   5.423   2.299   5.752 -0.0401  0.9832 -1.0660
13522TIP3   OH262056   1.474   0.289   5.924  0.6011  0.0400 -0.6720
13522TIP3    H162057   1.431   0.209   5.951 -3.0458  1.5644 -1.3988
13522TIP3    H262058   1.518   0.267   5.842 -0.7928 -1.1229 -1.1367
13523TIP3   OH262059   3.240   5.694  16.728  0.2667  0.7701  0.2029
13523TIP3    H162060   3.171   5.662  16.670  2.6351 -2.0359 -1.3007
13523TIP3    H262061   3.304   5.733  16.669  2.1308 -0.9742  0.9688
13524TIP3   OH262062   1.612   2.950  11.479  0.4217  0.3554 -0.5468
13524TIP3    H162063   1.550   3.016  11.448 -2.6142 -1.0559  2.0563
13524TIP3    H262064   1.622   2.890  11.405  0.5217  1.8097 -1.7627
13525TIP3   OH262065   5.899   3.386  15.784  0.2863  0.3170 -0.0063
13525TIP3    H162066   5.977   3.354  15.829  1.3328 -0.3277 -2.1873
13525TIP3    H262067   5.931   3.452  15.723 -0.9075  0.2693 -0.7192
13526TIP3   OH262068   5.307   5.164   4.208 -0.2940 -0.2264  0.2102
13526TIP3    H162069   5.230   5.210   4.241  0.1750  0.1359  0.8290
13526TIP3    H262070   5.309   5.082   4.257 -0.2129 -0.1792  0.2853
13527TIP3   OH262071   5.234   4.789  12.416  0.0641 -0.7677 -0.4626
13527TIP3    H162072   5.214   4.702  12.381  1.1774 -0.5476 -1.7609
13527TIP3    H262073   5.200   4.788  12.505  2.0195 -3.3268  0.3867
13528TIP3   OH262074   3.796   0.130  11.778 -0.6059  0.2159 -0.2197
13528TIP3    H162075   3.796   0.174  11.693  0.8851  0.5284 -0.0881
13528TIP3    H262076   3.719   0.073  11.776 -0.9886  0.7531 -1.4965
13529TIP3   OH262077   0.526   3.670   4.860  0.5121  0.9537 -0.9031
13529TIP3    H162078   0.616   3.694   4.886 -0.1855  1.2197  1.5669
13529TIP3    H262079   0.536   3.586   4.816  1.8773  0.1865  0.7128
13530TIP3   OH262080   1.754   2.135  17.117 -0.2526 -0.1192  0.0333
13530TIP3    H162081   1.825   2.088  17.160  0.9763 -0.7974 -2.5246
13530TIP3    H262082   1.677   2.081  17.133  0.0715 -0.1408  1.6376
13531TIP3   OH262083   1.421   4.198   2.399  0.4550 -0.3839  0.0330
13531TIP3    H162084   1.425   4.289   2.372 -1.2528  0.1445  1.3476
13531TIP3    H262085   1.468   4.195   2.482 -2.4362  0.1800  1.8566
13532TIP3   OH262086   3.202   4.475   2.156  0.5605  0.0066 -0.4869
13532TIP3    H162087   3.235   4.501   2.242 -1.4731  1.3503 -0.0320
13532TIP3    H262088   3.186   4.381   2.164 -1.7584  0.4457  1.4954
13533TIP3   OH262089   1.378   1.155  15.888 -0.0183 -0.5503 -0.6190
13533TIP3    H162090   1.355   1.247  15.900  0.3019 -0.4431 -0.8239
13533TIP3    H262091   1.308   1.120  15.832  0.1113 -0.3195 -0.9236
13534TIP3   OH262092   3.707   6.091   1.686 -0.2431  1.0692 -0.1568
13534TIP3    H162093   3.652   6.107   1.762 -0.5177 -0.5564  0.0174
13534TIP3    H262094   3.788   6.137   1.704 -0.1920  0.4469  1.2571
13535TIP3   OH262095   5.425   5.716   5.614  0.2233  0.1397 -0.0439
13535TIP3    H162096   5.337   5.699   5.647  0.4041  1.3903  1.1336
13535TIP3    H262097   5.412   5.758   5.529 -0.3860  2.2474  1.0494
13536TIP3   OH262098   2.762   6.680  11.476 -0.6767 -0.1727  0.1097
13536TIP3    H162099   2.801   6.762  11.447 -0.7994 -0.5838 -1.3095
13536TIP3    H262100   2.763   6.624  11.398 -2.8688 -0.6623  0.3675
13537TIP3   OH262101   3.227   1.556  14.058 -0.1798  0.4140  0.1910
13537TIP3    H162102   3.175   1.490  14.012  2.2715 -0.1028 -2.1049
13537TIP3    H262103   3.250   1.619  13.990  1.8245  0.8000  1.1543
13538TIP3   OH262104   4.547   1.400  16.844 -0.2658  0.2079 -0.6783
13538TIP3    H162105   4.626   1.447  16.868 -1.0931  1.6512 -0.6883
13538TIP3    H262106   4.502   1.384  16.927  0.8203 -2.1822 -0.4566
13539TIP3   OH262107   5.159   3.354  11.059 -0.0150 -0.5014  0.1849
13539TIP3    H162108   5.211   3.279  11.088 -1.2692 -1.2934  0.5000
13539TIP3    H262109   5.148   3.341  10.965  2.3762  0.9975 -0.3704
13540TIP3   OH262110   5.103   4.865  11.109 -0.6245  0.2702  0.4177
13540TIP3    H162111   5.159   4.787  11.106 -0.4746  0.3662  0.6903
13540TIP3    H262112   5.102   4.890  11.202 -2.7432 -0.9079  0.7800
13541TIP3   OH262113   2.262   6.837   0.065 -0.3504 -0.1909  0.0835
13541TIP3    H162114   2.237   6.928   0.047 -0.8126 -0.2196  0.5666
13541TIP3    H262115   2.301   6.840   0.152 -1.6080 -0.6683  0.6840
13542TIP3   OH262116   5.687   1.383  10.728  0.1156  0.0501 -0.1788
13542TIP3    H162117   5.778   1.353  10.729 -0.1110 -0.6679 -0.4355
13542TIP3    H262118   5.638   1.309  10.691 -0.7038  0.0529  0.8759
13543TIP3   OH262119   3.923   6.384  15.997 -0.2064 -0.1641  0.0719
13543TIP3    H162120   3.961   6.381  15.909  2.0840  2.0732  0.8538
13543TIP3    H262121   3.858   6.454  15.992  0.9593  0.9883  0.4456
13544TIP3   OH262122   6.660   4.418  16.470  0.5501 -0.1198 -0.2579
13544TIP3    H162123   6.648   4.502  16.426  0.3429 -0.6431 -1.2279
13544TIP3    H262124   6.575   4.400  16.511  0.8562  0.5503  0.7312
13545TIP3   OH262125   4.968   1.603  17.101  0.5614 -0.6934  0.1277
13545TIP3    H162126   4.910   1.679  17.102  1.3461 -0.0781  1.6317
13545TIP3    H262127   4.965   1.568  17.190  1.8483 -1.1457  0.0232
13546TIP3   OH262128   3.542   5.743   0.327  0.1048  0.3523 -0.0584
13546TIP3    H162129   3.459   5.735   0.373  1.3812 -1.2549  2.1911
13546TIP3    H262130   3.605   5.700   0.385  2.4347  1.1401 -1.8669
13547TIP3   OH262131   0.912   0.348  14.268  0.3852 -0.1166 -0.2796
13547TIP3    H162132   0.870   0.273  14.226  1.0716 -0.7186  0.0861
13547TIP3    H262133   0.976   0.379  14.204  0.8237 -0.4938 -0.0304
13548TIP3   OH262134   5.430   1.481   4.746  0.2287  0.1100  0.2641
13548TIP3    H162135   5.414   1.394   4.707  2.3509  0.6679 -2.0845
13548TIP3    H262136   5.384   1.541   4.688 -0.1241  0.6881  1.1307
13549TIP3   OH262137   0.188   0.679   1.769 -0.4122 -0.2804  0.1924
13549TIP3    H162138   0.165   0.642   1.855 -0.3100 -0.4496  0.1481
13549TIP3    H262139   0.104   0.697   1.728 -0.4607  0.0652  0.4402
13550TIP3   OH262140   1.224   2.010   1.321  0.0630 -0.0753  0.4605
13550TIP3    H162141   1.167   2.060   1.379  0.5216 -0.1347  0.9754
13550TIP3    H262142   1.236   1.926   1.366 -0.6912 -0.6563 -0.3863
13551TIP3   OH262143   5.745   2.197   0.941  0.4522 -0.0292  0.4801
13551TIP3    H162144   5.799   2.167   0.868 -2.2351  0.4838 -1.9552
13551TIP3    H262145   5.738   2.292   0.928 -0.2564  0.0373  1.2516
13552TIP3   OH262146   5.818   4.943  12.524 -0.1587 -0.3295 -0.3131
13552TIP3    H162147   5.900   4.990  12.537 -0.8979  1.2637 -1.1792
13552TIP3    H262148   5.844   4.857  12.490  1.2071 -0.5253  1.1546
13553TIP3   OH262149   1.588   0.153   5.709  0.6206  0.3305 -0.3670
13553TIP3    H162150   1.634   0.077   5.672  1.5291  0.9691 -0.5637
13553TIP3    H262151   1.594   0.220   5.642  0.0269  0.6662 -0.0924
13554TIP3   OH262152   3.896   0.628   1.843  0.1161  0.3994  0.1342
13554TIP3    H162153   3.982   0.641   1.803 -0.3358  0.3201 -0.8995
13554TIP3    H262154   3.905   0.548   1.895  0.5984  0.2433 -0.1848
13555TIP3   OH262155   3.286   1.169   3.984  1.0951 -0.4780 -0.0265
13555TIP3    H162156   3.359   1.108   3.987  1.7983  0.0979 -2.7854
13555TIP3    H262157   3.314   1.244   4.038  4.0396  1.1128 -3.3645
13556TIP3   OH262158   4.614   1.920   5.757 -0.4489 -0.4131 -0.5362
13556TIP3    H162159   4.572   1.847   5.712  0.1740 -0.0921 -1.6726
13556TIP3    H262160   4.675   1.878   5.819 -0.0381 -0.8683 -1.2380
13557TIP3   OH262161   2.139   0.136  13.871  0.9855 -0.0434 -0.6959
13557TIP3    H162162   2.188   0.118  13.951  1.1390 -0.4823 -0.8847
13557TIP3    H262163   2.147   0.230  13.858  0.2041  0.1748  0.2965
13558TIP3   OH262164   4.797   3.661   2.122  0.2161  0.3331  0.1659
13558TIP3    H162165   4.831   3.595   2.062 -1.0907  1.2601 -1.6794
13558TIP3    H262166   4.860   3.733   2.118  1.0963 -0.3284  1.3867
13559TIP3   OH262167   4.667   1.065   0.582  0.2128  0.2814 -0.5228
13559TIP3    H162168   4.694   1.010   0.656  1.8055 -1.0917 -2.0164
13559TIP3    H262169   4.580   1.032   0.560  0.7381 -1.0420 -0.7701
13560TIP3   OH262170   6.165   5.451  15.596 -0.4234 -0.5296 -0.1157
13560TIP3    H162171   6.121   5.531  15.623  1.1838  0.6071 -0.6708
13560TIP3    H262172   6.244   5.447  15.651 -0.4486 -1.7091 -0.1330
13561TIP3   OH262173   2.587   5.521  14.034  0.7070  0.3263 -0.1457
13561TIP3    H162174   2.596   5.446  14.093  0.1654  0.2355 -0.1715
13561TIP3    H262175   2.677   5.543  14.009  0.8166 -1.7942 -1.9996
13562TIP3   OH262176   5.805   1.787   0.059  0.7752 -0.0255  0.2696
13562TIP3    H162177   5.821   1.806   0.151  1.4078 -0.3411  0.2347
13562TIP3    H262178   5.892   1.787   0.019  0.4271  1.1862 -0.5494
13563TIP3   OH262179   0.680   2.176  15.897 -0.6683  0.3210 -0.3558
13563TIP3    H162180   0.747   2.108  15.897 -2.5286 -1.8021  2.6882
13563TIP3    H262181   0.622   2.153  15.824 -0.3530 -0.3685 -0.3976
13564TIP3   OH262182   3.588   3.578  14.183  0.8134  0.0911  0.3040
13564TIP3    H162183   3.650   3.527  14.131  1.6708  1.3159  0.0933
13564TIP3    H262184   3.544   3.634  14.120  0.2613  0.0137  0.6095
13565TIP3   OH262185   0.382   2.000   3.403  0.1426 -0.3073 -0.6079
13565TIP3    H162186   0.365   2.036   3.316 -1.6615  0.7723  0.1121
13565TIP3    H262187   0.466   2.037   3.429  0.2511  0.1097 -1.5222
13566TIP3   OH262188   1.788   1.178   5.463 -0.0120  0.2280  0.0602
13566TIP3    H162189   1.804   1.091   5.499  1.1499 -0.4278 -1.8815
13566TIP3    H262190   1.745   1.161   5.378  0.8229  1.4917 -0.6421
13567TIP3   OH262191   4.807   2.246  13.743 -0.9075  0.2928  0.4925
13567TIP3    H162192   4.794   2.265  13.650  0.8365 -2.5611 -0.4836
13567TIP3    H262193   4.901   2.257  13.756 -1.2867  1.7820  2.2799
13568TIP3   OH262194   5.114   5.241  13.548 -0.6993  0.1828  0.2032
13568TIP3    H162195   5.174   5.268  13.478  1.5919 -2.3491  0.9999
13568TIP3    H262196   5.152   5.159  13.582 -2.4153  0.5741  3.5209
13569TIP3   OH262197   6.436   6.049   6.459  0.6903  0.2173 -0.1549
13569TIP3    H162198   6.487   5.994   6.401  0.7481  1.2484 -1.1185
13569TIP3    H262199   6.495   6.120   6.484 -0.0822  1.1423 -0.8680
13570TIP3   OH262200   1.033   5.251   1.550  0.2794 -0.2558 -0.1330
13570TIP3    H162201   0.951   5.202   1.545 -0.2113  0.6373 -1.1799
13570TIP3    H262202   1.013   5.336   1.512  1.7777 -0.1179 -0.6859
13571TIP3   OH262203   2.705   4.446   5.616 -0.5105 -0.1456 -0.3453
13571TIP3    H162204   2.646   4.480   5.682  2.2292  2.7487  0.8886
13571TIP3    H262205   2.774   4.512   5.609  2.2220 -2.9018 -2.1589
13572TIP3   OH262206   4.406   0.128   2.763  1.1047  0.0702  0.6291
13572TIP3    H162207   4.377   0.052   2.814  2.4374  0.2171  1.6780
13572TIP3    H262208   4.501   0.132   2.779  1.4974  0.4098 -1.5066
13573TIP3   OH262209   0.354   1.930  16.835 -0.2680 -1.2344  0.6480
13573TIP3    H162210   0.345   1.943  16.741  1.3892 -2.1007  0.3305
13573TIP3    H262211   0.284   1.982  16.874  2.2261  3.8766 -0.7415
13574TIP3   OH262212   5.455   0.462   3.410 -0.0542 -0.4416  0.1777
13574TIP3    H162213   5.500   0.534   3.455 -1.3930  0.1540  0.6169
13574TIP3    H262214   5.434   0.400   3.480 -1.3252  0.0498  0.2506
13575TIP3   OH262215   0.969   0.675  11.860 -0.3078 -0.3905 -0.0588
13575TIP3    H162216   1.034   0.740  11.888 -1.0315  0.1823  0.3260
13575TIP3    H262217   0.892   0.727  11.837 -1.3449 -1.1855  1.4720
13576TIP3   OH262218   4.194   2.930   1.977 -0.7304  0.8379 -0.6485
13576TIP3    H162219   4.147   2.872   1.917 -0.3810  0.3009 -0.4065
13576TIP3    H262220   4.164   2.904   2.064  0.4851  0.0432 -0.4434
13577TIP3   OH262221   3.165   6.650   0.278  0.0632  0.0997  0.0862
13577TIP3    H162222   3.092   6.635   0.339  0.7592 -2.2178  0.4199
13577TIP3    H262223   3.124   6.695   0.204 -1.3324  0.5095  1.0527
13578TIP3   OH262224   1.968   1.164   4.613  0.0604  0.0034  0.0725
13578TIP3    H162225   2.058   1.153   4.581  0.1327  0.6237  0.0545
13578TIP3    H262226   1.966   1.253   4.649  0.4256 -1.1271  3.1764
13579TIP3   OH262227   1.819   4.507   4.707  0.4685 -0.5865 -0.6279
13579TIP3    H162228   1.824   4.588   4.757  0.4196 -1.7107  1.2895
13579TIP3    H262229   1.902   4.502   4.660  1.0009 -0.0472  0.2301
13580TIP3   OH262230   5.001   3.785  14.469  0.2895  0.9559 -0.0061
13580TIP3    H162231   5.083   3.796  14.421  0.6492 -0.1471  0.3275
13580TIP3    H262232   5.012   3.703  14.517 -1.4264  0.2063 -0.8010
13581TIP3   OH262233   5.441   5.184   2.478  0.1046 -0.3499 -0.8537
13581TIP3    H162234   5.510   5.155   2.418  0.6058  3.2603 -2.2918
13581TIP3    H262235   5.367   5.205   2.420  0.2242  2.2070 -0.1985
13582TIP3   OH262236   2.150   0.378  12.746  0.2239 -0.1918  0.1730
13582TIP3    H162237   2.211   0.360  12.674 -0.5836  0.4269 -0.7076
13582TIP3    H262238   2.064   0.356  12.710 -0.1104 -0.7385  1.2776
13583TIP3   OH262239   2.806   4.833  16.240 -0.2215 -0.0055 -0.4747
13583TIP3    H162240   2.862   4.902  16.274 -1.1234  0.2924  0.4691
13583TIP3    H262241   2.865   4.758  16.227  0.3467  0.1903  0.8234
13584TIP3   OH262242   1.718   5.599  16.091 -0.8735 -0.3077 -0.2124
13584TIP3    H162243   1.712   5.692  16.113 -1.0737 -0.6334  1.2770
13584TIP3    H262244   1.661   5.556  16.156  0.0049 -1.5415 -0.2296
13585TIP3   OH262245   1.654   0.567   1.801 -0.2621  0.1230 -0.5663
13585TIP3    H162246   1.641   0.589   1.894 -0.3634  1.1988 -0.8168
13585TIP3    H262247   1.743   0.597   1.782 -0.4127  0.3432 -0.9341
13586TIP3   OH262248   3.568   5.394  13.106  0.1876  0.6094  0.1171
13586TIP3    H162249   3.534   5.331  13.043 -1.4400  1.3480  0.2071
13586TIP3    H262250   3.564   5.349  13.190  0.6311  0.2496 -0.0572
13587TIP3   OH262251   4.826   4.869   1.319 -0.0110  0.2379  0.4831
13587TIP3    H162252   4.902   4.927   1.330  0.9839 -1.0173  0.4367
13587TIP3    H262253   4.862   4.791   1.277 -1.4273 -0.2052  0.0639
13588TIP3   OH262254   0.595   3.872   3.958  0.1984  0.3681  0.4414
13588TIP3    H162255   0.632   3.791   3.922 -1.7455 -0.5733  0.4119
13588TIP3    H262256   0.558   3.917   3.882  1.6387  1.5391  0.3957
13589TIP3   OH262257   6.706   6.650   0.373 -0.3576 -0.1181  0.1223
13589TIP3    H162258   6.701   6.605   0.457  0.3112  0.5074  0.5048
13589TIP3    H262259   6.786   6.703   0.378 -0.4786  0.1738 -0.7823
13590TIP3   OH262260   5.939   0.652   2.764 -0.4296  0.2193  0.5488
13590TIP3    H162261   5.876   0.724   2.756 -2.2488 -1.0957  2.1737
13590TIP3    H262262   5.999   0.681   2.832  0.4343  1.2244 -0.5866
13591TIP3   OH262263   2.529   0.688  12.940  0.1755 -0.1834 -0.1659
13591TIP3    H162264   2.522   0.780  12.914 -0.1157 -0.4802 -1.1776
13591TIP3    H262265   2.534   0.690  13.035 -3.1309  0.6963  0.1017
13592TIP3   OH262266   2.623   2.434   3.997 -0.0451 -0.3475  0.2773
13592TIP3    H162267   2.561   2.424   3.925  0.2632  1.1157 -0.2163
13592TIP3    H262268   2.709   2.417   3.958 -0.0413 -1.5842  0.7818
13593TIP3   OH262269   2.340   3.078   1.624  0.4316  0.2462 -0.0998
13593TIP3    H162270   2.283   3.067   1.547  0.6695  0.3665 -0.2943
13593TIP3    H262271   2.323   3.167   1.653 -0.7963 -0.2882  0.9117
13594TIP3   OH262272   6.576   6.666   4.636  0.7947 -0.5228 -0.0065
13594TIP3    H162273   6.655   6.709   4.669  1.6721 -1.8485 -0.2713
13594TIP3    H262274   6.508   6.689   4.700  1.4735  0.3553  0.4263
13595TIP3   OH262275   1.175   6.510  14.082  0.2460  0.0447  0.5982
13595TIP3    H162276   1.197   6.565  14.007 -1.7662  0.0573 -0.0254
13595TIP3    H262277   1.249   6.449  14.089  0.5008  0.0679 -1.3422
13596TIP3   OH262278   0.728   1.296  16.563 -0.4434  0.5844 -0.0408
13596TIP3    H162279   0.720   1.228  16.495  1.1391  0.7165 -0.3972
13596TIP3    H262280   0.690   1.374  16.523 -0.2435  0.4602 -0.4833
13597TIP3   OH262281   0.535   1.191  12.449 -0.3494  0.5127  0.1884
13597TIP3    H162282   0.557   1.241  12.527 -1.1740  1.3864 -0.1193
13597TIP3    H262283   0.443   1.167  12.461 -0.3417  0.2169 -0.2855
13598TIP3   OH262284   0.905   5.072  14.284 -0.1887 -0.9953 -0.2675
13598TIP3    H162285   0.900   4.999  14.345  0.2942  0.8575  2.1270
13598TIP3    H262286   0.998   5.097  14.284 -0.5178  0.2816 -0.2051
13599TIP3   OH262287   2.521   3.827  12.233  0.4121  0.2105  0.0567
13599TIP3    H162288   2.558   3.826  12.322  0.6278  0.6491 -0.0304
13599TIP3    H262289   2.436   3.783  12.243  1.4033 -1.8540  0.0552
13600TIP3   OH262290   6.584   1.215   0.950  0.1569  0.4806  0.2648
13600TIP3    H162291   6.537   1.258   0.879  1.0388 -0.6626 -1.0542
13600TIP3    H262292   6.663   1.268   0.963  0.7963 -0.1857 -0.7468
13601TIP3   OH262293   2.238   0.429  10.837 -0.4800 -0.0132  0.0299
13601TIP3    H162294   2.264   0.447  10.747  1.4538  0.2728  0.6063
13601TIP3    H262295   2.248   0.334  10.846 -1.8531 -0.2119 -0.3850
13602TIP3   OH262296   0.345   4.575  15.994  0.7016  0.0354 -0.6470
13602TIP3    H162297   0.432   4.551  15.962  0.8092  1.1804 -1.2625
13602TIP3    H262298   0.341   4.539  16.082  2.0237  0.4314 -0.4009
13603TIP3   OH262299   1.446   2.577   4.806 -0.5607  0.1407 -0.4003
13603TIP3    H162300   1.536   2.551   4.821 -0.6418 -0.5373 -1.0560
13603TIP3    H262301   1.394   2.504   4.839 -0.8799  0.5838  0.0974
13604TIP3   OH262302   4.002   5.098   1.501  0.6431  0.6900 -0.3535
13604TIP3    H162303   3.926   5.060   1.546  0.8573  1.6908  0.8983
13604TIP3    H262304   3.970   5.117   1.412 -0.0575 -0.4733 -0.3720
13605TIP3   OH262305   4.834   5.161   3.057  0.4752 -0.2239 -0.1712
13605TIP3    H162306   4.789   5.154   3.141  0.1149  0.7895 -0.2641
13605TIP3    H262307   4.764   5.149   2.992  0.6558 -0.4477 -0.3267
13606TIP3   OH262308   4.230   6.767  13.371  0.1083  0.2955 -0.2533
13606TIP3    H162309   4.252   6.678  13.397 -0.0054  0.3065 -0.1220
13606TIP3    H262310   4.248   6.770  13.277 -3.4550 -0.9585 -1.1050
13607TIP3   OH262311   2.527   1.359  12.546  0.1735 -0.1682 -0.2622
13607TIP3    H162312   2.546   1.286  12.606 -2.1746 -0.2824  0.4460
13607TIP3    H262313   2.507   1.433  12.604  2.4196  1.0785 -0.9728
13608TIP3   OH262314   0.733   3.623   6.497  0.6648  0.2230 -0.1430
13608TIP3    H162315   0.798   3.671   6.548  0.1088  0.8759 -0.0410
13608TIP3    H262316   0.761   3.634   6.406  0.2115  1.2479 -0.1651
13609TIP3   OH262317   1.492   4.721  15.090  0.1924 -0.3977 -0.5105
13609TIP3    H162318   1.438   4.780  15.143  1.6258  0.7285 -0.2491
13609TIP3    H262319   1.558   4.778  15.050  0.3452 -1.5234 -1.9559
13610TIP3   OH262320   0.372   0.642  15.506  0.1590 -0.0007  0.0880
13610TIP3    H162321   0.365   0.546  15.502 -0.0252  0.0220 -0.1945
13610TIP3    H262322   0.346   0.671  15.418 -1.0811  0.3801  0.5547
13611TIP3   OH262323   3.837   3.497   3.664 -0.1634  0.3921 -0.7501
13611TIP3    H162324   3.818   3.587   3.692  0.9877  0.0464  1.3447
13611TIP3    H262325   3.912   3.471   3.718 -1.6849 -2.5034  0.1626
13612TIP3   OH262326   3.950   4.480   1.581 -0.1118 -0.1635 -0.1293
13612TIP3    H162327   3.953   4.541   1.508 -4.1416 -1.9101 -2.0453
13612TIP3    H262328   3.988   4.399   1.546 -1.5510 -0.8461 -0.1687
13613TIP3   OH262329   4.200   5.674  12.374  0.0336  0.1221 -0.1781
13613TIP3    H162330   4.105   5.666  12.376 -0.0956  1.4849  0.6511
13613TIP3    H262331   4.232   5.584  12.376 -1.2275 -0.3350  0.7160
13614TIP3   OH262332   0.495   4.528  12.560 -0.0143 -0.5390  0.1914
13614TIP3    H162333   0.524   4.533  12.469  2.4515 -2.3481  0.7600
13614TIP3    H262334   0.408   4.488  12.555 -0.1714 -0.0614 -1.3888
13615TIP3   OH262335   2.928   4.438   4.179  0.5691  0.0808 -0.1912
13615TIP3    H162336   3.013   4.460   4.218  0.5009 -1.3221  0.8281
13615TIP3    H262337   2.910   4.349   4.209 -0.7759 -0.0457 -1.2676
13616TIP3   OH262338   5.952   0.550  15.588  0.5853  0.4086  0.3055
13616TIP3    H162339   6.018   0.486  15.564 -0.0606 -0.2526  0.2567
13616TIP3    H262340   5.869   0.509  15.564  0.2432  2.0235 -1.4811
13617TIP3   OH262341   0.089   5.866   4.653  0.1613  0.7626 -0.1943
13617TIP3    H162342   0.098   5.961   4.655 -0.5403  0.8302 -0.0533
13617TIP3    H262343  -0.004   5.850   4.670  0.3128  0.0448 -0.0056
13618TIP3   OH262344   5.329   0.614  12.089 -0.0778 -0.4129 -0.2594
13618TIP3    H162345   5.321   0.572  12.175 -0.4586  0.2823  0.0564
13618TIP3    H262346   5.240   0.615  12.054 -0.1398  0.4762 -0.0891
13619TIP3   OH262347   5.670   5.076  14.386 -0.8478  0.0079 -0.0742
13619TIP3    H162348   5.734   5.114  14.326 -0.7104 -0.0192  0.0546
13619TIP3    H262349   5.673   4.982  14.369 -0.9444  0.0192 -0.1559
13620TIP3   OH262350   5.079   1.093   5.702 -0.2728  0.7497 -0.0941
13620TIP3    H162351   5.099   1.030   5.633 -0.9439  1.0282 -0.5495
13620TIP3    H262352   5.075   1.040   5.782  2.7261  0.7331  0.1371
13621TIP3   OH262353   2.398   3.557   2.023 -0.6657  0.0319  0.1908
13621TIP3    H162354   2.434   3.480   1.978  0.3243  0.9886 -0.7224
13621TIP3    H262355   2.326   3.523   2.075 -0.9230 -1.3479 -1.0108
13622TIP3   OH262356   4.814   5.821  12.562 -0.1600 -0.4662 -0.6838
13622TIP3    H162357   4.738   5.780  12.521 -0.9890  1.0402 -0.7401
13622TIP3    H262358   4.889   5.781  12.519 -0.8797 -2.4633 -0.1724
13623TIP3   OH262359   1.174   3.409  17.063  0.2363  0.3649  0.4179
13623TIP3    H162360   1.112   3.401  17.135 -1.1105  2.3472 -0.4121
13623TIP3    H262361   1.223   3.327  17.064 -1.0132 -0.4402  2.3839
13624TIP3   OH262362   4.962   3.826   4.369  0.4005 -0.5524 -0.1138
13624TIP3    H162363   4.877   3.822   4.413  0.0016  0.8922 -0.6970
13624TIP3    H262364   5.020   3.773   4.424 -0.2400  0.5670  1.7536
13625TIP3   OH262365   4.428   1.995   4.018 -0.0586 -0.0532 -0.6155
13625TIP3    H162366   4.459   2.044   3.942  1.5024 -1.7097 -1.1343
13625TIP3    H262367   4.335   2.016   4.024 -0.2789 -0.0214 -3.1102
13626TIP3   OH262368   4.688   6.117  12.944 -0.3286 -0.4057 -0.3210
13626TIP3    H162369   4.756   6.074  12.996 -0.0569  2.1233  1.6080
13626TIP3    H262370   4.730   6.133  12.860  0.8963 -0.3823  0.2654
13627TIP3   OH262371   0.793   4.153  10.414  0.1982  0.3555  0.0367
13627TIP3    H162372   0.779   4.060  10.434  0.6056  0.2633 -0.0895
13627TIP3    H262373   0.856   4.182  10.480 -0.1693  0.6227  0.2676
13628TIP3   OH262374   2.843   6.356   0.784  0.2565  0.1055  0.1626
13628TIP3    H162375   2.770   6.382   0.839  1.2306  1.0970  1.0276
13628TIP3    H262376   2.892   6.292   0.836  1.4177  1.3594  0.6791
13629TIP3   OH262377   3.601   6.092   3.942 -0.1932 -0.2171 -0.2370
13629TIP3    H162378   3.571   6.089   3.851 -1.9941 -2.0238  0.3449
13629TIP3    H262379   3.550   6.163   3.982  0.0092  0.0421 -0.4365
13630TIP3   OH262380   4.171   3.469   1.110 -0.4319 -0.5706  0.4386
13630TIP3    H162381   4.174   3.437   1.020 -2.1559 -2.7451  1.0522
13630TIP3    H262382   4.166   3.564   1.102  0.9388 -0.6103 -1.6762
13631TIP3   OH262383   2.054   6.846   1.450 -0.1243  0.0593  0.1647
13631TIP3    H162384   2.050   6.751   1.438  1.9874  0.0775 -1.2472
13631TIP3    H262385   2.087   6.879   1.367 -0.8104  2.0555  0.6327
13632TIP3   OH262386   4.502   3.462   2.644  0.1848 -0.1693  0.1942
13632TIP3    H162387   4.415   3.484   2.679  0.2356  0.0509  0.1846
13632TIP3    H262388   4.484   3.401   2.573  0.1228 -1.1358  1.0239
13633TIP3   OH262389   6.817   4.274  12.315  0.6170 -0.1042 -0.5658
13633TIP3    H162390   6.799   4.234  12.230 -2.7773 -0.4450  0.1622
13633TIP3    H262391   6.837   4.200  12.372 -1.6547 -0.4535 -0.1286
13634TIP3   OH262392   5.591   3.125  10.887  0.2259 -0.5582  0.6515
13634TIP3    H162393   5.628   3.078  10.812 -0.2541  0.2077 -0.0854
13634TIP3    H262394   5.500   3.096  10.891 -0.2110  0.6266 -0.1070
13635TIP3   OH262395   5.953   2.530  14.625 -0.0021 -0.2729 -0.1911
13635TIP3    H162396   5.950   2.622  14.599  1.7822 -0.1523 -0.0878
13635TIP3    H262397   5.865   2.512  14.658 -0.4881  1.2923 -0.5240
13636TIP3   OH262398   5.685   1.078  12.985 -0.2585 -0.3510 -0.7895
13636TIP3    H162399   5.601   1.063  13.030  0.1804 -0.8099 -0.1006
13636TIP3    H262400   5.740   1.120  13.051  0.8956 -2.3988 -0.3804
13637TIP3   OH262401   5.678   1.825   5.368 -0.0943 -0.2907  0.1551
13637TIP3    H162402   5.688   1.793   5.279 -0.2696  1.0828 -0.3891
13637TIP3    H262403   5.657   1.748   5.420 -1.1200 -0.9379 -1.1842
13638TIP3   OH262404   3.643   2.871  16.239  0.0514 -0.1771  0.0060
13638TIP3    H162405   3.612   2.955  16.271  1.5667 -0.1169  1.4817
13638TIP3    H262406   3.582   2.847  16.169 -0.8640  1.7515  0.0910
13639TIP3   OH262407   1.793   0.331   0.398 -0.4727 -0.5692 -0.3321
13639TIP3    H162408   1.802   0.416   0.355 -2.9516 -0.0617 -0.0270
13639TIP3    H262409   1.780   0.353   0.490 -0.2889 -1.3252 -0.1256
13640TIP3   OH262410   3.413   0.653  11.566  0.4286 -0.5076 -0.1620
13640TIP3    H162411   3.388   0.744  11.548  1.3345  0.5208  3.1282
13640TIP3    H262412   3.330   0.606  11.568 -0.7864  1.4295  3.4946
13641TIP3   OH262413   1.278   3.829   2.588  0.0758  0.5676  0.3792
13641TIP3    H162414   1.223   3.899   2.553  0.6653  0.1171 -1.6393
13641TIP3    H262415   1.367   3.854   2.562  0.2934 -0.8824 -0.3531
13642TIP3   OH262416   1.210   3.133   0.005  0.7703  0.0962 -0.0777
13642TIP3    H162417   1.207   3.037   0.003 -2.4364  0.1019 -0.9574
13642TIP3    H262418   1.128   3.158   0.048  0.9617  2.4574 -0.9648
13643TIP3   OH262419   5.788   0.435   2.822  0.0972  0.4700 -0.0134
13643TIP3    H162420   5.865   0.486   2.796  0.2314  0.5470  0.5200
13643TIP3    H262421   5.803   0.415   2.914  0.8462 -1.9541 -0.5944
13644TIP3   OH262422   4.759   6.123   0.710 -0.2823  0.4968  0.6287
13644TIP3    H162423   4.747   6.129   0.805 -0.6209  3.8888  0.4823
13644TIP3    H262424   4.671   6.131   0.674  0.0594  1.6118  0.0066
13645TIP3   OH262425   0.091   3.370  13.310  0.2386  0.1025  0.4864
13645TIP3    H162426   0.093   3.346  13.218 -2.1890 -1.1535  0.6807
13645TIP3    H262427   0.062   3.461  13.311  1.2683  0.4503  0.0142
13646TIP3   OH262428   4.218   6.252  13.097  0.3227 -0.0105  0.1358
13646TIP3    H162429   4.233   6.265  13.191 -1.2009 -0.4344  0.4742
13646TIP3    H262430   4.300   6.216  13.064  0.8343  0.0109  1.3412
13647TIP3   OH262431   4.202   5.972   4.908 -0.0839 -0.0519  0.0694
13647TIP3    H162432   4.287   5.969   4.952 -0.4494  0.2555  0.8350
13647TIP3    H262433   4.139   5.958   4.979 -0.6731 -0.1760 -0.4715
13648TIP3   OH262434   2.267   5.851  13.576 -0.4194 -0.0930  0.3749
13648TIP3    H162435   2.243   5.816  13.662  1.6561  0.2757  1.1640
13648TIP3    H262436   2.341   5.908  13.593 -2.0743  2.7554 -1.2368
13649TIP3   OH262437   1.695   3.609   3.775  0.7925  0.3393 -0.6618
13649TIP3    H162438   1.677   3.702   3.762 -1.1532  0.3227  1.3094
13649TIP3    H262439   1.707   3.574   3.687 -1.8111  1.8528 -1.7193
13650TIP3   OH262440   4.354   5.627   2.043 -0.2701 -0.5843 -0.1315
13650TIP3    H162441   4.264   5.653   2.024 -0.8814 -0.8435  2.0848
13650TIP3    H262442   4.398   5.709   2.067  0.3724 -0.3237 -2.0386
13651TIP3   OH262443   2.792   0.517   3.767  0.1145 -0.3125  0.0947
13651TIP3    H162444   2.853   0.504   3.694  0.5470  1.1068  0.1786
13651TIP3    H262445   2.806   0.441   3.823 -0.5983 -1.7235 -1.5306
13652TIP3   OH262446   1.187   0.383   5.874 -0.2282 -0.6701  0.0072
13652TIP3    H162447   1.228   0.459   5.831 -0.2107 -0.1898  0.8621
13652TIP3    H262448   1.232   0.308   5.836  1.1751 -0.1728  0.6109
13653TIP3   OH262449   5.862   1.539   3.415 -0.2389  0.4802  0.1376
13653TIP3    H162450   5.777   1.507   3.447 -1.6209  2.8456 -0.9365
13653TIP3    H262451   5.887   1.476   3.348 -1.9674  0.5716 -0.6545
13654TIP3   OH262452   3.994   2.858  12.730  0.4133  0.1512 -1.0198
13654TIP3    H162453   3.978   2.919  12.658 -2.4748 -0.0319 -0.6308
13654TIP3    H262454   3.971   2.772  12.694  0.5927 -0.1717 -0.3842
13655TIP3   OH262455   3.497   1.069  15.817  0.0816  0.1811 -0.1117
13655TIP3    H162456   3.499   0.998  15.882  1.2765 -0.7057 -1.0552
13655TIP3    H262457   3.409   1.106  15.825  0.2221  0.1785  2.0593
13656TIP3   OH262458   3.793   0.064  12.207 -0.5234  0.0384  0.5073
13656TIP3    H162459   3.857   0.026  12.147 -1.3447 -2.1762  0.9630
13656TIP3    H262460   3.774   0.150  12.170  0.0174 -0.6992 -1.6197
13657TIP3   OH262461   1.549   5.213   3.300  0.7980 -0.0389  0.0170
13657TIP3    H162462   1.563   5.308   3.296  1.5518 -0.1749 -1.1806
13657TIP3    H262463   1.464   5.200   3.258  1.7582 -0.0686 -2.0251
13658TIP3   OH262464   0.791   0.177   4.841 -0.1909 -0.1767  0.6055
13658TIP3    H162465   0.861   0.202   4.901 -0.9981  0.8317  1.1529
13658TIP3    H262466   0.755   0.096   4.880 -0.4589  0.2587  1.2879
13659TIP3   OH262467   3.368   3.846  13.905 -0.2552  0.0600  0.0246
13659TIP3    H162468   3.290   3.896  13.879 -0.8880 -0.1911  1.3316
13659TIP3    H262469   3.411   3.901  13.971 -0.8043 -0.9379  1.2704
13660TIP3   OH262470   5.611   0.615   0.739 -0.6947  0.6713 -0.0006
13660TIP3    H162471   5.699   0.652   0.727 -0.6129  0.3945 -0.2635
13660TIP3    H262472   5.616   0.567   0.821  0.0609 -1.2353 -1.1057
13661TIP3   OH262473   0.828   4.613  15.527  0.1320 -0.4035  0.0459
13661TIP3    H162474   0.833   4.685  15.590 -2.2389 -0.8614  0.8549
13661TIP3    H262475   0.745   4.626  15.482 -0.7031 -2.9934  0.6897
13662TIP3   OH262476   6.435   0.807   1.003 -0.4480 -0.0395  0.2250
13662TIP3    H162477   6.355   0.858   0.989 -0.9055 -0.9782 -0.7386
13662TIP3    H262478   6.409   0.717   0.984  0.8988 -0.3302 -0.3495
13663TIP3   OH262479   5.811   1.728  14.608 -0.0701 -0.3821  0.3861
13663TIP3    H162480   5.764   1.711  14.690  1.7791 -1.0814  1.3667
13663TIP3    H262481   5.753   1.696  14.540 -2.8297  2.5200  1.1180
13664TIP3   OH262482   5.510   1.993   3.903  0.0136  0.4554  0.5081
13664TIP3    H162483   5.544   2.049   3.833  0.2857 -0.5031 -0.1447
13664TIP3    H262484   5.585   1.941   3.930 -0.5435 -0.5252  0.1941
13665TIP3   OH262485   6.003   6.059  14.195 -0.2345  0.3108 -0.4070
13665TIP3    H162486   5.941   5.987  14.183 -0.5310  0.2820  1.0851
13665TIP3    H262487   5.951   6.138  14.182 -0.4208  0.2747  0.0957
13666TIP3   OH262488   1.773   5.935  11.840  0.0261  0.1811  0.6432
13666TIP3    H162489   1.857   5.889  11.850  0.6413  1.4510  1.6523
13666TIP3    H262490   1.746   5.916  11.750  0.0624 -2.3926  1.1095
13667TIP3   OH262491   3.017   3.880   1.403 -0.2864  0.4640 -0.2627
13667TIP3    H162492   2.960   3.855   1.476 -0.7734  2.3284  0.0381
13667TIP3    H262493   3.086   3.814   1.404 -1.6081 -0.9935  0.3015
13668TIP3   OH262494   4.379   5.591  16.852  0.6889 -0.3654 -0.6438
13668TIP3    H162495   4.448   5.590  16.785  2.0098  0.8174  0.6197
13668TIP3    H262496   4.426   5.605  16.934 -0.8716 -1.8934  0.5832
13669TIP3   OH262497   6.273   3.215   5.655 -0.2036 -0.3953 -0.1612
13669TIP3    H162498   6.237   3.284   5.710  4.6146  1.7699  0.8304
13669TIP3    H262499   6.276   3.138   5.711 -1.7099 -0.2345  0.1711
13670TIP3   OH262500   2.416   5.616   2.560 -0.1999  0.7026  0.2771
13670TIP3    H162501   2.454   5.610   2.472  0.2571  3.4130  0.1994
13670TIP3    H262502   2.492   5.619   2.619 -0.4843 -0.1397  0.7028
13671TIP3   OH262503   2.321   1.245  12.319  0.3050 -0.3954 -0.5467
13671TIP3    H162504   2.288   1.333  12.300  0.8360  0.5218  2.3241
13671TIP3    H262505   2.414   1.257  12.337  0.3194 -1.4733  0.2145
13672TIP3   OH262506   0.272   4.698   4.815 -0.4070  0.1899 -0.2146
13672TIP3    H162507   0.178   4.705   4.827 -0.4498 -0.9281  0.2612
13672TIP3    H262508   0.307   4.782   4.846 -1.2540  0.6693 -0.5513
13673TIP3   OH262509   2.734   2.751  12.976  0.2544  0.2524  0.6557
13673TIP3    H162510   2.673   2.796  13.035  1.2012  0.4264  1.5506
13673TIP3    H262511   2.736   2.661  13.008 -0.2077  0.0200  0.0539
13674TIP3   OH262512   5.117   6.468   0.429 -0.1150 -1.1311 -0.0838
13674TIP3    H162513   5.116   6.472   0.333  0.9172 -0.6558 -0.0883
13674TIP3    H262514   5.171   6.391   0.449 -0.3621 -1.2534  0.1169
13675TIP3   OH262515   5.950   3.513  15.177  0.5671 -0.3861  0.3433
13675TIP3    H162516   5.941   3.421  15.200 -0.0533  0.0271  1.8845
13675TIP3    H262517   5.884   3.558  15.230  1.2325  1.0008  0.0553
13676TIP3   OH262518   0.680   3.988  12.976  0.4718 -0.4057  0.1484
13676TIP3    H162519   0.734   4.056  12.937 -0.2606  0.3742  0.4518
13676TIP3    H262520   0.591   4.023  12.972 -0.0244 -1.6622 -0.3490
13677TIP3   OH262521   4.100   3.836   1.966  0.0603 -0.1927  0.6984
13677TIP3    H162522   4.037   3.847   2.038 -0.3885  0.5963  0.2032
13677TIP3    H262523   4.170   3.898   1.987  0.0257 -0.1061  0.5565
13678TIP3   OH262524   1.097   1.626  15.756  0.3380  0.1198 -0.0308
13678TIP3    H162525   1.161   1.645  15.688  0.7684  0.2413  0.4036
13678TIP3    H262526   1.035   1.699  15.752 -2.2488 -1.9326 -3.2483
13679TIP3   OH262527   5.341   3.599   0.593  0.1948  0.0793  0.9439
13679TIP3    H162528   5.334   3.606   0.688  1.3977  0.8892  1.0000
13679TIP3    H262529   5.423   3.644   0.572  0.6585 -1.2824 -0.3405
13680TIP3   OH262530   5.744   1.431   1.742 -0.2346 -0.0895  0.1419
13680TIP3    H162531   5.668   1.403   1.691  0.4398 -0.2795 -0.7793
13680TIP3    H262532   5.771   1.353   1.790  0.2861 -0.4402 -0.7007
13681TIP3   OH262533   4.484   2.336   0.920 -0.2797  0.2685  0.3571
13681TIP3    H162534   4.535   2.258   0.901 -1.2131  0.0487 -1.4512
13681TIP3    H262535   4.512   2.400   0.855 -1.2007  0.6483  0.3205
13682TIP3   OH262536   0.122   0.385  15.362  0.1849 -0.8077  0.1370
13682TIP3    H162537   0.204   0.352  15.399  1.8858  1.3098 -1.5356
13682TIP3    H262538   0.105   0.328  15.287 -0.2627 -1.6436  0.8531
13683TIP3   OH262539   1.927   1.684   0.458 -0.3492  0.1933 -0.0388
13683TIP3    H162540   1.870   1.650   0.527  2.1208 -3.1167  0.6140
13683TIP3    H262541   1.867   1.712   0.389 -2.8152 -2.0093  1.0330
13684TIP3   OH262542   3.934   0.369  12.593  0.5964 -0.0200  1.3015
13684TIP3    H162543   3.963   0.325  12.513 -0.6762  1.2421  0.0864
13684TIP3    H262544   3.881   0.303  12.639 -0.7746 -0.0198 -0.1816
13685TIP3   OH262545   2.272   1.847   6.762 -0.2119 -0.0515 -0.1322
13685TIP3    H162546   2.273   1.931   6.716  1.1210  0.4408  0.7413
13685TIP3    H262547   2.353   1.803   6.733  0.1571 -0.1386  0.9868
13686TIP3   OH262548   1.737   5.324  15.837 -0.4265  0.1502  0.6491
13686TIP3    H162549   1.821   5.297  15.874 -0.8298 -1.4456  0.4622
13686TIP3    H262550   1.673   5.301  15.904 -0.6901  2.0044  1.0925
13687TIP3   OH262551   0.523   4.496   0.135 -0.1821  0.3781  0.5746
13687TIP3    H162552   0.572   4.431   0.185 -1.5870 -0.1443  1.3440
13687TIP3    H262553   0.568   4.501   0.051  2.2518  1.2765  1.8257
13688TIP3   OH262554   0.509   1.725  16.770  0.2533 -0.5940 -0.2540
13688TIP3    H162555   0.457   1.791  16.815 -0.0852 -0.0320 -1.4564
13688TIP3    H262556   0.446   1.674  16.720  0.7575 -0.3843 -1.1257
13689TIP3   OH262557   5.091   6.435   3.095  0.1857 -0.1371 -0.4132
13689TIP3    H162558   5.032   6.407   3.165 -2.0959  0.6675 -1.9022
13689TIP3    H262559   5.051   6.403   3.014  1.8691  0.3638 -1.5082
13690TIP3   OH262560   2.294   1.169   5.424  0.1574 -0.0731  0.0185
13690TIP3    H162561   2.236   1.096   5.406 -0.4249 -0.0416  1.6463
13690TIP3    H262562   2.371   1.129   5.465  0.2514  0.1243  0.0365
13691TIP3   OH262563   3.962   5.539   1.175 -0.3645 -1.0407 -0.1337
13691TIP3    H162564   3.869   5.560   1.181 -0.1356 -0.2435  1.1132
13691TIP3    H262565   3.970   5.451   1.212 -0.3802 -0.2775  1.8045
13692TIP3   OH262566   4.037   6.812  14.041  0.0393 -0.1493  0.6590
13692TIP3    H162567   4.026   6.896  13.998 -0.8975 -0.0232  1.1115
13692TIP3    H262568   4.031   6.748  13.970  1.7221  0.1858  0.1744
13693TIP3   OH262569   1.348   2.160  15.202 -0.3546 -0.5549 -0.0656
13693TIP3    H162570   1.369   2.234  15.257 -1.1439 -0.3753 -0.0026
13693TIP3    H262571   1.318   2.092  15.262 -1.1007 -0.3996 -0.2539
13694TIP3   OH262572   5.754   1.894   2.215  0.2471  0.1647  0.1972
13694TIP3    H162573   5.731   1.950   2.141 -0.1344  1.8856  1.5683
13694TIP3    H262574   5.681   1.832   2.221  0.3619 -0.1119 -0.9394
13695TIP3   OH262575   1.429   1.371   1.884 -0.1588 -0.1567  0.0868
13695TIP3    H162576   1.457   1.396   1.797  2.6981 -2.5122  0.1562
13695TIP3    H262577   1.372   1.295   1.871 -0.7529  0.2544  0.2435
13696TIP3   OH262578   5.269   2.876  16.370  0.4012 -0.2201  0.2812
13696TIP3    H162579   5.355   2.850  16.337  0.1443 -0.7681  0.0313
13696TIP3    H262580   5.208   2.850  16.301  0.1740  1.6490 -0.2835
13697TIP3   OH262581   6.670   6.433  14.192 -0.2761 -0.2011 -0.2681
13697TIP3    H162582   6.715   6.484  14.259  0.7740  0.8998 -1.7387
13697TIP3    H262583   6.590   6.482  14.174  0.3696  0.5606 -1.1468
13698TIP3   OH262584   3.824   3.442  13.664 -0.0361  0.2037  0.2015
13698TIP3    H162585   3.891   3.481  13.606 -0.7042  1.0208 -0.0505
13698TIP3    H262586   3.874   3.401  13.734  0.7308  0.9675  0.1214
13699TIP3   OH262587   4.031   2.215   1.341 -0.3440 -0.2446 -0.3258
13699TIP3    H162588   4.067   2.264   1.415 -2.4566 -0.1458  0.7279
13699TIP3    H262589   3.963   2.273   1.305 -1.0639 -1.3099 -0.7341
13700TIP3   OH262590   0.393   4.902   4.942 -0.2701 -0.2060 -0.2626
13700TIP3    H162591   0.362   4.991   4.923 -1.9360 -0.1668  2.1464
13700TIP3    H262592   0.477   4.915   4.986 -0.2397  0.1666 -0.4251
13701TIP3   OH262593   1.595   0.272   3.163  0.1730  0.2093  0.1712
13701TIP3    H162594   1.500   0.290   3.162 -0.0298 -0.7558  0.9408
13701TIP3    H262595   1.634   0.351   3.127 -1.0712 -0.3309 -2.6797
13702TIP3   OH262596   4.639   4.375   0.324 -0.5710  0.2653 -0.5619
13702TIP3    H162597   4.637   4.468   0.304 -1.3156  0.2774 -0.4498
13702TIP3    H262598   4.627   4.332   0.239 -3.8250  0.3165 -0.2623
13703TIP3   OH262599   6.499   6.758   0.251  0.6340  0.4063  0.1659
13703TIP3    H162600   6.476   6.818   0.322  1.7095  1.9943 -0.7482
13703TIP3    H262601   6.567   6.702   0.287 -0.8211 -0.7458  1.2284
13704TIP3   OH262602   4.635   3.571   1.877  0.1907  0.0322 -0.3018
13704TIP3    H162603   4.541   3.588   1.887  0.2210 -0.8728  2.5352
13704TIP3    H262604   4.647   3.483   1.913  2.1253  0.1387 -0.6064
13705TIP3   OH262605   3.934   5.609   1.515  0.4842 -0.4848  0.6236
13705TIP3    H162606   3.899   5.615   1.604 -0.2070 -1.2474  0.4250
13705TIP3    H262607   3.925   5.698   1.479 -0.3215 -0.4312  0.9325
13706TIP3   OH262608   5.401   4.469  15.761  0.4681 -0.4805  0.0258
13706TIP3    H162609   5.404   4.557  15.798 -0.5681  0.0644 -1.1289
13706TIP3    H262610   5.341   4.421  15.818  0.2656 -0.1643  0.0779
13707TIP3   OH262611   2.139   3.239  12.729 -0.1127 -0.2917 -0.3324
13707TIP3    H162612   2.077   3.212  12.660 -1.1007 -1.6591  1.0279
13707TIP3    H262613   2.086   3.248  12.807  0.7481  2.6742  0.0335
13708TIP3   OH262614   0.212   1.548   1.323 -0.3967 -0.8531 -0.3745
13708TIP3    H162615   0.209   1.605   1.400  1.4975 -0.2641 -0.6964
13708TIP3    H262616   0.121   1.546   1.292 -0.7917  0.7415  0.5446
13709TIP3   OH262617   5.653   1.193   4.770 -0.2579 -0.0199  0.4156
13709TIP3    H162618   5.742   1.158   4.774 -0.4329 -0.5590 -0.3914
13709TIP3    H262619   5.612   1.148   4.697 -1.1708  0.3007  0.7178
13710TIP3   OH262620   1.413   4.973   4.655  0.2200  0.0656 -0.3215
13710TIP3    H162621   1.384   4.888   4.688 -1.0976  0.7492  0.3693
13710TIP3    H262622   1.429   5.025   4.734 -0.5726  0.9623 -0.7400
13711TIP3   OH262623   0.267   0.044  11.534 -0.0025  0.1913 -0.1002
13711TIP3    H162624   0.235   0.132  11.553 -0.2465  0.0647  0.0949
13711TIP3    H262625   0.189  -0.005  11.509 -0.1290 -0.3613  1.2848
13712TIP3   OH262626   4.277   2.177  13.522 -0.1940 -0.4506  0.1953
13712TIP3    H162627   4.193   2.221  13.526  0.1965  0.6094 -1.9543
13712TIP3    H262628   4.327   2.226  13.457  2.4712 -0.4210  2.0840
13713TIP3   OH262629   2.019   6.151   5.745  0.2444  0.2111 -0.1980
13713TIP3    H162630   2.091   6.199   5.703  1.4245 -1.4195 -0.1621
13713TIP3    H262631   1.997   6.203   5.822  0.8193  1.1784 -0.6656
13714TIP3   OH262632   2.739   3.660   0.487  0.3526  0.3103 -0.2945
13714TIP3    H162633   2.740   3.592   0.554 -0.4458  1.6345  1.1308
13714TIP3    H262634   2.829   3.691   0.482  0.4468  0.0928  0.0438
13715TIP3   OH262635   3.905   3.042   6.084 -0.3880  0.2710 -0.5276
13715TIP3    H162636   3.928   3.121   6.133  0.8968 -0.1896 -0.3362
13715TIP3    H262637   3.965   3.043   6.009 -0.3309 -0.5369 -0.5003
13716TIP3   OH262638   5.054   2.082   0.734  0.7248 -0.2039 -0.0240
13716TIP3    H162639   5.035   2.028   0.811 -1.7008  0.4076 -0.1217
13716TIP3    H262640   4.982   2.144   0.730 -0.4049 -1.4712 -3.9279
13717TIP3   OH262641   5.813   3.070  12.805 -0.4298 -0.7394 -0.2944
13717TIP3    H162642   5.832   2.982  12.837 -0.5078 -0.2188  1.2778
13717TIP3    H262643   5.750   3.057  12.735 -0.7857 -1.9028  0.2123
13718TIP3   OH262644   6.522   0.347   0.355  0.6106 -0.0823 -0.1167
13718TIP3    H162645   6.526   0.346   0.451  0.5235  0.3739 -0.1028
13718TIP3    H262646   6.454   0.412   0.335  1.0342  0.2535 -0.4936
13719TIP3   OH262647   2.077   1.831  15.664 -0.4842 -0.3895 -0.1693
13719TIP3    H162648   2.116   1.784  15.591 -0.9950 -1.0383 -0.0334
13719TIP3    H262649   2.106   1.921  15.653 -2.8808  0.1742 -2.8436
13720TIP3   OH262650   4.421   5.297  16.987 -0.1266 -0.4123  0.0005
13720TIP3    H162651   4.431   5.214  16.941 -0.9610  1.2716 -3.5718
13720TIP3    H262652   4.330   5.298  17.017  0.1448 -1.1210  0.8855
13721TIP3   OH262653   2.726   0.350   0.361  0.3431 -0.0737 -0.5158
13721TIP3    H162654   2.672   0.309   0.293  1.8166  0.3228 -1.9989
13721TIP3    H262655   2.669   0.354   0.438 -1.3750 -0.6052 -1.6974
13722TIP3   OH262656   6.371   3.980   4.788  0.8774  0.6170  0.1097
13722TIP3    H162657   6.461   4.007   4.773  1.3544 -1.1590 -0.3445
13722TIP3    H262658   6.375   3.887   4.808 -0.7760  0.6872  1.0619
13723TIP3   OH262659   4.697   4.867  12.032 -0.1831 -0.9472 -0.0292
13723TIP3    H162660   4.728   4.841  11.945  1.7510  0.4743  0.1929
13723TIP3    H262661   4.669   4.784  12.073 -0.5390 -1.7152 -1.7403
13724TIP3   OH262662   1.594   4.103  12.972 -0.5572  0.7951  0.0720
13724TIP3    H162663   1.657   4.035  12.948 -0.7046  0.5045  0.5138
13724TIP3    H262664   1.635   4.185  12.941 -1.5809  0.3061 -2.9615
13725TIP3   OH262665   2.996   2.900  14.508 -0.3756  0.0395 -0.1924
13725TIP3    H162666   2.952   2.889  14.592  0.6037 -1.3714  0.1675
13725TIP3    H262667   3.087   2.917  14.530 -0.3890  1.2286 -0.9597
13726TIP3   OH262668   3.533   1.351   1.296 -0.5012  0.2740  0.1273
13726TIP3    H162669   3.562   1.437   1.326 -1.0767  0.5410 -0.0635
13726TIP3    H262670   3.444   1.365   1.263 -1.0430 -0.6028  1.1262
13727TIP3   OH262671   5.582   3.295  12.122  0.3109  0.3518  0.4275
13727TIP3    H162672   5.582   3.277  12.216 -2.0441  0.3249  0.4837
13727TIP3    H262673   5.669   3.267  12.093 -0.1788 -3.4262  1.9306
13728TIP3   OH262674   3.165   2.077  11.538 -0.6250 -0.4030 -0.3123
13728TIP3    H162675   3.252   2.096  11.503 -0.5391 -2.2600 -1.1986
13728TIP3    H262676   3.109   2.144  11.500  0.2039  0.1226 -0.6483
13729TIP3   OH262677   2.334   5.224  13.441 -0.1783 -0.0387 -0.3285
13729TIP3    H162678   2.400   5.263  13.499 -1.6245  3.7807 -0.9357
13729TIP3    H262679   2.370   5.234  13.353 -1.0068  1.0184 -0.5732
13730TIP3   OH262680   6.039   5.038   4.459  0.1883 -0.1199  0.6991
13730TIP3    H162681   5.994   4.953   4.455  0.9516 -0.4811 -0.5859
13730TIP3    H262682   6.005   5.079   4.539 -1.1915 -1.0687  0.6305
13731TIP3   OH262683   4.209   3.398  14.052  0.2827 -0.2688 -0.1106
13731TIP3    H162684   4.292   3.420  14.094  0.6553  0.0872 -1.0154
13731TIP3    H262685   4.190   3.309  14.082  1.6800 -0.8817 -0.9462
13732TIP3   OH262686   4.135   3.313   4.814 -0.1199 -0.1243  0.1722
13732TIP3    H162687   4.179   3.229   4.827 -0.5405 -0.6942 -1.8025
13732TIP3    H262688   4.114   3.315   4.721  0.9960  2.7259 -0.1239
13733TIP3   OH262689   1.207   3.718   4.788 -0.7390 -0.6011 -0.7513
13733TIP3    H162690   1.154   3.797   4.798 -0.1674 -0.3154  0.1747
13733TIP3    H262691   1.144   3.650   4.765 -1.8730 -0.6914  2.1285
13734TIP3   OH262692   0.397   4.878  15.361 -0.1315 -0.1299  0.1988
13734TIP3    H162693   0.456   4.944  15.398 -0.3001 -1.5804  3.4066
13734TIP3    H262694   0.332   4.929  15.312  1.7430  1.7497 -0.4804
13735TIP3   OH262695   1.535   6.398   1.036  0.0470  0.0197  0.4648
13735TIP3    H162696   1.458   6.358   0.995 -0.3756  0.9431  0.3290
13735TIP3    H262697   1.505   6.423   1.124  0.6898 -1.1427  1.0288
13736TIP3   OH262698   1.063   1.545   5.176  0.6226 -0.1529  0.3492
13736TIP3    H162699   1.071   1.450   5.172  2.6184 -0.1386  2.2065
13736TIP3    H262700   1.081   1.575   5.087  2.2155 -1.4137  0.2241
13737TIP3   OH262701   3.806   1.807  16.630  0.0220  0.1553  0.0604
13737TIP3    H162702   3.772   1.798  16.541  0.2318  1.9818 -0.2321
13737TIP3    H262703   3.729   1.812  16.685 -0.1147 -1.4966  0.0921
13738TIP3   OH262704   4.904   5.473  14.611 -0.1948 -0.1308  1.0042
13738TIP3    H162705   4.850   5.521  14.673 -0.3033 -0.5428  1.2376
13738TIP3    H262706   4.848   5.460  14.535  0.8623  2.9576 -0.4542
13739TIP3   OH262707   1.224   4.869  15.498  0.0251 -0.1814 -0.2944
13739TIP3    H162708   1.160   4.807  15.462 -1.1571  1.3155 -0.9252
13739TIP3    H262709   1.178   4.912  15.569  0.7873  0.0593  0.0620
13740TIP3   OH262710   6.045   4.976  14.776  0.2242  0.4506 -0.6056
13740TIP3    H162711   6.050   5.059  14.823  0.4951  1.4366 -2.2844
13740TIP3    H262712   6.123   4.975  14.720  1.3253 -1.9048  0.8296
13741TIP3   OH262713   4.630   2.344   3.952  0.0717  0.8127  0.2811
13741TIP3    H162714   4.667   2.265   3.913 -0.6055  1.2723 -1.3748
13741TIP3    H262715   4.700   2.409   3.944 -0.3278  1.1191 -0.9552
13742TIP3   OH262716   5.552   3.874  13.566  0.3752  0.2627 -0.2237
13742TIP3    H162717   5.507   3.906  13.644 -2.3099 -1.9582 -0.6899
13742TIP3    H262718   5.504   3.795  13.542  3.3651 -1.1755 -2.0664
13743TIP3   OH262719   5.257   3.624   0.849 -0.1535 -0.0020  0.3906
13743TIP3    H162720   5.291   3.627   0.938 -1.2935 -0.6176  0.8738
13743TIP3    H262721   5.184   3.562   0.854  1.5771 -2.4133 -1.5969
13744TIP3   OH262722   6.835   1.160  15.981 -0.4106 -0.9388 -0.3151
13744TIP3    H162723   6.753   1.115  15.962 -0.3163 -1.2148 -0.0782
13744TIP3    H262724   6.821   1.201  16.066 -1.3275  1.4634 -1.5499
13745TIP3   OH262725   4.236   5.934   0.283  0.4558 -0.0616 -0.0373
13745TIP3    H162726   4.287   5.990   0.224  0.1412  0.0842 -0.1739
13745TIP3    H262727   4.157   5.984   0.300 -0.0647 -0.6873 -0.5768
13746TIP3   OH262728   0.826   5.229  13.297 -0.0032  0.0414 -0.6127
13746TIP3    H162729   0.733   5.208  13.305  0.6756 -2.7309  1.2303
13746TIP3    H262730   0.839   5.246  13.204 -1.9727 -1.4954 -1.2316
13747TIP3   OH262731   6.045   0.688   2.315 -0.5984  0.1104 -0.1207
13747TIP3    H162732   6.041   0.767   2.369  2.0831  0.9566 -0.9815
13747TIP3    H262733   6.034   0.616   2.377  1.7214  1.0603  1.5421
13748TIP3   OH262734   4.310   6.625  13.780  0.1472 -0.2030 -0.1604
13748TIP3    H162735   4.224   6.662  13.759 -0.0303 -1.1535 -1.2129
13748TIP3    H262736   4.369   6.661  13.713  0.1259 -1.1674 -0.7230
13749TIP3   OH262737   1.340   4.623   2.672 -0.5524  0.1269  0.1196
13749TIP3    H162738   1.295   4.557   2.724 -0.2312  0.4610  0.8248
13749TIP3    H262739   1.301   4.616   2.585  0.5230 -2.0449 -0.2507
13750TIP3   OH262740   4.760   5.582   1.311 -0.5134 -0.0373 -0.0872
13750TIP3    H162741   4.815   5.538   1.376  1.8585  0.4843 -1.5819
13750TIP3    H262742   4.765   5.526   1.233 -0.1489  1.1690 -0.9745
13751TIP3   OH262743   3.373   6.765   2.888 -0.3331  0.2523  0.6010
13751TIP3    H162744   3.396   6.832   2.823 -0.2107 -0.1999  0.1686
13751TIP3    H262745   3.357   6.814   2.968  1.2852  0.6903  0.7039
13752TIP3   OH262746   2.939   1.019   1.585  0.0906  0.1856  0.0315
13752TIP3    H162747   2.879   1.065   1.527 -0.4160 -2.5243 -1.7801
13752TIP3    H262748   3.026   1.043   1.553 -0.0544  1.7561  0.7271
13753TIP3   OH262749   1.158   0.115  13.095  0.4125 -0.0569  0.5409
13753TIP3    H162750   1.233   0.114  13.035  0.4720 -2.3265  0.5710
13753TIP3    H262751   1.186   0.061  13.169 -1.7192 -2.1524 -0.1007
13754TIP3   OH262752   5.640   4.058   3.368 -0.5544  0.0143 -0.3029
13754TIP3    H162753   5.619   4.132   3.424  1.2476 -0.7241  1.4889
13754TIP3    H262754   5.640   4.094   3.280 -1.2746  1.7601  0.3683
13755TIP3   OH262755   0.100   2.695  15.875 -0.8288  0.4371 -0.4300
13755TIP3    H162756   0.062   2.767  15.824  0.3116  2.2618  1.1053
13755TIP3    H262757   0.179   2.734  15.915  0.5477 -2.0693 -0.5082
13756TIP3   OH262758   5.982   0.489   2.513  1.1529 -0.6728  0.1386
13756TIP3    H162759   6.028   0.420   2.560  0.9010 -1.5421 -0.8501
13756TIP3    H262760   5.933   0.536   2.581  0.7777 -1.9048  0.7536
13757TIP3   OH262761   6.512   5.726  12.691  0.8273 -0.1591  0.1684
13757TIP3    H162762   6.468   5.666  12.630 -1.5057  0.8918  0.7175
13757TIP3    H262763   6.595   5.683  12.711  1.3343 -0.9519 -3.0721
13758TIP3   OH262764   4.020   4.151   3.633  0.5326  0.0164 -0.4424
13758TIP3    H162765   4.109   4.115   3.638  0.5281  0.1190  0.7878
13758TIP3    H262766   3.963   4.076   3.649  0.4938  0.3571  1.1871
13759TIP3   OH262767   3.227   0.838  11.534 -0.1483 -0.1227  0.0631
13759TIP3    H162768   3.268   0.871  11.453  0.2459  0.1496  0.3701
13759TIP3    H262769   3.201   0.749  11.512 -0.4987  0.1175 -0.5264
13760TIP3   OH262770   1.094   4.816   4.843 -0.3505 -0.0962 -0.0154
13760TIP3    H162771   1.047   4.736   4.865 -0.8810  0.0164 -0.6997
13760TIP3    H262772   1.167   4.788   4.788  1.1057 -0.4033  1.9622
13761TIP3   OH262773   5.988   4.323  16.816 -0.3339 -0.3595  0.2762
13761TIP3    H162774   6.014   4.406  16.856 -0.7176  0.4305 -1.0834
13761TIP3    H262775   5.996   4.259  16.887  0.1833  0.7891  1.2812
13762TIP3   OH262776   4.539   4.240  10.729  0.0503  0.4476 -0.3695
13762TIP3    H162777   4.549   4.232  10.634 -1.4389 -1.8820 -0.4286
13762TIP3    H262778   4.446   4.222  10.744  0.4255 -0.0648  1.5807
13763TIP3   OH262779   6.266   6.578  12.023  0.2841  0.2933  0.3596
13763TIP3    H162780   6.263   6.484  12.003 -1.7577  0.2436  0.6847
13763TIP3    H262781   6.179   6.610  12.001  0.8883  2.1040  0.4321
13764TIP3   OH262782   6.296   0.600   1.703 -0.4994  0.4294  0.2864
13764TIP3    H162783   6.345   0.659   1.760  1.1218 -0.9411  0.4026
13764TIP3    H262784   6.359   0.572   1.637 -1.3506 -0.7502 -0.0766
13765TIP3   OH262785   4.103   1.196  10.798  0.2311  0.7101  0.7291
13765TIP3    H162786   4.101   1.178  10.892  1.0733  0.4780  0.7145
13765TIP3    H262787   4.175   1.143  10.765 -1.7993 -1.4256 -0.5565
13766TIP3   OH262788   4.159   6.780   4.954  0.1896  0.1976  0.5949
13766TIP3    H162789   4.107   6.812   5.028 -0.1835 -0.5644  0.6720
13766TIP3    H262790   4.195   6.697   4.984  0.2606  0.0111  0.0119
13767TIP3   OH262791   5.612   1.282   1.043  0.0556  0.7561 -0.4847
13767TIP3    H162792   5.610   1.322   1.130  0.7670  1.8743 -0.9540
13767TIP3    H262793   5.549   1.334   0.992  0.2703  0.6560 -0.8525
13768TIP3   OH262794   2.652   0.225  16.010  0.1483  0.1387 -0.2243
13768TIP3    H162795   2.728   0.168  15.997  0.1605 -0.8945  3.3246
13768TIP3    H262796   2.577   0.168  15.995  0.1707 -0.5155  1.7722
13769TIP3   OH262797   6.801   5.030   5.576  0.0695  0.2898  0.1395
13769TIP3    H162798   6.797   4.936   5.556  0.4424  0.7312 -2.2342
13769TIP3    H262799   6.756   5.072   5.504  3.3068  2.1580 -1.0039
13770TIP3   OH262800   3.775   5.209  10.679 -0.3395  0.2185  0.2569
13770TIP3    H162801   3.824   5.205  10.597 -1.2363  0.0786 -0.2872
13770TIP3    H262802   3.813   5.141  10.734  1.2316  1.2693  0.5223
13771TIP3   OH262803   1.881   4.374  14.507 -0.1001  0.3336 -0.1757
13771TIP3    H162804   1.949   4.426  14.550 -1.4573  1.5074  0.6121
13771TIP3    H262805   1.918   4.354  14.420  0.7020  2.1123 -0.2813
13772TIP3   OH262806   4.202   4.093  16.743 -0.5151  0.4201  0.4180
13772TIP3    H162807   4.199   4.004  16.709  1.8126  0.7462 -0.8851
13772TIP3    H262808   4.114   4.128  16.727 -0.7366 -0.8362 -1.4161
13773TIP3   OH262809   0.543   0.633  11.693  0.4256  0.3159  0.3729
13773TIP3    H162810   0.522   0.670  11.778 -0.9684  1.4352 -0.4139
13773TIP3    H262811   0.559   0.540  11.710 -0.7197  0.3391  1.7063
13774TIP3   OH262812   2.334   5.911  11.110  0.3840 -0.2900  0.3572
13774TIP3    H162813   2.430   5.915  11.107  0.3580  0.3611  0.2090
13774TIP3    H262814   2.314   5.818  11.106  0.9157 -0.3595 -2.5681
13775TIP3   OH262815   6.259   4.418   3.896 -0.1700 -0.5240  0.2692
13775TIP3    H162816   6.260   4.355   3.968 -0.3944 -0.9835 -0.1280
13775TIP3    H262817   6.345   4.407   3.854 -0.3879 -0.9094 -0.0889
13776TIP3   OH262818   2.751   1.679  15.812 -0.2539  0.4181  0.0653
13776TIP3    H162819   2.676   1.631  15.778  0.6248 -0.2355 -1.0304
13776TIP3    H262820   2.787   1.724  15.736  2.7013 -2.3059 -0.3680
13777TIP3   OH262821   1.677   4.298  16.282 -0.0356 -0.0381 -0.1277
13777TIP3    H162822   1.599   4.269  16.329 -0.4157  1.2682  0.0828
13777TIP3    H262823   1.645   4.318  16.194 -0.0918  1.1446  0.1489
13778TIP3   OH262824   2.307   3.823   5.195  0.5468 -0.0860  0.5023
13778TIP3    H162825   2.311   3.761   5.268 -0.5113  1.2263  1.7549
13778TIP3    H262826   2.215   3.850   5.192  1.0570  1.8258  0.4108
13779TIP3   OH262827   3.250   1.625   5.813 -0.0191  0.1303 -0.2678
13779TIP3    H162828   3.205   1.586   5.738 -3.1122 -0.5457  1.7693
13779TIP3    H262829   3.227   1.568   5.887 -0.0856  2.7127  1.8327
13780TIP3   OH262830   0.080   5.669  11.194  0.4213  0.1842 -0.0295
13780TIP3    H162831   0.002   5.637  11.148 -0.6564  2.5447  0.0400
13780TIP3    H262832   0.133   5.711  11.126  1.5950 -1.1969 -0.0333
13781TIP3   OH262833   4.010   3.451   2.130 -0.3823  0.3081  0.0376
13781TIP3    H162834   3.965   3.455   2.214  0.5737 -0.2951  0.5913
13781TIP3    H262835   4.017   3.358   2.111 -0.9780  0.4445 -0.9430
13782TIP3   OH262836   0.200   1.112  16.387  0.3525 -0.8617  0.6468
13782TIP3    H162837   0.264   1.148  16.325 -0.0270 -1.2176  0.0352
13782TIP3    H262838   0.117   1.151  16.361 -0.1809 -2.5947 -0.4282
13783TIP3   OH262839   4.811   1.274   5.802  0.6126  0.8507 -0.1614
13783TIP3    H162840   4.841   1.270   5.893  0.5185  0.9109 -0.1263
13783TIP3    H262841   4.852   1.200   5.759 -1.0982 -0.5400  0.4556
13784TIP3   OH262842   6.066   2.062  10.928 -0.7523  0.4144 -0.1459
13784TIP3    H162843   5.971   2.068  10.935 -0.7705 -0.9242  1.1987
13784TIP3    H262844   6.092   1.999  10.995  1.1293  1.0086 -0.2469
13785TIP3   OH262845   4.792   4.794  14.214 -0.0487 -0.9844 -0.3233
13785TIP3    H162846   4.788   4.889  14.201  1.8348 -0.9655 -1.0339
13785TIP3    H262847   4.728   4.777  14.284 -0.4733  0.7817 -0.2296
13786TIP3   OH262848   2.914   1.347  16.830  0.3220 -0.1720 -0.0526
13786TIP3    H162849   2.859   1.329  16.906 -0.5635  0.3327 -0.5540
13786TIP3    H262850   2.903   1.270  16.774  0.3541 -0.1978 -0.0239
13787TIP3   OH262851   2.581   0.387   3.589  0.2600 -0.4452  0.3605
13787TIP3    H162852   2.583   0.314   3.527 -1.5900  0.3280 -0.7154
13787TIP3    H262853   2.670   0.393   3.623  1.0194 -1.7109 -1.2859
13788TIP3   OH262854   2.165   3.579  14.258  0.4166 -0.0665 -0.6570
13788TIP3    H162855   2.086   3.605  14.210  0.8613  0.2583 -1.2236
13788TIP3    H262856   2.154   3.484  14.271  0.5473 -0.2804 -1.9227
13789TIP3   OH262857   3.665   5.081  14.088 -0.1538 -0.7279 -0.5739
13789TIP3    H162858   3.658   5.067  14.182 -2.2482  0.8116 -0.4231
13789TIP3    H262859   3.609   5.013  14.050  0.8456 -1.4721 -0.7510
13790TIP3   OH262860   2.125   6.540  13.747  0.7334 -0.0218 -0.3858
13790TIP3    H162861   2.213   6.542  13.784  0.3813 -1.6200  0.6097
13790TIP3    H262862   2.093   6.452  13.766 -1.4539  0.8388  0.1524
13791TIP3   OH262863   4.811   1.600   4.087  0.0937 -0.4057  0.2294
13791TIP3    H162864   4.762   1.683   4.088 -0.1832 -0.5574  2.1846
13791TIP3    H262865   4.744   1.533   4.101  0.3347 -1.0024 -1.2086
13792TIP3   OH262866   2.523   1.945   2.859 -0.0995  0.2221  0.3984
13792TIP3    H162867   2.556   1.988   2.938 -1.4812 -0.0427  1.1562
13792TIP3    H262868   2.598   1.943   2.799  0.8887  0.7088  1.5801
13793TIP3   OH262869   1.149   1.347   4.837 -0.5973 -0.6100  0.1087
13793TIP3    H162870   1.196   1.347   4.754 -1.5523 -2.1144 -0.4678
13793TIP3    H262871   1.131   1.255   4.856  0.9538 -0.4729  2.8172
13794TIP3   OH262872   1.719   5.038  14.559  0.0461 -0.8145  0.4936
13794TIP3    H162873   1.702   5.127  14.589 -1.8082 -0.6911 -0.7420
13794TIP3    H262874   1.747   4.991  14.637 -1.1062  0.3352  1.6554
13795TIP3   OH262875   4.800   6.254   2.070  0.0998 -0.3197  0.2861
13795TIP3    H162876   4.782   6.330   2.125  0.9120  1.6310 -1.9936
13795TIP3    H262877   4.845   6.290   1.993  0.0608 -3.0474 -1.1217
13796TIP3   OH262878   6.497   6.244  14.103  0.4121  0.4375 -0.0755
13796TIP3    H162879   6.562   6.312  14.122  1.7846 -1.3812  2.3093
13796TIP3    H262880   6.547   6.163  14.103 -1.7446 -1.0008  1.2950
13797TIP3   OH262881   1.340   4.356   3.137  0.1861  0.7061  0.2464
13797TIP3    H162882   1.312   4.393   3.221  2.1137  2.1878  0.2772
13797TIP3    H262883   1.426   4.318   3.155 -0.7611 -1.9603 -0.3312
13798TIP3   OH262884   1.798   5.371   5.531  0.7429  0.3233 -0.8898
13798TIP3    H162885   1.857   5.325   5.471  2.6625  0.4878  0.7498
13798TIP3    H262886   1.809   5.464   5.510  1.4945  0.3880 -0.2632
13799TIP3   OH262887   2.787   0.533   4.817 -0.3748  0.1386 -0.4590
13799TIP3    H162888   2.768   0.587   4.893  1.7596  0.3656 -0.0198
13799TIP3    H262889   2.808   0.595   4.747  1.8296 -0.0091 -0.0226
13800TIP3   OH262890   4.752   0.823   3.762  0.0548 -0.1064 -0.4432
13800TIP3    H162891   4.732   0.871   3.682  0.4292 -1.2241 -1.2365
13800TIP3    H262892   4.666   0.805   3.801 -0.1667 -0.0976 -0.9173
13801TIP3   OH262893   2.804   2.154   3.476 -0.3748  0.2301  0.1733
13801TIP3    H162894   2.802   2.115   3.563 -0.2911 -0.0806  0.0405
13801TIP3    H262895   2.874   2.220   3.480 -0.0708 -0.0926  0.2147
13802TIP3   OH262896   5.787   0.423  10.661 -0.0388 -0.7442 -0.5756
13802TIP3    H162897   5.708   0.468  10.690  0.3128 -1.0704  0.9311
13802TIP3    H262898   5.834   0.489  10.609  1.4171  1.4441  3.1350
13803TIP3   OH262899   3.884   3.266   1.071  0.6802 -0.1017 -0.2073
13803TIP3    H162900   3.894   3.336   1.007 -0.9633  0.0577 -0.3266
13803TIP3    H262901   3.918   3.302   1.153 -1.2849  1.3177  0.0311
13804TIP3   OH262902   0.438   3.919   4.187 -0.2575 -0.4774  0.1764
13804TIP3    H162903   0.476   3.867   4.116  1.6708  0.3700  0.5214
13804TIP3    H262904   0.363   3.964   4.146  2.3017  2.0432 -2.2075
13805TIP3   OH262905   1.512   1.585  15.342  0.0372 -0.0485  0.1960
13805TIP3    H162906   1.596   1.621  15.370  1.3552 -1.2488 -1.9622
13805TIP3    H262907   1.447   1.635  15.392  1.8894  2.6898  0.1284
13806TIP3   OH262908   4.038   6.732   4.445  0.5193 -0.5225 -0.1248
13806TIP3    H162909   3.947   6.719   4.418  0.5582 -0.4148 -0.3135
13806TIP3    H262910   4.067   6.645   4.474  0.6109 -0.7466 -0.8565
13807TIP3   OH262911   6.300   5.720  16.402 -0.1986  0.5485  0.4946
13807TIP3    H162912   6.299   5.625  16.404  1.8632  0.5018  1.1945
13807TIP3    H262913   6.359   5.743  16.330 -0.2871  1.2803  0.6451
13808TIP3   OH262914   2.554   2.648   2.632  0.2607  0.2705  0.3357
13808TIP3    H162915   2.569   2.576   2.570 -0.0682  0.4166  0.0856
13808TIP3    H262916   2.623   2.637   2.698 -1.1140 -1.6435  1.5762
13809TIP3   OH262917   4.304   0.908   2.804  0.2890 -0.3162  0.0462
13809TIP3    H162918   4.232   0.852   2.776 -0.7364  0.4436  1.1043
13809TIP3    H262919   4.375   0.847   2.827 -0.3087 -1.1005 -0.1545
13810TIP3   OH262920   6.344   5.289  16.687  0.4000 -0.1885  0.7242
13810TIP3    H162921   6.338   5.205  16.641 -0.5637 -0.1704  0.7829
13810TIP3    H262922   6.388   5.268  16.770  1.7963 -0.2895 -0.0159
13811TIP3   OH262923   2.057   2.980  13.804 -0.0813 -0.6277 -0.3573
13811TIP3    H162924   2.062   2.993  13.709  0.3073  2.8490  0.0086
13811TIP3    H262925   2.147   2.993  13.835 -0.2978 -1.2255  0.5606
13812TIP3   OH262926   0.766   6.039  15.076 -0.0526  0.0888  0.5304
13812TIP3    H162927   0.824   6.037  15.000  0.8471 -1.0375  1.2134
13812TIP3    H262928   0.825   6.036  15.151 -0.9799 -1.8521  1.2405
13813TIP3   OH262929   4.921   2.786   2.667 -0.0380 -0.2414  0.3272
13813TIP3    H162930   4.875   2.735   2.734 -0.2006 -0.3565  0.1319
13813TIP3    H262931   4.869   2.867   2.659 -1.2912 -1.1340 -1.1848
13814TIP3   OH262932   5.936   3.316   4.072 -0.1408  0.3025  0.0488
13814TIP3    H162933   5.888   3.247   4.025  0.2390 -1.4276  2.0292
13814TIP3    H262934   5.869   3.379   4.097 -0.8191 -0.2752 -0.2643
13815TIP3   OH262935   0.555   1.207  11.266  0.2390 -0.2185  0.0223
13815TIP3    H162936   0.601   1.280  11.307  0.7143  0.6016 -1.8327
13815TIP3    H262937   0.601   1.129  11.296  1.0553  0.3960  0.4119
13816TIP3   OH262938   6.829   5.261  16.884  0.5596  0.0662  0.0595
13816TIP3    H162939   6.884   5.228  16.955  0.7706  1.7469  0.7253
13816TIP3    H262940   6.887   5.264  16.808  0.8622  0.0617  0.2888
13817TIP3   OH262941   1.433   0.724  13.729 -0.6539  0.1665 -0.0418
13817TIP3    H162942   1.451   0.631  13.740 -0.7678  0.2892  1.3985
13817TIP3    H262943   1.486   0.767  13.797  0.9413  1.3466 -1.9170
13818TIP3   OH262944   4.835   0.894  10.648  0.0712 -0.1907  0.5892
13818TIP3    H162945   4.854   0.971  10.594  1.6979 -1.3653 -0.5915
13818TIP3    H262946   4.790   0.833  10.590 -0.3418 -0.5358  1.2516
13819TIP3   OH262947   3.088   0.614  15.738  0.0126  0.0809 -0.5545
13819TIP3    H162948   3.026   0.541  15.739 -0.5415  0.4811  2.3433
13819TIP3    H262949   3.041   0.685  15.694 -0.5321 -0.4612 -0.8562
13820TIP3   OH262950   0.393   5.603   0.960 -0.6336 -0.0456  0.1830
13820TIP3    H162951   0.383   5.574   0.869  0.9211 -0.2254  0.0328
13820TIP3    H262952   0.327   5.554   1.009  0.9700 -2.8807 -0.2647
13821TIP3   OH262953   2.563   3.069  12.887 -0.2856 -0.0135  0.0459
13821TIP3    H162954   2.615   3.051  12.965 -0.8754  0.0875  0.4709
13821TIP3    H262955   2.475   3.038  12.910 -0.6339  0.7152 -0.2959
13822TIP3   OH262956   0.895   1.636  13.952  0.6796 -0.3886  0.3871
13822TIP3    H162957   0.912   1.556  14.000  0.6857 -0.6062  0.0252
13822TIP3    H262958   0.831   1.611  13.885 -0.7199  0.3035  1.4139
13823TIP3   OH262959   6.663   6.473   4.054 -0.3487 -0.3040  0.3096
13823TIP3    H162960   6.750   6.500   4.085 -0.9510 -0.5790  2.4269
13823TIP3    H262961   6.648   6.525   3.975  0.7316  1.6110  1.2861
13824TIP3   OH262962   4.257   2.570  13.269  0.1118  0.6092  0.1809
13824TIP3    H162963   4.322   2.581  13.338 -0.8755  0.0310  1.2185
13824TIP3    H262964   4.175   2.552  13.315 -0.9319  1.8888 -1.0765
13825TIP3   OH262965   1.071   2.720  12.949  0.1168 -0.2704 -0.4043
13825TIP3    H162966   0.995   2.772  12.921 -0.1243 -0.6521 -0.4605
13825TIP3    H262967   1.079   2.739  13.043 -1.0499 -1.4774 -0.0320
13826TIP3   OH262968   2.253   4.254  12.284  0.4639  0.0023 -0.1838
13826TIP3    H162969   2.330   4.312  12.280  0.1276  0.4254 -2.9827
13826TIP3    H262970   2.277   4.179  12.231 -0.4234 -0.7194  0.4121
13827TIP3   OH262971   1.037   0.179  11.325  0.5340 -0.4664  0.3535
13827TIP3    H162972   0.978   0.250  11.303  0.4635 -0.4565  0.5757
13827TIP3    H262973   0.995   0.101  11.289 -0.6345 -0.7720  2.2211
13828TIP3   OH262974   3.280   6.223   2.098  0.2287  0.2783  0.6440
13828TIP3    H162975   3.296   6.129   2.103  1.5658  0.4547  0.1195
13828TIP3    H262976   3.363   6.260   2.067 -0.0403  1.7012  1.4961
13829TIP3   OH262977   0.582   3.807  12.617 -0.5306 -0.2918  0.4587
13829TIP3    H162978   0.627   3.765  12.690 -2.3756 -0.1334  1.7705
13829TIP3    H262979   0.523   3.871  12.658 -1.4420  0.0036 -1.1762
13830TIP3   OH262980   0.213   2.197  15.552  0.0502 -0.1927  0.2924
13830TIP3    H162981   0.242   2.213  15.642  1.5461  0.0035 -0.2040
13830TIP3    H262982   0.211   2.101  15.544 -0.0596 -0.2106  0.5102
13831TIP3   OH262983   4.992   3.961   3.641 -0.4803  0.1408  0.3276
13831TIP3    H162984   5.083   3.940   3.621  0.2111  2.3531  0.8261
13831TIP3    H262985   4.963   4.015   3.567 -0.8139  0.8705  0.9795
13832TIP3   OH262986   6.548   2.829   0.664 -0.4704 -0.6816  1.0921
13832TIP3    H162987   6.481   2.895   0.644  0.9961  0.6198  0.3034
13832TIP3    H262988   6.517   2.750   0.621  0.1062  0.7598 -2.2356
13833TIP3   OH262989   3.566   3.958  16.500  0.0479  0.1270 -0.5246
13833TIP3    H162990   3.516   3.921  16.573 -0.4138  0.1426 -0.8279
13833TIP3    H262991   3.610   3.882  16.461  2.7548  0.4839  1.5899
13834TIP3   OH262992   3.558   3.200  16.937 -1.0538 -0.0900  0.8650
13834TIP3    H162993   3.612   3.160  17.006  0.6753  0.5758 -0.0622
13834TIP3    H262994   3.530   3.284  16.974 -2.1220 -0.7583  1.6315
13835TIP3   OH262995   0.237   1.844  10.701  0.3810  0.5298  0.2323
13835TIP3    H162996   0.315   1.789  10.691  0.6937  1.0544 -0.2801
13835TIP3    H262997   0.260   1.903  10.774  2.1700  3.4333 -2.4222
13836TIP3   OH262998   6.418   0.589   1.279  0.8173  0.1327 -0.0112
13836TIP3    H162999   6.327   0.585   1.247  0.0854 -1.5933  2.0655
13836TIP3    H263000   6.433   0.682   1.296 -0.5806  0.4477 -0.3341
13837TIP3   OH263001   4.754   1.406  15.601 -0.4919  0.5478 -0.3827
13837TIP3    H163002   4.738   1.501  15.595 -1.5636  0.3014 -1.8617
13837TIP3    H263003   4.795   1.383  15.518 -2.3278 -0.6334 -1.0223
13838TIP3   OH263004   1.065   3.126  15.503  0.1148 -0.9675 -0.4213
13838TIP3    H163005   1.035   3.170  15.582 -1.9239 -0.7908 -1.2355
13838TIP3    H263006   1.004   3.156  15.434  1.5058 -1.5020 -1.9500
13839TIP3   OH263007   0.048   1.696  14.914  0.0600  0.0255 -0.2311
13839TIP3    H163008  -0.046   1.712  14.923  0.3078  0.7951  1.4026
13839TIP3    H263009   0.054   1.603  14.893 -1.0624 -0.0606 -0.2564
13840TIP3   OH263010   0.311   2.924  13.950 -0.7476  0.0976 -0.2719
13840TIP3    H163011   0.234   2.974  13.978 -1.0291 -0.3326 -0.2531
13840TIP3    H263012   0.313   2.935  13.855 -1.1257 -0.2838 -0.3310
13841TIP3   OH263013   2.674   5.117  16.076 -0.6120 -0.3788  0.2465
13841TIP3    H163014   2.599   5.144  16.022  0.8255 -0.3958 -1.8612
13841TIP3    H263015   2.706   5.198  16.115 -1.5963 -0.3469  1.0303
13842TIP3   OH263016   0.382   3.004  12.582 -0.1441  0.4006  0.1905
13842TIP3    H163017   0.435   2.961  12.515 -0.4739 -1.8749  1.3253
13842TIP3    H263018   0.444   3.059  12.630  1.1363 -1.6970  1.0753
13843TIP3   OH263019   2.388   3.309  12.694  0.0993  0.2056  0.3147
13843TIP3    H163020   2.298   3.280  12.706  0.3235 -0.2853  0.9072
13843TIP3    H263021   2.438   3.228  12.684  0.8468  0.2763  2.7307
13844TIP3   OH263022   3.734   2.130  16.183 -0.1625  0.1941  0.3475
13844TIP3    H163023   3.755   2.037  16.197  0.4756  0.2797  0.0187
13844TIP3    H263024   3.769   2.174  16.261  0.4222  0.2734  0.0448
13845TIP3   OH263025   0.215   6.197   4.918 -0.0717  0.0112  0.3622
13845TIP3    H163026   0.268   6.269   4.950 -0.0590 -0.1727  0.7592
13845TIP3    H263027   0.273   6.120   4.924 -0.6446 -0.3453  1.5895
13846TIP3   OH263028   4.442   3.345  11.715 -0.2655  0.8313  0.1520
13846TIP3    H163029   4.412   3.307  11.633 -4.0052  1.4959  1.0531
13846TIP3    H263030   4.489   3.273  11.759 -2.6303 -1.1744 -0.4123
13847TIP3   OH263031   2.330   4.915  17.100  0.0147 -0.3298 -0.3802
13847TIP3    H163032   2.339   4.987  17.037  0.1739  0.3876  0.4576
13847TIP3    H263033   2.387   4.939  17.173 -0.1176 -1.1908  0.0181
13848TIP3   OH263034   6.246   6.290  15.969  0.5513 -0.1695 -0.1447
13848TIP3    H163035   6.295   6.361  15.929  1.4303 -1.3512 -1.2272
13848TIP3    H263036   6.250   6.309  16.063 -0.8806  2.2140 -0.4701
13849TIP3   OH263037   6.184   5.467  14.956  0.3155 -0.5239 -0.2696
13849TIP3    H163038   6.178   5.552  14.998 -1.6687 -1.1833  0.9194
13849TIP3    H263039   6.220   5.486  14.869  1.5172  1.2724  0.5585
13850TIP3   OH263040   5.831   2.446  11.462  0.1918 -0.1344  0.0639
13850TIP3    H163041   5.845   2.445  11.557 -0.8243  0.6109  0.2439
13850TIP3    H263042   5.748   2.493  11.451 -0.1491 -0.9619 -1.1423
13851TIP3   OH263043   4.520   3.412  12.825 -0.2017  0.0993  0.3243
13851TIP3    H163044   4.497   3.476  12.758  2.1203  2.3976  1.5337
13851TIP3    H263045   4.616   3.416  12.830 -0.1432 -1.7502  2.1402
13852TIP3   OH263046   3.904   3.903  12.641 -0.3922 -0.1442  0.3341
13852TIP3    H163047   3.944   3.910  12.555  0.0752  0.0502  0.5670
13852TIP3    H263048   3.837   3.971  12.643 -0.8444 -0.5695 -0.1102
13853TIP3   OH263049   2.041   3.161  14.707 -0.6802 -0.3159 -0.1291
13853TIP3    H163050   2.033   3.070  14.679 -0.1567 -0.4888  0.2720
13853TIP3    H263051   1.951   3.192  14.713 -0.8708 -0.8740 -0.0389
13854TIP3   OH263052   0.438   4.690   4.420 -0.2653 -0.3162  0.8773
13854TIP3    H163053   0.372   4.727   4.360 -0.5387 -0.6709  0.9612
13854TIP3    H263054   0.402   4.606   4.447 -0.4662  0.1502  2.0894
13855TIP3   OH263055   2.544   0.617   0.148  0.2268 -0.0756 -0.2227
13855TIP3    H163056   2.548   0.712   0.158 -0.2514 -0.2141  1.6581
13855TIP3    H263057   2.600   0.598   0.073  1.8470  1.5403  0.5058
13856TIP3   OH263058   5.850   4.737   5.177  0.1189  0.1662  0.5087
13856TIP3    H163059   5.770   4.770   5.218  0.2933  3.0256 -1.1813
13856TIP3    H263060   5.920   4.761   5.238 -0.0001  1.0194  0.3323
13857TIP3   OH263061   6.029   0.062  14.490 -0.2058 -0.7012 -0.3328
13857TIP3    H163062   5.992  -0.025  14.505 -0.5487 -0.6679 -0.9673
13857TIP3    H263063   5.953   0.120  14.488  0.0105 -0.4049 -0.0645
13858TIP3   OH263064   4.199   1.959  12.784 -0.1465  0.5080  0.3743
13858TIP3    H163065   4.160   1.873  12.801  0.9738 -0.1910 -0.4554
13858TIP3    H263066   4.190   1.971  12.690  0.4213  0.9364  0.3692
13859TIP3   OH263067   2.787   3.384   4.976  0.2606  0.1677 -0.3201
13859TIP3    H163068   2.694   3.380   4.998  0.3694 -0.1505  0.0958
13859TIP3    H263069   2.830   3.410   5.057  0.5852 -0.2251 -0.3631
13860TIP3   OH263070   1.856   2.450  13.355 -0.0549 -0.2062 -0.1021
13860TIP3    H163071   1.813   2.489  13.279 -0.7216  0.0555  0.3987
13860TIP3    H263072   1.825   2.360  13.357  1.0529 -0.6247 -0.9366
13861TIP3   OH263073   3.122   6.345  11.795  0.2015  0.0815  0.4747
13861TIP3    H163074   3.121   6.249  11.786  0.7848  0.2354 -1.4480
13861TIP3    H263075   3.212   6.365  11.822  0.9230  0.2628 -1.8718
13862TIP3   OH263076   2.997   2.563   5.541  0.1415 -0.0259 -0.2023
13862TIP3    H163077   2.956   2.559   5.627  0.4491 -1.0327 -0.0942
13862TIP3    H263078   3.033   2.476   5.527  0.9520  0.4034 -0.9278
13863TIP3   OH263079   3.523   5.051  15.857 -0.6582 -0.1616  0.0237
13863TIP3    H163080   3.570   4.981  15.812 -2.3343 -0.8867 -0.6839
13863TIP3    H263081   3.431   5.034  15.838 -1.2028  1.4004  1.0704
13864TIP3   OH263082   1.457   5.716  12.526 -0.0732 -0.4206  0.0261
13864TIP3    H163083   1.537   5.738  12.478  0.1234  0.2900  0.6520
13864TIP3    H263084   1.467   5.761  12.610 -0.8019 -0.9336  0.3918
13865TIP3   OH263085   5.111   5.759   4.625  0.4227  0.0659 -0.0271
13865TIP3    H163086   5.170   5.834   4.632 -0.1843  0.8930 -2.6352
13865TIP3    H263087   5.067   5.771   4.541 -0.3349 -2.7821 -0.1324
13866TIP3   OH263088   6.376   1.049  13.465 -0.2843 -0.0514  0.1440
13866TIP3    H163089   6.381   0.956  13.443 -1.3335 -0.2248  0.6111
13866TIP3    H263090   6.444   1.090  13.411 -1.1923 -0.7953 -1.6456
13867TIP3   OH263091   4.469   6.268  13.499 -0.5670 -0.1555  0.4927
13867TIP3    H163092   4.546   6.319  13.524 -0.6397 -0.8443  2.2443
13867TIP3    H263093   4.502   6.204  13.437  0.4718 -0.9486  1.8054
13868TIP3   OH263094   0.831   4.886  12.454 -0.1722  0.3315 -0.5223
13868TIP3    H163095   0.803   4.816  12.395 -0.5930  0.8245 -0.9176
13868TIP3    H263096   0.821   4.966  12.403  1.2584  0.6057 -0.4132
13869TIP3   OH263097   6.157   5.599   2.768  0.4586 -0.5502  0.2356
13869TIP3    H163098   6.174   5.511   2.736  1.7868 -0.4974  0.7559
13869TIP3    H263099   6.063   5.612   2.752  0.5071 -1.5585 -1.0172
13870TIP3   OH263100   0.151   0.673   5.389 -0.6766  0.8387  0.3471
13870TIP3    H163101   0.158   0.607   5.459 -0.7429  1.1074  0.6077
13870TIP3    H263102   0.086   0.736   5.422 -0.9458  0.7967 -0.0927
13871TIP3   OH263103   3.386   4.182   4.101  0.5671  0.1194 -0.2854
13871TIP3    H163104   3.367   4.207   4.011 -0.6033  0.8673  0.1418
13871TIP3    H263105   3.369   4.261   4.152 -1.9679 -1.0892  0.9617
13872TIP3   OH263106   3.075   3.880  15.070  0.7140 -0.1273 -0.1108
13872TIP3    H163107   3.168   3.864  15.078  0.3204 -2.8913 -0.1565
13872TIP3    H263108   3.036   3.794  15.057 -1.8786  0.9080  0.0297
13873TIP3   OH263109   1.876   6.321  15.592 -0.5969  0.8552 -0.5431
13873TIP3    H163110   1.966   6.292  15.578 -1.0976 -0.7696 -0.6831
13873TIP3    H263111   1.830   6.241  15.621 -1.9824  1.6525 -0.4665
13874TIP3   OH263112   3.945   2.545   3.040  0.5019  0.3559  0.6808
13874TIP3    H163113   3.913   2.469   3.089  1.2039 -1.0889 -1.0016
13874TIP3    H263114   4.038   2.549   3.061  0.0865  2.1114  2.4310
13875TIP3   OH263115   4.034   0.054   5.146 -0.2552 -0.6529 -0.0969
13875TIP3    H163116   4.001   0.008   5.223  1.4229 -1.0531  0.4089
13875TIP3    H263117   4.051   0.143   5.177  0.1602 -0.7403 -0.0704
13876TIP3   OH263118   2.216   3.464  12.312 -0.3541 -0.7192  0.3399
13876TIP3    H163119   2.268   3.384  12.311 -0.5834 -0.8701 -0.4874
13876TIP3    H263120   2.131   3.438  12.276 -0.1064  0.0869 -0.8791
13877TIP3   OH263121   1.183   1.274  12.502  0.3488 -0.0301 -0.1888
13877TIP3    H163122   1.195   1.182  12.524 -0.2896  0.4912  2.7332
13877TIP3    H263123   1.271   1.307  12.491  0.8701 -0.2778  2.4492
13878TIP3   OH263124   5.394   2.458   3.761 -0.6015  0.2970  0.2613
13878TIP3    H163125   5.399   2.501   3.846  0.7437  0.1998  0.2494
13878TIP3    H263126   5.479   2.475   3.720 -0.6562 -0.9469 -0.4263
13879TIP3   OH263127   3.282   2.132  15.992  0.3244 -0.5067 -0.3763
13879TIP3    H163128   3.322   2.046  15.976 -0.2378 -0.8187 -0.1582
13879TIP3    H263129   3.272   2.169  15.904 -0.9219 -1.3686 -0.6320
13880TIP3   OH263130   0.005   3.756   0.592  0.1330 -0.2371  0.2522
13880TIP3    H163131   0.088   3.776   0.635 -0.1548 -0.1948  0.7863
13880TIP3    H263132   0.029   3.697   0.520  0.7847  0.7523 -0.3660
13881TIP3   OH263133   3.035   2.736   1.839  0.5534 -0.2512  0.2394
13881TIP3    H163134   2.956   2.682   1.841  0.3250  0.0612  2.4689
13881TIP3    H263135   3.060   2.740   1.747 -1.3406 -1.3452 -0.3611
13882TIP3   OH263136   2.602   5.113  13.912  0.0601 -0.0993 -0.1877
13882TIP3    H163137   2.572   5.152  13.994  0.1013 -0.9756  0.2554
13882TIP3    H263138   2.697   5.109  13.921  0.1382  0.5816 -0.6401
13883TIP3   OH263139   2.876   6.457  12.114 -0.2867 -0.5323 -0.4415
13883TIP3    H163140   2.841   6.378  12.154 -1.1865  1.6946  3.7891
13883TIP3    H263141   2.801   6.497  12.070 -1.3152  0.4422  2.0156
13884TIP3   OH263142   1.184   4.774  11.418  0.3573  0.3831  0.3312
13884TIP3    H163143   1.151   4.834  11.485 -0.4220  1.9120 -1.3510
13884TIP3    H263144   1.118   4.776  11.349  1.3836 -0.7259 -0.7220
13885TIP3   OH263145   2.303   2.045  13.858 -0.2034 -0.1611 -0.0867
13885TIP3    H163146   2.339   1.966  13.819  2.9135  0.7089  0.7290
13885TIP3    H263147   2.299   2.026  13.952 -1.4229 -0.0264 -0.0961
13886TIP3   OH263148   0.392   0.342  11.205  0.3147 -0.0254 -0.6872
13886TIP3    H163149   0.404   0.247  11.210  1.3596  0.0505 -1.3372
13886TIP3    H263150   0.452   0.377  11.272  0.7478  0.2136 -1.1953
13887TIP3   OH263151   1.711   6.364   2.448  0.4794 -0.6868  0.0791
13887TIP3    H163152   1.762   6.351   2.528  1.1331 -0.6762 -0.3272
13887TIP3    H263153   1.635   6.415   2.475  0.7599 -0.5823  0.6696
13888TIP3   OH263154   5.056   0.803  16.212  0.3861  0.1473  0.0264
13888TIP3    H163155   5.062   0.745  16.136 -2.1360  0.7162 -0.7012
13888TIP3    H263156   5.083   0.888  16.179  1.9020 -0.1318  0.5058
13889TIP3   OH263157   3.489   2.796  16.472 -0.0841  0.0884  0.1806
13889TIP3    H163158   3.512   2.710  16.437  0.3516  1.0528 -2.0351
13889TIP3    H263159   3.396   2.789  16.494 -0.3051 -0.6481 -0.9353
13890TIP3   OH263160   6.626   2.551  12.415  0.6204  0.0582 -0.5399
13890TIP3    H163161   6.566   2.485  12.382 -0.0501  0.5654 -0.3721
13890TIP3    H263162   6.666   2.511  12.492  0.4811 -0.2790 -0.6428
13891TIP3   OH263163   0.802   2.655  13.744 -0.3744  0.4652 -0.3902
13891TIP3    H163164   0.853   2.575  13.757  1.0043  1.5081  1.0851
13891TIP3    H263165   0.717   2.636  13.785  0.8735  0.6127  2.5273
13892TIP3   OH263166   0.879   2.287   1.510 -0.7407 -0.1209  0.2442
13892TIP3    H163167   0.811   2.249   1.565 -0.8348  0.5981  0.6344
13892TIP3    H263168   0.857   2.259   1.421 -2.4824  1.4403  0.1406
13893TIP3   OH263169   0.725   1.881   6.185 -0.2854  0.3824 -0.2703
13893TIP3    H163170   0.817   1.862   6.208 -0.9769 -2.3974  0.6315
13893TIP3    H263171   0.685   1.909   6.267 -0.5248  0.3294 -0.3691
13894TIP3   OH263172   0.343   3.989  15.109 -0.1098  0.5137  0.2853
13894TIP3    H163173   0.292   3.958  15.034 -1.8497  0.5536  1.3936
13894TIP3    H263174   0.419   4.032  15.070 -0.6267 -0.0414 -1.4278
13895TIP3   OH263175   3.270   0.990   3.741 -0.4033 -0.5137 -0.0800
13895TIP3    H163176   3.222   0.916   3.703 -0.8554  0.6042 -1.8034
13895TIP3    H263177   3.224   1.010   3.822 -0.6927 -1.6742  0.0585
13896TIP3   OH263178   0.479   3.445   4.669 -0.3622  0.2622 -0.4054
13896TIP3    H163179   0.511   3.354   4.666  0.6226  0.6140 -0.8636
13896TIP3    H263180   0.394   3.442   4.626  0.5446 -0.1035 -2.2748
13897TIP3   OH263181   4.788   3.536   4.588  0.0667 -0.1739 -0.4065
13897TIP3    H163182   4.776   3.627   4.564  1.6587 -0.2711 -1.7211
13897TIP3    H263183   4.819   3.493   4.508  1.4387 -1.4045  0.7081
13898TIP3   OH263184   3.133   5.583  12.498 -0.1290  0.1301  0.3948
13898TIP3    H163185   3.126   5.497  12.456  0.0102  0.7479 -0.9205
13898TIP3    H263186   3.084   5.573  12.580 -1.6134 -0.6903 -0.5490
13899TIP3   OH263187   2.031   6.267   4.968 -0.2854  0.0079  0.0442
13899TIP3    H163188   2.004   6.330   5.034 -2.7719  0.0644 -0.9507
13899TIP3    H263189   1.981   6.188   4.987 -1.4550  0.1740 -1.9739
13900TIP3   OH263190   6.187   3.467  12.697 -0.4792  0.2976  0.4849
13900TIP3    H163191   6.166   3.547  12.745 -0.5188 -0.1588  1.2487
13900TIP3    H263192   6.112   3.410  12.714  0.0026 -0.2572  0.7675
13901TIP3   OH263193   0.201   0.313  11.502  0.1290  0.1757 -0.5150
13901TIP3    H163194   0.116   0.302  11.545  0.3538 -1.4952 -0.4085
13901TIP3    H263195   0.181   0.310  11.408  0.2273 -2.4991 -0.5313
13902TIP3   OH263196   4.602   4.622  15.593  0.2357 -0.6309  0.2530
13902TIP3    H163197   4.522   4.583  15.627  1.4001 -1.2391  2.4449
13902TIP3    H263198   4.608   4.588  15.503 -1.0496 -1.9481  0.6158
13903TIP3   OH263199   5.800   4.397   1.800 -0.2824 -0.6307  0.0316
13903TIP3    H163200   5.753   4.314   1.806  0.7291 -1.2899 -0.7154
13903TIP3    H263201   5.892   4.372   1.799  0.1048  0.6151  1.3982
13904TIP3   OH263202   2.551   5.455  14.848 -0.3738 -0.3063 -0.3950
13904TIP3    H163203   2.501   5.462  14.930  1.8096  2.6105  0.8642
13904TIP3    H263204   2.616   5.388  14.866 -3.1245 -3.6622 -1.8260
13905TIP3   OH263205   4.034   4.989   4.507 -0.0086  0.2097 -0.1250
13905TIP3    H163206   4.123   5.020   4.491 -0.0419  1.1905  1.3469
13905TIP3    H263207   4.044   4.917   4.568 -0.2504  0.9174  0.7767
13906TIP3   OH263208   6.217   1.045  15.477 -0.0823  0.2274 -0.3125
13906TIP3    H163209   6.184   1.133  15.494  0.4138  1.2155 -3.7063
13906TIP3    H263210   6.290   1.059  15.416 -0.3101 -2.5389 -1.3477
13907TIP3   OH263211   0.267   0.422   4.291 -0.1541 -0.4265 -0.1889
13907TIP3    H163212   0.332   0.426   4.221  1.2183 -0.8362  1.0111
13907TIP3    H263213   0.289   0.495   4.349  0.3002 -1.5173  1.0843
13908TIP3   OH263214   0.195   4.941  12.438  0.2756 -0.0166  0.1082
13908TIP3    H163215   0.188   5.030  12.473 -1.0867  0.3372 -0.9850
13908TIP3    H263216   0.289   4.923  12.439  0.5104  1.1110  1.1075
13909TIP3   OH263217   3.420   4.782  10.847  0.6095 -0.0706  0.1462
13909TIP3    H163218   3.359   4.814  10.914  1.6591  0.0809  1.0725
13909TIP3    H263219   3.388   4.821  10.765 -1.2847 -1.0661  0.3637
13910TIP3   OH263220   5.574   1.487   3.338  0.1783 -0.5486  1.0424
13910TIP3    H163221   5.592   1.400   3.305  1.3969 -0.1228  0.5303
13910TIP3    H263222   5.498   1.476   3.396 -0.3929 -1.7328  0.0939
13911TIP3   OH263223   5.643   2.787   2.765 -0.0902  0.4692  0.2974
13911TIP3    H163224   5.584   2.778   2.839 -1.7177 -0.4858 -1.0414
13911TIP3    H263225   5.708   2.717   2.777 -0.3796  0.2827  0.7890
13912TIP3   OH263226   5.335   4.045   0.643  0.1973 -0.5008  0.5759
13912TIP3    H163227   5.348   4.139   0.657  0.6490 -0.9835  4.1977
13912TIP3    H263228   5.248   4.039   0.603  0.7766  1.4534 -1.1967
13913TIP3   OH263229   5.518   1.007   3.559 -0.1439 -0.6652  0.3179
13913TIP3    H163230   5.612   1.010   3.575  0.0891 -1.3617 -0.8663
13913TIP3    H263231   5.493   1.099   3.547 -0.1193 -0.1753  3.1177
13914TIP3   OH263232   2.468   1.389  16.532  0.3515  0.0688 -0.1949
13914TIP3    H163233   2.452   1.357  16.621 -0.6829  1.2984  0.0844
13914TIP3    H263234   2.410   1.464  16.523  1.0191  0.4353 -1.6449
13915TIP3   OH263235   1.041   6.700   4.135 -0.3894 -0.1040 -0.1737
13915TIP3    H163236   0.953   6.678   4.163 -0.2833  0.9257  1.0763
13915TIP3    H263237   1.029   6.768   4.068 -0.6092 -1.9789 -2.1455
13916TIP3   OH263238   1.411   1.909  13.506 -0.0039  0.1621 -0.4675
13916TIP3    H163239   1.420   1.861  13.424  2.0099 -0.2031 -0.0848
13916TIP3    H263240   1.474   1.981  13.499  0.8255 -0.3711  1.0593
13917TIP3   OH263241   1.297   1.361  15.445  0.0477 -0.1147  0.4639
13917TIP3    H163242   1.326   1.442  15.487 -1.1482 -0.9572  3.0552
13917TIP3    H263243   1.362   1.296  15.472  0.4422 -0.2732 -0.7939
13918TIP3   OH263244   1.663   1.384   3.904  0.2481 -0.4697  0.1818
13918TIP3    H163245   1.745   1.426   3.877  0.7016 -0.0345  2.0884
13918TIP3    H263246   1.597   1.420   3.845  1.0158  1.1043  0.2302
13919TIP3   OH263247   1.292   0.142  15.106 -0.1320  0.5043 -0.1482
13919TIP3    H163248   1.373   0.095  15.126  1.3409  2.5902 -0.8492
13919TIP3    H263249   1.239   0.079  15.057  1.0557 -0.9074  0.3098
13920TIP3   OH263250   1.080   5.402   0.083 -0.3724  0.1138 -0.0999
13920TIP3    H163251   1.033   5.483   0.100 -1.1815 -0.5173  0.7358
13920TIP3    H263252   1.152   5.403   0.146  0.1224  0.5689 -0.6581
13921TIP3   OH263253   0.299   3.443   1.177  0.2938  0.0569 -0.1883
13921TIP3    H163254   0.273   3.482   1.093 -0.6650  1.6198  0.7786
13921TIP3    H263255   0.354   3.510   1.218  0.6638 -0.6463  0.4848
13922TIP3   OH263256   5.878   1.223  12.793  0.5777 -0.4168 -0.1878
13922TIP3    H163257   5.934   1.301  12.798 -1.1443  0.8537  0.4600
13922TIP3    H263258   5.893   1.177  12.875 -0.7807  1.0190  0.9203
13923TIP3   OH263259   5.509   1.937   3.373 -0.5469 -0.2303 -0.4912
13923TIP3    H163260   5.467   2.004   3.426  0.8350 -0.9804  1.6686
13923TIP3    H263261   5.560   1.985   3.309 -0.4490  0.7745  0.3220
13924TIP3   OH263262   4.088   0.687   2.711  0.2854  0.0468 -0.1974
13924TIP3    H163263   4.109   0.671   2.803  0.5675 -0.4871 -0.3519
13924TIP3    H263264   4.062   0.601   2.678 -1.7424  0.5853 -0.1230
13925TIP3   OH263265   4.261   0.068  16.887 -0.0563  0.1805 -0.0074
13925TIP3    H163266   4.223   0.030  16.808  0.3917 -0.4955  0.0903
13925TIP3    H263267   4.315   0.140  16.855  1.7142 -1.3069 -0.5441
13926TIP3   OH263268   5.167   0.915  13.237  0.4688 -0.3651 -0.3657
13926TIP3    H163269   5.088   0.915  13.184  0.8147  1.3843 -0.9511
13926TIP3    H263270   5.193   1.007  13.241  1.3962 -0.6703  1.4444
13927TIP3   OH263271   4.364   5.849   4.346  0.5083 -0.0498  0.6774
13927TIP3    H163272   4.323   5.916   4.292 -0.3030 -0.3439  0.9113
13927TIP3    H263273   4.305   5.837   4.420  1.2292 -0.1894  1.2475
13928TIP3   OH263274   5.176   1.088  13.539  0.2732  0.3417 -0.3227
13928TIP3    H163275   5.180   1.088  13.634 -1.1901  1.3685 -0.2230
13928TIP3    H263276   5.260   1.053  13.511  0.8385  0.2995  1.3383
13929TIP3   OH263277   1.012   3.980   2.137  0.1058  0.0252  0.2651
13929TIP3    H163278   1.044   3.890   2.126 -1.2734 -0.5072  0.4828
13929TIP3    H263279   0.920   3.970   2.160 -0.2607  1.5202 -0.4469
13930TIP3   OH263280   3.218   2.199  12.209  0.1006  0.3077 -0.1186
13930TIP3    H163281   3.302   2.237  12.182  0.2744 -1.2492 -1.8642
13930TIP3    H263282   3.242   2.124  12.264 -0.0578 -1.1264 -1.9374
13931TIP3   OH263283   3.312   6.836  12.526 -0.5017 -0.6294  0.2913
13931TIP3    H163284   3.388   6.853  12.470 -1.0918 -0.4122 -0.4658
13931TIP3    H263285   3.249   6.904  12.502 -0.5999 -0.2338  1.5727
13932TIP3   OH263286   3.159   6.547   4.706 -0.1836 -0.4037 -0.6214
13932TIP3    H163287   3.150   6.570   4.614  3.1746 -0.3958 -1.0627
13932TIP3    H263288   3.153   6.631   4.752  0.8542 -0.0368 -1.1286
13933TIP3   OH263289   4.951   4.301  12.989  0.6137 -0.5298  0.3562
13933TIP3    H163290   4.959   4.326  13.081  0.4876 -0.0680  0.2444
13933TIP3    H263291   5.026   4.342  12.947 -1.6529  3.0484 -0.5344
13934TIP3   OH263292   6.841   6.444  15.172  0.2806 -0.7241  0.1579
13934TIP3    H163293   6.858   6.533  15.139 -0.2770 -0.4110  0.6963
13934TIP3    H263294   6.929   6.409  15.189  0.5540 -0.6893 -1.0946
13935TIP3   OH263295   5.930   2.106   0.343  0.3443  0.0868 -0.3017
13935TIP3    H163296   5.851   2.060   0.314  1.1996 -1.7731  0.2069
13935TIP3    H263297   6.002   2.051   0.315  1.4916  1.5947 -0.4696
13936TIP3   OH263298   3.771   1.254  14.101  1.0594 -0.0779 -0.0297
13936TIP3    H163299   3.729   1.213  14.025 -1.1176  0.4803  0.7899
13936TIP3    H263300   3.799   1.340  14.070  0.5057  0.0050 -0.3154
13937TIP3   OH263301   3.528   3.648  11.008  0.2157 -0.4355 -0.0878
13937TIP3    H163302   3.535   3.705  10.932 -0.5491 -0.9241 -0.5403
13937TIP3    H263303   3.459   3.586  10.985 -0.9708  0.2053  1.5125
13938TIP3   OH263304   3.361   6.299   1.206 -0.1069 -0.1860 -0.2199
13938TIP3    H163305   3.281   6.249   1.195 -0.4968 -0.0770  1.6857
13938TIP3    H263306   3.344   6.382   1.162 -1.9076  0.6528  1.8483
13939TIP3   OH263307   2.880   3.134   4.700  0.2894  0.3921 -0.0917
13939TIP3    H163308   2.949   3.144   4.634 -0.1107  1.6360 -0.3668
13939TIP3    H263309   2.919   3.167   4.781  0.6374 -0.7229  0.2030
13940TIP3   OH263310   6.115   2.065  16.070 -0.3339  0.3651 -0.6150
13940TIP3    H163311   6.117   2.053  15.976 -0.4616  0.7618 -0.6701
13940TIP3    H263312   6.025   2.043  16.096  0.1303 -1.3713 -0.3544
13941TIP3   OH263313   0.362   5.755   4.458  0.0649  0.0954  0.3078
13941TIP3    H163314   0.268   5.735   4.456 -0.0805  0.6977 -2.0058
13941TIP3    H263315   0.367   5.846   4.488  0.0056 -0.2486  1.3955
13942TIP3   OH263316   4.375   2.415  16.261 -0.1286 -0.2121  0.1458
13942TIP3    H163317   4.291   2.369  16.259  0.8621 -2.0732 -0.1358
13942TIP3    H263318   4.402   2.421  16.169  0.0274  0.4594  0.2270
13943TIP3   OH263319   2.881   0.908  16.825 -0.4691  0.0375  0.9910
13943TIP3    H163320   2.909   0.816  16.832 -0.9406 -0.1194  0.8113
13943TIP3    H263321   2.805   0.906  16.767  1.1585  0.8657 -1.3479
13944TIP3   OH263322   6.818   5.119   0.072  0.2044  0.3936  0.0268
13944TIP3    H163323   6.900   5.158   0.043  0.2087  1.2705  1.1526
13944TIP3    H263324   6.822   5.029   0.040  2.0626  0.1103  0.8977
13945TIP3   OH263325   4.324   2.825  10.490  0.9180  0.4371  0.3784
13945TIP3    H163326   4.228   2.816  10.496  0.5702  3.6040  1.6403
13945TIP3    H263327   4.347   2.779  10.409 -2.0103  1.4116 -1.1722
13946TIP3   OH263328   0.221   6.324   6.529 -0.0472 -0.1905 -0.3431
13946TIP3    H163329   0.298   6.289   6.484  0.7697  1.1221  0.0141
13946TIP3    H263330   0.228   6.291   6.619 -1.4386 -2.4243 -0.9412
13947TIP3   OH263331   4.476   2.410  11.622  0.2933  0.2822 -0.6693
13947TIP3    H163332   4.475   2.488  11.677  1.7394 -0.7743  0.9239
13947TIP3    H263333   4.425   2.435  11.545  0.4269  2.6735 -0.0529
13948TIP3   OH263334   6.201   1.406  14.553  0.1030  0.2975  0.0598
13948TIP3    H163335   6.205   1.460  14.474 -0.8783 -0.4423 -0.5186
13948TIP3    H263336   6.124   1.439  14.600 -0.7276 -0.8077 -0.4814
13949TIP3   OH263337   2.212   5.528   5.564 -0.3390  0.1943  0.0738
13949TIP3    H163338   2.203   5.608   5.616 -1.3081 -0.4787  0.9850
13949TIP3    H263339   2.307   5.514   5.559 -0.1492  1.4599 -0.2188
13950TIP3   OH263340   1.609   0.985  13.660 -0.2137 -0.2663 -0.1108
13950TIP3    H163341   1.615   0.956  13.751 -1.1914  0.2199  0.1238
13950TIP3    H263342   1.631   0.907  13.609 -1.9120 -1.2200  0.5132
13951TIP3   OH263343   2.158   2.647   5.493 -0.7092  0.4537 -0.1876
13951TIP3    H163344   2.072   2.665   5.456 -1.6005 -0.9869  1.0287
13951TIP3    H263345   2.188   2.569   5.446 -0.2203  0.7566 -0.3753
13952TIP3   OH263346   1.075   3.131  11.373  0.2182 -0.3331  0.0084
13952TIP3    H163347   1.114   3.215  11.396 -0.3545 -0.4141  1.3577
13952TIP3    H263348   0.991   3.155  11.332 -0.0566 -0.2313  0.6102
13953TIP3   OH263349   5.900   0.254  10.148 -0.1412 -0.4783 -0.4044
13953TIP3    H163350   5.960   0.184  10.172 -1.3884 -1.4139  0.0954
13953TIP3    H263351   5.947   0.305  10.081  1.8084 -0.2130  1.0860
13954TIP3   OH263352   0.922   4.253   2.460 -0.4236 -0.0420  0.3423
13954TIP3    H163353   1.007   4.258   2.503  0.8251  1.7117 -2.0762
13954TIP3    H263354   0.901   4.160   2.458  1.9196 -0.6300  0.2141
13955TIP3   OH263355   4.843   4.246   5.509 -0.4861  0.2183  0.2048
13955TIP3    H163356   4.755   4.272   5.538 -0.3275  0.7346  0.2162
13955TIP3    H263357   4.845   4.151   5.523 -0.2737  0.4829  2.2588
13956TIP3   OH263358   5.008   3.669  15.380  0.7012  0.4467  0.7060
13956TIP3    H163359   4.950   3.613  15.432 -1.8566  1.7552 -0.5423
13956TIP3    H263360   4.988   3.646  15.289  2.3240  0.8450  0.2069
13957TIP3   OH263361   1.123   6.492   2.178 -0.5091  0.0435 -0.2383
13957TIP3    H163362   1.038   6.514   2.138 -2.6740  0.2648  3.9390
13957TIP3    H263363   1.146   6.570   2.228  1.1351 -0.7849  0.3470
13958TIP3   OH263364   3.185   6.548  11.169  0.4254 -0.4398 -0.3767
13958TIP3    H163365   3.143   6.568  11.252  1.4291  0.6319 -0.0961
13958TIP3    H263366   3.215   6.458  11.178 -0.2535 -0.6242  0.0754
13959TIP3   OH263367   5.556   5.901   1.870 -0.2784 -0.4363 -0.2978
13959TIP3    H163368   5.534   5.853   1.949 -2.7900  2.4677  0.9632
13959TIP3    H263369   5.487   5.879   1.807  1.0746 -1.8422 -1.3759
13960TIP3   OH263370   3.912   0.319   1.187 -0.0157 -0.0628 -1.0690
13960TIP3    H163371   3.931   0.360   1.102  1.1305  0.7915 -0.4199
13960TIP3    H263372   3.892   0.392   1.245 -2.3242 -0.7294 -0.9190
13961TIP3   OH263373   6.071   5.409  16.226 -0.1111 -0.1502  0.8298
13961TIP3    H163374   6.061   5.324  16.183  0.7543 -0.2256  0.7641
13961TIP3    H263375   6.057   5.390  16.319 -0.2119 -0.3122  0.7833
13962TIP3   OH263376   5.147   5.591  16.820  0.1955 -0.5000 -0.6483
13962TIP3    H163377   5.120   5.508  16.780 -1.7442 -0.6653  0.8475
13962TIP3    H263378   5.088   5.656  16.781 -1.4246 -0.5938  1.4710
13963TIP3   OH263379   6.318   1.364   4.329 -0.0937 -0.0223 -0.6528
13963TIP3    H163380   6.319   1.295   4.263  0.6213  0.9466 -1.6944
13963TIP3    H263381   6.287   1.442   4.282  1.2987  0.9071 -0.1034
13964TIP3   OH263382   3.703   3.176  13.189 -0.0171 -0.3191  0.5062
13964TIP3    H163383   3.754   3.210  13.262 -1.9667  1.7914  1.0041
13964TIP3    H263384   3.648   3.107  13.227 -0.6806  0.4473  0.9650
13965TIP3   OH263385   2.920   4.183  15.642 -0.3003 -0.4233 -0.2335
13965TIP3    H163386   2.919   4.247  15.713 -2.1131 -0.3726 -0.2546
13965TIP3    H263387   2.937   4.099  15.684  1.6823 -0.0317 -0.1544
13966TIP3   OH263388   2.075   2.519  15.320  0.3937 -0.5481 -0.3127
13966TIP3    H163389   2.079   2.447  15.384  1.1398 -0.6476 -0.4604
13966TIP3    H263390   2.166   2.543  15.306  0.1333  0.7605  0.0971
13967TIP3   OH263391   6.058   4.671  13.282  0.2028  0.0142 -0.1026
13967TIP3    H163392   6.067   4.749  13.337 -0.8508 -0.6449  1.0516
13967TIP3    H263393   5.969   4.674  13.249 -0.2216 -1.2340  0.8396
13968TIP3   OH263394   3.456   0.070   1.355 -0.1706 -0.4336  0.2872
13968TIP3    H163395   3.531   0.129   1.347 -1.1847  0.8356 -0.3417
13968TIP3    H263396   3.427   0.081   1.445  1.0210 -1.7620  0.8672
13969TIP3   OH263397   5.415   4.485   2.432 -0.2675  0.4380  0.2903
13969TIP3    H163398   5.504   4.502   2.404 -0.2719 -0.3982 -0.2703
13969TIP3    H263399   5.424   4.437   2.515 -0.1808 -0.1848 -0.0774
13970TIP3   OH263400   1.462   6.320   3.672 -0.0552  0.0065  0.0775
13970TIP3    H163401   1.548   6.279   3.670  0.2138  0.4402 -3.2324
13970TIP3    H263402   1.415   6.278   3.599 -1.2672  2.4696 -0.6504
13971TIP3   OH263403   1.862   2.238  12.505  0.6215  0.4188 -0.4808
13971TIP3    H163404   1.855   2.192  12.421 -0.8113  0.9388 -0.6809
13971TIP3    H263405   1.939   2.200  12.547  0.6311 -0.7425 -1.4908
13972TIP3   OH263406   6.419   1.357  15.604 -0.4767  0.1185 -0.0503
13972TIP3    H163407   6.376   1.354  15.689  1.0648 -2.3256  0.7645
13972TIP3    H263408   6.513   1.353  15.624 -0.0355  0.3340 -1.8452
13973TIP3   OH263409   3.866   4.508  11.563  0.1305 -0.6768 -0.1060
13973TIP3    H163410   3.889   4.435  11.506  0.4773 -0.5192 -0.1658
13973TIP3    H263411   3.895   4.481  11.650  3.3325  0.7399 -0.6179
13974TIP3   OH263412   6.548   0.615  13.190 -0.3238  0.3935  0.0056
13974TIP3    H163413   6.554   0.554  13.116  2.3033 -0.1480  0.5366
13974TIP3    H263414   6.562   0.701  13.151 -1.7093  0.4328 -0.4459
13975TIP3   OH263415   6.475   5.212  14.134  0.3285 -0.3548  0.2762
13975TIP3    H163416   6.432   5.205  14.049  1.1992 -0.9196 -0.1324
13975TIP3    H263417   6.475   5.123  14.169  2.2116 -0.6351 -0.2868
13976TIP3   OH263418   6.088   5.984   1.704  0.1677  0.3376  0.0202
13976TIP3    H163419   6.050   6.010   1.788  0.4757  0.2126  0.1990
13976TIP3    H263420   6.055   5.895   1.690  0.6435  0.1104  0.3269
13977TIP3   OH263421   5.343   0.570   6.221  0.0369 -0.2729  0.0175
13977TIP3    H163422   5.261   0.521   6.220  0.3866 -0.9502  1.7753
13977TIP3    H263423   5.401   0.520   6.164 -0.8216  0.3956 -1.5214
13978TIP3   OH263424   2.367   0.216   5.674  0.2178  0.0968 -0.0842
13978TIP3    H163425   2.328   0.185   5.593 -0.8189 -1.3058  0.9094
13978TIP3    H263426   2.460   0.230   5.653 -0.1567  0.3651 -1.6372
13979TIP3   OH263427   6.417   2.468   5.019 -0.0466  0.1261 -0.0663
13979TIP3    H163428   6.491   2.507   4.971  0.2996  0.9323  1.0688
13979TIP3    H263429   6.458   2.405   5.078  0.0129  1.9565  1.9702
13980TIP3   OH263430   2.482   5.220   1.784 -0.2661 -0.3823 -0.0579
13980TIP3    H163431   2.462   5.126   1.782 -0.9384 -0.3473  2.1420
13980TIP3    H263432   2.405   5.259   1.825  0.2386  1.0840 -0.4540
13981TIP3   OH263433   2.620   3.561  15.321 -0.6332 -0.2732  0.4903
13981TIP3    H163434   2.672   3.642  15.320 -0.1032 -0.4841  3.6033
13981TIP3    H263435   2.670   3.500  15.268  2.0633 -0.2571  2.8044
13982TIP3   OH263436   0.775   2.937  16.181 -0.0919  0.5274 -0.2115
13982TIP3    H163437   0.730   2.894  16.108 -0.5430  2.7185 -1.3092
13982TIP3    H263438   0.866   2.909  16.173 -0.3982 -0.3694 -0.7360
13983TIP3   OH263439   5.436   4.617   1.330 -0.1388  0.5291  0.7993
13983TIP3    H163440   5.489   4.538   1.315  0.6077  1.1923 -0.2058
13983TIP3    H263441   5.411   4.612   1.422  2.2515  0.5104  1.5343
13984TIP3   OH263442   2.659   2.983  14.410 -0.0973  0.5485  0.1134
13984TIP3    H163443   2.694   2.928  14.480  0.8415  0.3862 -0.4756
13984TIP3    H263444   2.622   3.059  14.456  0.4875  0.4383  0.7896
13985TIP3   OH263445   5.383   3.984  11.778 -0.2205 -0.0285 -0.7736
13985TIP3    H163446   5.309   4.036  11.746  1.3143  2.0138 -1.2229
13985TIP3    H263447   5.357   3.956  11.866 -0.8456  2.1729 -0.2035
13986TIP3   OH263448   2.183   3.394  14.648  0.2703  0.3247  0.4880
13986TIP3    H163449   2.161   3.419  14.558  1.6760 -0.3829 -0.0852
13986TIP3    H263450   2.140   3.309  14.660  1.1141 -0.1874  0.0119
13987TIP3   OH263451   4.824   3.501   5.858  0.0099  0.5367  0.3605
13987TIP3    H163452   4.852   3.588   5.887  0.7312  0.0342  1.2321
13987TIP3    H263453   4.899   3.445   5.875 -0.6463 -0.3659  0.3491
13988TIP3   OH263454   0.399   3.132  15.144  0.0004  0.7670 -0.1340
13988TIP3    H163455   0.321   3.078  15.139 -0.6405  1.7147 -0.6407
13988TIP3    H263456   0.427   3.125  15.236 -0.6284  0.3595  0.0337
13989TIP3   OH263457   1.868   0.970  15.940  0.3971  0.0815  0.0220
13989TIP3    H163458   1.942   0.935  15.890  0.7407 -0.0496  0.6174
13989TIP3    H263459   1.908   1.026  16.006 -0.1512  1.8355 -1.0668
13990TIP3   OH263460   1.347   6.752   0.019  0.2331 -0.3820 -0.5228
13990TIP3    H163461   1.345   6.838  -0.024  0.0766  0.0074  0.2451
13990TIP3    H263462   1.384   6.769   0.105 -2.6849 -0.4820  0.8838
13991TIP3   OH263463   6.643   1.721  16.987  0.0751 -0.4304  0.4043
13991TIP3    H163464   6.623   1.686  16.900 -0.9893  1.3366 -0.1061
13991TIP3    H263465   6.579   1.791  17.000 -0.0965 -0.9662  2.8235
13992TIP3   OH263466   5.805   3.970  13.492  0.0998 -0.0997  0.3906
13992TIP3    H163467   5.810   4.021  13.572 -1.4988  0.4791  0.1653
13992TIP3    H263468   5.752   3.894  13.515 -0.7297  0.2823 -0.1864
13993TIP3   OH263469   1.478   5.013  12.498 -0.7107 -0.1144  0.2097
13993TIP3    H163470   1.409   4.947  12.484 -2.0226  0.7394  2.2127
13993TIP3    H263471   1.430   5.095  12.512  0.7452  0.6160  1.1392
13994TIP3   OH263472   3.661   0.711  16.618  0.1230 -0.4183  0.0795
13994TIP3    H163473   3.739   0.767  16.615 -0.2280  0.1583  1.3011
13994TIP3    H263474   3.588   0.771  16.605 -0.1111 -1.1749 -2.8431
13995TIP3   OH263475   4.302   3.323   3.602  0.5135 -0.5770 -0.1521
13995TIP3    H163476   4.398   3.316   3.607  0.4944 -0.7079  0.0143
13995TIP3    H263477   4.287   3.393   3.538  0.7517  1.7516  2.1857
13996TIP3   OH263478   2.941   3.313  17.119 -0.5897 -0.3607 -0.1474
13996TIP3    H163479   3.032   3.328  17.097 -0.5922  1.1477  0.7708
13996TIP3    H263480   2.916   3.237  17.066  1.2953 -1.0727 -0.0952
13997TIP3   OH263481   5.469   2.667  12.245 -0.3545  0.5279  0.0451
13997TIP3    H163482   5.480   2.640  12.336 -0.4328 -0.6589 -0.2868
13997TIP3    H263483   5.527   2.743  12.236  0.3645  0.0966  0.8455
13998TIP3   OH263484   6.178   3.766  16.874  0.3747 -0.2638 -0.3778
13998TIP3    H163485   6.240   3.765  16.947  0.3802 -1.5228 -0.3680
13998TIP3    H263486   6.175   3.857  16.846  3.7014 -0.3818 -1.6183
13999TIP3   OH263487   5.366   3.235  16.643 -0.0957  0.3811 -0.5427
13999TIP3    H163488   5.273   3.214  16.652 -0.2216  0.9543 -0.4204
13999TIP3    H263489   5.398   3.243  16.733  0.2121 -0.3764 -0.5787
14000TIP3   OH263490   6.211   2.057   3.931 -0.3261 -0.0445 -0.2170
14000TIP3    H163491   6.159   1.977   3.929  1.3262 -1.2391  1.0860
14000TIP3    H263492   6.285   2.040   3.872  0.2132  0.3691  0.3208
14001TIP3   OH263493   0.725   4.559  13.938 -0.5388  0.4515  0.0578
14001TIP3    H163494   0.673   4.621  13.887 -1.8983 -0.6523  0.0291
14001TIP3    H263495   0.665   4.486  13.954  1.0817 -0.9612 -0.1081
14002TIP3   OH263496   1.587   3.447  11.822  0.0248  0.7970 -0.3785
14002TIP3    H163497   1.581   3.507  11.896  0.6583  1.4577 -0.8402
14002TIP3    H263498   1.662   3.480  11.771  0.7903 -0.7790 -0.3063
14003TIP3   OH263499   0.416   6.088   6.253 -0.0039  0.5074 -0.6526
14003TIP3    H163500   0.478   6.121   6.188 -0.4495  2.4121 -0.1742
14003TIP3    H263501   0.471   6.046   6.319  0.6285  0.4955 -1.1739
14004TIP3   OH263502   0.435   1.261  16.245 -0.3256 -0.3604  0.1942
14004TIP3    H163503   0.524   1.228  16.261  0.4868  1.2680 -0.7351
14004TIP3    H263504   0.412   1.226  16.158 -0.0795  0.2321 -0.1143
14005TIP3   OH263505   2.173   1.226   3.386 -0.3188 -0.1256  0.4268
14005TIP3    H163506   2.147   1.136   3.406 -0.5405 -0.0723  0.3830
14005TIP3    H263507   2.120   1.250   3.310  1.4342 -0.7786 -1.0706
14006TIP3   OH263508   4.922   4.726  15.486 -0.3707  0.0954  0.4401
14006TIP3    H163509   4.878   4.734  15.402  1.0522 -0.1029 -0.3548
14006TIP3    H263510   4.938   4.633  15.498 -0.2884  0.1484  0.7788
14007TIP3   OH263511   6.701   6.741   6.771 -0.5377 -0.1241  0.0296
14007TIP3    H163512   6.660   6.667   6.816 -2.0232 -0.7884 -2.2653
14007TIP3    H263513   6.793   6.716   6.762 -0.9063 -1.4598 -0.2314
14008TIP3   OH263514   3.444   5.539  12.764 -0.3182 -0.6621  0.3243
14008TIP3    H163515   3.422   5.446  12.760 -0.1215 -0.7399  0.9641
14008TIP3    H263516   3.415   5.567  12.851  0.2096 -0.2838  0.3830
14009TIP3   OH263517   5.267   4.526   5.910  0.5466 -0.0793  0.5451
14009TIP3    H163518   5.347   4.522   5.963  2.4208  0.3036 -2.0833
14009TIP3    H263519   5.292   4.574   5.831 -2.3715  0.2537 -0.3185
14010TIP3   OH263520   5.944   3.989  14.582  0.3277  0.2528  0.1119
14010TIP3    H163521   5.936   3.900  14.616  0.0170  0.6154  1.0278
14010TIP3    H263522   5.853   4.018  14.571  0.3795 -0.2400 -2.1551
14011TIP3   OH263523   3.352   5.084  14.898 -0.0138 -0.3310  0.6949
14011TIP3    H163524   3.424   5.066  14.837 -0.4983  1.7521 -0.6050
14011TIP3    H263525   3.380   5.045  14.981  2.1952 -0.3746 -0.0150
14012TIP3   OH263526   1.422   1.102   5.060  0.7192 -0.2149 -0.0910
14012TIP3    H163527   1.493   1.119   4.999  0.9836 -1.0927 -0.0280
14012TIP3    H263528   1.342   1.106   5.006  0.6815  1.8897  0.0294
14013TIP3   OH263529   6.006   4.473  11.512  0.6912  0.4143  0.7726
14013TIP3    H163530   5.960   4.505  11.590 -0.4627  1.9258 -0.4541
14013TIP3    H263531   5.944   4.411  11.472  0.4756  1.0418  0.1069
14014TIP3   OH263532   5.152   5.475  12.927 -0.2372 -0.0990 -0.0562
14014TIP3    H163533   5.180   5.472  12.836 -0.9230  0.3607 -0.2897
14014TIP3    H263534   5.061   5.446  12.926  0.0258 -0.9882  0.6081
14015TIP3   OH263535   3.519   3.955   0.838  0.5527 -0.2932 -0.3005
14015TIP3    H163536   3.486   3.923   0.755  0.2386 -2.2217  0.5001
14015TIP3    H263537   3.593   3.897   0.859 -0.3452 -0.8931  1.4627
14016TIP3   OH263538   2.300   0.600  13.618  0.5421  0.0640 -0.1180
14016TIP3    H163539   2.352   0.566  13.546 -0.5777  1.4542 -1.6577
14016TIP3    H263540   2.364   0.634  13.680  1.5084 -0.3794 -0.8483
14017TIP3   OH263541   3.601   3.245   1.302 -0.4395  0.0020 -0.5304
14017TIP3    H163542   3.665   3.176   1.283  0.2667  0.2768  0.7761
14017TIP3    H263543   3.651   3.326   1.300 -0.9962  0.3517 -0.6793
14018TIP3   OH263544   0.079   3.318   2.416  0.1553  0.5252  0.0706
14018TIP3    H163545   0.077   3.360   2.502  1.7446  1.2870 -0.2371
14018TIP3    H263546   0.006   3.358   2.368  0.5993  1.6849  0.3540
14019TIP3   OH263547   0.771   5.978  16.871  0.2395  0.0296  0.2785
14019TIP3    H163548   0.782   5.952  16.780 -0.4347 -1.5037  0.5937
14019TIP3    H263549   0.749   6.071  16.868  0.5953  0.0884 -1.0792
14020TIP3   OH263550   6.282   5.214  12.311 -0.2376 -0.3301 -0.3176
14020TIP3    H163551   6.216   5.148  12.287 -1.9014  1.1167  0.1311
14020TIP3    H263552   6.278   5.218  12.406  0.2994 -0.0006 -0.3074
14021TIP3   OH263553   6.328   5.509   0.820  0.5775 -0.0434  0.4128
14021TIP3    H163554   6.284   5.465   0.747  0.1908  0.8880  0.0685
14021TIP3    H263555   6.421   5.491   0.806  0.3456 -2.3636  1.3699
14022TIP3   OH263556   3.666   1.885   1.776 -0.5345 -0.0232 -0.2447
14022TIP3    H163557   3.644   1.819   1.841 -1.8108  2.4170  2.0442
14022TIP3    H263558   3.606   1.958   1.795  1.0306  1.9628 -2.2959
14023TIP3   OH263559   2.456   1.664   3.795 -0.0995 -0.8538 -0.7890
14023TIP3    H163560   2.518   1.603   3.754  0.5641 -0.0718 -0.9848
14023TIP3    H263561   2.503   1.697   3.871 -0.4970 -0.6626 -0.6265
14024TIP3   OH263562   5.152   4.136   0.309  0.0099 -0.0036  0.0748
14024TIP3    H163563   5.202   4.217   0.315 -2.4650  1.6444  0.1891
14024TIP3    H263564   5.093   4.150   0.235 -1.2814 -1.2020  0.8253
14025TIP3   OH263565   4.116   1.973   5.258  0.0918 -0.4106 -0.5048
14025TIP3    H163566   4.028   1.941   5.235  0.1799  0.3613 -2.0330
14025TIP3    H263567   4.100   2.057   5.301  0.0350 -0.8124  0.2690
14026TIP3   OH263568   0.555   4.672   2.657 -0.6794 -0.5245 -0.8299
14026TIP3    H163569   0.598   4.588   2.646  0.7444  0.1645 -0.8179
14026TIP3    H263570   0.545   4.707   2.569 -2.3052 -1.1679 -0.9313
14027TIP3   OH263571   2.026   5.638  16.472  0.0739  0.0460 -0.1525
14027TIP3    H163572   2.056   5.726  16.450 -1.5013  0.6127 -0.1972
14027TIP3    H263573   2.024   5.591  16.389 -2.3898  1.0712 -0.7637
14028TIP3   OH263574   6.845   2.440   1.059 -1.0213 -0.2471 -0.1800
14028TIP3    H163575   6.887   2.354   1.068  0.7325  0.5315 -0.4402
14028TIP3    H263576   6.769   2.436   1.117  1.6001 -0.4123  3.5895
14029TIP3   OH263577   1.038   0.736  16.672  0.0480  0.4225  0.2016
14029TIP3    H163578   1.003   0.787  16.599 -0.9479 -0.9185 -0.2823
14029TIP3    H263579   1.133   0.738  16.658  0.0227  1.8319  0.0154
14030TIP3   OH263580   4.607   5.416   5.057  0.9843 -0.1785  0.2090
14030TIP3    H163581   4.684   5.361   5.044  0.7006 -0.8355  1.1571
14030TIP3    H263582   4.630   5.473   5.130  0.5522 -0.4288  0.5463
14031TIP3   OH263583   1.708   2.312   3.310  0.2622  0.6445 -0.2013
14031TIP3    H163584   1.718   2.217   3.321  0.6458  0.1898 -3.5063
14031TIP3    H263585   1.613   2.326   3.312  0.2390  0.4396  1.5625
14032TIP3   OH263586   5.240   1.059   0.267  0.0829  0.4644  0.1003
14032TIP3    H163587   5.175   1.124   0.294  0.2719  1.0697 -0.8545
14032TIP3    H263588   5.284   1.034   0.349 -0.1041  1.4146  0.5060
14033TIP3   OH263589   3.288   2.877  13.867 -0.8578 -0.2760 -0.2907
14033TIP3    H163590   3.283   2.813  13.938  1.1828 -1.5736 -1.2412
14033TIP3    H263591   3.263   2.828  13.789 -0.4722  0.4204 -0.8572
14034TIP3   OH263592   3.345   1.273  16.765 -0.4237  0.0198  0.2414
14034TIP3    H163593   3.378   1.363  16.756 -0.4811 -0.0370 -0.6102
14034TIP3    H263594   3.278   1.265  16.697 -0.6125 -0.5850  0.4904
14035TIP3   OH263595   3.499   4.540   1.153  0.7979  0.1011  0.2800
14035TIP3    H163596   3.432   4.486   1.111 -0.1403  0.9547  0.6298
14035TIP3    H263597   3.544   4.481   1.213 -1.9678  0.2087  2.6707
14036TIP3   OH263598   4.660   0.577   2.179 -0.1635  0.0003 -0.0355
14036TIP3    H163599   4.620   0.658   2.147  0.4090  0.3303  0.0779
14036TIP3    H263600   4.693   0.534   2.100  0.2923  0.2966 -0.0133
14037TIP3   OH263601   3.904   0.645   3.913 -0.5799  0.2787  0.4134
14037TIP3    H163602   3.842   0.717   3.900  0.6155  1.5897  1.6967
14037TIP3    H263603   3.885   0.612   4.001  0.4901  0.6841  0.8171
14038TIP3   OH263604   5.377   1.936  16.090  0.2122 -0.0342 -0.3614
14038TIP3    H163605   5.365   1.928  15.995  0.7541 -0.1411 -0.4232
14038TIP3    H263606   5.363   2.029  16.108 -2.0009 -0.3226 -0.2281
14039TIP3   OH263607   4.970   3.576   5.522 -0.5329 -0.3230  0.2742
14039TIP3    H163608   5.060   3.560   5.550  0.5092  1.5661 -1.7354
14039TIP3    H263609   4.927   3.491   5.532  1.6749 -1.4924  0.5298
14040TIP3   OH263610   4.939   0.555   4.785 -0.3041 -0.0181  0.2960
14040TIP3    H163611   4.869   0.546   4.720 -1.3044  2.1978  0.9973
14040TIP3    H263612   5.013   0.590   4.735 -0.3942 -0.2845 -0.0305
14041TIP3   OH263613   3.354   1.023  14.435 -0.0887 -0.5749 -0.0383
14041TIP3    H163614   3.266   1.059  14.445 -0.2866 -0.5049 -1.7982
14041TIP3    H263615   3.393   1.073  14.363  1.5969 -0.2560  1.0226
14042TIP3   OH263616   3.535   6.429   0.806  0.2704  0.4102 -0.1310
14042TIP3    H163617   3.613   6.458   0.758  1.3056 -3.0287 -0.8446
14042TIP3    H263618   3.490   6.370   0.745 -1.3363  0.1083  1.2754
14043TIP3   OH263619   3.038   4.835  16.566  0.5045  0.2191 -0.6184
14043TIP3    H163620   2.992   4.770  16.512  2.9160 -1.3039 -1.0143
14043TIP3    H263621   3.001   4.823  16.653  1.6138 -2.6060 -0.4138
14044TIP3   OH263622   3.133   2.426  16.911  0.2004  0.0763  0.0481
14044TIP3    H163623   3.190   2.476  16.968 -1.5051  2.1264  0.0741
14044TIP3    H263624   3.068   2.386  16.970  0.4776 -0.6881 -0.1504
14045TIP3   OH263625   1.501   6.204   5.474 -0.2011  0.5761  0.2635
14045TIP3    H163626   1.596   6.199   5.479 -0.1561 -1.5864 -1.2462
14045TIP3    H263627   1.472   6.191   5.564  0.9427 -1.7122  0.3889
14046TIP3   OH263628   3.992   0.070   1.138 -0.8272  0.7511  0.2374
14046TIP3    H163629   3.971   0.140   1.200 -1.6009 -0.3751  1.2747
14046TIP3    H263630   4.037   0.116   1.066 -1.6601  2.3618  0.6874
14047TIP3   OH263631   4.539   4.826   2.416  0.8455  0.3950  1.0027
14047TIP3    H163632   4.603   4.777   2.363  1.5536  0.6199  1.6292
14047TIP3    H263633   4.507   4.761   2.479 -0.0648  0.1028  0.2653
14048TIP3   OH263634   0.437   2.477  16.283  0.3989  0.9316  0.3168
14048TIP3    H163635   0.469   2.524  16.360 -2.1647  1.9023  0.9227
14048TIP3    H263636   0.437   2.543  16.213 -0.3979  1.0086  0.3800
14049TIP3   OH263637   0.969   1.038  11.259  0.2100 -0.2500  0.6145
14049TIP3    H163638   0.973   1.070  11.350 -2.1020 -0.6522  0.9294
14049TIP3    H263639   0.930   1.110  11.210  0.3466 -0.4682  0.1851
14050TIP3   OH263640   2.880   3.180   5.173  0.1489 -0.2579  0.0069
14050TIP3    H163641   2.895   3.095   5.215  0.0242  0.1613  0.9364
14050TIP3    H263642   2.906   3.167   5.082 -0.8503 -1.5859 -0.1187
14051TIP3   OH263643   5.517   0.649   0.472  0.2954 -0.0758 -0.3708
14051TIP3    H163644   5.557   0.635   0.558  0.2423 -0.8902 -0.4702
14051TIP3    H263645   5.566   0.591   0.413 -0.1645 -0.0938 -0.7426
14052TIP3   OH263646   6.400   3.265  11.371 -0.0910  0.0280  0.2737
14052TIP3    H163647   6.368   3.294  11.286 -0.7677  0.9042  0.8126
14052TIP3    H263648   6.454   3.188  11.351  0.2611  0.5764 -0.9935
14053TIP3   OH263649   0.181   3.723  14.394  0.1145 -0.0056 -0.5078
14053TIP3    H163650   0.098   3.705  14.351 -0.0747 -0.1723 -0.0789
14053TIP3    H263651   0.159   3.789  14.460 -0.3740 -2.4502  1.9202
14054TIP3   OH263652   2.217   1.093  14.903  0.5558 -0.1768  0.1581
14054TIP3    H163653   2.160   1.140  14.964  0.6604 -0.7658  0.7201
14054TIP3    H263654   2.304   1.097  14.943  0.6070 -0.6535  0.1070
14055TIP3   OH263655   3.352   3.029  13.109  0.0564  0.2515  0.0476
14055TIP3    H163656   3.362   2.970  13.034  0.0683  1.3696 -0.8476
14055TIP3    H263657   3.331   3.114  13.071  1.1846  1.1148  1.2620
14056TIP3   OH263658   0.002   4.725  13.533 -0.3138  0.5435 -0.2508
14056TIP3    H163659   0.012   4.745  13.627 -0.5167  0.9054 -0.3038
14056TIP3    H263660  -0.041   4.803  13.497 -0.4752  0.2940 -0.5965
14057TIP3   OH263661   6.029   1.222  14.857  0.0010  0.0940  0.2048
14057TIP3    H163662   5.943   1.207  14.818  0.2121  0.3957 -0.3874
14057TIP3    H263663   6.049   1.141  14.904 -0.5683 -0.0093  0.2673
14058TIP3   OH263664   4.035   6.835   2.435  0.5572 -0.4420  0.1041
14058TIP3    H163665   3.995   6.757   2.398  1.8304 -0.8048 -0.5591
14058TIP3    H263666   4.022   6.827   2.529  0.1573 -1.1472 -0.0062
14059TIP3   OH263667   2.141   0.910  15.651  0.7022 -0.0755  0.3450
14059TIP3    H163668   2.162   0.923  15.743 -1.1026  0.4323  0.7224
14059TIP3    H263669   2.050   0.879  15.651  0.6715 -0.0746 -1.2509
14060TIP3   OH263670   4.367   2.475  16.826 -0.7317 -0.3051  0.5505
14060TIP3    H163671   4.415   2.465  16.745  2.2421  1.0036  1.9767
14060TIP3    H263672   4.305   2.546  16.809  1.2429  1.3473 -0.0861
14061TIP3   OH263673   0.548   4.369  13.758 -1.0385 -0.1267  0.1680
14061TIP3    H163674   0.600   4.290  13.750  0.5137  0.7310  1.1613
14061TIP3    H263675   0.539   4.402  13.668  0.6107 -0.0346  0.0081
14062TIP3   OH263676   5.204   0.180   4.732 -0.2521  0.2292 -0.9216
14062TIP3    H163677   5.281   0.196   4.786 -1.1886  0.7809  0.2953
14062TIP3    H263678   5.201   0.255   4.672 -0.7537  1.1040  0.1538
14063TIP3   OH263679   4.195   4.181  14.861 -0.4399 -0.2114  1.1558
14063TIP3    H163680   4.192   4.179  14.766  0.9118  1.3528  1.0427
14063TIP3    H263681   4.112   4.222  14.887  0.3948  2.0255  0.4696
14064TIP3   OH263682   0.350   5.462   3.327 -0.3915 -0.0714 -0.6986
14064TIP3    H163683   0.341   5.556   3.315 -0.3637 -0.1093 -1.0324
14064TIP3    H263684   0.444   5.446   3.327 -0.2938  0.1722  1.5620
14065TIP3   OH263685   1.404   3.148  12.859 -0.0829  0.3210 -0.4554
14065TIP3    H163686   1.343   3.182  12.923 -0.5360 -0.8424 -0.2353
14065TIP3    H263687   1.354   3.083  12.810  0.6185  0.2637 -1.1193
14066TIP3   OH263688   1.358   3.189   4.914  0.1982 -0.3878 -0.4545
14066TIP3    H163689   1.335   3.147   4.997 -0.3551 -0.3144 -0.5644
14066TIP3    H263690   1.445   3.226   4.929 -0.4091  0.7460  0.5295
14067TIP3   OH263691   5.410   5.124   1.653  0.2821 -0.1546  0.0353
14067TIP3    H163692   5.359   5.056   1.608  0.2449 -0.7772  0.9892
14067TIP3    H263693   5.430   5.086   1.739  2.0314  0.2293 -0.1642
14068TIP3   OH263694   3.502   0.846   0.969  0.0174 -0.4172 -0.5783
14068TIP3    H163695   3.594   0.824   0.988 -0.2785 -0.1417  1.4233
14068TIP3    H263696   3.477   0.785   0.900  1.6272 -0.6779 -0.9847
14069TIP3   OH263697   4.271   4.351  11.954 -0.0915  0.2440 -0.4123
14069TIP3    H163698   4.234   4.353  12.042  1.3249  0.0240  0.2157
14069TIP3    H263699   4.323   4.431  11.948  1.9389 -0.9610 -0.0402
14070TIP3   OH263700   5.367   4.623  16.080 -0.4871  0.0415  0.2722
14070TIP3    H163701   5.416   4.647  16.159  3.0235 -2.3976 -0.9054
14070TIP3    H263702   5.357   4.705  16.032 -2.1298  1.4737  2.8285
14071TIP3   OH263703   1.826   3.371   3.762 -0.1857 -0.5406  0.0249
14071TIP3    H163704   1.873   3.428   3.702 -1.4420  0.7635  0.2455
14071TIP3    H263705   1.850   3.402   3.849 -1.4661  0.1795  0.1408
14072TIP3   OH263706   4.547   1.400  13.955 -0.0937  0.1890 -0.0438
14072TIP3    H163707   4.551   1.305  13.960 -0.6592  0.0785 -1.2410
14072TIP3    H263708   4.621   1.424  13.900 -1.4127  0.1715 -1.9618
14073TIP3   OH263709   3.549   3.765   3.968 -0.0550  0.0103  0.1280
14073TIP3    H163710   3.540   3.775   4.062 -0.3741 -1.0885  0.2197
14073TIP3    H263711   3.560   3.855   3.936 -0.6260  0.4548  1.1332
14074TIP3   OH263712   3.301   1.619  14.318 -0.4052  0.3557 -0.2678
14074TIP3    H163713   3.388   1.599  14.284 -0.8052 -0.8817 -0.6255
14074TIP3    H263714   3.242   1.601  14.244 -1.0967 -0.3338  0.4358
14075TIP3   OH263715   6.445   2.995   3.838 -0.4323  0.2071 -0.1568
14075TIP3    H163716   6.433   3.084   3.870 -0.6404 -0.2563  1.1082
14075TIP3    H263717   6.387   2.942   3.892  1.1402 -0.9645  0.4827
14076TIP3   OH263718   2.133   1.448  14.928  0.2876  0.4341 -0.7419
14076TIP3    H163719   2.193   1.522  14.939  0.3786  0.2245  0.2832
14076TIP3    H263720   2.046   1.484  14.944  0.2562  0.4902 -1.0435
14077TIP3   OH263721   6.062   2.070   1.607  0.4992  0.3537  0.3588
14077TIP3    H163722   6.078   2.011   1.681  0.7951  0.4065  0.3380
14077TIP3    H263723   6.074   2.158   1.643  0.7207  0.3763  0.2271
14078TIP3   OH263724   0.007   5.519   3.540 -0.3868  0.4771 -0.3816
14078TIP3    H163725   0.073   5.515   3.608  0.2669 -1.3547 -1.0497
14078TIP3    H263726  -0.074   5.492   3.583 -0.5252  1.8015  0.2203
14079TIP3   OH263727   4.163   3.215  13.212 -0.2417 -0.0101 -0.2761
14079TIP3    H163728   4.151   3.158  13.136  0.0193  0.0506 -0.3622
14079TIP3    H263729   4.119   3.297  13.189  0.5976  0.3269 -0.7202
14080TIP3   OH263730   0.894   2.406   6.010 -0.1467 -0.1932  0.3475
14080TIP3    H163731   0.829   2.349   5.970 -0.5577  0.3384  0.2372
14080TIP3    H263732   0.860   2.495   5.995  0.9775  0.1350 -0.3810
14081TIP3   OH263733   3.806   0.819   0.009 -0.5886 -0.6519 -0.1714
14081TIP3    H163734   3.737   0.794  -0.053 -1.0964  0.6569 -0.1786
14081TIP3    H263735   3.782   0.908   0.037  0.4218 -0.6563  0.7935
14082TIP3   OH263736   5.757   6.120  13.511 -0.2397  0.2095  0.4751
14082TIP3    H163737   5.664   6.142  13.504  0.2326  1.7784 -1.7744
14082TIP3    H263738   5.794   6.190  13.565 -0.0993  0.5349 -0.0341
14083TIP3   OH263739   3.094   3.342  13.534  0.6533 -0.5127 -0.4214
14083TIP3    H163740   3.080   3.276  13.602  1.4695 -0.5177 -0.2473
14083TIP3    H263741   3.129   3.418  13.581 -0.7793  0.2631 -0.5385
14084TIP3   OH263742   0.612   2.590   0.525  0.0075  0.1956 -0.1087
14084TIP3    H163743   0.528   2.544   0.521  0.2763 -0.3832  0.7475
14084TIP3    H263744   0.662   2.553   0.452 -0.4499  0.5029 -0.5884
14085TIP3   OH263745   3.370   5.067   2.342 -0.1980 -0.2541  0.1623
14085TIP3    H163746   3.326   5.044   2.424  1.5598  0.3515  1.3283
14085TIP3    H263747   3.321   5.143   2.310 -0.0608  0.4068  1.4260
14086TIP3   OH263748   5.112   0.855   5.108  0.2194 -0.4539  0.4677
14086TIP3    H163749   5.020   0.829   5.107  0.1156 -0.1821  1.5912
14086TIP3    H263750   5.112   0.945   5.076 -0.3834  0.8181  3.7184
14087TIP3   OH263751   3.374   1.367   2.431 -0.0655 -0.1292  0.3826
14087TIP3    H163752   3.364   1.322   2.514  0.0848  0.6786  0.8475
14087TIP3    H263753   3.464   1.350   2.404  0.5236  1.2323  1.3784
14088TIP3   OH263754   4.195   4.370  15.140  0.1441 -0.2790 -0.1085
14088TIP3    H163755   4.121   4.347  15.085  1.0107  2.0575 -2.4378
14088TIP3    H263756   4.260   4.302  15.123  0.2613  0.2124 -1.7544
14089TIP3   OH263757   0.831   5.111   6.177  0.6481 -0.3239 -0.0200
14089TIP3    H163758   0.862   5.077   6.094  0.5544 -0.4150 -0.0181
14089TIP3    H263759   0.818   5.205   6.162  0.6454 -0.3382 -0.1015
14090TIP3   OH263760   2.973   6.277   0.137  0.3689  0.9919 -0.0151
14090TIP3    H163761   2.952   6.214   0.068  0.5280  1.1744 -0.2346
14090TIP3    H263762   2.893   6.284   0.189  0.1599  1.0464 -0.3360
14091TIP3   OH263763   4.585   1.808   4.165  0.1208 -0.0386  0.3611
14091TIP3    H163764   4.542   1.866   4.102  0.6818  0.7997  0.7321
14091TIP3    H263765   4.527   1.732   4.171 -0.6451  0.4966 -0.1070
14092TIP3   OH263766   2.644   6.487   2.635  0.1235 -0.0444 -0.0476
14092TIP3    H163767   2.716   6.428   2.613  0.9702  1.5626 -1.7910
14092TIP3    H263768   2.597   6.500   2.553  0.1568  1.9118  0.1880
14093TIP3   OH263769   5.740   0.649  15.968 -0.7325  0.2864  0.3313
14093TIP3    H163770   5.736   0.566  15.921 -0.6750  2.8461 -4.9688
14093TIP3    H263771   5.833   0.666  15.981 -0.6707  0.2732 -0.1027
14094TIP3   OH263772   3.968   4.042  15.705 -0.5541  0.1704  0.7209
14094TIP3    H163773   3.896   4.025  15.645 -1.5721  2.4315  1.1914
14094TIP3    H263774   4.019   3.961  15.705 -1.4564 -0.4980 -1.8479
14095TIP3   OH263775   6.081   2.860   1.739 -0.0821 -0.4916 -0.4575
14095TIP3    H163776   6.084   2.925   1.809 -1.3006 -0.5525 -0.3148
14095TIP3    H263777   6.073   2.912   1.659  0.4987 -0.4412 -0.4879
14096TIP3   OH263778   4.712   0.294  14.656 -1.0232  0.5740  0.6162
14096TIP3    H163779   4.704   0.200  14.642  0.5266  0.6541 -1.1777
14096TIP3    H263780   4.790   0.304  14.709 -1.1628  0.8580  0.7706
14097TIP3   OH263781   0.348   0.311   1.817 -0.2961  0.5858 -0.1335
14097TIP3    H163782   0.368   0.223   1.786  0.5053  0.8598 -0.4224
14097TIP3    H263783   0.322   0.299   1.908 -1.1169 -0.0488 -0.4475
14098TIP3   OH263784   0.775   0.474   6.409  0.3350 -0.1597  0.4396
14098TIP3    H163785   0.799   0.381   6.402  2.1406  0.3572 -0.9361
14098TIP3    H263786   0.790   0.495   6.501  2.1850 -0.7006  0.3103
14099TIP3   OH263787   4.608   0.360   1.587  0.0810  0.0059 -0.2326
14099TIP3    H163788   4.551   0.293   1.624  1.7053 -0.5071  1.4545
14099TIP3    H263789   4.603   0.346   1.492 -0.0457 -2.1499  0.0592
14100TIP3   OH263790   1.576   4.700  11.834  0.2789 -0.4466 -0.3781
14100TIP3    H163791   1.670   4.687  11.821  0.2410 -0.1038 -1.0397
14100TIP3    H263792   1.567   4.794  11.851 -0.1160 -0.1121 -2.1725
14101TIP3   OH263793   2.887   1.050  13.270 -0.0529  0.0143 -0.4447
14101TIP3    H163794   2.957   1.019  13.212  1.1773  1.3665  0.2452
14101TIP3    H263795   2.826   1.096  13.212  0.9333  0.9767 -0.7534
14102TIP3   OH263796   5.271   1.163   4.817 -0.6391 -0.1939 -0.1903
14102TIP3    H163797   5.363   1.159   4.791  0.1387  0.2231  2.1999
14102TIP3    H263798   5.235   1.079   4.790  0.4107 -0.3519 -1.2030
14103TIP3   OH263799   1.183   2.514  15.574  0.2942 -0.3686 -0.0560
14103TIP3    H163800   1.191   2.600  15.533 -0.2768 -0.4900 -0.4291
14103TIP3    H263801   1.265   2.503  15.622  0.2419  0.5081  0.2431
14104TIP3   OH263802   4.280   2.021   4.693 -0.3932  0.0719 -0.6146
14104TIP3    H163803   4.352   1.980   4.742 -0.6770  0.3439  0.0356
14104TIP3    H263804   4.231   2.070   4.759 -0.0316  1.5050 -1.3775
14105TIP3   OH263805   0.861   5.938  11.920  0.3979 -0.0227  0.0056
14105TIP3    H163806   0.865   5.932  11.825 -3.4520 -0.8279 -0.2555
14105TIP3    H263807   0.770   5.921  11.942  0.8575  1.3670  3.8002
14106TIP3   OH263808   1.687   3.524  16.602 -0.2837 -0.2306 -0.4825
14106TIP3    H163809   1.654   3.585  16.668 -1.5107 -1.5262  0.1688
14106TIP3    H263810   1.775   3.501  16.632 -1.3569 -1.9629  1.6302
14107TIP3   OH263811   5.367   2.759  13.542  0.6132 -0.0238  0.2095
14107TIP3    H163812   5.398   2.717  13.622 -0.1668  1.4457  1.3324
14107TIP3    H263813   5.447   2.786  13.497  1.0626  0.1038  1.0516
14108TIP3   OH263814   4.153   4.788  15.514 -0.5547 -0.3798 -0.4197
14108TIP3    H163815   4.165   4.705  15.560 -0.9956  0.1316  0.6484
14108TIP3    H263816   4.152   4.764  15.421 -2.9531 -1.8736 -0.0792
14109TIP3   OH263817   2.534   4.033   2.035  0.1345 -0.0134  0.1949
14109TIP3    H163818   2.491   3.948   2.038 -0.7277  0.3874  3.0515
14109TIP3    H263819   2.464   4.095   2.019  0.3510  0.3204  0.5129
14110TIP3   OH263820   2.889   1.317  11.674  0.4199  0.0494 -0.4278
14110TIP3    H163821   2.817   1.257  11.692  1.6994 -0.8397  2.3158
14110TIP3    H263822   2.881   1.384  11.742  1.9969  0.0638 -0.2213
14111TIP3   OH263823   4.322   2.800   2.559  0.5276  0.4960 -0.3193
14111TIP3    H163824   4.398   2.785   2.615 -0.1542 -1.3798  0.1788
14111TIP3    H263825   4.254   2.834   2.618 -0.5193 -2.4365  0.3363
14112TIP3   OH263826   0.912   1.457  17.035 -0.5265 -0.3041 -0.4465
14112TIP3    H163827   0.842   1.448  16.971 -0.1307 -3.1006 -0.6156
14112TIP3    H263828   0.974   1.388  17.013  1.1404  0.5960  1.1294
14113TIP3   OH263829   4.781   3.816   0.458 -0.5404  0.0349  0.0923
14113TIP3    H163830   4.866   3.790   0.421 -0.1542 -1.7854  2.0572
14113TIP3    H263831   4.804   3.862   0.539 -1.4280 -0.1048  0.4255
14114TIP3   OH263832   1.802   2.382   2.333  0.3189 -0.3799  0.1609
14114TIP3    H163833   1.871   2.323   2.304 -0.1890 -1.6454  1.4468
14114TIP3    H263834   1.789   2.362   2.426 -0.0514  1.5801  0.5833
14115TIP3   OH263835   6.330   1.492   5.161 -0.7052 -0.1795  0.5406
14115TIP3    H163836   6.422   1.466   5.151 -0.1665  1.1145  1.6644
14115TIP3    H263837   6.321   1.511   5.255 -1.8771  0.5795  0.3002
14116TIP3   OH263838   1.151   0.345   5.482  0.2155  0.4208  0.3743
14116TIP3    H163839   1.218   0.334   5.414  0.1755  2.1044  0.0205
14116TIP3    H263840   1.188   0.302   5.559 -0.2267 -2.5438 -0.9557
14117TIP3   OH263841   6.091   5.096   3.524  0.5732  0.1551 -0.1360
14117TIP3    H163842   6.078   5.002   3.527 -2.3605  0.4675  1.3907
14117TIP3    H263843   6.152   5.114   3.595  0.0935 -0.5077  0.4613
14118TIP3   OH263844   3.697   3.028   2.812  0.0590  0.0482  0.4339
14118TIP3    H163845   3.782   2.986   2.797  0.9778  1.1901  2.1165
14118TIP3    H263846   3.711   3.119   2.785 -1.2081 -0.1351 -0.9779
14119TIP3   OH263847   3.647   1.724  17.078  0.4099  0.3892 -0.1410
14119TIP3    H163848   3.706   1.656  17.111 -1.0063 -0.9472 -0.1882
14119TIP3    H263849   3.569   1.675  17.049 -0.5289  2.0190 -0.4965
14120TIP3   OH263850   0.493   4.362   2.337  0.4469 -0.3083 -0.0089
14120TIP3    H163851   0.554   4.295   2.366  1.0040 -0.1906 -0.8817
14120TIP3    H263852   0.460   4.330   2.253  0.9761  0.6479 -0.6007
14121TIP3   OH263853   0.781   4.067   3.612  0.7910 -0.1401 -0.2426
14121TIP3    H163854   0.871   4.035   3.609  0.9755 -0.1569  2.5888
14121TIP3    H263855   0.727   3.988   3.607  0.8681 -0.1092 -2.2296
14122TIP3   OH263856   3.399   6.172   4.951 -0.0494 -0.3183 -0.3972
14122TIP3    H163857   3.406   6.199   5.042  1.8746 -0.2171 -0.5333
14122TIP3    H263858   3.465   6.104   4.941 -1.5256 -1.6898 -1.2731
14123TIP3   OH263859   6.545   5.290  11.285 -0.5062  0.6851 -0.8230
14123TIP3    H163860   6.459   5.290  11.242 -1.2307  0.7960  0.5595
14123TIP3    H263861   6.548   5.207  11.332  0.4788  0.3522 -1.4368
14124TIP3   OH263862   1.269   5.901  12.720 -0.0947  0.3235  0.6331
14124TIP3    H163863   1.282   5.991  12.750  1.3440  0.5490 -0.5451
14124TIP3    H263864   1.230   5.911  12.633 -0.2146 -0.2125  0.6224
14125TIP3   OH263865   4.185   0.337  11.298 -0.5922  0.2937  0.0526
14125TIP3    H163866   4.246   0.384  11.240  0.1027  0.0139  0.5400
14125TIP3    H263867   4.136   0.279  11.240 -0.0029  0.1223 -0.2828
14126TIP3   OH263868   3.070   2.682  15.595 -0.4343  0.7727  0.0042
14126TIP3    H163869   3.132   2.740  15.638  1.0218 -0.5656 -0.1525
14126TIP3    H263870   3.076   2.705  15.502  1.6994 -0.8983 -0.3430
14127TIP3   OH263871   4.054   5.591  15.659  0.3061 -0.1241  0.1250
14127TIP3    H163872   4.147   5.602  15.642  0.1014  1.4945 -0.1433
14127TIP3    H263873   4.033   5.657  15.726 -0.6680 -0.3646  0.0827
14128TIP3   OH263874   0.845   4.424   1.291 -0.4062  0.1243  0.8335
14128TIP3    H163875   0.798   4.399   1.212 -0.2773  0.3877  0.6715
14128TIP3    H263876   0.908   4.353   1.306 -0.5689 -0.0231  0.8133
14129TIP3   OH263877   0.235   1.119   2.244 -0.7560  0.4284 -0.2041
14129TIP3    H163878   0.147   1.133   2.210 -1.0221 -2.2509 -0.9128
14129TIP3    H263879   0.261   1.034   2.207  1.1735  0.0222  1.8624
14130TIP3   OH263880   3.460   0.319   5.716 -0.4151 -0.6271  0.5491
14130TIP3    H163881   3.547   0.357   5.726  0.0034 -1.7920  1.5231
14130TIP3    H263882   3.425   0.359   5.636  0.5421  0.7252  0.7874
14131TIP3   OH263883   4.598   4.522   4.635  0.1119  0.7457  0.7182
14131TIP3    H163884   4.625   4.573   4.711 -0.8674  0.1374  1.5076
14131TIP3    H263885   4.503   4.514   4.644  0.3061 -2.3767  1.4480
14132TIP3   OH263886   0.014   5.407   1.238 -0.6474 -0.0289 -0.8023
14132TIP3    H163887  -0.001   5.463   1.314 -0.0152  1.1855 -1.5338
14132TIP3    H263888  -0.069   5.410   1.190 -0.4543  0.7781 -1.1198
14133TIP3   OH263889   0.365   2.935  12.236 -0.3245  0.1313  0.0259
14133TIP3    H163890   0.446   2.937  12.287  1.0585  1.9128 -2.0815
14133TIP3    H263891   0.366   3.016  12.185 -3.1141 -0.1270 -0.6259
14134TIP3   OH263892   2.063   1.679   4.564 -0.1087 -0.2344  0.5668
14134TIP3    H163893   2.071   1.626   4.643 -0.0359  0.0043  0.7195
14134TIP3    H263894   2.144   1.730   4.560 -0.3728  0.1916  0.6597
14135TIP3   OH263895   5.322   0.211   5.139 -0.0405  0.4869  0.2000
14135TIP3    H163896   5.331   0.214   5.234  0.8305  0.2260  0.1417
14135TIP3    H263897   5.391   0.151   5.111  0.3867  1.3449 -0.6702
14136TIP3   OH263898   4.171   3.885  11.116  0.2912 -0.6970  0.5100
14136TIP3    H163899   4.146   3.952  11.052  1.1485  2.4712  3.2114
14136TIP3    H263900   4.088   3.862  11.159 -0.0007 -1.3286 -0.3778
14137TIP3   OH263901   0.167   5.087  12.763 -0.3513  0.8969 -0.0639
14137TIP3    H163902   0.261   5.069  12.764  0.0642  2.8017 -0.0977
14137TIP3    H263903   0.142   5.089  12.856 -0.2371  0.9381 -0.0340
14138TIP3   OH263904   1.088   4.654  15.376 -0.0279  0.6558 -0.1382
14138TIP3    H163905   1.017   4.644  15.440 -0.5654  1.6108 -0.5568
14138TIP3    H263906   1.053   4.616  15.296 -0.8919  2.9170 -0.8983
14139TIP3   OH263907   3.635   0.317  13.435 -0.8494  0.5112  0.2335
14139TIP3    H163908   3.610   0.329  13.527  2.8237  0.4315  1.3800
14139TIP3    H263909   3.659   0.225  13.428 -0.5867  0.6382 -0.6824
14140TIP3   OH263910   6.692   2.847   5.443 -0.2250 -0.0493  0.6809
14140TIP3    H163911   6.723   2.756   5.442  1.1125  0.3872 -0.3922
14140TIP3    H263912   6.695   2.872   5.535 -0.8033 -1.1444  1.0215
14141TIP3   OH263913   2.533   1.598  13.806  0.4684  0.1431  0.2999
14141TIP3    H163914   2.595   1.591  13.878  1.2458 -0.1719 -0.3927
14141TIP3    H263915   2.523   1.508  13.775  0.1159  0.2749  0.0292
14142TIP3   OH263916   6.661   6.838   3.278 -0.3122 -0.1762  0.1405
14142TIP3    H163917   6.639   6.916   3.226  1.3148  0.2180 -0.0210
14142TIP3    H263918   6.672   6.871   3.367  3.4017  0.4687 -0.4044
14143TIP3   OH263919   0.720   1.074   4.062 -0.0960 -0.1506  0.9428
14143TIP3    H163920   0.721   1.029   4.146  0.6766 -0.0377  0.9998
14143TIP3    H263921   0.676   1.013   4.003 -0.0694 -0.5005  1.2802
14144TIP3   OH263922   0.104   2.054  11.857  0.3344 -1.3644 -0.3792
14144TIP3    H163923   0.062   2.007  11.785 -2.5940  0.8281 -0.2875
14144TIP3    H263924   0.031   2.088  11.909  2.2205  1.9950  0.3733
14145TIP3   OH263925   1.131   1.942   2.611  0.4859 -0.1716 -0.3612
14145TIP3    H163926   1.142   2.011   2.546  0.2288 -2.2239 -2.7357
14145TIP3    H263927   1.039   1.948   2.637  0.4383  0.3067 -0.6312
14146TIP3   OH263928   5.546   0.386  14.203 -0.5910  0.4991  0.1424
14146TIP3    H163929   5.584   0.351  14.123 -0.4462  0.8818  0.0406
14146TIP3    H263930   5.452   0.368  14.196 -0.3327 -1.2984  0.8262
14147TIP3   OH263931   3.869   2.031   1.093  0.1895  0.1437 -0.2951
14147TIP3    H163932   3.824   2.066   1.169 -0.3525 -1.0470 -0.0393
14147TIP3    H263933   3.962   2.043   1.112  0.0747 -0.5120  0.7489
14148TIP3   OH263934   1.169   6.485   4.573 -0.0268  0.4364 -0.1376
14148TIP3    H163935   1.265   6.480   4.566 -0.0380  0.9178 -0.7652
14148TIP3    H263936   1.137   6.442   4.494 -0.3144  0.7524 -0.1973
14149TIP3   OH263937   3.769   5.902   5.740 -0.2191 -0.4585  0.1966
14149TIP3    H163938   3.682   5.911   5.700 -0.3858  2.2079  0.9755
14149TIP3    H263939   3.829   5.940   5.676  0.1949 -1.0108  0.2556
14150TIP3   OH263940   4.311   6.329  14.278  0.4029  0.3792  0.2325
14150TIP3    H163941   4.392   6.381  14.280  1.0485 -0.4057 -2.1240
14150TIP3    H263942   4.263   6.363  14.203  0.5866 -1.9890 -1.0330
14151TIP3   OH263943   0.205   6.334  16.670 -0.6077 -0.0453 -0.1987
14151TIP3    H163944   0.167   6.246  16.667 -1.6531  0.4049 -0.9253
14151TIP3    H263945   0.152   6.385  16.609 -0.5020  1.2814  0.7585
14152TIP3   OH263946   2.801   0.695  15.401  0.1765  0.2974 -0.1864
14152TIP3    H163947   2.725   0.639  15.386  0.2898  0.2936 -0.7670
14152TIP3    H263948   2.782   0.775  15.351  0.5025  0.3422 -0.2419
14153TIP3   OH263949   2.501   5.561  12.277 -0.4189 -0.0634  0.1097
14153TIP3    H163950   2.423   5.576  12.223 -1.3167 -0.3158  1.2991
14153TIP3    H263951   2.531   5.649  12.300  0.3014  0.0628 -1.2276
14154TIP3   OH263952   2.584   5.106   4.945  0.1045 -0.7536 -0.5317
14154TIP3    H163953   2.495   5.079   4.924  0.3246 -0.2306 -2.3491
14154TIP3    H263954   2.582   5.129   5.038 -0.9124 -3.6025  0.2420
14155TIP3   OH263955   5.884   3.783  10.666 -0.4392  0.5273  0.5481
14155TIP3    H163956   5.824   3.748  10.600  1.1758 -1.6875  0.1496
14155TIP3    H263957   5.906   3.707  10.721  2.8535  0.9303 -0.0316
14156TIP3   OH263958   0.012   6.500  15.449 -0.0995  0.5670 -0.1985
14156TIP3    H163959  -0.039   6.521  15.371  2.9791  1.8052 -2.0184
14156TIP3    H263960  -0.009   6.570  15.511 -0.7831  0.9081 -0.8034
14157TIP3   OH263961   5.319   5.434   6.294  0.0020  0.2500 -0.0832
14157TIP3    H163962   5.251   5.370   6.313 -0.5997  0.8487 -0.1673
14157TIP3    H263963   5.271   5.515   6.278  0.7441  0.7018 -0.0574
14158TIP3   OH263964   5.485   2.663   2.970  0.6851  0.5255  0.4325
14158TIP3    H163965   5.479   2.722   3.046 -1.4208  0.9768 -0.0173
14158TIP3    H263966   5.503   2.577   3.008  2.4752  1.1899  1.1986
14159TIP3   OH263967   1.406   4.760   4.271 -0.4904 -0.3649  0.0736
14159TIP3    H163968   1.333   4.800   4.319  1.8148  3.4011  0.9097
14159TIP3    H263969   1.465   4.728   4.340  0.6699  0.7870 -0.3416
14160TIP3   OH263970   4.584   1.374  12.780 -0.2709  0.5005  0.4859
14160TIP3    H163971   4.608   1.406  12.867 -0.5841  0.4537  0.5891
14160TIP3    H263972   4.668   1.355  12.738 -0.1539 -1.2171  1.4278
14161TIP3   OH263973   6.718   0.983   1.356  0.1242  0.2305 -0.3574
14161TIP3    H163974   6.647   1.033   1.317  0.4987  1.5040  0.5371
14161TIP3    H263975   6.731   1.022   1.442  0.8184 -1.0460  0.1449
14162TIP3   OH263976   4.795   2.857   0.658  0.0776 -0.3802  0.1526
14162TIP3    H163977   4.815   2.945   0.627 -0.1280 -0.0458  0.9552
14162TIP3    H263978   4.860   2.801   0.614  0.6562  0.2631  0.1740
14163TIP3   OH263979   1.483   4.702  13.079 -0.4281  0.2671 -0.9857
14163TIP3    H163980   1.427   4.634  13.115 -1.9110 -0.0589 -3.6764
14163TIP3    H263981   1.455   4.782  13.123  0.9278 -0.6320  1.7719
14164TIP3   OH263982   6.137   4.240   5.280 -0.1254 -0.7551 -0.4606
14164TIP3    H163983   6.149   4.334   5.269  1.5580 -0.8435  0.4414
14164TIP3    H263984   6.197   4.200   5.218  0.6392 -1.2223  0.5542
14165TIP3   OH263985   4.263   0.250   6.465  0.1944 -0.2538 -0.1026
14165TIP3    H163986   4.226   0.290   6.386  0.3657 -0.1235 -0.1179
14165TIP3    H263987   4.357   0.247   6.449  0.0286 -2.6270 -0.9897
14166TIP3   OH263988   1.721   4.417  14.113 -0.7806  0.4416 -0.3361
14166TIP3    H163989   1.688   4.350  14.173  0.0754 -1.0535 -1.4745
14166TIP3    H263990   1.748   4.489  14.170  1.3727 -1.4736  1.2643
14167TIP3   OH263991   5.736   0.102   5.736  0.6665  0.2218  0.1256
14167TIP3    H163992   5.742   0.174   5.800 -0.2501 -0.3521  0.8768
14167TIP3    H263993   5.706   0.027   5.787  1.3105 -0.6273 -0.7156
14168TIP3   OH263994   2.706   5.437  13.038 -0.4482 -0.1900 -0.0328
14168TIP3    H163995   2.718   5.383  13.116 -1.7252 -1.8113 -0.9006
14168TIP3    H263996   2.611   5.442  13.026 -0.2809 -0.5834 -1.8752
14169TIP3   OH263997   3.643   2.980   4.183 -0.3296  0.3128 -0.3362
14169TIP3    H163998   3.650   2.933   4.266 -1.7351  1.4290  0.4786
14169TIP3    H263999   3.725   3.028   4.175 -0.4369  0.7355  0.7984
14170TIP3   OH264000   3.946   0.814   3.466 -0.2789 -0.0700 -0.2364
14170TIP3    H164001   4.037   0.836   3.447  0.6147 -1.0359  2.3427
14170TIP3    H264002   3.935   0.725   3.432  0.1809 -0.4324  0.5225
14171TIP3   OH264003   2.910   1.971  13.838 -0.0512  0.1784 -0.6360
14171TIP3    H164004   2.962   1.988  13.759 -1.1222  0.7189 -1.2481
14171TIP3    H264005   2.820   1.989  13.811 -0.6524 -1.4280  0.1986
14172TIP3   OH264006   0.800   4.200  17.128  0.1431 -0.7933 -0.1771
14172TIP3    H164007   0.837   4.227  17.211 -0.9946 -0.9874  0.4213
14172TIP3    H264008   0.863   4.138  17.092  0.4373 -1.0559  0.7669
14173TIP3   OH264009   3.125   4.420  16.051  0.0284  0.0977 -0.5497
14173TIP3    H164010   3.196   4.479  16.074  0.2593  0.0321 -1.0741
14173TIP3    H264011   3.147   4.338  16.096 -1.0512  0.8152  1.3757
14174TIP3   OH264012   4.224   3.668   5.296  0.1631 -0.4307  0.5775
14174TIP3    H164013   4.274   3.633   5.370 -0.0035 -1.1064  0.3806
14174TIP3    H264014   4.144   3.615   5.294  0.7364 -1.2930 -0.8697
14175TIP3   OH264015   6.708   3.343   3.963  0.6641  0.2873  0.1655
14175TIP3    H164016   6.758   3.289   3.902 -0.6456 -0.3585 -0.3802
14175TIP3    H264017   6.756   3.337   4.046  0.9209 -1.1621 -0.0635
14176TIP3   OH264018   6.404   5.331  14.399  0.0533 -0.3463  0.2150
14176TIP3    H164019   6.404   5.402  14.335  0.6542 -1.0792 -0.6074
14176TIP3    H264020   6.375   5.254  14.351  0.6816 -0.9438  0.7647
14177TIP3   OH264021   4.205   4.365   2.017 -0.3880 -0.1595 -0.1811
14177TIP3    H164022   4.197   4.321   2.102 -0.2104 -0.3680 -0.2695
14177TIP3    H264023   4.222   4.457   2.038 -2.7681  0.2873  0.0182
14178TIP3   OH264024   1.267   4.038   2.110  0.1678 -0.7129  0.8365
14178TIP3    H164025   1.305   4.042   2.198 -0.3820  0.0590  1.0497
14178TIP3    H264026   1.173   4.046   2.124  0.1306  0.3194  0.1363
14179TIP3   OH264027   6.522   5.291  16.059  0.4403 -0.2496 -0.5333
14179TIP3    H164028   6.573   5.372  16.069  2.1044 -1.4780  1.9404
14179TIP3    H264029   6.582   5.221  16.085 -1.8093 -2.0161  0.2401
14180TIP3   OH264030   4.923   1.117   6.409 -0.1754 -0.8579  0.2379
14180TIP3    H164031   4.983   1.178   6.451  0.2050 -1.3332  0.3975
14180TIP3    H264032   4.860   1.172   6.363 -2.1895 -0.1879  3.4884
14181TIP3   OH264033   5.461   4.782  12.243  0.1562  0.1607  0.0798
14181TIP3    H164034   5.387   4.816  12.294  0.0985  0.4919 -0.2151
14181TIP3    H264035   5.484   4.700  12.286  1.9657  1.7668  2.4440
14182TIP3   OH264036   6.399   2.994  16.522  0.3061 -0.1895  0.3484
14182TIP3    H164037   6.367   2.904  16.521  1.3255 -0.5690 -0.6907
14182TIP3    H264038   6.339   3.042  16.466  0.6907 -0.5842 -0.4143
14183TIP3   OH264039   1.538   5.044   1.476 -0.3186  0.4159 -0.4864
14183TIP3    H164040   1.498   5.067   1.560  0.9972  0.3991  0.1784
14183TIP3    H264041   1.488   4.969   1.444 -2.2891  1.8149 -0.8562
14184TIP3   OH264042   1.718   2.164   5.007  0.0542  0.4718  0.8327
14184TIP3    H164043   1.688   2.167   4.916  1.5982  0.4825  0.2801
14184TIP3    H264044   1.693   2.076   5.037  0.1527  0.2001  0.1552
14185TIP3   OH264045   6.119   6.770   4.933  0.5381 -0.1596 -0.1346
14185TIP3    H164046   6.112   6.683   4.972  0.3907 -0.0350  0.1243
14185TIP3    H264047   6.041   6.779   4.879  0.0323  0.1885  0.6228
14186TIP3   OH264048   2.780   4.313   0.365 -0.1435  0.0022 -0.3326
14186TIP3    H164049   2.776   4.225   0.327 -2.1643 -0.6392  1.1950
14186TIP3    H264050   2.706   4.359   0.325  0.4899  0.7990 -0.6036
14187TIP3   OH264051   4.428   1.645  16.574 -0.2722 -0.4235  0.1020
14187TIP3    H164052   4.421   1.738  16.594  0.3180 -0.5088  0.7564
14187TIP3    H264053   4.409   1.601  16.657 -0.0464 -0.8672 -0.0773
14188TIP3   OH264054   4.210   6.303  12.271  0.5272 -0.0427  0.1121
14188TIP3    H164055   4.143   6.371  12.275 -0.4151 -0.9742  3.0243
14188TIP3    H264056   4.164   6.225  12.240  0.9231 -0.0750 -0.4197
14189TIP3   OH264057   2.100   3.181   3.887  0.1503  0.0548  0.1960
14189TIP3    H164058   2.176   3.238   3.896 -0.1886  0.4427  0.6224
14189TIP3    H264059   2.102   3.153   3.795  0.1508  0.9841 -0.0982
14190TIP3   OH264060   1.280   2.027  16.692 -0.2655  0.1434 -0.2172
14190TIP3    H164061   1.206   2.047  16.634 -1.1923 -0.5965  0.6559
14190TIP3    H264062   1.304   2.111  16.731 -1.6355  0.1972  0.5850
14191TIP3   OH264063   3.047   3.570   1.197 -0.4516  0.3036  0.4502
14191TIP3    H164064   3.031   3.512   1.123 -0.4593  0.6112  0.2102
14191TIP3    H264065   2.961   3.579   1.240 -0.5602  0.5447  0.1879
14192TIP3   OH264066   0.835   5.439   2.584 -0.3177 -0.1692 -0.1129
14192TIP3    H164067   0.857   5.522   2.627 -2.4306  0.4000 -0.0332
14192TIP3    H264068   0.813   5.464   2.495  0.3433 -0.8501 -0.4761
14193TIP3   OH264069   4.327   2.212   2.079 -0.0551  0.2179 -0.0806
14193TIP3    H164070   4.396   2.225   2.014 -1.4718  1.8515 -1.3714
14193TIP3    H264071   4.258   2.166   2.032 -1.0126  1.2310  0.2831
14194TIP3   OH264072   5.291   1.367   2.224  0.0037 -0.3163 -0.2778
14194TIP3    H164073   5.362   1.379   2.287  1.6140 -2.8841 -1.4412
14194TIP3    H264074   5.211   1.364   2.278  1.0214  0.2749  1.3268
14195TIP3   OH264075   0.230   5.925   1.440  0.3629  0.9133  0.5155
14195TIP3    H164076   0.248   6.018   1.455 -0.2254  0.9411  1.1216
14195TIP3    H264077   0.308   5.892   1.397 -0.5555  2.3466 -2.5161
14196TIP3   OH264078   4.271   3.411  12.484 -0.1101 -0.1341  0.5187
14196TIP3    H164079   4.218   3.420  12.405  0.1449 -2.2743  0.0523
14196TIP3    H264080   4.236   3.334  12.529  0.2193  0.6164  2.1337
14197TIP3   OH264081   1.498   5.982   5.718  0.2210  0.1182 -0.1447
14197TIP3    H164082   1.557   5.950   5.786  0.8774 -0.9744 -1.1940
14197TIP3    H264083   1.536   5.950   5.636 -0.4175  1.5932 -1.0712
14198TIP3   OH264084   3.490   3.137   0.567 -0.0129  0.7522  0.0976
14198TIP3    H164085   3.448   3.149   0.653 -0.4338  1.7596 -0.2362
14198TIP3    H264086   3.417   3.124   0.507  0.2675  0.3615 -0.1614
14199TIP3   OH264087   3.257   0.786   4.914 -0.2425  0.5299 -0.6105
14199TIP3    H164088   3.261   0.859   4.852 -0.2840  0.3891 -0.7806
14199TIP3    H264089   3.342   0.742   4.903  0.2067  1.1562  0.2399
14200TIP3   OH264090   5.437   5.359  16.124  0.0837  0.2187  0.1477
14200TIP3    H164091   5.358   5.398  16.088  0.5013  2.4669  1.4691
14200TIP3    H264092   5.447   5.276  16.077 -3.7016 -0.7725  0.7520
14201TIP3   OH264093   6.168   5.980  17.121  0.4519  0.1411 -0.3874
14201TIP3    H164094   6.205   5.916  17.182 -0.5331 -0.2594 -0.1737
14201TIP3    H264095   6.117   6.039  17.177 -1.9738 -1.2969 -0.9098
14202TIP3   OH264096   6.694   0.397   6.894 -0.1009  0.5269 -0.7530
14202TIP3    H164097   6.667   0.314   6.856 -0.2724 -0.3801  1.2280
14202TIP3    H264098   6.788   0.387   6.909  0.2980  1.4976 -2.3478
14203TIP3   OH264099   4.646   5.098   6.003  0.3345 -0.2781  0.0724
14203TIP3    H164100   4.663   5.173   5.945  3.1909 -0.6973  0.2064
14203TIP3    H264101   4.603   5.136   6.079  0.4928  1.0183 -0.4577
14204TIP3   OH264102   2.750   5.169   3.341 -0.5776  0.2221  0.6384
14204TIP3    H164103   2.738   5.150   3.248 -0.6138  0.1286  0.6617
14204TIP3    H264104   2.664   5.202   3.370 -0.7558 -0.3620  0.7847
14205TIP3   OH264105   0.927   0.831   1.807  0.3277 -0.0980  0.2198
14205TIP3    H164106   0.857   0.767   1.815 -0.3823  0.8595  2.6443
14205TIP3    H264107   0.894   0.896   1.746  0.3712 -1.1351 -0.9442
14206TIP3   OH264108   0.385   1.646  16.035 -0.0433  0.4679 -0.0830
14206TIP3    H164109   0.307   1.651  15.980 -0.1934 -1.9456 -0.2103
14206TIP3    H264110   0.402   1.736  16.061 -3.2768  1.0330  0.5236
14207TIP3   OH264111   4.305   5.544  13.461 -0.0481 -0.6399  0.2226
14207TIP3    H164112   4.392   5.584  13.467 -0.5320  0.4258  0.5045
14207TIP3    H264113   4.319   5.464  13.410  0.8458  0.2865 -1.0854
14208TIP3   OH264114   2.502   2.818   4.171  0.2558 -0.5255  0.0131
14208TIP3    H164115   2.583   2.774   4.144  0.5691 -0.3815  0.6973
14208TIP3    H264116   2.517   2.842   4.262 -0.5462 -0.4579  0.1347
14209TIP3   OH264117   4.140   2.170   0.496  0.7902  0.0074  0.0695
14209TIP3    H164118   4.149   2.147   0.588  1.6761 -0.0410 -0.0251
14209TIP3    H264119   4.224   2.148   0.457  0.2438 -0.4980 -0.8677
14210TIP3   OH264120   3.395   4.983   5.120 -0.6033  0.3413 -0.4849
14210TIP3    H164121   3.342   5.041   5.175 -0.7780 -0.5558  0.3169
14210TIP3    H264122   3.470   5.037   5.095 -0.7796  0.9328  0.2076
14211TIP3   OH264123   0.835   5.530  10.748 -0.0583  0.1828 -0.7325
14211TIP3    H164124   0.775   5.555  10.678  2.5305  0.7267 -2.9231
14211TIP3    H264125   0.870   5.613  10.781 -2.0812  0.0231  2.1556
14212TIP3   OH264126   6.084   4.607   0.068  0.2251  0.3447 -0.8779
14212TIP3    H164127   6.018   4.655   0.118  0.0492  1.4750 -2.1361
14212TIP3    H264128   6.149   4.581   0.133 -0.8363  0.2778  0.1865
14213TIP3   OH264129   2.181   4.786  10.890  0.9457  0.4061  0.1541
14213TIP3    H164130   2.099   4.830  10.912  1.3203  0.1221  2.3650
14213TIP3    H264131   2.156   4.716  10.830 -0.2480  1.0403 -0.1186
14214TIP3   OH264132   2.579   5.853   3.478  0.6758 -0.6670 -0.0622
14214TIP3    H164133   2.533   5.872   3.560 -1.0406 -2.3335 -0.5714
14214TIP3    H264134   2.538   5.910   3.413  1.0144 -0.4271 -0.0721
14215TIP3   OH264135   3.620   2.632   2.573 -0.1662  0.2565 -0.6688
14215TIP3    H164136   3.578   2.595   2.651  0.1293  1.4253  0.0720
14215TIP3    H264137   3.707   2.593   2.570 -0.1340  0.3071 -0.3421
14216TIP3   OH264138   0.779   5.462  16.439 -0.0862  0.0204  0.0021
14216TIP3    H164139   0.684   5.452  16.445  0.0054 -0.5232  0.6308
14216TIP3    H264140   0.802   5.522  16.509 -0.0115  0.5170 -0.4390
14217TIP3   OH264141   2.084   0.985   5.394 -0.1064 -0.2751  0.5266
14217TIP3    H164142   2.024   0.914   5.416  0.7993 -0.3420  3.2094
14217TIP3    H264143   2.035   1.040   5.333 -1.3791 -2.3679 -0.4302
14218TIP3   OH264144   2.044   3.286   5.118  0.2906 -0.4792 -0.3886
14218TIP3    H164145   1.983   3.217   5.144 -1.0783 -0.0323 -2.2391
14218TIP3    H264146   2.114   3.281   5.183 -1.3582 -1.4638  1.4181
14219TIP3   OH264147   4.429   6.100  12.999 -0.6090  0.8460  0.3625
14219TIP3    H164148   4.515   6.097  12.957 -0.5772  1.0163  0.4141
14219TIP3    H264149   4.377   6.036  12.951  0.1129 -0.7523  1.6052
14220TIP3   OH264150   5.746   3.895   0.338 -0.3433 -0.6761  0.4616
14220TIP3    H164151   5.778   3.883   0.248 -0.6584 -2.1099  0.5203
14220TIP3    H264152   5.690   3.972   0.333  0.3415 -0.2080 -0.3818
14221TIP3   OH264153   1.979   5.400   4.466 -0.1617  0.7358  0.1327
14221TIP3    H164154   1.924   5.475   4.489 -1.8035 -0.0587 -1.0005
14221TIP3    H264155   1.938   5.363   4.388  0.8322 -1.1139  0.4291
14222TIP3   OH264156   0.536   1.160  10.916 -0.3060  0.4318  1.2341
14222TIP3    H164157   0.569   1.226  10.855  0.2873  0.1817  1.2802
14222TIP3    H264158   0.470   1.112  10.867 -0.1543  0.5269  0.9372
14223TIP3   OH264159   0.140   3.218  13.063 -0.4050 -0.1350  0.1199
14223TIP3    H164160   0.136   3.189  12.972  0.9957  1.4486 -0.5008
14223TIP3    H264161   0.192   3.150  13.106 -0.7356 -0.6955 -0.3484
14224TIP3   OH264162   6.518   5.776  13.291  0.3728 -0.3625 -0.5800
14224TIP3    H164163   6.548   5.824  13.368 -0.2379 -0.9361  0.0351
14224TIP3    H264164   6.597   5.739  13.253  0.8583  1.1280 -1.0788
14225TIP3   OH264165   6.267   1.852   1.365  0.1546  0.3803 -0.2109
14225TIP3    H164166   6.207   1.885   1.298 -0.4847  0.0390  0.1799
14225TIP3    H264167   6.354   1.866   1.329  0.0288  3.6399  0.3878
14226TIP3   OH264168   5.944   5.363   4.035  0.3552  0.0005  0.4090
14226TIP3    H164169   5.868   5.325   3.991  0.3597 -0.2953  0.6491
14226TIP3    H264170   5.962   5.303   4.107  0.6195  0.2421  0.5472
14227TIP3   OH264171   4.791   1.677   1.415 -0.0639 -0.3165  1.0622
14227TIP3    H164172   4.833   1.639   1.492 -0.5767 -0.3238  1.3434
14227TIP3    H264173   4.809   1.771   1.421 -0.3875 -0.2752  1.3688
14228TIP3   OH264174   3.840   2.690   3.278  0.1701 -0.1473 -0.0133
14228TIP3    H164175   3.921   2.714   3.233 -0.6321  0.3804 -1.2161
14228TIP3    H264176   3.770   2.723   3.222 -0.9271 -1.8286  0.2806
14229TIP3   OH264177   1.178   3.905  17.138 -0.6701 -0.5202 -0.0342
14229TIP3    H164178   1.082   3.912  17.136 -0.7134 -0.8340  0.7403
14229TIP3    H264179   1.196   3.843  17.208  0.0955 -0.6766 -0.3688
14230TIP3   OH264180   6.281   3.177   3.685  0.5735 -0.2631  0.0389
14230TIP3    H164181   6.196   3.146   3.715  0.6065 -0.3682  0.0237
14230TIP3    H264182   6.325   3.206   3.765  0.3704  0.1661 -0.0034
14231TIP3   OH264183   0.719   4.877   5.734  0.3004  0.2086 -0.5926
14231TIP3    H164184   0.763   4.801   5.770  3.7021  0.8590 -2.9582
14231TIP3    H264185   0.667   4.843   5.660 -0.8958 -0.1612  0.3807
14232TIP3   OH264186   4.497   0.404   0.122  0.8593  0.2556 -1.0076
14232TIP3    H164187   4.554   0.356   0.061  0.9520  0.1254 -0.8157
14232TIP3    H264188   4.412   0.408   0.077  0.7058 -0.5337 -0.7934
14233TIP3   OH264189   2.149   0.755  16.885 -1.1445  0.2415 -0.1222
14233TIP3    H164190   2.062   0.795  16.886 -1.3111 -0.1257  0.1439
14233TIP3    H264191   2.176   0.756  16.977  0.4257  3.1421 -0.4863
14234TIP3   OH264192   0.081   6.130  12.985  0.3362  0.4990  0.7026
14234TIP3    H164193   0.097   6.190  13.058 -0.1251 -0.6732  1.8221
14234TIP3    H264194   0.144   6.059  13.000  1.9376  1.3651 -1.4534
14235TIP3   OH264195   5.027   4.959   4.069 -0.2491 -0.1460 -0.1641
14235TIP3    H164196   5.033   4.890   4.135 -1.1580  0.1860  0.2916
14235TIP3    H264197   4.937   4.991   4.076 -0.1389  0.4086 -1.0555
14236TIP3   OH264198   1.752   4.446   2.445  0.1325  0.1308  0.5284
14236TIP3    H164199   1.660   4.451   2.471  0.3432 -1.3024  1.7114
14236TIP3    H264200   1.750   4.451   2.350 -1.2194 -0.2994  0.5053
14237TIP3   OH264201   3.462   0.352  14.841  0.3376  0.2354  0.0105
14237TIP3    H164202   3.479   0.440  14.874 -0.4720  0.6305 -0.5898
14237TIP3    H264203   3.378   0.328  14.881  0.7051 -0.3874  0.4138
14238TIP3   OH264204   1.918   6.505  16.177  0.7977 -0.4562  0.6829
14238TIP3    H164205   1.923   6.592  16.138  3.0587 -1.4865 -1.6049
14238TIP3    H264206   1.944   6.519  16.269 -0.8332  1.4973  0.9236
14239TIP3   OH264207   5.980   5.074  15.671  0.3072 -0.4231 -0.3366
14239TIP3    H164208   6.058   5.032  15.706  0.7374 -0.0887 -0.8771
14239TIP3    H264209   5.967   5.151  15.726  1.2732  0.3790 -1.1977
14240TIP3   OH264210   3.255   6.209  12.172 -0.3053 -0.5903 -0.4522
14240TIP3    H164211   3.184   6.256  12.214 -0.0194 -0.0891 -0.5159
14240TIP3    H264212   3.302   6.276  12.122  1.3471 -0.5009  1.0931
14241TIP3   OH264213   3.037   0.087   3.084  0.1005  0.2841 -0.3303
14241TIP3    H164214   2.969   0.133   3.132  0.2530 -1.3938  1.6419
14241TIP3    H264215   2.990   0.027   3.027 -0.0679  0.5986 -0.5262
14242TIP3   OH264216   4.763   2.404  14.628 -1.2198  0.6111  0.7038
14242TIP3    H164217   4.741   2.364  14.713  1.3686 -0.9539  0.7366
14242TIP3    H264218   4.804   2.487  14.651 -2.4105  1.1687  0.8632
14243TIP3   OH264219   4.540   5.658  11.747  0.2590  0.2681 -0.5516
14243TIP3    H164220   4.622   5.707  11.742  0.0657  0.4736 -2.4469
14243TIP3    H264221   4.477   5.720  11.782  1.0608 -0.1727  1.8674
14244TIP3   OH264222   2.826   1.245   4.997  0.0695  0.7737 -0.1838
14244TIP3    H164223   2.898   1.291   5.039  0.8621 -1.4347  1.0176
14244TIP3    H264224   2.864   1.161   4.970 -1.7706  0.0033 -0.4981
14245TIP3   OH264225   1.104   0.934  15.438  0.2915  0.2079  0.4334
14245TIP3    H164226   1.123   0.926  15.344  0.1066  0.6950  0.3517
14245TIP3    H264227   1.011   0.957  15.442 -1.2648 -4.9708  0.9180
14246TIP3   OH264228   1.621   5.527   2.166 -0.0927  0.2102 -0.0269
14246TIP3    H164229   1.550   5.463   2.165  0.0196  0.0883 -0.2026
14246TIP3    H264230   1.625   5.560   2.076  0.6369 -0.4056 -0.2310
14247TIP3   OH264231   2.223   6.575   5.078  0.7436 -0.1707  0.2974
14247TIP3    H164232   2.217   6.671   5.077  1.1675 -0.0845  2.1013
14247TIP3    H264233   2.141   6.547   5.120  1.4757 -0.4411  1.6244
14248TIP3   OH264234   0.805   6.675  15.777 -0.4674 -0.4198  0.2577
14248TIP3    H164235   0.850   6.591  15.771  0.4775  0.1576 -1.5765
14248TIP3    H264236   0.874   6.741  15.768 -1.3626  0.5349  0.1198
14249TIP3   OH264237   3.882   5.226   1.276 -0.3306  0.1581  0.1221
14249TIP3    H164238   3.914   5.231   1.186 -1.5113  1.8462 -0.2422
14249TIP3    H264239   3.799   5.177   1.269 -0.2131 -0.0832  0.3711
14250TIP3   OH264240   4.973   5.906  14.774 -0.2447  0.2570  0.3264
14250TIP3    H164241   4.934   5.827  14.810 -0.8552  0.4455  0.0983
14250TIP3    H264242   4.971   5.969  14.846 -0.4274  0.2865  0.2961
14251TIP3   OH264243   4.681   1.648  15.446  0.1753 -0.2567 -0.5789
14251TIP3    H164244   4.592   1.617  15.464  0.6770 -0.5140  1.8277
14251TIP3    H264245   4.711   1.593  15.373 -0.1136 -3.4296  1.4640
14252TIP3   OH264246   5.187   3.028   5.118 -0.2276 -0.3886 -0.1083
14252TIP3    H164247   5.155   2.937   5.111 -0.9008 -0.1770  0.0745
14252TIP3    H264248   5.111   3.081   5.092  0.6238  0.1017 -1.7306
14253TIP3   OH264249   0.358   3.328   3.395  0.2730  0.6221  0.0471
14253TIP3    H164250   0.427   3.370   3.343  0.5792  0.3843  0.2600
14253TIP3    H264251   0.313   3.270   3.333  1.1850 -0.3156  0.2329
14254TIP3   OH264252   2.223   2.839  10.804 -0.0469  0.4040  0.2089
14254TIP3    H164253   2.265   2.903  10.861 -0.3943  1.7652 -0.9935
14254TIP3    H264254   2.131   2.866  10.799 -0.4009 -0.6908  0.3275
14255TIP3   OH264255   4.186   4.163  13.423  0.6053  0.4843  0.6729
14255TIP3    H164256   4.274   4.196  13.403  0.3864  0.9144  0.4058
14255TIP3    H264257   4.162   4.111  13.346  0.6331  0.3430  0.7585
14256TIP3   OH264258   1.959   6.780   5.070 -0.3481  0.3065  0.5669
14256TIP3    H164259   1.875   6.806   5.032 -0.4276  1.3733  1.4406
14256TIP3    H264260   2.022   6.839   5.029 -0.5580  2.1486  2.7256
14257TIP3   OH264261   4.291   2.310  15.083  0.1423 -0.7246 -0.1259
14257TIP3    H164262   4.332   2.301  15.169  0.3198 -0.9991 -0.2394
14257TIP3    H264263   4.363   2.298  15.020  0.3592  1.1858 -0.2996
14258TIP3   OH264264   6.229   6.141   2.850  0.3607 -0.4691  0.2468
14258TIP3    H164265   6.233   6.069   2.787 -2.7872 -1.0090  0.4774
14258TIP3    H264266   6.170   6.204   2.810  1.9760  1.3968  0.6755
14259TIP3   OH264267   1.526   3.047   5.807 -0.2630 -0.0336 -0.4868
14259TIP3    H164268   1.539   2.967   5.857 -1.4574  1.0574  1.7482
14259TIP3    H264269   1.613   3.085   5.799  0.0689 -0.6544  0.0641
14260TIP3   OH264270   6.062   2.438   2.773  0.3030  0.0917 -0.4757
14260TIP3    H164271   6.082   2.346   2.787 -0.3976  0.0565  0.4190
14260TIP3    H264272   6.088   2.455   2.683  1.6324 -0.6457 -0.2506
14261TIP3   OH264273   6.557   4.115   2.299 -0.3703 -0.6976 -0.3572
14261TIP3    H164274   6.645   4.102   2.335  0.3169  1.5845 -1.0488
14261TIP3    H264275   6.507   4.154   2.370 -0.3776 -0.5834 -0.4239
14262TIP3   OH264276   3.087   5.429  17.009  0.5809  0.4148 -0.4432
14262TIP3    H164277   3.094   5.395  17.098 -1.0712  1.6999  0.2262
14262TIP3    H264278   3.000   5.404  16.980  0.7846  0.7528 -1.3765
14263TIP3   OH264279   5.986   4.818   2.321  0.3469  0.1140 -0.3557
14263TIP3    H164280   5.981   4.819   2.225  1.5479  1.0526 -0.4299
14263TIP3    H264281   5.897   4.837   2.350 -0.1974 -0.9316 -1.2667
14264TIP3   OH264282   2.894   1.992   3.691  0.6099 -0.0092 -0.4697
14264TIP3    H164283   2.835   1.933   3.645  1.7725 -1.7033  0.0903
14264TIP3    H264284   2.976   1.943   3.698  0.6537  0.2919  2.9203
14265TIP3   OH264285   5.092   0.218  14.689 -0.2696 -0.1656  0.3012
14265TIP3    H164286   5.146   0.290  14.658 -0.0957  0.0505  1.0761
14265TIP3    H264287   5.051   0.252  14.769 -1.6865 -0.2686 -0.3622
14266TIP3   OH264288   3.108   4.582   3.859  0.3147  0.2109 -0.1999
14266TIP3    H164289   3.127   4.574   3.766 -1.4117 -2.4182 -0.4228
14266TIP3    H264290   3.195   4.581   3.901  1.0797  0.4296 -1.7198
14267TIP3   OH264291   1.145   2.305  11.547  0.3085  0.4154  0.2087
14267TIP3    H164292   1.050   2.313  11.551  0.3529  0.8583  0.3851
14267TIP3    H264293   1.160   2.215  11.518 -0.1873  0.9282 -1.7341
14268TIP3   OH264294   1.643   4.250   4.809  0.0210  0.6063 -0.6199
14268TIP3    H164295   1.709   4.216   4.749 -1.1251 -1.0903 -1.0066
14268TIP3    H264296   1.638   4.184   4.878 -0.0460  1.5853  0.3321
14269TIP3   OH264297   6.362   3.788  17.073 -0.5178  0.3474  0.2181
14269TIP3    H164298   6.381   3.881  17.087  0.0757  0.2366  0.1366
14269TIP3    H264299   6.442   3.752  17.036 -0.1396 -0.5565  1.8220
14270TIP3   OH264300   0.580   5.003   1.549  0.3250  0.6384 -0.2437
14270TIP3    H164301   0.531   4.999   1.631 -0.0482  1.3525 -0.4189
14270TIP3    H264302   0.524   5.054   1.490  0.3009 -0.3943 -1.1481
14271TIP3   OH264303   0.395   2.040   4.529  0.2858  0.0894  0.1719
14271TIP3    H164304   0.432   2.108   4.472 -1.2042  0.0490 -0.8849
14271TIP3    H264305   0.421   2.066   4.617 -3.1953  4.1664  0.3130
14272TIP3   OH264306   5.190   0.024   2.606  0.0361  0.1691  0.4774
14272TIP3    H164307   5.144   0.087   2.550  2.4921  0.5874 -1.2622
14272TIP3    H264308   5.201  -0.053   2.550 -0.3533 -0.7110  1.5815
14273TIP3   OH264309   5.902   2.573  12.736 -0.0260 -0.1797 -0.3608
14273TIP3    H164310   5.815   2.537  12.750  0.1198 -0.5361 -0.3797
14273TIP3    H264311   5.912   2.576  12.641 -0.8448  1.8366 -0.4515
14274TIP3   OH264312   1.346   3.732   5.887 -0.0656 -0.0788  0.1917
14274TIP3    H164313   1.370   3.823   5.870 -1.0980  0.2933  0.6614
14274TIP3    H264314   1.264   3.719   5.839 -0.1502 -0.6376  0.4725
14275TIP3   OH264315   2.367   2.053   6.145  0.0632 -0.2171 -0.0812
14275TIP3    H164316   2.294   1.991   6.142 -0.1472 -0.0512  1.0079
14275TIP3    H264317   2.424   2.020   6.215 -0.6562  1.4113  1.3849
14276TIP3   OH264318   3.637   0.583   4.328  0.1886 -0.7414  0.2398
14276TIP3    H164319   3.665   0.670   4.357 -1.0727 -0.6138  1.2175
14276TIP3    H264320   3.547   0.596   4.299  1.0215 -1.1114 -2.8004
14277TIP3   OH264321   6.382   5.457  13.046 -0.0951 -0.1440 -0.4050
14277TIP3    H164322   6.419   5.492  13.127  0.7225 -0.7539 -0.5103
14277TIP3    H264323   6.301   5.414  13.074  0.4678 -0.8460  0.1829
14278TIP3   OH264324   4.717   4.827  15.332 -0.3255 -0.1875 -0.7881
14278TIP3    H164325   4.763   4.769  15.272 -0.5187  0.0767 -1.1939
14278TIP3    H264326   4.672   4.890  15.276  2.6691  2.5963 -0.3399
14279TIP3   OH264327   0.800   4.947  15.585 -0.0343  0.5651  0.2360
14279TIP3    H164328   0.711   4.971  15.557 -0.8207  0.7916  2.6600
14279TIP3    H264329   0.856   4.974  15.512 -1.6502  3.1826 -0.2035
14280TIP3   OH264330   3.636   2.370   5.517 -0.0389  0.4175  0.0897
14280TIP3    H164331   3.605   2.378   5.607  0.8600 -0.3289  0.4809
14280TIP3    H264332   3.557   2.374   5.464 -0.4960  1.8695  0.8309
14281TIP3   OH264333   6.078   2.449  14.148 -0.0112  0.6657  0.0405
14281TIP3    H164334   6.085   2.531  14.198  0.6181  0.6114  0.0546
14281TIP3    H264335   5.991   2.453  14.107 -0.0701  1.2447  0.2108
14282TIP3   OH264336   0.444   3.778  12.286 -0.4166  0.4079  0.1378
14282TIP3    H164337   0.522   3.790  12.340 -0.9273 -0.2541  1.0623
14282TIP3    H264338   0.457   3.694  12.243  0.2373  1.1837 -1.2417
14283TIP3   OH264339   2.836   4.824   2.358 -0.2570  0.1061  0.1650
14283TIP3    H164340   2.764   4.865   2.309  0.8621  0.9474 -0.8466
14283TIP3    H264341   2.879   4.897   2.402  0.7254 -0.2087 -0.2574
14284TIP3   OH264342   1.306   0.519   1.483  0.3108 -0.1946 -0.0262
14284TIP3    H164343   1.258   0.529   1.401  0.9609  2.0285 -0.2159
14284TIP3    H264344   1.239   0.521   1.551 -0.0816  0.2146 -0.4157
14285TIP3   OH264345   6.149   0.830   2.104 -0.2311 -0.2208  0.5202
14285TIP3    H164346   6.117   0.776   2.176 -0.2112 -2.1698 -0.8767
14285TIP3    H264347   6.138   0.777   2.026 -0.7578  2.0385 -1.0544
14286TIP3   OH264348   4.772   0.896  13.709 -0.4859 -0.4454  0.9270
14286TIP3    H164349   4.791   0.809  13.743 -0.0234 -0.3267  0.9699
14286TIP3    H264350   4.815   0.956  13.771  0.1794 -0.2169  0.2512
14287TIP3   OH264351   1.726   0.020   1.021 -0.2366 -0.0637  0.4820
14287TIP3    H164352   1.804  -0.019   0.982 -0.4057 -0.0935  0.1708
14287TIP3    H264353   1.749   0.112   1.034  0.0614 -0.2027  0.9498
14288TIP3   OH264354   2.551   0.131  11.340 -0.0794  0.3278  0.3567
14288TIP3    H164355   2.585   0.070  11.406  0.4871  1.5228  1.2169
14288TIP3    H264356   2.471   0.166  11.380 -1.5521 -1.3143 -0.9996
14289TIP3   OH264357   5.479   0.668  16.639  0.1729  0.3175 -0.0686
14289TIP3    H164358   5.428   0.612  16.698 -0.5403  0.7111 -0.2915
14289TIP3    H264359   5.416   0.694  16.572  0.8188  0.3764 -0.6549
14290TIP3   OH264360   0.673   1.402   1.115  0.0549  0.0065 -0.3184
14290TIP3    H164361   0.626   1.348   1.051  0.4808  1.2856 -1.7859
14290TIP3    H264362   0.607   1.465   1.145  0.3787  0.7431 -1.1178
14291TIP3   OH264363   4.631   2.747   2.494 -0.5007  0.4090  0.2203
14291TIP3    H164364   4.649   2.748   2.400 -0.3641  1.4797  0.2381
14291TIP3    H264365   4.705   2.794   2.532 -0.3051 -0.4554  0.9171
14292TIP3   OH264366   0.806   2.884   5.828 -0.0059  0.1305  0.4073
14292TIP3    H164367   0.879   2.837   5.869  0.3865  0.6675  0.3356
14292TIP3    H264368   0.845   2.965   5.795 -0.5401  0.2009 -0.0665
14293TIP3   OH264369   2.972   3.387  13.227 -0.1563  0.1857  0.2915
14293TIP3    H164370   3.003   3.298  13.241  1.9986  1.0471  1.4445
14293TIP3    H264371   2.992   3.405  13.135  0.2188 -0.2424  0.2841
14294TIP3   OH264372   2.656   0.814  13.713 -0.1037 -0.2091  0.0636
14294TIP3    H164373   2.626   0.726  13.734 -1.4123  0.0721 -0.5257
14294TIP3    H264374   2.747   0.802  13.684  0.1704 -1.1776  1.2245
14295TIP3   OH264375   4.279   0.464   1.564  0.2206 -0.4327  0.1188
14295TIP3    H164376   4.349   0.509   1.516 -0.3557 -0.4872 -0.8105
14295TIP3    H264377   4.322   0.388   1.604  0.4087 -1.4946 -1.9274
14296TIP3   OH264378   1.040   3.019  16.820 -1.4905 -0.1575  0.1735
14296TIP3    H164379   1.131   2.988  16.826 -0.6944  1.7101 -1.0797
14296TIP3    H264380   1.008   2.985  16.736 -0.5719  2.2257 -1.2684
14297TIP3   OH264381   5.367   3.476  11.555 -0.5396 -0.4353  0.8054
14297TIP3    H164382   5.332   3.535  11.488  2.1608 -0.8136 -1.1386
14297TIP3    H264383   5.417   3.533  11.613 -0.7416 -0.3962  0.9387
14298TIP3   OH264384   6.087   0.179  16.487  0.7390  0.0314 -0.2192
14298TIP3    H164385   6.115   0.221  16.405 -0.0336  0.9385 -0.0252
14298TIP3    H264386   6.129   0.230  16.556 -0.4136  0.6709  0.0271
14299TIP3   OH264387   1.322   1.795   2.754 -0.0027 -0.2277  0.4796
14299TIP3    H164388   1.315   1.853   2.830 -0.4141  1.6308 -0.9232
14299TIP3    H264389   1.275   1.840   2.685  3.2566 -0.1722 -1.8987
14300TIP3   OH264390   4.755   0.073  15.925  0.8280  0.3177 -0.0349
14300TIP3    H164391   4.680   0.055  15.869  0.9947  0.2815 -0.2433
14300TIP3    H264392   4.830   0.034  15.881  0.7391 -0.9995  0.9240
14301TIP3   OH264393   2.822   3.798   1.595 -0.1642  0.3809  0.2109
14301TIP3    H164394   2.734   3.811   1.561  0.0366  3.0169  0.5199
14301TIP3    H264395   2.810   3.780   1.688 -0.3725  0.6088  0.2271
14302TIP3   OH264396   6.458   2.192  14.033 -0.1138  0.2348  0.0825
14302TIP3    H164397   6.408   2.195  14.114  1.2612 -2.9689  1.1923
14302TIP3    H264398   6.520   2.265  14.041 -0.4000  0.3371  1.6586
14303TIP3   OH264399   2.765   0.670   5.772 -0.5902  0.1981  0.3307
14303TIP3    H164400   2.783   0.576   5.772 -0.3151  0.2243  1.6906
14303TIP3    H264401   2.674   0.678   5.743 -0.0964 -0.3325 -1.4840
14304TIP3   OH264402   6.741   2.128  12.016  0.6797  0.3537  0.3124
14304TIP3    H164403   6.741   2.104  12.109  1.7219  2.1422  0.8299
14304TIP3    H264404   6.709   2.218  12.014  1.5496  0.6703 -0.9459
14305TIP3   OH264405   4.227   1.483  13.861  0.1060 -0.2470  0.2631
14305TIP3    H164406   4.245   1.403  13.910 -3.3886 -0.9555  0.6137
14305TIP3    H264407   4.134   1.500  13.876  0.2288  2.7085 -1.5667
14306TIP3   OH264408   6.540   5.744   5.304  0.5736  0.3172  0.2211
14306TIP3    H164409   6.564   5.674   5.364  0.4350 -1.1175 -1.3456
14306TIP3    H264410   6.446   5.756   5.316 -0.4074 -2.9268 -2.5285
14307TIP3   OH264411   2.658   2.005   4.225 -0.3138 -0.3133  0.2232
14307TIP3    H164412   2.702   2.080   4.264 -0.9420 -0.4380  1.1832
14307TIP3    H264413   2.671   2.016   4.131  0.3717  0.5118  0.4065
14308TIP3   OH264414   5.244   2.381   2.117 -0.6747 -0.3751  0.0894
14308TIP3    H164415   5.222   2.299   2.162 -1.3243 -0.8482 -1.0352
14308TIP3    H264416   5.328   2.363   2.074  0.1457  0.2091  1.4034
14309TIP3   OH264417   3.747   4.915  12.726  0.3444  0.3866  0.3752
14309TIP3    H164418   3.783   4.882  12.808  0.1196 -0.3620  0.1757
14309TIP3    H264419   3.654   4.928  12.745  0.4888  1.2738  0.5587
14310TIP3   OH264420   3.203   3.673   1.393 -0.3867 -0.7198 -0.1760
14310TIP3    H164421   3.150   3.647   1.318 -0.7715  2.7639 -1.2985
14310TIP3    H264422   3.281   3.713   1.355  0.3018 -0.5720  1.3212
14311TIP3   OH264423   0.210   1.212  14.168  0.2889 -0.7284 -0.3483
14311TIP3    H164424   0.245   1.154  14.235  2.3449 -0.3092 -0.9617
14311TIP3    H264425   0.179   1.289  14.215 -0.9443 -1.6063  0.3221
14312TIP3   OH264426   0.405   2.388   3.010 -0.7117 -0.0321 -0.6427
14312TIP3    H164427   0.453   2.471   3.012  0.4034 -0.6493 -0.7390
14312TIP3    H264428   0.464   2.328   2.963 -1.0658 -1.1436  0.2950
14313TIP3   OH264429   5.189   0.143   0.016 -0.2347 -0.2609 -0.0185
14313TIP3    H164430   5.107   0.187   0.039 -1.5948 -1.4143 -2.2447
14313TIP3    H264431   5.216   0.185  -0.066  1.5191  0.1803  0.7388
14314TIP3   OH264432   0.771   4.567  16.139 -0.2100  0.6441  0.0464
14314TIP3    H164433   0.830   4.496  16.115 -1.8609 -0.8721  0.1835
14314TIP3    H264434   0.823   4.624  16.195  0.6935 -1.5122  1.5470
14315TIP3   OH264435   2.968   1.391   5.194  0.1270  0.4372  0.1660
14315TIP3    H164436   2.975   1.366   5.286  0.5973  0.4766  0.1423
14315TIP3    H264437   2.964   1.487   5.196 -2.9693  0.3949  0.3485
14316TIP3   OH264438   4.961   6.488  15.663  0.0224  0.4038  0.2275
14316TIP3    H164439   4.940   6.462  15.753  1.5347  0.1361  0.5211
14316TIP3    H264440   5.051   6.460  15.650 -0.3376 -0.0191 -1.5643
14317TIP3   OH264441   6.431   3.452   3.209  0.2941 -0.0531  0.0588
14317TIP3    H164442   6.516   3.427   3.245  0.1104 -0.8079 -0.0237
14317TIP3    H264443   6.435   3.425   3.117 -0.0553 -0.1406  0.0695
14318TIP3   OH264444   6.439   1.471  12.095  0.4986  0.8102  0.1657
14318TIP3    H164445   6.475   1.400  12.042  0.4260 -0.5849  1.8977
14318TIP3    H264446   6.514   1.528  12.113  0.7381  0.7226 -0.5404
14319TIP3   OH264447   1.527   1.188   2.444 -0.3401  0.8971  0.2389
14319TIP3    H164448   1.571   1.183   2.529 -1.0720 -1.5850  0.5498
14319TIP3    H264449   1.591   1.153   2.382  0.5394  3.5338 -0.4823
14320TIP3   OH264450   2.495   1.121  15.810  0.3746  0.5485 -0.1418
14320TIP3    H164451   2.538   1.135  15.725  0.4639  1.0342 -0.0217
14320TIP3    H264452   2.420   1.180  15.808 -0.2756 -0.2649 -0.3340
14321TIP3   OH264453   4.720   6.104  16.286  0.2221  0.0465  0.5716
14321TIP3    H164454   4.775   6.029  16.307 -0.4977 -0.8066 -0.4582
14321TIP3    H264455   4.643   6.094  16.342  0.3608  0.3182  0.8149
14322TIP3   OH264456   1.340   1.644  13.430  0.9444  0.3645  0.0294
14322TIP3    H164457   1.262   1.595  13.404  0.9073 -0.0212  0.8357
14322TIP3    H264458   1.306   1.719  13.478  1.0699  0.0969  0.5428
14323TIP3   OH264459   0.056   1.607  12.212  0.3958 -0.1962 -0.2472
14323TIP3    H164460   0.148   1.604  12.189  0.1430  2.5151 -2.0844
14323TIP3    H264461   0.011   1.626  12.130 -1.8640 -1.5082  0.5774
14324TIP3   OH264462   3.151   5.924   4.083  0.3330 -0.1029  0.2412
14324TIP3    H164463   3.158   5.899   4.175 -0.2873  0.3491  0.4098
14324TIP3    H264464   3.093   5.857   4.044 -0.2414  0.2973  0.4038
14325TIP3   OH264465   0.946   1.058   2.280 -0.7186 -0.0397  0.0139
14325TIP3    H164466   0.983   1.092   2.361  3.6665 -1.3726 -1.1267
14325TIP3    H264467   0.935   1.136   2.225 -0.6223  0.5238  0.7714
14326TIP3   OH264468   0.143   1.198   4.153 -0.4080 -0.0467 -0.8052
14326TIP3    H164469   0.219   1.256   4.154  1.4993 -2.4029 -0.8185
14326TIP3    H264470   0.130   1.176   4.061 -0.4433 -0.4492 -0.7074
14327TIP3   OH264471   0.134   4.906  14.731 -0.3062  0.4355 -0.1604
14327TIP3    H164472   0.049   4.943  14.705  0.0237  0.2634 -1.5786
14327TIP3    H264473   0.128   4.897  14.826 -1.3690  1.6900 -0.0730
14328TIP3   OH264474   0.963   5.487  11.398  0.0947 -0.1958 -0.6073
14328TIP3    H164475   0.992   5.452  11.314 -2.0608  0.7526 -1.7982
14328TIP3    H264476   0.970   5.582  11.388 -0.4047 -0.0673  0.1921
14329TIP3   OH264477   1.604   5.457   3.589  0.7628 -0.0871  0.4405
14329TIP3    H164478   1.578   5.365   3.594 -2.1292  0.4971 -1.2830
14329TIP3    H264479   1.581   5.493   3.675  1.5669 -0.8779  0.9973
14330TIP3   OH264480   5.486   6.205   0.982  0.6130  0.5367 -0.1014
14330TIP3    H164481   5.487   6.218   0.888  0.4843  3.1104  0.1747
14330TIP3    H264482   5.397   6.175   1.002  0.2545  1.2152 -0.6729
14331TIP3   OH264483   6.704   5.145  16.209 -0.5372  0.1787  0.4186
14331TIP3    H164484   6.798   5.133  16.197 -0.3502 -0.7043  2.4416
14331TIP3    H264485   6.675   5.067  16.255 -2.0420  0.9886  0.9129
14332TIP3   OH264486   2.106   3.755   1.320  0.3938 -0.4995 -0.4357
14332TIP3    H164487   2.023   3.714   1.296 -1.0920  1.5642  0.8129
14332TIP3    H264488   2.171   3.713   1.264 -1.4699 -2.2232 -1.4319
14333TIP3   OH264489   2.345   1.038   3.690 -0.8397  0.4636 -0.0954
14333TIP3    H164490   2.397   0.993   3.623 -0.3000 -0.7763  1.1020
14333TIP3    H264491   2.306   0.967   3.741  0.3294  1.3025  2.0919
14334TIP3   OH264492   5.993   6.144  15.346 -0.4465  0.6943 -0.6175
14334TIP3    H164493   5.975   6.125  15.254 -0.6635  1.1738 -0.6792
14334TIP3    H264494   6.011   6.059  15.385  0.2007  0.5467 -1.2226
14335TIP3   OH264495   2.492   5.467  16.772  0.0195 -0.5975  0.2799
14335TIP3    H164496   2.522   5.554  16.746  0.2029 -0.8508 -0.3663
14335TIP3    H264497   2.453   5.480  16.858 -1.2299  0.3798 -0.4080
14336TIP3   OH264498   1.197   5.314   2.562  0.0033 -0.2665 -0.3297
14336TIP3    H164499   1.279   5.301   2.516  0.0998 -1.5366  0.1658
14336TIP3    H264500   1.129   5.299   2.497  0.1352  1.0966 -0.8198
14337TIP3   OH264501   1.009   2.341   1.139  0.1182 -0.4462  0.5588
14337TIP3    H164502   1.068   2.265   1.139 -1.8260 -2.0695 -0.4263
14337TIP3    H264503   0.973   2.343   1.051 -1.2583  0.4831  1.1057
14338TIP3   OH264504   5.611   0.589  14.952  0.1125  0.4136 -0.0766
14338TIP3    H164505   5.626   0.608  15.045  0.6846 -1.6961  0.3259
14338TIP3    H264506   5.699   0.582  14.915 -0.0706 -0.3186 -0.3901
14339TIP3   OH264507   2.078   0.363   2.607 -0.2668  0.4716  0.1205
14339TIP3    H164508   2.162   0.378   2.565 -1.2838  0.4718 -2.0971
14339TIP3    H264509   2.048   0.450   2.634  0.9946  0.3199  2.2110
14340TIP3   OH264510   4.512   3.246   2.453 -0.2016 -0.0932  0.0201
14340TIP3    H164511   4.432   3.222   2.407 -1.0757  0.2445  1.2837
14340TIP3    H264512   4.572   3.173   2.438 -1.3923 -1.2181  0.5154
14341TIP3   OH264513   3.681   5.867  11.325  0.0560 -0.4744  0.1738
14341TIP3    H164514   3.601   5.913  11.299  1.5800  1.5804 -1.2446
14341TIP3    H264515   3.662   5.832  11.412 -2.1013  0.6370  0.2118
14342TIP3   OH264516   0.428   3.672   0.716  0.0041 -0.1853  0.1277
14342TIP3    H164517   0.515   3.709   0.701  0.5462 -1.8154 -1.1438
14342TIP3    H264518   0.400   3.709   0.799  1.5490  1.0469  0.1509
14343TIP3   OH264519   1.491   3.732  10.725 -0.0411  0.0719  1.0369
14343TIP3    H164520   1.527   3.647  10.752 -1.5944 -1.1758 -0.5722
14343TIP3    H264521   1.438   3.760  10.799  0.2397 -0.5038  1.4659
14344TIP3   OH264522   2.101   6.393  12.698 -0.0438  0.4134 -0.0826
14344TIP3    H164523   2.131   6.450  12.627  0.4200 -1.5587 -1.5586
14344TIP3    H264524   2.063   6.317  12.654  0.7515 -1.1448  1.7560
14345TIP3   OH264525   6.732   1.461  15.094  0.3607 -0.0390 -0.2645
14345TIP3    H164526   6.742   1.532  15.157 -1.0559  1.9187 -2.0970
14345TIP3    H264527   6.678   1.396  15.139 -1.0303  1.5229  0.4409
14346TIP3   OH264528   3.091   5.146  10.562 -0.5878 -0.0730 -0.6669
14346TIP3    H164529   3.117   5.211  10.497  0.2022  0.6345  0.3317
14346TIP3    H264530   3.052   5.075  10.510 -0.0896  0.5186 -1.8953
14347TIP3   OH264531   4.656   3.230  13.915 -0.6005 -0.6270 -0.2559
14347TIP3    H164532   4.672   3.267  14.002 -3.2566 -2.4820  1.1662
14347TIP3    H264533   4.717   3.158  13.907  0.9060  0.6574 -0.7682
14348TIP3   OH264534   4.066   1.585  11.979  0.5698 -1.0415  0.0981
14348TIP3    H164535   3.979   1.558  12.007  0.4857 -0.6199  0.2692
14348TIP3    H264536   4.094   1.648  12.047 -0.6553  1.9802 -1.9603
14349TIP3   OH264537   2.640   2.070  13.303 -0.1620 -0.0827 -0.9831
14349TIP3    H164538   2.634   2.104  13.392  0.8559 -3.5686  0.5875
14349TIP3    H264539   2.733   2.075  13.282  0.0111 -1.7117 -0.7197
14350TIP3   OH264540   2.519   2.725  11.255 -0.3597  0.4152  0.0365
14350TIP3    H164541   2.500   2.812  11.219 -0.9299 -0.8220 -3.0361
14350TIP3    H264542   2.608   2.706  11.225 -0.8245 -0.6401 -0.7415
14351TIP3   OH264543   0.928   3.449   3.575  0.0984  0.0134  0.0548
14351TIP3    H164544   0.961   3.478   3.659 -0.2286  0.3619  0.0653
14351TIP3    H264545   0.980   3.497   3.510  1.1231 -1.0886  0.0290
14352TIP3   OH264546   1.493   5.660  14.171 -0.3479 -1.0743 -0.1541
14352TIP3    H164547   1.448   5.737  14.137  1.0584  1.4600  3.2208
14352TIP3    H264548   1.584   5.672  14.144  0.3981 -0.0336  2.5392
14353TIP3   OH264549   2.355   1.375  14.023  0.6599  0.9954 -0.0293
14353TIP3    H164550   2.373   1.381  13.929  0.0119  1.0822 -0.1525
14353TIP3    H264551   2.265   1.406  14.033  0.4239  0.1886  0.5112
14354TIP3   OH264552   4.960   0.564  12.562 -0.2951 -0.2849  0.0219
14354TIP3    H164553   4.971   0.488  12.620 -0.5323 -0.9356 -0.7714
14354TIP3    H264554   5.045   0.573  12.519 -0.5631 -0.7040 -0.6014
14355TIP3   OH264555   3.542   6.510  13.770  0.2790  0.0071  0.6621
14355TIP3    H164556   3.519   6.597  13.803  0.4725 -0.4042  1.9211
14355TIP3    H264557   3.601   6.474  13.836 -1.2956 -1.8395  1.1465
14356TIP3   OH264558   2.846   3.499  11.430  0.4235 -0.1059  0.3853
14356TIP3    H164559   2.914   3.549  11.475 -0.1668  0.5482  0.5600
14356TIP3    H264560   2.779   3.485  11.496 -0.6638  1.2654 -0.3809
14357TIP3   OH264561   5.057   3.568   0.326  0.2708  0.4870  0.3571
14357TIP3    H164562   5.007   3.489   0.344 -0.5540  1.0081  0.4329
14357TIP3    H264563   5.148   3.539   0.322  0.1307 -0.2478  1.7331
14358TIP3   OH264564   2.477   5.782  16.642  0.2858  0.9267  0.0808
14358TIP3    H164565   2.392   5.750  16.674  1.3127 -2.4249 -0.1059
14358TIP3    H264566   2.463   5.875  16.624 -3.0328  0.7341  1.0420
14359TIP3   OH264567   4.000   0.272   2.400 -0.2900  0.0084  0.4255
14359TIP3    H164568   3.931   0.269   2.334 -0.7272 -0.4400  0.8955
14359TIP3    H264569   4.024   0.180   2.413  2.3379  0.2492 -1.7333
14360TIP3   OH264570   1.969   0.317  13.156  0.2415  0.6118 -0.5332
14360TIP3    H164571   2.057   0.340  13.127  0.7210 -0.8790 -0.3776
14360TIP3    H264572   1.965   0.222  13.145 -0.9844  0.5266  0.4463
14361TIP3   OH264573   1.112   0.274  13.377 -0.1278 -0.5974  0.3600
14361TIP3    H164574   1.036   0.225  13.409 -0.6435  0.4127  0.7265
14361TIP3    H264575   1.178   0.264  13.446 -0.8799  0.7241  1.3127
14362TIP3   OH264576   2.653   2.182   5.128  0.3086 -0.1287 -0.6906
14362TIP3    H164577   2.604   2.108   5.163  0.1418 -0.7106 -2.0971
14362TIP3    H264578   2.727   2.192   5.187 -1.7985  1.2465  1.9728
14363TIP3   OH264579   4.117   2.779  14.796  0.1490 -0.4242  0.1785
14363TIP3    H164580   4.164   2.697  14.814  0.8841 -0.7768 -2.8390
14363TIP3    H264581   4.048   2.754  14.735 -1.9202  0.6954  1.9491
14364TIP3   OH264582   1.557   2.069   3.181  0.5695 -0.3080  0.2506
14364TIP3    H164583   1.605   2.082   3.100  1.1830  0.0088  0.6574
14364TIP3    H264584   1.624   2.052   3.247  0.0764 -0.6484  0.6805
14365TIP3   OH264585   1.694   0.384  12.786 -0.3076 -0.1015  0.4730
14365TIP3    H164586   1.690   0.460  12.727  2.2823 -1.1695 -1.2313
14365TIP3    H264587   1.723   0.420  12.869  0.4536  0.8648 -0.1834
14366TIP3   OH264588   2.941   6.281  15.697  0.0181 -0.1829  0.1312
14366TIP3    H164589   2.846   6.285  15.691  0.0308 -0.8572 -0.8164
14366TIP3    H264590   2.958   6.216  15.765 -0.1862  0.9125  1.2449
14367TIP3   OH264591   4.107   2.463   3.835 -0.4002 -0.4050  0.1554
14367TIP3    H164592   4.026   2.498   3.872 -0.9195 -0.6348 -0.7549
14367TIP3    H264593   4.135   2.529   3.771  0.3766 -0.1177  0.7711
14368TIP3   OH264594   4.209   0.177  13.491 -0.9319 -0.6199  0.3602
14368TIP3    H164595   4.191   0.154  13.582 -2.5077  0.7253  0.4288
14368TIP3    H264596   4.217   0.092  13.447 -1.4177 -1.2994  1.5123
14369TIP3   OH264597   5.273   2.533   2.658 -0.3378  0.0177 -0.0139
14369TIP3    H164598   5.260   2.515   2.751 -0.3408  0.9434  0.1787
14369TIP3    H264599   5.202   2.486   2.614 -1.4325  0.9986  0.6162
14370TIP3   OH264600   5.421   2.963  11.348 -0.0505 -0.2896 -0.1900
14370TIP3    H164601   5.443   2.968  11.255 -0.0252  2.9986 -0.1377
14370TIP3    H264602   5.499   2.926  11.389  0.6233 -0.1634 -1.3121
14371TIP3   OH264603   3.555   4.286   0.817 -0.5843  0.4176  0.1589
14371TIP3    H164604   3.615   4.211   0.817 -1.9525 -0.7405  0.8645
14371TIP3    H264605   3.595   4.349   0.876  1.8847  1.4034 -2.3701
14372TIP3   OH264606   0.249   3.848   6.268 -0.6925  0.0829 -0.3138
14372TIP3    H164607   0.273   3.847   6.360 -0.1575  1.3511 -0.4273
14372TIP3    H264608   0.323   3.891   6.224 -0.3964 -1.5050 -1.5034
14373TIP3   OH264609   6.368   2.117  11.332  0.1309 -0.2539  0.2133
14373TIP3    H164610   6.445   2.169  11.310  0.5772 -0.8050  0.4407
14373TIP3    H264611   6.366   2.048  11.265 -1.9627  1.5086 -1.7207
14374TIP3   OH264612   5.552   2.578   5.328  0.3949  0.7729 -0.9467
14374TIP3    H164613   5.536   2.630   5.407  2.1410  1.3667 -0.9495
14374TIP3    H264614   5.646   2.563   5.328  0.0644 -1.6441 -1.4430
14375TIP3   OH264615   1.831   3.000   0.131  0.2761  0.2838 -0.0233
14375TIP3    H164616   1.799   3.090   0.130  0.1728  0.2553 -2.1431
14375TIP3    H264617   1.916   3.006   0.175  0.2349  1.3967 -0.0694
14376TIP3   OH264618   4.703   2.676  15.517 -0.3573  0.1718  0.1733
14376TIP3    H164619   4.712   2.658  15.610 -1.1929  1.0866  0.4528
14376TIP3    H264620   4.786   2.716  15.492 -1.0921  2.6051  1.2328
14377TIP3   OH264621   3.311   5.030   3.229  0.1261  0.2937  0.5015
14377TIP3    H164622   3.243   5.001   3.290 -0.6771  0.2438 -0.3734
14377TIP3    H264623   3.376   5.074   3.283 -0.4786  0.1033  1.4025
14378TIP3   OH264624   6.458   2.548   6.309  0.0000 -0.2526  0.1662
14378TIP3    H164625   6.474   2.593   6.226 -0.1440 -1.0467 -0.3049
14378TIP3    H264626   6.363   2.554   6.321  0.2570  2.5724  1.8756
14379TIP3   OH264627   3.112   0.453  12.027 -0.9430  0.0297 -0.5318
14379TIP3    H164628   3.158   0.419  11.949 -0.2462 -1.1005  0.3444
14379TIP3    H264629   3.101   0.546  12.008  0.5592  0.0841 -1.3527
14380TIP3   OH264630   5.650   3.921  14.631 -0.2772  0.3079 -0.3470
14380TIP3    H164631   5.657   3.930  14.536  0.9707  0.1723 -0.2755
14380TIP3    H264632   5.711   3.851  14.654  0.4213  1.2223  0.7053
14381TIP3   OH264633   0.978   3.678  13.406 -0.4444 -0.3470 -0.6568
14381TIP3    H164634   1.039   3.717  13.469 -1.0683 -0.3927 -0.0099
14381TIP3    H264635   0.895   3.722  13.424 -1.2830 -2.2449  0.3954
14382TIP3   OH264636   4.586   5.733   2.736 -0.5487  0.3406  0.1215
14382TIP3    H164637   4.549   5.692   2.657 -0.1913 -0.7056  0.4812
14382TIP3    H264638   4.580   5.665   2.803 -0.4149  1.0652  0.8798
14383TIP3   OH264639   5.606   3.903   5.573  0.7319 -0.0808 -0.1241
14383TIP3    H164640   5.547   3.845   5.524 -0.0247  0.0984  0.5563
14383TIP3    H264641   5.616   3.980   5.517 -0.4041  0.2723  0.1098
14384TIP3   OH264642   6.682   4.883  12.485 -0.0627  0.2184  0.0162
14384TIP3    H164643   6.742   4.810  12.498 -0.7417 -0.1431  1.2089
14384TIP3    H264644   6.614   4.849  12.426 -0.2588 -0.0417  0.3924
14385TIP3   OH264645   6.408   3.278   1.578 -0.2063 -0.0199  0.4718
14385TIP3    H164646   6.412   3.358   1.630 -1.2756  1.4183 -1.5225
14385TIP3    H264647   6.493   3.236   1.592 -0.3467  0.4217  3.0730
14386TIP3   OH264648   2.284   1.568  12.978  0.3017  0.2237 -0.0475
14386TIP3    H164649   2.281   1.647  13.033  0.8975  1.2567 -1.4253
14386TIP3    H264650   2.203   1.573  12.927  0.4016  0.0057 -0.2240
14387TIP3   OH264651   0.567   4.019  12.000  0.4406 -0.2715  0.1611
14387TIP3    H164652   0.490   4.038  11.946  1.0574  0.0945 -0.6072
14387TIP3    H264653   0.545   4.055  12.086 -0.9945 -1.8011  0.4854
14388TIP3   OH264654   3.822   2.248  10.574 -0.1074  0.1493  0.0416
14388TIP3    H164655   3.766   2.193  10.520 -0.2043  0.1448  0.1466
14388TIP3    H264656   3.880   2.187  10.619 -1.4158 -0.0345  1.5729
14389TIP3   OH264657   6.806   6.702   3.789  0.3511  0.0074 -0.6025
14389TIP3    H164658   6.761   6.638   3.734 -0.1837  1.5063 -1.9954
14389TIP3    H264659   6.898   6.692   3.766  0.2843 -0.3458 -0.7222
14390TIP3   OH264660   5.621   0.253  16.191 -0.4204  0.2308 -0.1523
14390TIP3    H164661   5.716   0.240  16.191 -0.4875 -0.2996  0.2611
14390TIP3    H264662   5.594   0.231  16.280 -0.7978  1.3936  0.0330
14391TIP3   OH264663   5.070   0.319   1.645 -0.1483 -0.4568 -0.0086
14391TIP3    H164664   5.088   0.253   1.712 -0.7584 -0.4861  0.1340
14391TIP3    H264665   5.140   0.309   1.582  2.4534  1.7873  2.2349
14392TIP3   OH264666   2.344   0.403   4.817  0.5646 -0.3271  0.1311
14392TIP3    H164667   2.324   0.458   4.893  0.4452 -0.1868 -0.0015
14392TIP3    H264668   2.374   0.465   4.750  0.5927 -0.4429  0.0366
14393TIP3   OH264669   6.600   4.252   4.165  0.2373 -0.1992 -0.4011
14393TIP3    H164670   6.506   4.248   4.183  0.3179  1.2938  0.4254
14393TIP3    H264671   6.608   4.220   4.075 -1.1112  0.0488 -0.6270
14394TIP3   OH264672   3.758   6.271  15.205  0.2324  0.0675 -0.2117
14394TIP3    H164673   3.721   6.358  15.221  0.3365  0.2313 -0.8180
14394TIP3    H264674   3.710   6.240  15.128  1.8009  0.5616 -1.4364
14395TIP3   OH264675   0.701   0.491   2.742 -0.4680  0.1177 -0.6218
14395TIP3    H164676   0.657   0.407   2.753  0.4301 -0.1342  1.5769
14395TIP3    H264677   0.786   0.479   2.786 -0.0613  1.9771 -0.8234
14396TIP3   OH264678   5.866   3.316  13.945 -0.3238 -0.5182  0.3895
14396TIP3    H164679   5.884   3.410  13.947  0.8561 -0.7282  0.2419
14396TIP3    H264680   5.811   3.304  13.868 -1.8308  0.2583  1.3016
14397TIP3   OH264681   6.132   3.951  16.552  0.0324  0.0477 -0.1464
14397TIP3    H164682   6.096   3.896  16.483  2.1250 -1.5463 -0.0850
14397TIP3    H264683   6.091   4.036  16.540 -1.4941 -0.8626 -1.7868
14398TIP3   OH264684   5.868   5.229  13.601  0.4910 -0.2343  0.7478
14398TIP3    H164685   5.873   5.196  13.511 -1.1974 -0.8447  0.8325
14398TIP3    H264686   5.818   5.311  13.592  1.0981  0.1703  1.0319
14399TIP3   OH264687   4.331   2.785  11.560 -0.2971 -0.4106 -0.3156
14399TIP3    H164688   4.419   2.813  11.531  0.3457 -0.8533  1.1352
14399TIP3    H264689   4.279   2.783  11.479  0.2337  2.6533 -0.8562
14400TIP3   OH264690   2.575   5.387  12.075  0.0792  0.6486 -0.1723
14400TIP3    H164691   2.493   5.356  12.036  0.6207 -3.0084  1.2042
14400TIP3    H264692   2.550   5.422  12.160 -0.0187 -1.3094  0.6357
14401TIP3   OH264693   4.089   3.771  16.585 -0.1816 -0.7487 -0.1589
14401TIP3    H164694   4.147   3.746  16.513 -0.1112  1.2664 -0.8791
14401TIP3    H264695   4.008   3.799  16.541 -0.6680 -0.8823  0.6443
14402TIP3   OH264696   6.522   3.008  15.191  0.2172  0.0559  0.1589
14402TIP3    H164697   6.486   3.091  15.220 -0.6852 -0.0366 -0.6107
14402TIP3    H264698   6.584   3.031  15.121 -0.2573  0.0791 -0.2630
14403TIP3   OH264699   1.811   1.079  14.970  0.4032  0.0460  0.4020
14403TIP3    H164700   1.749   1.123  14.912 -0.0954 -2.3103 -0.9789
14403TIP3    H264701   1.888   1.135  14.970  0.2254  0.3881 -2.1704
14404TIP3   OH264702   1.486   6.657   4.138 -0.6349 -0.6133  0.2403
14404TIP3    H164703   1.419   6.602   4.097 -1.3586 -0.3190  1.0036
14404TIP3    H264704   1.487   6.737   4.086  0.1623 -1.1724 -0.6507
14405TIP3   OH264705   3.079   5.111  15.562  0.0590  0.5902  0.4102
14405TIP3    H164706   3.126   5.130  15.481  1.7686 -0.7976  1.0099
14405TIP3    H264707   3.062   5.017  15.558 -1.6195  0.8483  0.7896
14406TIP3   OH264708   1.359   6.730  12.275 -0.2764  0.2140 -0.5174
14406TIP3    H164709   1.316   6.814  12.258  0.2593  0.1898 -2.1048
14406TIP3    H264710   1.418   6.718  12.201  0.4439 -1.0619  0.2451
14407TIP3   OH264711   0.018   5.200   4.824 -0.1282  0.2219  0.5903
14407TIP3    H164712   0.079   5.236   4.888  2.2069  2.0799 -2.3792
14407TIP3    H264713  -0.030   5.276   4.791 -0.6452 -0.5318 -0.4517
14408TIP3   OH264714   0.605   0.443  10.916 -0.0363 -0.4356  0.0363
14408TIP3    H164715   0.528   0.449  10.972  0.6672  0.2841  0.9650
14408TIP3    H264716   0.588   0.504  10.845 -0.2091 -0.0689  0.3870
14409TIP3   OH264717   2.250   4.874  15.994 -0.6517 -0.7313 -0.0854
14409TIP3    H164718   2.301   4.943  15.951 -0.0762 -2.0607 -1.6774
14409TIP3    H264719   2.194   4.920  16.056  0.7139  1.0167 -0.0774
14410TIP3   OH264720   6.116   5.629  14.449 -0.2765 -0.2839 -0.3189
14410TIP3    H164721   6.140   5.666  14.534  1.2549  0.4785 -1.0568
14410TIP3    H264722   6.062   5.553  14.471  1.2900 -0.9701  1.3798
14411TIP3   OH264723   0.705   6.534   2.624  0.2204 -0.0532  0.4145
14411TIP3    H164724   0.732   6.443   2.629  1.2434  0.2242  0.1982
14411TIP3    H264725   0.764   6.580   2.684  0.6170  0.6463 -0.4711
14412TIP3   OH264726   1.932   3.412   3.345 -0.0729  0.1655 -0.2955
14412TIP3    H164727   1.960   3.434   3.434 -0.7441 -0.1659  0.0041
14412TIP3    H264728   1.837   3.410   3.350 -0.0765 -1.9694 -0.5006
14413TIP3   OH264729   3.100   4.933  12.337  0.1053  0.1199 -0.1112
14413TIP3    H164730   3.022   4.941  12.282 -0.2131  1.0299  0.4594
14413TIP3    H264731   3.101   4.841  12.364 -0.1048 -0.1778 -1.0827
14414TIP3   OH264732   2.268   2.526   4.037  0.0210  0.6625  0.0333
14414TIP3    H164733   2.316   2.608   4.030  0.9633  0.1437  0.2640
14414TIP3    H264734   2.241   2.506   3.947 -2.0162  2.2446  0.2221
14415TIP3   OH264735   5.092   1.783   1.415 -0.0432 -0.3688 -0.8675
14415TIP3    H164736   5.161   1.843   1.444  0.6773 -1.2289 -0.7480
14415TIP3    H264737   5.030   1.839   1.367 -0.7501  0.9288  1.3961
14416TIP3   OH264738   3.126   6.779  13.506 -0.6068  0.1687 -0.0274
14416TIP3    H164739   3.156   6.698  13.464  1.5297  0.0917  1.4734
14416TIP3    H264740   3.074   6.823  13.439  0.6228 -1.0651 -1.8990
14417TIP3   OH264741   5.873   2.550   1.717  0.0984 -0.2842 -0.6295
14417TIP3    H164742   5.934   2.544   1.791 -2.0669 -0.1495  1.3073
14417TIP3    H264743   5.801   2.603   1.751  0.2582  2.3068 -3.8257
14418TIP3   OH264744   5.263   0.458   5.022 -0.4456 -0.2014 -0.2416
14418TIP3    H164745   5.321   0.496   4.957  0.1273  0.8336  0.8509
14418TIP3    H264746   5.302   0.373   5.042  1.5838  1.0548  1.5316
14419TIP3   OH264747   5.438   0.264  12.106 -0.3187  0.2400 -0.5161
14419TIP3    H164748   5.351   0.243  12.074  0.1433 -2.1367 -0.3705
14419TIP3    H264749   5.424   0.302  12.192 -1.2525  1.3411 -1.1200
14420TIP3   OH264750   0.233   0.086  11.896  0.4203 -0.1610  0.0883
14420TIP3    H164751   0.307   0.111  11.840  1.2763 -0.0927  1.1974
14420TIP3    H264752   0.177   0.033  11.840  1.5790 -0.6397 -0.6643
14421TIP3   OH264753   3.736   2.869  13.853 -0.0974  0.5349  0.4706
14421TIP3    H164754   3.797   2.940  13.836 -0.9790  1.7647  2.1009
14421TIP3    H264755   3.715   2.833  13.767  2.3565  0.4953 -0.1846
14422TIP3   OH264756   2.891   2.319  14.272 -0.5616  0.0001  0.3642
14422TIP3    H164757   2.925   2.294  14.186 -1.5600 -0.0446 -0.0260
14422TIP3    H264758   2.874   2.236  14.316 -1.5537 -0.0037 -0.0049
14423TIP3   OH264759   5.795   4.829  16.945  0.2845  0.0433  0.6656
14423TIP3    H164760   5.757   4.811  17.032  1.9082 -1.1418  1.1753
14423TIP3    H264761   5.747   4.772  16.886 -0.1537  0.1158  0.9444
14424TIP3   OH264762   4.594   1.450  13.025  0.1882 -0.4664  0.4725
14424TIP3    H164763   4.688   1.470  13.024  0.3660 -1.2216 -1.1131
14424TIP3    H264764   4.557   1.512  13.088  1.5034  1.0539 -0.1833
14425TIP3   OH264765   1.801   2.649   6.000 -0.7689 -0.1810  0.2050
14425TIP3    H164766   1.887   2.618   6.027 -1.1735 -1.7021 -0.1513
14425TIP3    H264767   1.753   2.569   5.976 -1.6520  0.7737 -1.4204
14426TIP3   OH264768   0.414   5.948  15.999  0.3217  0.1839  0.2661
14426TIP3    H164769   0.501   5.915  16.021  0.3559 -0.0033 -0.1385
14426TIP3    H264770   0.426   6.042  15.989  1.2904 -0.1820 -3.3572
14427TIP3   OH264771   4.186   2.520  14.721 -0.2621 -0.2275 -0.5718
14427TIP3    H164772   4.128   2.535  14.646 -0.9502 -2.1481 -0.4625
14427TIP3    H264773   4.258   2.468  14.685  0.7758  1.0379 -0.4153
14428TIP3   OH264774   6.353   0.203  10.669  0.2091  0.3377  0.7597
14428TIP3    H164775   6.301   0.145  10.613  1.1008 -1.1593  1.3986
14428TIP3    H264776   6.345   0.164  10.757 -0.0241  1.8286  1.4341
14429TIP3   OH264777   3.494   4.240   1.472  0.0951  0.8297  0.4447
14429TIP3    H164778   3.539   4.187   1.538 -0.2783  1.6627  1.3834
14429TIP3    H264779   3.563   4.294   1.434  0.2095  0.7689  0.5645
14430TIP3   OH264780   1.221   0.597   1.195 -0.3730 -0.1149 -0.1156
14430TIP3    H164781   1.261   0.520   1.154  0.4864  0.1675  0.1540
14430TIP3    H264782   1.155   0.627   1.132  1.8239  1.1090 -1.9950
14431TIP3   OH264783   0.188   0.234   0.255 -0.2865  0.4156 -0.2189
14431TIP3    H164784   0.215   0.257   0.166 -0.8132 -1.3544 -0.8850
14431TIP3    H264785   0.104   0.278   0.267 -0.9271 -0.4975 -1.1758
14432TIP3   OH264786   2.197   5.304  12.745 -0.1636  0.0200  0.0799
14432TIP3    H164787   2.201   5.224  12.798  0.5215  0.6308  0.9714
14432TIP3    H264788   2.189   5.374  12.809  0.6145  0.7749 -0.6383
14433TIP3   OH264789   1.221   6.081  11.771 -0.1654 -0.0686  0.1075
14433TIP3    H164790   1.259   6.008  11.819  0.9839 -0.7393 -1.7260
14433TIP3    H264791   1.173   6.040  11.699 -0.2591  0.9465 -0.4281
14434TIP3   OH264792   2.923   4.745  16.867  0.4863  0.3035  0.0397
14434TIP3    H164793   2.965   4.830  16.856 -0.2005  0.4883 -1.3729
14434TIP3    H264794   2.913   4.736  16.962  0.5059  1.8200  0.2172
14435TIP3   OH264795   3.063   5.202  12.869 -0.5903  0.2162 -0.3138
14435TIP3    H164796   3.124   5.273  12.847 -0.7182  1.4027  2.7788
14435TIP3    H264797   3.097   5.126  12.821  3.4172  0.7927  1.2370
14436TIP3   OH264798   3.893   5.883  15.342 -0.3713  0.1447  0.3215
14436TIP3    H164799   3.842   5.962  15.362 -2.6633 -0.4108 -2.5135
14436TIP3    H264800   3.853   5.815  15.395  0.1002  0.4471  1.0763
14437TIP3   OH264801   2.203   6.469   1.984 -0.0908  0.1801  0.8168
14437TIP3    H164802   2.186   6.545   2.040 -0.7197  0.6439  0.0133
14437TIP3    H264803   2.180   6.499   1.896  0.9414 -0.5183  0.2916
14438TIP3   OH264804   2.143   6.528   3.270 -0.4123 -0.6464 -0.2980
14438TIP3    H164805   2.077   6.491   3.211 -0.2710 -0.8884 -0.3014
14438TIP3    H264806   2.108   6.615   3.292 -1.5547 -1.4042  1.0246
14439TIP3   OH264807   5.239   0.296  16.944 -0.1026 -0.1986  0.2864
14439TIP3    H164808   5.259   0.284  16.852 -0.1369  0.0511  0.2446
14439TIP3    H264809   5.147   0.325  16.945  0.1386  0.5918  0.3388
14440TIP3   OH264810   5.820   6.380   3.532 -0.7744 -0.2655 -0.3219
14440TIP3    H164811   5.901   6.366   3.484  1.6805 -0.4395  3.4201
14440TIP3    H264812   5.819   6.473   3.553 -1.4731 -0.2939 -0.1814
14441TIP3   OH264813   6.193   3.126   2.849 -0.4804 -0.1365 -0.1886
14441TIP3    H164814   6.277   3.148   2.890 -0.2434  1.6868 -1.5464
14441TIP3    H264815   6.160   3.053   2.902  2.3661 -1.5482 -0.1465
14442TIP3   OH264816   4.562   0.959   1.144 -0.1281  0.6370 -0.3951
14442TIP3    H164817   4.587   0.868   1.124 -0.9817  0.3992 -0.4259
14442TIP3    H264818   4.474   0.951   1.182 -0.1839  1.4503 -0.3531
14443TIP3   OH264819   3.819   5.369   5.664  0.0040  0.0536  0.5709
14443TIP3    H164820   3.897   5.376   5.720  0.1577  1.2031  0.2354
14443TIP3    H264821   3.788   5.459   5.656 -0.7354 -0.2634 -0.1885
14444TIP3   OH264822   5.950   6.445  14.741 -0.1605  0.4104 -0.0240
14444TIP3    H164823   5.970   6.372  14.799 -2.0539 -0.1304 -0.0139
14444TIP3    H264824   5.963   6.410  14.653  0.0981  0.4418 -0.0014
14445TIP3   OH264825   0.766   3.387   4.541 -0.5618 -0.0445  0.3079
14445TIP3    H164826   0.835   3.433   4.588 -1.0716  0.4505  0.5814
14445TIP3    H264827   0.707   3.457   4.512 -0.0211 -0.2806 -1.4712
14446TIP3   OH264828   6.387   6.380   4.670 -0.2489 -0.0403  0.5070
14446TIP3    H164829   6.355   6.292   4.691  0.1321 -0.2488  0.2232
14446TIP3    H264830   6.308   6.429   4.647 -0.5400 -0.1214  1.2942
14447TIP3   OH264831   4.062   3.189  16.366 -0.0170 -0.0655 -0.1002
14447TIP3    H164832   4.103   3.128  16.304 -0.9772 -0.8776  0.0384
14447TIP3    H264833   4.135   3.228  16.413  0.6609 -0.4960 -0.7681
14448TIP3   OH264834   1.797   5.271  16.250  0.1940  0.4044  0.9035
14448TIP3    H164835   1.824   5.206  16.186 -0.4239 -0.5813  1.6200
14448TIP3    H264836   1.877   5.320  16.270  0.5633  0.1813  0.0106
14449TIP3   OH264837   6.415   5.303   2.917 -0.9710 -0.4581  0.1699
14449TIP3    H164838   6.485   5.273   2.859 -0.5449  0.4181  0.2057
14449TIP3    H264839   6.338   5.305   2.861 -1.3501 -2.8637  0.4917
14450TIP3   OH264840   6.630   0.314   2.892  0.4399  0.3990 -0.4120
14450TIP3    H164841   6.574   0.305   2.969  1.1686 -3.0119 -0.1380
14450TIP3    H264842   6.574   0.354   2.825 -0.8380  1.4074  1.1902
14451TIP3   OH264843   0.032   0.868   2.126 -0.0308 -0.5737 -0.3780
14451TIP3    H164844   0.078   0.898   2.048  0.2360  1.2570  0.4388
14451TIP3    H264845   0.057   0.776   2.134 -0.4700 -0.9646 -2.6970
14452TIP3   OH264846   2.764   4.218  12.956 -0.1995 -0.6353 -0.3862
14452TIP3    H164847   2.791   4.134  12.918 -1.3902 -2.5358  2.5569
14452TIP3    H264848   2.675   4.202  12.988 -0.0221  1.3579  1.3084
14453TIP3   OH264849   3.182   2.694  10.922 -0.1088  0.2771 -0.3737
14453TIP3    H164850   3.223   2.769  10.964 -0.4795  1.3810 -1.9155
14453TIP3    H264851   3.124   2.731  10.856 -1.0965 -1.3415 -0.4766
14454TIP3   OH264852   3.882   4.768   0.294  0.1349 -0.4490 -0.3857
14454TIP3    H164853   3.941   4.751   0.221 -0.0862  0.4078 -0.7767
14454TIP3    H264854   3.840   4.684   0.312  0.2693 -0.6886 -1.1684
14455TIP3   OH264855   0.438   0.093   0.778 -0.0014 -0.2838  0.5176
14455TIP3    H164856   0.419   0.060   0.690 -0.0037 -1.2122  0.8503
14455TIP3    H264857   0.359   0.073   0.828  0.6032 -1.2668  1.1208
14456TIP3   OH264858   0.023   3.126   3.858  0.1395 -0.1919 -0.5033
14456TIP3    H164859   0.099   3.138   3.802  0.3820 -1.0686 -0.3764
14456TIP3    H264860  -0.051   3.120   3.797 -0.0732  2.1907 -0.5667
14457TIP3   OH264861   0.613   2.123   5.424  0.6468  0.3425 -0.1378
14457TIP3    H164862   0.598   2.074   5.344 -0.7527  2.0434 -0.9896
14457TIP3    H264863   0.537   2.103   5.479  0.7826  0.4351  0.0858
14458TIP3   OH264864   5.352   5.061  12.647 -0.6083 -1.0044 -0.4291
14458TIP3    H164865   5.309   5.085  12.729  0.6308  1.8101 -0.5142
14458TIP3    H264866   5.434   5.019  12.674  0.1093  0.5068 -0.1508
14459TIP3   OH264867   3.303   4.683   0.492 -0.0043 -0.3909 -0.2767
14459TIP3    H164868   3.309   4.683   0.587  0.8421  0.5986 -0.3135
14459TIP3    H264869   3.216   4.719   0.473  0.1125  0.1122  0.1252
14460TIP3   OH264870   1.514   6.304   3.977  0.1949 -0.0595 -0.7828
14460TIP3    H164871   1.581   6.236   3.969  1.0732  0.6434  0.2396
14460TIP3    H264872   1.464   6.299   3.896  0.7880 -1.3453 -1.0861
14461TIP3   OH264873   2.570   6.060   0.482 -0.3973 -0.0193 -0.6200
14461TIP3    H164874   2.546   6.029   0.569 -1.5473 -0.7495 -1.1662
14461TIP3    H264875   2.557   6.154   0.485  0.2163  0.0446  0.1875
14462TIP3   OH264876   3.989   1.896  15.086  0.3533  0.2530 -0.1707
14462TIP3    H164877   4.073   1.870  15.048  0.5085  0.2754  0.1577
14462TIP3    H264878   4.005   1.982  15.124  0.1069  0.3801 -0.3535
14463TIP3   OH264879   6.276   0.148   4.866  0.2755  0.1393 -0.2811
14463TIP3    H164880   6.211   0.218   4.865  1.8944  1.6800 -0.9586
14463TIP3    H264881   6.223   0.068   4.875 -1.7604  1.2635 -1.3343
14464TIP3   OH264882   6.170   4.516   5.197  0.5027  0.8917 -0.2465
14464TIP3    H164883   6.121   4.514   5.115 -0.9742 -2.2155  0.6047
14464TIP3    H264884   6.248   4.568   5.176 -0.2216  0.9126 -3.3524
14465TIP3   OH264885   3.545   5.884   1.550 -0.1572 -0.1963  0.2824
14465TIP3    H164886   3.588   5.944   1.611 -0.5978 -1.0221  1.4470
14465TIP3    H264887   3.579   5.908   1.464  1.2458  0.3580  0.9654
14466TIP3   OH264888   1.186   2.608   3.801 -0.2528 -0.3233 -0.2202
14466TIP3    H164889   1.273   2.571   3.816 -0.4423 -0.3963  0.7119
14466TIP3    H264890   1.199   2.666   3.726  0.9968  0.9919  0.9408
14467TIP3   OH264891   1.944   4.883  13.345 -0.2276 -0.1899  0.2040
14467TIP3    H164892   2.037   4.863  13.341 -0.2379 -0.9616  2.3876
14467TIP3    H264893   1.916   4.889  13.254  1.7749 -0.7616 -0.4856
14468TIP3   OH264894   4.844   0.229   1.264 -0.0437  0.2683  0.3902
14468TIP3    H164895   4.930   0.196   1.239 -0.7505 -1.0231 -0.4038
14468TIP3    H264896   4.859   0.274   1.347  1.5105  0.6477 -0.0602
14469TIP3   OH264897   0.108   4.334   4.253 -0.5099  0.0688  0.0498
14469TIP3    H164898   0.202   4.318   4.254 -0.5274 -0.0400  0.8760
14469TIP3    H264899   0.074   4.280   4.182  0.0118 -0.1231 -0.0545
14470TIP3   OH264900   4.364   2.762   1.595 -0.6217 -0.3132 -0.7724
14470TIP3    H164901   4.278   2.720   1.596 -0.5304 -0.5173  0.5736
14470TIP3    H264902   4.418   2.705   1.542 -1.2266 -0.3513 -1.3666
14471TIP3   OH264903   5.353   0.847  14.168  0.1554 -0.0904  0.3441
14471TIP3    H164904   5.366   0.942  14.177 -0.1418 -0.1591  1.6396
14471TIP3    H264905   5.338   0.834  14.074  1.9218  0.9264 -0.1471
14472TIP3   OH264906   0.939   1.569   0.394 -0.3164  0.1714 -0.2909
14472TIP3    H164907   0.893   1.649   0.369  1.0214  1.4005  1.0561
14472TIP3    H264908   0.869   1.505   0.409 -1.3857  0.9030 -1.8371
14473TIP3   OH264909   4.898   4.270  13.962  1.0129  0.2502 -0.0626
14473TIP3    H164910   4.804   4.284  13.973  1.1787  0.2902  1.6506
14473TIP3    H264911   4.925   4.335  13.897 -0.1192  0.3080 -0.4923
14474TIP3   OH264912   1.930   0.438   2.145  0.0212  0.2209  0.2811
14474TIP3    H164913   1.934   0.383   2.067 -1.0032 -0.2742  0.5696
14474TIP3    H264914   1.840   0.470   2.148  0.7927  2.6507 -0.3672
14475TIP3   OH264915   3.855   3.699   5.456  0.0705 -0.1568  0.7212
14475TIP3    H164916   3.826   3.684   5.366 -1.7186  1.0317  1.0492
14475TIP3    H264917   3.781   3.672   5.511  0.9157 -0.3415  1.8139
14476TIP3   OH264918   0.815   3.003   2.821 -0.4072  0.0814 -0.0324
14476TIP3    H164919   0.760   2.929   2.849  1.9911 -1.6703  0.3667
14476TIP3    H264920   0.905   2.972   2.833  0.7304  2.2233 -2.1505
14477TIP3   OH264921   4.296   5.668   1.587  0.3598  0.0229 -0.0718
14477TIP3    H164922   4.264   5.715   1.510  0.8212 -0.0429 -0.3072
14477TIP3    H264923   4.253   5.711   1.661  0.4131  0.5104 -0.3204
14478TIP3   OH264924   2.141   1.387  16.241  0.2768 -0.4052 -0.2467
14478TIP3    H164925   2.163   1.472  16.278  1.2934 -1.4188  1.6263
14478TIP3    H264926   2.050   1.396  16.212  0.2843  1.2141  0.1535
14479TIP3   OH264927   4.426   4.855   1.588  0.8573  0.3133  0.0581
14479TIP3    H164928   4.442   4.763   1.567 -0.1662  0.6147 -2.3596
14479TIP3    H264929   4.335   4.856   1.619  0.8499  0.5193  0.0247
14480TIP3   OH264930   3.909   4.471   1.862 -0.0965 -0.6844  0.1320
14480TIP3    H164931   3.932   4.459   1.769 -0.9545  0.0246 -0.1888
14480TIP3    H264932   3.845   4.542   1.861  1.7070  1.0771  1.5148
14481TIP3   OH264933   4.946   2.531   5.803 -0.4620 -0.0358  0.4496
14481TIP3    H164934   4.931   2.549   5.895  1.6087  1.7551  0.5142
14481TIP3    H264935   4.941   2.617   5.760 -0.0180 -0.6333 -0.8632
14482TIP3   OH264936   4.315   4.186  12.816  0.2114 -0.1738  0.0577
14482TIP3    H164937   4.389   4.205  12.757 -1.1975  1.9914 -1.1587
14482TIP3    H264938   4.276   4.107  12.781  1.2002 -0.6438 -0.0319
14483TIP3   OH264939   1.476   5.465   6.243  0.1627 -0.2525  0.4943
14483TIP3    H164940   1.386   5.463   6.275  0.0988  2.0633  0.6686
14483TIP3    H264941   1.516   5.537   6.292  1.0146  1.2230 -2.1709
14484TIP3   OH264942   6.206   1.366  16.396 -0.0431 -0.2707 -0.0425
14484TIP3    H164943   6.141   1.424  16.358 -0.7481 -0.6711  0.5154
14484TIP3    H264944   6.219   1.399  16.485  0.9778  0.1716 -0.3458
14485TIP3   OH264945   6.720   2.165  14.402 -0.0156  0.8477 -0.2892
14485TIP3    H164946   6.754   2.197  14.318 -1.8484 -0.2489 -1.5178
14485TIP3    H264947   6.757   2.225  14.467  0.5538  2.4240 -1.9832
14486TIP3   OH264948   6.216   3.421   0.022 -1.1782 -0.3944 -0.1739
14486TIP3    H164949   6.300   3.373   0.023 -1.6588 -1.2557  0.1424
14486TIP3    H264950   6.166   3.380  -0.048 -0.7076  1.2784 -1.5419
14487TIP3   OH264951   6.252   1.475   1.332 -0.2947  0.2753  0.1304
14487TIP3    H164952   6.166   1.497   1.368 -0.4561  1.8952 -1.1364
14487TIP3    H264953   6.254   1.518   1.246  1.3533 -0.6675 -0.3478
14488TIP3   OH264954   3.780   2.656   5.484 -0.7968  0.1877 -0.2147
14488TIP3    H164955   3.753   2.564   5.485 -0.6418  0.1368 -0.4797
14488TIP3    H264956   3.794   2.678   5.576  1.0836 -0.6250 -0.2743
14489TIP3   OH264957   4.913   1.798   3.220  0.3713  0.0022 -0.1793
14489TIP3    H164958   4.916   1.891   3.198 -1.6617  0.2171  0.2817
14489TIP3    H264959   4.968   1.790   3.298  2.1993  0.4173 -1.3671
14490TIP3   OH264960   1.674   0.296  13.530 -0.5254  0.0167 -0.1908
14490TIP3    H164961   1.732   0.334  13.464 -0.7956 -1.6398 -1.4496
14490TIP3    H264962   1.618   0.369  13.557 -0.5739  0.7038 -1.9880
14491TIP3   OH264963   6.704   6.222   1.493 -0.4389  0.2196  0.0279
14491TIP3    H164964   6.745   6.139   1.469  1.4545  0.7499  1.2359
14491TIP3    H264965   6.655   6.248   1.415 -0.0967 -1.4368 -0.7859
14492TIP3   OH264966   2.545   0.671  13.193  0.6197  0.1628 -0.0483
14492TIP3    H164967   2.505   0.609  13.254  1.7616  1.3607  1.9897
14492TIP3    H264968   2.627   0.696  13.233  1.8774  0.3671 -2.5298
14493TIP3   OH264969   1.066   4.027   1.825  0.5484  0.0333  0.1746
14493TIP3    H164970   1.034   4.040   1.915  0.6652 -2.1721  0.5829
14493TIP3    H264971   1.015   3.954   1.791  0.2565  1.0500 -1.7316
14494TIP3   OH264972   1.707   6.056   6.089 -0.6705 -0.1556  0.0471
14494TIP3    H164973   1.711   6.148   6.115  0.8655  0.3657 -1.8478
14494TIP3    H264974   1.705   6.008   6.172  0.1412  1.5276  1.0887
14495TIP3   OH264975   4.580   4.232   5.867 -0.1375  0.2028 -0.0590
14495TIP3    H164976   4.569   4.186   5.950  0.2183 -0.1666 -0.2122
14495TIP3    H264977   4.593   4.163   5.802  2.4747  0.5057  0.0155
14496TIP3   OH264978   5.104   4.227   1.773  0.1947  0.1793  0.0603
14496TIP3    H164979   5.128   4.319   1.764  1.6740 -0.1425  0.4642
14496TIP3    H264980   5.063   4.221   1.859  0.0750  0.4673  0.0244
14497TIP3   OH264981   5.057   0.306  11.569  0.3793  0.4417  0.5240
14497TIP3    H164982   5.059   0.231  11.629  1.6434  0.5184  0.6088
14497TIP3    H264983   5.108   0.373  11.614 -1.2417  1.6081  0.7329
14498TIP3   OH264984   3.585   2.593  13.190  0.3533 -0.0446 -0.0871
14498TIP3    H164985   3.579   2.685  13.216  0.1547  0.1085 -0.6506
14498TIP3    H264986   3.542   2.546  13.261 -2.0972  0.5390 -1.0661
14499TIP3   OH264987   1.939   2.903  16.441  0.6545 -0.4664  0.1967
14499TIP3    H164988   2.028   2.916  16.475  1.5340 -0.3898 -1.9813
14499TIP3    H264989   1.900   2.990  16.442  0.3856 -0.5799  1.6376
14500TIP3   OH264990   3.429   2.729   5.058 -0.2198  0.1873 -0.3152
14500TIP3    H164991   3.467   2.787   4.992  0.5602 -1.2933 -1.2301
14500TIP3    H264992   3.347   2.698   5.018  0.8414 -1.6573 -1.1749
14501TIP3   OH264993   3.467   4.164   2.090  0.1985  0.2322  0.0958
14501TIP3    H164994   3.507   4.204   2.168  1.5388  2.5937 -1.6438
14501TIP3    H264995   3.374   4.185   2.097  0.0462 -0.8795  1.7435
14502TIP3   OH264996   4.236   1.221  13.978  0.1040  0.3245 -0.3012
14502TIP3    H164997   4.156   1.202  13.930 -0.6811  0.9242  0.7354
14502TIP3    H264998   4.291   1.144  13.963 -0.1218  0.4512 -2.0758
14503TIP3   OH264999   2.984   6.030  11.993 -0.1337 -0.2519  0.4073
14503TIP3    H165000   3.036   5.983  12.058  0.1694  0.9278  1.0383
14503TIP3    H265001   3.036   6.026  11.913  0.3498 -0.1538  0.7140
14504TIP3   OH265002   1.639   3.192   0.379 -0.0814 -0.5848  0.2038
14504TIP3    H165003   1.689   3.117   0.411 -2.3793 -1.6252  1.5640
14504TIP3    H265004   1.598   3.160   0.299  0.0619 -0.2993  0.0163
14505TIP3   OH265005   4.596   5.053   2.561 -0.5573  0.6248  0.0629
14505TIP3    H165006   4.557   4.974   2.523 -0.8482  0.4847  0.6551
14505TIP3    H265007   4.642   5.094   2.487 -1.7364  0.7497 -0.6263
14506TIP3   OH265008   0.254   5.844   6.764 -0.2572  0.2333  0.2446
14506TIP3    H165009   0.316   5.835   6.837  0.8516  0.5592 -0.6164
14506TIP3    H265010   0.231   5.937   6.763  1.1901  0.6275 -0.9132
14507TIP3   OH265011   0.025   4.263  16.380  0.6081  0.5954 -0.3677
14507TIP3    H165012  -0.046   4.314  16.419 -0.4113 -1.2257  0.3154
14507TIP3    H265013   0.069   4.323  16.321 -0.2611  2.3480  0.6943
14508TIP3   OH265014   2.145   6.324  13.289 -0.2928 -0.2565 -0.0229
14508TIP3    H165015   2.156   6.391  13.356  1.9689  0.3686 -0.9270
14508TIP3    H265016   2.143   6.372  13.206  2.7987 -1.2569 -0.8159
14509TIP3   OH265017   0.564   3.015  11.852  0.0200 -0.1649  0.2639
14509TIP3    H165018   0.586   3.100  11.813 -0.1179  0.7299  2.0564
14509TIP3    H265019   0.507   2.974  11.787 -0.5922  1.4708 -0.2882
14510TIP3   OH265020   0.501   5.255  14.516 -0.5110  0.3329  0.3497
14510TIP3    H165021   0.511   5.245  14.421  2.4096  0.8396  0.5163
14510TIP3    H265022   0.460   5.173  14.544 -1.7207  0.2996 -1.3442
14511TIP3   OH265023   4.411   5.264   1.762 -0.2856 -0.0446 -0.1664
14511TIP3    H165024   4.321   5.231   1.753  0.2268 -1.5533 -0.0237
14511TIP3    H265025   4.460   5.218   1.694  0.3486  0.9346 -0.3832
14512TIP3   OH265026   1.852   3.965   1.717 -0.4531  0.2340  0.3863
14512TIP3    H165027   1.818   4.005   1.637 -0.8398  1.2435  1.0490
14512TIP3    H265028   1.928   4.018   1.740  1.1599 -1.5044 -0.6224
14513TIP3   OH265029   6.682   1.248  16.469 -0.1756  0.3404 -0.0668
14513TIP3    H165030   6.706   1.155  16.475  2.9164  1.0451  0.3375
14513TIP3    H265031   6.657   1.272  16.558 -0.1551  0.1086  0.0034
14514TIP3   OH265032   4.075   2.656  16.239 -0.0421  0.1081  0.1636
14514TIP3    H165033   4.107   2.595  16.306  2.1205  0.3826 -0.5573
14514TIP3    H265034   4.015   2.713  16.287 -0.1028 -0.9457  1.4200
14515TIP3   OH265035   3.645   4.874   3.392 -0.0603  0.4903 -0.2062
14515TIP3    H165036   3.713   4.809   3.374  0.1993  1.0581 -1.3435
14515TIP3    H265037   3.593   4.834   3.461  0.2700 -0.8084 -0.6666
14516TIP3   OH265038   6.470   0.372  16.927 -0.0877  0.1761  0.6447
14516TIP3    H165039   6.483   0.455  16.881  1.8967  0.6445  1.8881
14516TIP3    H265040   6.446   0.398  17.016  0.2593 -0.5866  0.9640
14517TIP3   OH265041   3.941   4.451  12.827  0.4936 -0.1435  0.6042
14517TIP3    H165042   4.008   4.393  12.791 -1.3540 -1.1649 -1.4223
14517TIP3    H265043   3.909   4.500  12.751  0.9622  2.5335  2.0123
14518TIP3   OH265044   3.220   1.244  14.293 -0.3651 -0.2951 -0.5493
14518TIP3    H165045   3.235   1.318  14.353 -1.4073 -2.3229  2.4403
14518TIP3    H265046   3.143   1.201  14.328  0.2170 -2.8349 -2.1776
14519TIP3   OH265047   1.689   3.800  13.910 -0.5287  0.4047 -0.0585
14519TIP3    H165048   1.603   3.762  13.897 -0.2695  0.0719 -0.8711
14519TIP3    H265049   1.700   3.804  14.005 -1.8026  1.3148  0.0699
14520TIP3   OH265050   1.840   4.838  13.757 -0.2830  0.0629 -0.3115
14520TIP3    H165051   1.813   4.899  13.827 -1.1405  1.2482 -1.6092
14520TIP3    H265052   1.866   4.895  13.685  1.9175 -1.1235 -0.5376
14521TIP3   OH265053   6.790   0.754  10.612  0.0913 -0.3313  0.9867
14521TIP3    H165054   6.884   0.739  10.610  0.4097  1.1744 -1.8796
14521TIP3    H265055   6.754   0.686  10.555 -0.0657  1.1402 -0.7639
14522TIP3   OH265056   6.365   6.673   3.835  0.0933 -0.0002 -0.5738
14522TIP3    H165057   6.327   6.696   3.920  2.0584  1.1272  0.0562
14522TIP3    H265058   6.338   6.583   3.820 -2.5771  0.6254 -0.0878
14523TIP3   OH265059   3.853   6.378   2.903 -0.0845  0.8228  0.2355
14523TIP3    H165060   3.905   6.442   2.854  2.1459  0.1839  1.5956
14523TIP3    H265061   3.762   6.406   2.891  0.4891  1.7860 -2.5945
14524TIP3   OH265062   6.309   1.937  14.941  0.1886  0.5626 -0.5749
14524TIP3    H165063   6.330   1.844  14.935  3.5381  1.1328  0.3819
14524TIP3    H265064   6.308   1.968  14.851  0.6487 -0.1134 -0.8128
14525TIP3   OH265065   3.911   6.699   4.008 -0.1746 -0.2349  0.3006
14525TIP3    H165066   3.987   6.733   4.056 -0.0889  0.2700 -0.1736
14525TIP3    H265067   3.885   6.772   3.952  0.7649 -1.3271 -1.6630
14526TIP3   OH265068   3.312   2.137  14.536 -0.2905  0.1395  0.1819
14526TIP3    H165069   3.406   2.129  14.549 -0.2208  2.3601  1.5655
14526TIP3    H265070   3.287   2.057  14.490  1.9472 -1.3910  1.4455
14527TIP3   OH265071   0.414   5.452  12.828 -0.1784 -0.2236 -0.0286
14527TIP3    H165072   0.363   5.452  12.747  0.1882 -1.6520 -0.2736
14527TIP3    H265073   0.497   5.492  12.804  0.7293 -2.5279 -0.9128
14528TIP3   OH265074   3.812   6.666  15.445  0.3897  0.2218 -0.4056
14528TIP3    H165075   3.787   6.645  15.535  0.0185  0.7455 -0.3887
14528TIP3    H265076   3.746   6.622  15.391  0.2647  0.4069 -0.4036
14529TIP3   OH265077   2.239   4.649  14.655 -0.1353 -0.6241 -0.1228
14529TIP3    H165078   2.185   4.570  14.652  0.0529 -0.7128 -1.7693
14529TIP3    H265079   2.320   4.621  14.698  0.1811 -1.4925 -1.2659
14530TIP3   OH265080   4.020   0.375  12.137 -0.2783 -0.1271 -0.7886
14530TIP3    H165081   4.061   0.349  12.054  1.9615 -0.8487  0.4557
14530TIP3    H265082   4.093   0.385  12.198 -1.5980  3.0919  0.4708
14531TIP3   OH265083   6.755   6.797  15.303  0.3059  0.3571  0.0616
14531TIP3    H165084   6.728   6.765  15.389  0.8901  3.8451  1.7346
14531TIP3    H265085   6.678   6.784  15.247 -0.1733 -1.7711  1.1123
14532TIP3   OH265086   0.937   4.470   3.978  0.0998  0.3374  0.1185
14532TIP3    H165087   0.964   4.558   4.005 -0.5579  0.1560  1.4154
14532TIP3    H265088   0.886   4.484   3.898 -0.4409  1.1812  0.6050
14533TIP3   OH265089   4.259   3.566  12.899  0.5682 -0.2285  0.2506
14533TIP3    H165090   4.197   3.633  12.870  0.6604  0.0786  0.7566
14533TIP3    H265091   4.243   3.492  12.840 -1.3955 -0.7545  1.3336
14534TIP3   OH265092   1.766   2.171  15.199 -0.0265 -0.2655  0.3304
14534TIP3    H165093   1.838   2.200  15.143 -1.5802  1.2305 -1.0059
14534TIP3    H265094   1.713   2.249  15.211 -1.2314 -1.2437  1.6171
14535TIP3   OH265095   3.848   0.811  15.076 -0.1054  0.0206 -0.4282
14535TIP3    H165096   3.836   0.743  15.141  0.6285  0.3010  0.0180
14535TIP3    H265097   3.918   0.866  15.111 -1.9343  2.1358  0.1555
14536TIP3   OH265098   0.597   3.021  15.013  0.8550 -0.3368 -0.1925
14536TIP3    H165099   0.585   2.927  15.019  1.7708 -0.3675  1.6207
14536TIP3    H265100   0.541   3.057  15.082  2.4140  0.2460  0.8178
14537TIP3   OH265101   3.394   1.974   4.616  0.6668 -0.2562  0.3786
14537TIP3    H165102   3.351   1.934   4.540 -0.3661  0.3022  0.6474
14537TIP3    H265103   3.430   2.056   4.582 -1.3511  0.8836  0.8346
14538TIP3   OH265104   1.788   5.682   2.643  0.0105 -0.0938  0.0030
14538TIP3    H165105   1.729   5.619   2.601  0.1708 -0.9111  0.9717
14538TIP3    H265106   1.745   5.704   2.726  1.8040 -2.0579  1.5810
14539TIP3   OH265107   6.815   0.999   3.454  0.2545 -0.3098  0.4936
14539TIP3    H165108   6.766   0.926   3.417  1.5803 -1.0059  0.0563
14539TIP3    H265109   6.884   0.958   3.507  0.7858  0.6205  0.5560
14540TIP3   OH265110   3.693   5.571  12.608  0.4879  0.2266  0.0417
14540TIP3    H165111   3.627   5.555  12.676  1.5599 -0.0712  1.0528
14540TIP3    H265112   3.777   5.567  12.655  1.1574  2.6707 -0.8122
14541TIP3   OH265113   4.273   2.151  16.294  0.5370 -0.2326  0.5723
14541TIP3    H165114   4.270   2.162  16.389  1.6140  0.9042  0.5096
14541TIP3    H265115   4.303   2.061  16.281 -1.3281 -1.0009  1.2594
14542TIP3   OH265116   2.827   6.303   3.193 -0.9193  0.3047 -0.2008
14542TIP3    H165117   2.862   6.318   3.105 -1.3784  0.6224 -0.3303
14542TIP3    H265118   2.744   6.258   3.179 -0.6119 -0.3924  0.1061
14543TIP3   OH265119   0.832   3.274   5.701  0.2698  0.0939  0.6558
14543TIP3    H165120   0.746   3.315   5.709  0.4431  0.5250  0.3928
14543TIP3    H265121   0.879   3.331   5.639  1.3209  0.8487  2.0859
14544TIP3   OH265122   3.153   2.064  13.988 -0.3128  0.0876 -0.8703
14544TIP3    H165123   3.211   2.000  14.031 -0.6961  0.7807  0.7649
14544TIP3    H265124   3.081   2.011  13.954 -1.5409 -0.2689  2.0212
14545TIP3   OH265125   2.219   4.710  13.168  0.0288 -0.1212  0.2709
14545TIP3    H165126   2.208   4.707  13.073 -1.3306  1.3985  0.3460
14545TIP3    H265127   2.188   4.625  13.198  1.5506 -1.0876 -0.6868
14546TIP3   OH265128   6.770   5.053   4.117 -0.0920  0.4740 -0.1665
14546TIP3    H165129   6.709   5.105   4.170  1.1521  0.9217  0.8999
14546TIP3    H265130   6.714   4.991   4.070 -1.2920  0.1017  1.6346
14547TIP3   OH265131   0.172   0.765  12.415 -0.7749  0.2090 -0.0454
14547TIP3    H165132   0.110   0.814  12.470 -0.3134  1.6974 -0.7958
14547TIP3    H265133   0.174   0.813  12.333  1.6418  0.4344  0.0821
14548TIP3   OH265134   4.639   4.472  13.753  0.1376 -0.2075  0.4560
14548TIP3    H165135   4.561   4.419  13.734 -0.9127  1.1309  0.8236
14548TIP3    H265136   4.665   4.446  13.841  0.1497 -0.7151  0.3034
14549TIP3   OH265137   0.929   2.818  13.937  0.3140  0.1293 -0.5144
14549TIP3    H165138   0.873   2.794  13.864 -0.2917 -0.4910  0.1404
14549TIP3    H265139   0.989   2.744  13.946 -2.2600 -1.8550  2.2131
14550TIP3   OH265140   3.989   2.195  14.874 -0.7994  0.1365  0.2645
14550TIP3    H165141   3.993   2.166  14.965 -1.3763 -3.2789 -0.6766
14550TIP3    H265142   4.067   2.158  14.833 -2.3417 -1.4870 -1.3532
14551TIP3   OH265143   5.907   0.136   6.452 -0.5414  0.2699  0.5038
14551TIP3    H165144   5.825   0.088   6.437 -0.0881 -0.4103  0.1586
14551TIP3    H265145   5.975   0.080   6.414  0.1519  0.5660  1.2695
14552TIP3   OH265146   5.469   0.759   2.040 -0.9364 -0.1336 -0.0519
14552TIP3    H165147   5.450   0.848   2.069 -2.8258 -0.5480  0.1334
14552TIP3    H265148   5.386   0.727   2.006 -0.0562 -1.5094 -1.0198
14553TIP3   OH265149   3.732   2.685   5.746  0.6228  0.0715 -0.2706
14553TIP3    H165150   3.756   2.595   5.768  1.1264  0.5647  1.3350
14553TIP3    H265151   3.646   2.678   5.704  1.6031 -1.3326 -2.2396
14554TIP3   OH265152   1.850   3.871   0.962 -0.3844  0.2310  0.2756
14554TIP3    H165153   1.768   3.918   0.968 -0.0089  0.6760  2.5467
14554TIP3    H265154   1.847   3.806   1.032  0.5315 -0.8714 -0.6495
14555TIP3   OH265155   5.487   3.736   4.852 -0.2791  0.3524  0.4433
14555TIP3    H165156   5.579   3.738   4.827 -0.1500  1.8024  0.9178
14555TIP3    H265157   5.469   3.644   4.873  1.0532  0.0603  0.3598
14556TIP3   OH265158   5.608   3.542  14.263 -0.3925 -0.1846  0.5717
14556TIP3    H165159   5.659   3.471  14.301 -2.0702 -0.8863  1.6453
14556TIP3    H265160   5.604   3.608  14.333 -1.2946 -0.3371  0.6735
14557TIP3   OH265161   5.964   5.939   2.762 -0.8849 -0.4986 -0.0866
14557TIP3    H165162   5.880   5.969   2.728 -0.2856  2.3731  0.7124
14557TIP3    H265163   6.019   5.926   2.685 -0.5793  2.6310 -0.5222
14558TIP3   OH265164   4.040   3.540  14.250  0.3899 -0.7298  0.3693
14558TIP3    H165165   4.066   3.449  14.260 -1.5454 -1.2305  1.4222
14558TIP3    H265166   3.963   3.549  14.307 -1.9139  0.4913 -2.6732
14559TIP3   OH265167   1.166   5.650  15.545 -0.4949 -0.1777 -0.2179
14559TIP3    H165168   1.100   5.597  15.500  0.2390 -0.3019 -1.1693
14559TIP3    H265169   1.177   5.728  15.490  1.1322 -0.7912 -0.8256
14560TIP3   OH265170   3.981   2.627  12.388  0.1254 -0.6701  0.1121
14560TIP3    H165171   3.962   2.671  12.471  2.0663  0.7177 -0.1224
14560TIP3    H265172   3.917   2.556  12.384 -1.4917  0.6025  1.7034
14561TIP3   OH265173   4.261   5.889   2.849  0.3948  0.4832  0.1683
14561TIP3    H165174   4.273   5.810   2.901  1.1372  1.3431  1.3649
14561TIP3    H265175   4.170   5.916   2.866  0.0667 -0.2246 -0.4314
14562TIP3   OH265176   5.916   6.463  16.515  0.0128  0.2880 -0.1044
14562TIP3    H165177   5.860   6.403  16.565 -0.3577  0.7827  0.0753
14562TIP3    H265178   5.973   6.504  16.580 -1.1712  1.7099  0.0830
14563TIP3   OH265179   2.271   6.237   0.280  0.5251  0.4949 -0.6870
14563TIP3    H165180   2.261   6.181   0.357  1.8702 -2.2084 -2.3018
14563TIP3    H265181   2.208   6.202   0.217  1.2353  0.9855 -1.6870
14564TIP3   OH265182   1.267   3.361   5.374  0.4049 -0.0406  0.5975
14564TIP3    H165183   1.188   3.365   5.321  1.0476  3.2164 -0.3415
14564TIP3    H265184   1.236   3.342   5.462 -1.2056 -0.6886 -0.0730
14565TIP3   OH265185   6.544   2.187   4.018 -0.0130 -0.1510  0.1170
14565TIP3    H165186   6.571   2.178   3.927 -1.0944  0.6231 -0.2918
14565TIP3    H265187   6.594   2.120   4.064  0.2998 -0.7753 -1.0913
14566TIP3   OH265188   3.492   2.060   3.312  0.1479  0.7757 -0.7351
14566TIP3    H165189   3.585   2.076   3.327  0.1562  0.6627 -0.6652
14566TIP3    H265190   3.460   2.142   3.275  0.0884  1.1335  0.0862
14567TIP3   OH265191   5.724   0.719  11.525 -0.2465 -1.3557  0.2874
14567TIP3    H165192   5.813   0.746  11.502 -0.7450 -0.9094 -1.2475
14567TIP3    H265193   5.693   0.789  11.582 -0.7169  0.2578 -1.8129
14568TIP3   OH265194   1.125   4.926   0.510 -0.1041 -0.1150  0.2243
14568TIP3    H165195   1.181   4.996   0.478 -1.7934  2.1620  1.9090
14568TIP3    H265196   1.160   4.906   0.598 -1.0302  0.2980  0.6955
14569TIP3   OH265197   3.387   4.457   1.621  0.5252  0.0493  0.2501
14569TIP3    H165198   3.389   4.434   1.713 -2.6050 -0.6818  0.2512
14569TIP3    H265199   3.393   4.374   1.575 -2.6145 -0.1583  0.0227
14570TIP3   OH265200   4.650   5.226  13.878 -0.1783  0.2532 -0.5265
14570TIP3    H165201   4.602   5.284  13.937 -0.0679 -0.5541  0.4083
14570TIP3    H265202   4.620   5.249  13.791 -1.0245  0.8918 -0.0842
14571TIP3   OH265203   5.815   5.822  12.926 -0.1414 -0.0554  0.1022
14571TIP3    H165204   5.840   5.855  12.840 -1.6035 -0.0859 -0.3628
14571TIP3    H265205   5.736   5.871  12.949  0.3629  0.1258  1.5499
14572TIP3   OH265206   1.627   1.296   3.264 -0.7540 -0.6319 -0.3370
14572TIP3    H165207   1.627   1.227   3.330 -1.1687 -0.8694 -0.5864
14572TIP3    H265208   1.592   1.255   3.185 -0.6729 -0.2329 -0.5852
14573TIP3   OH265209   2.172   4.604  15.246 -0.1330  0.0569  0.0424
14573TIP3    H165210   2.105   4.537  15.263  0.0200 -1.0276 -3.0139
14573TIP3    H265211   2.253   4.565  15.278 -0.0432 -1.2968 -1.7284
14574TIP3   OH265212   5.834   5.756   2.485  0.0979 -0.2599 -1.2155
14574TIP3    H165213   5.796   5.679   2.441 -1.5480  0.9058 -1.9402
14574TIP3    H265214   5.791   5.830   2.443 -0.7025  0.9776  1.6123
14575TIP3   OH265215   1.797   3.347  14.988 -0.0611 -0.3217 -0.0611
14575TIP3    H165216   1.756   3.334  15.073  0.2353  0.3827  0.1976
14575TIP3    H265217   1.807   3.442  14.980 -0.6206 -0.3341 -1.1432
14576TIP3   OH265218   0.451   5.017  14.304 -0.1366  0.1888 -0.4555
14576TIP3    H165219   0.381   5.019  14.369  0.7186  0.0578  0.4991
14576TIP3    H265220   0.458   4.925  14.279  1.1630 -0.2070  1.1451
14577TIP3   OH265221   0.527   4.845  15.107  0.0644 -0.3481  0.3529
14577TIP3    H165222   0.471   4.794  15.165 -1.3246  1.2828  0.5279
14577TIP3    H265223   0.469   4.876  15.038  1.0638  0.2244 -0.2554
14578TIP3   OH265224   5.572   3.387  12.707  0.0500  0.4032 -0.2864
14578TIP3    H165225   5.508   3.323  12.675  0.3894  1.5111 -3.6257
14578TIP3    H265226   5.655   3.339  12.706 -0.1740 -0.0370  0.6498
14579TIP3   OH265227   4.318   0.321   5.145 -0.1942 -0.3603  0.0174
14579TIP3    H165228   4.259   0.315   5.220 -2.9958 -1.1623 -2.1048
14579TIP3    H265229   4.396   0.272   5.172 -1.4459 -1.3333  2.0956
14580TIP3   OH265230   0.272   0.013   1.976 -0.0610  0.8862  0.7927
14580TIP3    H165231   0.269  -0.047   2.051  0.5278  0.1846  0.2631
14580TIP3    H265232   0.226   0.092   2.007 -0.8710  0.1649  1.4919
14581TIP3   OH265233   2.116   5.084   4.070  0.3077  0.5105  0.0536
14581TIP3    H165234   2.166   5.149   4.120  0.5102  0.7271 -0.4198
14581TIP3    H265235   2.040   5.065   4.124  0.6737  0.5208  0.5776
14582TIP3   OH265236   3.245   1.690   5.286  0.0286 -0.1112 -0.3503
14582TIP3    H165237   3.244   1.651   5.199  0.8578 -0.0079 -0.4131
14582TIP3    H265238   3.156   1.721   5.300  0.1995  1.1245 -1.7454
14583TIP3   OH265239   0.921   1.874   1.724  1.0513  0.3882  0.0237
14583TIP3    H165240   0.833   1.849   1.752  1.3246  0.9044  1.4339
14583TIP3    H265241   0.964   1.791   1.704  0.1579  0.1540 -0.9737
14584TIP3   OH265242   2.528   3.015  12.072  0.0803  0.1265  0.1321
14584TIP3    H165243   2.499   3.026  12.163  0.1565  0.2278  0.1447
14584TIP3    H265244   2.614   2.973  12.079  1.0339  1.9971  0.1967
14585TIP3   OH265245   1.052   0.813   5.141  0.2015 -0.1315  0.1560
14585TIP3    H165246   1.042   0.827   5.235 -1.1791 -1.2024  0.2022
14585TIP3    H265247   1.002   0.885   5.101 -2.0010 -1.4605  0.3270
14586TIP3   OH265248   5.405   3.927  10.562  0.1274  0.4963  0.8722
14586TIP3    H165249   5.351   3.970  10.628 -0.8777  1.2799 -0.4134
14586TIP3    H265250   5.389   3.834  10.574  0.6757  0.5558  2.3042
14587TIP3   OH265251   4.945   2.893  17.116  0.2537  0.0239 -0.7508
14587TIP3    H165252   4.871   2.937  17.159 -0.7641 -1.1303 -1.2541
14587TIP3    H265253   4.935   2.914  17.023  0.5049 -0.2289 -0.8344
14588TIP3   OH265254   0.376   0.523  11.024 -0.5143 -0.1152  0.0612
14588TIP3    H165255   0.376   0.452  11.089  1.5016 -1.5692 -1.4133
14588TIP3    H265256   0.306   0.499  10.964 -0.8023 -0.0467  0.3629
14589TIP3   OH265257   1.097   6.663  15.667 -0.5581 -0.4782 -0.6469
14589TIP3    H165258   1.191   6.675  15.675 -0.4711 -0.0663 -2.0027
14589TIP3    H265259   1.072   6.612  15.744  0.4524  1.0692  0.7740
14590TIP3   OH265260   0.020   2.481  11.770 -0.2955 -0.1551  0.0231
14590TIP3    H165261   0.089   2.428  11.729 -0.8949  0.1887 -1.4869
14590TIP3    H265262   0.060   2.513  11.851  0.8573 -1.0495 -0.1656
14591TIP3   OH265263   1.105   6.830  14.053  0.0530  0.5790  0.4900
14591TIP3    H165264   1.189   6.795  14.025 -0.8940 -1.6903  0.2644
14591TIP3    H265265   1.084   6.896  13.987  1.1544  0.3903 -0.0706
14592TIP3   OH265266   6.738   5.202   0.599 -0.5070 -0.4336 -0.1158
14592TIP3    H165267   6.669   5.199   0.666 -2.1773  0.5602 -1.6757
14592TIP3    H265268   6.730   5.118   0.553 -0.2990 -0.5416  0.0429
14593TIP3   OH265269   4.942   3.773   5.899  0.3456  0.6017  0.3313
14593TIP3    H165270   4.880   3.825   5.951  1.4474 -0.6974  3.1658
14593TIP3    H265271   5.028   3.809   5.922  0.8628  0.0879 -0.7571
14594TIP3   OH265272   3.318   3.418   1.876  0.3684  0.1510  0.6208
14594TIP3    H165273   3.233   3.427   1.834  0.1152  0.9201  1.2779
14594TIP3    H265274   3.335   3.504   1.915  1.1032 -0.2142  1.1354
14595TIP3   OH265275   0.841   0.350   3.321 -0.1635 -0.0264 -0.0951
14595TIP3    H165276   0.788   0.405   3.379  0.7734  0.7173  0.0836
14595TIP3    H265277   0.932   0.367   3.347  0.2240 -0.4577 -1.0946
14596TIP3   OH265278   5.600   0.084  11.600  0.4482  0.2923 -0.5957
14596TIP3    H165279   5.605   0.028  11.677  2.3494  1.2580  0.0564
14596TIP3    H265280   5.606   0.024  11.526 -0.8706 -0.6055 -0.0014
14597TIP3   OH265281   0.987   1.567   5.630 -0.1126 -0.0922 -0.1984
14597TIP3    H165282   1.067   1.542   5.584  0.6684  1.1976  0.4201
14597TIP3    H265283   0.938   1.618   5.566  0.6288  1.0645  0.1371
14598TIP3   OH265284   0.025   6.422   1.319 -0.0500  0.1513  0.2211
14598TIP3    H165285  -0.069   6.435   1.306  0.4091  0.6677 -4.0738
14598TIP3    H265286   0.034   6.331   1.347 -1.8353  0.5454  2.3084
14599TIP3   OH265287   5.541   6.442  12.575  0.5949  0.4729 -0.4791
14599TIP3    H165288   5.551   6.513  12.639  0.5312 -0.2565  0.3556
14599TIP3    H265289   5.625   6.437  12.531  1.2993 -0.2598  0.8713
14600TIP3   OH265290   5.457   1.641  13.097  0.1708 -0.1988 -0.3034
14600TIP3    H165291   5.497   1.560  13.129  0.5377  0.3076  0.5552
14600TIP3    H265292   5.483   1.707  13.161  1.7853  1.0854 -2.1677
14601TIP3   OH265293   0.222   0.492   0.593 -0.8613  0.1737  0.2706
14601TIP3    H165294   0.155   0.423   0.588  0.0524 -0.6706 -0.6990
14601TIP3    H265295   0.218   0.522   0.684 -1.0050 -1.4462  0.8368
14602TIP3   OH265296   2.391   5.033   3.387 -0.0889 -0.2225 -0.3923
14602TIP3    H165297   2.460   4.974   3.417  0.3938  0.7935  0.5418
14602TIP3    H265298   2.319   5.019   3.449  0.3560  0.8003  0.3681
14603TIP3   OH265299   0.092   4.134   4.452 -0.5242 -0.0301  0.0588
14603TIP3    H165300   0.100   4.206   4.389  0.2515 -0.7168 -0.6655
14603TIP3    H265301   0.154   4.156   4.522 -1.6506  0.9171  0.7971
14604TIP3   OH265302   5.093   0.893  14.350 -0.5528 -0.1040  0.7757
14604TIP3    H165303   5.157   0.865  14.285 -1.1477  1.3179 -0.4815
14604TIP3    H265304   5.144   0.911  14.429  0.4756  0.0997  0.0725
14605TIP3   OH265305   0.418   1.953   2.010  0.2165 -0.1004 -0.2179
14605TIP3    H165306   0.374   1.940   2.094 -1.0184 -0.8043 -0.9364
14605TIP3    H265307   0.359   1.914   1.946  0.2950  1.9030 -1.6242
14606TIP3   OH265308   3.561   3.878  16.042  0.1411 -0.3415 -0.5302
14606TIP3    H165309   3.638   3.830  16.010 -0.0632 -0.9771 -0.0813
14606TIP3    H265310   3.598   3.950  16.093  0.4478 -1.0121  0.2197
14607TIP3   OH265311   1.187   4.473   0.276 -0.1446  0.2545  0.0526
14607TIP3    H165312   1.176   4.506   0.366 -0.7509  1.0222 -0.2938
14607TIP3    H265313   1.280   4.487   0.257 -0.5701  2.9299 -0.4995
14608TIP3   OH265314   0.960   3.695   5.342 -0.5442  0.1323  0.5248
14608TIP3    H165315   1.018   3.764   5.373 -0.2664  0.2251 -0.1938
14608TIP3    H265316   0.912   3.734   5.269 -0.3557 -0.4496  0.0848
14609TIP3   OH265317   1.221   0.848  15.921  0.2313  0.6531  0.0864
14609TIP3    H165318   1.210   0.757  15.895  0.3633  0.0339  1.9957
14609TIP3    H265319   1.132   0.884  15.921  0.3507  1.1153 -2.4502
14610TIP3   OH265320   3.893   0.570   5.280  0.4424  0.4870 -0.3835
14610TIP3    H165321   3.844   0.652   5.287 -2.2931 -1.0679  0.4345
14610TIP3    H265322   3.915   0.548   5.370 -1.4678 -1.0374 -0.2165
14611TIP3   OH265323   2.262   1.305  12.696  0.0471 -0.1095  0.4860
14611TIP3    H165324   2.328   1.367  12.729  1.9234 -1.6679 -0.1487
14611TIP3    H265325   2.269   1.312  12.601 -0.4269 -0.5771  0.4140
14612TIP3   OH265326   1.150   1.456   2.246 -0.1923 -0.3381 -0.0040
14612TIP3    H165327   1.240   1.423   2.246  0.1164  0.4095 -1.6213
14612TIP3    H265328   1.099   1.383   2.281  0.8100 -1.5447 -0.9077
14613TIP3   OH265329   4.794   4.389   4.888  0.2062  0.0227 -0.0732
14613TIP3    H165330   4.827   4.354   4.806  0.4872 -0.6689  0.3282
14613TIP3    H265331   4.758   4.313   4.934  0.4811  0.3228  0.6526
14614TIP3   OH265332   4.798   2.429   3.369 -0.3670 -0.3590 -0.2853
14614TIP3    H165333   4.877   2.374   3.372 -1.1195 -1.4805 -0.5621
14614TIP3    H265334   4.793   2.467   3.457 -1.3334 -2.9536  0.8933
14615TIP3   OH265335   4.032   0.081   3.302  0.0938  0.6676 -0.1784
14615TIP3    H165336   4.055   0.049   3.214  1.0773  1.2140 -0.1289
14615TIP3    H265337   3.937   0.093   3.298  0.0605  0.2280 -1.0195
14616TIP3   OH265338   4.398   2.165  15.959  0.4688 -0.3326 -0.1232
14616TIP3    H165339   4.313   2.124  15.974 -0.2266  1.3354  0.6536
14616TIP3    H265340   4.445   2.155  16.041  0.3873  0.2025 -0.0092
14617TIP3   OH265341   1.303   3.736   6.234  0.0511  0.5008  0.1722
14617TIP3    H165342   1.253   3.818   6.231  0.2769  0.6254 -0.3892
14617TIP3    H265343   1.280   3.697   6.318 -0.9830  0.5657 -0.0716
14618TIP3   OH265344   1.218   2.778  15.515  0.0848  0.2951  0.2355
14618TIP3    H165345   1.241   2.762  15.424  0.3371  0.0317  0.3466
14618TIP3    H265346   1.267   2.856  15.540  0.2334  0.2032  0.2294
14619TIP3   OH265347   0.406   1.349  11.763  0.0432 -0.1105  0.4274
14619TIP3    H165348   0.485   1.333  11.710 -0.0011  0.8754  0.0427
14619TIP3    H265349   0.414   1.440  11.790 -1.1562  0.1194  0.0593
14620TIP3   OH265350   4.568   1.344   4.763  0.3692  0.4434  0.2149
14620TIP3    H165351   4.652   1.371   4.799 -0.9618  0.5475  3.5500
14620TIP3    H265352   4.528   1.425   4.731  0.2936  0.9459  1.5213
14621TIP3   OH265353   2.134   4.752   4.713 -0.4541  0.7343  0.1709
14621TIP3    H165354   2.191   4.702   4.772  0.4542 -0.5675 -1.6990
14621TIP3    H265355   2.144   4.843   4.741  0.7218  0.2685  1.3599
14622TIP3   OH265356   0.456   2.714  12.589  0.2368 -0.1026  0.2977
14622TIP3    H165357   0.548   2.710  12.562 -0.0747 -2.2678 -0.7092
14622TIP3    H265358   0.460   2.717  12.685  1.3616  0.4444  0.2495
14623TIP3   OH265359   0.277   6.009   2.731  0.3187 -0.2650  0.2343
14623TIP3    H165360   0.191   5.981   2.762  0.2580 -0.1802  0.1405
14623TIP3    H265361   0.333   5.932   2.745  0.1042 -0.5128 -0.2276
14624TIP3   OH265362   0.154   5.781  16.618 -0.0752  0.0386 -0.2043
14624TIP3    H165363   0.124   5.859  16.664 -1.2530 -1.1391  1.1130
14624TIP3    H265364   0.086   5.716  16.633  0.6213 -1.1224 -1.6935
14625TIP3   OH265365   4.579   1.856  12.757  0.0570  0.5913 -0.2696
14625TIP3    H165366   4.655   1.888  12.805  1.0510 -1.2515 -0.5131
14625TIP3    H265367   4.538   1.793  12.816 -1.7999  2.1286  0.1717
14626TIP3   OH265368   2.268   1.420  11.644  0.3626  0.7640 -0.0059
14626TIP3    H165369   2.346   1.458  11.684  1.0739 -1.7915  1.2750
14626TIP3    H265370   2.294   1.402  11.554  1.1700  0.2699  0.3107
14627TIP3   OH265371   6.283   5.622  10.855 -0.2866 -0.5678 -0.2944
14627TIP3    H165372   6.289   5.531  10.885 -2.3982 -0.4087  0.8149
14627TIP3    H265373   6.203   5.656  10.897 -0.2209  1.4375 -1.6486
14628TIP3   OH265374   1.737   3.081  13.357 -0.5177  0.0419  0.0351
14628TIP3    H165375   1.655   3.034  13.373 -0.0806 -0.9955 -0.6579
14628TIP3    H265376   1.793   3.058  13.432  0.1543 -1.6617 -0.9263
14629TIP3   OH265377   6.149   1.201   0.063 -0.1129 -0.8059 -0.0456
14629TIP3    H165378   6.111   1.149  -0.008 -1.6861  0.5560 -0.2681
14629TIP3    H265379   6.095   1.181   0.139  0.3691 -0.8225  0.2925
14630TIP3   OH265380   2.076   2.385  14.055  0.6543 -0.1205 -0.2288
14630TIP3    H165381   2.122   2.330  14.118  0.1884 -0.3933 -0.1180
14630TIP3    H265382   2.062   2.468  14.100 -0.2286 -0.5183  0.2737
14631TIP3   OH265383   3.137   3.515  16.146 -0.4274 -0.4634 -0.1643
14631TIP3    H165384   3.106   3.599  16.180  2.4048 -0.0115  1.6297
14631TIP3    H265385   3.181   3.538  16.064  2.1252  0.3033  1.2841
14632TIP3   OH265386   3.473   4.968  13.533  0.4536  0.1085 -0.3384
14632TIP3    H165387   3.382   4.954  13.560  0.4527 -0.1153 -0.4559
14632TIP3    H265388   3.501   4.884  13.497  0.2765  0.5248 -1.5260
14633TIP3   OH265389   1.610   1.782   4.394  0.1426  0.1741  0.3486
14633TIP3    H165390   1.641   1.731   4.469  0.8480 -0.7067 -0.5180
14633TIP3    H265391   1.685   1.835   4.368 -0.3106  0.9862  0.6829
14634TIP3   OH265392   1.371   0.376  16.304 -0.7695  1.0449  0.1231
14634TIP3    H165393   1.466   0.379  16.317 -0.8792  0.7811  1.1092
14634TIP3    H265394   1.338   0.455  16.346 -1.0927  0.4751  0.9737
14635TIP3   OH265395   0.484   5.033   1.161  0.2172  0.1284 -0.3534
14635TIP3    H165396   0.429   5.042   1.239  0.3128 -0.1366 -0.2558
14635TIP3    H265397   0.447   5.096   1.099 -1.1599 -1.1189 -0.8479
14636TIP3   OH265398   5.747   1.354  12.498  0.0324  0.1247  0.0727
14636TIP3    H165399   5.816   1.288  12.493  0.2732  0.3730  0.0346
14636TIP3    H265400   5.672   1.310  12.537  0.4837  0.0763  0.9009
14637TIP3   OH265401   3.299   3.232   0.300  0.2083  0.4438 -0.1989
14637TIP3    H165402   3.247   3.291   0.356 -1.4295  0.0225 -1.2339
14637TIP3    H265403   3.368   3.288   0.265 -0.1354  1.2635  0.3943
14638TIP3   OH265404   0.106   2.822  15.595  0.1240  0.3392  0.3422
14638TIP3    H165405   0.201   2.811  15.583 -0.2898 -0.8633 -2.8972
14638TIP3    H265406   0.074   2.734  15.613 -0.5096  0.5799  0.4094
14639TIP3   OH265407   0.433   3.691   3.287 -0.6549 -0.4169  0.3845
14639TIP3    H165408   0.525   3.669   3.302 -0.6190 -1.2969 -1.0083
14639TIP3    H265409   0.415   3.662   3.198 -2.5354 -1.1112  0.9376
14640TIP3   OH265410   0.820   5.987   0.682  0.5401 -0.0356 -0.2691
14640TIP3    H165411   0.751   6.046   0.652 -0.6695 -1.9631 -1.4501
14640TIP3    H265412   0.872   5.969   0.604 -0.9712 -2.8836 -0.7571
14641TIP3   OH265413   4.733   0.563  16.953  0.9579  0.7069  0.0396
14641TIP3    H165414   4.650   0.609  16.939  1.1636  0.3563 -3.0653
14641TIP3    H265415   4.708   0.478  16.988  0.2357  1.4019  1.2921
14642TIP3   OH265416   3.297   5.475  16.854 -0.0493 -0.3086 -0.6021
14642TIP3    H165417   3.221   5.444  16.904 -0.0360 -2.0334 -1.5663
14642TIP3    H265418   3.262   5.543  16.797 -0.1019  1.5427  1.5309
14643TIP3   OH265419   1.621   3.396  12.461  0.6404 -0.2408 -0.4673
14643TIP3    H165420   1.530   3.398  12.491  1.8484 -1.5567  4.0733
14643TIP3    H265421   1.624   3.322  12.401 -1.3142  0.0240 -0.9736
14644TIP3   OH265422   5.780   4.938  11.893  0.3925  0.3947 -0.5630
14644TIP3    H165423   5.750   4.982  11.973  0.7580 -2.1000  1.0530
14644TIP3    H265424   5.719   4.864  11.882  2.6112 -1.5907 -0.2882
14645TIP3   OH265425   4.013   6.228  12.647 -0.3321 -0.2477  0.4475
14645TIP3    H165426   3.987   6.149  12.600  1.9898 -0.0977 -1.2789
14645TIP3    H265427   4.026   6.200  12.738 -0.0058 -1.7533 -0.0399
14646TIP3   OH265428   1.121   6.464   6.637 -0.0424  0.1689  0.3684
14646TIP3    H165429   1.189   6.398   6.651  1.2269  1.5955  1.2025
14646TIP3    H265430   1.120   6.515   6.718 -1.6812  0.5817  0.1208
14647TIP3   OH265431   6.496   5.930  15.534  0.8031 -0.2241  0.0485
14647TIP3    H165432   6.428   5.978  15.488  0.5647 -0.6380 -0.0357
14647TIP3    H265433   6.467   5.839  15.533  0.2330 -0.1053  1.9819
14648TIP3   OH265434   4.035   5.804  14.421 -0.1719  0.3888 -0.6221
14648TIP3    H165435   4.100   5.753  14.469  0.7770 -1.1935 -3.3759
14648TIP3    H265436   4.072   5.892  14.414  0.3340  0.2466  0.2416
14649TIP3   OH265437   0.355   1.976   5.582 -0.1964  0.6916  0.0567
14649TIP3    H165438   0.420   1.933   5.526 -1.0211 -1.7190  0.8362
14649TIP3    H265439   0.404   2.001   5.661  0.1755  0.6382 -0.1553
14650TIP3   OH265440   2.139   1.432   0.221  0.5067  0.1719 -0.4279
14650TIP3    H165441   2.153   1.456   0.313 -2.4484 -0.9212  0.4245
14650TIP3    H265442   2.210   1.371   0.201  1.1369  0.3299  1.1598
14651TIP3   OH265443   2.417   1.074   3.206  0.1046  0.1878  0.5983
14651TIP3    H165444   2.349   1.010   3.187  0.0836 -0.4826  2.6491
14651TIP3    H265445   2.377   1.159   3.187 -0.9044 -0.2573  0.6819
14652TIP3   OH265446   3.232   4.306  11.785 -0.0309  0.0928  0.0921
14652TIP3    H165447   3.149   4.328  11.742  0.2033  0.2437 -0.2883
14652TIP3    H265448   3.299   4.330  11.722  0.3754  1.3175  0.9523
14653TIP3   OH265449   0.558   2.528  15.966 -0.0339 -0.1043  0.1333
14653TIP3    H165450   0.469   2.495  15.969  0.2079 -1.0447 -1.8283
14653TIP3    H265451   0.551   2.618  15.999 -1.1087 -1.1501  3.1387
14654TIP3   OH265452   4.902   3.299   1.619 -0.0364  0.0613 -0.2165
14654TIP3    H165453   4.955   3.322   1.543  1.1018 -1.1101  0.1753
14654TIP3    H265454   4.900   3.378   1.673  0.6182  0.3741 -0.6432
14655TIP3   OH265455   2.920   2.645   5.157  0.1768 -0.2228 -0.0239
14655TIP3    H165456   2.960   2.591   5.089  0.6419  0.5454 -0.3854
14655TIP3    H265457   2.878   2.583   5.217 -1.4768 -0.8732 -1.7553
14656TIP3   OH265458   3.282   0.814  11.255 -0.6596  0.1498 -0.3757
14656TIP3    H165459   3.323   0.894  11.222  0.2669 -0.8858 -1.8459
14656TIP3    H265460   3.196   0.812  11.211 -0.4393  0.0454 -0.8096
14657TIP3   OH265461   5.114   4.976   1.255 -0.0352  0.2911 -1.1512
14657TIP3    H165462   5.165   4.906   1.216 -2.5478 -1.9046 -0.8072
14657TIP3    H265463   5.096   5.036   1.182 -0.2184 -0.9610 -2.1797
14658TIP3   OH265464   2.715   3.710   1.879 -0.0672 -0.1309 -0.3048
14658TIP3    H165465   2.644   3.747   1.828  0.2973  0.0372 -0.6968
14658TIP3    H265466   2.709   3.615   1.864  0.4710 -0.0256 -1.2331
14659TIP3   OH265467   1.962   3.370   2.944 -0.3789  0.1208  0.1514
14659TIP3    H165468   2.043   3.321   2.932 -0.8586 -1.0420  1.3933
14659TIP3    H265469   1.960   3.432   2.872  0.7286 -1.0488 -0.9283
14660TIP3   OH265470   6.164   6.792  15.161  0.6225  0.3778 -0.6753
14660TIP3    H165471   6.169   6.827  15.073  1.2435  1.9056 -0.0634
14660TIP3    H265472   6.211   6.708  15.156  0.4631  0.3438 -1.8281
14661TIP3   OH265473   0.190   6.300   0.209  0.2950 -0.0090  0.0033
14661TIP3    H165474   0.246   6.376   0.192  0.4501 -0.3558 -1.1730
14661TIP3    H265475   0.197   6.285   0.303 -0.5720  2.0563  0.4344
14662TIP3   OH265476   2.420   4.437   3.846 -0.0856  0.0642  1.2351
14662TIP3    H165477   2.387   4.363   3.795 -0.5812  1.4082 -0.4721
14662TIP3    H265478   2.515   4.424   3.848 -0.0949 -0.2342  0.2786
14663TIP3   OH265479   2.503   0.854  10.677  0.0453 -0.5343 -0.3453
14663TIP3    H165480   2.551   0.815  10.750 -1.0673  0.4406  0.9592
14663TIP3    H265481   2.417   0.812  10.679 -0.2142 -0.0285 -0.6645
14664TIP3   OH265482   3.619   6.163  14.995  0.0630 -0.0430 -0.8836
14664TIP3    H165483   3.689   6.099  15.002  0.4284  0.3243 -1.1226
14664TIP3    H265484   3.544   6.114  14.961 -0.4478 -0.9139  1.3408
14665TIP3   OH265485   3.608   0.155   0.704 -0.3326 -0.0232  0.4817
14665TIP3    H165486   3.601   0.108   0.621  1.4752 -0.0416  0.2840
14665TIP3    H265487   3.552   0.231   0.694  1.1449  0.8986 -1.4680
14666TIP3   OH265488   2.171   0.487   0.202 -0.0750 -0.1048 -0.2954
14666TIP3    H165489   2.129   0.403   0.216 -1.1831  0.4420 -0.2379
14666TIP3    H265490   2.106   0.552   0.230  0.5811  0.7844 -0.7680
14667TIP3   OH265491   2.044   3.975  15.923  0.1590 -0.3665  0.2385
14667TIP3    H165492   2.099   3.996  15.848  0.3987 -0.0673  0.4941
14667TIP3    H265493   1.961   4.020  15.905  0.6471  0.7895  0.7515
14668TIP3   OH265494   6.636   5.009   3.523  0.0793 -0.0209  0.1989
14668TIP3    H165495   6.685   5.059   3.588 -0.3824 -0.0136  0.5512
14668TIP3    H265496   6.621   4.924   3.564 -1.1533  0.3424  0.5640
14669TIP3   OH265497   5.677   2.746   2.070 -0.5262  0.0495  0.1520
14669TIP3    H165498   5.710   2.758   1.981 -1.6497 -1.8992 -0.6031
14669TIP3    H265499   5.582   2.744   2.060 -0.6302 -1.9779  1.0921
14670TIP3   OH265500   4.656   3.056   2.320 -0.9213 -0.1690  0.3984
14670TIP3    H165501   4.674   2.962   2.314  0.8850 -0.1497  3.3631
14670TIP3    H265502   4.740   3.098   2.299 -0.8642  0.5907  2.0084
14671TIP3   OH265503   5.486   6.064   0.431  0.3090  0.3351  0.0910
14671TIP3    H165504   5.507   6.025   0.347 -0.5544  0.8082 -0.3478
14671TIP3    H265505   5.496   5.992   0.494 -0.8857 -0.4961 -0.6460
14672TIP3   OH265506   3.957   6.327   0.763 -0.1150  0.0274 -0.1780
14672TIP3    H165507   4.041   6.281   0.763 -1.2857 -2.2962 -0.4069
14672TIP3    H265508   3.918   6.304   0.678 -1.0960  0.8074  0.0445
14673TIP3   OH265509   6.799   2.142  17.121  0.1848 -0.3678 -0.3536
14673TIP3    H165510   6.819   2.052  17.093  1.1575 -0.5709  0.8770
14673TIP3    H265511   6.723   2.133  17.178 -0.4942 -0.2342 -1.2279
14674TIP3   OH265512   1.367   3.738   3.905 -0.3901  0.5738  0.0841
14674TIP3    H165513   1.333   3.801   3.841  1.5268  1.6546  0.0837
14674TIP3    H265514   1.428   3.788   3.959 -1.1505 -0.5648  2.1325
14675TIP3   OH265515   3.667   2.783   3.086 -0.2745 -0.3472 -0.2264
14675TIP3    H165516   3.685   2.838   3.010  2.0460 -1.1979 -0.3736
14675TIP3    H265517   3.677   2.693   3.053  1.8182 -0.7250  1.2487
14676TIP3   OH265518   2.428   1.381  11.070 -0.2415  0.5100 -0.1549
14676TIP3    H165519   2.424   1.459  11.016 -1.8678  0.5762  0.0322
14676TIP3    H265520   2.475   1.317  11.016  0.3585  1.3316 -0.6347
14677TIP3   OH265521   0.836   1.988   6.502  0.6281 -0.3077 -0.2999
14677TIP3    H165522   0.749   1.948   6.503  0.0388  0.8636  1.5424
14677TIP3    H265523   0.896   1.916   6.485 -0.6929 -1.1215 -1.7841
14678TIP3   OH265524   0.725   4.898   1.755  0.0787  0.0906  0.4508
14678TIP3    H165525   0.663   4.916   1.684 -0.7743  0.1965  1.1977
14678TIP3    H265526   0.670   4.888   1.833  0.9999  0.1119  1.1260
14679TIP3   OH265527   0.291   5.293   0.533 -0.1919  0.0972 -0.5899
14679TIP3    H165528   0.222   5.353   0.561 -0.7882 -1.4256  1.4764
14679TIP3    H265529   0.249   5.236   0.468 -1.7619 -2.3039  2.2794
14680TIP3   OH265530   6.706   4.949   5.166  0.2425  0.3244  0.1091
14680TIP3    H165531   6.766   5.023   5.173  1.0441 -0.3044  0.0518
14680TIP3    H265532   6.638   4.966   5.232  0.5549  0.9752  0.2683
14681TIP3   OH265533   1.160   1.017   2.963 -0.4050 -0.2138  0.1282
14681TIP3    H165534   1.221   1.019   3.037  1.3958  0.3106 -1.2893
14681TIP3    H265535   1.097   1.086   2.981  1.7741  1.9916 -0.1807
14682TIP3   OH265536   3.613   2.521  12.746 -0.0269  0.2409 -0.5221
14682TIP3    H165537   3.520   2.545  12.749  0.2481  2.1583 -3.6693
14682TIP3    H265538   3.612   2.425  12.742 -1.7113  0.1052  1.4133
14683TIP3   OH265539   1.253   2.516   1.806  0.8384  0.1105 -0.3219
14683TIP3    H165540   1.332   2.571   1.803  2.0953 -1.4854  1.5664
14683TIP3    H265541   1.210   2.539   1.888  1.6014 -1.9445  0.7029
14684TIP3   OH265542   2.154   5.408  16.738  0.4469  0.0382 -0.7850
14684TIP3    H165543   2.199   5.376  16.816 -0.6297  0.1536 -0.1000
14684TIP3    H265544   2.213   5.474  16.702  1.8178 -1.3301 -1.1444
14685TIP3   OH265545   0.470   3.477  11.246  0.4255  0.0978  0.1407
14685TIP3    H165546   0.553   3.434  11.227  0.5181 -0.4970  1.7239
14685TIP3    H265547   0.403   3.411  11.226  0.4000  0.1686 -0.0111
14686TIP3   OH265548   5.177   6.520  14.441  0.4921 -0.1532 -0.6861
14686TIP3    H165549   5.121   6.597  14.456  0.6936  0.2823 -2.0602
14686TIP3    H265550   5.147   6.457  14.506  0.4401  1.1375  0.6009
14687TIP3   OH265551   3.389   2.139  11.405  0.0409 -0.1220  0.9456
14687TIP3    H165552   3.474   2.177  11.424 -0.6497  0.8642  2.2771
14687TIP3    H265553   3.363   2.176  11.321  0.8412 -0.3124  0.6075
14688TIP3   OH265554   0.043   1.357   0.777 -0.2319 -0.0175  0.3557
14688TIP3    H165555  -0.010   1.434   0.796  1.3736  1.1548  0.3110
14688TIP3    H265556   0.094   1.381   0.699  1.1212 -0.6613  0.9966
14689TIP3   OH265557   5.142   1.237  13.147  0.0948 -0.5643 -0.2269
14689TIP3    H165558   5.187   1.292  13.211 -1.6187 -0.4963  0.9665
14689TIP3    H265559   5.079   1.296  13.104  0.5133 -0.8531 -1.2837
14690TIP3   OH265560   5.294   4.901  14.757  0.3201  0.2749 -0.2504
14690TIP3    H165561   5.227   4.865  14.699  0.5404  0.8780 -0.8940
14690TIP3    H265562   5.286   4.996  14.748  0.8701  0.3654  0.1246
14691TIP3   OH265563   6.208   6.032   6.593  0.4246 -0.6032  0.1077
14691TIP3    H165564   6.140   6.020   6.526  0.7249 -1.1517 -0.1050
14691TIP3    H265565   6.290   6.021   6.545  0.6736  0.1537  0.3431
14692TIP3   OH265566   1.073   1.330  16.196 -0.5856 -0.0978 -0.3352
14692TIP3    H165567   1.116   1.369  16.120 -0.4042  0.1644 -0.0997
14692TIP3    H265568   1.050   1.405  16.251 -0.2869 -0.3118  0.0908
14693TIP3   OH265569   1.847   4.450  17.093  0.2754 -0.2872  0.0725
14693TIP3    H165570   1.765   4.422  17.135 -0.5942  0.0268 -1.3522
14693TIP3    H265571   1.880   4.371  17.050  0.6233 -0.3575  0.4553
14694TIP3   OH265572   4.933   0.117  16.814 -0.4748  0.8004  0.1233
14694TIP3    H165573   5.015   0.069  16.803 -0.5889  0.5739  0.2605
14694TIP3    H265574   4.960   0.206  16.835 -0.2628  0.4589  1.3331
14695TIP3   OH265575   4.937   4.256   5.233 -0.3387  0.5078 -0.4657
14695TIP3    H165576   4.881   4.230   5.306 -0.2044 -1.6189 -1.0468
14695TIP3    H265577   4.932   4.351   5.232 -1.7960  0.5052  1.1679
14696TIP3   OH265578   2.419   1.721   0.118  1.0793 -0.0390 -0.4211
14696TIP3    H165579   2.414   1.729   0.214  1.0736 -2.6649 -0.1222
14696TIP3    H265580   2.496   1.772   0.094  0.0511  2.1807  0.7161
14697TIP3   OH265581   1.562   3.031  17.031 -0.1168 -0.3730  0.2762
14697TIP3    H165582   1.520   3.115  17.015 -0.6304 -0.0381  2.8708
14697TIP3    H265583   1.617   3.016  16.955 -0.2097  2.1915 -0.3653
14698TIP3   OH265584   5.361   0.921   5.771 -0.0368 -0.4697 -0.4837
14698TIP3    H165585   5.273   0.929   5.806  0.4244  1.8988  0.3376
14698TIP3    H265586   5.360   0.974   5.691  0.8508  0.3261  0.0150
14699TIP3   OH265587   4.546   4.403   5.635 -0.6343  0.5447  0.4444
14699TIP3    H165588   4.547   4.452   5.717  0.9681  0.2062  0.6740
14699TIP3    H265589   4.520   4.315   5.660  0.3959  0.3006  0.7047
14700TIP3   OH265590   3.263   2.528   4.417  0.4284 -0.2205 -0.2024
14700TIP3    H165591   3.299   2.588   4.351  0.7445  0.6781  0.7756
14700TIP3    H265592   3.328   2.527   4.487  0.1062 -1.1892  0.1000
14701TIP3   OH265593   1.200   4.507  11.828 -0.3234 -0.3050  0.0057
14701TIP3    H165594   1.107   4.530  11.831 -0.2549 -0.1671  1.8658
14701TIP3    H265595   1.240   4.559  11.898  0.6807 -2.4335  1.0818
14702TIP3   OH265596   1.402   3.545  13.240 -0.1182  0.1452 -0.2014
14702TIP3    H165597   1.403   3.451  13.223 -2.0584  0.0954 -0.2117
14702TIP3    H265598   1.490   3.575  13.215  0.7318 -1.7325  0.3678
14703TIP3   OH265599   0.989   6.607   3.670 -0.4135 -0.4966  0.0294
14703TIP3    H165600   1.055   6.538   3.660 -0.2994 -0.4567  0.5003
14703TIP3    H265601   1.031   6.685   3.635  0.3688 -0.1324  1.7174
14704TIP3   OH265602   5.959   0.877   3.435  0.4022  0.0975  0.4199
14704TIP3    H165603   6.035   0.929   3.408  0.4813 -0.2024  0.0457
14704TIP3    H265604   5.916   0.929   3.502  0.6850  0.4787  0.3067
14705TIP3   OH265605   4.682   2.933   1.985  0.7609 -0.0604  0.2934
14705TIP3    H165606   4.613   2.976   2.034  1.6262  1.7899 -0.0234
14705TIP3    H265607   4.688   2.983   1.903 -0.5319 -2.9119 -1.7438
14706TIP3   OH265608   3.718   0.732  13.546  0.0460  0.1432  0.3176
14706TIP3    H165609   3.784   0.679  13.502  1.1845  1.0865  0.8454
14706TIP3    H265610   3.704   0.806  13.487 -1.1613 -0.4579 -0.1765
14707TIP3   OH265611   4.905   3.391  15.095 -0.1598  0.2591 -0.3131
14707TIP3    H165612   4.886   3.474  15.053  1.1714  1.5797  1.5273
14707TIP3    H265613   5.000   3.380  15.086 -0.4333 -1.6105 -1.4171
14708TIP3   OH265614   2.629   2.810   3.171  0.0119 -0.5982 -0.1092
14708TIP3    H165615   2.543   2.849   3.186  0.3764  0.0612  0.3369
14708TIP3    H265616   2.689   2.885   3.172  0.7626 -1.1890  0.9277
14709TIP3   OH265617   3.097   3.774  14.694 -0.1139  0.1221  0.2164
14709TIP3    H165618   3.010   3.790  14.731 -0.6512 -0.9463 -0.5334
14709TIP3    H265619   3.112   3.681  14.707  0.0344 -0.1132 -1.4999
14710TIP3   OH265620   4.358   3.173  12.876 -0.1765 -0.6909 -0.1510
14710TIP3    H165621   4.404   3.256  12.866 -1.1673  0.1306  1.5665
14710TIP3    H265622   4.390   3.138  12.959 -3.1034  0.3172  1.5569
14711TIP3   OH265623   5.718   3.380   5.450  0.2926  0.6299  0.2042
14711TIP3    H165624   5.809   3.404   5.433  0.0486  2.4965  1.1994
14711TIP3    H265625   5.677   3.379   5.364  1.0832  0.6100 -0.1784
14712TIP3   OH265626   2.779   3.900   1.258 -0.1555 -0.3256  0.6259
14712TIP3    H165627   2.765   3.994   1.242  2.9267  0.0420 -0.7075
14712TIP3    H265628   2.873   3.893   1.277 -0.0006 -3.2702 -0.6672
14713TIP3   OH265629   3.686   4.864   5.667  0.1991 -0.3477 -0.2440
14713TIP3    H165630   3.764   4.896   5.713  0.4781 -2.1281  0.5823
14713TIP3    H265631   3.630   4.828   5.735 -2.0000  1.9762 -0.6452
14714TIP3   OH265632   3.467   5.050  12.123 -0.6843 -0.2970 -0.1978
14714TIP3    H165633   3.533   5.118  12.116 -1.8710  1.0371  0.8708
14714TIP3    H265634   3.440   5.052  12.215 -1.6409 -1.3411 -0.4366
14715TIP3   OH265635   4.570   4.446   0.795  0.3153 -0.3153  0.1994
14715TIP3    H165636   4.511   4.488   0.858 -1.3422 -2.0243 -0.1522
14715TIP3    H265637   4.515   4.428   0.719  1.8985  0.1913 -1.1219
14716TIP3   OH265638   4.631   4.689  14.418  0.2131  0.5265 -0.1302
14716TIP3    H165639   4.667   4.692  14.507  1.2192 -1.9166 -0.3760
14716TIP3    H265640   4.538   4.667  14.430  0.2023  0.8111  0.3273
14717TIP3   OH265641   0.217   2.955  13.094 -0.0788 -0.1197  0.1221
14717TIP3    H165642   0.148   2.960  13.160 -0.0116 -1.6041  0.3258
14717TIP3    H265643   0.220   2.863  13.068  0.6144  0.2429 -1.1936
14718TIP3   OH265644   0.936   3.044  12.165  0.3682  0.1552 -0.1002
14718TIP3    H165645   0.928   3.139  12.157 -2.5191 -0.0632 -0.5972
14718TIP3    H265646   0.860   3.009  12.119  1.7885 -2.4640 -0.6345
14719TIP3   OH265647   0.289   3.541   2.224 -0.4759  0.4792  0.0884
14719TIP3    H165648   0.367   3.569   2.177  0.4663 -1.9790  0.0652
14719TIP3    H265649   0.322   3.496   2.302 -1.9087  0.2609  0.6128
14720TIP3   OH265650   3.249   2.250   1.360  0.2229 -0.1668 -0.5250
14720TIP3    H165651   3.183   2.319   1.352 -1.8078 -2.0828 -1.5278
14720TIP3    H265652   3.329   2.289   1.326 -0.8725  1.6301 -1.1885
14721TIP3   OH265653   0.157   5.602   4.630  0.0356  0.2172  0.1067
14721TIP3    H165654   0.123   5.690   4.611  1.1673  0.6876  0.1702
14721TIP3    H265655   0.235   5.618   4.683  0.8288 -0.7823 -0.7239
14722TIP3   OH265656   5.229   0.677   5.471 -0.4265 -0.1207  0.3563
14722TIP3    H165657   5.205   0.643   5.385  0.9417  1.5494 -0.7560
14722TIP3    H265658   5.316   0.639   5.488 -1.3137 -1.6377  1.7363
14723TIP3   OH265659   3.507   3.520  10.674  0.1833  0.1322 -0.4273
14723TIP3    H165660   3.443   3.566  10.728  0.5337  0.9779 -0.7146
14723TIP3    H265661   3.514   3.433  10.714 -0.1800  0.4614  0.3761
14724TIP3   OH265662   0.959   6.777  12.746  0.0946 -0.4618  0.0496
14724TIP3    H165663   0.931   6.767  12.655  0.1663  0.3680 -0.0669
14724TIP3    H265664   0.936   6.866  12.769  0.4331 -0.5409  0.7262
14725TIP3   OH265665   3.373   0.709   4.250  0.1846  0.6856  0.3486
14725TIP3    H165666   3.371   0.725   4.155 -0.6585  1.2575  0.4539
14725TIP3    H265667   3.294   0.657   4.267  1.2525 -0.9573  0.4920
14726TIP3   OH265668   3.147   1.431   1.970  0.0582 -0.4147  0.4344
14726TIP3    H165669   3.115   1.420   2.059  0.3851  0.1232  0.6222
14726TIP3    H265670   3.135   1.524   1.951  4.0137  0.5044  1.5332
14727TIP3   OH265671   6.700   3.390   3.297  0.0545  0.7525  0.2850
14727TIP3    H165672   6.701   3.350   3.384 -1.1315  0.6361  0.2526
14727TIP3    H265673   6.786   3.432   3.290 -0.5213  2.4232  2.2849
14728TIP3   OH265674   3.691   4.322  12.109  0.2667  0.2084 -0.5203
14728TIP3    H165675   3.725   4.377  12.181 -0.2871 -1.5493  1.1652
14728TIP3    H265676   3.596   4.332  12.115  0.1420 -1.1227  0.0043
14729TIP3   OH265677   3.605   3.779  12.306  0.6527 -0.5282  0.0686
14729TIP3    H165678   3.651   3.720  12.246  2.6001  1.6028 -0.6825
14729TIP3    H265679   3.650   3.769  12.389 -0.8065 -2.0459  0.7419
14730TIP3   OH265680   5.713   2.105  11.761  0.4358 -0.0214  0.5508
14730TIP3    H165681   5.764   2.080  11.837  1.2918 -1.7641 -0.5235
14730TIP3    H265682   5.778   2.132  11.696 -0.1749  0.0929 -0.0295
14731TIP3   OH265683   5.216   4.459   0.073 -0.0476  0.7916  0.8206
14731TIP3    H165684   5.284   4.420   0.018 -1.2141 -0.3174  0.1073
14731TIP3    H265685   5.224   4.553   0.056 -0.5577  0.4869 -1.5587
14732TIP3   OH265686   5.763   2.973  10.325 -0.4149 -0.0121  0.2508
14732TIP3    H165687   5.754   2.942  10.235 -1.0428 -0.0574  0.3250
14732TIP3    H265688   5.747   2.895  10.379 -1.8789  0.3890  0.4360
14733TIP3   OH265689   2.770   6.263   1.618 -0.3931 -0.2959 -0.0111
14733TIP3    H165690   2.675   6.262   1.617 -0.4612 -1.7795  1.8488
14733TIP3    H265691   2.795   6.191   1.559 -0.5264 -1.2511  1.0526
14734TIP3   OH265692   3.382   6.573   6.440  0.3251 -0.5394 -0.2524
14734TIP3    H165693   3.455   6.518   6.466 -0.0601 -1.0661 -0.2633
14734TIP3    H265694   3.417   6.662   6.441  0.7961 -0.7253  0.3339
14735TIP3   OH265695   5.288   0.308  14.152 -0.1864 -0.4017  0.1002
14735TIP3    H165696   5.224   0.378  14.151 -1.5115 -1.5673 -1.0438
14735TIP3    H265697   5.281   0.267  14.066  1.6340 -0.9968  0.1758
14736TIP3   OH265698   2.588   2.361  16.546 -0.2486  0.0525 -0.2309
14736TIP3    H165699   2.557   2.440  16.590 -0.1935  0.4192 -0.8439
14736TIP3    H265700   2.591   2.295  16.615 -1.1253  0.3558  0.1071
14737TIP3   OH265701   3.132   0.818   0.319 -0.1007  0.1291  0.5395
14737TIP3    H165702   3.066   0.849   0.381  0.2360  2.6971 -0.2669
14737TIP3    H265703   3.093   0.833   0.233  0.4290 -1.0255  0.0806
14738TIP3   OH265704   0.022   0.168   3.089  0.2396 -0.3571 -0.1288
14738TIP3    H165705   0.038   0.075   3.103  1.6613 -0.3015 -1.1273
14738TIP3    H265706  -0.013   0.173   3.000 -1.2082 -0.0436  0.4344
14739TIP3   OH265707   4.817   1.376  15.349 -0.3237 -0.2976  0.3845
14739TIP3    H165708   4.824   1.301  15.291  0.1082 -0.2040  0.3150
14739TIP3    H265709   4.844   1.451  15.296 -1.5803  0.0467  0.1864
14740TIP3   OH265710   6.456   4.045   0.153 -0.4004 -0.4558 -0.0183
14740TIP3    H165711   6.398   4.076   0.083 -0.2986  2.7063  1.1360
14740TIP3    H265712   6.544   4.068   0.124 -0.0023 -2.0367 -0.1866
14741TIP3   OH265713   1.373   0.456  16.645  0.2373 -0.5152 -0.5027
14741TIP3    H165714   1.364   0.375  16.595  0.0210 -0.5287 -0.4461
14741TIP3    H265715   1.283   0.484  16.661  0.2340 -1.5246  1.5257
14742TIP3   OH265716   5.179   1.741  16.179  0.4296 -0.0174  0.7754
14742TIP3    H165717   5.254   1.789  16.143  0.2882  0.3245  0.9368
14742TIP3    H265718   5.184   1.655  16.137  0.2733  0.3650 -0.0419
14743TIP3   OH265719   1.227   0.918  13.686  0.1530  0.1067 -0.0833
14743TIP3    H165720   1.264   0.971  13.757  1.2461 -1.3064  0.4321
14743TIP3    H265721   1.284   0.842  13.680 -0.9890 -0.6993 -1.2668
14744TIP3   OH265722   4.136   6.383   1.821 -0.3701 -0.0175  0.0549
14744TIP3    H165723   4.224   6.380   1.783 -1.0129  2.8063 -1.8958
14744TIP3    H265724   4.151   6.402   1.914  1.0616 -0.0503 -0.1441
14745TIP3   OH265725   0.955   1.879  12.614  0.2632  0.1666 -0.0463
14745TIP3    H165726   1.006   1.932  12.676  0.8329 -0.3732 -0.0400
14745TIP3    H265727   0.990   1.791  12.625  0.9989  0.1973 -1.7671
14746TIP3   OH265728   3.153   4.160  16.147 -0.7082  1.0320  0.2810
14746TIP3    H165729   3.087   4.101  16.184  0.9638 -1.0475  0.1284
14746TIP3    H265730   3.225   4.157  16.210  1.5746 -1.3863 -2.1593
14747TIP3   OH265731   0.915   3.819  16.271 -0.4212 -0.1226  0.0939
14747TIP3    H165732   0.831   3.815  16.226  0.2296 -2.1704 -1.1205
14747TIP3    H265733   0.905   3.762  16.347 -0.5318  0.7603  0.7575
14748TIP3   OH265734   2.662   4.348  14.397 -0.3458 -0.3028 -0.0423
14748TIP3    H165735   2.739   4.394  14.432  0.4425 -1.6978  0.1032
14748TIP3    H265736   2.641   4.394  14.316  1.2244 -0.4747 -0.5689
14749TIP3   OH265737   0.252   5.682   5.278 -0.6909  0.1851  0.1698
14749TIP3    H165738   0.303   5.727   5.211 -2.4990 -0.3996 -1.6904
14749TIP3    H265739   0.174   5.736   5.289 -0.8224 -0.1935  1.1908
14750TIP3   OH265740   4.302   6.713   1.844  0.2193  0.2352 -0.2240
14750TIP3    H165741   4.308   6.622   1.874  1.4457  0.0915 -0.8346
14750TIP3    H265742   4.270   6.707   1.754  1.4432  0.3122 -0.6786
14751TIP3   OH265743   2.150   6.619  12.540 -0.2884 -0.4678  0.0824
14751TIP3    H165744   2.165   6.664  12.457 -1.3268  0.3613  0.3118
14751TIP3    H265745   2.113   6.686  12.597 -1.1842 -1.4304  0.6757
14752TIP3   OH265746   6.223   5.443  14.679 -0.1790  0.6769 -1.1067
14752TIP3    H165747   6.189   5.366  14.632 -1.8449  0.6167  0.1214
14752TIP3    H265748   6.207   5.516  14.620 -1.1647  0.4512 -1.1257
14753TIP3   OH265749   5.880   1.801  13.112 -1.0395 -0.3419 -0.2072
14753TIP3    H165750   5.907   1.827  13.024 -0.8311 -0.9359 -0.3237
14753TIP3    H265751   5.961   1.801  13.163 -1.3748  1.6074  0.4231
14754TIP3   OH265752   3.251   5.622  11.353 -0.2667  0.2336 -0.4940
14754TIP3    H165753   3.304   5.600  11.276  0.7543  0.3040  0.1841
14754TIP3    H265754   3.221   5.537  11.386  1.4837 -0.0119  0.5628
14755TIP3   OH265755   2.030   6.118   5.425  0.9029 -0.0996 -0.3380
14755TIP3    H165756   2.099   6.074   5.475  3.1659  1.2303 -2.1275
14755TIP3    H265757   2.071   6.199   5.393 -2.3331  2.2002  0.7931
14756TIP3   OH265758   2.386   1.372  13.194 -0.1302  0.0315 -0.5857
14756TIP3    H165759   2.410   1.435  13.126  0.7494 -0.4897 -0.7783
14756TIP3    H265760   2.371   1.425  13.272 -3.1266  0.8636 -1.6076
14757TIP3   OH265761   4.520   1.984   1.751 -0.0581  0.5520 -0.8042
14757TIP3    H165762   4.459   1.914   1.776  2.9902 -2.4050 -0.8951
14757TIP3    H265763   4.543   1.964   1.661  0.5162  2.0001 -0.9882
14758TIP3   OH265764   0.905   3.515  14.719 -0.4043 -0.8304  0.6362
14758TIP3    H165765   0.818   3.527  14.756  0.0031  0.4882  1.2175
14758TIP3    H265766   0.964   3.559  14.780  0.7323 -2.0033  0.4592
14759TIP3   OH265767   2.951   6.224  16.623  0.4308  0.6194 -0.2489
14759TIP3    H165768   2.977   6.244  16.713  0.6341 -1.4671  0.1945
14759TIP3    H265769   3.031   6.192  16.582 -0.1342 -0.4312 -0.5462
14760TIP3   OH265770   1.754   4.703  13.180  0.3473 -0.4978  0.3242
14760TIP3    H165771   1.663   4.704  13.151  0.0757 -2.0401  0.9817
14760TIP3    H265772   1.754   4.754  13.261 -0.1656 -1.2722  0.8371
14761TIP3   OH265773   3.271   4.621  12.363  0.1742 -0.6832  0.7340
14761TIP3    H165774   3.360   4.620  12.330 -0.7218 -2.5857 -1.9786
14761TIP3    H265775   3.217   4.643  12.288 -1.7728 -1.2552  1.8774
14762TIP3   OH265776   4.800   6.372  10.975 -0.1074 -0.3360 -0.2892
14762TIP3    H165777   4.864   6.301  10.977  0.0473 -0.2213 -1.0102
14762TIP3    H265778   4.792   6.395  10.882  1.9436  2.4913  0.0986
14763TIP3   OH265779   4.388   0.012   1.232  0.0075 -0.8736  0.1015
14763TIP3    H165780   4.388   0.107   1.221  0.6533 -0.6151  2.0615
14763TIP3    H265781   4.457  -0.018   1.173  0.9194  0.0478  0.6618
14764TIP3   OH265782   1.848   1.198  13.790 -0.3815  0.1971  0.1480
14764TIP3    H165783   1.874   1.204  13.698 -2.3977 -1.7661 -0.6351
14764TIP3    H265784   1.884   1.277  13.830  1.4160  0.6214 -2.0864
14765TIP3   OH265785   2.958   3.755  10.955 -0.3556  0.4226  0.1989
14765TIP3    H165786   3.036   3.702  10.972 -0.0323  0.2295 -1.7001
14765TIP3    H265787   2.940   3.742  10.862 -0.9898  2.7034 -0.0405
14766TIP3   OH265788   1.729   1.583  14.539  0.0052  0.1094 -0.1062
14766TIP3    H165789   1.789   1.570  14.613  0.3260 -0.0137 -0.3839
14766TIP3    H265790   1.729   1.499  14.493  1.0953  0.6694 -1.1876
14767TIP3   OH265791   4.921   3.402  11.231  0.6414 -0.1395 -0.0834
14767TIP3    H165792   4.940   3.342  11.303  0.3994 -1.4228 -1.0552
14767TIP3    H265793   4.981   3.377  11.162 -0.2584 -0.0423 -0.9269
14768TIP3   OH265794   3.960   2.223   4.793 -0.0999  0.2860 -0.3286
14768TIP3    H165795   3.890   2.286   4.776  0.5315  1.3674  0.9830
14768TIP3    H265796   4.041   2.268   4.770  0.5562  0.8214  2.6394
14769TIP3   OH265797   0.994   6.237   3.407  0.2291  0.1970 -0.2885
14769TIP3    H165798   0.994   6.308   3.343  0.6536  0.7409  0.3008
14769TIP3    H265799   1.061   6.176   3.375  0.2562  0.3385 -0.5049
14770TIP3   OH265800   3.763   4.055   3.329 -0.5633 -0.0816  0.0610
14770TIP3    H165801   3.774   4.126   3.393  0.2554 -0.5213  0.4315
14770TIP3    H265802   3.695   3.999   3.366 -1.3160  0.5805 -0.3035
14771TIP3   OH265803   3.222   4.234   3.196 -0.6755 -0.0429  0.2656
14771TIP3    H165804   3.293   4.169   3.201 -1.1582 -0.7406 -1.2947
14771TIP3    H265805   3.142   4.182   3.197 -1.1288  0.6556  0.6767
14772TIP3   OH265806   6.593   3.340  11.553 -0.8230 -0.0291  0.2338
14772TIP3    H165807   6.510   3.308  11.518  0.6010 -0.0774 -3.5402
14772TIP3    H265808   6.582   3.435  11.558 -1.9246 -0.2250  2.3666
14773TIP3   OH265809   6.175   1.360   5.771  0.6297 -0.4961  0.7030
14773TIP3    H165810   6.246   1.402   5.723  1.1360 -3.5373 -1.4776
14773TIP3    H265811   6.096   1.384   5.723  0.2649  1.5182  2.1586
14774TIP3   OH265812   3.416   4.038   1.277 -0.3545  0.3228  0.0842
14774TIP3    H165813   3.413   4.116   1.332  0.8706 -0.0612  0.7084
14774TIP3    H265814   3.508   4.029   1.252 -0.6681 -0.2750 -0.9382
14775TIP3   OH265815   4.853   0.069   0.074  0.4048 -0.0708 -0.2474
14775TIP3    H165816   4.822   0.100   0.160  0.1280 -0.9776 -0.0128
14775TIP3    H265817   4.797   0.115   0.012  0.1211  0.0497  0.0893
14776TIP3   OH265818   4.398   5.848   0.812  0.1286  0.2146 -0.6510
14776TIP3    H165819   4.471   5.854   0.750  0.0159 -0.1250 -0.8164
14776TIP3    H265820   4.420   5.774   0.868  0.8482  1.2873  0.5281
14777TIP3   OH265821   3.916   5.760   3.020  0.8609 -0.1301  0.5011
14777TIP3    H165822   3.957   5.845   3.037  0.1388  0.1600  0.8381
14777TIP3    H265823   3.825   5.781   3.000  0.5158 -0.8765  1.2486
14778TIP3   OH265824   1.062   6.489  11.417 -0.3714 -0.2653 -0.1787
14778TIP3    H165825   1.064   6.549  11.343 -0.9743 -0.6169 -0.4882
14778TIP3    H265826   1.124   6.419  11.393 -1.5596 -1.0790 -0.9743
14779TIP3   OH265827   0.463   6.772  11.022 -0.1518  0.5299 -0.0690
14779TIP3    H165828   0.370   6.788  11.006 -0.8300 -3.1199 -0.7078
14779TIP3    H265829   0.500   6.760  10.935 -1.1144 -6.4790 -0.0404
14780TIP3   OH265830   1.658   5.907   1.914 -0.1921  0.0428  0.0695
14780TIP3    H165831   1.740   5.858   1.917  0.9179  1.8296  0.4281
14780TIP3    H265832   1.636   5.921   2.006 -1.1093 -0.7322 -0.0214
14781TIP3   OH265833   3.093   6.020  14.665 -0.0037  0.7343 -0.0878
14781TIP3    H165834   3.051   6.093  14.710 -1.6889 -0.9640  1.2666
14781TIP3    H265835   3.115   5.958  14.735  1.9257  0.1667 -1.1255
14782TIP3   OH265836   2.784   1.298   5.754 -0.0221 -0.5213  0.3698
14782TIP3    H165837   2.810   1.328   5.841 -0.8245  2.4728 -0.2821
14782TIP3    H265838   2.695   1.333   5.743  0.0109 -0.9583 -1.5886
14783TIP3   OH265839   3.112   3.037  11.528  0.0142  0.5652  0.2253
14783TIP3    H165840   3.181   2.977  11.499 -0.4273 -0.0926  0.5096
14783TIP3    H265841   3.036   3.014  11.475 -0.0145  1.2373 -0.0326
14784TIP3   OH265842   4.500   3.821   2.544 -0.4483  0.2996  0.1672
14784TIP3    H165843   4.547   3.745   2.509  0.2698  1.3638 -1.2537
14784TIP3    H265844   4.408   3.796   2.542 -0.1945 -0.6684  0.0909
14785TIP3   OH265845   5.557   0.076   5.114 -0.6888 -0.2079 -0.5237
14785TIP3    H165846   5.546   0.033   5.199  0.6553 -1.3942 -0.8941
14785TIP3    H265847   5.552   0.004   5.051 -0.4407  0.4784 -1.3402
14786TIP3   OH265848   1.592   6.693  13.372  0.4484 -0.3074 -0.0288
14786TIP3    H165849   1.605   6.635  13.446 -1.7595  0.7681  1.2956
14786TIP3    H265850   1.532   6.645  13.314  1.3663 -0.7246 -0.6626
14787TIP3   OH265851   3.708   0.394  13.677  0.2973  0.2817  0.1670
14787TIP3    H165852   3.725   0.310  13.719  1.5101  0.0571 -0.7046
14787TIP3    H265853   3.784   0.448  13.699 -0.2872  1.0240  0.4053
14788TIP3   OH265854   6.806   3.721   2.642 -0.1423  0.4136  0.3857
14788TIP3    H165855   6.740   3.786   2.620 -0.9477 -0.0428  1.3704
14788TIP3    H265856   6.884   3.748   2.593 -0.9930  1.0602 -0.6627
14789TIP3   OH265857   2.456   4.682  17.074  0.4003  0.2483 -0.1365
14789TIP3    H165858   2.531   4.685  17.015 -0.0805 -1.5518 -0.9140
14789TIP3    H265859   2.410   4.765  17.060  1.2858  0.6198 -0.9302
14790TIP3   OH265860   4.533   2.077  15.721 -0.1551 -0.2667 -0.3137
14790TIP3    H165861   4.553   2.159  15.675  0.5003  0.3111  0.9676
14790TIP3    H265862   4.481   2.104  15.797  0.1710 -1.0226  0.1869
14791TIP3   OH265863   5.307   6.514   5.236  0.1452 -0.2441 -0.9592
14791TIP3    H165864   5.215   6.541   5.236  0.0401 -0.5868 -1.3396
14791TIP3    H265865   5.332   6.513   5.328 -0.7005 -1.6784 -0.7187
14792TIP3   OH265866   3.074   5.467   2.064 -0.2799  0.1834 -0.3642
14792TIP3    H165867   3.058   5.373   2.074  1.8576 -0.0887  1.1056
14792TIP3    H265868   3.157   5.472   2.016 -0.9907  1.3811 -1.5463
14793TIP3   OH265869   6.255   1.491   5.407  0.4223  0.2344 -0.1128
14793TIP3    H165870   6.312   1.471   5.481  1.1573 -1.4165 -1.0582
14793TIP3    H265871   6.170   1.511   5.447  1.1884  0.9077  1.2257
14794TIP3   OH265872   1.210   6.809   2.216 -0.5973 -0.2577  0.3303
14794TIP3    H165873   1.262   6.880   2.178 -0.5842 -0.8868 -0.8938
14794TIP3    H265874   1.127   6.851   2.239 -0.0828  0.4475  0.9615
14795TIP3   OH265875   6.221   4.893  15.312 -0.6491  0.3006  0.3589
14795TIP3    H165876   6.128   4.893  15.335 -0.7116  2.3367  0.2916
14795TIP3    H265877   6.222   4.883  15.217 -0.6231 -2.3483  0.5495
14796TIP3   OH265878   5.719   2.511  10.887  0.2593 -0.4684  0.1184
14796TIP3    H165879   5.770   2.591  10.897  0.5600 -0.7372  0.8205
14796TIP3    H265880   5.751   2.471  10.807  1.6611 -0.9783  0.8963
14797TIP3   OH265881   1.235   2.879   4.260  0.4775 -0.2876 -0.7143
14797TIP3    H165882   1.203   2.808   4.205  0.2614  0.7638 -1.9929
14797TIP3    H265883   1.212   2.959   4.213  0.3901  0.6650  0.8470
14798TIP3   OH265884   4.099   5.400   4.060  0.0618 -0.1078  0.6808
14798TIP3    H165885   4.047   5.363   3.989 -1.3541 -1.0006  2.0951
14798TIP3    H265886   4.147   5.326   4.096 -0.8488 -0.1440  1.9288
14799TIP3   OH265887   2.836   6.027   0.563 -0.1746 -0.3811  0.2909
14799TIP3    H165888   2.751   6.019   0.520  1.3036 -0.6778 -2.8709
14799TIP3    H265889   2.861   5.936   0.583 -1.5322 -0.1817  3.5525
14800TIP3   OH265890   6.324   0.488   2.974  0.2921 -0.2090 -0.5913
14800TIP3    H165891   6.286   0.566   3.016  0.9233 -0.9172  1.3985
14800TIP3    H265892   6.261   0.418   2.993  1.1235 -0.7717  0.1989
14801TIP3   OH265893   0.999   5.822   1.123 -0.2481 -0.2117 -0.3082
14801TIP3    H165894   1.001   5.851   1.215 -1.4511  0.9675 -0.6200
14801TIP3    H265895   1.067   5.755   1.118 -0.2483 -0.4082  1.4792
14802TIP3   OH265896   0.998   0.622   2.538  0.7359 -0.4285  0.1065
14802TIP3    H165897   0.916   0.580   2.511  0.6263 -0.1221 -0.0473
14802TIP3    H265898   1.008   0.599   2.631 -0.1720  0.5441  0.4702
14803TIP3   OH265899   1.772   0.922   3.871 -0.2556 -0.0713 -0.4443
14803TIP3    H165900   1.857   0.967   3.863  0.0086 -0.0932  1.6220
14803TIP3    H265901   1.713   0.988   3.907 -0.6784 -0.4975 -0.3428
14804TIP3   OH265902   6.650   3.145  14.584 -0.0108  0.5104  0.1100
14804TIP3    H165903   6.617   3.128  14.496  2.0584 -0.1786 -0.5916
14804TIP3    H265904   6.711   3.073  14.602  0.4634  1.2375  1.6548
14805TIP3   OH265905   4.645   3.034  14.172  0.1840 -0.4361  0.0796
14805TIP3    H165906   4.653   2.944  14.202  0.5927 -0.5505 -0.3681
14805TIP3    H265907   4.658   3.030  14.078 -1.2384 -0.0936 -0.1641
14806TIP3   OH265908   6.355   4.145   2.910 -0.3729 -0.1428 -0.7662
14806TIP3    H165909   6.302   4.224   2.921 -0.1854  0.0342 -1.1178
14806TIP3    H265910   6.301   4.087   2.856 -0.4996 -0.2453 -0.5298
14807TIP3   OH265911   5.756   3.421   0.715  0.4353  0.3669 -0.3119
14807TIP3    H165912   5.800   3.361   0.775 -0.7903  0.0695  0.3152
14807TIP3    H265913   5.668   3.385   0.706 -0.0137  1.5390 -0.6907
14808TIP3   OH265914   0.982   1.999  14.215 -0.3337 -0.2822  0.0303
14808TIP3    H165915   1.067   2.040  14.200  0.0634 -1.0522  0.1388
14808TIP3    H265916   0.922   2.049  14.159  0.4166 -0.5552 -1.0553
14809TIP3   OH265917   2.554   5.021   2.339  0.2570  0.0487  0.3561
14809TIP3    H165918   2.533   5.088   2.275  0.4968 -1.5682 -1.4852
14809TIP3    H265919   2.636   5.050   2.379  0.3429  0.8463 -0.3954
14810TIP3   OH265920   6.509   4.753  11.922  0.3412  0.7153  0.2249
14810TIP3    H165921   6.420   4.783  11.938  0.1857  0.9570 -0.9901
14810TIP3    H265922   6.559   4.784  11.997 -0.7245 -0.0306  1.2689
14811TIP3   OH265923   2.562   5.888   2.991 -0.6128 -0.0619 -0.7057
14811TIP3    H165924   2.471   5.880   3.019 -0.8570  2.2815 -0.6292
14811TIP3    H265925   2.607   5.815   3.032 -2.1575 -0.3306  0.5852
14812TIP3   OH265926   3.325   0.366   1.814 -0.3525  0.0533  0.1890
14812TIP3    H165927   3.303   0.325   1.898 -1.7471  0.5153  0.0712
14812TIP3    H265928   3.320   0.460   1.832  1.5316  0.2084  0.1268
14813TIP3   OH265929   0.066   4.210   2.197  0.2032  0.1507  0.4166
14813TIP3    H165930   0.015   4.182   2.121  0.8862  0.0244 -0.0047
14813TIP3    H265931   0.125   4.277   2.162  1.4535 -0.8612  0.5386
14814TIP3   OH265932   3.590   6.375  15.553 -0.5281 -0.2461 -0.7553
14814TIP3    H165933   3.632   6.401  15.471 -0.2814  0.1591 -0.5073
14814TIP3    H265934   3.547   6.455  15.584  0.3842 -0.0612  0.1069
14815TIP3   OH265935   1.598   1.910  16.220  0.3134  0.0672 -0.3073
14815TIP3    H165936   1.626   1.883  16.132  1.8397  1.1726 -0.1948
14815TIP3    H265937   1.678   1.936  16.264 -0.1648 -2.0282  2.0405
14816TIP3   OH265938   6.040   2.933   1.467  0.3034 -0.0212  0.3682
14816TIP3    H165939   5.952   2.900   1.484  1.2098 -1.3633  3.2096
14816TIP3    H265940   6.044   2.945   1.372 -2.9100  0.1617  0.1443
14817TIP3   OH265941   6.160   1.698  12.935 -0.5271 -0.1066 -0.0150
14817TIP3    H165942   6.111   1.629  12.889  0.4082 -0.7123 -0.1174
14817TIP3    H265943   6.170   1.664  13.024  0.4849 -0.3868 -0.2327
14818TIP3   OH265944   4.561   4.031  16.693  0.0672  0.2569 -0.3085
14818TIP3    H165945   4.562   4.095  16.621  0.2218  0.7746  0.1443
14818TIP3    H265946   4.525   3.952  16.654 -0.6603  0.7849 -0.7486
14819TIP3   OH265947   1.403   4.616   1.708 -0.6565  0.6823  0.0024
14819TIP3    H165948   1.449   4.690   1.749  0.5073  0.4467 -0.8318
14819TIP3    H265949   1.366   4.653   1.627 -0.1987  0.3880 -0.3423
14820TIP3   OH265950   3.258   4.885  11.963  0.4835 -0.3046 -0.6760
14820TIP3    H165951   3.334   4.942  11.968 -0.1352  0.5998 -1.2500
14820TIP3    H265952   3.251   4.861  11.871  1.5908 -2.5449 -0.2362
14821TIP3   OH265953   2.502   3.143  14.601 -0.4852  0.4303  0.5284
14821TIP3    H165954   2.493   3.214  14.664 -1.4246  2.3401 -1.6124
14821TIP3    H265955   2.459   3.068  14.643 -2.1921  1.9560  1.6481
14822TIP3   OH265956   0.571   0.656   6.585  0.4226 -0.0847  0.0487
14822TIP3    H165957   0.617   0.740   6.582  0.9802 -0.4149 -1.8974
14822TIP3    H265958   0.479   0.678   6.570  0.4201  0.2658  0.5660
14823TIP3   OH265959   4.221   3.166   6.332 -0.2106  0.1076  0.1466
14823TIP3    H165960   4.204   3.075   6.356 -0.5701  0.3736  0.9505
14823TIP3    H265961   4.134   3.204   6.319 -0.0453  0.1811 -0.8392
14824TIP3   OH265962   2.554   4.067  11.976  0.2003  0.2601 -0.1800
14824TIP3    H165963   2.568   4.135  11.910 -3.4928  0.7040 -0.7491
14824TIP3    H265964   2.494   4.107  12.039 -0.6359 -1.8576  0.4703
14825TIP3   OH265965   2.149   2.061  15.519 -0.2308 -0.0245  0.4354
14825TIP3    H165966   2.125   1.997  15.451 -0.0533  0.2471  0.1172
14825TIP3    H265967   2.216   2.116  15.478 -0.1532  0.1679  0.8172
14826TIP3   OH265968   0.536   3.178   0.675  0.3936  0.2841 -0.2171
14826TIP3    H165969   0.596   3.186   0.749 -1.0149 -1.3598  1.2059
14826TIP3    H265970   0.491   3.263   0.672  0.0667  0.2016  1.2346
14827TIP3   OH265971   3.918   0.058  16.717 -0.1566 -0.0582 -1.0356
14827TIP3    H165972   3.931  -0.036  16.727 -3.1022 -0.5608 -1.1106
14827TIP3    H265973   3.920   0.072  16.622 -0.2601 -0.1493 -1.0523
14828TIP3   OH265974   1.820   3.100   4.992 -0.4470  0.4644  0.0807
14828TIP3    H165975   1.737   3.099   5.040 -0.3987 -3.3593  0.3720
14828TIP3    H265976   1.885   3.072   5.057  1.1279  3.0231 -0.2377
14829TIP3   OH265977   0.732   6.429  15.233 -0.0757 -0.3092 -0.2328
14829TIP3    H165978   0.795   6.370  15.275  0.6448 -0.0173 -0.8753
14829TIP3    H265979   0.753   6.516  15.268 -0.8640 -0.3689  0.4008
14830TIP3   OH265980   5.905   3.976   3.400  0.6101 -0.2828 -0.0308
14830TIP3    H165981   5.911   3.904   3.462  0.0074 -1.4659 -1.2926
14830TIP3    H265982   5.814   4.005   3.405  1.0807  1.1518  1.2282
14831TIP3   OH265983   0.593   4.445   6.288  0.6170  0.4685  0.2010
14831TIP3    H165984   0.516   4.393   6.267  0.6704  0.5503 -0.2195
14831TIP3    H265985   0.614   4.423   6.379  2.0204 -2.0528 -0.6396
14832TIP3   OH265986   1.501   0.035   0.214 -0.6676  0.6922  0.5549
14832TIP3    H165987   1.582  -0.011   0.192 -1.1131 -0.7095  1.6669
14832TIP3    H265988   1.529   0.122   0.242  0.5509 -0.0193  1.6481
14833TIP3   OH265989   5.973   3.779   1.620  0.4084  0.5604 -0.0541
14833TIP3    H165990   5.888   3.801   1.658  0.8157  1.0650  0.5750
14833TIP3    H265991   6.017   3.728   1.688  0.2751 -0.4739 -0.7171
14834TIP3   OH265992   3.927   4.328  11.349  0.4528 -0.2907  0.2049
14834TIP3    H165993   3.935   4.239  11.385  0.8998 -0.3914 -0.1392
14834TIP3    H265994   3.976   4.325  11.267  0.0645  0.1452 -0.0487
14835TIP3   OH265995   2.677   6.835  16.236  0.1716  0.8593 -0.2284
14835TIP3    H165996   2.618   6.798  16.170 -0.6716  0.8918  0.4844
14835TIP3    H265997   2.762   6.797  16.216 -0.2559  0.1622 -0.7862
14836TIP3   OH265998   4.130   1.367  11.424 -0.2751  0.7573 -0.6504
14836TIP3    H165999   4.215   1.323  11.421 -0.3674  0.5702 -0.5391
14836TIP3    H266000   4.150   1.459  11.409  0.4793  1.4294  3.4312
14837TIP3   OH266001   0.269   5.918  14.765  0.4312  0.1170 -0.4163
14837TIP3    H166002   0.359   5.900  14.791 -0.3386 -0.6873  1.9979
14837TIP3    H266003   0.266   6.014  14.755  0.8133  0.6639  3.1020
14838TIP3   OH266004   3.178   0.774   5.370 -0.5288  0.1747 -0.1979
14838TIP3    H166005   3.156   0.751   5.280 -2.2755 -0.0367  0.2415
14838TIP3    H266006   3.265   0.738   5.384 -1.3672 -2.3185 -0.9176
14839TIP3   OH266007   0.348   3.760   1.996 -0.9109 -0.1601 -0.1762
14839TIP3    H166008   0.336   3.669   1.966 -1.3993 -0.8967  2.0777
14839TIP3    H266009   0.285   3.810   1.943 -0.6331 -1.1009 -1.4600
14840TIP3   OH266010   5.776   1.144   3.849 -0.0193 -0.1963 -0.4234
14840TIP3    H166011   5.816   1.128   3.934  0.5771 -0.4231 -0.7420
14840TIP3    H266012   5.682   1.143   3.866 -0.0354 -2.9455 -0.1796
14841TIP3   OH266013   5.630   4.534   5.335 -0.4462 -0.6325  0.3930
14841TIP3    H166014   5.617   4.596   5.407  0.9092 -1.1087  1.0776
14841TIP3    H266015   5.605   4.449   5.372 -2.4291 -0.5299 -0.5794
14842TIP3   OH266016   0.094   1.571   4.913  0.1505 -0.4442 -0.6440
14842TIP3    H166017   0.088   1.502   4.847 -0.2505 -1.9164  0.8754
14842TIP3    H266018   0.072   1.528   4.995  0.3118  1.4136  0.4269
14843TIP3   OH266019   3.588   3.638  13.068  0.5513 -0.1080  0.1871
14843TIP3    H166020   3.600   3.566  13.129 -0.8992 -0.7280 -0.2299
14843TIP3    H266021   3.578   3.715  13.123 -1.4073 -0.7509  0.8041
14844TIP3   OH266022   5.515   1.913  14.779  0.5109  0.2292 -0.4353
14844TIP3    H166023   5.524   1.818  14.767  0.8761  0.1521  0.4464
14844TIP3    H266024   5.478   1.923  14.867  2.9319  0.9912  0.5578
14845TIP3   OH266025   5.128   2.302   6.365 -0.3646  0.3276  0.5387
14845TIP3    H166026   5.042   2.261   6.356 -1.2456  2.1130  0.3352
14845TIP3    H266027   5.114   2.371   6.430  0.9495  0.5699  0.5760
14846TIP3   OH266028   1.865   5.959   5.283 -0.0879 -0.4329 -0.3776
14846TIP3    H166029   1.906   5.992   5.202  0.1446 -0.5789 -0.3224
14846TIP3    H266030   1.913   6.002   5.353  0.7795 -1.4993 -0.2847
14847TIP3   OH266031   3.736   5.905  15.024  0.6638  0.2762 -0.2462
14847TIP3    H166032   3.824   5.939  15.041  0.8998 -0.4980  0.1299
14847TIP3    H266033   3.743   5.811  15.040 -0.6132  0.4054  1.3543
14848TIP3   OH266034   3.368   4.892   1.428  0.3456  0.0156 -0.4540
14848TIP3    H166035   3.294   4.874   1.486  0.5545  1.9159  0.4767
14848TIP3    H266036   3.422   4.813   1.433 -0.2697 -0.3454  0.9745
14849TIP3   OH266037   4.047   3.393  13.845 -0.0900 -0.5890 -0.1903
14849TIP3    H166038   4.108   3.361  13.779 -1.1450 -1.6485 -0.6975
14849TIP3    H266039   4.098   3.395  13.926  1.6814  2.1965 -1.2339
14850TIP3   OH266040   4.815   5.148  12.984 -0.1353  0.2539  0.2068
14850TIP3    H166041   4.836   5.055  12.987 -0.8488  0.0615 -0.3459
14850TIP3    H266042   4.719   5.150  12.975 -0.0868  1.0285 -0.1954
14851TIP3   OH266043   3.244   1.889   1.516  0.3036  0.0799 -0.7237
14851TIP3    H166044   3.256   1.814   1.574 -0.1040  1.3460  1.0892
14851TIP3    H266045   3.151   1.910   1.522 -0.2575 -1.0938 -3.6568
14852TIP3   OH266046   1.177   5.960   3.095  0.1732 -0.2807 -0.2599
14852TIP3    H166047   1.249   5.925   3.043 -0.2083 -0.5554 -0.6156
14852TIP3    H266048   1.136   6.025   3.039 -0.7394 -1.1529 -0.6342
14853TIP3   OH266049   2.860   1.336   4.441 -0.0294 -0.5708 -0.4530
14853TIP3    H166050   2.919   1.312   4.370  0.5909 -0.5678  0.0559
14853TIP3    H266051   2.843   1.254   4.487  0.9472 -0.2982  0.4237
14854TIP3   OH266052   5.577   0.122   2.201 -0.1541  0.3866  0.5671
14854TIP3    H166053   5.656   0.115   2.255 -1.6517 -0.0508  2.8183
14854TIP3    H266054   5.599   0.187   2.135  1.3911  1.9305  2.4737
14855TIP3   OH266055   3.688   0.252   1.712 -0.3785 -0.1765  0.2864
14855TIP3    H166056   3.652   0.336   1.740 -2.3435 -0.7386 -0.4186
14855TIP3    H266057   3.627   0.221   1.645  0.3267 -2.1477  0.5074
14856TIP3   OH266058   3.513   3.024  13.317 -1.2911 -1.2242  0.0155
14856TIP3    H166059   3.468   3.063  13.392  0.0772 -0.8876  0.6969
14856TIP3    H266060   3.447   3.023  13.247 -1.5014  2.1791 -0.0110
14857TIP3   OH266061   5.876   6.101  12.931  0.5155 -0.6535 -0.3380
14857TIP3    H166062   5.970   6.083  12.929  0.2858 -1.9075 -1.4039
14857TIP3    H266063   5.840   6.050  12.858 -1.0196 -0.3490  0.1639
14858TIP3   OH266064   4.924   0.520  11.435 -0.3967 -0.4275  0.1363
14858TIP3    H166065   4.982   0.447  11.458 -1.2760 -1.3498 -0.4593
14858TIP3    H266066   4.974   0.598  11.456  1.3990 -1.1633 -1.1180
14859TIP3   OH266067   2.896   5.241   5.353 -0.5856  0.0739  0.0245
14859TIP3    H166068   2.888   5.245   5.448  1.3296  1.0199  0.2034
14859TIP3    H266069   2.875   5.330   5.323  1.7812  0.6406 -0.1034
14860TIP3   OH266070   4.103   0.552   2.306 -0.0325 -0.1239 -0.3325
14860TIP3    H166071   4.084   0.493   2.233  0.6816 -1.7857  0.7443
14860TIP3    H266072   4.133   0.494   2.376 -0.1150  1.4659  1.0912
14861TIP3   OH266073   3.703   0.929  13.358  0.0937  0.1399  0.4843
14861TIP3    H166074   3.676   0.892  13.274  1.2503 -1.6782  0.8663
14861TIP3    H266075   3.621   0.952  13.402 -0.6191 -0.8469 -0.2867
14862TIP3   OH266076   6.049   5.281  11.538  0.4374  0.2260 -0.3703
14862TIP3    H166077   6.124   5.256  11.483 -0.3051 -1.2202 -0.7631
14862TIP3    H266078   6.038   5.208  11.599 -1.0915  0.0699 -0.7951
14863TIP3   OH266079   3.867   0.014   0.503 -0.6148  0.3506 -0.4122
14863TIP3    H166080   3.960   0.031   0.485 -1.0826  1.7330 -1.6518
14863TIP3    H266081   3.858   0.029   0.597  0.4732 -0.1365 -0.2080
14864TIP3   OH266082   1.883   1.606   5.713 -0.3062 -0.4560 -0.0751
14864TIP3    H166083   1.804   1.637   5.668 -0.7750 -0.8068  0.4980
14864TIP3    H266084   1.859   1.606   5.806  0.9490  1.1929  0.3098
14865TIP3   OH266085   6.718   2.975   4.964  0.0493 -0.9345 -0.2338
14865TIP3    H166086   6.797   2.925   4.985  2.0492  2.1989  0.4618
14865TIP3    H266087   6.731   3.005   4.874 -0.2143 -0.2135 -0.0425
14866TIP3   OH266088   0.580   5.329   3.183 -0.3037  0.0934  0.5085
14866TIP3    H166089   0.600   5.366   3.269 -0.1948  0.8955  0.1478
14866TIP3    H266090   0.632   5.249   3.179  0.1642  0.3651  0.9518
14867TIP3   OH266091   6.271   3.182  16.834 -0.1365 -0.2219  0.2847
14867TIP3    H166092   6.261   3.089  16.853  0.9081 -0.3538  0.2403
14867TIP3    H266093   6.342   3.211  16.891 -0.4807  0.5646  0.3263
14868TIP3   OH266094   2.915   0.924   0.510  0.0816  0.3039  0.2918
14868TIP3    H166095   2.839   0.951   0.459 -0.2257 -1.1650 -0.0640
14868TIP3    H266096   2.941   1.003   0.558 -2.5947  0.4875  1.6324
14869TIP3   OH266097   2.133   2.972  11.821  0.3951  0.2297  0.1010
14869TIP3    H166098   2.109   3.015  11.902 -0.9546  0.0857 -0.1939
14869TIP3    H266099   2.196   3.031  11.779  1.3973  0.1218  1.3961
14870TIP3   OH266100   1.660   0.851   1.524 -1.0479 -0.3770 -0.2279
14870TIP3    H166101   1.707   0.770   1.545 -0.1588  0.3916  0.8861
14870TIP3    H266102   1.725   0.920   1.537 -1.6222  0.4947 -1.7301
14871TIP3   OH266103   4.983   5.294   5.912  0.0562 -1.1346  0.1481
14871TIP3    H166104   5.014   5.377   5.875  1.7678 -0.4954  2.7404
14871TIP3    H266105   4.887   5.301   5.907  0.1485 -0.6087 -2.8428
14872TIP3   OH266106   2.765   2.752   3.868 -0.2359  0.3316 -0.2928
14872TIP3    H166107   2.709   2.829   3.873 -0.0035  0.5051 -0.3786
14872TIP3    H266108   2.776   2.725   3.959  1.7144  1.8565 -0.0247
14873TIP3   OH266109   3.797   1.516  11.268  0.2004 -0.1135 -0.2402
14873TIP3    H166110   3.859   1.453  11.231  1.0840 -0.8621  2.3231
14873TIP3    H266111   3.850   1.574  11.322 -1.0156  0.9750 -0.1695
14874TIP3   OH266112   3.752   0.118  14.026  0.8534 -0.4644  0.5403
14874TIP3    H166113   3.776   0.026  14.013  1.6673  0.0693 -2.5510
14874TIP3    H266114   3.657   0.119  14.023  0.8675 -1.1068 -0.3067
14875TIP3   OH266115   4.557   5.162  15.341  0.1425  0.2052  0.0312
14875TIP3    H166116   4.562   5.097  15.411  0.6881  1.6935  1.4424
14875TIP3    H266117   4.559   5.111  15.260  1.7750 -1.4681  1.0579
14876TIP3   OH266118   4.514   2.098   3.277  0.5299  0.0630 -0.2874
14876TIP3    H166119   4.433   2.047   3.280  0.1049  0.7743  1.3209
14876TIP3    H266120   4.582   2.034   3.255 -0.3218 -0.7281 -0.6738
14877TIP3   OH266121   6.133   3.769   0.089  0.3364 -0.0371  0.6504
14877TIP3    H166122   6.223   3.771   0.056 -0.1170 -0.2206 -0.6673
14877TIP3    H266123   6.098   3.685   0.060  0.4587 -1.0629  3.2529
14878TIP3   OH266124   3.094   1.280   4.283 -0.2334  0.4115 -0.3745
14878TIP3    H166125   3.083   1.370   4.251  1.8475  0.8345 -0.0521
14878TIP3    H266126   3.176   1.282   4.331 -0.5223 -1.5221  0.2693
14879TIP3   OH266127   3.609   0.529   0.725 -0.5375  0.2253  0.1980
14879TIP3    H166128   3.630   0.467   0.655 -1.1108  2.3670 -2.0184
14879TIP3    H266129   3.514   0.521   0.735 -0.6159  0.7165 -0.1095
14880TIP3   OH266130   0.734   6.141   3.473  0.0989 -0.4538  0.1178
14880TIP3    H166131   0.773   6.057   3.452 -1.9807 -1.8164  1.3567
14880TIP3    H266132   0.808   6.198   3.493  1.5058 -2.5797  1.2767
14881TIP3   OH266133   0.734   3.121   1.968 -0.3149  0.1322 -0.2302
14881TIP3    H166134   0.654   3.151   1.926 -2.4425 -1.8183  2.1281
14881TIP3    H266135   0.726   3.026   1.974  2.2623 -0.1652 -0.0065
14882TIP3   OH266136   1.688   4.716  14.501 -0.0103 -0.0608 -0.3735
14882TIP3    H166137   1.639   4.674  14.571 -0.3287 -3.1176 -2.2355
14882TIP3    H266138   1.736   4.787  14.544 -2.1947 -0.0726  2.3844
14883TIP3   OH266139   3.148   4.542   4.289 -0.0556 -0.3161 -0.3358
14883TIP3    H166140   3.225   4.492   4.265  0.9319 -0.9971  3.5050
14883TIP3    H266141   3.182   4.624   4.324 -0.9985 -0.5591  1.2803
14884TIP3   OH266142   2.163   3.962  13.438 -0.3544 -0.9507 -0.5151
14884TIP3    H166143   2.225   4.021  13.482 -1.7593  0.3518 -0.1984
14884TIP3    H266144   2.216   3.885  13.415  0.9123 -0.8015  1.6072
14885TIP3   OH266145   2.718   1.746   0.961  0.0907  0.1155 -0.1318
14885TIP3    H166146   2.784   1.684   0.993  0.2335  0.6466  0.6300
14885TIP3    H266147   2.770   1.813   0.915 -0.0711 -0.3702 -1.0457
14886TIP3   OH266148   3.694   5.526  15.862 -0.1679 -0.4197 -0.7131
14886TIP3    H166149   3.681   5.574  15.944 -1.1785 -0.2521 -0.9615
14886TIP3    H266150   3.787   5.504  15.862 -0.2780 -0.9924  0.7979
14887TIP3   OH266151   5.201   1.907   3.314  0.3062  0.1853  0.0396
14887TIP3    H166152   5.228   1.949   3.396  0.1427  0.7631 -0.2017
14887TIP3    H266153   5.210   1.813   3.332 -2.1645  0.1465  1.5906
14888TIP3   OH266154   4.373   1.507  12.688  0.5747  0.2425 -0.1542
14888TIP3    H166155   4.445   1.460  12.730  1.2855  1.7055  0.3208
14888TIP3    H266156   4.416   1.564  12.624 -0.3744 -0.7759 -1.7722
14889TIP3   OH266157   5.114   0.875   0.582 -0.3556 -0.0332 -0.0060
14889TIP3    H166158   5.182   0.847   0.521  0.4978  0.2768  0.7889
14889TIP3    H266159   5.049   0.918   0.526 -0.1614 -0.7731 -0.8399
14890TIP3   OH266160   0.318   5.690  15.278 -0.3863 -0.4323  0.4572
14890TIP3    H166161   0.317   5.608  15.229  0.1349  0.1617 -0.5879
14890TIP3    H266162   0.403   5.729  15.257  0.0473 -0.3633  2.2110
14891TIP3   OH266163   5.397   6.218  16.067  0.2622  0.5315  0.3928
14891TIP3    H166164   5.438   6.132  16.067  2.4193  1.4502 -1.8290
14891TIP3    H266165   5.398   6.244  16.159  0.2863 -1.4605  1.0031
14892TIP3   OH266166   4.591   2.722   0.165  0.3951  0.0789 -0.4856
14892TIP3    H166167   4.614   2.747   0.076  0.9095  1.3181 -0.0356
14892TIP3    H266168   4.509   2.768   0.182  0.0362 -0.5525 -0.4782
14893TIP3   OH266169   1.815   4.633  14.279  0.1129  0.1723 -0.3113
14893TIP3    H166170   1.771   4.664  14.358 -0.4083 -0.3910 -0.3685
14893TIP3    H266171   1.903   4.608  14.309 -0.1083 -0.1199  0.1152
14894TIP3   OH266172   2.390   5.811  12.200  0.0624 -0.1099 -0.0338
14894TIP3    H166173   2.314   5.864  12.226 -0.0515 -0.7956  1.1015
14894TIP3    H266174   2.432   5.788  12.283  0.8049 -0.7663 -0.5869
14895TIP3   OH266175   0.214   6.481  12.446 -0.0433 -0.1395  0.5218
14895TIP3    H166176   0.234   6.534  12.523  1.7208  0.3445 -0.2001
14895TIP3    H266177   0.255   6.530  12.373 -4.1471  1.0473 -1.2689
14896TIP3   OH266178   6.759   2.038   0.827  0.7875 -0.4919 -0.1724
14896TIP3    H166179   6.748   1.954   0.872 -2.2199 -0.3729 -0.4615
14896TIP3    H266180   6.775   2.015   0.736  0.5223 -0.7596 -0.1538
14897TIP3   OH266181   2.534   5.582   2.977 -0.2649  0.4898 -0.8119
14897TIP3    H166182   2.620   5.588   3.018  1.2767 -1.5689 -3.3773
14897TIP3    H266183   2.503   5.494   2.998 -1.5704  1.0667 -0.2575
14898TIP3   OH266184   3.334   6.614   4.228  0.0373  0.3906  0.1383
14898TIP3    H166185   3.421   6.585   4.255  0.0994  1.6537  1.4664
14898TIP3    H266186   3.274   6.559   4.279  0.0325 -0.6332 -0.9445
14899TIP3   OH266187   2.509   0.494  16.237 -0.1595 -0.6982 -0.1151
14899TIP3    H166188   2.477   0.435  16.305 -0.2102 -0.5023  0.0328
14899TIP3    H266189   2.522   0.578  16.282 -0.3103 -0.5340 -0.3731
14900TIP3   OH266190   1.276   3.956   4.492 -0.3987  0.2638 -0.5646
14900TIP3    H166191   1.310   3.933   4.578 -3.0355 -0.1212  0.4895
14900TIP3    H266192   1.223   4.034   4.507  0.0321  0.8907 -2.0849
14901TIP3   OH266193   6.246   6.282   0.755  0.3739  0.4441  0.0001
14901TIP3    H166194   6.234   6.187   0.752  1.3714  0.3247 -1.7292
14901TIP3    H266195   6.240   6.310   0.664 -0.5197  2.1505  0.5318
14902TIP3   OH266196   2.073   0.133   3.681 -0.2415 -0.2828 -0.8442
14902TIP3    H166197   2.036   0.046   3.696  1.9347 -1.0202  0.9571
14902TIP3    H266198   2.163   0.116   3.653  0.6422  1.3338  0.7589
14903TIP3   OH266199   4.324   4.534  12.757 -0.1193 -0.4281 -0.2275
14903TIP3    H166200   4.301   4.491  12.840  2.2850  0.3335  0.9585
14903TIP3    H266201   4.391   4.598  12.782 -0.3278  0.8042 -2.5945
14904TIP3   OH266202   5.536   1.813   4.753 -0.5365  0.3326 -0.1195
14904TIP3    H166203   5.585   1.885   4.792  1.9796 -0.2285 -2.0151
14904TIP3    H266204   5.531   1.835   4.660 -0.7875 -1.3443 -0.5291
14905TIP3   OH266205   6.351   5.676   4.817 -0.4937 -0.5238  0.0922
14905TIP3    H166206   6.297   5.649   4.891  0.0869 -2.5896 -0.1798
14905TIP3    H266207   6.388   5.595   4.783  2.0179  0.7039 -0.3259
14906TIP3   OH266208   6.691   1.706   4.892 -0.1646 -0.1498 -0.1123
14906TIP3    H166209   6.655   1.771   4.952  0.7267  1.1096 -0.8841
14906TIP3    H266210   6.785   1.710   4.907 -0.0476 -0.7486 -0.6848
14907TIP3   OH266211   3.892   5.120  14.304 -0.0592  0.4217  0.3965
14907TIP3    H166212   3.918   5.155  14.219  0.0846  1.5932  0.9071
14907TIP3    H266213   3.866   5.030  14.286 -0.9881  0.9552 -1.0452
14908TIP3   OH266214   4.153   6.365   2.645  0.2671 -0.6349  1.3100
14908TIP3    H166215   4.165   6.280   2.689 -0.4343 -1.0835  0.6581
14908TIP3    H266216   4.164   6.346   2.552  2.4899  0.4459  1.2876
14909TIP3   OH266217   3.815   4.217  10.564  0.2234 -0.3013 -0.2000
14909TIP3    H166218   3.882   4.148  10.558  1.3501  0.6769  0.7038
14909TIP3    H266219   3.850   4.289  10.511 -0.7748 -0.2768 -0.8453
14910TIP3   OH266220   1.117   6.055   3.646  0.2877  0.2093 -0.2062
14910TIP3    H166221   1.160   6.091   3.724 -0.0760 -1.4659  0.8055
14910TIP3    H266222   1.189   6.018   3.594  0.3713 -0.0136  0.0687
14911TIP3   OH266223   1.213   0.393   6.766  0.2851  0.1711 -0.3987
14911TIP3    H166224   1.211   0.317   6.708  0.0028 -0.7668  0.7894
14911TIP3    H266225   1.125   0.398   6.802  0.3430  0.9913 -0.3571
14912TIP3   OH266226   6.000   6.219   0.114 -0.0031 -0.1166  0.0218
14912TIP3    H166227   5.908   6.201   0.129 -0.3068  1.3636  0.1237
14912TIP3    H266228   6.016   6.301   0.160  2.2204 -1.9908  2.9092
14913TIP3   OH266229   2.147   6.194   3.573 -0.0177  0.4678  0.2659
14913TIP3    H166230   2.197   6.273   3.552  0.3909 -0.0269 -0.6796
14913TIP3    H266231   2.063   6.207   3.530 -1.1618  1.7574  2.6929
14914TIP3   OH266232   2.243   1.444  11.927  0.5782 -0.0023  0.1485
14914TIP3    H166233   2.260   1.448  11.833 -1.1658 -0.2661 -0.2196
14914TIP3    H266234   2.221   1.534  11.951 -2.0193 -0.4137 -0.3903
14915TIP3   OH266235   2.513   5.001   5.392  0.2718  0.1435 -0.1569
14915TIP3    H166236   2.508   5.045   5.477 -2.1386  0.1997 -0.2544
14915TIP3    H266237   2.421   4.989   5.366  0.9202 -1.8653 -1.7344
14916TIP3   OH266238   5.771   5.681   4.582  0.3818 -0.2877  0.0399
14916TIP3    H166239   5.821   5.694   4.663  0.0799  1.1098  0.0284
14916TIP3    H266240   5.745   5.589   4.585  1.2947 -0.5381  1.0001
14917TIP3   OH266241   5.208   6.247   4.752  0.4518  0.7538  0.1498
14917TIP3    H166242   5.246   6.169   4.711  1.3458  1.1239  0.2547
14917TIP3    H266243   5.153   6.285   4.684  0.1261  0.1253  0.0472
14918TIP3   OH266244   6.071   3.037  14.621 -0.0535  0.4112 -0.4529
14918TIP3    H166245   6.052   3.116  14.570 -1.0017  0.5874  0.1490
14918TIP3    H266246   6.085   3.069  14.710  0.0264 -0.0556 -0.2951
14919TIP3   OH266247   5.355   1.172  15.793  0.3273  0.1659 -0.0191
14919TIP3    H166248   5.354   1.104  15.726  1.2300 -0.1674  0.2951
14919TIP3    H266249   5.446   1.176  15.823 -0.1233  0.0166  1.4809
14920TIP3   OH266250   6.308   1.771   0.121  0.0402 -0.7433 -0.2602
14920TIP3    H166251   6.349   1.719   0.190  2.4202  0.1192 -0.8995
14920TIP3    H266252   6.319   1.718   0.041 -1.1952 -1.0054 -0.2758
14921TIP3   OH266253   1.992   3.491   2.662  0.2126  0.0554  0.0041
14921TIP3    H166254   1.897   3.495   2.672  0.1675  2.3426 -0.7013
14921TIP3    H266255   2.006   3.440   2.582 -0.2926 -1.8114  1.0565
14922TIP3   OH266256   5.928   0.672   3.631  0.2705  0.0323 -0.0595
14922TIP3    H166257   5.971   0.738   3.577  1.1469 -0.2586  0.2650
14922TIP3    H266258   5.923   0.711   3.718  3.4562 -1.3565  0.8860
14923TIP3   OH266259   3.863   4.738   4.436 -0.6274 -0.3433 -0.0665
14923TIP3    H166260   3.913   4.774   4.510 -1.0532  0.2722 -0.0652
14923TIP3    H266261   3.798   4.806   4.417  0.1609 -0.0266 -1.7093
14924TIP3   OH266262   1.694   3.618  13.601 -0.0078  0.2030  0.1238
14924TIP3    H166263   1.655   3.531  13.605 -1.3032  0.6677 -1.3406
14924TIP3    H266264   1.665   3.654  13.517  1.8510  1.4328 -0.0706
14925TIP3   OH266265   6.339   6.071   5.788 -0.4325 -0.5254  0.4628
14925TIP3    H166266   6.334   5.980   5.820  0.5909 -0.9974 -0.6543
14925TIP3    H266267   6.429   6.098   5.808  0.1670 -0.7469 -1.6899
14926TIP3   OH266268   1.293   4.611  12.058 -0.3055  0.1133 -0.2080
14926TIP3    H166269   1.307   4.701  12.088 -1.4736  0.2479 -0.0263
14926TIP3    H266270   1.378   4.569  12.071  0.5483  1.4306 -1.2122
14927TIP3   OH266271   1.436   3.885  12.724 -0.0830  0.3278  0.3353
14927TIP3    H166272   1.521   3.912  12.689 -0.8861  2.5407 -0.0582
14927TIP3    H266273   1.400   3.828  12.656 -0.5022  2.4779 -1.3916
14928TIP3   OH266274   1.453   1.840   1.053 -0.2132 -0.0960  0.1397
14928TIP3    H166275   1.490   1.755   1.028 -0.2728  0.0871 -0.5803
14928TIP3    H266276   1.451   1.837   1.149  0.4021 -0.6470  0.1473
14929TIP3   OH266277   5.659   0.326  13.962 -0.3216  0.4511  0.4613
14929TIP3    H166278   5.672   0.379  13.883 -1.0769 -1.5676 -1.1331
14929TIP3    H266279   5.747   0.313  13.997 -0.0334  1.8908  0.3323
14930TIP3   OH266280   6.067   0.742  15.738  0.0838 -0.5550 -0.8688
14930TIP3    H166281   6.004   0.795  15.787  1.2977  0.2579 -0.1389
14930TIP3    H266282   6.013   0.684  15.684 -1.3078  1.4901 -1.7822
14931TIP3   OH266283   3.924   4.804  11.102 -0.3383 -0.3330 -0.2410
14931TIP3    H166284   3.962   4.892  11.099 -1.7646  0.2825 -1.3546
14931TIP3    H266285   3.939   4.769  11.015  1.4081 -1.7604  0.5828
14932TIP3   OH266286   2.326   1.268   0.091  0.2206  0.9507  0.3011
14932TIP3    H166287   2.413   1.240   0.062  0.1621 -0.7164  1.6242
14932TIP3    H266288   2.289   1.312   0.014  0.4342 -2.4516 -1.9574
14933TIP3   OH266289   5.366   2.597   4.224 -0.4985  0.1698 -0.1524
14933TIP3    H166290   5.447   2.597   4.172 -0.7121 -1.6212 -0.5539
14933TIP3    H266291   5.387   2.543   4.300 -1.1664  0.1090 -0.0053
14934TIP3   OH266292   0.913   5.743  12.318  0.3794 -0.0517 -0.2883
14934TIP3    H166293   0.848   5.772  12.382  0.3940  1.7390 -1.0282
14934TIP3    H266294   0.881   5.778  12.234  1.7184 -0.0926 -0.8379
14935TIP3   OH266295   5.680   4.534  12.567 -0.5225 -0.0533 -0.1726
14935TIP3    H166296   5.618   4.469  12.601  0.5690 -1.6456 -1.1434
14935TIP3    H266297   5.645   4.618  12.598 -2.5299 -0.9909  0.2580
14936TIP3   OH266298   4.163   4.975  16.209  0.0637  0.0295  0.1676
14936TIP3    H166299   4.244   4.961  16.160  0.3799 -0.1088  0.7294
14936TIP3    H266300   4.190   4.979  16.300 -0.7974 -2.1416  0.5676
14937TIP3   OH266301   6.499   5.937  13.799  0.0877  0.0258  0.5529
14937TIP3    H166302   6.485   5.849  13.764  1.9101 -0.3431  0.6588
14937TIP3    H266303   6.515   5.923  13.893 -0.8676  0.6082  0.8118
14938TIP3   OH266304   0.261   4.200  10.757 -0.0959 -0.2828  0.2339
14938TIP3    H166305   0.289   4.113  10.729  0.1588 -0.8232  2.0337
14938TIP3    H266306   0.229   4.242  10.677  0.1900 -1.8586 -0.7509
14939TIP3   OH266307   4.393   4.598   3.712  0.6322 -0.0113 -0.3286
14939TIP3    H166308   4.309   4.573   3.749  0.9024 -0.8578 -0.2561
14939TIP3    H266309   4.381   4.589   3.617  0.1959  1.3378 -0.4216
14940TIP3   OH266310   5.981   3.675  14.968  0.0799  0.0534  0.4182
14940TIP3    H166311   6.019   3.723  15.041  1.2211 -1.7432  1.0644
14940TIP3    H266312   5.957   3.590  15.005 -1.3090 -0.1346 -0.8179
14941TIP3   OH266313   1.816   4.517  12.276 -0.1638 -0.1873 -0.9650
14941TIP3    H166314   1.769   4.437  12.299 -1.7703  1.3278  1.4260
14941TIP3    H266315   1.756   4.564  12.218 -0.7818  0.8134  0.4362
14942TIP3   OH266316   3.818   2.510  13.065 -0.0835  0.0798  0.2150
14942TIP3    H166317   3.878   2.579  13.037 -0.0272 -0.7777 -1.9364
14942TIP3    H266318   3.745   2.557  13.106 -0.2603  1.4909 -1.5692
14943TIP3   OH266319   3.959   2.219  12.676 -0.3421  0.7998 -0.8714
14943TIP3    H166320   3.982   2.161  12.603  0.0601 -1.9586  1.2864
14943TIP3    H266321   3.892   2.171  12.725  0.6463  1.7049  1.5333
14944TIP3   OH266322   1.875   2.649   2.277 -0.6348 -0.2964  0.2947
14944TIP3    H166323   1.868   2.558   2.303 -0.7960 -0.1520  0.7686
14944TIP3    H266324   1.940   2.686   2.337 -1.2169  0.1061  0.6995
14945TIP3   OH266325   0.136   5.983   1.922 -0.1171 -0.3359 -0.0758
14945TIP3    H166326   0.098   5.902   1.956 -0.8588 -1.0584 -2.4671
14945TIP3    H266327   0.180   5.957   1.841 -0.8205  1.7003 -1.1830
14946TIP3   OH266328   5.647   3.202  14.886 -0.2891 -0.6893  0.1227
14946TIP3    H166329   5.701   3.125  14.869 -0.3419 -0.8424  0.6365
14946TIP3    H266330   5.698   3.276  14.852 -0.5795 -1.0216 -1.0920
14947TIP3   OH266331   0.534   6.687   1.360 -0.2510 -0.0577 -0.0825
14947TIP3    H166332   0.577   6.769   1.385  0.0657 -0.2092 -0.1227
14947TIP3    H266333   0.526   6.638   1.441  1.8540 -1.0590 -0.3885
14948TIP3   OH266334   6.132   2.383  12.176  0.4097 -0.2235  0.5760
14948TIP3    H166335   6.186   2.462  12.172  0.1210 -0.0299  0.5178
14948TIP3    H266336   6.043   2.415  12.187  0.2296 -0.5236  0.0463
14949TIP3   OH266337   5.085   6.434   2.160 -0.1274 -0.0176 -0.3902
14949TIP3    H166338   5.027   6.372   2.206 -2.0546  0.9435 -1.4050
14949TIP3    H266339   5.118   6.385   2.085 -0.1962 -0.3625 -0.1988
14950TIP3   OH266340   1.318   6.127   2.554 -0.6291 -0.2774  0.5932
14950TIP3    H166341   1.307   6.086   2.468 -1.7768  0.2125  0.4873
14950TIP3    H266342   1.260   6.077   2.612 -0.0291 -0.4670  1.0412
14951TIP3   OH266343   1.055   2.488   1.364  0.2978  0.0860 -0.2639
14951TIP3    H166344   1.036   2.432   1.289  0.5334  0.0787 -0.3163
14951TIP3    H266345   0.988   2.464   1.428  0.2497 -0.0853 -0.3763
14952TIP3   OH266346   4.436   6.308  12.423  0.1068 -0.2699 -0.0479
14952TIP3    H166347   4.489   6.354  12.358 -0.0432 -0.4822 -0.3252
14952TIP3    H266348   4.350   6.300  12.382 -0.4121  0.9037  0.7788
14953TIP3   OH266349   5.136   4.833  13.450 -0.5746 -0.0397  0.0693
14953TIP3    H166350   5.062   4.894  13.455 -1.1427 -0.5834 -1.1734
14953TIP3    H266351   5.184   4.860  13.371  0.2014 -0.0901  0.5130
14954TIP3   OH266352   0.012   6.026  15.631  0.2490  0.3233  0.4740
14954TIP3    H166353  -0.001   6.074  15.549 -0.1963 -1.9510 -0.8981
14954TIP3    H266354  -0.069   6.040  15.680  0.5748  1.8282  0.6062
14955TIP3   OH266355   0.284   6.017  12.142  0.0108 -0.3198 -0.0799
14955TIP3    H166356   0.261   6.064  12.222 -0.6890 -0.8775  0.0528
14955TIP3    H266357   0.333   6.081  12.090 -0.4536  0.3828  0.3332
14956TIP3   OH266358   2.960   2.223  15.988  0.6556 -0.1302 -0.3422
14956TIP3    H166359   2.983   2.309  15.955  0.5138  0.4156  0.9316
14956TIP3    H266360   3.044   2.185  16.016  0.5563  0.1895  0.4280
14957TIP3   OH266361   2.926   0.337  16.081 -0.4653  0.1827  0.0154
14957TIP3    H166362   2.977   0.314  16.002  0.3107  1.6080  0.0709
14957TIP3    H266363   2.992   0.354  16.147 -1.0291  1.3940  0.2897
14958TIP3   OH266364   2.544   0.070   5.094 -0.1559 -0.9074 -0.2883
14958TIP3    H166365   2.549   0.166   5.088 -0.2575 -0.9877 -2.7358
14958TIP3    H266366   2.453   0.053   5.120  0.0258 -0.3674  0.7801
14959TIP3   OH266367   0.055   3.264  11.637 -0.1663 -0.6281  0.5387
14959TIP3    H166368   0.044   3.210  11.715  0.2097 -0.9300  0.3879
14959TIP3    H266369  -0.031   3.303  11.622 -0.4623 -1.2285  0.6220
14960TIP3   OH266370   3.437   3.618   5.898  0.8729  0.0508  0.0667
14960TIP3    H166371   3.510   3.566   5.865 -0.0934  0.1747 -2.5188
14960TIP3    H266372   3.434   3.694   5.840 -1.2523  0.0856  0.1439
14961TIP3   OH266373   4.581   6.559  15.827 -0.0291  0.4120  0.2896
14961TIP3    H166374   4.563   6.523  15.740 -0.4904 -1.7319  1.2270
14961TIP3    H266375   4.632   6.639  15.809 -1.9812  1.2573 -2.0083
14962TIP3   OH266376   3.027   1.952   2.071  0.3182  0.0617  0.0385
14962TIP3    H166377   3.114   1.991   2.063  0.2606  0.7654  2.1646
14962TIP3    H266378   2.967   2.025   2.056  0.1102 -0.1652 -0.2419
14963TIP3   OH266379   4.446   0.809  14.995 -0.1412  0.1929 -0.0135
14963TIP3    H166380   4.356   0.840  15.007  0.3480  0.9204  2.1876
14963TIP3    H266381   4.447   0.723  15.036  0.8452  1.4656  2.8730
14964TIP3   OH266382   1.348   0.801   1.802  0.3354 -0.0210 -0.7053
14964TIP3    H166383   1.443   0.800   1.800  0.3953  1.9771 -1.4915
14964TIP3    H266384   1.325   0.782   1.893  1.5946  1.6785  0.0126
14965TIP3   OH266385   6.638   6.694  11.386 -0.4158  0.1403 -0.0096
14965TIP3    H166386   6.584   6.751  11.331 -0.2212  1.6376  1.2791
14965TIP3    H266387   6.665   6.623  11.327  0.4624  2.0811 -2.1114
14966TIP3   OH266388   3.995   0.332  15.941 -0.0954  0.3387  0.7756
14966TIP3    H166389   4.044   0.313  16.021  0.2469 -1.7195  0.1214
14966TIP3    H266390   3.962   0.247  15.912 -0.4331  1.0773 -1.1251
14967TIP3   OH266391   4.459   1.178  13.654 -0.0604 -0.1970 -0.2111
14967TIP3    H166392   4.388   1.116  13.639 -1.5636  1.0520  1.3281
14967TIP3    H266393   4.506   1.143  13.731 -0.1509 -0.0713 -0.0980
14968TIP3   OH266394   6.420   4.935  14.135 -0.1681  0.2471  0.6355
14968TIP3    H166395   6.346   4.937  14.074  1.4209  2.2086 -1.4410
14968TIP3    H266396   6.453   4.845  14.131 -0.3468  0.2320 -1.1739
14969TIP3   OH266397   3.990   2.830  12.154  0.1781  0.2712 -0.1893
14969TIP3    H166398   4.014   2.813  12.245  1.2596  0.1837 -0.4648
14969TIP3    H266399   4.039   2.910  12.131 -0.4008  0.5241 -0.5784
14970TIP3   OH266400   0.700   4.198  14.001  0.4619  0.3770  0.4678
14970TIP3    H166401   0.662   4.189  13.913  2.0146  1.1549 -0.3119
14970TIP3    H266402   0.718   4.108  14.028 -1.0172  0.0484  0.4806
14971TIP3   OH266403   0.580   1.772  12.107 -0.3803  0.3023 -0.5007
14971TIP3    H166404   0.628   1.743  12.185 -0.0571 -2.1249 -1.5104
14971TIP3    H266405   0.613   1.860  12.090 -0.7644  1.0887  2.2960
14972TIP3   OH266406   4.937   4.045  12.369 -0.2411  0.3922  0.0036
14972TIP3    H166407   4.969   4.110  12.306 -2.6756  0.4643 -1.2796
14972TIP3    H266408   4.985   3.966  12.348 -0.0988  0.7603 -1.1143
14973TIP3   OH266409   3.056   1.961   5.278 -0.5694 -0.2174  0.1605
14973TIP3    H166410   3.140   2.002   5.300 -0.3503 -0.7603  0.3679
14973TIP3    H266411   2.995   1.994   5.344 -1.1167  2.0523 -1.3711
14974TIP3   OH266412   1.840   1.712  11.691  0.4258  0.0248 -0.0785
14974TIP3    H166413   1.893   1.636  11.666 -0.3819 -0.7880  0.5786
14974TIP3    H266414   1.889   1.752  11.763  0.5374 -0.2829  0.0222
14975TIP3   OH266415   1.073   0.772   3.657 -0.6359 -0.1848  0.4483
14975TIP3    H166416   1.056   0.827   3.733 -1.7070 -0.2293  0.2564
14975TIP3    H266417   1.090   0.835   3.586 -0.9826 -0.1143  0.4260
14976TIP3   OH266418   6.540   0.109  12.333 -0.0671 -0.7175  0.1495
14976TIP3    H166419   6.477   0.082  12.267 -1.1475  0.2025  0.7668
14976TIP3    H266420   6.514   0.061  12.412  0.0985 -0.4538  0.3669
14977TIP3   OH266421   1.799   0.088  13.322  0.3806 -0.5789  0.0214
14977TIP3    H166422   1.757   0.005  13.342  2.9702 -1.5304  2.0011
14977TIP3    H266423   1.847   0.111  13.401  1.5173  1.6975 -1.2271
14978TIP3   OH266424   3.257   5.757  12.801  0.2654 -0.1285 -0.1721
14978TIP3    H166425   3.308   5.772  12.881  0.7213  0.6459 -0.5955
14978TIP3    H266426   3.318   5.777  12.730 -0.0302 -1.1443 -0.7318
14979TIP3   OH266427   3.894   1.315  12.114  0.2406  0.2281  0.3556
14979TIP3    H166428   3.871   1.401  12.079  0.2838 -0.1816 -0.7385
14979TIP3    H266429   3.925   1.332  12.202  0.2493  1.3338  0.1513
14980TIP3   OH266430   2.720   4.782   3.797 -0.0632  0.6696 -0.6840
14980TIP3    H166431   2.788   4.764   3.862 -1.5312 -0.4449  0.5878
14980TIP3    H266432   2.717   4.702   3.744 -1.4216  0.0622  0.2573
14981TIP3   OH266433   1.743   1.161  12.000 -0.4146 -0.3778 -0.0761
14981TIP3    H166434   1.740   1.244  12.047 -1.1060 -0.8653  0.7836
14981TIP3    H266435   1.782   1.182  11.915  0.0787  0.6825  0.3999
14982TIP3   OH266436   2.455   3.543  13.133 -0.2400  0.0895  0.2688
14982TIP3    H166437   2.451   3.629  13.092  0.3756  0.3555  0.7473
14982TIP3    H266438   2.530   3.548  13.193 -0.0841 -0.8323  0.1726
14983TIP3   OH266439   0.750   3.676   3.816  0.0892  0.5645  0.4628
14983TIP3    H166440   0.799   3.602   3.852  1.3398  0.6033 -1.0593
14983TIP3    H266441   0.817   3.741   3.793 -0.8818  1.6438  0.5863
14984TIP3   OH266442   1.013   2.521  12.119  0.7220  0.9455  0.0015
14984TIP3    H166443   1.050   2.482  12.198 -0.7124 -0.6080 -0.0472
14984TIP3    H266444   1.027   2.615  12.131  1.2422  0.6901  1.7346
14985TIP3   OH266445   1.225   0.755  15.261  0.3791 -0.0660 -0.3808
14985TIP3    H166446   1.243   0.807  15.182 -1.2353  0.9691 -0.1089
14985TIP3    H266447   1.153   0.697  15.235  0.9689 -0.9124 -0.1475
14986TIP3   OH266448   2.236   0.218  15.309  0.1538  0.4732 -0.2204
14986TIP3    H166449   2.323   0.258  15.302 -0.1751  1.1372 -0.6437
14986TIP3    H266450   2.178   0.277  15.260 -0.2827 -0.7205 -1.2022
14987TIP3   OH266451   2.012   0.215   2.840  0.1723 -0.0843 -0.5739
14987TIP3    H166452   2.047   0.278   2.777  0.0075 -1.6563 -2.3349
14987TIP3    H266453   2.082   0.150   2.851  1.3322  1.5253  3.1225
14988TIP3   OH266454   1.934   2.528  12.556 -0.4027  0.6328  0.2253
14988TIP3    H166455   1.965   2.492  12.638 -0.7087 -0.0922  0.0300
14988TIP3    H266456   1.947   2.458  12.492  0.3252  1.3662 -0.4635
14989TIP3   OH266457   6.458   3.092   5.476 -0.5786 -0.1332 -0.3364
14989TIP3    H166458   6.399   3.154   5.519 -0.9580 -0.0553 -0.9589
14989TIP3    H266459   6.444   3.010   5.522  1.2050  0.5938  1.6800
14990TIP3   OH266460   5.355   2.426   0.436  0.4459 -0.1055  0.0454
14990TIP3    H166461   5.442   2.389   0.421 -0.3036 -1.3455 -1.5328
14990TIP3    H266462   5.332   2.396   0.524  1.3331 -0.3522  0.2046
14991TIP3   OH266463   1.010   4.004  12.570  0.5439 -0.3224 -0.7378
14991TIP3    H166464   0.974   4.025  12.483  1.5443 -0.9091 -1.3143
14991TIP3    H266465   1.105   4.012  12.559  0.8053 -2.1484 -0.2096
14992TIP3   OH266466   5.220   5.889  14.210  0.0171  0.1350  0.6278
14992TIP3    H166467   5.279   5.964  14.215 -1.2069  1.1433  0.5336
14992TIP3    H266468   5.246   5.833  14.283  0.6748  0.8658  0.9687
14993TIP3   OH266469   2.069   5.090  14.808  0.0473 -0.2923 -0.2879
14993TIP3    H166470   1.983   5.129  14.824 -0.1476 -0.2844 -1.2863
14993TIP3    H266471   2.131   5.163  14.815 -0.0969 -0.1729 -0.2458
14994TIP3   OH266472   0.541   0.924  16.313  0.0477 -0.4846 -0.1935
14994TIP3    H166473   0.461   0.881  16.283 -0.4807  0.0078  0.4785
14994TIP3    H266474   0.588   0.857  16.363 -0.5260 -0.4436  0.4193
14995TIP3   OH266475   3.864   4.138   2.162  0.6511  0.6353 -0.3652
14995TIP3    H166476   3.926   4.207   2.185  0.6391  0.5746 -0.1518
14995TIP3    H266477   3.844   4.094   2.245 -0.1852  1.0773 -0.3231
14996TIP3   OH266478   0.587   2.589  15.458 -0.0851  0.1614  0.0871
14996TIP3    H166479   0.644   2.587  15.382  1.8718 -1.8579  1.4608
14996TIP3    H266480   0.519   2.525  15.439 -1.1331  1.5255 -0.9557
14997TIP3   OH266481   5.791   4.044  12.171  0.5056 -0.0317  0.2145
14997TIP3    H166482   5.867   4.095  12.141  0.6957 -0.9646 -0.9745
14997TIP3    H266483   5.770   3.987  12.097 -0.6713 -0.5711  0.9399
14998TIP3   OH266484   6.314   4.664  17.041 -0.5169 -0.3370  0.0485
14998TIP3    H166485   6.252   4.640  17.110 -0.5774 -0.2231  0.0332
14998TIP3    H266486   6.380   4.595  17.043 -1.1092 -0.9337 -0.5184
14999TIP3   OH266487   0.519   0.246   5.166  0.4778  0.1348 -0.0982
14999TIP3    H166488   0.480   0.195   5.237 -0.5553 -0.1851 -0.8732
14999TIP3    H266489   0.610   0.214   5.161  0.3114 -0.4574  0.4966
15000TIP3   OH266490   0.032   2.093  15.801  0.4780 -0.1286 -0.6200
15000TIP3    H166491   0.104   2.129  15.853 -0.6083  0.3694  0.5990
15000TIP3    H266492  -0.039   2.157  15.810 -0.1888 -0.6810 -1.6681
15001TIP3   OH266493   5.727   4.028  10.549  0.6687 -0.3958 -0.6069
15001TIP3    H166494   5.736   3.933  10.548 -0.1702 -0.7310  3.9073
15001TIP3    H266495   5.637   4.044  10.520 -0.0929 -1.2895  1.1304
15002TIP3   OH266496   3.487   6.479  14.093  0.2913 -0.3588  0.9930
15002TIP3    H166497   3.571   6.443  14.064  0.0095 -0.4422  0.2822
15002TIP3    H266498   3.425   6.408  14.081 -0.4445  0.5835 -1.2444
15003TIP3   OH266499   3.394   0.286  13.720 -0.0642  0.2546  0.4226
15003TIP3    H166500   3.392   0.228  13.797 -0.0729  0.7456  0.7915
15003TIP3    H266501   3.345   0.237  13.653  1.2788 -0.8838  0.2090
15004TIP3   OH266502   5.483   5.660   2.381 -0.4744 -0.6525 -0.4086
15004TIP3    H166503   5.389   5.674   2.375 -0.8573 -1.1205  2.8425
15004TIP3    H266504   5.494   5.566   2.369 -0.4018 -0.6045 -0.7386
15005TIP3   OH266505   0.527   6.034  10.545  0.3201  0.7871 -0.7562
15005TIP3    H166506   0.597   6.001  10.602 -1.2566  1.0612  1.5220
15005TIP3    H266507   0.565   6.108  10.499  2.2632 -0.6805 -1.6371
15006TIP3   OH266508   4.035   1.565   4.181  0.3996 -0.0667  0.3317
15006TIP3    H166509   3.961   1.570   4.121  1.0425  0.7234 -0.4287
15006TIP3    H266510   4.093   1.636   4.153  0.0854  1.2527  2.7765
15007TIP3   OH266511   4.883   5.042  16.448  0.2630  0.4713 -0.4806
15007TIP3    H166512   4.794   5.014  16.427 -0.7130  2.0056  1.3696
15007TIP3    H266513   4.882   5.060  16.542  2.5581  0.4809 -0.3860
15008TIP3   OH266514   1.241   0.104   3.760 -0.8794 -0.1617 -0.3187
15008TIP3    H166515   1.247   0.052   3.680  0.3314  0.8586 -0.9268
15008TIP3    H266516   1.209   0.190   3.731  1.5994  0.9316 -0.1269
15009TIP3   OH266517   0.119   2.880   5.022 -0.6759  0.5976 -0.2671
15009TIP3    H166518   0.172   2.949   4.983  0.9757  0.8091  2.1451
15009TIP3    H266519   0.136   2.802   4.968  0.9494  1.0259 -0.4058
15010TIP3   OH266520   5.655   1.465  12.048  0.1485  0.1726 -0.3755
15010TIP3    H166521   5.641   1.505  11.962 -1.5958 -1.2699 -0.8128
15010TIP3    H266522   5.727   1.403  12.034  0.6059  0.7235 -0.5076
15011TIP3   OH266523   1.960   2.734  12.897  0.1749 -0.2321  0.1082
15011TIP3    H166524   1.993   2.740  12.986  0.6651  0.2110 -0.0996
15011TIP3    H266525   2.018   2.790  12.845 -0.4954  0.0377 -0.3786
15012TIP3   OH266526   3.297   6.791   4.505  0.2504  0.8086  0.3748
15012TIP3    H166527   3.346   6.713   4.530 -0.8297 -0.1183 -0.3266
15012TIP3    H266528   3.210   6.759   4.481  0.0926  2.0763 -0.9243
15013TIP3   OH266529   4.304   2.133   2.833  1.0084  0.3397 -1.1937
15013TIP3    H166530   4.349   2.134   2.918 -1.0654 -0.6329 -0.0093
15013TIP3    H266531   4.282   2.225   2.817 -0.6727  0.3153  0.5737
15014TIP3   OH266532   6.326   1.229   1.439  0.1284  0.4151 -0.3353
15014TIP3    H166533   6.319   1.232   1.535  1.3727 -1.3541 -0.1524
15014TIP3    H266534   6.327   1.321   1.413 -0.0897  0.9384  1.3554
15015TIP3   OH266535   4.786   4.776  12.725  0.6940  0.6441 -0.0873
15015TIP3    H166536   4.769   4.829  12.647  0.1093  2.1253  1.0048
15015TIP3    H266537   4.850   4.711  12.696  2.3993  2.6935 -1.2005
15016TIP3   OH266538   4.940   1.195  13.396  0.0211 -0.0817 -0.5450
15016TIP3    H166539   4.983   1.205  13.311  0.7926  1.6013  0.0017
15016TIP3    H266540   4.997   1.136  13.445 -1.0027 -1.9657 -1.5225
15017TIP3   OH266541   0.232   0.140   4.249  0.2143  0.1179  0.0161
15017TIP3    H166542   0.201   0.230   4.242  1.6553  0.6669  0.2788
15017TIP3    H266543   0.317   0.140   4.204  2.0200 -0.1428  3.1371
15018TIP3   OH266544   0.924   0.157   6.115  0.0449 -0.2730 -0.2705
15018TIP3    H166545   0.871   0.227   6.074  1.3840 -0.5119 -2.5575
15018TIP3    H266546   0.860   0.089   6.135 -0.9037  0.4920 -0.5454
15019TIP3   OH266547   3.874   0.252  15.559 -0.1984  0.2201 -0.0194
15019TIP3    H166548   3.877   0.322  15.494  1.7406  0.9209  0.7757
15019TIP3    H266549   3.837   0.293  15.637 -0.3084  0.0050  0.0431
15020TIP3   OH266550   5.756   5.782  12.164  0.2638  0.5361  0.1288
15020TIP3    H166551   5.749   5.855  12.224  2.8422  0.4414  0.6670
15020TIP3    H266552   5.706   5.712  12.205  0.4201  1.0423  1.2162
15021TIP3   OH266553   1.868   5.276   3.951  0.6386 -0.5602 -0.1562
15021TIP3    H166554   1.789   5.282   3.897  0.6160 -1.5686 -0.2396
15021TIP3    H266555   1.925   5.216   3.903  1.1811 -0.3778  0.2542
15022TIP3   OH266556   4.866   6.151   3.217 -1.4266 -0.0590 -0.0169
15022TIP3    H166557   4.844   6.241   3.191  0.6840  0.1888 -1.2170
15022TIP3    H266558   4.921   6.119   3.146 -0.6814 -1.6882  1.2317
15023TIP3   OH266559   2.989   2.626   4.502 -0.0845 -0.1997  0.4667
15023TIP3    H166560   3.076   2.607   4.465  0.7936  1.9341  1.3021
15023TIP3    H266561   2.962   2.707   4.459 -2.6006 -1.7957 -1.1962
15024TIP3   OH266562   6.835   1.022   4.626  0.0423 -0.8109  0.4098
15024TIP3    H166563   6.761   1.052   4.678  0.4775 -1.3590  1.3688
15024TIP3    H266564   6.909   1.074   4.658  0.0608 -0.1005 -0.6982
15025TIP3   OH266565   6.404   3.787   1.880 -0.2927  0.0882  0.0406
15025TIP3    H166566   6.428   3.703   1.919  2.0175  0.0814 -1.2074
15025TIP3    H266567   6.440   3.852   1.941  1.9362  0.0834 -1.1752
15026TIP3   OH266568   3.658   5.144   2.114 -0.1639  0.1480  0.4497
15026TIP3    H166569   3.701   5.130   2.199  0.2094  0.3825  0.3002
15026TIP3    H266570   3.590   5.209   2.132  0.1344  0.4486  0.5025
15027TIP3   OH266571   1.316   0.725   2.326  0.2360 -0.2954 -0.0280
15027TIP3    H166572   1.373   0.796   2.299  0.9836 -1.0047 -0.3704
15027TIP3    H266573   1.227   0.760   2.318  0.5486  0.2758 -1.1198
15028TIP3   OH266574   5.159   4.339   2.767  0.0866 -0.1143 -0.1958
15028TIP3    H166575   5.136   4.248   2.747  0.7119 -0.0925 -1.0898
15028TIP3    H266576   5.156   4.344   2.862 -2.6619 -0.3421 -0.1883
15029TIP3   OH266577   1.921   4.753  12.359  0.4737  0.0618 -0.7597
15029TIP3    H166578   1.879   4.670  12.336  1.8065 -0.1075 -2.8357
15029TIP3    H266579   1.972   4.734  12.437 -0.9633 -0.4467  0.1042
15030TIP3   OH266580   4.919   1.054   3.808 -0.1338 -0.2095 -0.0832
15030TIP3    H166581   4.847   0.997   3.779 -2.0838  2.3133 -0.6355
15030TIP3    H266582   4.989   1.037   3.745 -1.0095 -1.2921 -0.8148
15031TIP3   OH266583   3.354   0.372  16.101 -0.5542  0.2940  0.9232
15031TIP3    H166584   3.280   0.424  16.132  0.0011  1.1409  0.8809
15031TIP3    H266585   3.429   0.406  16.150 -0.3497 -1.3317  1.8256
15032TIP3   OH266586   2.607   2.859  15.749  0.3082 -0.0303  0.5308
15032TIP3    H166587   2.638   2.770  15.736  2.3295  0.4344  1.7187
15032TIP3    H266588   2.687   2.912  15.755 -0.8315  1.8862 -0.2031
15033TIP3   OH266589   4.774   0.031   4.940  0.6362  0.2487 -0.3146
15033TIP3    H166590   4.838   0.054   4.872  0.0958  1.1050 -0.5501
15033TIP3    H266591   4.735   0.115   4.965  2.4028  0.2899  2.6936
15034TIP3   OH266592   6.703   0.174   5.268  0.6761 -0.7722 -0.1853
15034TIP3    H166593   6.655   0.096   5.295  0.1252 -0.5743 -0.5769
15034TIP3    H266594   6.752   0.146   5.191  0.5886 -0.7720 -0.2414
15035TIP3   OH266595   6.478   2.143  15.211  0.0423 -0.3828 -0.2715
15035TIP3    H166596   6.524   2.097  15.141  0.7852  1.4257 -1.0345
15035TIP3    H266597   6.387   2.113  15.203  0.4419 -1.5445 -0.8371
15036TIP3   OH266598   2.608   2.468  11.716 -0.3495  0.5920  0.9846
15036TIP3    H166599   2.703   2.456  11.718 -0.3729  0.3571  0.7052
15036TIP3    H266600   2.574   2.386  11.681 -0.6331  0.7888  0.7955
15037TIP3   OH266601   1.539   1.056  11.399  0.0114 -0.1581  0.3313
15037TIP3    H166602   1.450   1.052  11.434  0.6497 -2.1280  1.9785
15037TIP3    H266603   1.528   1.058  11.304 -1.8047 -1.2118  0.4739
15038TIP3   OH266604   5.336   2.245   2.411 -0.4286 -0.0237 -0.2880
15038TIP3    H166605   5.430   2.251   2.395 -0.2640  0.0684  0.6550
15038TIP3    H266606   5.306   2.175   2.353  0.2259 -0.0816 -0.5656
15039TIP3   OH266607   2.136   4.457  13.454  0.1913 -0.3291 -0.7762
15039TIP3    H166608   2.211   4.468  13.395  0.6532  0.5901 -0.0418
15039TIP3    H266609   2.140   4.532  13.513  0.6594 -1.9810  1.4416
15040TIP3   OH266610   3.375   0.973  16.320 -0.0629  0.7889 -0.1995
15040TIP3    H166611   3.294   1.014  16.291  0.9955  2.3990 -1.0403
15040TIP3    H266612   3.442   1.040  16.308  1.4100 -0.4790  0.4786
15041TIP3   OH266613   0.141   4.486  12.318  0.4099  0.6470  0.1283
15041TIP3    H166614   0.084   4.410  12.310  0.3941  0.7208 -0.4699
15041TIP3    H266615   0.105   4.550  12.257  1.4338  0.5042 -0.6611
15042TIP3   OH266616   1.967   1.359  12.106 -0.5818  0.1679 -0.0071
15042TIP3    H166617   1.895   1.400  12.057 -1.1254 -0.2938  0.3873
15042TIP3    H266618   1.930   1.343  12.192 -0.6367 -1.8418 -0.3677
15043TIP3   OH266619   2.270   6.343  11.576  0.8954 -0.5890  0.1485
15043TIP3    H166620   2.313   6.260  11.558 -0.2568 -1.5311  1.4978
15043TIP3    H266621   2.313   6.376  11.655 -0.0414 -0.9883  0.8531
15044TIP3   OH266622   4.952   1.648   1.627  0.1280  0.0636  0.4030
15044TIP3    H166623   5.014   1.701   1.576 -0.4594  2.3768  1.9370
15044TIP3    H266624   4.971   1.670   1.718 -1.1151 -1.3392  1.0476
15045TIP3   OH266625   2.280   4.379  13.763 -0.7960  0.3866 -0.1747
15045TIP3    H166626   2.257   4.470  13.744 -0.0115  0.5489 -0.3989
15045TIP3    H266627   2.278   4.372  13.858 -0.9803  0.6039 -0.1636
15046TIP3   OH266628   2.003   2.571   3.078  0.2732 -0.0270  0.5208
15046TIP3    H166629   2.053   2.510   3.133 -0.2279  0.1925  1.2398
15046TIP3    H266630   1.912   2.539   3.085 -0.0955  1.1501  1.4073
15047TIP3   OH266631   0.088   1.641   1.978 -0.1778 -0.0955  0.3987
15047TIP3    H166632   0.167   1.656   1.925  0.0578  0.3666  0.8637
15047TIP3    H266633   0.016   1.671   1.923 -0.0964 -1.0830 -0.2685
15048TIP3   OH266634   6.061   4.323  16.270  0.4559  0.3447  0.3397
15048TIP3    H166635   6.023   4.397  16.318 -1.9298 -0.3301 -0.3755
15048TIP3    H266636   5.993   4.296  16.209  1.3541 -2.2807  0.3571
15049TIP3   OH266637   1.641   0.190  16.199  0.3082  0.4226 -0.0210
15049TIP3    H166638   1.562   0.157  16.240  0.0433 -0.1657 -0.9672
15049TIP3    H266639   1.711   0.175  16.263 -0.0328 -0.7748  0.0828
15050TIP3   OH266640   0.132   3.789   3.672 -0.4023  0.8383  0.1298
15050TIP3    H166641   0.111   3.798   3.579 -3.8069 -2.7456  0.2765
15050TIP3    H266642   0.222   3.756   3.673 -0.7943 -0.5259 -2.0932
15051TIP3   OH266643   6.272   2.203  10.851 -0.4395 -0.4264 -0.0945
15051TIP3    H166644   6.308   2.208  10.762 -0.8687  0.9143 -0.2012
15051TIP3    H266645   6.216   2.125  10.849 -1.4907  0.3183 -1.4018
15052TIP3   OH266646   4.334   5.579  15.654 -0.1981  0.0263  0.7468
15052TIP3    H166647   4.417   5.619  15.682  0.1632  0.6376 -1.0818
15052TIP3    H266648   4.361   5.504  15.601 -0.7902  0.4804 -0.2206
15053TIP3   OH266649   5.451   6.353   1.256 -0.3826 -0.0850  1.1320
15053TIP3    H166650   5.456   6.356   1.160 -0.0348 -0.8934  1.1160
15053TIP3    H266651   5.375   6.407   1.278 -1.3894 -1.1355  0.3034
15054TIP3   OH266652   5.105   5.255   6.173  0.4512 -0.0954 -0.1951
15054TIP3    H166653   5.046   5.267   6.098 -0.2554  0.7856  0.4724
15054TIP3    H266654   5.166   5.188   6.145 -0.1954 -0.2396 -1.3287
15055TIP3   OH266655   5.277   3.075  13.715  0.2893  0.0042  0.2751
15055TIP3    H166656   5.213   3.106  13.651 -0.4507  0.2066  1.0791
15055TIP3    H266657   5.252   2.985  13.734  1.0730 -0.3646 -0.3965
15056TIP3   OH266658   5.638   0.129  12.352 -0.0039  0.1038  0.4592
15056TIP3    H166659   5.726   0.093  12.356 -0.1150 -0.1351  0.8218
15056TIP3    H266660   5.600   0.090  12.273 -0.0329 -0.3742  0.7062
15057TIP3   OH266661   1.898   0.084   0.346  0.3163  0.0335 -0.7956
15057TIP3    H166662   1.835   0.155   0.357 -0.0481 -0.2617 -0.9621
15057TIP3    H266663   1.921   0.059   0.436 -0.1395 -0.1529 -0.7286
15058TIP3   OH266664   1.793   2.633   1.570  0.4167  0.6625 -1.5528
15058TIP3    H166665   1.813   2.726   1.557  0.2632  1.0436  0.5320
15058TIP3    H266666   1.699   2.631   1.586  0.8252  0.6136  1.3393
15059TIP3   OH266667   6.477   4.478  13.433 -0.4774  0.2252 -0.0398
15059TIP3    H166668   6.566   4.485  13.399 -1.8384 -0.8737 -4.4776
15059TIP3    H266669   6.429   4.547  13.388 -2.3382 -0.7257  0.3946
15060TIP3   OH266670   5.830   0.036   3.066 -0.8248 -0.1949 -0.0511
15060TIP3    H166671   5.788   0.118   3.092  0.9618  1.0208 -0.8039
15060TIP3    H266672   5.864  -0.000   3.147 -0.4552  0.5168  0.1226
15061TIP3   OH266673   0.308   2.483   1.458  0.3393 -0.1646 -0.1565
15061TIP3    H166674   0.259   2.561   1.433 -1.3010 -0.2810  2.3692
15061TIP3    H266675   0.251   2.410   1.432  0.7073 -0.4451 -0.1870
15062TIP3   OH266676   2.027   1.125   3.856  0.0750  0.5616 -0.5139
15062TIP3    H166677   2.001   1.182   3.929  0.2324 -0.6591  0.5202
15062TIP3    H266678   2.122   1.116   3.865 -0.2338 -2.4065  1.3563
15063TIP3   OH266679   2.912   2.087   5.472  0.0821  1.0545 -0.4630
15063TIP3    H166680   2.836   2.141   5.448 -1.1263 -0.9234 -1.2905
15063TIP3    H266681   2.880   2.031   5.543  0.5729 -0.1890 -1.1987
15064TIP3   OH266682   4.280   1.404   4.020  0.2863  0.3151 -0.2614
15064TIP3    H166683   4.232   1.385   4.101 -0.1849  0.3363 -0.5285
15064TIP3    H266684   4.294   1.319   3.979  0.3270  0.3238 -0.2656
15065TIP3   OH266685   5.765   0.626   5.144 -0.6265  0.0771 -0.1853
15065TIP3    H166686   5.856   0.629   5.114 -1.2423 -0.9220 -2.3127
15065TIP3    H266687   5.755   0.540   5.184 -0.5530  0.3383  0.4098
15066TIP3   OH266688   2.293   3.102   6.097 -0.0751 -0.0676  0.2906
15066TIP3    H166689   2.334   3.138   6.176  2.0634 -0.3716 -0.6332
15066TIP3    H266690   2.360   3.106   6.030 -1.1693 -1.7427 -1.0078
15067TIP3   OH266691   3.377   4.203  11.317  0.1291  0.0164  0.5709
15067TIP3    H166692   3.372   4.107  11.319 -1.8906  0.0684 -0.3679
15067TIP3    H266693   3.286   4.232  11.322  0.7005  1.8937  0.6349
15068TIP3   OH266694   0.056   0.041   0.599  0.4844  0.1535 -0.6082
15068TIP3    H166695   0.062   0.029   0.504  2.4676 -0.1754 -0.4729
15068TIP3    H266696   0.116  -0.024   0.636 -1.3083 -0.7173  0.9837
15069TIP3   OH266697   4.847   3.265  16.779 -0.0317 -0.2449  0.1750
15069TIP3    H166698   4.782   3.261  16.709 -0.0408 -0.0855  0.1745
15069TIP3    H266699   4.924   3.221  16.742 -0.3079 -0.9129  0.3633
15070TIP3   OH266700   2.742   2.913   4.783 -0.1524  0.4465 -0.5693
15070TIP3    H166701   2.785   2.992   4.750  0.8782  0.1872  0.0956
15070TIP3    H266702   2.718   2.934   4.873 -1.1768  0.4807 -0.8360
15071TIP3   OH266703   3.416   0.775   2.630 -0.3365 -0.1186  0.5730
15071TIP3    H166704   3.491   0.833   2.642 -1.7663  2.1907 -1.0412
15071TIP3    H266705   3.428   0.708   2.698  3.7993 -0.6365 -0.3837
15072TIP3   OH266706   4.126   0.675   1.722  0.1307  0.4265 -0.0150
15072TIP3    H166707   4.175   0.734   1.665  0.2609  0.0643 -0.2863
15072TIP3    H266708   4.159   0.588   1.700 -1.8542 -0.0288 -1.5082
15073TIP3   OH266709   4.820   5.051  15.983  0.0550 -0.7038  0.6159
15073TIP3    H166710   4.840   5.097  16.064 -0.2355  0.7496 -0.1135
15073TIP3    H266711   4.819   5.119  15.916  0.1330 -1.8532 -0.5882
15074TIP3   OH266712   1.621   0.316   1.324 -0.0722  0.6144 -0.2174
15074TIP3    H166713   1.580   0.271   1.398  0.1675  1.1382  0.2399
15074TIP3    H266714   1.695   0.260   1.300 -0.9815 -0.3004 -1.0002
15075TIP3   OH266715   6.840   0.958   6.455  1.0221  0.4440 -0.1536
15075TIP3    H166716   6.764   0.998   6.498 -0.2146  0.8650 -2.5098
15075TIP3    H266717   6.870   0.892   6.516 -0.6818  0.9091  1.2820
15076TIP3   OH266718   5.847   2.693  12.241 -0.1565  0.4381 -0.3961
15076TIP3    H166719   5.796   2.772  12.257  0.8070  0.9041  0.5272
15076TIP3    H266720   5.934   2.725  12.219  0.9749 -0.3114  2.4871
15077TIP3   OH266721   2.529   1.075  13.432 -0.0591 -0.5960  0.1229
15077TIP3    H166722   2.484   1.042  13.509 -0.7682 -0.1230 -0.0791
15077TIP3    H266723   2.619   1.091  13.461  0.6480 -3.5970 -0.0010
15078TIP3   OH266724   0.011   5.673   0.416  0.3984  0.2848  0.1306
15078TIP3    H166725   0.024   5.601   0.355  1.1671 -0.4662  1.1495
15078TIP3    H266726   0.095   5.684   0.460 -0.3506  0.2412  1.6451
15079TIP3   OH266727   6.440   2.651   4.477 -0.2419  0.5699 -0.3238
15079TIP3    H166728   6.430   2.710   4.552 -0.0517  1.1798 -0.7689
15079TIP3    H266729   6.534   2.651   4.460 -0.0935 -0.7575  0.3709
15080TIP3   OH266730   0.254   2.685  13.108 -0.0874 -0.1794  0.7108
15080TIP3    H166731   0.301   2.608  13.140  0.0373 -0.2860  0.2803
15080TIP3    H266732   0.168   2.680  13.149 -0.1819 -0.7082  0.4626
15081TIP3   OH266733   0.636   1.626   4.646  0.3036  0.2978 -0.0450
15081TIP3    H166734   0.700   1.682   4.690  0.0821  1.1957 -0.8142
15081TIP3    H266735   0.566   1.613   4.710  1.2651 -0.7359  0.8204
15082TIP3   OH266736   1.559   4.818   2.796  0.8101  0.6140 -0.0974
15082TIP3    H166737   1.653   4.798   2.806  0.4070 -0.6979  1.4670
15082TIP3    H266738   1.515   4.752   2.849 -0.8938  3.0495  1.7400
15083TIP3   OH266739   2.393   5.901   1.649 -0.1723 -0.6021 -0.5955
15083TIP3    H166740   2.366   5.958   1.578 -0.1143 -1.7181 -1.5445
15083TIP3    H266741   2.393   5.813   1.611 -2.6530 -1.6242  1.4468
15084TIP3   OH266742   4.128   4.479   2.476  0.2067 -0.0331  0.5256
15084TIP3    H166743   4.181   4.554   2.450 -0.0099  0.6235  1.8745
15084TIP3    H266744   4.182   4.403   2.456  1.2331  0.5678  0.9331
15085TIP3   OH266745   0.286   1.077  13.809  0.4345  0.0296  0.2060
15085TIP3    H166746   0.218   1.135  13.844  0.8283 -0.4042  1.7610
15085TIP3    H266747   0.237   1.003  13.773  0.0397  0.2386  0.3051
15086TIP3   OH266748   2.042   3.702   5.757 -0.3136  0.1299  0.5735
15086TIP3    H166749   2.048   3.619   5.804 -0.3532  0.2010  0.7066
15086TIP3    H266750   1.971   3.689   5.695  0.6610 -0.4395 -0.4456
15087TIP3   OH266751   5.101   5.695   0.668  0.1200  0.4012 -0.2761
15087TIP3    H166752   5.073   5.686   0.759 -0.0609  0.2314 -0.3468
15087TIP3    H266753   5.145   5.613   0.648 -0.4204  0.1692 -0.5398
15088TIP3   OH266754   1.020   4.926  13.275  0.5758  0.0340 -0.3255
15088TIP3    H166755   1.047   5.017  13.263 -2.4815  1.0272 -0.4440
15088TIP3    H266756   0.944   4.931  13.334  0.0287 -2.4018 -0.7234
15089TIP3   OH266757   3.662   3.810   4.514 -0.2979  0.0466  0.8141
15089TIP3    H166758   3.640   3.900   4.490 -0.0837 -0.2237 -0.4206
15089TIP3    H266759   3.611   3.794   4.593 -1.3182  0.8270  0.3333
15090TIP3   OH266760   5.281   5.661   1.514 -0.1030  0.7179 -0.7505
15090TIP3    H166761   5.334   5.628   1.441  0.0569 -1.0761  0.1168
15090TIP3    H266762   5.322   5.625   1.592 -1.9042  0.2496  0.0373
15091TIP3   OH266763   0.971   0.097  16.140  0.1422  0.1260  0.1258
15091TIP3    H166764   1.027   0.161  16.183  0.1059 -0.2231  0.7055
15091TIP3    H266765   0.958   0.028  16.205 -0.4861 -0.0786 -0.1990
15092TIP3   OH266766   0.756   5.225   1.517 -0.3120  0.1259  0.2240
15092TIP3    H166767   0.706   5.145   1.535 -0.0892 -0.4930 -1.7343
15092TIP3    H266768   0.704   5.271   1.451  0.2203  0.9625  0.3761
15093TIP3   OH266769   1.351   3.601  13.514  0.2229 -0.3571  0.1509
15093TIP3    H166770   1.372   3.694  13.526 -0.5326 -0.2998  1.1318
15093TIP3    H266771   1.370   3.584  13.422  1.5399  0.4574  0.2525
15094TIP3   OH266772   5.484   0.782  13.601 -0.0299  0.8538 -0.0355
15094TIP3    H166773   5.395   0.762  13.572  0.3886  0.2205 -0.9342
15094TIP3    H266774   5.498   0.873  13.577 -0.5986  1.1046  0.5597
15095TIP3   OH266775   6.652   5.016   0.253  0.1341  0.8297  0.3738
15095TIP3    H166776   6.709   5.046   0.182 -2.3487 -1.8055 -3.1313
15095TIP3    H266777   6.700   4.943   0.293  0.2873  0.1758 -0.9393
15096TIP3   OH266778   0.459   1.288   4.885 -0.4959  0.2874 -0.2638
15096TIP3    H166779   0.393   1.308   4.819 -1.9422 -0.4211  0.8841
15096TIP3    H266780   0.512   1.218   4.846 -1.4949 -0.3122 -0.5735
15097TIP3   OH266781   2.809   3.522   1.489  0.8816  0.0526 -0.2299
15097TIP3    H166782   2.850   3.606   1.511 -0.2785  0.9182 -1.1716
15097TIP3    H266783   2.761   3.540   1.408 -0.3655 -1.2032  0.1823
15098TIP3   OH266784   6.216   2.519   3.838  0.1776  0.2582  0.2620
15098TIP3    H166785   6.139   2.491   3.788  0.7963  0.2891 -0.7342
15098TIP3    H266786   6.247   2.440   3.881 -0.4656  0.2661  0.7494
15099TIP3   OH266787   1.973   1.737   3.110 -0.0890  0.3961  0.3389
15099TIP3    H166788   1.937   1.728   3.198 -1.1297 -0.3068 -0.1366
15099TIP3    H266789   2.068   1.745   3.124 -0.1089 -0.9119  1.4625
15100TIP3   OH266790   0.523   2.374   5.126  0.2523  0.0104  0.4097
15100TIP3    H166791   0.573   2.451   5.099 -0.0314  0.0842  0.0878
15100TIP3    H266792   0.578   2.332   5.193  1.0233 -0.2301 -0.3464
15101TIP3   OH266793   3.439   4.986  13.975 -0.7185  0.2148  0.3832
15101TIP3    H166794   3.358   5.033  13.996 -1.2948 -1.5264  2.3049
15101TIP3    H266795   3.410   4.898  13.950  0.5149 -0.0774 -0.0943
15102TIP3   OH266796   5.294   2.715   4.602  0.0082  0.4809 -0.1801
15102TIP3    H166797   5.208   2.678   4.582  0.1106  0.0580  0.1417
15102TIP3    H266798   5.283   2.810   4.592 -0.0823  0.3429 -1.6914
15103TIP3   OH266799   6.351   5.950   4.467 -0.3043 -0.1097  0.1526
15103TIP3    H166800   6.278   5.917   4.415  0.2263 -0.8247 -0.1615
15103TIP3    H266801   6.413   5.983   4.403  1.5448 -3.3608  0.0204
15104TIP3   OH266802   0.445   3.625  14.257  0.5917 -0.1329 -0.8343
15104TIP3    H166803   0.356   3.606  14.285  0.4060  2.0335  0.1853
15104TIP3    H266804   0.498   3.559  14.300 -0.1934  0.4292  1.0766
15105TIP3   OH266805   0.582   5.840   2.652 -0.3167 -0.5579  0.1904
15105TIP3    H166806   0.524   5.823   2.726 -1.0505 -1.3206 -0.5429
15105TIP3    H266807   0.528   5.824   2.575  0.9973 -1.8822 -0.5173
15106TIP3   OH266808   3.425   4.787   4.906 -0.1431  0.3261 -0.4825
15106TIP3    H166809   3.456   4.812   4.993 -0.0186 -1.4871  0.0437
15106TIP3    H266810   3.368   4.859   4.879 -0.8245  0.5774  1.4593
15107TIP3   OH266811   4.854   3.428  11.573  0.2675  0.2719 -0.2240
15107TIP3    H166812   4.927   3.445  11.633 -1.3110  2.7478  1.1730
15107TIP3    H266813   4.821   3.515  11.550 -2.6646 -0.7360 -0.2608
15108TIP3   OH266814   1.391   0.472  12.764  0.7646  0.1575  0.3098
15108TIP3    H166815   1.392   0.503  12.855  0.6122  1.9137 -0.2552
15108TIP3    H266816   1.411   0.379  12.771  1.2493  0.3494  2.1086
15109TIP3   OH266817   2.176   0.049  14.941  0.3331  0.2097 -0.4929
15109TIP3    H166818   2.255  -0.005  14.935  0.9897  0.7137  2.4389
15109TIP3    H266819   2.138   0.046  14.852  2.5996 -1.5656 -1.4890
15110TIP3   OH266820   3.681   5.505  11.751 -0.5412 -0.1654 -0.4349
15110TIP3    H166821   3.630   5.431  11.719 -0.4820 -1.2512  1.7829
15110TIP3    H266822   3.772   5.474  11.749 -0.5665 -0.4372  1.0418
15111TIP3   OH266823   2.183   0.133   6.212 -0.1555  0.4044  0.3444
15111TIP3    H166824   2.113   0.153   6.274  0.5294  0.0224  1.2719
15111TIP3    H266825   2.138   0.113   6.130 -1.0845  0.8794  0.7267
15112TIP3   OH266826   4.614   1.332   2.860 -0.3854 -0.3056 -0.6053
15112TIP3    H166827   4.546   1.281   2.904  0.0017 -0.3326 -0.0319
15112TIP3    H266828   4.601   1.313   2.767 -0.3016 -1.4003 -0.4160
15113TIP3   OH266829   6.659   1.397  11.146 -0.5352  0.2494 -1.0329
15113TIP3    H166830   6.626   1.370  11.231  0.3413  1.0138 -0.4240
15113TIP3    H266831   6.584   1.439  11.104 -0.9269  0.0277 -0.5687
15114TIP3   OH266832   5.074   3.632  16.764 -0.1649 -0.6493 -0.4353
15114TIP3    H166833   5.038   3.584  16.838 -1.1553  0.5656 -0.1078
15114TIP3    H266834   5.160   3.662  16.794 -0.5408 -0.2041  0.2165
15115TIP3   OH266835   4.758   3.188   1.202  0.3161  0.8975  0.1539
15115TIP3    H166836   4.702   3.209   1.128 -1.5458  0.9319  1.4941
15115TIP3    H266837   4.744   3.260   1.264 -0.1243 -0.3551  1.5624
15116TIP3   OH266838   4.923   2.620  14.683 -0.0810 -0.4027 -0.3558
15116TIP3    H166839   4.916   2.707  14.721 -1.2860 -0.4331 -0.4570
15116TIP3    H266840   5.017   2.607  14.669  0.3143  0.0334  1.6028
15117TIP3   OH266841   0.451   5.655  16.514 -0.5480  0.3889 -0.2623
15117TIP3    H166842   0.359   5.639  16.534 -0.9434  2.0459 -0.5970
15117TIP3    H266843   0.459   5.750  16.514  0.7544  0.3281 -2.1028
15118TIP3   OH266844   1.963   1.561  13.555  0.1795  0.2436  0.5321
15118TIP3    H166845   1.877   1.529  13.583  0.4622 -1.3303 -0.2731
15118TIP3    H266846   1.944   1.624  13.486 -0.3367 -0.8900 -0.4038
15119TIP3   OH266847   6.476   2.181   4.834  0.0323  0.1469  0.2543
15119TIP3    H166848   6.460   2.171   4.927 -0.7456  1.3105  0.2618
15119TIP3    H266849   6.547   2.119   4.815 -0.1947 -0.5244  1.4875
15120TIP3   OH266850   4.144   1.564  12.563  0.0027  0.7609 -0.0206
15120TIP3    H166851   4.229   1.549  12.604 -1.5321 -1.4611  2.6749
15120TIP3    H266852   4.092   1.606  12.631 -1.9973 -0.9238 -0.4410
15121TIP3   OH266853   4.372   5.684  15.142  0.0215 -0.0090  0.1406
15121TIP3    H166854   4.278   5.680  15.124  0.1605 -1.0430 -0.4301
15121TIP3    H266855   4.386   5.620  15.212  0.9302 -3.3783 -2.8415
15122TIP3   OH266856   2.265   4.324  15.590 -0.1027 -0.3820  0.6127
15122TIP3    H166857   2.340   4.360  15.543  0.1036  0.4471  1.5341
15122TIP3    H266858   2.192   4.333  15.529  0.1430  0.7620  0.4591
15123TIP3   OH266859   2.314   0.454  12.180  0.5594  0.2789  0.0480
15123TIP3    H166860   2.248   0.524  12.176 -0.0397 -0.3220 -0.9474
15123TIP3    H266861   2.381   0.481  12.117 -0.2909 -0.6346 -1.2893
15124TIP3   OH266862   3.533   0.214  10.527 -0.5143  0.5376  0.0307
15124TIP3    H166863   3.458   0.164  10.494 -0.9469  1.7674 -0.9097
15124TIP3    H266864   3.495   0.295  10.560  0.3840  1.1614 -0.4274
15125TIP3   OH266865   6.114   3.451   2.152 -0.1106 -0.1066  0.6678
15125TIP3    H166866   6.086   3.401   2.229 -1.2522  0.7291  0.8068
15125TIP3    H266867   6.034   3.466   2.102  0.5178 -0.0349 -0.3482
15126TIP3   OH266868   4.113   1.385  16.869  0.2373  0.0128 -0.6862
15126TIP3    H166869   4.017   1.388  16.863  0.1795 -1.1494 -0.4482
15126TIP3    H266870   4.138   1.476  16.884 -1.0127  0.0690  1.5920
15127TIP3   OH266871   1.696   3.037  11.145 -0.0573 -0.4883  0.1212
15127TIP3    H166872   1.689   2.960  11.200 -0.6278 -0.2915  0.3301
15127TIP3    H266873   1.715   3.003  11.057 -0.2033 -0.8552  0.2327
15128TIP3   OH266874   3.182   1.821  11.668 -0.0790  0.2914 -0.2480
15128TIP3    H166875   3.174   1.912  11.642  1.7574  0.3393 -0.7611
15128TIP3    H266876   3.275   1.802  11.663 -0.5744 -2.2158 -2.2823
15129TIP3   OH266877   5.790   0.871  13.292 -0.2668 -0.1593  0.2123
15129TIP3    H166878   5.796   0.889  13.386  4.2375 -0.5885  0.2043
15129TIP3    H266879   5.832   0.946  13.250  1.1723 -1.6497 -1.1408
15130TIP3   OH266880   6.054   4.191  10.449  0.1380 -0.1442 -0.3422
15130TIP3    H166881   6.135   4.232  10.480 -0.8157  1.8490 -0.2932
15130TIP3    H266882   5.987   4.257  10.464 -1.7523 -2.1829  0.7236
15131TIP3   OH266883   6.123   2.799  13.093 -0.5374 -0.0732 -0.2520
15131TIP3    H166884   6.069   2.723  13.116 -1.8200  1.5467  2.4680
15131TIP3    H266885   6.070   2.875  13.117  1.8283  1.6673 -0.2101
15132TIP3   OH266886   4.668   2.907   3.564 -0.0552 -0.1415 -0.3942
15132TIP3    H166887   4.619   2.949   3.635  0.2028  0.3438 -0.4988
15132TIP3    H266888   4.658   2.966   3.489 -3.5249 -2.4344 -1.9793
15133TIP3   OH266889   6.293   4.330  11.322  0.7737 -0.8184  0.9502
15133TIP3    H166890   6.220   4.289  11.276  1.3820  0.2634 -1.1283
15133TIP3    H266891   6.365   4.268  11.312  0.6851 -0.9643  1.2047
15134TIP3   OH266892   3.259   3.434  12.531  0.3151  0.1645 -0.5326
15134TIP3    H166893   3.259   3.512  12.475  1.7349  0.7064  0.1743
15134TIP3    H266894   3.184   3.447  12.589 -0.9648 -0.2329 -1.9941
15135TIP3   OH266895   6.303   2.087   6.538 -0.1998  0.3456 -0.0721
15135TIP3    H166896   6.367   2.145   6.579  0.5764 -0.1806 -0.5225
15135TIP3    H266897   6.252   2.051   6.611  1.3849 -0.8557  0.4853
15136TIP3   OH266898   4.103   6.778  16.293 -0.6911 -0.2927 -0.3198
15136TIP3    H166899   4.122   6.692  16.255 -0.5276 -0.4001  0.0045
15136TIP3    H266900   4.189   6.820  16.301 -0.5896 -0.6970  0.9559
15137TIP3   OH266901   1.572   6.372  14.416 -0.5045 -0.0524  0.4913
15137TIP3    H166902   1.610   6.358  14.503 -1.6516  0.7233  1.1477
15137TIP3    H266903   1.567   6.468  14.408  0.6248 -0.0794 -0.9110
15138TIP3   OH266904   0.567   0.405   4.573 -0.6564 -0.2257 -0.5671
15138TIP3    H166905   0.643   0.430   4.521 -1.1995  0.4543 -1.0507
15138TIP3    H266906   0.526   0.334   4.524 -0.8050 -0.0162 -0.7523
15139TIP3   OH266907   3.869   3.564   1.902 -0.1264  0.7267  0.3662
15139TIP3    H166908   3.952   3.545   1.947 -0.3456 -1.4035 -0.0269
15139TIP3    H266909   3.802   3.528   1.959 -0.6879  1.1576 -0.0072
15140TIP3   OH266910   4.177   3.438   4.384 -0.1030  0.0133 -0.2264
15140TIP3    H166911   4.161   3.527   4.352  0.0497 -0.4505 -1.6600
15140TIP3    H266912   4.270   3.424   4.368  0.1850  0.0468  1.2410
15141TIP3   OH266913   4.249   6.130   2.489 -0.2028 -0.3067 -0.4344
15141TIP3    H166914   4.154   6.139   2.492 -0.5347 -3.1680  2.0156
15141TIP3    H266915   4.270   6.071   2.561  3.2270 -1.6012 -2.2662
15142TIP3   OH266916   6.257   5.121  14.290 -0.3793  0.3995 -0.1888
15142TIP3    H166917   6.305   5.038  14.292 -0.1452  0.5415  0.8223
15142TIP3    H266918   6.222   5.127  14.201  2.4082  0.8134 -1.3539
15143TIP3   OH266919   1.275   2.747   5.476 -0.2454 -0.3214  0.2837
15143TIP3    H166920   1.286   2.652   5.473 -1.9384 -0.6015  1.6012
15143TIP3    H266921   1.356   2.779   5.516  0.5088 -1.1512 -0.5406
15144TIP3   OH266922   6.661   6.204  13.781 -0.1702  0.3926  0.1430
15144TIP3    H166923   6.682   6.228  13.871 -0.7887  0.3928  0.2920
15144TIP3    H266924   6.618   6.119  13.788  0.5035  0.0142 -0.2308
15145TIP3   OH266925   5.948   4.822   2.035 -0.1021  0.2627 -0.0692
15145TIP3    H166926   6.036   4.810   1.999  0.2212 -0.1033  0.8166
15145TIP3    H266927   5.913   4.733   2.042 -0.4716  0.3931 -0.2428
15146TIP3   OH266928   3.883   2.278   0.870  0.9628  0.3544 -0.3706
15146TIP3    H166929   3.827   2.201   0.857 -0.0898  1.2431 -1.2776
15146TIP3    H266930   3.932   2.258   0.950 -1.2175 -0.1392  0.9236
15147TIP3   OH266931   0.313   1.521  13.031 -0.2811  1.0007  0.0356
15147TIP3    H166932   0.392   1.475  13.058  1.0664  0.8546 -3.6272
15147TIP3    H266933   0.333   1.613  13.045  0.4805  0.9531 -0.6949
15148TIP3   OH266934   5.799   3.048   3.551  0.2067 -0.0177  0.4623
15148TIP3    H166935   5.884   3.027   3.591  1.0455  0.8011 -0.8037
15148TIP3    H266936   5.792   3.143   3.558 -0.6832 -0.0932  0.6778
15149TIP3   OH266937   3.799   2.565  16.065  0.1238  0.3700 -0.6397
15149TIP3    H166938   3.776   2.484  16.020 -3.0682  0.8731 -0.1739
15149TIP3    H266939   3.866   2.540  16.128 -2.1858 -2.5026  0.9535
15150TIP3   OH266940   6.288   4.505   0.281  0.3612 -0.4600 -0.2282
15150TIP3    H166941   6.322   4.419   0.257 -0.2796 -0.7908  0.0353
15150TIP3    H266942   6.365   4.552   0.315  0.0742 -2.3560  3.6133
15151TIP3   OH266943   6.756   2.064   4.863  0.0591 -0.0012 -0.0276
15151TIP3    H166944   6.733   1.977   4.897 -0.5681  0.0846 -0.2109
15151TIP3    H266945   6.783   2.048   4.773 -0.1922  0.0020 -0.1066
15152TIP3   OH266946   0.053   2.341   2.493  0.5210 -0.3980  0.2976
15152TIP3    H166947  -0.004   2.336   2.417  0.6974 -0.1094  0.1440
15152TIP3    H266948   0.054   2.434   2.516  1.3100 -0.3221  0.0021
15153TIP3   OH266949   3.405   5.644   0.091 -0.2391 -0.6296 -0.2519
15153TIP3    H166950   3.391   5.701   0.016  2.5402 -1.2360 -1.3423
15153TIP3    H266951   3.453   5.699   0.154 -2.2268 -0.2353  1.0021
15154TIP3   OH266952   6.425   3.005  15.549  0.2955  0.1344  0.4112
15154TIP3    H166953   6.515   3.036  15.553  0.4681 -0.2085 -0.5012
15154TIP3    H266954   6.423   2.946  15.473 -0.6824  0.1016  0.4448
15155TIP3   OH266955   4.688   0.426  13.585  0.2777 -0.0444  0.7331
15155TIP3    H166956   4.690   0.356  13.519  0.0621 -1.0628  1.7853
15155TIP3    H266957   4.669   0.505  13.535  2.2241 -0.4269 -0.7449
15156TIP3   OH266958   0.157   4.909   3.168 -0.7275 -0.3428 -0.4154
15156TIP3    H166959   0.206   4.968   3.111 -0.8493 -0.1920 -0.3640
15156TIP3    H266960   0.069   4.905   3.129 -0.7177 -0.4974 -0.4242
15157TIP3   OH266961   0.716   6.497  12.310 -0.0013 -0.0460  0.0249
15157TIP3    H166962   0.687   6.415  12.270 -0.9081  0.8606 -1.2682
15157TIP3    H266963   0.780   6.471  12.376  3.4912 -1.5860 -3.5657
15158TIP3   OH266964   0.605   3.711  11.276 -0.0430  0.1377 -0.0491
15158TIP3    H166965   0.558   3.631  11.253  1.2176 -0.6106 -0.1134
15158TIP3    H266966   0.687   3.705  11.227  0.3187  1.1835  0.4122
15159TIP3   OH266967   5.496   4.190  16.959 -0.0998  0.2463 -0.3510
15159TIP3    H166968   5.493   4.283  16.984 -2.2767  0.3783 -0.9851
15159TIP3    H266969   5.577   4.182  16.909 -1.1848  2.4700 -2.6860
15160TIP3   OH266970   0.611   1.770  15.333 -0.0455  0.4697 -0.3532
15160TIP3    H166971   0.684   1.805  15.384 -0.1041 -0.0653  0.0981
15160TIP3    H266972   0.652   1.729  15.257  0.0958  0.5477 -0.3189
15161TIP3   OH266973   0.208   1.521  10.507 -0.3370  0.4883 -0.2006
15161TIP3    H166974   0.186   1.559  10.422 -0.4504 -1.3725 -1.0555
15161TIP3    H266975   0.124   1.509  10.550 -0.5352 -0.9307 -0.9224
15162TIP3   OH266976   4.847   5.214   4.454  0.8893  0.5777 -0.4681
15162TIP3    H166977   4.910   5.244   4.388  1.2962 -1.4090 -1.0417
15162TIP3    H266978   4.880   5.249   4.536  3.8249 -1.7746 -0.4699
15163TIP3   OH266979   6.796   6.816   4.679  0.3783  0.0841 -0.0770
15163TIP3    H166980   6.868   6.764   4.713  0.9173  1.6449  1.2417
15163TIP3    H266981   6.826   6.845   4.592  1.1248  0.2929  0.2448
15164TIP3   OH266982   4.219   3.466   3.182 -0.3546  0.2092 -0.4046
15164TIP3    H166983   4.171   3.488   3.262  0.7015 -0.6603  0.5098
15164TIP3    H266984   4.275   3.542   3.166 -1.9568  1.2065 -1.4512
15165TIP3   OH266985   1.335   5.578   4.370 -0.1242 -0.0283 -0.3247
15165TIP3    H166986   1.295   5.645   4.424  0.0989  1.2604 -1.6932
15165TIP3    H266987   1.387   5.525   4.431  0.2719  1.4722  0.6782
15166TIP3   OH266988   6.225   1.270   0.369  0.0736  0.7460 -0.0183
15166TIP3    H166989   6.211   1.186   0.325  0.9562  0.9839 -0.7994
15166TIP3    H266990   6.152   1.325   0.340 -0.0681  0.4875 -0.1503
15167TIP3   OH266991   4.424   3.643   5.105  0.2399 -0.4352 -0.3696
15167TIP3    H166992   4.374   3.608   5.031 -0.8355 -1.0228  0.5973
15167TIP3    H266993   4.359   3.689   5.157  1.1405  0.6666 -0.1907
15168TIP3   OH266994   2.809   2.494  16.432  0.4355 -0.1752 -0.0226
15168TIP3    H166995   2.776   2.416  16.476 -0.2859 -0.1785 -0.5703
15168TIP3    H266996   2.881   2.524  16.489 -0.8603  0.1711  1.5016
15169TIP3   OH266997   2.858   3.804   4.378  0.5111  1.1306 -0.1202
15169TIP3    H166998   2.862   3.722   4.329 -1.3129  1.1663 -0.4014
15169TIP3    H266999   2.940   3.849   4.356  1.3148 -0.3738 -0.3521
15170TIP3   OH267000   2.030   3.788   2.779  0.3236 -0.2696  0.1918
15170TIP3    H167001   2.088   3.829   2.716 -0.5122 -0.2358 -0.5740
15170TIP3    H267002   2.072   3.704   2.798  1.2899  0.3031  0.6668
15171TIP3   OH267003   3.664   2.557   3.424 -0.2688 -0.6083  0.1427
15171TIP3    H167004   3.719   2.517   3.492 -1.7555 -0.7854  1.2956
15171TIP3    H267005   3.725   2.607   3.370  0.9616 -0.4389  1.6217
15172TIP3   OH267006   4.499   4.401  17.141 -1.1244 -0.2518 -0.6462
15172TIP3    H167007   4.560   4.471  17.116 -0.6936 -0.7344 -0.9678
15172TIP3    H267008   4.546   4.320  17.119 -2.3617 -0.6212 -2.0667
15173TIP3   OH267009   1.533   2.516   4.066 -0.0385  0.1224  0.0386
15173TIP3    H167010   1.569   2.499   4.153 -1.5154  0.5956  0.7811
15173TIP3    H267011   1.598   2.573   4.024  2.0976 -2.3744 -0.3144
15174TIP3   OH267012   0.689   4.123   4.331 -0.3351  0.4329  0.2684
15174TIP3    H167013   0.742   4.170   4.267  0.1595  0.4373  0.6732
15174TIP3    H267014   0.613   4.093   4.282  0.2278  0.0917 -0.4106
15175TIP3   OH267015   2.373   0.300  16.767  0.1444  0.0713  0.3482
15175TIP3    H167016   2.332   0.352  16.836 -0.8481 -1.1530  0.7243
15175TIP3    H267017   2.463   0.287  16.797 -0.4788 -1.1165  1.8615
15176TIP3   OH267018   4.649   2.672  14.295  0.8280  0.0794 -0.0385
15176TIP3    H167019   4.706   2.733  14.342  0.8859 -0.2935  0.3709
15176TIP3    H267020   4.709   2.611  14.252  0.7471 -0.1965  0.2366
15177TIP3   OH267021   2.496   6.287  12.658 -0.5217  0.5834 -0.0358
15177TIP3    H167022   2.437   6.362  12.658 -0.4749  0.6553  1.2924
15177TIP3    H267023   2.465   6.231  12.587 -1.3691  1.2476 -0.1990
15178TIP3   OH267024   3.462   1.615   6.433  0.0579  0.5116 -0.3322
15178TIP3    H167025   3.489   1.535   6.387  1.3286  1.6369 -1.6143
15178TIP3    H267026   3.531   1.630   6.498 -0.3623  0.3787  0.1481
15179TIP3   OH267027   3.308   3.952  15.931  0.3881  0.1208 -0.8745
15179TIP3    H167028   3.295   4.038  15.971  2.2144 -0.4678  1.2403
15179TIP3    H267029   3.403   3.939  15.934  0.1200 -2.1651 -0.6428
15180TIP3   OH267030   6.657   4.281  13.776  0.0015  0.0981 -0.5340
15180TIP3    H167031   6.716   4.356  13.779  2.4284 -1.7224  1.3185
15180TIP3    H267032   6.593   4.297  13.845  1.7701 -0.3807  1.3199
15181TIP3   OH267033   0.156   0.651  13.551  0.2973  0.1308  0.2131
15181TIP3    H167034   0.098   0.600  13.609  0.0904  0.0914 -0.0271
15181TIP3    H267035   0.242   0.612  13.563  0.7542  1.5705  2.2556
15182TIP3   OH267036   4.063   1.335   4.862  0.4020  0.2447 -0.1851
15182TIP3    H167037   4.080   1.350   4.770 -0.6853  0.2670 -0.3992
15182TIP3    H267038   4.047   1.422   4.898 -0.7387  0.1034 -0.3218
15183TIP3   OH267039   2.706   4.091  10.581  0.0813  0.0399 -0.6284
15183TIP3    H167040   2.678   4.054  10.497  1.3698 -1.2805 -0.5151
15183TIP3    H267041   2.720   4.184  10.562 -0.4886 -0.0588 -1.6448
15184TIP3   OH267042   3.874   3.735   5.873 -0.5240 -0.5290  0.0368
15184TIP3    H167043   3.873   3.639   5.869  0.7115 -0.5833  0.6314
15184TIP3    H267044   3.939   3.761   5.808 -0.8118 -0.1003 -0.0771
15185TIP3   OH267045   1.232   1.840   2.074 -0.4810  0.0346  0.3923
15185TIP3    H167046   1.203   1.889   1.997 -0.6518  2.2316  1.7962
15185TIP3    H267047   1.315   1.880   2.098 -0.7977 -0.1019  1.7931
15186TIP3   OH267048   1.886   1.737  12.134 -0.0797 -0.4728  0.6462
15186TIP3    H167049   1.806   1.684  12.133  0.7808 -1.8223 -0.6018
15186TIP3    H267050   1.855   1.827  12.135 -1.6031 -0.9677  1.5049
15187TIP3   OH267051   1.909   6.288  10.938 -0.1293  0.1578 -0.1927
15187TIP3    H167052   1.841   6.260  10.877 -0.6805  0.2540  0.3565
15187TIP3    H267053   1.864   6.295  11.022  0.6140  0.0304  0.2255
15188TIP3   OH267054   0.203   4.970   1.059  0.3260  0.3177 -0.0582
15188TIP3    H167055   0.120   4.952   1.013  0.9666 -0.3021 -1.0102
15188TIP3    H267056   0.176   5.011   1.141 -0.9019  0.7480 -0.6428
15189TIP3   OH267057   2.135   2.265  14.319 -0.0028 -0.9223 -0.2202
15189TIP3    H167058   2.229   2.269  14.339 -0.3541  2.2658  1.4273
15189TIP3    H267059   2.105   2.184  14.361  1.5289 -0.5084  1.8414
15190TIP3   OH267060   5.495   1.726  12.840 -0.1515 -0.0217  0.3510
15190TIP3    H167061   5.496   1.684  12.926  0.4948  0.3846  0.5512
15190TIP3    H267062   5.581   1.708  12.803 -0.1282  0.4906  0.1324
15191TIP3   OH267063   0.017   5.251  12.290  0.5078 -0.0281  0.5508
15191TIP3    H167064   0.035   5.245  12.197  1.3854 -0.7342  0.7584
15191TIP3    H267065  -0.057   5.192  12.304  1.1417 -0.8427  0.4945
15192TIP3   OH267066   0.794   5.301   1.798 -0.0838 -0.1924 -0.0646
15192TIP3    H167067   0.857   5.238   1.764 -0.2367 -0.1157 -0.4957
15192TIP3    H267068   0.742   5.326   1.722  0.4320  0.9976 -0.0344
15193TIP3   OH267069   4.538   4.473  16.323  0.3985 -0.1076 -0.2993
15193TIP3    H167070   4.465   4.498  16.379  0.8219  0.4526  0.0129
15193TIP3    H267071   4.564   4.555  16.280 -1.0053 -0.8045 -2.6394
15194TIP3   OH267072   4.726   1.616   5.269  0.5509 -0.6129  0.3336
15194TIP3    H167073   4.815   1.586   5.291  0.1735 -1.5409  0.6233
15194TIP3    H267074   4.724   1.707   5.300  0.7994 -1.1670  2.0986
15195TIP3   OH267075   6.702   2.116   3.509  0.5348  0.0276 -0.1074
15195TIP3    H167076   6.791   2.096   3.539  0.8955  0.3266 -0.9446
15195TIP3    H267077   6.659   2.031   3.505  0.8205 -0.1337  0.1834
15196TIP3   OH267078   0.705   3.116   4.893 -0.4497 -0.1923  0.3122
15196TIP3    H167079   0.636   3.124   4.826 -0.4333 -0.0639  0.3093
15196TIP3    H267080   0.774   3.066   4.851 -0.8207 -0.8982  0.5369
15197TIP3   OH267081   5.656   3.991  11.923 -0.2802 -0.1823  0.3295
15197TIP3    H167082   5.602   3.919  11.956 -0.9268  0.5265  0.8550
15197TIP3    H267083   5.651   3.983  11.828 -1.6227  0.0764  0.3591
15198TIP3   OH267084   6.522   5.966   1.272 -0.2651  0.5458 -0.5047
15198TIP3    H167085   6.476   5.997   1.194 -0.0325  0.6845 -0.5879
15198TIP3    H267086   6.614   5.983   1.254 -0.2045  0.5164 -0.2267
15199TIP3   OH267087   5.886   6.718  15.304  0.3149  0.3774 -0.1118
15199TIP3    H167088   5.972   6.720  15.346  0.8757 -0.6685 -1.1413
15199TIP3    H267089   5.904   6.689  15.215 -0.8840  2.1368 -0.9819
15200TIP3   OH267090   3.532   5.672   1.839  0.0785 -0.4955 -0.3464
15200TIP3    H167091   3.544   5.599   1.899  1.1197  0.2766  0.4336
15200TIP3    H267092   3.620   5.705   1.823 -0.3112  0.1556 -1.2401
15201TIP3   OH267093   4.177   2.527  16.016  0.7638 -0.3953 -0.4093
15201TIP3    H167094   4.138   2.595  16.070 -0.0626 -1.4760  0.4087
15201TIP3    H267095   4.131   2.447  16.042 -0.4310 -0.8249 -3.4539
15202TIP3   OH267096   2.681   6.168   1.148 -0.0209 -0.0988  0.3520
15202TIP3    H167097   2.646   6.196   1.063  0.1749  0.1491  0.3503
15202TIP3    H267098   2.740   6.239   1.174 -1.5719  0.7970  1.6353
15203TIP3   OH267099   3.034   4.700  13.723 -0.7666 -0.0016  0.0715
15203TIP3    H167100   3.035   4.692  13.818  1.2749  0.3531  0.1250
15203TIP3    H267101   2.955   4.654  13.696 -0.9700 -0.7982  1.8847
15204TIP3   OH267102   4.230   1.616  14.169  0.0201  0.0554 -0.0608
15204TIP3    H167103   4.158   1.554  14.157 -0.9602  1.2715 -0.7938
15204TIP3    H267104   4.192   1.687  14.221  1.2299 -0.1336  1.1166
15205TIP3   OH267105   5.803   6.434   5.242  0.5080 -0.3383  0.6696
15205TIP3    H167106   5.757   6.358   5.278  1.5047 -0.5251  1.5953
15205TIP3    H267107   5.787   6.504   5.305  2.9304 -0.8756  2.0019
15206TIP3   OH267108   6.442   2.820   3.407  0.4309 -0.3912 -0.0476
15206TIP3    H167109   6.440   2.876   3.330  0.5251 -0.0370  0.2011
15206TIP3    H267110   6.374   2.754   3.392 -1.2197  1.0812  0.6193
15207TIP3   OH267111   1.154   5.910   0.725 -0.0443 -0.7951  0.1986
15207TIP3    H167112   1.084   5.880   0.783  1.4267 -2.2568  1.3436
15207TIP3    H267113   1.215   5.955   0.783 -0.2675  0.9552 -0.8736
15208TIP3   OH267114   5.164   2.470  12.942 -0.4717 -0.4743  0.0219
15208TIP3    H167115   5.248   2.437  12.908  0.3702  0.6988  0.8821
15208TIP3    H267116   5.150   2.552  12.894 -0.8512 -0.3837  0.2847
15209TIP3   OH267117   3.718   2.117  14.989  0.4556  0.4065  0.7660
15209TIP3    H167118   3.711   2.032  15.032  1.5570  0.6006  1.3725
15209TIP3    H267119   3.782   2.104  14.919  0.0728  0.5533  0.3859
15210TIP3   OH267120   5.700   0.222  14.457 -0.2812 -0.5927  0.4618
15210TIP3    H167121   5.679   0.151  14.396  0.2937 -0.7488  0.4352
15210TIP3    H267122   5.653   0.298  14.422 -1.2876 -1.0615  0.7584
15211TIP3   OH267123   1.637   6.199   2.960 -0.0540 -0.0061 -0.1530
15211TIP3    H167124   1.683   6.144   3.024  1.7883  1.6879  0.1064
15211TIP3    H267125   1.577   6.252   3.013  0.4846  0.4336  0.0370
15212TIP3   OH267126   2.714   6.378  11.033 -0.7961  0.0093  0.1111
15212TIP3    H167127   2.760   6.350  10.953 -0.5678  1.1165 -0.1601
15212TIP3    H267128   2.635   6.324  11.035  1.3109 -3.3760  1.6153
15213TIP3   OH267129   3.053   5.305   1.731  0.2739 -0.2204  0.0659
15213TIP3    H167130   3.077   5.220   1.696 -0.6135 -1.0105  1.3080
15213TIP3    H267131   3.036   5.289   1.823 -1.6965  0.9302 -0.0520
15214TIP3   OH267132   0.878   1.638   2.511 -0.1879  0.0419  0.2695
15214TIP3    H167133   0.850   1.709   2.569  3.1247  0.7514  1.2584
15214TIP3    H267134   0.803   1.620   2.455 -2.0361  2.4482  1.8079
15215TIP3   OH267135   5.691   1.936   2.844  0.1060 -0.8327 -0.1924
15215TIP3    H167136   5.767   1.881   2.822  0.5125 -0.2438 -0.2935
15215TIP3    H267137   5.709   1.967   2.933 -0.4283 -1.3675  0.1075
15216TIP3   OH267138   5.878   1.433   2.779 -0.2240  0.5524  0.0253
15216TIP3    H167139   5.805   1.486   2.748 -0.5986 -0.8972 -1.7950
15216TIP3    H267140   5.948   1.496   2.797 -1.0618  1.7601 -0.8095
15217TIP3   OH267141   6.747   4.802   4.892  0.1433  0.3443  0.1380
15217TIP3    H167142   6.770   4.718   4.931 -0.1726 -0.1203 -0.6577
15217TIP3    H267143   6.724   4.858   4.966  2.3813  0.4010  0.8651
15218TIP3   OH267144   5.539   4.068   0.330 -0.6744  0.3383 -0.0478
15218TIP3    H167145   5.539   4.147   0.384  2.3099  0.5415 -0.1697
15218TIP3    H267146   5.542   4.101   0.240  0.4065  0.1159 -0.1039
15219TIP3   OH267147   2.287   3.658   4.644 -0.4278 -0.3612 -0.2159
15219TIP3    H167148   2.355   3.712   4.684 -0.7305 -0.7406  0.8378
15219TIP3    H267149   2.214   3.663   4.706 -0.5995 -1.6580 -0.2946
15220TIP3   OH267150   4.657   5.151   3.287 -0.1169  0.1289  0.3614
15220TIP3    H167151   4.623   5.066   3.261  1.0708 -0.2669  0.0192
15220TIP3    H267152   4.592   5.214   3.254  0.2564 -0.4863 -1.7213
15221TIP3   OH267153   2.906   2.563  13.615  0.5177  0.5302  0.1535
15221TIP3    H167154   2.855   2.493  13.657  1.2754  0.5253  1.0926
15221TIP3    H267155   2.978   2.518  13.571  1.2215  0.7270  1.0727
15222TIP3   OH267156   2.333   6.032  13.269 -0.6044 -0.3672 -0.6112
15222TIP3    H167157   2.283   5.993  13.197 -2.3058  1.6917 -0.6364
15222TIP3    H267158   2.270   6.039  13.340  0.4985 -0.4591  0.3977
15223TIP3   OH267159   6.827   4.590   3.186  0.4156 -0.4947  0.2571
15223TIP3    H167160   6.845   4.619   3.275  0.8129  0.4306 -0.1099
15223TIP3    H267161   6.750   4.639   3.160  0.5527 -0.4460 -0.0600
15224TIP3   OH267162   2.113   3.101   3.623 -1.0566 -0.2992 -0.0446
15224TIP3    H167163   2.073   3.105   3.536 -1.3673  0.1741  0.1166
15224TIP3    H267164   2.142   3.191   3.640 -1.8990 -0.1630  0.7596
15225TIP3   OH267165   5.827   5.665   6.530 -0.4584  0.1485 -0.0450
15225TIP3    H167166   5.765   5.660   6.603  2.3201 -2.3290  2.4400
15225TIP3    H267167   5.832   5.575   6.498  1.1893  0.4608 -0.7117
15226TIP3   OH267168   3.659   4.745  14.457  0.0768 -0.1598  0.2285
15226TIP3    H167169   3.736   4.800  14.451  0.4298 -0.5282  1.1625
15226TIP3    H267170   3.684   4.663  14.415  0.0773 -0.1485  0.2073
15227TIP3   OH267171   5.568   2.574   4.013  0.3256  0.1105 -0.2347
15227TIP3    H167172   5.612   2.495   4.044  1.0959  0.9000  0.7840
15227TIP3    H267173   5.637   2.640   4.006 -0.4946  1.0691  0.2774
15228TIP3   OH267174   4.812   1.483   0.148 -0.2213  0.1262  0.4379
15228TIP3    H167175   4.758   1.404   0.136 -0.7855  0.5123  0.3991
15228TIP3    H267176   4.765   1.551   0.101 -0.6493  0.8805  1.9124
15229TIP3   OH267177   3.961   4.484  15.720 -0.1345 -0.4951  0.3226
15229TIP3    H167178   3.930   4.548  15.785 -0.2199 -0.3969  0.1854
15229TIP3    H267179   3.915   4.508  15.639  1.4095  0.6175 -0.2914
15230TIP3   OH267180   5.837   1.665  16.194  0.2283  0.4248 -0.5556
15230TIP3    H167181   5.747   1.659  16.224  0.0815  1.5052 -0.7568
15230TIP3    H267182   5.831   1.695  16.103  0.7872  0.3398 -0.6299
15231TIP3   OH267183   5.460   5.666   5.921  0.5199 -0.3884 -0.4007
15231TIP3    H167184   5.384   5.693   5.869 -0.2700  0.9622  1.3573
15231TIP3    H267185   5.514   5.616   5.860 -1.4983 -0.9179 -1.8597
15232TIP3   OH267186   0.851   6.717   5.283  0.4428 -0.2765  0.1515
15232TIP3    H167187   0.935   6.715   5.238  0.5001 -0.3666  0.2635
15232TIP3    H267188   0.862   6.780   5.354  0.0648  0.5832 -0.5264
15233TIP3   OH267189   4.501   3.877  13.285 -0.0780  0.2518  0.0088
15233TIP3    H167190   4.451   3.908  13.209 -0.7753 -1.0075 -0.0686
15233TIP3    H267191   4.462   3.793  13.307  3.0583 -1.6901 -1.1254
15234TIP3   OH267192   6.295   2.870  16.857 -0.4139  0.4669  0.5164
15234TIP3    H167193   6.230   2.861  16.787 -0.5008  0.1554  0.6362
15234TIP3    H267194   6.366   2.811  16.832 -0.7648 -0.1958  1.0526
15235TIP3   OH267195   5.079   5.293   3.954 -0.0447 -0.7058  0.2104
15235TIP3    H167196   5.092   5.229   3.884 -0.0692 -0.8870  0.3702
15235TIP3    H267197   5.088   5.378   3.911 -0.7689 -0.8024 -0.1566
15236TIP3   OH267198   5.190   2.427  11.449 -1.1359  0.4592 -0.3141
15236TIP3    H167199   5.228   2.514  11.459 -1.4244  0.4529  1.1119
15236TIP3    H267200   5.129   2.436  11.376 -0.9338  1.3760 -0.3847
15237TIP3   OH267201   1.587   1.973  15.115 -0.8480  0.2399 -0.5817
15237TIP3    H167202   1.529   1.966  15.190 -0.4493 -1.6725 -0.3927
15237TIP3    H267203   1.653   2.037  15.141 -1.6144  0.7919  0.0561
15238TIP3   OH267204   0.490   2.764   3.394  0.0331  0.8976  0.1302
15238TIP3    H167205   0.458   2.851   3.416 -1.6603  0.8758 -1.8982
15238TIP3    H267206   0.456   2.707   3.463  1.1491  1.7894  1.4669
15239TIP3   OH267207   1.930   3.872  13.316 -0.2113  0.1438 -0.2979
15239TIP3    H167208   2.021   3.897  13.330  0.3214  0.0216 -3.0401
15239TIP3    H267209   1.934   3.794  13.261 -1.9697  1.0126 -1.7552
15240TIP3   OH267210   5.371   6.072  14.327 -0.4911 -1.1122  0.2788
15240TIP3    H167211   5.465   6.052  14.325  0.0457  1.1838 -0.5480
15240TIP3    H267212   5.358   6.117  14.411 -0.7429 -0.9903  0.1753
15241TIP3   OH267213   6.378   0.229   1.997 -0.0389 -0.1333  0.1657
15241TIP3    H167214   6.462   0.253   1.959  0.2398 -0.7237  0.3872
15241TIP3    H267215   6.314   0.284   1.951  0.4668  0.3443  0.0204
15242TIP3   OH267216   0.803   0.473   4.425  0.2318  0.1788 -0.0983
15242TIP3    H167217   0.862   0.441   4.357 -0.6177 -0.8549 -0.3811
15242TIP3    H267218   0.858   0.482   4.503  0.7473 -0.9060 -0.3138
15243TIP3   OH267219   1.327   0.505   4.605  0.2243  0.3725  0.2568
15243TIP3    H167220   1.287   0.566   4.667 -0.7676  0.8643 -0.8355
15243TIP3    H267221   1.413   0.541   4.586 -0.2887  1.3517 -0.2490
15244TIP3   OH267222   6.754   0.872   0.763  0.0373 -0.0287  0.4221
15244TIP3    H167223   6.752   0.926   0.842  0.8732  0.1002  0.3607
15244TIP3    H267224   6.680   0.904   0.711 -0.0484  0.4143  0.8065
15245TIP3   OH267225   5.495   3.666   3.922 -0.1144 -0.1795  0.0861
15245TIP3    H167226   5.550   3.718   3.863 -1.1941  1.1973  0.2310
15245TIP3    H267227   5.509   3.705   4.008 -0.4632 -0.5383  0.3074
15246TIP3   OH267228   3.583   6.758   3.103 -0.0533  0.3306 -0.0173
15246TIP3    H167229   3.652   6.703   3.140  1.0375  2.8075  1.9584
15246TIP3    H267230   3.611   6.775   3.013  1.0879  0.0085  0.2670
15247TIP3   OH267231   2.089   4.897  15.724 -0.0127 -0.4023 -0.2906
15247TIP3    H167232   2.115   4.849  15.802 -0.4467 -0.3795 -0.1296
15247TIP3    H267233   2.138   4.856  15.653  0.3023 -0.4918 -0.0234
15248TIP3   OH267234   5.124   1.672   5.613 -0.2361 -0.4766  0.0501
15248TIP3    H167235   5.102   1.591   5.658 -0.3324 -1.0824 -1.0407
15248TIP3    H267236   5.194   1.711   5.664  0.4171 -1.6968  0.1110
15249TIP3   OH267237   2.629   5.884   5.122 -0.3546  0.3386 -0.5701
15249TIP3    H167238   2.682   5.929   5.188 -0.2581 -0.7585  0.1287
15249TIP3    H267239   2.672   5.906   5.039  0.4344  0.5030 -0.1334
15250TIP3   OH267240   3.616   6.833  10.887  0.2690  0.0101  0.7727
15250TIP3    H167241   3.604   6.742  10.858 -4.0245  1.1440 -1.8555
15250TIP3    H267242   3.690   6.864  10.835 -0.5666 -1.0220 -1.1479
15251TIP3   OH267243   1.132   0.625  14.837  0.2460 -0.3018  0.3305
15251TIP3    H167244   1.038   0.608  14.826  0.2593 -0.5508  0.5983
15251TIP3    H267245   1.169   0.612  14.750  0.0006  0.0080  0.1771
15252TIP3   OH267246   4.451   6.729  12.559 -0.0728  0.2493 -0.3161
15252TIP3    H167247   4.523   6.666  12.556  0.0736  0.3584  0.6312
15252TIP3    H267248   4.446   6.756  12.651 -1.6147 -0.1075 -0.2618
15253TIP3   OH267249   1.889   1.527   1.663  0.0126 -0.3892  0.6913
15253TIP3    H167250   1.890   1.619   1.636  2.1361 -0.1743  1.3950
15253TIP3    H267251   1.800   1.498   1.642  0.0942  1.0431 -2.1502
15254TIP3   OH267252   0.935   1.070   0.029  0.2835  0.2895 -0.5567
15254TIP3    H167253   1.022   1.054   0.064  0.7168  2.0872 -0.6699
15254TIP3    H267254   0.926   1.008  -0.043  0.7349 -1.1315  0.5720
15255TIP3   OH267255   1.239   3.241   4.433  0.3057 -0.2932  0.0040
15255TIP3    H167256   1.262   3.153   4.462  0.7586  0.3596  1.7059
15255TIP3    H267257   1.144   3.245   4.441  0.1453 -1.0038 -1.2624
15256TIP3   OH267258   1.370   3.063  11.887  0.4015 -0.5756 -0.1454
15256TIP3    H167259   1.305   3.009  11.930  0.2233  0.2938  0.7163
15256TIP3    H267260   1.361   3.149  11.928  2.2733 -0.4948  0.1847
15257TIP3   OH267261   0.116   6.099  12.525 -0.2250 -0.3685 -0.2213
15257TIP3    H167262   0.100   6.180  12.574 -1.8975 -0.8918  0.1650
15257TIP3    H267263   0.056   6.035  12.564  3.1246 -2.7285  1.5672
15258TIP3   OH267264   1.017   6.375  14.263  0.6467 -0.1216 -0.0722
15258TIP3    H167265   1.059   6.404  14.182  1.1222 -0.5710  0.0104
15258TIP3    H267266   0.927   6.355  14.237  1.4430 -2.8857 -1.1466
15259TIP3   OH267267   6.356   0.661   5.433 -0.1960 -0.9714 -0.2199
15259TIP3    H167268   6.303   0.609   5.372 -1.1692  0.2633 -0.4715
15259TIP3    H267269   6.368   0.745   5.389 -3.4631  1.0984  2.3551
15260TIP3   OH267270   1.142   4.607   3.717 -0.1632  0.3161 -0.4648
15260TIP3    H167271   1.235   4.582   3.715 -0.5380 -1.3574  0.7352
15260TIP3    H267272   1.096   4.532   3.680 -1.0262  1.4168 -1.7119
15261TIP3   OH267273   6.165   6.040   3.092  0.0692  0.2771  0.2457
15261TIP3    H167274   6.128   6.110   3.147  0.1458  0.6171 -0.1285
15261TIP3    H267275   6.182   6.083   3.008  2.1380  0.3684  0.6654
15262TIP3   OH267276   1.791   0.496  14.494  0.2896  0.3776 -0.2721
15262TIP3    H167277   1.705   0.505  14.535  1.0937  1.7203  1.2613
15262TIP3    H267278   1.823   0.586  14.486  1.8857 -0.1219 -0.0102
15263TIP3   OH267279   2.677   4.228  13.984 -0.4738  0.5019 -0.2153
15263TIP3    H167280   2.668   4.315  13.946 -0.7453  0.3743 -0.4439
15263TIP3    H267281   2.656   4.168  13.913 -2.0330  0.2755  0.3933
15264TIP3   OH267282   6.188   3.905  13.897  0.3216 -1.1115 -0.4589
15264TIP3    H167283   6.142   3.963  13.836  2.2217  0.3119 -0.6360
15264TIP3    H267284   6.145   3.919  13.981  0.7928  0.7323 -0.4656
15265TIP3   OH267285   3.367   6.743  13.273 -0.6253  0.0671  0.0628
15265TIP3    H167286   3.299   6.676  13.276 -1.0300  0.5146  0.9964
15265TIP3    H267287   3.411   6.736  13.358 -0.2576  0.5641 -0.0854
15266TIP3   OH267288   6.241   2.237   4.705  0.2525  0.1600  0.2887
15266TIP3    H167289   6.318   2.214   4.757  0.4944 -0.4390 -0.3070
15266TIP3    H267290   6.276   2.254   4.618 -0.1492  1.1075  0.3052
15267TIP3   OH267291   0.591   1.788  14.760  0.3595  0.5877  0.3590
15267TIP3    H167292   0.527   1.722  14.735  0.7601  0.5523 -0.6267
15267TIP3    H267293   0.625   1.821  14.677  0.5296  1.6824  0.8372
15268TIP3   OH267294   0.684   3.454  14.379 -0.2209  0.3088  0.1855
15268TIP3    H167295   0.770   3.433  14.415 -1.0921 -3.0766  0.6270
15268TIP3    H267296   0.680   3.408  14.295 -1.4979  0.6323  0.0374
15269TIP3   OH267297   2.638   4.140  11.434  0.4968 -0.3129 -0.0458
15269TIP3    H167298   2.594   4.083  11.496  1.2157 -1.5001 -0.5886
15269TIP3    H267299   2.622   4.229  11.467  0.5595 -0.8921  1.6205
15270TIP3   OH267300   2.920   3.351  15.895  0.3325  0.3959 -0.9152
15270TIP3    H167301   2.830   3.319  15.887  0.0444  1.3879 -1.8121
15270TIP3    H267302   2.913   3.446  15.889  1.3026  0.5975  0.5042
15271TIP3   OH267303   4.484   2.929  11.280 -0.1752 -0.6760  0.0065
15271TIP3    H167304   4.408   2.981  11.251  0.3822 -0.0584 -0.3603
15271TIP3    H267305   4.551   2.946  11.214  0.2467 -1.3232  0.2657
15272TIP3   OH267306   5.156   3.801  10.799  0.0235  0.3936  0.2493
15272TIP3    H167307   5.138   3.885  10.842  0.1898  1.9418 -2.4765
15272TIP3    H267308   5.080   3.788  10.742 -0.0430 -1.4275  0.6927
15273TIP3   OH267309   0.069   3.862  11.200 -0.1916 -0.4389 -0.1565
15273TIP3    H167310   0.078   3.860  11.105  0.3998  0.9471 -0.1557
15273TIP3    H267311   0.151   3.826  11.233 -0.3135 -0.7279 -0.1662
15274TIP3   OH267312   5.194   3.964  12.988  0.5230 -0.0920  0.1876
15274TIP3    H167313   5.221   4.014  12.911  1.1025 -2.2691 -1.1494
15274TIP3    H267314   5.248   3.884  12.984 -1.3628 -1.5089  1.2754
15275TIP3   OH267315   3.687   4.892   4.298  0.0312  0.3539  0.5476
15275TIP3    H167316   3.662   4.854   4.214 -0.4493  0.3261  0.6960
15275TIP3    H267317   3.685   4.986   4.285  1.3726  0.3461  0.1365
15276TIP3   OH267318   1.554   0.503  14.630  0.6404  0.3430  0.1354
15276TIP3    H167319   1.562   0.412  14.657  1.6316  0.3730 -0.0225
15276TIP3    H267320   1.463   0.526  14.649  0.4127 -0.6398  0.2823
15277TIP3   OH267321   1.532   5.337   5.522  0.2935 -0.7235 -0.5231
15277TIP3    H167322   1.541   5.362   5.614  0.7808  0.5230 -0.8819
15277TIP3    H267323   1.621   5.319   5.493  0.2554 -0.2246 -0.9761
15278TIP3   OH267324   0.416   2.674  13.445  0.1298 -0.3061 -0.4049
15278TIP3    H167325   0.407   2.617  13.521  0.6922  1.1880  0.8204
15278TIP3    H267326   0.327   2.706  13.429  0.4593  1.9838  1.7722
15279TIP3   OH267327   4.465   0.600   5.332 -0.0397  0.2763 -0.0019
15279TIP3    H167328   4.525   0.532   5.301  1.2443  0.3512  2.1352
15279TIP3    H267329   4.379   0.559   5.327  0.3310 -0.3945 -1.6496
15280TIP3   OH267330   1.530   0.423  15.783  0.5078  0.4323  0.4224
15280TIP3    H167331   1.619   0.437  15.749  0.1856 -0.2193 -0.7308
15280TIP3    H267332   1.543   0.399  15.875  1.6039 -0.6773  0.0042
15281TIP3   OH267333   5.373   5.359  15.481 -0.3691 -0.6479 -0.0727
15281TIP3    H167334   5.361   5.264  15.489  1.6821 -0.9389  0.4082
15281TIP3    H267335   5.468   5.371  15.494 -0.3443  1.3124 -1.6991
15282TIP3   OH267336   0.300   3.276  15.567  0.2730 -0.4896  0.6246
15282TIP3    H167337   0.382   3.227  15.559 -0.3735 -1.2960 -2.6325
15282TIP3    H267338   0.240   3.215  15.609  0.3663 -1.3694 -0.4513
15283TIP3   OH267339   0.388   5.664   2.486 -0.2748 -0.7263 -0.0608
15283TIP3    H167340   0.338   5.589   2.454  0.0997 -1.4544  0.9971
15283TIP3    H267341   0.456   5.625   2.541  0.4782  0.3444 -0.2090
15284TIP3   OH267342   2.675   6.339   0.540 -0.5945  0.4227  0.0494
15284TIP3    H167343   2.673   6.419   0.592  3.1148  1.2967 -0.8422
15284TIP3    H267344   2.724   6.277   0.595 -0.4036 -0.0486 -0.6429
15285TIP3   OH267345   6.590   0.913  14.430  0.1707 -0.3412 -0.3292
15285TIP3    H167346   6.677   0.953  14.431 -0.8797  2.1514  1.6336
15285TIP3    H267347   6.576   0.889  14.338  2.6741 -0.3161 -0.7803
15286TIP3   OH267348   1.296   3.963   1.613  0.1777 -0.1849 -0.1612
15286TIP3    H167349   1.261   3.982   1.699  0.6290 -1.8088  0.4204
15286TIP3    H267350   1.227   3.991   1.552 -1.0860 -1.0117  0.8290
15287TIP3   OH267351   0.173   6.195  13.471 -0.0088  0.2277  0.1337
15287TIP3    H167352   0.207   6.106  13.461 -1.8299 -0.8320  2.5185
15287TIP3    H267353   0.084   6.191  13.437 -0.1455  1.1433  0.3464
15288TIP3   OH267354   2.495   0.108  16.610  0.2087  0.5298 -0.1941
15288TIP3    H167355   2.432   0.150  16.669  1.8607 -0.5389  2.4968
15288TIP3    H267356   2.461   0.020  16.598  1.3154 -0.1655  1.5605
15289TIP3   OH267357   2.431   0.971  11.485  0.0972  0.0296  0.0877
15289TIP3    H167358   2.386   1.010  11.560 -2.5859  1.7393 -2.2059
15289TIP3    H267359   2.380   0.893  11.464 -0.6344  0.8394 -1.2945
15290TIP3   OH267360   2.499   4.547  15.126 -1.1575  0.2445 -0.1389
15290TIP3    H167361   2.463   4.636  15.127 -1.7862  0.0486  2.4489
15290TIP3    H267362   2.431   4.495  15.083 -1.0289  0.9116 -1.1781
15291TIP3   OH267363   2.844   3.496  13.896 -0.8621  0.4664  0.3105
15291TIP3    H167364   2.763   3.503  13.946 -1.2139  2.6320 -0.4836
15291TIP3    H267365   2.913   3.516  13.959 -0.7208 -2.6390  1.3244
15292TIP3   OH267366   2.353   3.683  15.833 -0.6070  0.2561  0.4263
15292TIP3    H167367   2.321   3.760  15.879 -0.7734  0.2504  0.3210
15292TIP3    H267368   2.307   3.684  15.749 -0.3529  0.2319  0.2869
15293TIP3   OH267369   0.475   2.439  16.642  0.1383 -0.4622 -0.8533
15293TIP3    H167370   0.404   2.503  16.641 -0.9761 -1.6437 -0.1481
15293TIP3    H267371   0.533   2.467  16.713  0.0667  0.1699 -1.0404
15294TIP3   OH267372   0.025   5.864  13.528  0.2589  0.7460  0.1808
15294TIP3    H167373   0.099   5.872  13.588  0.4336 -0.3756  0.1386
15294TIP3    H267374   0.062   5.824  13.450  0.3541  3.5282 -1.3346
15295TIP3   OH267375   1.138   1.088  15.122 -0.1729 -0.6286 -0.1907
15295TIP3    H167376   1.054   1.134  15.130  1.1218  1.7588  1.1665
15295TIP3    H267377   1.133   1.044  15.038 -1.9457  1.3128 -1.2174
15296TIP3   OH267378   0.202   1.880   4.297 -0.4565  0.2514 -0.1586
15296TIP3    H167379   0.269   1.818   4.268 -0.4204  0.3350 -0.2521
15296TIP3    H267380   0.242   1.928   4.369  0.3940  1.8711 -1.6645
15297TIP3   OH267381   5.897   4.807   4.410 -0.6669  0.5734  0.2799
15297TIP3    H167382   5.907   4.801   4.315 -1.2499  3.0701 -0.0169
15297TIP3    H267383   5.971   4.757   4.445  0.0990  0.3639 -1.5083
15298TIP3   OH267384   4.057   3.869  16.282  0.7748 -0.0633 -0.3812
15298TIP3    H167385   4.144   3.906  16.296  0.9255 -0.6109  0.1618
15298TIP3    H267386   4.072   3.776  16.265  0.2805 -0.2412  0.1042
15299TIP3   OH267387   0.441   0.759   0.991  0.8941  0.5712  0.3668
15299TIP3    H167388   0.369   0.763   1.055 -0.1525  0.5208 -0.7785
15299TIP3    H267389   0.513   0.804   1.034  0.2008  0.5837  1.5680
15300TIP3   OH267390   2.979   2.993  11.126 -0.2015 -0.0870  0.4859
15300TIP3    H167391   3.057   2.986  11.070 -0.1892 -0.8544  0.5872
15300TIP3    H267392   2.906   3.001  11.065  0.0956  2.8021  0.3789
15301TIP3   OH267393   6.735   5.863   0.571  0.0082  0.5221 -0.1409
15301TIP3    H167394   6.794   5.819   0.509  0.7900  0.9502  0.2808
15301TIP3    H267395   6.653   5.813   0.566  1.1994 -1.7260  1.1686
15302TIP3   OH267396   2.030   5.226  16.932 -0.0273  0.1401  0.1302
15302TIP3    H167397   1.992   5.165  16.869  1.7291 -0.1462 -0.7178
15302TIP3    H267398   1.958   5.248  16.991 -1.4622 -0.3971 -1.3493
15303TIP3   OH267399   6.065   1.822   3.941  0.4943  0.5468  0.5040
15303TIP3    H167400   6.119   1.808   3.863  0.5461 -0.2312  0.6705
15303TIP3    H267401   6.078   1.743   3.993 -1.4798 -0.0444  0.1679
15304TIP3   OH267402   2.432   2.930   2.409 -0.5375 -0.1057 -0.3640
15304TIP3    H167403   2.339   2.918   2.428 -0.2110 -0.4039  1.1589
15304TIP3    H267404   2.445   3.025   2.414 -0.6533 -0.1064 -0.0452
15305TIP3   OH267405   4.806   6.763   1.237  0.0463  0.1575 -0.2659
15305TIP3    H167406   4.722   6.766   1.191  1.1280  1.4304 -2.2777
15305TIP3    H267407   4.830   6.855   1.249  0.7944 -0.1792  1.0565
15306TIP3   OH267408   1.481   0.882   2.169  0.1296  0.2440  0.2385
15306TIP3    H167409   1.465   0.972   2.142  1.2241  0.3194 -0.2185
15306TIP3    H267410   1.577   0.874   2.170  0.1066 -1.6389 -2.3032
15307TIP3   OH267411   2.998   2.332   5.233  0.0542  0.0841 -0.2506
15307TIP3    H167412   2.909   2.321   5.269  0.0133  0.5703 -0.2019
15307TIP3    H267413   3.056   2.307   5.305 -0.0408 -1.1795 -0.5860
15308TIP3   OH267414   5.491   3.985  12.747 -0.5201  0.6574  0.1222
15308TIP3    H167415   5.487   3.891  12.731 -1.4959  0.7251 -0.0756
15308TIP3    H267416   5.526   3.993  12.836  1.5862  0.1809 -0.6236
15309TIP3   OH267417   6.843   2.581  15.588 -0.1043 -0.2931  0.5109
15309TIP3    H167418   6.892   2.527  15.526  0.5684  0.7519  0.0961
15309TIP3    H267419   6.772   2.525  15.618 -0.1724 -0.9818 -0.8526
15310TIP3   OH267420   2.488   4.226   0.382 -0.0368 -0.2005 -0.2004
15310TIP3    H167421   2.477   4.288   0.453  1.3774  0.0477 -0.1673
15310TIP3    H267422   2.492   4.280   0.303  0.2938 -0.3244 -0.2696
15311TIP3   OH267423   0.082   4.691   5.721 -0.1330  0.5700  0.0470
15311TIP3    H167424   0.022   4.687   5.796 -0.1598  0.6382  0.0289
15311TIP3    H267425   0.141   4.617   5.734 -0.2123  0.5101  0.0723
15312TIP3   OH267426   5.883   2.837  14.990 -0.0786 -0.2592  0.5946
15312TIP3    H167427   5.858   2.877  14.907 -0.2134 -0.4791  0.5315
15312TIP3    H267428   5.978   2.848  14.994 -0.0898 -0.1118  0.4846
15313TIP3   OH267429   4.158   0.481  13.147  0.3610  0.1212 -0.3225
15313TIP3    H167430   4.147   0.432  13.229  0.1413  0.8466  0.0857
15313TIP3    H267431   4.086   0.450  13.091 -0.4171  0.7394  0.3156
15314TIP3   OH267432   1.536   2.358   1.428  0.3448 -0.2147 -1.0816
15314TIP3    H167433   1.587   2.391   1.355  0.9552  2.1054  0.2908
15314TIP3    H267434   1.478   2.430   1.452 -0.7071 -1.3546 -0.0379
15315TIP3   OH267435   2.206   5.132   0.618 -0.2988  0.2179 -0.2538
15315TIP3    H167436   2.286   5.185   0.624  0.8003 -1.1152 -1.9755
15315TIP3    H267437   2.238   5.042   0.615 -1.9612 -0.4097  0.0180
15316TIP3   OH267438   6.523   5.228   0.838 -0.3154  0.3288 -0.5898
15316TIP3    H167439   6.549   5.314   0.805 -0.5860  0.5294 -0.2874
15316TIP3    H267440   6.578   5.215   0.916 -1.1082  0.7624  0.0630
15317TIP3   OH267441   6.506   1.712   0.579 -0.3091  0.2256  0.5034
15317TIP3    H167442   6.458   1.751   0.652 -2.2662 -0.1443 -0.5242
15317TIP3    H267443   6.480   1.763   0.503  0.8961 -0.0472 -0.1203
15318TIP3   OH267444   3.503   1.332   3.483 -0.2467 -0.1445 -0.5502
15318TIP3    H167445   3.499   1.276   3.560  1.2522  0.2208 -0.1908
15318TIP3    H267446   3.446   1.406   3.504 -1.0394 -0.7793 -0.4192
15319TIP3   OH267447   4.519   3.293  16.954 -0.4339  0.3724  0.4822
15319TIP3    H167448   4.473   3.303  17.037  1.5916  1.6415  1.5230
15319TIP3    H267449   4.534   3.382  16.923  1.8648  0.0649  0.5348
15320TIP3   OH267450   0.777   4.828  11.203 -0.4694 -0.9750  0.3316
15320TIP3    H167451   0.742   4.911  11.234  0.3643 -0.0025 -1.1958
15320TIP3    H267452   0.756   4.765  11.272  2.5049  1.2374  3.6072
15321TIP3   OH267453   0.590   1.226   2.057 -0.1964  0.5863  0.0359
15321TIP3    H167454   0.517   1.226   1.996  0.7756  0.8796 -1.1739
15321TIP3    H267455   0.555   1.185   2.137 -2.3818  2.9342  0.4091
15322TIP3   OH267456   2.548   0.868  17.014  0.0227 -0.5676  0.3083
15322TIP3    H167457   2.634   0.909  17.003 -0.4143  0.0097 -1.2002
15322TIP3    H267458   2.518   0.898  17.100  1.3623 -0.8716  0.9041
15323TIP3   OH267459   3.285   3.016   1.993  0.1827 -0.2754 -0.7166
15323TIP3    H167460   3.216   3.026   1.927 -0.8401 -0.3629  0.3144
15323TIP3    H267461   3.352   3.079   1.967 -1.1035  1.1503 -0.7284
15324TIP3   OH267462   0.281   1.375  15.150 -0.3811 -0.8148 -0.1147
15324TIP3    H167463   0.258   1.448  15.207 -0.5478 -0.0227 -1.1768
15324TIP3    H267464   0.224   1.303  15.178 -2.2491  0.3026 -0.9040
15325TIP3   OH267465   6.675   0.991   2.266  0.8182 -0.1918 -0.0253
15325TIP3    H167466   6.735   0.925   2.231  0.6078 -0.3309 -0.1261
15325TIP3    H267467   6.705   1.074   2.228 -0.1128 -0.4905 -1.4841
15326TIP3   OH267468   1.929   0.729   3.296 -0.4168 -0.3198  0.3215
15326TIP3    H167469   1.902   0.708   3.207 -0.4794 -1.3342  0.5681
15326TIP3    H267470   1.873   0.674   3.351  0.0430 -0.1516  0.9629
15327TIP3   OH267471   2.816   1.271  15.794  0.2831 -0.5692  0.2313
15327TIP3    H167472   2.865   1.189  15.795  2.3314  0.5874  0.5860
15327TIP3    H267473   2.881   1.337  15.770 -1.2958  0.9667  0.0187
15328TIP3   OH267474   0.129   3.391   2.884  0.2335  0.4480  0.2448
15328TIP3    H167475   0.159   3.466   2.935  2.0753 -0.1817  0.1718
15328TIP3    H267476   0.051   3.360   2.930  1.2255  0.5458  2.0851
15329TIP3   OH267477   5.112   0.194   0.773  0.0069  0.5015 -0.0113
15329TIP3    H167478   5.085   0.238   0.692  0.7268 -2.1855 -1.8422
15329TIP3    H267479   5.194   0.238   0.797  0.6139  0.3531 -1.6535
15330TIP3   OH267480   6.759   0.067   4.109 -0.6801  0.9263 -0.8623
15330TIP3    H167481   6.694   0.022   4.056 -1.1060  0.8755 -0.3046
15330TIP3    H267482   6.730   0.158   4.111 -0.2745  1.0695 -1.2991
15331TIP3   OH267483   6.125   3.560   5.425  0.6659 -0.8183 -0.0845
15331TIP3    H167484   6.157   3.610   5.500 -0.8970 -0.0758  0.1398
15331TIP3    H267485   6.199   3.507   5.398  1.8966  0.4140  0.7060
15332TIP3   OH267486   3.804   2.214  13.900 -0.0996  1.1088  0.2323
15332TIP3    H167487   3.770   2.135  13.941  0.6170 -0.7829 -2.5521
15332TIP3    H267488   3.729   2.273  13.895 -1.2378 -0.2740  0.3917
15333TIP3   OH267489   4.955   1.581  13.292 -0.1824 -0.1871  0.0221
15333TIP3    H167490   5.038   1.558  13.252 -0.6293 -1.6620 -0.1027
15333TIP3    H267491   4.889   1.547  13.231 -0.8722  0.0121  0.6441
15334TIP3   OH267492   4.914   5.591   1.934  0.1255  0.3651 -0.5235
15334TIP3    H167493   4.943   5.558   2.019 -1.9746 -2.9904 -0.9005
15334TIP3    H267494   4.995   5.609   1.886  1.4333 -1.1671  0.9853
15335TIP3   OH267495   3.038   2.685  14.672  0.3211  0.6484 -0.1523
15335TIP3    H167496   3.000   2.608  14.713 -1.0179  0.7189 -1.1879
15335TIP3    H267497   2.968   2.719  14.616  1.6158  1.3463 -1.4035
15336TIP3   OH267498   4.951   6.027  13.242 -0.2627  0.0767 -0.0276
15336TIP3    H167499   5.046   6.035  13.231  0.0477 -1.1095  1.4173
15336TIP3    H267500   4.932   5.936  13.221 -1.1495  0.4042 -0.6694
15337TIP3   OH267501   1.601   4.248   5.171  0.3130 -0.1967  0.2107
15337TIP3    H167502   1.592   4.178   5.106 -1.3217  1.8080 -1.8975
15337TIP3    H267503   1.514   4.257   5.209  0.2238  1.2559 -0.2521
15338TIP3   OH267504   1.032   2.716  16.960 -0.0833  0.0961  0.4103
15338TIP3    H167505   0.991   2.648  16.907 -0.8872  0.4496  0.5621
15338TIP3    H267506   1.099   2.754  16.903  0.0563 -0.5084  0.1685
15339TIP3   OH267507   5.924   5.108  10.582  0.1983  0.0022 -0.2163
15339TIP3    H167508   5.988   5.104  10.653  0.7027 -3.4416 -0.7334
15339TIP3    H267509   5.972   5.082  10.504 -1.5794 -1.7687 -0.7785
15340TIP3   OH267510   2.836   0.777   3.276 -0.3857  0.3357  0.1912
15340TIP3    H167511   2.875   0.823   3.202  0.7669 -1.3916 -0.3437
15340TIP3    H267512   2.747   0.813   3.283 -0.3526  0.8930 -1.7111
15341TIP3   OH267513   5.038   2.318   3.341  0.1962  0.0980 -0.1971
15341TIP3    H167514   5.088   2.281   3.269  0.1345  1.8607 -1.1951
15341TIP3    H267515   5.102   2.331   3.411  0.2310 -1.7502  0.1633
15342TIP3   OH267516   6.017   3.273   5.145 -0.2727 -1.0687 -0.4668
15342TIP3    H167517   5.973   3.259   5.229  0.6894  0.3117  0.3137
15342TIP3    H267518   6.009   3.189   5.099  0.5182 -2.3909  1.6434
15343TIP3   OH267519   3.857   3.626  16.442 -0.2423 -0.3184 -0.1270
15343TIP3    H167520   3.767   3.611  16.414  0.1581 -1.2637 -0.9421
15343TIP3    H267521   3.908   3.625  16.362  0.6199 -0.7142  0.4093
15344TIP3   OH267522   6.062   4.676  14.859 -0.4597 -0.6165 -0.0719
15344TIP3    H167523   6.151   4.644  14.846  0.4361  1.2928  0.9747
15344TIP3    H267524   6.051   4.745  14.793 -0.1004  1.0684  1.5375
15345TIP3   OH267525   1.638   0.050   0.721 -0.8255  0.4726 -0.0509
15345TIP3    H167526   1.637  -0.026   0.779 -0.0512 -1.0333 -1.9002
15345TIP3    H267527   1.616   0.124   0.778  3.2741 -0.2605  2.9927
15346TIP3   OH267528   2.116   4.813   2.194  0.2633  0.5632 -0.1336
15346TIP3    H167529   2.152   4.891   2.152  0.1968  0.2370 -0.8276
15346TIP3    H267530   2.134   4.825   2.287 -1.9892  2.5855  0.1220
15347TIP3   OH267531   1.191   1.693  14.879  0.5260  0.2686 -0.1168
15347TIP3    H167532   1.098   1.716  14.884  0.3931 -0.2494 -0.1584
15347TIP3    H267533   1.237   1.773  14.906  0.0359  0.1470  1.1719
15348TIP3   OH267534   2.664   4.902   4.164 -0.7810  0.1621  0.1415
15348TIP3    H167535   2.745   4.853   4.179 -0.3253  0.9295  0.2620
15348TIP3    H267536   2.598   4.835   4.147  0.0178 -0.4506 -0.6234
15349TIP3   OH267537   3.667   2.876   1.073  0.0076  0.1925 -0.3847
15349TIP3    H167538   3.611   2.814   1.120 -0.9155  0.5124 -1.0216
15349TIP3    H267539   3.606   2.928   1.020  1.0415 -0.3757 -2.2100
15350TIP3   OH267540   1.811   6.387  13.969 -0.0807  0.8000  0.0103
15350TIP3    H167541   1.748   6.455  13.992  0.9130  1.3094  1.3087
15350TIP3    H267542   1.889   6.408  14.019  1.2776  0.3784 -1.8077
15351TIP3   OH267543   0.737   0.624  15.381  0.2719  0.8112  0.3048
15351TIP3    H167544   0.724   0.591  15.292 -2.1691  0.4458  0.7323
15351TIP3    H267545   0.691   0.708  15.382 -1.9154 -0.3004  1.8300
15352TIP3   OH267546   2.644   4.439  14.802  0.3597  0.1522  0.6865
15352TIP3    H167547   2.647   4.344  14.786  2.5116  0.5750 -2.2391
15352TIP3    H267548   2.727   4.457  14.847 -0.2880  0.6410  1.7289
15353TIP3   OH267549   1.283   4.068  15.509 -0.0195  0.5250  0.1002
15353TIP3    H167550   1.245   4.065  15.597  2.9383  2.6164  1.6556
15353TIP3    H267551   1.238   4.141  15.466 -0.5267  0.4063  0.4270
15354TIP3   OH267552   0.325   1.167  14.699  0.3229 -0.5156  0.3482
15354TIP3    H167553   0.283   1.088  14.667 -0.3414 -0.9550  2.1545
15354TIP3    H267554   0.419   1.150  14.689  0.1616 -0.6653 -1.1515
15355TIP3   OH267555   1.048   1.675  13.327 -0.1862  0.3676 -0.3156
15355TIP3    H167556   1.053   1.582  13.349  2.9182  0.5986  0.3859
15355TIP3    H267557   1.067   1.678  13.233  2.1197  0.3557  0.0853
15356TIP3   OH267558   5.768   1.716   3.179 -0.0394 -0.3788  0.0530
15356TIP3    H167559   5.764   1.681   3.268  1.0402  2.7017  1.4676
15356TIP3    H267560   5.855   1.693   3.147 -0.2241 -1.0210  0.0102
15357TIP3   OH267561   6.281   6.686  14.237 -0.1948  0.4096  0.5699
15357TIP3    H167562   6.317   6.724  14.317 -0.9213 -0.2724  1.2471
15357TIP3    H267563   6.257   6.597  14.262 -0.7965  0.3128 -0.3036
15358TIP3   OH267564   1.371   2.053  12.302  0.0260  0.1147 -0.0615
15358TIP3    H167565   1.336   2.119  12.242  0.0043  2.1292  1.9873
15358TIP3    H267566   1.296   2.026  12.354  0.6419  1.1891  1.4594
15359TIP3   OH267567   1.738   6.579   1.294  0.3668  0.0861 -0.4602
15359TIP3    H167568   1.660   6.524   1.294  1.2778 -1.4249  2.5943
15359TIP3    H267569   1.704   6.668   1.308 -0.9050 -0.7520  2.9465
15360TIP3   OH267570   3.290   1.830   1.811  0.1546 -0.1415 -0.0911
15360TIP3    H167571   3.217   1.790   1.858 -0.3114 -0.4423 -1.0567
15360TIP3    H267572   3.325   1.760   1.757  0.5649  0.2514 -0.3430
15361TIP3   OH267573   1.585   6.493   3.026  0.1955 -0.4872 -0.5896
15361TIP3    H167574   1.571   6.473   3.119  0.8179 -0.5878 -0.5156
15361TIP3    H267575   1.665   6.544   3.024 -2.3445  3.9980 -0.5513
15362TIP3   OH267576   1.462   1.081  14.382 -0.1826 -0.0264  0.1639
15362TIP3    H167577   1.388   1.096  14.441 -1.0269 -1.9951 -0.3152
15362TIP3    H267578   1.495   0.995  14.407  0.4854 -0.1752 -1.1609
15363TIP3   OH267579   3.462   4.406  12.797  0.0385  0.0103 -0.4750
15363TIP3    H167580   3.537   4.352  12.825  0.0659  0.8425  1.1513
15363TIP3    H267581   3.388   4.372  12.847  0.3699  2.4708  1.8840
15364TIP3   OH267582   1.156   5.815  13.965  0.0356 -0.6623  1.0429
15364TIP3    H167583   1.085   5.871  13.935 -0.3582 -1.6964 -0.0390
15364TIP3    H267584   1.235   5.869  13.955 -0.2829 -0.4008 -0.3526
15365TIP3   OH267585   4.725   1.063  13.491  0.9225  0.3929 -0.6747
15365TIP3    H167586   4.797   1.125  13.477  0.4472  1.0419 -0.3273
15365TIP3    H267587   4.747   1.017  13.572 -0.0172  2.0447  0.5910
15366TIP3   OH267588   3.214   4.979   3.527  0.2190  0.3649  0.5719
15366TIP3    H167589   3.214   5.075   3.526 -0.6791  0.3787  0.5236
15366TIP3    H267590   3.132   4.956   3.572 -0.4578 -0.3719 -0.9714
15367TIP3   OH267591   3.292   2.124   5.352 -0.4699 -0.0559  0.4373
15367TIP3    H167592   3.377   2.101   5.391 -1.0223 -0.1992  1.6111
15367TIP3    H267593   3.240   2.157   5.426 -1.0342  1.2109 -0.4863
15368TIP3   OH267594   3.360   5.275  12.793 -0.1658 -0.1308 -0.6653
15368TIP3    H167595   3.452   5.274  12.817 -0.1466  0.3075 -0.7086
15368TIP3    H267596   3.356   5.228  12.710 -0.0782 -0.7127 -0.3432
15369TIP3   OH267597   4.800   5.356  11.716  0.0497  0.3214  0.4419
15369TIP3    H167598   4.816   5.433  11.771 -0.0390 -0.1490  1.1432
15369TIP3    H267599   4.727   5.381  11.660 -1.0859  0.2010  1.8032
15370TIP3   OH267600   0.336   2.466   5.854  0.5082  0.1119  0.1475
15370TIP3    H167601   0.424   2.447   5.886  1.8149  2.6608 -1.5586
15370TIP3    H267602   0.295   2.517   5.924  1.1678  0.6186  0.1766
15371TIP3   OH267603   4.333   6.404   5.558 -0.4663 -0.5418  0.2223
15371TIP3    H167604   4.245   6.386   5.525  0.2834 -0.9079 -1.7614
15371TIP3    H267605   4.391   6.374   5.488  1.1524  1.7958  0.4323
15372TIP3   OH267606   0.601   6.645   1.079 -0.3068 -0.0228  0.1292
15372TIP3    H167607   0.583   6.642   1.173  1.7192  1.1150  0.6186
15372TIP3    H267608   0.637   6.559   1.058  1.4785  0.4763  0.9665
15373TIP3   OH267609   2.528   6.070   1.401 -0.0635  0.2073 -0.6846
15373TIP3    H167610   2.621   6.084   1.384 -0.2687 -0.8585 -3.0723
15373TIP3    H267611   2.515   5.977   1.385 -1.4305  0.1821  0.3835
15374TIP3   OH267612   2.478   2.491   4.635 -0.1060  0.3553 -0.2645
15374TIP3    H167613   2.561   2.510   4.593 -0.2852 -0.6730 -1.0888
15374TIP3    H267614   2.429   2.573   4.628  0.7853  0.9451  0.1619
15375TIP3   OH267615   3.495   5.252  11.625  0.0341 -0.7226 -0.5902
15375TIP3    H167616   3.429   5.318  11.607  3.3880  2.4811 -2.7064
15375TIP3    H267617   3.466   5.209  11.706 -2.4924  3.2490  0.8920
15376TIP3   OH267618   2.129   5.740  12.820 -0.4954 -0.8226  0.2332
15376TIP3    H167619   2.185   5.675  12.776 -0.2237  0.7178 -1.8174
15376TIP3    H267620   2.045   5.695  12.830  0.0543 -1.9414  0.0767
15377TIP3   OH267621   5.129   4.036   1.074  0.5146  0.2433  0.1938
15377TIP3    H167622   5.121   3.967   1.009 -0.4472 -0.0981  0.6590
15377TIP3    H267623   5.137   3.989   1.158  0.8660  0.6888  0.4154
15378TIP3   OH267624   6.553   5.935   2.751  0.2498 -0.3463 -0.2416
15378TIP3    H167625   6.597   5.981   2.822  2.0304 -0.8677 -0.9446
15378TIP3    H267626   6.464   5.921   2.782 -0.2450  3.0272  0.2450
15379TIP3   OH267627   0.055   5.482   0.214 -0.1782  0.2788  0.6636
15379TIP3    H167628   0.059   5.514   0.124  0.2417  0.3667  0.7118
15379TIP3    H267629   0.130   5.423   0.222  0.7743  1.5253  1.4304
15380TIP3   OH267630   6.331   2.080  16.199  0.4550 -0.1652  0.3363
15380TIP3    H167631   6.249   2.043  16.166  1.1019 -1.2069 -0.1808
15380TIP3    H267632   6.374   2.007  16.243  1.0856  0.3723  0.6247
15381TIP3   OH267633   3.837   4.831  12.966  0.1865  0.5936  0.2394
15381TIP3    H167634   3.782   4.868  13.034  0.6123  0.7750  0.4917
15381TIP3    H267635   3.833   4.736  12.980  0.8335  0.6567  0.9765
15382TIP3   OH267636   0.375   6.048  12.483  0.1882  0.0683 -0.1474
15382TIP3    H167637   0.284   6.060  12.509 -0.3552 -0.0035 -1.8965
15382TIP3    H267638   0.383   6.097  12.401  1.6857 -0.0573 -0.1041
15383TIP3   OH267639   4.576   1.457   4.120 -0.1296 -0.0297  0.0574
15383TIP3    H167640   4.486   1.439   4.149 -1.0529  2.7754 -0.7574
15383TIP3    H267641   4.572   1.448   4.024  0.7429 -0.8384  0.0808
15384TIP3   OH267642   5.814   5.850   1.901  0.0557 -1.1474 -0.1069
15384TIP3    H167643   5.727   5.868   1.866  0.7173  0.4006 -1.0962
15384TIP3    H267644   5.820   5.902   1.981  0.0793 -1.2492 -0.0413
15385TIP3   OH267645   4.311   2.855   6.627  0.2230 -0.1287 -0.0349
15385TIP3    H167646   4.307   2.944   6.663 -0.1724 -0.4656  0.7742
15385TIP3    H267647   4.402   2.828   6.643 -0.0231 -0.3913  1.0396
15386TIP3   OH267648   1.463   6.439  16.196 -0.4965  0.2245  0.3417
15386TIP3    H167649   1.495   6.427  16.285 -1.5867 -0.0515  0.7084
15386TIP3    H267650   1.480   6.531  16.176 -1.2537  0.5622  1.2444
15387TIP3   OH267651   5.175   0.842   3.350  0.0235  0.0385 -0.0904
15387TIP3    H167652   5.114   0.791   3.297  0.7071 -0.2015 -0.6542
15387TIP3    H267653   5.120   0.884   3.416 -0.8321  0.2542 -0.9168
15388TIP3   OH267654   1.136   1.259   0.958  0.0541 -0.5057  0.8762
15388TIP3    H167655   1.084   1.180   0.975 -1.4472  0.2482  0.0620
15388TIP3    H267656   1.095   1.326   1.012  1.6702 -0.3804  1.9856
15389TIP3   OH267657   6.571   1.625   1.988  0.4228 -0.2404  0.6290
15389TIP3    H167658   6.643   1.656   1.933  0.6317 -0.2690  0.8839
15389TIP3    H267659   6.605   1.632   2.077 -0.1377  0.3910  0.7941
15390TIP3   OH267660   6.210   3.113  12.485  0.2864  0.3155 -0.0588
15390TIP3    H167661   6.289   3.059  12.481  1.2234  1.5354  1.0597
15390TIP3    H267662   6.205   3.141  12.576 -1.0267  0.8872 -0.2836
15391TIP3   OH267663   6.348   0.515  16.262 -0.4030 -0.5130  0.1210
15391TIP3    H167664   6.336   0.601  16.302  0.3876 -0.4969  0.3461
15391TIP3    H267665   6.329   0.528  16.169  0.0611 -0.0117  0.0950
15392TIP3   OH267666   5.771   4.939  15.837  0.1503  0.5254  0.4655
15392TIP3    H167667   5.855   4.936  15.792 -0.3938 -0.8450 -0.4909
15392TIP3    H267668   5.719   5.002  15.787 -0.6274 -1.3559 -1.2372
15393TIP3   OH267669   0.508   5.828  14.559 -0.3669 -0.7386  0.0334
15393TIP3    H167670   0.571   5.846  14.489 -0.4984  3.4297  0.7204
15393TIP3    H267671   0.428   5.873  14.532 -0.5456  0.6405  2.5519
15394TIP3   OH267672   6.437   2.448  17.033 -0.0548 -0.1659 -0.6843
15394TIP3    H167673   6.490   2.528  17.029 -0.7980  0.3185 -0.9120
15394TIP3    H267674   6.347   2.479  17.037 -0.3513 -0.9984 -0.8351
15395TIP3   OH267675   1.243   5.297  13.836  0.0056 -0.2846  0.4985
15395TIP3    H167676   1.213   5.344  13.758  0.7091  0.2488  0.5416
15395TIP3    H267677   1.296   5.225  13.801 -0.1841 -0.4115  0.4692
15396TIP3   OH267678   0.183   0.942  11.185  0.3643  0.6898  0.4477
15396TIP3    H167679   0.138   0.928  11.102  1.8452  2.1819 -0.6610
15396TIP3    H267680   0.230   0.860  11.201  0.6032  0.6262 -0.5378
15397TIP3   OH267681   6.464   0.936  14.917  0.3326  0.3011 -0.4686
15397TIP3    H167682   6.532   0.930  14.850  1.1957  2.5972  0.1166
15397TIP3    H267683   6.492   1.008  14.973 -2.2429  0.8683  0.2051
15398TIP3   OH267684   5.893   5.301  15.803 -0.9054 -0.2828 -0.2455
15398TIP3    H167685   5.884   5.387  15.762 -1.8336  0.0577  0.6075
15398TIP3    H267686   5.815   5.294  15.859 -1.2073 -1.9763 -0.8482
15399TIP3   OH267687   6.172   2.140   2.478  0.0804  0.0229 -0.3427
15399TIP3    H167688   6.102   2.111   2.420 -0.7597 -0.9060  1.1037
15399TIP3    H267689   6.248   2.089   2.450 -0.2830 -0.3437 -0.6819
15400TIP3   OH267690   1.545   5.265  13.306  0.1037  0.6451  0.1747
15400TIP3    H167691   1.632   5.304  13.308  0.9452 -1.0870 -0.2340
15400TIP3    H267692   1.532   5.239  13.215  0.1327 -1.1120  0.6350
15401TIP3   OH267693   4.775   0.307  14.365  0.1559  0.0361  0.5744
15401TIP3    H167694   4.810   0.226  14.327  1.7241  0.1969  1.5673
15401TIP3    H267695   4.765   0.287  14.458 -4.4612 -0.6425  0.1507
15402TIP3   OH267696   3.432   2.654   2.043  0.0948 -0.3560  0.2137
15402TIP3    H167697   3.351   2.704   2.042  0.4777  0.3851  1.8488
15402TIP3    H267698   3.430   2.607   2.127  1.5635  0.1018  0.5431
15403TIP3   OH267699   3.914   5.232   5.433  0.1527  0.2930  0.3349
15403TIP3    H167700   3.977   5.170   5.470  0.6553  1.3533  1.3061
15403TIP3    H267701   3.856   5.253   5.506 -0.5299  0.3328 -0.2153
15404TIP3   OH267702   0.222   3.317   1.743 -0.2053 -0.3341  0.2094
15404TIP3    H167703   0.230   3.222   1.741 -0.7213 -0.3951  0.7124
15404TIP3    H267704   0.131   3.335   1.718  0.6334  0.2043 -2.8075
15405TIP3   OH267705   2.409   3.429  13.424 -0.1575 -0.4645 -0.4598
15405TIP3    H167706   2.407   3.506  13.481  0.7877 -0.8709  0.1477
15405TIP3    H267707   2.457   3.457  13.346 -0.6332 -0.1780 -0.6537
15406TIP3   OH267708   3.787   6.029  14.500  0.3567 -0.6496 -0.1722
15406TIP3    H167709   3.867   6.073  14.473  1.2677 -2.2952 -0.3057
15406TIP3    H267710   3.767   5.970  14.428 -0.9332 -0.3521 -0.0883
15407TIP3   OH267711   2.760   2.568   0.366 -0.4852  0.0637 -0.0383
15407TIP3    H167712   2.813   2.490   0.382  1.2211  0.9370 -1.0305
15407TIP3    H267713   2.680   2.554   0.416  0.2123 -1.8380  0.6399
15408TIP3   OH267714   2.971   4.529  14.312 -0.4084  0.4499  0.1940
15408TIP3    H167715   2.929   4.461  14.258  1.1588 -0.1098 -0.3916
15408TIP3    H267716   2.923   4.527  14.394 -1.4696 -0.2078 -0.4082
15409TIP3   OH267717   2.369   2.980  15.712  0.1794  0.3551 -0.3662
15409TIP3    H167718   2.448   2.927  15.721  0.4024  0.8361  0.5959
15409TIP3    H267719   2.375   3.015  15.623 -1.3279 -3.3352 -2.1337
15410TIP3   OH267720   3.449   5.011   0.417 -0.3831 -0.2978  0.5833
15410TIP3    H167721   3.435   5.037   0.508 -1.1178 -1.9786  1.0003
15410TIP3    H267722   3.491   4.925   0.424 -1.0317 -0.7347 -0.6505
15411TIP3   OH267723   0.542   1.967   4.213 -0.1756  0.0985 -0.0881
15411TIP3    H167724   0.553   1.910   4.138  1.1117  1.5593 -1.0693
15411TIP3    H267725   0.510   2.049   4.177  1.2191  1.0925  0.7954
15412TIP3   OH267726   6.255   0.495   2.693  0.5918 -0.5589 -0.2701
15412TIP3    H167727   6.276   0.522   2.782  0.6814 -2.2422  0.2522
15412TIP3    H267728   6.174   0.445   2.701 -0.7574  1.2576 -1.5017
15413TIP3   OH267729   4.562   6.839   4.095 -0.1440  0.4807  0.4788
15413TIP3    H167730   4.597   6.924   4.121 -0.5557  0.6583  0.4525
15413TIP3    H267731   4.472   6.857   4.068  0.1247  0.2282 -0.6199
15414TIP3   OH267732   2.328   2.108   4.608  0.4033 -0.4506 -0.0364
15414TIP3    H167733   2.342   2.089   4.701 -0.0793 -0.3591  0.0585
15414TIP3    H267734   2.372   2.037   4.562  2.1291  0.4057  0.2081
15415TIP3   OH267735   1.004   3.665   0.319 -0.1241  0.0325 -0.0173
15415TIP3    H167736   1.028   3.716   0.397 -0.5887 -0.2271  0.3005
15415TIP3    H267737   0.934   3.716   0.279 -0.4147 -0.2222  0.1614
15416TIP3   OH267738   6.100   0.615   3.321  0.0343  0.4051 -0.2200
15416TIP3    H167739   6.162   0.628   3.249  0.4135  1.5302  0.2902
15416TIP3    H267740   6.077   0.704   3.349  1.6722  0.0468  2.5653
15417TIP3   OH267741   1.077   6.471  14.939  0.5167  0.0544  0.3425
15417TIP3    H167742   0.999   6.516  14.972 -0.2865 -0.6749 -0.5039
15417TIP3    H267743   1.148   6.500  14.996 -0.8630 -1.4121  3.0055
15418TIP3   OH267744   4.849   3.572   3.649  0.3212  0.0003  0.0256
15418TIP3    H167745   4.826   3.647   3.595 -0.4830 -0.3262 -0.0951
15418TIP3    H267746   4.944   3.569   3.647  0.3095 -0.4180 -1.9414
15419TIP3   OH267747   1.426   4.832   1.352 -0.1100  0.9576 -0.3505
15419TIP3    H167748   1.354   4.771   1.371  0.1739  1.2311  1.9678
15419TIP3    H267749   1.389   4.896   1.292 -1.7279  0.8977  0.5292
15420TIP3   OH267750   1.684   4.466   3.147 -0.3675  0.1059 -0.4825
15420TIP3    H167751   1.625   4.517   3.204 -0.9764  0.6101 -1.5442
15420TIP3    H267752   1.771   4.484   3.183 -0.7805 -0.0962  0.6848
15421TIP3   OH267753   6.049   2.933   1.188  0.4638 -0.3242  0.2124
15421TIP3    H167754   5.969   2.940   1.136  0.1125 -1.0006  0.6522
15421TIP3    H267755   6.119   2.939   1.124  0.0342 -1.1848 -0.3590
15422TIP3   OH267756   4.152   5.335   5.256 -0.0045 -0.1137 -0.1324
15422TIP3    H167757   4.174   5.249   5.220 -1.8060 -0.7561  0.1834
15422TIP3    H267758   4.088   5.316   5.325 -0.9586  1.5365 -0.5118
15423TIP3   OH267759   6.298   4.200  16.304 -0.0098 -0.1392 -0.3156
15423TIP3    H167760   6.210   4.227  16.276 -0.2790 -0.3802  0.2809
15423TIP3    H267761   6.356   4.237  16.238 -0.5249  0.3795 -0.4946
15424TIP3   OH267762   3.511   5.892  11.031 -0.1409 -0.0387  0.1333
15424TIP3    H167763   3.543   5.813  11.075 -1.0137 -0.3769  0.1898
15424TIP3    H267764   3.457   5.859  10.959 -0.1628  0.5078 -0.1080
15425TIP3   OH267765   1.016   1.396  14.022  0.9500  0.1024  0.3939
15425TIP3    H167766   1.085   1.463  14.028  0.1608  0.9491  0.1636
15425TIP3    H267767   1.039   1.346  13.943  1.1176  0.5967  0.1235
15426TIP3   OH267768   6.036   0.382  11.932  0.0372  0.3093  0.2527
15426TIP3    H167769   6.115   0.393  11.984  1.7844 -1.7524 -1.7635
15426TIP3    H267770   5.982   0.320  11.982  0.6446  0.1291  0.6911
15427TIP3   OH267771   3.843   3.177  12.706  0.2859  0.4300  0.4341
15427TIP3    H167772   3.786   3.147  12.776  0.8130  0.5117  0.8999
15427TIP3    H267773   3.887   3.254  12.742  1.5065 -0.2708  0.4674
15428TIP3   OH267774   5.946   4.259   4.476  0.0705  0.0593 -0.0815
15428TIP3    H167775   5.970   4.348   4.503 -0.7593  0.2144  0.1692
15428TIP3    H267776   6.009   4.203   4.521  1.5910  0.5845 -1.4363
15429TIP3   OH267777   5.827   5.138   1.556  0.1273  0.1874  0.7800
15429TIP3    H167778   5.917   5.109   1.538 -0.3450 -0.8335 -0.0219
15429TIP3    H267779   5.813   5.211   1.496 -0.0992 -0.6629 -0.2251
15430TIP3   OH267780   3.603   6.072   2.336  0.0666 -0.1206 -0.0299
15430TIP3    H167781   3.594   6.114   2.251 -0.4302 -3.0232 -1.5480
15430TIP3    H267782   3.681   6.016   2.327 -0.1081 -0.6312  1.3411
15431TIP3   OH267783   3.779   5.153  16.052 -0.2146  0.1553 -0.5482
15431TIP3    H167784   3.687   5.176  16.056 -0.4071 -0.7273  0.5303
15431TIP3    H267785   3.825   5.233  16.078 -0.7868 -0.0461  1.1852
15432TIP3   OH267786   2.617   1.873   5.699 -0.7565 -0.1501 -0.2234
15432TIP3    H167787   2.577   1.899   5.782  0.6894  1.3771  0.0488
15432TIP3    H267788   2.711   1.879   5.715 -0.4416 -1.0271 -1.6190
15433TIP3   OH267789   3.707   6.121   3.454 -0.0824  0.1049 -0.0988
15433TIP3    H167790   3.649   6.054   3.417  0.1012  0.7330 -1.5805
15433TIP3    H267791   3.733   6.175   3.379  0.1378  1.5734  0.9981
15434TIP3   OH267792   5.211   6.698  14.807 -0.4181  0.1749 -0.2751
15434TIP3    H167793   5.247   6.780  14.843  1.4503 -0.1763 -1.2193
15434TIP3    H267794   5.178   6.722  14.721  0.4527 -0.1173 -0.6977
15435TIP3   OH267795   0.381   5.775  12.857  0.4205  0.0487 -0.5689
15435TIP3    H167796   0.316   5.738  12.916  0.6337 -1.1112 -1.0303
15435TIP3    H267797   0.453   5.801  12.915  0.9477 -1.7612 -0.3406
15436TIP3   OH267798   5.529   2.594   3.579 -0.2734  0.4513 -0.3501
15436TIP3    H167799   5.475   2.629   3.649  1.7429 -1.0037  2.0914
15436TIP3    H267800   5.582   2.669   3.551 -0.5592  0.8819  0.2403
15437TIP3   OH267801   1.151   0.447  14.095  0.3765  0.9444  0.6349
15437TIP3    H167802   1.170   0.370  14.042 -0.8282  0.9927  0.1144
15437TIP3    H267803   1.191   0.520  14.046 -0.5226  0.9561 -0.0913
15438TIP3   OH267804   3.260   1.513   0.560 -0.1302  0.0817  0.4577
15438TIP3    H167805   3.279   1.426   0.596 -0.1816  0.5708  1.7195
15438TIP3    H267806   3.251   1.499   0.466 -2.5409 -1.7139  0.8850
15439TIP3   OH267807   5.573   2.867  15.493 -0.7277 -0.0945  0.1824
15439TIP3    H167808   5.551   2.943  15.546  0.1348 -0.4554  1.0992
15439TIP3    H267809   5.634   2.900  15.426 -1.9262  0.3879 -0.6979
15440TIP3   OH267810   1.165   2.386   3.032 -0.1636 -0.1859  0.1623
15440TIP3    H167811   1.233   2.326   3.065 -0.9836 -0.7821  0.8153
15440TIP3    H267812   1.099   2.386   3.101 -1.2415 -0.3073 -0.8496
15441TIP3   OH267813   5.419   6.670  12.936  0.2087 -0.0832  0.0679
15441TIP3    H167814   5.485   6.645  13.001  0.0796  0.9556  0.6273
15441TIP3    H267815   5.338   6.630  12.967 -0.4638  2.5486  2.1303
15442TIP3   OH267816   0.301   1.189   1.115 -0.3572 -0.7120  0.1066
15442TIP3    H167817   0.377   1.163   1.064  0.6103 -2.3631  2.2371
15442TIP3    H267818   0.249   1.109   1.124 -1.9711  0.1990 -0.6335
15443TIP3   OH267819   6.606   6.328   5.541  0.6280 -0.1393 -0.1555
15443TIP3    H167820   6.673   6.376   5.589 -0.2709  0.1651  0.8363
15443TIP3    H267821   6.606   6.367   5.454 -0.7787  2.4282  0.9110
15444TIP3   OH267822   5.811   5.098   3.328  0.1005  0.1581 -0.1984
15444TIP3    H167823   5.811   5.067   3.419  0.0126  1.9471  0.4506
15444TIP3    H267824   5.811   5.193   3.336 -3.9199  0.5172 -2.0320
15445TIP3   OH267825   3.328   1.625  10.872  0.0974  0.0773 -0.5156
15445TIP3    H167826   3.243   1.593  10.840  1.0573 -1.7754 -1.3131
15445TIP3    H267827   3.392   1.565  10.836  1.5715 -0.0712  2.1136
15446TIP3   OH267828   1.670   0.731   5.081  0.3253  0.6317 -0.3527
15446TIP3    H167829   1.646   0.642   5.105  2.2214  0.5279  1.4839
15446TIP3    H267830   1.650   0.783   5.160 -1.2421  1.9707 -1.5654
15447TIP3   OH267831   5.674   0.007  11.858 -0.0967  0.1234 -0.2005
15447TIP3    H167832   5.723  -0.034  11.929  1.0408 -2.8494 -2.5162
15447TIP3    H267833   5.704   0.098  11.858  1.3930 -0.3018  1.8105
15448TIP3   OH267834   0.272   2.615   0.049 -0.0080  0.3264  0.2798
15448TIP3    H167835   0.350   2.562   0.064  0.8506  1.8924  1.6904
15448TIP3    H267836   0.205   2.574   0.103  0.1173 -0.4016 -0.1028
15449TIP3   OH267837   2.706   6.645  12.012  0.0801 -0.6188  0.4165
15449TIP3    H167838   2.690   6.643  11.918 -1.9197 -0.3564  0.7080
15449TIP3    H267839   2.732   6.736  12.029  0.0796 -0.5703  0.1673
15450TIP3   OH267840   1.543   3.514   1.267  0.1594 -0.1981  0.3423
15450TIP3    H167841   1.589   3.444   1.222 -0.5328  0.4356 -1.4824
15450TIP3    H267842   1.450   3.494   1.254 -0.0534  1.2056 -0.5585
15451TIP3   OH267843   4.120   4.708  14.483  0.3200  0.4063 -0.7931
15451TIP3    H167844   4.094   4.723  14.574 -0.9704  0.6742 -1.1809
15451TIP3    H267845   4.079   4.625  14.460 -0.3540  0.9077 -1.4670
15452TIP3   OH267846   4.848   4.314   0.933  0.0838 -0.1252  0.0379
15452TIP3    H167847   4.897   4.329   1.014 -0.7477 -1.3570  0.8129
15452TIP3    H267848   4.794   4.237   0.952 -1.2793  0.4853 -1.1778
15453TIP3   OH267849   3.853   4.538  13.062 -0.3849 -0.2746  0.0814
15453TIP3    H167850   3.760   4.520  13.077 -0.6833  0.7960 -0.3604
15453TIP3    H267851   3.868   4.513  12.971 -1.0786  2.5462 -0.8971
15454TIP3   OH267852   3.416   4.031   3.179  0.1576  0.0571 -0.2412
15454TIP3    H167853   3.484   4.048   3.244 -0.7468 -2.1704  1.4268
15454TIP3    H267854   3.461   3.985   3.109  0.7160  0.2619 -0.0244
15455TIP3   OH267855   2.735   6.260   4.399 -0.5098  0.6300  0.3845
15455TIP3    H167856   2.812   6.282   4.451  1.4808  0.4250 -2.2921
15455TIP3    H267857   2.739   6.317   4.323 -2.7186  0.2017 -0.1470
15456TIP3   OH267858   5.510   6.714  13.912  0.1250  0.7941  0.5072
15456TIP3    H167859   5.542   6.796  13.950 -0.5001  0.8189  1.0030
15456TIP3    H267860   5.475   6.739  13.826  0.5026  0.9379  0.3956
15457TIP3   OH267861   1.192   5.593   0.769  0.1125 -0.1253  0.1295
15457TIP3    H167862   1.207   5.606   0.862  1.9110  3.1227 -0.4564
15457TIP3    H267863   1.139   5.668   0.742 -0.9156 -1.3271 -1.3898
15458TIP3   OH267864   2.449   3.019  12.355 -0.0478  0.0970 -0.0294
15458TIP3    H167865   2.461   2.924  12.359 -0.1487  0.0181 -1.2292
15458TIP3    H267866   2.504   3.053  12.426 -0.4062 -0.8813  0.7352
15459TIP3   OH267867   4.603   2.025   0.082 -0.1115 -0.3418 -0.3129
15459TIP3    H167868   4.513   2.058   0.082 -0.1838 -0.5243 -1.1114
15459TIP3    H267869   4.595   1.933   0.105  0.0240 -0.0079  1.1713
15460TIP3   OH267870   6.674   3.100   5.325  0.5896  0.0214  0.3461
15460TIP3    H167871   6.676   3.006   5.340 -0.8742 -0.1398 -0.3181
15460TIP3    H267872   6.588   3.128   5.356  0.3208  0.8430 -1.0371
15461TIP3   OH267873   5.997   6.446   1.977 -0.2998  0.2474  0.0560
15461TIP3    H167874   5.959   6.452   2.064 -0.4515  2.3468 -0.0954
15461TIP3    H267875   5.930   6.481   1.919  0.3448  0.2276 -0.7256
15462TIP3   OH267876   4.309   0.345   3.553  0.1800 -0.3102 -0.3541
15462TIP3    H167877   4.369   0.351   3.479 -1.4702 -0.5722 -1.7935
15462TIP3    H267878   4.264   0.261   3.542 -0.1492 -0.3272  0.9148
15463TIP3   OH267879   3.550   1.658   6.130 -0.6007 -0.5294  0.2259
15463TIP3    H167880   3.601   1.642   6.051 -0.7612 -2.1877  0.4393
15463TIP3    H267881   3.613   1.650   6.201 -0.7497 -0.4628  0.3676
15464TIP3   OH267882   2.480   6.555  10.817 -0.1913 -0.8165  0.3329
15464TIP3    H167883   2.562   6.593  10.847 -0.4208  1.0588 -1.2040
15464TIP3    H267884   2.505   6.474  10.774  1.0028  0.0906 -0.7753
15465TIP3   OH267885   5.368   6.750  16.202  0.2666 -0.0477 -0.5154
15465TIP3    H167886   5.343   6.806  16.129 -1.1849 -2.2274 -1.8150
15465TIP3    H267887   5.293   6.753  16.262  0.0982 -0.6999 -0.6835
15466TIP3   OH267888   0.555   2.174  16.788  0.0734 -0.2168 -0.7301
15466TIP3    H167889   0.469   2.185  16.829  1.7618 -0.0817  3.2141
15466TIP3    H267890   0.608   2.244  16.825  2.3461 -1.2957 -1.7801
15467TIP3   OH267891   0.426   1.411   2.340  0.6446  0.3275 -0.9545
15467TIP3    H167892   0.405   1.481   2.402 -1.8070 -2.1563  1.3089
15467TIP3    H267893   0.355   1.414   2.276  1.5125  0.9762 -1.9105
15468TIP3   OH267894   1.999   6.129  13.078  0.2728  0.0346  0.0682
15468TIP3    H167895   1.943   6.207  13.075 -0.1233 -0.1971  0.9594
15468TIP3    H267896   2.073   6.155  13.134 -0.5630 -0.6315  1.5569
15469TIP3   OH267897   0.460   0.753   1.940 -0.2686 -0.6022  0.1586
15469TIP3    H167898   0.543   0.710   1.917  0.0784 -0.9461  1.9371
15469TIP3    H267899   0.409   0.685   1.983  0.4504  0.7593  3.4132
15470TIP3   OH267900   4.527   4.512   5.368 -0.1641  0.3862  0.2535
15470TIP3    H167901   4.559   4.453   5.437  0.9736  1.4268  0.6607
15470TIP3    H267902   4.582   4.492   5.293 -1.2221 -0.5533 -0.3040
15471TIP3   OH267903   1.867   5.455   1.121 -0.2365 -0.0034  0.3636
15471TIP3    H167904   1.906   5.399   1.054 -1.6078 -0.0430 -0.4679
15471TIP3    H267905   1.931   5.525   1.134 -0.1614  0.3401 -1.4661
15472TIP3   OH267906   5.227   3.615  11.347 -0.2275 -0.5907  0.4210
15472TIP3    H167907   5.241   3.647  11.258 -1.7518 -0.8879  0.0458
15472TIP3    H267908   5.154   3.553  11.339 -0.1722 -0.8712  1.8237
15473TIP3   OH267909   4.246   2.832   4.041 -0.7092 -0.4674 -0.3018
15473TIP3    H167910   4.292   2.754   4.009 -2.4206 -2.4860  1.7299
15473TIP3    H267911   4.168   2.838   3.986 -1.7278 -1.6424  0.9462
15474TIP3   OH267912   4.105   0.192   4.153 -0.3847 -0.3527  0.1056
15474TIP3    H167913   4.081   0.234   4.070 -0.0844  0.5269  0.4500
15474TIP3    H267914   4.039   0.222   4.215 -0.8427 -1.3353  0.1006
15475TIP3   OH267915   5.269   6.824  13.524  0.1304  0.7684 -0.8626
15475TIP3    H167916   5.323   6.816  13.602  0.0612  0.2961 -0.8558
15475TIP3    H267917   5.278   6.915  13.497  1.7712  0.4676 -1.4664
15476TIP3   OH267918   4.663   5.736   4.553  0.3419 -0.5072 -0.2353
15476TIP3    H167919   4.715   5.713   4.630  1.1855 -0.7713 -0.8540
15476TIP3    H267920   4.606   5.661   4.539  0.7425 -0.8010 -0.3179
15477TIP3   OH267921   6.718   3.570  14.971  0.2026 -0.0986  0.3045
15477TIP3    H167922   6.747   3.545  15.059 -1.1393  2.1646  1.4701
15477TIP3    H267923   6.794   3.615  14.933 -0.2495  1.8698  1.6264
15478TIP3   OH267924   1.460   5.509   2.883 -0.1062 -0.0534 -0.7890
15478TIP3    H167925   1.504   5.453   2.948  0.1878  1.8311  0.7114
15478TIP3    H267926   1.371   5.521   2.918 -0.2781  0.1542 -1.2849
15479TIP3   OH267927   6.409   2.634  11.654 -0.1334 -0.1578  0.2042
15479TIP3    H167928   6.486   2.591  11.617  0.5981  1.5091 -0.3371
15479TIP3    H267929   6.429   2.643  11.747 -0.4180 -1.2226  0.3712
15480TIP3   OH267930   3.496   6.608   0.525  0.6880  0.2953 -0.0435
15480TIP3    H167931   3.446   6.541   0.573  1.5131 -0.8497 -0.7335
15480TIP3    H267932   3.586   6.575   0.526  1.1920  1.6393 -0.0110
15481TIP3   OH267933   4.258   4.166  12.460 -0.3240 -0.4225 -0.1329
15481TIP3    H167934   4.279   4.259  12.467 -0.6014 -0.3072 -0.7452
15481TIP3    H267935   4.238   4.139  12.550 -1.0437  0.3065 -0.0638
15482TIP3   OH267936   5.120   5.020  11.804  0.0759  0.0453 -0.0069
15482TIP3    H167937   5.197   5.067  11.773 -0.4717 -0.0396 -1.6101
15482TIP3    H267938   5.127   4.933  11.765 -0.9850  0.1521 -0.4957
15483TIP3   OH267939   3.497   1.630  15.742  0.3163  0.5597  0.1896
15483TIP3    H167940   3.454   1.705  15.701  3.2809  1.6238 -1.2753
15483TIP3    H267941   3.514   1.570  15.669  0.0943 -0.4581  0.9601
15484TIP3   OH267942   1.511   1.174   0.240 -0.4586 -0.1931 -0.1357
15484TIP3    H167943   1.472   1.218   0.315  1.0162  2.6219 -0.9111
15484TIP3    H267944   1.467   1.210   0.163 -0.0121 -0.9287 -0.7670
15485TIP3   OH267945   2.681   5.376  12.375 -0.5100 -0.3991  0.4514
15485TIP3    H167946   2.647   5.459  12.341 -0.6035  0.4390  2.4568
15485TIP3    H267947   2.616   5.311  12.348 -1.3840  0.4632  0.4183
15486TIP3   OH267948   4.195   2.110  14.738  0.2521  0.2599  0.2070
15486TIP3    H167949   4.286   2.099  14.763  0.2777 -0.8451 -0.3265
15486TIP3    H267950   4.198   2.135  14.646 -0.0235 -3.0645 -0.8264
15487TIP3   OH267951   0.164   0.749   2.981  0.1902 -0.2992 -0.0457
15487TIP3    H167952   0.077   0.709   2.979  0.1261 -0.1865 -2.7239
15487TIP3    H267953   0.156   0.820   3.045 -1.4872 -0.7351  0.2720
15488TIP3   OH267954   0.550   5.727   3.047 -0.2426  0.0269 -0.4448
15488TIP3    H167955   0.644   5.742   3.047 -0.6302  3.1586  0.5182
15488TIP3    H267956   0.527   5.716   3.139 -0.8436 -0.4588 -0.6468
15489TIP3   OH267957   3.177   3.159  16.922  0.1125  0.2501 -0.2946
15489TIP3    H167958   3.100   3.202  16.886 -0.5502  0.0895  0.8578
15489TIP3    H267959   3.195   3.087  16.862 -0.0402  0.8728 -1.0992
15490TIP3   OH267960   3.061   3.044   2.554  0.3662  0.2210 -0.1782
15490TIP3    H167961   3.104   3.035   2.639  0.0990  0.0992 -0.0562
15490TIP3    H267962   3.120   3.000   2.493 -0.1236 -0.9538  0.1596
15491TIP3   OH267963   5.802   1.153   2.460  0.7309  0.6771 -0.3682
15491TIP3    H167964   5.829   1.164   2.369  3.0877  0.5765  0.2641
15491TIP3    H267965   5.873   1.191   2.512  0.4451 -1.1059  1.4768
15492TIP3   OH267966   0.302   6.510  11.554  0.2110 -0.0507 -0.0817
15492TIP3    H167967   0.288   6.507  11.459 -2.5674 -1.1787  0.2646
15492TIP3    H267968   0.298   6.419  11.581  0.7238  0.2827  1.1882
15493TIP3   OH267969   0.406   1.032   5.887 -0.1911  0.2906 -0.2516
15493TIP3    H167970   0.328   0.983   5.860  1.0451 -1.0358 -1.6706
15493TIP3    H267971   0.438   1.071   5.805  1.2269 -0.1146  0.0932
15494TIP3   OH267972   2.056   6.693  16.404  0.4823  0.4246  0.1665
15494TIP3    H167973   2.139   6.738  16.388 -0.8232  2.2895 -1.9281
15494TIP3    H267974   2.022   6.732  16.484 -0.0598  2.4054 -0.9729
15495TIP3   OH267975   2.906   2.712  12.191  0.5113 -0.3531 -0.2877
15495TIP3    H167976   2.856   2.739  12.268  0.6225  3.0051 -1.2480
15495TIP3    H267977   2.989   2.679  12.226  0.4582  0.8899  1.0889
15496TIP3   OH267978   3.302   6.241  11.114  0.0337 -0.0286 -0.0376
15496TIP3    H167979   3.389   6.215  11.083 -0.3277 -0.2212 -0.9198
15496TIP3    H267980   3.248   6.245  11.035 -0.6145  0.6929  0.4252
15497TIP3   OH267981   4.093   1.007   5.272 -0.2076  0.1938 -0.6866
15497TIP3    H167982   4.104   0.912   5.278  1.0762  0.4165  1.5238
15497TIP3    H267983   4.165   1.035   5.215  0.0045 -0.0631 -0.5458
15498TIP3   OH267984   1.474   5.482  16.511 -0.2270  0.3551  0.1478
15498TIP3    H167985   1.564   5.449  16.520 -0.5134 -0.3262  0.5857
15498TIP3    H267986   1.424   5.433  16.576 -1.2908 -0.6564 -1.3665
15499TIP3   OH267987   6.846   6.754  11.842 -0.1733  0.3790  0.7486
15499TIP3    H167988   6.785   6.766  11.769  0.6417  2.4052  0.3201
15499TIP3    H267989   6.794   6.771  11.920 -0.9778 -1.5039  0.6671
15500TIP3   OH267990   3.207   3.478  16.587 -0.3246  0.4992  0.0943
15500TIP3    H167991   3.143   3.523  16.532 -1.0435 -0.6156 -0.0165
15500TIP3    H267992   3.170   3.391  16.601  0.6519  0.1951  0.9490
15501TIP3   OH267993   0.019   4.492   2.304  0.2854 -0.1143 -0.0940
15501TIP3    H167994  -0.007   4.579   2.334  1.7444  0.9000 -1.5859
15501TIP3    H267995  -0.064   4.446   2.290 -0.6730  1.8758 -1.5551
15502TIP3   OH267996   6.508   3.340  12.540 -0.2437  0.3533 -0.3388
15502TIP3    H167997   6.456   3.302  12.611  0.3483  1.0467  0.4828
15502TIP3    H267998   6.595   3.300  12.550 -0.3331 -0.0319 -1.0769
15503TIP3   OH267999   4.653   0.687  15.340  0.3096  0.1167  0.5271
15503TIP3    H168000   4.632   0.756  15.278  0.2837 -0.6982 -0.3853
15503TIP3    H268001   4.681   0.734  15.419 -2.7378  1.2673  1.0716
15504TIP3   OH268002   6.112   4.740  11.515 -0.1311 -0.5556 -0.1781
15504TIP3    H168003   6.119   4.647  11.540  1.7874 -0.2667  0.5568
15504TIP3    H268004   6.201   4.765  11.493 -0.6513  1.0949 -0.5020
15505TIP3   OH268005   0.839   3.166  16.966  0.1414 -0.4954  0.0751
15505TIP3    H168006   0.901   3.142  16.899  0.8329  1.8776 -0.2395
15505TIP3    H268007   0.792   3.241  16.930 -1.5912 -1.0374  1.0632
15506TIP3   OH268008   2.348   4.033  12.172  0.9736  0.1224 -0.3847
15506TIP3    H168009   2.424   3.975  12.169 -0.4068 -1.7907 -0.2894
15506TIP3    H268010   2.276   3.977  12.200 -0.2572  2.1435  0.7296
15507TIP3   OH268011   1.267   5.867  16.767  0.6203  0.3991 -0.2007
15507TIP3    H168012   1.247   5.824  16.684 -2.5040  1.5658 -0.1779
15507TIP3    H268013   1.248   5.802  16.834 -0.8805  0.6884 -0.3042
15508TIP3   OH268014   3.012   0.499  11.034 -0.4612 -0.1977  0.6014
15508TIP3    H168015   3.050   0.436  10.973  0.9863  0.5584  0.6884
15508TIP3    H268016   3.013   0.454  11.119 -0.8117 -0.5846  0.4061
15509TIP3   OH268017   2.762   2.936  13.224 -0.1496  0.4933 -0.5788
15509TIP3    H168018   2.810   2.878  13.282 -2.2406 -1.5035 -0.7155
15509TIP3    H268019   2.708   2.990  13.283  0.6768  1.3020 -0.5312
15510TIP3   OH268020   3.454   6.167   0.164  0.0887 -0.1733  0.4038
15510TIP3    H168021   3.458   6.193   0.072  2.2580 -2.5263 -0.2538
15510TIP3    H268022   3.361   6.155   0.181 -0.4885  1.8143 -0.9742
15511TIP3   OH268023   0.660   4.288  15.179  0.2428  0.3888 -0.1186
15511TIP3    H168024   0.603   4.310  15.252  0.0794  0.6982 -0.3363
15511TIP3    H268025   0.674   4.371  15.133  1.6915  0.5098  0.5013
15512TIP3   OH268026   3.065   5.543  12.750 -0.0929 -0.3429  0.2705
15512TIP3    H168027   3.146   5.587  12.777 -0.3547 -0.2466  0.8984
15512TIP3    H268028   2.999   5.574  12.811 -1.0181  0.9758 -1.3179
15513TIP3   OH268029   4.990   6.556  12.774 -0.0517 -0.4011  0.2209
15513TIP3    H168030   4.936   6.611  12.718 -1.2404 -2.3586 -0.6768
15513TIP3    H268031   5.073   6.548  12.728 -0.1970 -0.1318 -0.0922
15514TIP3   OH268032   4.023   3.377  16.864 -0.1604  0.1398 -0.4322
15514TIP3    H168033   4.051   3.298  16.817 -1.8780 -0.6231 -0.2420
15514TIP3    H268034   3.968   3.423  16.802  0.5185  1.0189 -0.3996
15515TIP3   OH268035   5.553   4.312   5.479  0.6383 -0.0973 -0.1473
15515TIP3    H168036   5.553   4.234   5.423 -0.6286  0.1120 -0.4850
15515TIP3    H268037   5.584   4.281   5.564  0.5391 -0.8831 -0.3890
15516TIP3   OH268038   1.166   0.447  11.461 -0.3837  0.1752  0.8583
15516TIP3    H168039   1.248   0.406  11.487 -0.0755 -1.1761 -1.8993
15516TIP3    H268040   1.098   0.387  11.495  0.0146 -1.7307 -1.4262
15517TIP3   OH268041   5.478   6.525  11.389 -0.1102 -0.1531  0.8500
15517TIP3    H168042   5.462   6.470  11.313  1.2759 -0.6474  0.8879
15517TIP3    H268043   5.550   6.482  11.435 -0.3337  0.6161  1.9694
15518TIP3   OH268044   0.378   0.161  14.090  0.1835  0.0532  0.1022
15518TIP3    H168045   0.344   0.078  14.057 -0.8181  0.5260 -0.1243
15518TIP3    H268046   0.390   0.147  14.184 -2.0463  0.2563  0.4730
15519TIP3   OH268047   6.608   5.838  14.394  0.5378 -0.1407 -0.2083
15519TIP3    H168048   6.687   5.865  14.441  2.8161 -1.1895 -3.1503
15519TIP3    H268049   6.583   5.914  14.342  0.4078 -0.2265 -0.2740
15520TIP3   OH268050   2.964   6.367  11.341 -0.0854  0.2240 -0.6369
15520TIP3    H168051   2.875   6.388  11.313 -0.9749 -0.2223  1.6175
15520TIP3    H268052   3.002   6.451  11.366  0.0350  0.3728 -1.2936
15521TIP3   OH268053   5.150   3.168   1.359 -0.1330 -0.5248 -0.3135
15521TIP3    H168054   5.156   3.249   1.308 -0.4038 -0.9436 -1.0200
15521TIP3    H268055   5.241   3.146   1.379 -0.1127  0.6586  1.0394
15522TIP3   OH268056   2.935   5.288  14.609 -0.4149  0.1480  0.2172
15522TIP3    H168057   2.927   5.372  14.654 -0.2206 -0.1649  0.8400
15522TIP3    H268058   3.028   5.267  14.613 -0.3859  0.1392 -0.3843
15523TIP3   OH268059   0.030   3.375   6.222 -0.6676 -0.4701 -0.7166
15523TIP3    H168060   0.018   3.396   6.129 -1.7845 -1.5569 -0.8385
15523TIP3    H268061   0.090   3.442   6.254  0.3447 -0.5078 -2.4070
15524TIP3   OH268062   0.589   4.733  13.500  0.1769 -0.0396  0.1996
15524TIP3    H168063   0.497   4.717  13.479  0.1117 -0.6156  0.8945
15524TIP3    H268064   0.636   4.661  13.458  0.3157  0.2506 -0.1502
15525TIP3   OH268065   0.126   6.193  13.744 -0.0729  0.3031  0.0699
15525TIP3    H168066   0.134   6.198  13.649  0.9714  1.2210  0.1881
15525TIP3    H268067   0.032   6.178  13.759 -0.1111 -0.7903 -1.1084
15526TIP3   OH268068   1.195   4.566  10.532  0.0368  0.4411 -0.3192
15526TIP3    H168069   1.118   4.616  10.563 -0.0066 -0.9383  2.0380
15526TIP3    H268070   1.158   4.498  10.476 -0.4057  0.1703  0.2921
15527TIP3   OH268071   2.720   2.546   0.035 -0.1735  0.8333  0.3139
15527TIP3    H168072   2.736   2.594   0.116 -0.5116 -1.0928  1.5872
15527TIP3    H268073   2.808   2.530  -0.000 -0.0439  2.0647  0.0271
15528TIP3   OH268074   5.766   0.783  12.125  0.0824 -1.0434 -0.2662
15528TIP3    H168075   5.740   0.691  12.116 -0.0800 -1.0140 -0.0977
15528TIP3    H268076   5.826   0.798  12.052  0.7919 -1.5259  0.2033
15529TIP3   OH268077   1.344   5.905   3.543 -0.5448 -0.4288 -0.2532
15529TIP3    H168078   1.360   5.811   3.533  0.0261 -0.3032 -0.5862
15529TIP3    H268079   1.384   5.927   3.627 -0.2038 -0.3801 -0.4289
15530TIP3   OH268080   0.656   6.358   2.067  0.0076  0.5482  0.2998
15530TIP3    H168081   0.576   6.409   2.079  1.4315  2.7933  0.8079
15530TIP3    H268082   0.706   6.406   2.001  2.2787  1.0127  2.2066
15531TIP3   OH268083   0.591   4.498  12.276 -0.1196 -0.4135  0.0575
15531TIP3    H168084   0.654   4.565  12.249  0.6523 -1.4281 -0.7801
15531TIP3    H268085   0.524   4.501  12.208  0.6227 -1.3808 -0.7604
15532TIP3   OH268086   2.052   4.545   0.163  0.0873 -0.4423 -0.0747
15532TIP3    H168087   1.996   4.618   0.186 -0.8042 -1.2194  0.3057
15532TIP3    H268088   2.013   4.507   0.085  0.6256 -0.4317 -0.3567
15533TIP3   OH268089   5.781   5.293  14.905  0.2541 -0.2270  0.0320
15533TIP3    H168090   5.772   5.230  14.977 -1.2323 -1.8862 -1.5039
15533TIP3    H268091   5.817   5.241  14.833  1.2431  1.2867 -0.6032
15534TIP3   OH268092   6.003   0.084   5.661  0.8651  0.4326  0.7339
15534TIP3    H168093   6.020   0.038   5.579  1.8537  2.4825 -0.2742
15534TIP3    H268094   5.909   0.100   5.660  0.6232 -0.8270  0.7596
15535TIP3   OH268095   1.748   5.885   0.349 -0.0519  0.3405 -0.1991
15535TIP3    H168096   1.786   5.816   0.295  1.7429  1.2782 -0.1918
15535TIP3    H268097   1.818   5.950   0.359 -1.2526  1.5351  0.9029
15536TIP3   OH268098   0.878   0.782  15.116  0.4270 -0.3353  0.4431
15536TIP3    H168099   0.803   0.770  15.057  1.4475 -0.1563 -0.9459
15536TIP3    H268100   0.924   0.698  15.115  0.6665 -0.2107  0.6751
15537TIP3   OH268101   0.539   6.767  15.787  0.5835  0.5672 -0.2712
15537TIP3    H168102   0.471   6.702  15.769  0.8074  0.5964 -1.2573
15537TIP3    H268103   0.621   6.719  15.784  0.6474  0.6274  0.4303
15538TIP3   OH268104   6.459   1.146  11.034 -0.1443  0.2065  0.3873
15538TIP3    H168105   6.364   1.155  11.040  0.0065  1.5571  1.3803
15538TIP3    H268106   6.478   1.141  10.941 -1.1041  1.1471  0.1301
15539TIP3   OH268107   0.479   2.916  10.308  0.4139  0.1434 -0.4374
15539TIP3    H168108   0.387   2.894  10.321 -0.2787  1.5161 -2.4209
15539TIP3    H268109   0.527   2.842  10.342 -1.3992 -0.3636  1.1808
15540TIP3   OH268110   5.668   5.262   0.276 -0.8837 -0.2554 -0.0653
15540TIP3    H168111   5.585   5.272   0.229 -1.4233 -0.4493  0.8148
15540TIP3    H268112   5.673   5.339   0.333 -0.3684 -0.1564 -0.2390
15541TIP3   OH268113   1.869   2.089  14.832 -0.0571 -0.2007  0.5817
15541TIP3    H168114   1.892   2.053  14.746 -2.8347  2.5447 -1.5537
15541TIP3    H268115   1.782   2.054  14.850 -1.2441  2.2979  0.1962
15542TIP3   OH268116   3.796   4.302   5.682 -0.8392 -0.2658 -0.2024
15542TIP3    H168117   3.751   4.274   5.761 -0.5519 -1.2374 -0.3588
15542TIP3    H268118   3.825   4.391   5.700 -1.2103 -0.2985  0.5882
15543TIP3   OH268119   6.318   2.576   9.917  0.3325 -0.5198  0.1574
15543TIP3    H168120   6.300   2.533  10.001  0.9084 -0.4730  0.3073
15543TIP3    H268121   6.412   2.564   9.904  0.3422 -0.0473 -0.2160
15544TIP3   OH268122   3.641   2.135   4.596 -0.0060 -0.5438 -0.3057
15544TIP3    H168123   3.640   2.230   4.580  0.9728 -0.5689 -0.5689
15544TIP3    H268124   3.641   2.128   4.692  2.8926 -0.1681 -0.1887
15545TIP3   OH268125   5.578   0.600   1.298 -1.2603  0.4024 -0.4684
15545TIP3    H168126   5.596   0.581   1.390  1.2203  1.8824 -0.5351
15545TIP3    H268127   5.516   0.673   1.301  0.5332  2.0106  0.1963
15546TIP3   OH268128   6.620   1.870   3.446 -0.2383  0.6290  0.0624
15546TIP3    H168129   6.697   1.841   3.398  0.3248  0.5418  0.9981
15546TIP3    H268130   6.603   1.799   3.508  0.5364  1.8083  1.6772
15547TIP3   OH268131   1.725   4.844   5.131  0.3549 -0.2272 -0.8624
15547TIP3    H168132   1.716   4.939   5.126  1.3454 -0.0992 -0.4896
15547TIP3    H268133   1.774   4.821   5.052  1.5920 -0.1996 -0.1411
15548TIP3   OH268134   3.365   0.695  12.998 -0.1391  0.1504 -0.1851
15548TIP3    H168135   3.384   0.601  12.995 -1.9713 -0.2825  0.7488
15548TIP3    H268136   3.386   0.726  12.909  0.4720 -1.1189 -0.5079
15549TIP3   OH268137   0.909   2.540  16.808  0.3416  0.1368  0.7569
15549TIP3    H168138   0.817   2.564  16.799  0.6682  0.6643 -2.5270
15549TIP3    H268139   0.908   2.448  16.837 -1.2799 -0.3539 -0.7333
15550TIP3   OH268140   5.602   3.513  13.501  0.0582  0.0315  0.2794
15550TIP3    H168141   5.570   3.452  13.434  0.4413 -0.9028  0.9251
15550TIP3    H268142   5.525   3.566  13.522 -0.3912 -0.4743 -0.0283
15551TIP3   OH268143   5.297   0.614   2.538 -0.8149  0.1634  0.2633
15551TIP3    H168144   5.330   0.674   2.604 -1.0233  0.4412  0.1157
15551TIP3    H268145   5.243   0.668   2.480 -2.7598 -0.5069  1.3192
15552TIP3   OH268146   3.161   6.386  17.120 -0.5865  0.3926 -0.2394
15552TIP3    H168147   3.158   6.482  17.122  1.3755  0.4892  1.2304
15552TIP3    H268148   3.093   6.359  17.182  1.7638  1.0784  2.9373
15553TIP3   OH268149   1.885   3.062   5.497 -0.1176  0.0838  0.4107
15553TIP3    H168150   1.798   3.029   5.473  0.5087 -1.8197  0.6416
15553TIP3    H268151   1.921   2.995   5.555  1.1413  1.3091  1.0846
15554TIP3   OH268152   5.824   6.188  17.001  0.4323  0.4313  0.3877
15554TIP3    H168153   5.743   6.159  16.958  1.2897 -1.4651 -0.0597
15554TIP3    H268154   5.799   6.267  17.048 -1.3841  0.5835 -0.7401
15555TIP3   OH268155   6.037   1.266   5.287  0.2005 -0.2643 -0.0548
15555TIP3    H168156   6.078   1.342   5.327  0.6756  0.6168 -2.0972
15555TIP3    H268157   5.946   1.291   5.275  0.5037  0.2919 -1.3545
15556TIP3   OH268158   2.029   0.242  15.105  0.0970 -0.0151  0.0321
15556TIP3    H168159   2.085   0.195  15.043 -0.0666 -1.0051  0.6218
15556TIP3    H268160   1.961   0.179  15.129  0.6787  0.0128  1.9287
15557TIP3   OH268161   3.882   5.595  14.363 -0.2285  0.1935  0.2636
15557TIP3    H168162   3.803   5.642  14.335 -0.8650 -0.0653  1.5358
15557TIP3    H268163   3.938   5.662  14.402 -0.5333  0.1464  0.8056
15558TIP3   OH268164   1.725   5.214   6.356 -0.0359  0.2634  0.0417
15558TIP3    H168165   1.736   5.223   6.450  1.2815 -0.3016 -0.0297
15558TIP3    H268166   1.630   5.211   6.342 -0.2481  0.8114  1.2875
15559TIP3   OH268167   0.043   0.732   2.526 -0.5369 -0.5740 -0.5124
15559TIP3    H168168   0.007   0.653   2.567 -1.4889 -0.0303 -0.2710
15559TIP3    H268169  -0.032   0.792   2.521  0.1572  0.2774 -0.7783
15560TIP3   OH268170   6.636   2.111  15.464 -0.3325 -0.3903  0.1077
15560TIP3    H168171   6.568   2.115  15.396 -1.2288  0.9089  1.0198
15560TIP3    H268172   6.625   2.024  15.503  1.3257 -1.8582 -2.4569
15561TIP3   OH268173   2.422   5.581   1.838  0.7979  0.8352  0.3594
15561TIP3    H168174   2.420   5.559   1.745  0.1707  1.9206  0.0912
15561TIP3    H268175   2.380   5.507   1.881 -0.9542  1.3038 -0.4613
15562TIP3   OH268176   3.809   0.110   3.890 -0.2828  0.0338  0.0349
15562TIP3    H168177   3.780   0.136   3.977  0.2027  0.0422  0.1959
15562TIP3    H268178   3.885   0.165   3.872  0.2772 -0.7132  0.0570
15563TIP3   OH268179   2.449   3.962  16.435 -0.0512  0.5606  0.1940
15563TIP3    H168180   2.502   4.004  16.503 -2.2613  1.4911  1.4454
15563TIP3    H268181   2.367   4.012  16.434 -2.1105 -2.5372  0.4333
15564TIP3   OH268182   3.931   2.132  11.962  0.1885  0.2723  0.1261
15564TIP3    H168183   3.981   2.091  11.892  1.0975 -1.2888  1.6106
15564TIP3    H268184   3.996   2.176  12.016 -0.2465 -0.1464  1.0151
15565TIP3   OH268185   5.542   0.737  12.987  0.2896 -0.0748  0.0165
15565TIP3    H168186   5.518   0.651  12.951  0.6514 -0.0962 -0.1820
15565TIP3    H268187   5.606   0.717  13.056  1.9797  0.1308 -1.3982
15566TIP3   OH268188   6.183   6.582  16.606 -0.0302 -0.2182  0.3310
15566TIP3    H168189   6.261   6.631  16.582 -0.5192  0.5521  0.2838
15566TIP3    H268190   6.111   6.630  16.566 -0.3706 -2.1823 -1.6273
15567TIP3   OH268191   3.084   3.831  13.382  0.0944 -0.4785 -0.1832
15567TIP3    H168192   3.030   3.872  13.450  0.5058 -0.8279  0.3589
15567TIP3    H268193   3.025   3.770  13.338 -0.6355  0.9218 -1.2425
15568TIP3   OH268194   2.224   6.482  15.279 -0.1561 -0.4125 -0.6301
15568TIP3    H168195   2.138   6.496  15.319  0.3543 -1.9510  1.1111
15568TIP3    H268196   2.221   6.393  15.245  0.9482 -0.7138  0.0215
15569TIP3   OH268197   5.641   5.044  12.213  0.3232 -0.0303  0.4120
15569TIP3    H168198   5.617   4.956  12.241  0.1846 -0.3449 -0.6506
15569TIP3    H268199   5.697   5.077  12.284  0.6644 -1.0976  0.6608
15570TIP3   OH268200   4.425   1.419   0.181  0.3244 -0.6644 -0.5463
15570TIP3    H168201   4.339   1.409   0.142  0.0512 -0.0154 -0.1234
15570TIP3    H268202   4.409   1.420   0.276  0.8484 -1.0409 -0.4465
15571TIP3   OH268203   5.205   1.059  11.234 -0.2763 -0.4441 -0.1170
15571TIP3    H168204   5.162   1.143  11.251  0.2908 -0.3405  0.8714
15571TIP3    H268205   5.134   0.994  11.238 -0.6740 -0.0484 -0.6420
15572TIP3   OH268206   2.135   6.001   2.124  0.0860  0.3339 -0.3557
15572TIP3    H168207   2.041   5.995   2.104  0.4343 -0.2766 -1.9088
15572TIP3    H268208   2.178   5.954   2.053  1.5578  0.1246  0.6288
15573TIP3   OH268209   1.319   5.375   1.307 -0.7641 -0.7375  0.2520
15573TIP3    H168210   1.330   5.444   1.372 -0.7408 -0.3200 -0.1901
15573TIP3    H268211   1.237   5.398   1.262  0.7589  0.7362 -1.9607
15574TIP3   OH268212   4.176   5.775  11.873 -0.5103 -0.0539  0.2537
15574TIP3    H168213   4.243   5.840  11.850 -1.5918 -0.0744 -3.6347
15574TIP3    H268214   4.149   5.799  11.962  2.1131  2.1162  0.6135
15575TIP3   OH268215   5.462   2.167  11.166 -0.0178  0.2202  0.5119
15575TIP3    H168216   5.401   2.175  11.092  0.3701 -0.6200  0.0767
15575TIP3    H268217   5.545   2.201  11.133  0.2736 -0.5757  0.3971
15576TIP3   OH268218   1.743   3.972   1.440  0.0377 -0.1836  0.1934
15576TIP3    H168219   1.667   4.009   1.395  1.1157  2.5669  0.4143
15576TIP3    H268220   1.732   3.877   1.434 -2.9551  0.1234 -0.4961
15577TIP3   OH268221   6.638   3.930   5.491 -0.2346 -0.0043 -0.5992
15577TIP3    H168222   6.659   3.983   5.568 -0.4666 -1.4236  0.4737
15577TIP3    H268223   6.614   3.994   5.424 -0.1047  1.2650  0.5308
15578TIP3   OH268224   6.629   4.985   1.223 -0.5192  0.1209 -0.1941
15578TIP3    H168225   6.712   4.951   1.257  1.1349  2.7969 -1.2377
15578TIP3    H268226   6.581   5.014   1.300 -0.7225 -1.7696  0.4497
15579TIP3   OH268227   4.106   6.557   0.505  0.5675  0.2610 -0.0080
15579TIP3    H168228   4.099   6.626   0.439  2.1278 -1.0232 -1.5955
15579TIP3    H268229   4.091   6.476   0.457 -0.4830 -0.6026  1.6863
15580TIP3   OH268230   4.536   2.380   3.241 -0.0173 -0.3782 -0.3807
15580TIP3    H168231   4.514   2.292   3.272  1.5190 -0.3049  1.0305
15580TIP3    H268232   4.623   2.397   3.276  0.0507  1.4049 -1.3072
15581TIP3   OH268233   1.828   3.136   4.102 -0.1637 -0.1395  0.4344
15581TIP3    H168234   1.846   3.227   4.124 -2.1398 -0.2839  3.1938
15581TIP3    H268235   1.900   3.087   4.141 -0.0417  0.1150  0.5326
15582TIP3   OH268236   2.964   3.155  13.062 -0.1673  0.5340 -0.1058
15582TIP3    H168237   3.011   3.135  13.143 -0.7354  0.3009  0.1702
15582TIP3    H268238   2.874   3.127  13.079  0.2717 -2.2770 -1.8300
15583TIP3   OH268239   6.509   4.675  14.645 -0.6085  0.4110 -0.5184
15583TIP3    H168240   6.599   4.653  14.667 -1.2056 -0.5449  1.1013
15583TIP3    H268241   6.486   4.616  14.573 -0.9498 -1.7568  1.2497
15584TIP3   OH268242   4.380   2.985  10.976  0.2318 -0.3906 -0.6261
15584TIP3    H168243   4.306   3.023  10.929 -2.7370 -1.4724  2.6509
15584TIP3    H268244   4.432   3.060  11.005 -1.6121  0.7526 -0.1058
15585TIP3   OH268245   2.927   1.478   2.238  0.3677 -0.2849  0.1803
15585TIP3    H168246   2.920   1.411   2.170  0.5066  0.3046 -0.4089
15585TIP3    H268247   2.986   1.439   2.303  1.1683 -0.3742 -0.5875
15586TIP3   OH268248   2.080   3.857  16.185 -0.2073 -0.3750 -0.3084
15586TIP3    H168249   2.033   3.884  16.106  0.2202 -0.3495 -0.5586
15586TIP3    H268250   2.084   3.761  16.178 -0.8414 -0.4303  0.0716
15587TIP3   OH268251   2.019   2.131   3.173 -0.1961  0.1280 -0.3816
15587TIP3    H168252   2.020   2.118   3.078 -0.2576  0.0613 -0.3736
15587TIP3    H268253   2.011   2.225   3.184  0.0582  0.1573 -0.4419
15588TIP3   OH268254   5.917   4.143  15.810  0.7280  0.1435 -0.2732
15588TIP3    H168255   5.998   4.120  15.764 -0.0938  0.3795 -1.8967
15588TIP3    H268256   5.907   4.075  15.876  0.7055 -1.6093 -2.0153
15589TIP3   OH268257   3.580   4.737   3.126  0.1365 -0.2345  0.6737
15589TIP3    H168258   3.587   4.798   3.053 -0.3559 -0.0364  0.7803
15589TIP3    H268259   3.574   4.794   3.203 -1.7374 -0.3382  0.6655
15590TIP3   OH268260   6.141   1.529  11.704  0.1374  0.3913  0.1886
15590TIP3    H168261   6.116   1.549  11.614 -0.7340 -0.6967  0.1787
15590TIP3    H268262   6.088   1.588  11.757  0.5821  0.9676 -0.0006
15591TIP3   OH268263   6.652   1.216  12.555 -0.4501  0.1772 -0.3292
15591TIP3    H168264   6.746   1.233  12.559 -0.5056  0.2620  1.1277
15591TIP3    H268265   6.625   1.250  12.469  0.5845  1.5474 -0.1409
15592TIP3   OH268266   4.309   5.704  16.030 -0.2276 -0.3788  0.1347
15592TIP3    H168267   4.358   5.786  16.037  0.7493 -0.5154 -3.3390
15592TIP3    H268268   4.286   5.683  16.121  2.2128  2.0579  1.4986
15593TIP3   OH268269   4.733   2.413   4.912 -0.5652  0.0344  0.5489
15593TIP3    H168270   4.641   2.395   4.897 -0.5021 -0.2541  0.5036
15593TIP3    H268271   4.774   2.403   4.826 -0.7272  1.6914  0.2390
15594TIP3   OH268272   2.278   2.769  12.718 -0.0699 -0.1834  0.3793
15594TIP3    H168273   2.349   2.825  12.747 -0.2890  0.2789  0.0362
15594TIP3    H268274   2.202   2.827  12.711 -0.2561 -0.4817 -0.1420
15595TIP3   OH268275   6.591   0.121  16.498 -0.5801  0.4611  0.2380
15595TIP3    H168276   6.515   0.082  16.539  0.2850 -0.6255  0.8586
15595TIP3    H268277   6.644   0.047  16.468 -0.2259  1.1984 -1.0787
15596TIP3   OH268278   2.853   0.866   5.270  0.3719 -0.1589 -0.4559
15596TIP3    H168279   2.849   0.789   5.213  0.8255 -0.8373  0.3995
15596TIP3    H268280   2.944   0.894   5.267 -0.0288  1.1418 -1.7470
15597TIP3   OH268281   5.006   3.772  11.060  0.0801 -0.5489  0.3097
15597TIP3    H168282   4.912   3.752  11.059  0.0755 -0.6833 -1.8423
15597TIP3    H268283   5.011   3.865  11.035  0.5477 -0.7498 -0.3618
15598TIP3   OH268284   2.581   0.579   3.320  0.1532 -0.3353 -0.0494
15598TIP3    H168285   2.583   0.485   3.301  0.2578 -0.0202 -1.8228
15598TIP3    H268286   2.618   0.620   3.241 -0.6877  1.2328  0.3248
15599TIP3   OH268287   1.207   3.056   0.799  0.2834  0.3393  0.2537
15599TIP3    H168288   1.214   3.095   0.886  2.3817  0.8346 -0.0811
15599TIP3    H268289   1.117   3.074   0.772  0.1438  1.8151  1.5723
15600TIP3   OH268290   1.852   4.101  16.598  0.0816 -0.2287 -0.0374
15600TIP3    H168291   1.851   4.014  16.638  0.2263 -0.3850 -0.3759
15600TIP3    H268292   1.805   4.091  16.516 -0.5360  0.1801  0.2577
15601TIP3   OH268293   2.951   4.851  11.266  0.3959  0.1748 -0.5949
15601TIP3    H168294   3.012   4.885  11.201 -0.1033  1.8094 -0.2527
15601TIP3    H268295   2.897   4.788  11.218  1.7103 -0.5876 -1.1167
15602TIP3   OH268296   0.837   5.328   4.745 -0.2966  0.4223  0.2477
15602TIP3    H168297   0.879   5.242   4.748  1.7191  1.3604  0.2953
15602TIP3    H268298   0.818   5.348   4.837 -1.0082 -0.0699  0.2136
15603TIP3   OH268299   3.410   6.351  13.215  0.1314  0.1202 -0.1851
15603TIP3    H168300   3.338   6.289  13.206 -0.1440  0.0270  2.1059
15603TIP3    H268301   3.488   6.297  13.218  0.0251 -0.0118  0.2750
15604TIP3   OH268302   4.368   0.792   3.193 -0.2591 -0.5644 -0.0853
15604TIP3    H168303   4.406   0.785   3.105 -0.7011 -0.0404 -0.3291
15604TIP3    H268304   4.338   0.704   3.213  3.8409 -1.8419  1.4546
15605TIP3   OH268305   0.568   6.412   0.359  0.9023  0.5808  0.2591
15605TIP3    H168306   0.571   6.340   0.297  0.6869  0.9488 -0.1862
15605TIP3    H268307   0.503   6.385   0.424  0.3525  0.6426 -0.2528
15606TIP3   OH268308   4.570   4.738   5.529 -0.2455 -0.2357  0.7405
15606TIP3    H168309   4.661   4.747   5.559  0.6470 -0.0545 -1.7320
15606TIP3    H268310   4.566   4.649   5.493 -0.0451  0.7318 -1.9318
15607TIP3   OH268311   6.355   4.280  15.112 -0.0222 -0.2359  0.1562
15607TIP3    H168312   6.288   4.330  15.066  0.6771  0.1641 -0.4476
15607TIP3    H268313   6.427   4.274  15.050  0.1898 -1.3668  0.4970
15608TIP3   OH268314   6.521   6.542   1.831 -0.3708 -0.1667 -0.2111
15608TIP3    H168315   6.593   6.479   1.835 -0.9542 -0.9965 -1.8111
15608TIP3    H268316   6.463   6.516   1.903  1.3712  1.1815  1.8041
15609TIP3   OH268317   1.927   0.974  17.017 -0.2182  0.4939  0.1965
15609TIP3    H168318   1.870   0.989  16.941 -0.5040 -0.6593  0.1643
15609TIP3    H268319   1.963   1.060  17.037 -1.2696  1.0827 -0.3470
15610TIP3   OH268320   1.575   5.866   2.182 -0.1273 -0.6136  0.8032
15610TIP3    H168321   1.595   5.905   2.267 -1.5597 -2.4594  2.0634
15610TIP3    H268322   1.603   5.775   2.190  0.1906 -0.7001 -0.9086
15611TIP3   OH268323   6.493   4.452  11.795  0.3246 -0.7995  0.4345
15611TIP3    H168324   6.535   4.466  11.880  0.7567 -0.2135  0.1342
15611TIP3    H268325   6.406   4.492  11.804  1.3093  1.6462 -0.2027
15612TIP3   OH268326   5.475   3.006  12.425 -0.3092  0.6101  0.0530
15612TIP3    H168327   5.444   3.097  12.424 -0.4649  0.5839 -2.2902
15612TIP3    H268328   5.427   2.964  12.354  1.3290 -0.7777 -0.2887
15613TIP3   OH268329   4.961   6.795  11.379  0.3741 -0.0105  0.0884
15613TIP3    H168330   4.973   6.807  11.473 -0.3898 -1.4015  0.3864
15613TIP3    H268331   5.026   6.853  11.339  0.6598  0.6605  1.4577
15614TIP3   OH268332   3.183   5.874  16.359  0.1294  0.1922  0.0091
15614TIP3    H168333   3.182   5.921  16.276  0.4998  0.9104  0.3999
15614TIP3    H268334   3.142   5.790  16.340 -1.5739  1.0784 -0.4597
15615TIP3   OH268335   5.176   0.084  10.558  0.1237 -0.2139 -0.0913
15615TIP3    H168336   5.088   0.119  10.566  0.1682  0.3058 -1.4996
15615TIP3    H268337   5.198   0.051  10.645 -0.5209  1.8683  0.9005
15616TIP3   OH268338   3.056   3.671   3.596  0.0322  0.4473 -0.0649
15616TIP3    H168339   3.062   3.593   3.651  2.6656 -0.7484 -1.8252
15616TIP3    H268340   3.029   3.741   3.656  2.1541 -0.8507  2.6465
15617TIP3   OH268341   0.237   4.944   5.327  0.3112 -0.4604 -0.1331
15617TIP3    H168342   0.268   4.888   5.398 -0.0167  1.6277  1.7810
15617TIP3    H268343   0.260   5.033   5.355 -2.1761  0.6822 -1.3735
15618TIP3   OH268344   2.359   0.873  16.226 -0.4385 -0.1996  0.2354
15618TIP3    H168345   2.445   0.909  16.247 -0.9096  0.9111  0.2966
15618TIP3    H268346   2.298   0.945  16.241 -1.4946 -1.2486  1.0849
15619TIP3   OH268347   3.727   1.476  16.554  0.3641  0.0937  0.0617
15619TIP3    H168348   3.795   1.526  16.509 -0.0018  0.0921 -0.4897
15619TIP3    H268349   3.731   1.389  16.514  0.9078 -0.2997  0.9237
15620TIP3   OH268350   5.393   2.714   1.964 -0.2424 -0.1489 -0.2662
15620TIP3    H168351   5.370   2.799   1.926  0.6405  0.7595  1.1178
15620TIP3    H268352   5.311   2.681   2.001 -0.4106  0.5702  0.0231
15621TIP3   OH268353   5.532   0.992   0.879  0.2700 -0.2316  0.8394
15621TIP3    H168354   5.508   0.917   0.933 -1.5796 -0.1520  0.2159
15621TIP3    H268355   5.450   1.040   0.867  0.7389  0.1610 -1.3750
15622TIP3   OH268356   0.309   6.784  13.957 -0.0486 -0.0420  0.0075
15622TIP3    H168357   0.293   6.695  13.989  0.5271 -0.0132  0.3877
15622TIP3    H268358   0.313   6.775  13.862  1.0084 -0.6075  0.0846
15623TIP3   OH268359   5.442   3.072   0.339 -0.4545  0.4727  0.4062
15623TIP3    H168360   5.478   2.984   0.327  0.5235  0.7991  0.8654
15623TIP3    H268361   5.487   3.125   0.272 -0.8942  0.6631  0.2609
15624TIP3   OH268362   0.591   6.785   4.710 -0.3679 -0.1987 -0.4906
15624TIP3    H168363   0.538   6.821   4.639  0.5195  4.3013  0.8089
15624TIP3    H268364   0.681   6.784   4.675 -0.1908  0.3463 -0.0843
15625TIP3   OH268365   4.608   1.577   0.483 -0.0002 -0.0874 -0.3643
15625TIP3    H168366   4.662   1.580   0.404  2.6105 -3.4611  0.9704
15625TIP3    H268367   4.530   1.527   0.458  1.0165 -1.5264 -0.8229
15626TIP3   OH268368   5.967   0.399   4.466 -0.1516  0.7744 -0.2120
15626TIP3    H168369   5.998   0.455   4.537 -0.3014  1.5895 -0.7748
15626TIP3    H268370   5.918   0.459   4.409 -1.7557 -0.2302  0.0414
15627TIP3   OH268371   2.205   2.723  16.779 -0.1398 -0.1080 -0.2809
15627TIP3    H168372   2.149   2.686  16.711 -1.8441 -0.2945  1.1589
15627TIP3    H268373   2.289   2.680  16.767 -0.4805 -0.3431 -2.0756
15628TIP3   OH268374   4.359   1.180   2.873  0.3220 -0.3733 -0.0235
15628TIP3    H168375   4.306   1.136   2.939 -0.1694 -0.6833 -0.6190
15628TIP3    H268376   4.386   1.110   2.814  0.4716 -0.0392 -0.3520
15629TIP3   OH268377   2.721   2.455  10.537 -0.2471  0.0200 -1.1923
15629TIP3    H168378   2.808   2.416  10.533 -0.4931 -0.8428  0.5305
15629TIP3    H268379   2.719   2.502  10.621 -1.4592 -0.1081 -1.1196
15630TIP3   OH268380   0.500   6.749   3.722  0.4708  0.4203  0.1256
15630TIP3    H168381   0.480   6.836   3.689  0.8768  0.4687  0.0038
15630TIP3    H268382   0.495   6.693   3.644 -0.6230  0.1914  0.3462
15631TIP3   OH268383   2.631   1.132  12.738 -0.6043  0.0701 -0.1324
15631TIP3    H168384   2.667   1.215  12.769 -0.7575  0.1235 -0.0936
15631TIP3    H268385   2.707   1.083  12.707 -0.3371 -0.3264  1.1053
15632TIP3   OH268386   6.572   3.907   2.088 -0.6902  0.5658 -0.3766
15632TIP3    H168387   6.646   3.863   2.131 -0.1926  0.7091 -1.0664
15632TIP3    H268388   6.535   3.964   2.156 -0.8524 -0.3110  0.2955
15633TIP3   OH268389   4.281   5.419  13.056 -0.0612 -0.1193  0.0640
15633TIP3    H168390   4.357   5.476  13.039  0.1885 -0.7477 -1.0390
15633TIP3    H268391   4.319   5.332  13.070 -0.4737 -0.1230  1.1968
15634TIP3   OH268392   0.638   1.171  13.303  0.6212  1.1485  0.3727
15634TIP3    H168393   0.600   1.144  13.387  0.7055  1.1298  0.4045
15634TIP3    H268394   0.699   1.101  13.281  1.6051  1.8122  0.9581
15635TIP3   OH268395   2.734   4.550   0.514 -0.2432 -0.1045  0.1629
15635TIP3    H168396   2.800   4.564   0.582 -0.6262 -1.0447  0.7425
15635TIP3    H268397   2.768   4.477   0.462  0.2072  0.8207 -0.8770
15636TIP3   OH268398   5.973   0.223   5.198 -0.0095 -0.1165 -0.3098
15636TIP3    H168399   5.911   0.218   5.125  0.9094  0.6196 -1.1766
15636TIP3    H268400   5.957   0.308   5.237 -0.1281 -0.2843  0.0091
15637TIP3   OH268401   6.024   0.742   1.824 -0.6558 -0.0744 -0.0290
15637TIP3    H168402   5.950   0.688   1.796 -0.5375  0.3151 -1.1340
15637TIP3    H268403   6.101   0.692   1.799 -0.5370 -0.2968  0.7609
15638TIP3   OH268404   3.925   3.024   2.618 -0.1808 -0.0022 -0.5050
15638TIP3    H168405   3.963   3.111   2.620  0.8798 -0.4592 -0.3599
15638TIP3    H268406   3.985   2.969   2.669 -0.3243 -1.0086 -1.3737
15639TIP3   OH268407   0.772   3.438   1.885 -0.6414  0.3107  0.1577
15639TIP3    H168408   0.700   3.432   1.948 -0.3579  0.8072  0.5337
15639TIP3    H268409   0.730   3.461   1.802 -1.0335 -0.5065  0.1217
15640TIP3   OH268410   0.532   6.445   6.698  0.0949  0.4819 -0.5317
15640TIP3    H168411   0.603   6.470   6.758  0.5313  0.1365 -0.9020
15640TIP3    H268412   0.546   6.351   6.682 -0.4121  0.4258 -0.6511
15641TIP3   OH268413   2.166   0.540   2.259 -0.0708 -0.0773  0.0642
15641TIP3    H168414   2.101   0.493   2.208 -0.7701  2.3075 -1.4246
15641TIP3    H268415   2.223   0.580   2.194 -0.0091  1.7303  1.1610
15642TIP3   OH268416   6.310   1.772  10.518 -0.1551  0.1120  0.3274
15642TIP3    H168417   6.363   1.822  10.456 -1.6296  1.8627  0.3748
15642TIP3    H268418   6.272   1.701  10.465 -1.0367  1.3233 -0.7332
15643TIP3   OH268419   5.613   0.677  11.245  0.5866  0.3686 -0.2179
15643TIP3    H168420   5.632   0.593  11.286  0.3268  0.0240 -0.7826
15643TIP3    H268421   5.626   0.741  11.314  0.2901 -0.1806  0.3608
15644TIP3   OH268422   1.390   2.567   4.326 -0.0893 -0.4527  0.7700
15644TIP3    H168423   1.425   2.628   4.391  2.3148 -0.4130 -0.4530
15644TIP3    H268424   1.344   2.622   4.264  1.0522  0.0123  0.3136
15645TIP3   OH268425   3.420   4.289   3.838  0.2231  0.0571 -0.3410
15645TIP3    H168426   3.370   4.327   3.766  1.8514 -1.7788 -2.6013
15645TIP3    H268427   3.498   4.345   3.846 -0.1431  0.4873  0.3010
15646TIP3   OH268428   0.622   3.674  17.110  0.5604 -0.0532 -0.2575
15646TIP3    H168429   0.582   3.749  17.065  1.3724 -0.2563 -1.3430
15646TIP3    H268430   0.553   3.643  17.170  0.3923  1.8558  0.5942
15647TIP3   OH268431   2.521   5.716  16.059  0.0757 -0.1156 -0.3462
15647TIP3    H168432   2.488   5.628  16.077  0.3578 -0.4788 -1.5474
15647TIP3    H268433   2.451   5.774  16.090  0.2499 -0.7055  1.2393
15648TIP3   OH268434   0.586   1.678   1.976 -0.2910 -0.5665  0.1354
15648TIP3    H168435   0.614   1.677   1.884  1.0948 -0.9931  0.5486
15648TIP3    H268436   0.490   1.686   1.971 -0.0882  2.3977 -1.2994
15649TIP3   OH268437   5.825   2.635  11.871 -0.0855  0.0269  0.1323
15649TIP3    H168438   5.849   2.566  11.933  1.3000  0.0355 -0.3623
15649TIP3    H268439   5.879   2.710  11.898 -0.6613  0.5262 -0.1009
15650TIP3   OH268440   4.288   5.696  14.515 -0.2308 -0.0864  0.5288
15650TIP3    H168441   4.294   5.605  14.542  0.4584 -0.2257 -0.0575
15650TIP3    H268442   4.356   5.706  14.449 -0.2199  0.8828  0.6668
15651TIP3   OH268443   6.353   3.164   0.923  0.2975 -0.2653  0.2391
15651TIP3    H168444   6.278   3.211   0.886  0.6228  0.2186  0.1763
15651TIP3    H268445   6.350   3.078   0.882  1.2195  0.5791 -1.7031
15652TIP3   OH268446   0.662   6.726   2.314  0.6662  0.0670 -0.3397
15652TIP3    H168447   0.672   6.782   2.237 -0.1161 -0.1127 -0.5861
15652TIP3    H268448   0.568   6.730   2.334  0.9727  0.7579  1.1023
15653TIP3   OH268449   1.112   5.786   2.458  0.0673  0.3856 -0.1330
15653TIP3    H168450   1.139   5.723   2.390  1.0962 -0.0044  0.6122
15653TIP3    H268451   1.070   5.857   2.409  0.5023 -0.0370 -1.1546
15654TIP3   OH268452   3.460   3.291   4.079 -0.0303 -0.1924  0.1956
15654TIP3    H168453   3.466   3.383   4.053  0.8075 -0.2083  0.2973
15654TIP3    H268454   3.537   3.250   4.039 -0.8848 -1.0469 -0.6237
15655TIP3   OH268455   3.307   0.355  11.864 -1.0193  0.2516 -0.0842
15655TIP3    H168456   3.381   0.415  11.852 -0.3998  0.4580  3.5857
15655TIP3    H268457   3.333   0.276  11.816  1.1045  0.7015  0.2174
15656TIP3   OH268458   0.826   3.311  13.588  0.0864 -0.7202  0.0892
15656TIP3    H168459   0.872   3.326  13.506  0.2403 -1.5600  0.0109
15656TIP3    H268460   0.850   3.386  13.643  2.2965 -1.5541  0.3763
15657TIP3   OH268461   0.853   1.239  15.194  0.5639 -0.1614  0.3348
15657TIP3    H168462   0.823   1.287  15.117  1.4473 -0.5087 -0.2331
15657TIP3    H268463   0.781   1.178  15.213 -0.6152  1.4036  1.1278
15658TIP3   OH268464   4.635   2.905   1.353 -0.6946 -0.1341  0.2008
15658TIP3    H168465   4.648   2.832   1.293 -2.0243 -0.4502  0.2719
15658TIP3    H268466   4.691   2.975   1.318  0.3557 -1.0685 -0.0372
15659TIP3   OH268467   4.756   1.886   0.393 -0.2893 -0.1037 -0.1576
15659TIP3    H168468   4.779   1.977   0.407 -1.8696  0.0781  1.5952
15659TIP3    H268469   4.774   1.843   0.476  1.8432 -1.7724 -1.3724
15660TIP3   OH268470   3.149   3.380  15.471  0.2212 -0.0032 -0.3956
15660TIP3    H168471   3.189   3.399  15.387 -1.4644  0.8732 -1.0421
15660TIP3    H268472   3.136   3.466  15.512 -0.7104 -0.2691 -0.0946
15661TIP3   OH268473   2.134   2.522   2.121  0.0907 -0.1604  0.1424
15661TIP3    H168474   2.150   2.521   2.215  1.3203  0.2429 -0.0409
15661TIP3    H268475   2.182   2.599   2.090 -0.1092 -0.4193 -0.8424
15662TIP3   OH268476   4.831   5.559  12.117 -0.1318 -0.3715 -0.4004
15662TIP3    H168477   4.862   5.593  12.033 -2.2022  2.0922 -0.2733
15662TIP3    H268478   4.746   5.520  12.096 -2.3749  3.3434  0.9096
15663TIP3   OH268479   3.678   6.595   2.407  0.6569 -0.4343 -0.3181
15663TIP3    H168480   3.773   6.583   2.399  0.7150  0.1261 -0.5392
15663TIP3    H268481   3.655   6.654   2.335  0.0046 -1.2279 -0.7721
15664TIP3   OH268482   5.355   0.691  14.389 -0.3887 -0.1011  0.0682
15664TIP3    H168483   5.315   0.606  14.372  0.0853 -0.4515  0.7197
15664TIP3    H268484   5.355   0.735  14.303  0.6396 -1.2855 -0.5631
15665TIP3   OH268485   4.568   4.217   2.742  0.2808  0.3570 -0.4794
15665TIP3    H168486   4.550   4.180   2.656  0.9382 -1.8622  0.2518
15665TIP3    H268487   4.659   4.190   2.761  0.5017  1.6657  0.4890
15666TIP3   OH268488   1.888   2.754  12.205  0.3340  0.4204  0.4332
15666TIP3    H168489   1.818   2.783  12.264 -0.2276 -0.2860  0.1314
15666TIP3    H268490   1.957   2.722  12.264 -0.2977 -0.4470  0.7128
15667TIP3   OH268491   3.469   1.251   5.713 -0.7045 -0.1648 -0.1697
15667TIP3    H168492   3.449   1.327   5.658 -0.2903 -0.3933 -0.6426
15667TIP3    H268493   3.488   1.181   5.652 -1.2530 -0.7083  0.2645
15668TIP3   OH268494   3.393   3.023  16.381 -0.4095  0.4612 -0.2097
15668TIP3    H168495   3.447   2.951  16.413 -0.1990  1.0747  0.8779
15668TIP3    H268496   3.455   3.083  16.339 -0.4792  0.3603 -0.4562
15669TIP3   OH268497   5.138   1.086   5.318 -0.3479 -0.5247  0.0191
15669TIP3    H168498   5.046   1.090   5.292 -0.3004  0.6095  0.0026
15669TIP3    H268499   5.185   1.130   5.248  0.1825 -0.8158  0.1835
15670TIP3   OH268500   2.038   1.343   4.366 -0.0034 -0.0955 -0.2789
15670TIP3    H168501   2.020   1.435   4.389 -0.9758 -0.4440  0.4107
15670TIP3    H268502   2.085   1.309   4.443 -0.9439 -0.5625  0.0994
15671TIP3   OH268503   1.500   5.996  15.940  0.1540 -0.2462 -0.1781
15671TIP3    H168504   1.506   6.080  15.894 -0.5472  1.1567  2.1044
15671TIP3    H268505   1.437   5.945  15.889 -0.2183  1.0104 -1.0246
15672TIP3   OH268506   3.440   4.777  12.214 -0.0279  0.4081 -0.0098
15672TIP3    H168507   3.512   4.752  12.156  0.1249  0.7642  0.0239
15672TIP3    H268508   3.399   4.851  12.171 -0.1493  0.4360  0.1523
15673TIP3   OH268509   1.678   3.450   3.388 -0.1440  0.4019 -0.7661
15673TIP3    H168510   1.610   3.446   3.321  0.5616  2.1668 -1.6582
15673TIP3    H268511   1.694   3.543   3.401 -0.3085  0.1365  1.9722
15674TIP3   OH268512   1.096   1.710   2.351  0.2722  0.3907 -0.3434
15674TIP3    H168513   1.141   1.625   2.353  0.9144  0.7280 -0.0382
15674TIP3    H268514   1.018   1.697   2.406  0.0235 -0.1824 -0.8255
15675TIP3   OH268515   5.167   5.231  16.945  0.1720  0.1337  0.2919
15675TIP3    H168516   5.140   5.172  16.875  0.1758 -1.8552  1.8805
15675TIP3    H268517   5.238   5.283  16.907  1.0855 -1.8111 -0.7863
15676TIP3   OH268518   3.558   1.379   6.515 -0.0021  0.6107 -0.1867
15676TIP3    H168519   3.642   1.358   6.557 -0.9323 -2.1844  0.5035
15676TIP3    H268520   3.506   1.299   6.524 -2.8600  2.3000 -0.3676
15677TIP3   OH268521   4.532   6.581   2.675 -0.0375 -0.7795 -0.9506
15677TIP3    H168522   4.492   6.500   2.707  0.0239  0.1505  1.7273
15677TIP3    H268523   4.458   6.637   2.654 -0.0729 -1.1455 -1.8769
15678TIP3   OH268524   1.784   6.515  12.648 -0.0894 -0.3627  0.2091
15678TIP3    H168525   1.868   6.494  12.691 -1.1686  0.5158  2.9799
15678TIP3    H268526   1.809   6.563  12.570  2.0100 -0.4516  0.7442
15679TIP3   OH268527   0.359   6.338   3.855 -0.7883  0.3686  0.5695
15679TIP3    H168528   0.342   6.249   3.888  0.6925  0.0086  0.4459
15679TIP3    H268529   0.369   6.391   3.934  1.2895 -0.1978  0.7369
15680TIP3   OH268530   2.750   5.378  16.911 -0.0017  0.8316 -0.2477
15680TIP3    H168531   2.825   5.406  16.859  0.4822 -2.9958 -1.9758
15680TIP3    H268532   2.674   5.396  16.855  0.4632 -2.6048 -2.2659
15681TIP3   OH268533   3.406   6.604   5.110  0.2481  0.4466  0.1220
15681TIP3    H168534   3.474   6.631   5.048 -0.2886  3.8133  0.7675
15681TIP3    H268535   3.326   6.647   5.078 -0.3777  0.9881  2.2413
15682TIP3   OH268536   5.950   6.198  10.605 -0.0707 -0.1165  0.0887
15682TIP3    H168537   5.996   6.174  10.685 -0.8485  0.2794  0.6698
15682TIP3    H268538   5.957   6.121  10.549  3.4048  0.7212 -0.8862
15683TIP3   OH268539   4.428   1.081  14.825 -0.4527  0.3530  0.4423
15683TIP3    H168540   4.458   0.991  14.817  0.3675  0.7111 -0.8635
15683TIP3    H268541   4.391   1.102  14.740  0.6014  1.6546  0.2636
15684TIP3   OH268542   5.280   2.209   2.699 -0.2363 -0.1674  0.4458
15684TIP3    H168543   5.292   2.243   2.610  1.0364  0.5651  0.8680
15684TIP3    H268544   5.186   2.215   2.714 -0.4577 -0.1856 -0.8057
15685TIP3   OH268545   5.228   1.394  15.233 -0.2056 -0.3283  0.9061
15685TIP3    H168546   5.182   1.323  15.278 -1.3474 -1.6046 -2.0430
15685TIP3    H268547   5.320   1.371  15.240 -0.4883 -1.4815  1.0365
15686TIP3   OH268548   5.067   5.935   1.188  0.7334 -0.1838  0.2148
15686TIP3    H168549   5.021   5.952   1.271  0.7144  0.7145  0.0344
15686TIP3    H268550   5.055   5.842   1.173 -1.4019  0.0773 -0.0332
15687TIP3   OH268551   3.851   4.007   1.293  0.3186 -0.1214 -0.2580
15687TIP3    H168552   3.904   3.937   1.255  2.8808  1.7075 -0.3460
15687TIP3    H268553   3.845   3.984   1.386  2.0564  0.0152 -0.0812
15688TIP3   OH268554   1.312   6.207  12.437 -0.0936 -0.2508  0.3412
15688TIP3    H168555   1.217   6.201  12.428 -0.0737  0.7819 -0.7852
15688TIP3    H268556   1.328   6.296  12.469  0.5602  0.1137 -0.9394
15689TIP3   OH268557   3.588   0.471  16.616 -0.3991  0.0556  0.2801
15689TIP3    H168558   3.632   0.555  16.629 -0.3609  0.5523 -2.5601
15689TIP3    H268559   3.500   0.494  16.586 -0.1403 -0.8798 -1.2933
15690TIP3   OH268560   5.856   6.691  12.540  0.7818  0.2148  0.3287
15690TIP3    H168561   5.828   6.725  12.625 -0.8040 -0.8139  0.2571
15690TIP3    H268562   5.848   6.596  12.548 -1.7350  0.1505 -1.6666
15691TIP3   OH268563   2.241   2.037   2.289  0.2582  0.4075 -0.6453
15691TIP3    H168564   2.167   1.979   2.304  0.4469  0.1774 -0.5999
15691TIP3    H268565   2.272   2.015   2.201  0.0318  0.7751 -0.8215
15692TIP3   OH268566   4.624   5.655  15.026  0.0370  0.5550 -0.3384
15692TIP3    H168567   4.535   5.639  15.056  0.6494 -2.0495  0.3404
15692TIP3    H268568   4.674   5.674  15.105  0.4502  0.0471 -0.4729
15693TIP3   OH268569   1.825   2.287  10.855  0.2883  0.2305 -0.2333
15693TIP3    H168570   1.876   2.333  10.788  0.4879  1.0478  0.4509
15693TIP3    H268571   1.854   2.326  10.938 -1.8074  1.1230  0.1541
15694TIP3   OH268572   1.390   0.522   3.016  0.1871  0.4457 -0.4746
15694TIP3    H168573   1.421   0.548   3.102  0.9331 -1.1917 -0.2112
15694TIP3    H268574   1.406   0.598   2.960  1.2313  0.9524  0.4786
15695TIP3   OH268575   4.946   3.755   4.807 -0.1463 -0.7438 -0.3569
15695TIP3    H168576   4.976   3.833   4.854  0.6446 -0.6581 -0.9879
15695TIP3    H268577   4.855   3.775   4.784  0.0344 -0.0234 -0.4759
15696TIP3   OH268578   2.634   4.745  16.888  0.5744  0.2434  0.0014
15696TIP3    H168579   2.722   4.733  16.851  0.1659  1.0193 -1.3179
15696TIP3    H268580   2.644   4.818  16.949  0.5379  1.5440 -1.4690
15697TIP3   OH268581   0.522   3.815  10.965  0.0514  0.8065 -0.0467
15697TIP3    H168582   0.601   3.864  10.942  0.6194  0.2253  0.6351
15697TIP3    H268583   0.542   3.725  10.940 -0.3470  0.6322  0.2608
15698TIP3   OH268584   1.145   5.600   6.081 -0.3666 -0.0584  0.0877
15698TIP3    H168585   1.140   5.507   6.106  0.0732 -0.2806 -0.6198
15698TIP3    H268586   1.149   5.598   5.985  1.8741  0.5763  0.1221
15699TIP3   OH268587   1.847   5.655  11.383  0.3600 -0.3915  0.1750
15699TIP3    H168588   1.826   5.562  11.393  0.3568 -0.6320 -1.6557
15699TIP3    H268589   1.941   5.655  11.365  0.2474 -0.1025 -0.4250
15700TIP3   OH268590   2.713   0.350  14.972  0.7670 -0.2138 -0.0823
15700TIP3    H168591   2.638   0.290  14.964  0.0550  0.8428 -1.6420
15700TIP3    H268592   2.787   0.292  14.992 -0.2871 -1.3657  0.6774
15701TIP3   OH268593   3.664   3.566  15.643 -0.3446 -0.2766  0.6159
15701TIP3    H168594   3.692   3.598  15.557 -1.7266  0.0571  0.2639
15701TIP3    H268595   3.743   3.570  15.697  0.5326 -0.4127 -0.6054
15702TIP3   OH268596   2.687   5.739   3.180  0.1193 -0.0589 -0.3468
15702TIP3    H168597   2.682   5.772   3.270 -0.9190 -0.9032 -0.0749
15702TIP3    H268598   2.680   5.644   3.189  0.3695 -0.1752 -1.2981
15703TIP3   OH268599   4.144   4.308  13.001 -0.3657  0.2075  0.3213
15703TIP3    H168600   4.199   4.379  13.034 -0.3639 -0.3567  1.5869
15703TIP3    H268601   4.195   4.268  12.931 -1.6410  3.3802 -2.6634
15704TIP3   OH268602   6.220   2.434  11.621  0.1162 -0.1581  0.3489
15704TIP3    H168603   6.276   2.448  11.697 -0.6300  3.1541  0.4409
15704TIP3    H268604   6.278   2.448  11.545 -0.4741  3.7818  0.4418
15705TIP3   OH268605   6.379   2.610  15.105  0.1363 -0.1832  0.1182
15705TIP3    H168606   6.344   2.547  15.042 -1.3037  0.4288  0.2671
15705TIP3    H268607   6.418   2.556  15.173  0.1076 -0.8941 -0.4154
15706TIP3   OH268608   5.873   2.936  14.274 -0.1487 -0.0169  0.1006
15706TIP3    H168609   5.816   2.879  14.222  0.3433 -1.4695  1.1095
15706TIP3    H268610   5.913   2.994  14.209 -0.2868 -1.1363 -1.0235
15707TIP3   OH268611   1.020   5.868   1.402 -0.1162  0.9624  0.0141
15707TIP3    H168612   1.036   5.788   1.452 -2.0013 -0.2535 -1.1758
15707TIP3    H268613   0.991   5.932   1.466 -0.7303  0.0023  0.7175
15708TIP3   OH268614   3.435   0.620  13.259  0.2823 -0.1825  0.4298
15708TIP3    H168615   3.407   0.668  13.181  0.2387  1.5718  1.4982
15708TIP3    H268616   3.376   0.545  13.264 -0.9946  0.7697 -0.1059
15709TIP3   OH268617   1.612   6.079   1.025 -0.0105  0.7444 -0.0737
15709TIP3    H168618   1.668   6.069   0.948  0.2845  0.8259  0.1290
15709TIP3    H268619   1.564   6.160   1.009 -0.9370  0.0634 -0.7902
15710TIP3   OH268620   5.126   0.337  16.098 -0.2793 -0.3744  0.4502
15710TIP3    H168621   5.129   0.253  16.053 -0.6430  0.7001 -1.7038
15710TIP3    H268622   5.041   0.339  16.141  0.7771 -2.1608  2.8340
15711TIP3   OH268623   4.675   0.172   2.200  0.8034  0.1781 -0.7966
15711TIP3    H168624   4.712   0.101   2.148  0.7376  0.7830 -1.6959
15711TIP3    H268625   4.748   0.232   2.215  0.5439  0.6148 -1.2551
15712TIP3   OH268626   4.463   4.947   5.691  0.1077  0.8724 -0.0024
15712TIP3    H168627   4.468   5.022   5.632 -0.3608  1.1962  0.3592
15712TIP3    H268628   4.434   4.874   5.635  2.0279  0.5725 -0.6774
15713TIP3   OH268629   0.644   2.897   2.307 -0.0288  0.6256  0.2400
15713TIP3    H168630   0.734   2.901   2.274 -0.5024 -0.0664 -1.2317
15713TIP3    H268631   0.604   2.824   2.259 -1.0512  0.1699  1.7216
15714TIP3   OH268632   1.134   1.295   0.685  0.4242  0.4731 -0.5944
15714TIP3    H168633   1.128   1.313   0.779 -1.0001  0.1038 -0.5897
15714TIP3    H268634   1.141   1.199   0.680  3.1244  0.5930 -0.8024
15715TIP3   OH268635   3.627   5.392  16.174  0.1696  0.0941  0.5120
15715TIP3    H168636   3.613   5.464  16.235  3.4955 -0.1555  1.7943
15715TIP3    H268637   3.722   5.389  16.162  0.2169 -3.9292  0.4073
15716TIP3   OH268638   0.149   6.289   5.800 -0.1463 -0.0128  1.0098
15716TIP3    H168639   0.126   6.371   5.843 -1.0183  0.4065 -0.1810
15716TIP3    H268640   0.069   6.237   5.802 -0.5360  0.4161 -0.9027
15717TIP3   OH268641   3.677   3.417  12.308 -0.3216  0.3357  0.2117
15717TIP3    H168642   3.631   3.447  12.229  0.9814 -1.4971 -1.3631
15717TIP3    H268643   3.728   3.341  12.278  0.6626 -0.0935  2.7270
15718TIP3   OH268644   2.126   1.391  11.199  0.6061  0.0889 -0.0585
15718TIP3    H168645   2.217   1.372  11.175  0.7781  0.4260  0.3200
15718TIP3    H268646   2.103   1.466  11.144  0.5035 -0.0885 -0.2623
15719TIP3   OH268647   6.599   5.425   1.146  0.0206  0.2801 -0.2627
15719TIP3    H168648   6.605   5.521   1.147 -1.0774  0.4392 -2.2013
15719TIP3    H268649   6.505   5.407   1.135  0.1778 -1.0313  0.3445
15720TIP3   OH268650   0.074   2.489  10.497  0.1478  0.0247  0.3100
15720TIP3    H168651   0.124   2.488  10.579  0.3077  3.6930  0.4325
15720TIP3    H268652   0.140   2.498  10.428 -0.0855 -1.1185 -0.0816
15721TIP3   OH268653   3.012   3.092  15.303  0.4100  0.4754 -0.7958
15721TIP3    H168654   2.948   3.105  15.373  2.0789  2.1434  0.4887
15721TIP3    H268655   2.974   3.136  15.227 -0.0973  1.2049 -0.1279
15722TIP3   OH268656   4.256   0.940  12.501  0.2740  0.7759  0.3943
15722TIP3    H168657   4.196   0.983  12.440  0.2783 -0.0033 -0.1702
15722TIP3    H268658   4.340   0.983  12.488  0.4327  0.1888 -0.6297
15723TIP3   OH268659   2.374   3.156  17.111  0.4837  0.5443  0.0384
15723TIP3    H168660   2.330   3.197  17.036 -0.3169  0.5597  0.5091
15723TIP3    H268661   2.372   3.222  17.179  0.5133  0.2497  0.3266
15724TIP3   OH268662   6.471   0.816  12.273 -0.3216  0.0840  0.2915
15724TIP3    H168663   6.540   0.749  12.280 -1.8746 -1.4494  1.8387
15724TIP3    H268664   6.396   0.770  12.235 -0.9772  1.3575 -0.0210
15725TIP3   OH268665   2.614   4.723   5.379  0.6532  0.0486  0.3700
15725TIP3    H168666   2.701   4.721   5.420  1.0810 -1.0818 -0.5405
15725TIP3    H268667   2.601   4.815   5.355  1.7556  0.1764  0.1989
15726TIP3   OH268668   4.346   0.493  14.410  0.9347 -0.3889 -0.0260
15726TIP3    H168669   4.331   0.436  14.485  2.6430  0.5666  1.1350
15726TIP3    H268670   4.318   0.580  14.440 -0.3467 -0.3508 -1.2709
15727TIP3   OH268671   4.636   1.470  15.090 -0.1583 -0.1365 -0.2408
15727TIP3    H168672   4.654   1.506  15.003 -3.0331  0.3063 -0.7572
15727TIP3    H268673   4.713   1.491  15.142  1.5676 -0.2585 -2.6158
15728TIP3   OH268674   5.771   2.385   4.806 -0.0673  0.3719  0.0175
15728TIP3    H168675   5.828   2.309   4.794  0.5802  0.6299  1.2557
15728TIP3    H268676   5.696   2.352   4.856 -0.1704  0.3902 -0.1234
15729TIP3   OH268677   0.478   0.651   2.991  0.4331 -0.9764 -0.2166
15729TIP3    H168678   0.557   0.675   2.941  2.7336 -0.2739  3.3656
15729TIP3    H268679   0.410   0.709   2.957  1.6488 -0.9107 -2.7987
15730TIP3   OH268680   0.114   0.356   5.341 -0.4338  0.4369  0.0896
15730TIP3    H168681   0.119   0.408   5.422 -1.5783 -0.3797  0.7127
15730TIP3    H268682   0.118   0.265   5.370  1.2508  0.1131 -0.9676
15731TIP3   OH268683   2.366   3.283  11.474  0.3432 -0.4277 -0.1712
15731TIP3    H168684   2.321   3.364  11.454 -1.1142 -1.1231  0.1613
15731TIP3    H268685   2.427   3.305  11.544  0.3272  0.4670 -0.4341
15732TIP3   OH268686   5.858   2.136  15.892  0.2172 -0.5681  0.2106
15732TIP3    H168687   5.782   2.192  15.909  0.7378  0.3399 -0.3907
15732TIP3    H268688   5.881   2.099  15.977  0.8750  1.4319  0.9380
15733TIP3   OH268689   0.622   2.404   0.286 -0.2059 -0.6843 -0.6667
15733TIP3    H168690   0.526   2.406   0.295 -0.2744  0.3272 -1.4246
15733TIP3    H268691   0.648   2.320   0.323 -1.2102 -0.2080  1.2787
15734TIP3   OH268692   2.170   0.036  13.613 -0.5730 -0.2563 -0.6521
15734TIP3    H168693   2.115  -0.037  13.584 -1.6799  0.2885  0.0432
15734TIP3    H268694   2.131   0.065  13.695  0.8256  0.0847 -0.0732
15735TIP3   OH268695   1.462   0.113   2.806  0.4784 -0.2526  0.3592
15735TIP3    H168696   1.448   0.072   2.891  1.7955  0.0937  0.7741
15735TIP3    H268697   1.523   0.054   2.761 -0.4587 -0.6027 -0.4950
15736TIP3   OH268698   4.779   2.195   0.783  0.6754 -0.3405 -0.2029
15736TIP3    H168699   4.772   2.211   0.877  0.2974  0.0148 -0.2849
15736TIP3    H268700   4.710   2.132   0.764 -1.1981  1.7280 -0.6972
15737TIP3   OH268701   2.920   5.670   2.725  0.3314  0.5690 -0.0408
15737TIP3    H168702   2.952   5.758   2.744  0.4497  1.1661 -2.5883
15737TIP3    H268703   2.988   5.612   2.759  1.0777  1.5401  0.1858
15738TIP3   OH268704   0.175   4.658  16.518  0.4354 -0.3071 -0.0657
15738TIP3    H168705   0.183   4.652  16.613 -1.4491 -0.1884  0.1467
15738TIP3    H268706   0.087   4.693  16.504  0.2405 -1.4044 -1.8727
15739TIP3   OH268707   0.983   6.009   2.009 -0.2797  0.2918  0.0727
15739TIP3    H168708   1.001   5.987   2.101  0.9061 -4.6621 -1.0437
15739TIP3    H268709   1.065   6.043   1.976  0.1171 -0.4067  0.3046
15740TIP3   OH268710   1.197   5.911   2.688 -0.2672  0.5119  0.0201
15740TIP3    H168711   1.157   5.865   2.614 -0.1656 -0.6303  0.6434
15740TIP3    H268712   1.272   5.856   2.712  1.2666  2.2155 -0.6439
15741TIP3   OH268713   5.724   4.775  15.442  0.3390 -0.2671 -0.2962
15741TIP3    H168714   5.714   4.720  15.363 -0.2595 -0.3976 -0.1330
15741TIP3    H268715   5.710   4.714  15.515 -1.0191  0.2272 -0.1210
15742TIP3   OH268716   5.689   0.690   4.775 -0.3376  0.1694 -0.1777
15742TIP3    H168717   5.665   0.783   4.765 -1.5174 -0.2565 -1.7486
15742TIP3    H268718   5.779   0.685   4.742  1.1367  1.2966  3.1769
15743TIP3   OH268719   2.984   6.077  17.084 -0.0920 -0.0202  0.3745
15743TIP3    H168720   3.051   6.008  17.088  0.1592  0.0595 -1.5943
15743TIP3    H268721   3.014   6.136  17.015 -1.5151  0.7738  0.3898
15744TIP3   OH268722   6.816   2.045   4.209 -0.4478 -0.3750 -0.3911
15744TIP3    H168723   6.738   2.010   4.252 -0.4777 -0.7923 -0.7745
15744TIP3    H268724   6.888   2.015   4.263 -0.5804  0.4750  0.2730
15745TIP3   OH268725   2.699   0.273   4.720 -0.1817 -0.0906 -0.8977
15745TIP3    H168726   2.700   0.349   4.662 -1.5829  0.9849  0.3910
15745TIP3    H268727   2.608   0.242   4.718 -0.1479 -0.3297  0.2967
15746TIP3   OH268728   4.483   6.792  13.615 -0.2705  0.0726  0.0990
15746TIP3    H168729   4.493   6.804  13.521 -2.4763  1.7230 -0.0049
15746TIP3    H268730   4.568   6.815  13.652 -0.2753  2.6340 -1.2852
15747TIP3   OH268731   4.755   2.673  11.789 -0.0227  0.2701  0.9089
15747TIP3    H168732   4.797   2.651  11.872  0.4055 -4.1737 -0.2185
15747TIP3    H268733   4.789   2.759  11.768  0.5926  1.1759  4.8086
15748TIP3   OH268734   5.905   4.101  15.396 -0.0208 -0.2758 -0.3229
15748TIP3    H168735   5.975   4.157  15.362  0.1446 -0.2302  0.0917
15748TIP3    H268736   5.942   4.062  15.476 -1.1808  1.3404  1.0568
15749TIP3   OH268737   4.383   5.894   4.033 -0.2061  0.2447 -0.3657
15749TIP3    H168738   4.423   5.965   4.082  0.6829 -0.5664  0.0999
15749TIP3    H268739   4.426   5.815   4.065 -2.3808 -0.7112  0.3846
15750TIP3   OH268740   5.198   6.107   0.877 -0.2685 -0.0541 -0.2273
15750TIP3    H168741   5.227   6.044   0.943 -0.4521 -1.1623 -1.1781
15750TIP3    H268742   5.109   6.130   0.904 -0.7313 -1.2864 -0.6167
15751TIP3   OH268743   4.724   3.309   2.650 -0.1494  0.4346  0.0063
15751TIP3    H168744   4.778   3.301   2.571 -0.2322 -1.8401  0.1095
15751TIP3    H268745   4.656   3.373   2.626 -0.5756 -0.6802 -2.0339
15752TIP3   OH268746   3.476   0.115   1.942  0.5793 -0.1713 -0.1772
15752TIP3    H168747   3.477   0.032   1.894  1.7518  0.4277 -1.2622
15752TIP3    H268748   3.568   0.136   1.956  0.2872  0.0131  1.8115
15753TIP3   OH268749   4.069   4.028   5.853 -0.4973 -0.4091 -0.4543
15753TIP3    H168750   3.974   4.030   5.864 -0.3453  0.2930  0.8879
15753TIP3    H268751   4.091   3.934   5.856 -1.1607 -0.5954 -1.0583
15754TIP3   OH268752   1.021   4.671  11.969  0.7323 -0.0917 -0.4474
15754TIP3    H168753   1.102   4.663  12.019  0.6056  1.6106  0.0965
15754TIP3    H268754   0.955   4.697  12.034  0.3462  1.1228 -1.2840
15755TIP3   OH268755   2.056   5.924  11.854  1.0761 -0.0937  0.1491
15755TIP3    H168756   2.010   5.901  11.935 -1.4126  1.3202 -0.7508
15755TIP3    H268757   2.050   6.020  11.850  0.1151 -0.1876 -2.2098
15756TIP3   OH268758   0.491   2.118   1.028 -0.0804  0.6832 -0.2231
15756TIP3    H168759   0.573   2.075   1.005  0.3293  1.6106 -0.5317
15756TIP3    H268760   0.499   2.136   1.122  0.3359  1.3163 -0.3738
15757TIP3   OH268761   0.963   3.224   4.406 -0.1795 -0.5296  0.0354
15757TIP3    H168762   0.940   3.196   4.317 -1.5676 -0.4067  0.3282
15757TIP3    H268763   0.884   3.266   4.439  0.8118  0.8067  0.7983
15758TIP3   OH268764   6.320   5.234   1.422  0.6007 -0.5148  0.1639
15758TIP3    H168765   6.298   5.320   1.460 -0.3179 -0.1281 -1.1637
15758TIP3    H268766   6.366   5.188   1.493  1.9805  1.4029  0.6192
15759TIP3   OH268767   6.283   4.017   2.627 -0.2774 -0.3794 -0.6448
15759TIP3    H168768   6.308   3.930   2.595  0.0013 -0.8828  0.8247
15759TIP3    H268769   6.205   4.001   2.679  0.4596  0.0236  0.6446
15760TIP3   OH268770   1.850   5.411  12.955  0.7645 -0.2494 -0.2568
15760TIP3    H168771   1.891   5.489  12.994 -1.6522  0.7008  0.5292
15760TIP3    H268772   1.763   5.440  12.928  0.8438 -1.9575 -2.6622
15761TIP3   OH268773   3.238   4.261  12.902 -0.1089  0.7561 -0.5721
15761TIP3    H168774   3.240   4.289  12.994  0.2866 -0.1703 -0.2927
15761TIP3    H268775   3.145   4.244  12.884 -0.0435 -0.2386  0.0180
15762TIP3   OH268776   4.108   3.693   4.069  0.2466  0.3029 -0.3782
15762TIP3    H168777   4.029   3.655   4.030 -1.2062  3.6191 -1.0810
15762TIP3    H268778   4.177   3.675   4.005 -1.0619  1.4009 -2.2316
15763TIP3   OH268779   5.454   4.980   5.479  0.1537 -0.0146  0.4068
15763TIP3    H168780   5.439   5.024   5.395  0.0114  0.0759  0.4812
15763TIP3    H268781   5.445   5.048   5.545  1.7870  0.2557  0.4024
15764TIP3   OH268782   0.512   0.450   0.639 -0.3444 -0.2517  0.2044
15764TIP3    H168783   0.497   0.423   0.549 -1.1626  1.7018 -0.3058
15764TIP3    H268784   0.424   0.454   0.677 -0.2571  1.3279  0.3079
15765TIP3   OH268785   6.631   6.824  15.890  0.2749  0.2225 -0.1987
15765TIP3    H168786   6.576   6.885  15.841 -1.6006 -2.3107 -1.4191
15765TIP3    H268787   6.582   6.806  15.970  0.0253 -0.9265 -0.6057
15766TIP3   OH268788   4.399   5.178  13.065 -0.0365 -0.0193 -0.4404
15766TIP3    H168789   4.418   5.173  12.972 -0.1767 -1.4933 -0.4203
15766TIP3    H268790   4.368   5.091  13.088  0.2295  0.2336  1.0371
15767TIP3   OH268791   4.380   1.131   3.347 -0.0951  0.9758  0.3542
15767TIP3    H168792   4.359   1.067   3.279 -2.2042  0.0300  1.7971
15767TIP3    H268793   4.393   1.213   3.300 -0.9660  0.2486 -1.2274
15768TIP3   OH268794   6.204   5.403   4.773 -1.0718 -0.4758 -0.0231
15768TIP3    H168795   6.159   5.319   4.784 -0.6037 -1.0998 -2.3010
15768TIP3    H268796   6.153   5.464   4.827 -2.1858 -1.9564  0.6935
15769TIP3   OH268797   1.925   5.273   0.928 -0.2631 -0.3771 -0.5558
15769TIP3    H168798   1.842   5.249   0.887  1.0761 -1.8091 -2.6698
15769TIP3    H268799   1.948   5.198   0.982  0.2546 -0.5431 -0.9997
15770TIP3   OH268800   1.983   3.314   6.290 -0.4845  0.0956 -0.7954
15770TIP3    H168801   1.946   3.391   6.247 -1.9850 -1.0424 -1.6246
15770TIP3    H268802   1.989   3.339   6.383 -3.2402  0.4121 -0.6294
15771TIP3   OH268803   4.657   3.682   2.350  0.3871  0.1197  0.0794
15771TIP3    H168804   4.709   3.760   2.366  0.6669 -0.0780  0.1381
15771TIP3    H268805   4.696   3.643   2.272 -0.6567  0.8088 -0.8176
15772TIP3   OH268806   1.019   4.188   2.878  0.5952 -0.2671 -0.1709
15772TIP3    H168807   0.974   4.111   2.842  0.1053  0.1722 -0.5086
15772TIP3    H268808   1.112   4.170   2.862  0.3887 -0.0178 -1.8196
15773TIP3   OH268809   6.516   2.918  12.956 -0.4317 -0.1383  0.1152
15773TIP3    H168810   6.446   2.951  13.012 -0.3306  1.4836 -0.6689
15773TIP3    H268811   6.590   2.906  13.015 -1.0160 -0.8091  0.7453
15774TIP3   OH268812   5.690   3.956   1.013  0.0679 -0.0575  0.2636
15774TIP3    H168813   5.779   3.968   0.982  0.4773  1.5959  1.9291
15774TIP3    H268814   5.646   4.039   0.995  0.2215  0.8520  3.5545
15775TIP3   OH268815   4.180   2.234   3.178  0.2187  0.4621  0.3466
15775TIP3    H168816   4.187   2.246   3.272 -0.8746  0.8554  0.3938
15775TIP3    H268817   4.094   2.193   3.165  0.8021 -0.5961 -0.4010
15776TIP3   OH268818   0.512   5.715  16.173 -0.1595 -0.4115  0.1671
15776TIP3    H168819   0.420   5.738  16.186 -0.1206 -0.3382  0.3099
15776TIP3    H268820   0.557   5.748  16.251 -0.1320 -1.1568  0.4764
15777TIP3   OH268821   0.837   0.516  11.597  0.0487  0.3205 -0.6284
15777TIP3    H168822   0.785   0.547  11.671  1.8867 -0.9601  1.3107
15777TIP3    H268823   0.780   0.452  11.553 -1.0353  1.0145 -0.2744
15778TIP3   OH268824   5.187   2.151   3.162 -0.3774 -0.1872 -0.0662
15778TIP3    H168825   5.136   2.090   3.108  2.0872 -1.9984 -0.5384
15778TIP3    H268826   5.222   2.097   3.233 -0.0358  1.2377  0.8988
15779TIP3   OH268827   5.876   5.142   0.441  0.1482  0.0373  0.1149
15779TIP3    H168828   5.816   5.202   0.396  1.0704  1.8568  1.2198
15779TIP3    H268829   5.917   5.092   0.370 -0.1099  1.2204 -0.9103
15780TIP3   OH268830   4.902   4.028  11.835 -0.0326  0.3485 -0.1400
15780TIP3    H168831   4.970   3.986  11.888 -0.8306  0.2483  0.8257
15780TIP3    H268832   4.889   3.970  11.761  1.3151  0.6374 -0.6310
15781TIP3   OH268833   6.739   3.324   3.019  0.1641  0.4732 -0.1610
15781TIP3    H168834   6.672   3.258   3.002 -1.2028  1.7047  0.3192
15781TIP3    H268835   6.733   3.341   3.113  2.4339 -0.7083  0.2784
15782TIP3   OH268836   6.206   2.111  16.547  0.0450 -0.4994  0.4664
15782TIP3    H168837   6.116   2.092  16.518 -0.9177  1.7687  1.7006
15782TIP3    H268838   6.222   2.201  16.519  0.2996  0.6210  3.8195
15783TIP3   OH268839   6.775   3.200   5.866  0.1129 -0.3045 -0.0138
15783TIP3    H168840   6.721   3.121   5.867  0.4825 -0.7279 -2.9953
15783TIP3    H268841   6.864   3.168   5.882  0.2439 -0.5427 -1.0936
15784TIP3   OH268842   2.894   2.770  16.413 -0.0237 -0.7076 -0.2114
15784TIP3    H168843   2.892   2.811  16.326  0.0432 -1.9135 -0.8137
15784TIP3    H268844   2.830   2.698  16.407 -1.1699  0.1293  1.2549
15785TIP3   OH268845   3.208   6.563   0.745  0.2515 -0.4033  0.1689
15785TIP3    H168846   3.129   6.579   0.798 -1.0750  0.4178 -1.9308
15785TIP3    H268847   3.261   6.506   0.799 -0.1248  1.8540  3.2027
15786TIP3   OH268848   3.047   0.322  16.958 -0.0794  0.2561 -0.1884
15786TIP3    H168849   3.102   0.285  17.028 -0.2365 -0.4346 -0.4267
15786TIP3    H268850   3.089   0.292  16.877 -0.6502 -0.0484 -0.3736
15787TIP3   OH268851   1.173   5.428  11.565  0.4572  0.1624 -0.3446
15787TIP3    H168852   1.088   5.453  11.528  0.9309  0.2040 -1.4590
15787TIP3    H268853   1.220   5.511  11.575  0.3766  0.1374  0.2436
15788TIP3   OH268854   2.693   4.727  13.873  0.3454 -0.0365 -0.2373
15788TIP3    H168855   2.613   4.778  13.859  0.8238  0.1264 -2.9213
15788TIP3    H268856   2.670   4.637  13.852  0.1049 -0.6415  2.2392
15789TIP3   OH268857   5.894   1.069   4.720  0.2046  0.1157  0.0883
15789TIP3    H168858   5.912   1.004   4.789  0.1154 -1.4355 -1.2953
15789TIP3    H268859   5.980   1.103   4.696  0.1481  1.7235  1.8618
15790TIP3   OH268860   0.369   4.970  14.903 -0.0724  0.2227 -0.3746
15790TIP3    H168861   0.315   4.979  14.824  0.4622  3.1370 -0.4981
15790TIP3    H268862   0.359   5.053  14.949  1.2440 -0.6407  1.6262
15791TIP3   OH268863   2.620   1.449   1.028  0.1057  0.2050 -0.0994
15791TIP3    H168864   2.701   1.492   1.053  0.6154  0.3352 -1.8695
15791TIP3    H268865   2.608   1.381   1.094  1.7662  0.0488  0.0815
15792TIP3   OH268866   5.491   1.872  13.947  0.3208 -0.5708  0.3187
15792TIP3    H168867   5.419   1.868  14.010  0.4264 -3.6555  0.3662
15792TIP3    H268868   5.542   1.793  13.962  3.3239  1.0858 -0.2908
15793TIP3   OH268869   1.775   5.345  15.113  0.4791 -0.6158 -0.1236
15793TIP3    H168870   1.794   5.436  15.137  0.6328 -0.5049 -0.6617
15793TIP3    H268871   1.776   5.298  15.197 -0.0349 -0.0486  0.2132
15794TIP3   OH268872   6.440   4.330   6.538 -0.2733 -0.9255  0.1911
15794TIP3    H168873   6.513   4.337   6.600 -0.3531 -2.0082  0.4139
15794TIP3    H268874   6.399   4.417   6.540 -2.5912 -1.8523  4.5197
15795TIP3   OH268875   3.068   6.043   1.545  0.6042  0.0350 -0.8847
15795TIP3    H168876   3.076   6.122   1.600 -1.7605 -0.4273  0.2581
15795TIP3    H268877   2.982   6.051   1.504  0.1513 -2.0786 -0.4769
15796TIP3   OH268878   5.351   1.366   5.677  0.4332  0.3059  0.1456
15796TIP3    H168879   5.381   1.444   5.724  0.6833 -0.4327  1.2667
15796TIP3    H268880   5.407   1.361   5.600  1.7227  0.1681  1.0711
15797TIP3   OH268881   5.078   3.755  10.412 -0.1836  0.1717  0.1840
15797TIP3    H168882   5.031   3.784  10.490  0.9716 -0.4937  1.1681
15797TIP3    H268883   5.017   3.696  10.368 -0.5532 -0.0925  1.0261
15798TIP3   OH268884   4.368   6.672  11.731 -0.2136  0.4378  0.0502
15798TIP3    H168885   4.376   6.654  11.824 -1.9253 -2.6538 -0.2611
15798TIP3    H268886   4.449   6.639  11.692 -0.7143 -1.0894  0.2091
15799TIP3   OH268887   2.794   1.601   3.925 -0.0538 -0.6190 -0.2266
15799TIP3    H168888   2.825   1.536   3.989  1.0272 -0.3710 -0.4669
15799TIP3    H268889   2.761   1.549   3.852  1.1266 -0.9223 -0.5675
15800TIP3   OH268890   2.886   2.474   2.346 -0.2529 -0.1893 -0.5814
15800TIP3    H168891   2.855   2.564   2.345  1.7560  0.5477 -1.8494
15800TIP3    H268892   2.811   2.422   2.318 -1.7382  0.9249  1.1124
15801TIP3   OH268893   0.898   5.712  11.243 -0.1350  0.0057 -0.1256
15801TIP3    H168894   0.895   5.765  11.163 -0.0274 -0.9466 -0.7652
15801TIP3    H268895   0.842   5.760  11.305  0.4372  1.1898 -0.4832
15802TIP3   OH268896   1.108   6.326  12.724 -0.4335 -0.5398 -0.7884
15802TIP3    H168897   1.154   6.280  12.794  1.0214  0.1713 -1.2378
15802TIP3    H268898   1.038   6.373  12.769  0.3944 -0.2009  0.1849
15803TIP3   OH268899   1.362   5.286   5.332 -0.2607  0.2427 -0.2027
15803TIP3    H168900   1.421   5.283   5.407 -0.4470 -2.1247 -0.0766
15803TIP3    H268901   1.274   5.282   5.369 -0.3426 -1.6701 -0.5073
15804TIP3   OH268902   4.448   4.506  12.258  0.0698 -0.5746 -0.4206
15804TIP3    H168903   4.392   4.535  12.187 -0.3051 -1.7931 -0.6492
15804TIP3    H268904   4.509   4.444  12.217 -0.0309 -1.1468  0.2722
15805TIP3   OH268905   3.712   1.053   0.099 -0.2522 -0.0339  0.5475
15805TIP3    H168906   3.685   1.142   0.078 -2.5086 -0.4315  1.4708
15805TIP3    H268907   3.763   1.062   0.180 -0.0288  0.4568  0.3564
15806TIP3   OH268908   4.764   6.611   4.963  0.3614 -0.4013 -0.1044
15806TIP3    H168909   4.750   6.705   4.952  1.5508  0.0259  1.5967
15806TIP3    H268910   4.694   6.583   5.022  1.4847  0.0029  1.5035
15807TIP3   OH268911   4.754   4.650  16.585  1.1970 -0.0978 -0.1349
15807TIP3    H168912   4.696   4.701  16.642  2.0775 -0.8578  1.5069
15807TIP3    H268913   4.702   4.575  16.559  1.0763 -0.2182  0.4386
15808TIP3   OH268914   2.650   6.597   3.020 -0.2578 -0.3650  0.2176
15808TIP3    H168915   2.561   6.569   3.042  0.2012 -1.8153  0.3099
15808TIP3    H268916   2.703   6.518   3.027  0.8337  0.2029 -1.0643
15809TIP3   OH268917   1.997   5.771  16.894 -0.2138 -0.0850 -0.0994
15809TIP3    H168918   2.025   5.859  16.919  0.4013  0.4530 -2.4639
15809TIP3    H268919   1.906   5.782  16.865  0.2067  0.0407 -1.4534
15810TIP3   OH268920   2.514   6.675  16.023  0.5264 -0.4750  1.2338
15810TIP3    H168921   2.424   6.651  16.047 -1.3216  1.0908 -3.1296
15810TIP3    H268922   2.548   6.599  15.977  0.5170 -0.2270  0.8161
15811TIP3   OH268923   1.188   2.483   5.995 -0.1262 -0.3664  0.2235
15811TIP3    H168924   1.263   2.497   6.053 -2.0611 -1.5849  3.2386
15811TIP3    H268925   1.146   2.569   5.990  1.5900  0.4285 -1.8353
15812TIP3   OH268926   1.369   6.737   3.011 -0.0698 -0.0670 -0.2237
15812TIP3    H168927   1.377   6.679   2.935  1.4805 -0.4363  0.1710
15812TIP3    H268928   1.357   6.678   3.086  2.7124 -0.0646  0.3445
15813TIP3   OH268929   5.783   3.794   4.360  0.0263  0.0358  0.4081
15813TIP3    H168930   5.873   3.824   4.370  0.0979 -0.3734  1.0759
15813TIP3    H268931   5.736   3.835   4.433 -0.5735  1.1318 -0.5662
15814TIP3   OH268932   3.342   0.779  14.170  0.0248 -0.2232  0.4696
15814TIP3    H168933   3.390   0.859  14.190  1.3198 -0.6921 -0.6312
15814TIP3    H268934   3.290   0.762  14.249  1.1384  0.6777  1.4350
15815TIP3   OH268935   2.552   2.281   1.774  0.6439 -0.3729 -0.6347
15815TIP3    H168936   2.605   2.216   1.728  1.0817 -0.6881  0.2778
15815TIP3    H268937   2.588   2.282   1.863  0.6891  1.1632 -0.6386
15816TIP3   OH268938   4.427   5.766   5.038  0.9579 -0.3992  0.1014
15816TIP3    H168939   4.362   5.709   5.081  0.0409  0.5651  0.0352
15816TIP3    H268940   4.411   5.754   4.944  0.9398 -0.2366  0.0834
15817TIP3   OH268941   1.265   3.521  16.219 -0.1488 -0.3790  0.1732
15817TIP3    H168942   1.300   3.553  16.301  1.3880  0.8882 -0.9209
15817TIP3    H268943   1.305   3.435  16.207  0.1171 -0.2910  0.4302
15818TIP3   OH268944   5.977   6.143   1.890 -0.0389  0.3627 -0.0960
15818TIP3    H168945   5.915   6.210   1.860 -0.3786  0.8651  1.6111
15818TIP3    H268946   6.040   6.191   1.943 -0.3939 -0.6652  1.3211
15819TIP3   OH268947   6.684   4.169   5.031  0.1318  0.1706 -0.5186
15819TIP3    H168948   6.628   4.234   5.073  0.0997  0.5033 -1.0625
15819TIP3    H268949   6.732   4.218   4.965  2.5785  0.3127  1.2285
15820TIP3   OH268950   5.012   0.370   4.952  0.0812  0.8447  0.1206
15820TIP3    H168951   5.103   0.378   4.982  1.0544 -2.0511 -1.6861
15820TIP3    H268952   5.001   0.442   4.890  1.2581  1.0402  0.1171
15821TIP3   OH268953   0.647   2.583  14.806  0.4152 -0.4831 -0.1586
15821TIP3    H168954   0.727   2.543  14.840  1.1709 -0.7314 -2.0603
15821TIP3    H268955   0.592   2.509  14.781 -0.1733 -0.3109  0.6126
15822TIP3   OH268956   1.771   0.015  11.916  0.6209 -0.3614  0.4418
15822TIP3    H168957   1.793  -0.062  11.969  0.9743 -0.6481 -0.1098
15822TIP3    H268958   1.826   0.085  11.950  1.5948 -0.7943 -0.1858
15823TIP3   OH268959   3.591   0.393  14.581 -0.5240 -0.3902  0.3098
15823TIP3    H168960   3.558   0.333  14.647 -2.2250  0.9290  0.7291
15823TIP3    H268961   3.513   0.439  14.549  0.5271  0.5183 -1.0709
15824TIP3   OH268962   5.055   3.122  14.548  0.2531  0.1894  0.6637
15824TIP3    H168963   5.040   3.139  14.455  0.6313  2.2471  0.9130
15824TIP3    H268964   5.148   3.101  14.553 -0.0644 -1.3601  0.4351
15825TIP3   OH268965   2.513   5.041  12.137  0.3967 -0.2301  0.3395
15825TIP3    H168966   2.507   5.113  12.201 -1.3553 -0.6989  0.7669
15825TIP3    H268967   2.544   4.967  12.189  0.5800 -0.1936  0.2808
15826TIP3   OH268968   4.229   2.089   4.989  0.1875 -0.6356 -0.2644
15826TIP3    H168969   4.141   2.127   4.995 -0.0271 -0.8432 -1.7100
15826TIP3    H268970   4.246   2.053   5.076 -0.2596  1.3121  0.6934
15827TIP3   OH268971   3.373   2.563  16.640  0.1502  0.2519  0.8738
15827TIP3    H168972   3.404   2.613  16.715 -0.4457  0.7598  0.7858
15827TIP3    H268973   3.287   2.599  16.621 -1.3804 -2.3589  2.2967
15828TIP3   OH268974   1.141   1.013  12.562  0.8826  0.4712 -0.2475
15828TIP3    H168975   1.171   0.924  12.547  0.9098  0.2371  1.1268
15828TIP3    H268976   1.048   1.011  12.543  0.4485 -0.3746  1.7683
15829TIP3   OH268977   0.933   6.432  12.502 -0.6840 -0.2594 -0.3786
15829TIP3    H168978   0.987   6.375  12.447 -0.8801 -0.5685 -0.2493
15829TIP3    H268979   0.970   6.423  12.590  0.6101  1.4011 -0.6944
15830TIP3   OH268980   3.929   0.187   6.216 -0.2481 -0.6860 -0.1134
15830TIP3    H168981   3.881   0.203   6.297  1.1402  1.3356  0.3665
15830TIP3    H268982   3.998   0.125   6.241  0.3529  0.1504  0.3550
15831TIP3   OH268983   1.707   3.098  15.590  0.3619  0.1985  1.2860
15831TIP3    H168984   1.742   3.151  15.518  1.1570 -3.0841 -0.9612
15831TIP3    H268985   1.783   3.079  15.645  0.6412 -0.8250  0.5585
15832TIP3   OH268986   6.095   5.814  13.731 -0.1701  0.4844 -0.0255
15832TIP3    H168987   6.038   5.865  13.674 -0.7112  0.7268  0.7270
15832TIP3    H268988   6.093   5.859  13.815 -0.1558 -0.4050  0.4706
15833TIP3   OH268989   2.621   5.621  15.464  0.1649  0.0370  0.2759
15833TIP3    H168990   2.615   5.537  15.418  0.4889  0.0233  0.2589
15833TIP3    H268991   2.633   5.686  15.395 -1.3556  0.2508  0.1861
15834TIP3   OH268992   3.018   3.564  15.658 -0.1296 -0.6976 -0.0901
15834TIP3    H168993   3.054   3.653  15.664 -0.2561 -0.7316  1.9845
15834TIP3    H268994   2.925   3.574  15.679 -0.2751 -1.2414 -0.4692
15835TIP3   OH268995   1.873   0.499  17.130  0.3305  0.2275  0.1921
15835TIP3    H168996   1.870   0.589  17.162 -2.3682  0.1534  0.3825
15835TIP3    H268997   1.912   0.450  17.202 -1.0373  0.8294  1.4102
15836TIP3   OH268998   6.804   4.792   0.312  0.1611  0.3883 -0.0552
15836TIP3    H168999   6.764   4.724   0.367 -0.1704  0.2305 -0.4876
15836TIP3    H269000   6.896   4.794   0.341  0.2020 -0.3097 -0.1010
15837TIP3   OH269001   4.265   2.322   3.437  0.6117 -0.0728  0.4384
15837TIP3    H169002   4.321   2.353   3.508 -1.4815  2.7634  0.9942
15837TIP3    H269003   4.190   2.381   3.436 -1.5606 -2.5548 -1.4294
15838TIP3   OH269004   6.519   3.063   5.905  0.9637  0.0234 -0.3876
15838TIP3    H169005   6.432   3.030   5.881  0.5370  0.3161  0.7123
15838TIP3    H269006   6.502   3.132   5.969  1.9987  0.3248 -0.4183
15839TIP3   OH269007   0.156   2.164   5.363 -0.0689  0.3580 -0.3223
15839TIP3    H169008   0.192   2.144   5.450 -0.5044  1.3404  0.1067
15839TIP3    H269009   0.191   2.096   5.306 -1.9481 -1.9900  1.1243
15840TIP3   OH269010   6.219   2.329  16.341 -0.2705 -0.2706 -0.0865
15840TIP3    H169011   6.145   2.383  16.315 -0.6586 -0.6848  0.1626
15840TIP3    H269012   6.231   2.268  16.267  0.9580  0.9460 -0.9422
15841TIP3   OH269013   0.352   1.181   4.393  0.3830  0.3139 -0.1446
15841TIP3    H169014   0.378   1.210   4.306  0.6062 -1.6350 -0.7820
15841TIP3    H269015   0.296   1.251   4.426  2.1158  2.1416 -0.9028
15842TIP3   OH269016   4.087   5.263  16.952 -0.4781  0.3760  0.0273
15842TIP3    H169017   4.043   5.219  17.024 -0.9552 -0.9995 -1.0503
15842TIP3    H269018   4.032   5.245  16.876 -0.6546  2.8501 -0.4986
15843TIP3   OH269019   2.995   1.316   3.869  0.6472  0.3117 -0.3114
15843TIP3    H169020   2.993   1.240   3.811 -0.2893 -0.9307  1.2525
15843TIP3    H269021   3.085   1.322   3.899  0.5402 -0.8039  0.2866
15844TIP3   OH269022   2.390   0.968  12.598 -0.2640 -0.1137 -0.0647
15844TIP3    H169023   2.327   0.917  12.649 -2.1363  1.3192 -0.7987
15844TIP3    H269024   2.443   1.013  12.664 -1.0516 -0.1288  0.6017
15845TIP3   OH269025   2.048   6.200   0.129 -0.3529  0.0623  0.4382
15845TIP3    H169026   1.997   6.275   0.158 -0.8990  0.4495 -1.3604
15845TIP3    H269027   1.982   6.132   0.111  0.0679 -0.5855  1.2540
15846TIP3   OH269028   3.486   0.806   4.640 -0.2272  0.5086 -0.1279
15846TIP3    H169029   3.483   0.875   4.574  0.9985 -0.5141 -1.3367
15846TIP3    H269030   3.569   0.821   4.686  0.4096 -0.5352 -0.8875
15847TIP3   OH269031   0.269   2.903  15.919 -0.0912 -0.3723  0.4390
15847TIP3    H169032   0.287   2.950  15.837 -1.5063 -2.1586 -0.9751
15847TIP3    H269033   0.292   2.966  15.987  2.4651  0.7152 -1.2523
15848TIP3   OH269034   4.856   3.395  17.055 -0.4920 -0.1599 -0.1449
15848TIP3    H169035   4.839   3.356  16.969  0.5976  0.0722 -0.4827
15848TIP3    H269036   4.797   3.470  17.060 -0.5711 -0.1808 -0.6904
15849TIP3   OH269037   4.155   2.934  16.214 -0.5390  0.5557 -0.1677
15849TIP3    H169038   4.225   2.948  16.150 -0.0132 -0.2648  0.1961
15849TIP3    H269039   4.147   2.838  16.219 -0.8004  0.6182  0.7408
15850TIP3   OH269040   4.652   0.240  13.358  0.3486 -0.4050 -0.0969
15850TIP3    H169041   4.558   0.231  13.344 -0.4517  2.6972  2.2602
15850TIP3    H269042   4.690   0.246  13.270 -1.6990 -1.0977 -1.0771
15851TIP3   OH269043   1.344   3.626  16.799  0.2283 -0.5533  0.4523
15851TIP3    H169044   1.378   3.561  16.861  0.7595 -0.0914  0.6512
15851TIP3    H269045   1.251   3.635  16.822 -0.1622 -2.1209 -0.3514
15852TIP3   OH269046   5.328   1.031   5.503  0.3889 -0.1915  0.4145
15852TIP3    H169047   5.271   1.063   5.434  0.0796 -2.4054 -0.4491
15852TIP3    H269048   5.409   1.081   5.493 -0.6268  1.5111  0.3130
15853TIP3   OH269049   3.189   0.801  13.960  0.4976  0.3524 -0.2545
15853TIP3    H169050   3.189   0.897  13.956 -0.8418  0.3682 -0.3152
15853TIP3    H269051   3.240   0.781  14.039  0.7948  1.1030 -0.2390
15854TIP3   OH269052   3.317   4.922  15.132 -0.3058 -0.0440 -0.2726
15854TIP3    H169053   3.399   4.875  15.147 -0.6986 -1.0991 -1.2600
15854TIP3    H269054   3.249   4.856  15.141 -0.8091  0.0265 -2.7305
15855TIP3   OH269055   2.465   5.249   6.615  0.2005  0.3928 -0.2821
15855TIP3    H169056   2.539   5.309   6.620  0.3730  0.1670 -0.0957
15855TIP3    H269057   2.497   5.169   6.656 -0.1577  0.3034 -0.1791
15856TIP3   OH269058   3.065   5.180  14.986 -0.0444 -0.7201  0.3649
15856TIP3    H169059   3.020   5.213  14.908 -0.1977  1.5513  1.3337
15856TIP3    H269060   3.155   5.164  14.957  0.2471  1.3810 -0.0130
15857TIP3   OH269061   5.483   2.288  13.395 -0.8196  0.0612 -0.1570
15857TIP3    H169062   5.576   2.306  13.383 -1.2416  1.7471 -1.1378
15857TIP3    H269063   5.475   2.265  13.488  0.7377 -1.4467 -0.3464
15858TIP3   OH269064   5.078   4.333   3.383  0.4081 -0.1375 -0.0184
15858TIP3    H169065   4.990   4.370   3.384  0.8940  1.0578  0.2231
15858TIP3    H269066   5.122   4.373   3.458  0.7588 -1.7534  0.6835
15859TIP3   OH269067   3.593   3.724   4.852 -0.1491  0.5071  1.0948
15859TIP3    H169068   3.512   3.703   4.899 -0.3895  0.2757  0.5822
15859TIP3    H269069   3.661   3.676   4.899 -0.4807 -0.2313  0.8309
15860TIP3   OH269070   2.662   3.296   5.518 -0.2035  0.5974 -0.2583
15860TIP3    H169071   2.679   3.333   5.605 -1.7370  0.1247  0.2829
15860TIP3    H269072   2.724   3.340   5.460  0.6986  1.0861  1.0312
15861TIP3   OH269073   2.529   2.056  11.889  0.1892 -0.1491 -0.5958
15861TIP3    H169074   2.583   2.129  11.857  2.0350 -1.1083  0.1969
15861TIP3    H269075   2.553   2.047  11.981  0.7662 -2.3967 -0.9157
15862TIP3   OH269076   4.843   6.369   4.865  0.5654 -0.1270  0.2570
15862TIP3    H169077   4.898   6.414   4.800 -0.4687 -0.5113 -0.9204
15862TIP3    H269078   4.796   6.440   4.909  0.4152  0.0760 -0.2211
15863TIP3   OH269079   0.289   0.264  15.013  1.0590 -0.7513 -0.1456
15863TIP3    H169080   0.376   0.225  15.009  1.6253  0.5344 -1.4612
15863TIP3    H269081   0.267   0.266  15.107  2.0117 -1.9638  0.1186
15864TIP3   OH269082   3.013   4.917   2.960  0.4184 -0.4632 -0.3340
15864TIP3    H169083   3.059   5.000   2.946 -1.6437  0.8328  0.1133
15864TIP3    H269084   2.986   4.889   2.873  0.7627 -0.4672 -0.4417
15865TIP3   OH269085   0.086   2.892   3.154  0.7969 -0.2299 -0.2183
15865TIP3    H169086   0.078   2.955   3.082  0.1530  0.5236  0.4876
15865TIP3    H269087   0.003   2.900   3.202  1.0262 -1.0611  0.3321
15866TIP3   OH269088   1.454   6.355  12.905  0.0348 -0.5674 -0.1001
15866TIP3    H169089   1.457   6.451  12.906 -0.3936 -0.5535 -0.0047
15866TIP3    H269090   1.373   6.333  12.950  0.0231 -0.9696 -0.3119
15867TIP3   OH269091   3.559   4.280   3.061  0.7721 -0.2015  0.2775
15867TIP3    H169092   3.470   4.251   3.081  0.0860  0.7050 -1.2376
15867TIP3    H269093   3.569   4.262   2.968  2.0562  0.0379  0.3606
15868TIP3   OH269094   6.435   3.700  13.728 -0.3405 -0.3653 -0.1720
15868TIP3    H169095   6.387   3.621  13.704  0.6039 -1.1324  0.3976
15868TIP3    H269096   6.368   3.761  13.757 -1.1196 -0.8276 -0.9622
15869TIP3   OH269097   5.298   3.180  11.188  0.6032 -0.2555 -0.0455
15869TIP3    H169098   5.370   3.237  11.216  3.0190 -3.2955  0.5506
15869TIP3    H269099   5.260   3.148  11.269 -0.4750  0.1929 -0.3639
15870TIP3   OH269100   2.114   3.950  11.023 -0.2823 -0.4544 -0.5176
15870TIP3    H169101   2.080   3.975  10.937  0.0046  0.3755 -0.3925
15870TIP3    H269102   2.164   3.870  11.006 -0.4953 -0.4758 -1.0630
15871TIP3   OH269103   4.021   1.652   3.451 -0.8614  0.5258  0.2919
15871TIP3    H169104   4.014   1.737   3.407 -1.0511  0.3112 -0.0961
15871TIP3    H269105   4.102   1.613   3.416 -0.3785  0.8541  1.0161
15872TIP3   OH269106   3.695   0.539  13.277 -0.1435 -0.0736 -0.1205
15872TIP3    H169107   3.678   0.461  13.330 -0.5997 -1.2305 -1.9053
15872TIP3    H269108   3.610   0.580  13.267  0.1344  0.8558  1.0327
15873TIP3   OH269109   2.645   2.135  14.614  0.0796 -0.0054  0.1375
15873TIP3    H169110   2.567   2.186  14.637  0.5693  0.9315 -0.2155
15873TIP3    H269111   2.614   2.070  14.552 -0.4048  0.4274 -0.0793
15874TIP3   OH269112   6.692   4.486  15.188  0.3006  0.3539  0.4659
15874TIP3    H169113   6.695   4.391  15.198 -2.0103  0.2700  1.0567
15874TIP3    H269114   6.731   4.520  15.269  5.0795  0.0995 -1.4442
15875TIP3   OH269115   3.428   1.829   3.625 -0.1737 -0.1409 -0.2271
15875TIP3    H169116   3.393   1.880   3.698  1.3854  0.5553  0.0625
15875TIP3    H269117   3.423   1.738   3.655  0.5665  0.1416  0.8197
15876TIP3   OH269118   2.234   1.207  13.401  0.1991  0.0157  0.2081
15876TIP3    H169119   2.152   1.250  13.379  0.0861  1.3483  2.8257
15876TIP3    H269120   2.301   1.264  13.362 -0.0487  1.2935  1.5217
15877TIP3   OH269121   0.873   2.606   0.344  0.0018  0.2234 -0.0895
15877TIP3    H169122   0.825   2.661   0.282  0.3544 -0.2215 -0.7711
15877TIP3    H269123   0.851   2.517   0.318  1.2334  0.0080 -0.4634
15878TIP3   OH269124   3.624   4.871  11.010 -0.5588 -0.3519  0.0557
15878TIP3    H169125   3.555   4.840  10.952 -0.2615  0.8262 -0.9529
15878TIP3    H269126   3.680   4.926  10.955 -0.1021  0.5605  1.3752
15879TIP3   OH269127   3.956   2.737  15.228 -0.3311 -0.5791 -0.0089
15879TIP3    H169128   3.877   2.776  15.265  0.0522  0.1603  0.0544
15879TIP3    H269129   3.950   2.754  15.134  0.5925  1.1223  0.1777
15880TIP3   OH269130   6.274   5.446   2.502  0.0594  0.2091  0.1286
15880TIP3    H169131   6.299   5.366   2.455 -0.1566 -0.2018  0.6968
15880TIP3    H269132   6.320   5.516   2.456  1.0726 -0.3597  0.2272
15881TIP3   OH269133   6.181   5.989  12.758  0.6632  0.0587  0.0469
15881TIP3    H169134   6.229   6.035  12.689 -0.4152  0.2088 -0.6396
15881TIP3    H269135   6.224   5.904  12.764  0.7006 -0.0109 -0.9224
15882TIP3   OH269136   3.987   1.346  11.185  0.0634  0.3913  0.4181
15882TIP3    H169137   4.036   1.358  11.266  0.5334 -1.7649  0.5340
15882TIP3    H269138   4.054   1.334  11.118 -0.2527 -1.0029  0.3027
15883TIP3   OH269139   4.309   2.948  16.916 -0.0864 -0.0645 -0.4217
15883TIP3    H169140   4.273   3.031  16.948 -0.4130  0.8364 -2.9463
15883TIP3    H269141   4.396   2.971  16.883  0.7263 -1.2062  0.7701
15884TIP3   OH269142   0.642   6.218  16.856  0.2654  0.1830  0.3364
15884TIP3    H169143   0.653   6.281  16.785 -0.5522  0.2173  0.2224
15884TIP3    H269144   0.548   6.219  16.874  0.3453 -0.4547  0.8395
15885TIP3   OH269145   2.354   0.389  12.563 -0.0515  0.0855  0.8695
15885TIP3    H169146   2.366   0.478  12.528  0.4241 -0.8658 -1.5596
15885TIP3    H269147   2.441   0.361  12.589 -0.2150  0.3189  1.7177
15886TIP3   OH269148   6.251   5.077  13.082  0.0712 -0.6239  0.0107
15886TIP3    H169149   6.237   5.172  13.081  1.5026 -0.3757  1.3545
15886TIP3    H269150   6.162   5.041  13.090 -0.6249  0.5211 -1.8069
15887TIP3   OH269151   0.063   2.926  14.515 -0.0220 -0.6154 -0.6578
15887TIP3    H169152   0.067   2.957  14.424 -1.5867  1.5696 -0.0747
15887TIP3    H269153   0.129   2.977  14.561  1.8754 -2.8201 -0.7563
15888TIP3   OH269154   4.237   0.635  12.440 -0.0475 -0.0461  0.1085
15888TIP3    H169155   4.188   0.584  12.504  1.4021 -0.6223  0.8286
15888TIP3    H269156   4.212   0.726  12.457  1.0666 -0.0607  2.2928
15889TIP3   OH269157   1.987   1.007   1.948  0.9247  0.4145 -0.0260
15889TIP3    H169158   2.041   1.024   2.025  2.4424 -1.6519 -0.5398
15889TIP3    H269159   2.032   1.052   1.877 -0.3866  2.1838  0.2063
15890TIP3   OH269160   0.552   4.237  14.752  0.1049  0.3306 -0.3241
15890TIP3    H169161   0.556   4.271  14.662 -1.1369  0.4237 -0.3590
15890TIP3    H269162   0.601   4.301  14.803  0.0898  0.7341 -0.8034
15891TIP3   OH269163   5.657   3.501   0.200 -0.5916 -0.1076 -0.2291
15891TIP3    H169164   5.737   3.515   0.149  0.5266 -0.3122  1.3973
15891TIP3    H269165   5.601   3.576   0.176  0.8976  1.1677  0.0823
15892TIP3   OH269166   2.489   3.549  10.831 -0.1116 -0.8524  0.1850
15892TIP3    H169167   2.508   3.635  10.795  2.0993 -1.5325 -0.4006
15892TIP3    H269168   2.426   3.566  10.902  0.6395  1.2834  0.4004
15893TIP3   OH269169   6.535   1.902  12.634  0.0075  0.7711 -0.0797
15893TIP3    H169170   6.592   1.826  12.622  0.8528  1.6935 -2.4753
15893TIP3    H269171   6.461   1.868  12.685  1.2303 -1.1743  0.5353
15894TIP3   OH269172   3.281   6.811  14.881  0.2473 -0.3711  0.4892
15894TIP3    H169173   3.315   6.877  14.821  1.6652 -0.8455  0.7226
15894TIP3    H269174   3.359   6.766  14.914 -0.6872 -2.5755 -0.1160
15895TIP3   OH269175   0.671   1.171   1.293 -0.2201 -0.4471 -0.4279
15895TIP3    H169176   0.675   1.236   1.223 -0.2383  0.0847  0.0509
15895TIP3    H269177   0.752   1.185   1.343 -1.1767  0.6573  0.9157
15896TIP3   OH269178   4.494   5.131   5.464  0.4853 -0.3202 -0.0860
15896TIP3    H169179   4.481   5.195   5.394  1.9832 -0.8390 -0.8853
15896TIP3    H269180   4.464   5.048   5.426  1.7587 -0.6934 -0.3328
15897TIP3   OH269181   3.698   0.960  14.890 -0.6890 -0.4372  0.0929
15897TIP3    H169182   3.761   0.912  14.944 -0.5271 -0.4784 -0.1310
15897TIP3    H269183   3.614   0.950  14.935 -0.6227 -0.7843  0.1378
15898TIP3   OH269184   1.321   6.076  15.563  0.7081 -0.1587 -0.4553
15898TIP3    H169185   1.269   6.074  15.483  0.6982  0.7346 -0.4901
15898TIP3    H269186   1.382   6.149  15.550  3.7558 -2.6616 -1.4932
15899TIP3   OH269187   5.612   1.479  13.254 -0.0090  0.2143  0.0015
15899TIP3    H169188   5.629   1.468  13.348 -1.5052  0.5005  0.3191
15899TIP3    H269189   5.700   1.489  13.216  0.5843  1.3910  1.5305
15900TIP3   OH269190   2.211   1.730  11.622  0.3121 -0.3333  0.2958
15900TIP3    H169191   2.295   1.734  11.667  0.0769 -2.1991  0.9796
15900TIP3    H269192   2.172   1.648  11.652 -2.7458  1.4785  1.7005
15901TIP3   OH269193   1.770   6.084  13.372  0.1316  0.7331  0.3385
15901TIP3    H169194   1.817   6.161  13.402 -0.4026  1.4371 -0.5949
15901TIP3    H269195   1.801   6.069  13.283 -0.4604  0.4361  0.1733
15902TIP3   OH269196   5.728   4.941  14.727  0.4811 -0.3252 -0.4792
15902TIP3    H169197   5.787   4.958  14.801 -1.5345 -1.0468  1.4039
15902TIP3    H269198   5.773   4.978  14.652  2.6035  0.5488  1.1157
15903TIP3   OH269199   3.330   3.077  12.257  0.4078  0.1718 -0.2661
15903TIP3    H169200   3.250   3.118  12.222 -0.4407 -0.5397  0.7877
15903TIP3    H269201   3.318   3.078  12.352  1.3497 -0.5807 -0.1230
15904TIP3   OH269202   1.171   5.123   3.485 -0.1626  0.8596 -0.7273
15904TIP3    H169203   1.086   5.160   3.463 -1.1901  0.4316  2.1040
15904TIP3    H269204   1.160   5.029   3.474  0.6572  0.9233 -2.3768
15905TIP3   OH269205   2.997   0.101   2.757  0.3884 -0.0307  1.1666
15905TIP3    H169206   2.977   0.046   2.833  2.5142  0.0382  1.8317
15905TIP3    H269207   3.081   0.141   2.777  0.6638  0.5743 -0.9211
15906TIP3   OH269208   2.968   1.403   2.566  0.0341 -0.2427  0.6523
15906TIP3    H169209   2.902   1.469   2.544 -0.4635 -1.3149 -1.3268
15906TIP3    H269210   3.050   1.452   2.575 -0.2115  0.6135 -1.3334
15907TIP3   OH269211   2.691   6.069  15.419  0.3822 -0.4983 -0.1318
15907TIP3    H169212   2.672   5.985  15.378 -0.3663 -1.0526  1.3003
15907TIP3    H269213   2.659   6.061  15.508  1.8809  0.6986  0.5707
15908TIP3   OH269214   6.106   4.460   3.668  0.8042 -0.3045 -0.4161
15908TIP3    H169215   6.155   4.447   3.750  2.0650 -2.5218 -1.4066
15908TIP3    H269216   6.088   4.371   3.638 -0.7598  0.4830 -1.9180
15909TIP3   OH269217   1.231   5.397   3.440  0.5048 -0.0988 -0.1283
15909TIP3    H169218   1.153   5.453   3.441  2.0008  2.0775 -0.2814
15909TIP3    H269219   1.198   5.310   3.466 -1.5528  1.3168  2.5096
15910TIP3   OH269220   3.475   3.479   3.047  0.5042  0.5481  0.1742
15910TIP3    H169221   3.517   3.398   3.017  0.9017  0.5295  0.7814
15910TIP3    H269222   3.400   3.449   3.097 -1.2353  0.5794 -2.2366
15911TIP3   OH269223   1.680   2.853   1.095 -0.0655  0.0951  0.1377
15911TIP3    H169224   1.647   2.856   1.184  0.9129  1.4744  0.4897
15911TIP3    H269225   1.652   2.936   1.056  0.8339  0.1962 -0.3266
15912TIP3   OH269226   1.065   6.575  13.735  1.0034 -0.2453 -0.2537
15912TIP3    H169227   1.149   6.589  13.779  0.5651  0.1915  0.4744
15912TIP3    H269228   1.059   6.479  13.727  0.9975 -0.3632  0.8827
15913TIP3   OH269229   4.933   3.010  11.130  0.1976 -0.4993  0.1140
15913TIP3    H169230   4.983   2.981  11.207  0.4761 -0.7797 -0.1686
15913TIP3    H269231   4.859   2.950  11.126  1.4346 -2.0222 -1.1959
15914TIP3   OH269232   5.912   6.836  16.933 -0.3427 -0.6753 -0.6138
15914TIP3    H169233   5.825   6.861  16.904 -0.1765 -0.1032 -0.6300
15914TIP3    H269234   5.930   6.754  16.886 -2.6144 -3.3099  2.6541
15915TIP3   OH269235   3.021   0.008  11.903 -0.0200  0.1962  0.4005
15915TIP3    H169236   3.041  -0.086  11.904  0.0212  0.1998  1.9157
15915TIP3    H269237   2.998   0.028  11.994 -1.5488  1.3336 -0.2015
15916TIP3   OH269238   5.215   0.233  16.689 -0.1179 -0.3208  0.3353
15916TIP3    H169239   5.216   0.138  16.700 -1.4177 -0.2911  0.8279
15916TIP3    H269240   5.150   0.248  16.621  1.7345  0.0905 -1.4275
15917TIP3   OH269241   6.395   6.698  15.679  0.5576 -0.0398  0.0349
15917TIP3    H169242   6.361   6.637  15.614 -0.6323  0.4341  0.1991
15917TIP3    H269243   6.452   6.757  15.629  1.9910 -1.4337 -0.0730
15918TIP3   OH269244   2.251   4.322   0.714  0.8886  0.0143  0.0149
15918TIP3    H169245   2.326   4.376   0.738  0.2111  1.3371 -0.7581
15918TIP3    H269246   2.225   4.280   0.796 -0.4963  3.3050  1.4081
15919TIP3   OH269247   5.244   2.432  16.334 -0.8191 -0.2492  0.1304
15919TIP3    H169248   5.318   2.480  16.296  0.9393 -0.8992  2.4264
15919TIP3    H269249   5.185   2.500  16.367  0.0216  0.3471  0.4525
15920TIP3   OH269250   1.270   3.710   1.309 -0.1924 -0.3352 -0.1633
15920TIP3    H169251   1.229   3.684   1.226 -0.3727  1.8535 -0.8077
15920TIP3    H269252   1.300   3.799   1.294 -1.3593  0.5922  2.5298
15921TIP3   OH269253   0.296   1.656   0.806 -0.0705  0.1377 -0.0331
15921TIP3    H169254   0.259   1.672   0.892  0.5694 -1.2269  0.5344
15921TIP3    H269255   0.315   1.562   0.805  1.2276  0.3714 -1.1406
15922TIP3   OH269256   1.655   4.249  14.601  0.4587  0.0391  0.2853
15922TIP3    H169257   1.723   4.302  14.558 -0.6889  1.7327  0.4436
15922TIP3    H269258   1.578   4.306  14.603 -0.5756 -1.3192  1.3518
15923TIP3   OH269259   3.736   1.954   2.110 -0.1100 -0.4540 -0.0781
15923TIP3    H169260   3.737   2.039   2.067 -0.3997  1.6065  3.5309
15923TIP3    H269261   3.827   1.940   2.139 -0.2601 -0.8677  0.2122
15924TIP3   OH269262   3.159   0.190   4.152 -0.2496  0.7061 -0.0219
15924TIP3    H169263   3.162   0.096   4.132 -0.9770  0.7207 -0.2372
15924TIP3    H269264   3.203   0.232   4.079  1.4484  0.4446  0.8146
15925TIP3   OH269265   5.352   5.926  13.618  0.4687 -0.6246  0.6502
15925TIP3    H169266   5.267   5.898  13.585  1.1749 -0.0744 -1.8360
15925TIP3    H269267   5.369   5.869  13.693 -1.8063 -1.1216  0.8481
15926TIP3   OH269268   3.212   5.033   4.503 -0.4442 -0.0538  0.3252
15926TIP3    H169269   3.212   4.981   4.423  1.3334  0.6005 -0.1630
15926TIP3    H269270   3.120   5.054   4.518 -0.8694 -0.5840 -1.2845
15927TIP3   OH269271   2.283   2.046   6.576 -0.4157 -0.0427 -0.3732
15927TIP3    H169272   2.212   2.086   6.527 -0.6951 -1.5296 -1.2462
15927TIP3    H269273   2.362   2.062   6.524 -0.4989 -0.4372 -0.6275
15928TIP3   OH269274   6.506   1.833  14.489 -0.3873  0.1418  0.1035
15928TIP3    H169275   6.452   1.886  14.548  0.6569  3.8225 -1.8599
15928TIP3    H269276   6.590   1.825  14.533 -0.3320  0.7988  0.1267
15929TIP3   OH269277   0.472   0.523  14.710  0.4925  0.1358  0.0443
15929TIP3    H169278   0.439   0.538  14.799 -0.0922  0.2661 -0.1900
15929TIP3    H269279   0.561   0.488  14.723  0.7474  0.9741  0.6641
15930TIP3   OH269280   6.171   4.691   4.398 -0.4763  0.4190 -0.0021
15930TIP3    H169281   6.229   4.764   4.422  0.6379 -1.1358  2.3423
15930TIP3    H269282   6.229   4.615   4.393 -1.9759 -0.7855  0.1757
15931TIP3   OH269283   3.318   5.819   1.691  0.3506 -0.5400  1.1391
15931TIP3    H169284   3.375   5.772   1.752  1.3764 -0.2439  0.4209
15931TIP3    H269285   3.377   5.861   1.629 -0.6525 -0.4099  0.2364
15932TIP3   OH269286   2.080   3.564   4.801  0.2732  0.0033  0.1338
15932TIP3    H169287   2.025   3.606   4.866  0.3251  0.4851 -0.1330
15932TIP3    H269288   2.059   3.470   4.809 -0.5830  0.1742  0.0381
15933TIP3   OH269289   0.117   3.151   3.360  0.2312  0.3249 -0.5096
15933TIP3    H169290   0.100   3.235   3.318  1.5557  0.6071 -0.5223
15933TIP3    H269291   0.036   3.101   3.348 -1.4967  2.4004  1.5280
15934TIP3   OH269292   5.600   0.351   3.153 -0.2967 -0.5788 -0.7503
15934TIP3    H169293   5.537   0.328   3.084 -1.5362 -0.4281  0.3003
15934TIP3    H269294   5.548   0.396   3.220  1.0446  0.1005 -0.1149
15935TIP3   OH269295   2.556   4.407   2.356 -0.1278 -0.2335 -0.4768
15935TIP3    H169296   2.556   4.439   2.447  0.6710  0.1852 -0.6166
15935TIP3    H269297   2.631   4.348   2.351  0.9255  1.1147 -1.3120
15936TIP3   OH269298   4.229   2.154  14.431 -0.1595 -0.2038 -0.6908
15936TIP3    H169299   4.134   2.162  14.432 -0.1281  0.2230 -1.0201
15936TIP3    H269300   4.256   2.188  14.346  0.4374  1.6015  0.1546
15937TIP3   OH269301   4.475   1.230   0.713 -0.4376 -0.0548  0.1148
15937TIP3    H169302   4.395   1.196   0.672 -0.3973 -1.2491  0.9910
15937TIP3    H269303   4.523   1.152   0.740  1.1098  0.6426 -0.5185
15938TIP3   OH269304   2.008   5.021   1.009  0.1473 -0.1326 -0.3172
15938TIP3    H169305   2.004   5.027   1.104 -0.3850  0.8491 -0.3909
15938TIP3    H269306   2.066   4.946   0.992  0.4199 -0.1802  0.7676
15939TIP3   OH269307   0.677   1.076  14.471  0.5527 -0.4983  0.9390
15939TIP3    H169308   0.675   1.170  14.483  0.0259 -0.6761  2.4809
15939TIP3    H269309   0.639   1.062  14.384  2.7676  0.8044 -0.3511
15940TIP3   OH269310   5.270   3.615  15.267 -0.4137  0.1599 -0.0381
15940TIP3    H169311   5.247   3.525  15.242 -1.6161  0.4805 -0.1606
15940TIP3    H269312   5.194   3.645  15.317 -0.2144  1.2559 -0.3803
15941TIP3   OH269313   2.903   3.635  13.256 -0.3233 -0.2036  0.3235
15941TIP3    H169314   2.889   3.657  13.164 -0.7765 -0.3300  0.3595
15941TIP3    H269315   2.930   3.543  13.255 -1.0210 -0.4089  0.3696
15942TIP3   OH269316   4.568   1.646  12.566 -0.2503  0.1680 -0.0012
15942TIP3    H169317   4.578   1.716  12.630  0.1163  1.4400 -1.3943
15942TIP3    H269318   4.656   1.608  12.559  0.1255  1.1448 -0.9364
15943TIP3   OH269319   0.421   4.936   2.651  0.0251 -0.1175  0.1597
15943TIP3    H169320   0.502   4.886   2.653  0.5489  0.7192  1.1975
15943TIP3    H269321   0.439   5.013   2.706 -1.1854  0.5207 -0.2881
15944TIP3   OH269322   5.025   6.034  13.874 -0.3316 -0.0312 -0.1680
15944TIP3    H169323   5.044   6.023  13.781 -1.0512  0.4284 -0.3713
15944TIP3    H269324   5.057   6.121  13.895  1.9244 -0.9517  0.5741
15945TIP3   OH269325   2.354   6.417   4.227  0.9697  0.1847 -0.0837
15945TIP3    H169326   2.297   6.340   4.224  1.1596  0.0669 -0.9404
15945TIP3    H269327   2.340   6.460   4.143  0.3474  1.4721  0.6372
15946TIP3   OH269328   0.688   2.746   5.194 -0.1084 -0.3855  0.3225
15946TIP3    H169329   0.708   2.818   5.255 -0.0988  1.1017 -1.3478
15946TIP3    H269330   0.593   2.736   5.199 -0.4612  1.5639 -1.2828
15947TIP3   OH269331   0.845   4.705   0.884 -0.6851  0.1989  0.1915
15947TIP3    H169332   0.797   4.629   0.852  0.0497  1.0924 -3.4305
15947TIP3    H269333   0.778   4.760   0.925 -1.7465 -0.9866  0.1214
15948TIP3   OH269334   3.810   1.094  12.656  0.2487 -0.3390  0.2282
15948TIP3    H169335   3.804   1.095  12.751  0.6815  0.2549  0.2586
15948TIP3    H269336   3.885   1.150  12.636  1.6267 -2.2959 -0.3592
15949TIP3   OH269337   3.845   0.636  13.989 -0.5715  0.0437 -0.4497
15949TIP3    H169338   3.753   0.656  14.006 -0.5487 -0.2622  0.0547
15949TIP3    H269339   3.851   0.541  14.002  0.1512  0.2712  1.1258
15950TIP3   OH269340   4.232   5.064  11.691 -0.1875  0.2679 -0.8526
15950TIP3    H169341   4.316   5.065  11.645 -0.4914  0.9408 -1.4280
15950TIP3    H269342   4.176   5.007  11.638  0.2188 -1.0995  0.1482
15951TIP3   OH269343   1.531   3.901  16.224 -0.1125  0.1131  0.1781
15951TIP3    H169344   1.543   3.908  16.129  0.4640  1.0038  0.3059
15951TIP3    H269345   1.439   3.922  16.238 -0.1262  0.2760 -0.1517
15952TIP3   OH269346   5.740   4.650  15.916  0.8879  0.4505  0.2811
15952TIP3    H169347   5.756   4.720  15.854  2.7022 -0.2759 -0.1550
15952TIP3    H269348   5.792   4.576  15.883  0.3394 -0.5733  1.5935
15953TIP3   OH269349   0.100   5.804  12.403 -0.7568 -0.6960  0.5525
15953TIP3    H169350   0.105   5.710  12.384 -0.6508 -0.3128 -1.5940
15953TIP3    H269351   0.164   5.818  12.472 -1.8466 -2.4174  2.0010
15954TIP3   OH269352   1.223   1.189   3.441 -0.4322  0.1162  0.8136
15954TIP3    H169353   1.231   1.142   3.524 -0.0228  0.2138  0.8315
15954TIP3    H269354   1.203   1.279   3.466 -1.7944 -0.1559  0.7655
15955TIP3   OH269355   2.003   2.183  13.317  0.2997 -0.2440  0.1600
15955TIP3    H169356   2.011   2.196  13.412  1.4568  1.1360 -0.1008
15955TIP3    H269357   1.942   2.109  13.309 -3.6428  2.4580  1.8688
15956TIP3   OH269358   4.128   2.097   0.769 -0.0250  0.0374 -0.1447
15956TIP3    H169359   4.196   2.069   0.831 -0.7694  0.5054  0.8942
15956TIP3    H269360   4.072   2.156   0.819 -1.7350 -1.0284 -0.7076
15957TIP3   OH269361   2.268   4.253   2.285 -0.4794  0.5650 -0.0279
15957TIP3    H169362   2.338   4.201   2.323 -1.2490 -0.1498  0.4594
15957TIP3    H269363   2.271   4.336   2.333 -0.3955  0.2855  0.4575
15958TIP3   OH269364   3.318   1.275   6.333 -0.5855 -0.1517 -0.4645
15958TIP3    H169365   3.356   1.201   6.286  1.4277  0.9166 -0.6608
15958TIP3    H269366   3.354   1.269   6.421 -0.0633  0.7893 -0.5983
15959TIP3   OH269367   4.424   3.255  16.699 -0.5971  0.0570 -0.1863
15959TIP3    H169368   4.346   3.199  16.707  0.6655 -1.6484  0.7973
15959TIP3    H269369   4.462   3.255  16.787  0.4040  1.0439 -0.6022
15960TIP3   OH269370   2.749   1.107   3.364  0.4421 -0.1177  0.1908
15960TIP3    H169371   2.755   1.185   3.308 -0.5029  0.5720  1.0304
15960TIP3    H269372   2.715   1.038   3.305  1.3147  0.0742 -0.5622
15961TIP3   OH269373   3.452   3.202  11.271  0.8801 -0.0942 -0.4336
15961TIP3    H169374   3.467   3.281  11.323 -0.0752 -0.3755  0.2929
15961TIP3    H269375   3.434   3.134  11.335  1.4876 -0.8636 -1.0672
15962TIP3   OH269376   5.057   0.888   5.507 -0.3761 -0.1853  0.1582
15962TIP3    H169377   5.082   0.928   5.424 -2.1736 -1.9663 -1.3469
15962TIP3    H269378   5.112   0.809   5.514  0.1399  0.2250  0.9649
15963TIP3   OH269379   6.727   4.736   5.916 -0.2344 -0.7400 -0.3783
15963TIP3    H169380   6.724   4.680   5.994 -0.4631  0.1954  0.2951
15963TIP3    H269381   6.770   4.816   5.945 -2.8842  0.8241 -0.3972
15964TIP3   OH269382   4.860   0.192  11.340 -0.0406  0.3580 -1.0305
15964TIP3    H169383   4.857   0.097  11.349  0.4888  0.5057  1.6650
15964TIP3    H269384   4.947   0.210  11.303 -0.2642 -0.1982 -1.8521
15965TIP3   OH269385   4.983   0.792   1.075 -0.0560 -0.0922  0.1693
15965TIP3    H169386   4.934   0.874   1.082 -0.5710 -0.4428  0.8046
15965TIP3    H269387   4.925   0.726   1.112  0.5298 -0.6774  0.0727
15966TIP3   OH269388   6.456   3.558   4.625 -0.2830  0.1969  0.2776
15966TIP3    H169389   6.405   3.477   4.622 -0.6338  0.4395 -0.6310
15966TIP3    H269390   6.540   3.534   4.586 -0.4141  0.2820 -0.0623
15967TIP3   OH269391   0.953   0.928   0.928  0.0907  0.2524 -0.0127
15967TIP3    H169392   0.913   1.004   0.970  0.1628  0.5767 -0.5222
15967TIP3    H269393   0.879   0.873   0.903  0.0084  0.3894 -0.0767
15968TIP3   OH269394   0.204   4.793   6.235 -0.0319  0.1245  0.5707
15968TIP3    H169395   0.179   4.729   6.301  1.3190 -0.1301  0.8648
15968TIP3    H269396   0.294   4.769   6.210 -0.7441 -0.2605 -1.9232
15969TIP3   OH269397   4.453   2.716   6.311  0.4315 -0.0992 -0.2892
15969TIP3    H169398   4.428   2.773   6.238  2.2818 -0.0852 -0.9637
15969TIP3    H269399   4.546   2.734   6.324  0.3593 -0.8336  1.4371
15970TIP3   OH269400   4.843   1.994   4.124 -0.0857 -0.2345  0.3123
15970TIP3    H169401   4.754   1.958   4.124  0.0260 -0.5086  0.2309
15970TIP3    H269402   4.894   1.931   4.174 -0.0458  0.1969  0.8293
15971TIP3   OH269403   2.203   3.906   2.586  0.1179  0.7600 -0.0353
15971TIP3    H169404   2.292   3.881   2.610  0.1699  1.3692  0.4427
15971TIP3    H269405   2.198   3.892   2.492  0.2933 -0.5351  0.1272
15972TIP3   OH269406   3.469   1.994  13.392 -0.6284  0.3690  0.2454
15972TIP3    H169407   3.424   1.954  13.317 -0.4413 -0.0356  0.3475
15972TIP3    H269408   3.478   1.922  13.455  0.9727  0.2070 -0.1374
15973TIP3   OH269409   0.938   2.352  17.138  0.4014  0.2205  0.3869
15973TIP3    H169410   0.848   2.384  17.137  0.3499  0.0979  1.0377
15973TIP3    H269411   0.939   2.286  17.207  0.4547 -1.3492 -1.0614
15974TIP3   OH269412   1.224   5.361   4.532 -0.4583 -0.1903  0.1224
15974TIP3    H169413   1.297   5.413   4.567 -0.5329 -0.2937  0.4346
15974TIP3    H269414   1.154   5.424   4.519 -1.1715 -0.4572  2.2026
15975TIP3   OH269415   4.011   2.090   1.708  0.5183 -0.3209  0.8542
15975TIP3    H169416   3.951   2.020   1.680 -0.1306  0.4658  0.2401
15975TIP3    H269417   3.959   2.170   1.701  1.9065  0.4921 -0.5842
15976TIP3   OH269418   4.037   5.312   2.071  0.3161  0.5485 -0.0969
15976TIP3    H169419   3.993   5.299   1.987  0.2762  0.9710 -0.1458
15976TIP3    H269420   4.124   5.275   2.058  0.3224  0.6428 -0.3369
15977TIP3   OH269421   3.358   6.501  14.493  0.4247 -0.4038  0.3640
15977TIP3    H169422   3.345   6.407  14.479 -1.5904  0.0051 -0.9086
15977TIP3    H269423   3.413   6.528  14.420  1.4413 -0.6505  1.0161
15978TIP3   OH269424   3.332   4.798   1.808  0.2312 -0.0306 -0.0441
15978TIP3    H169425   3.348   4.749   1.889  1.0833  0.5411  0.1416
15978TIP3    H269426   3.267   4.745   1.761  1.1829 -1.3947  0.1167
15979TIP3   OH269427   4.765   1.096  14.791  0.1514 -0.2673 -0.5519
15979TIP3    H169428   4.700   1.154  14.751  1.1701 -0.1801 -2.1632
15979TIP3    H269429   4.767   1.019  14.735  1.1790 -0.4229 -0.3266
15980TIP3   OH269430   4.512   6.351  13.063 -0.3548  0.2071 -0.4059
15980TIP3    H169431   4.521   6.407  12.986  1.0893  0.5133 -0.0474
15980TIP3    H269432   4.521   6.262  13.029 -1.0850  0.2604 -0.7625
15981TIP3   OH269433   1.137   3.126  12.960 -0.4399  0.4849 -0.0575
15981TIP3    H169434   1.080   3.132  13.036  1.2842 -1.7231  1.5382
15981TIP3    H269435   1.084   3.084  12.893 -1.0121 -0.7187  1.0963
15982TIP3   OH269436   6.541   6.132  11.553 -0.1441  0.4940  0.3066
15982TIP3    H169437   6.534   6.088  11.468  0.0675  1.9640 -0.5045
15982TIP3    H269438   6.635   6.140  11.568 -0.1191  2.6602 -0.6736
15983TIP3   OH269439   1.988   5.505  14.068  0.5993 -0.6261  0.6722
15983TIP3    H169440   1.959   5.419  14.098  0.4729 -0.7190  0.2936
15983TIP3    H269441   1.957   5.510  13.978  0.9735 -0.3543  0.5579
15984TIP3   OH269442   1.029   4.952   1.364  0.0116 -0.1077 -0.0508
15984TIP3    H169443   0.957   4.944   1.427 -0.9215  1.1218 -0.9066
15984TIP3    H269444   1.106   4.972   1.418 -0.6805  0.4758  0.7442
15985TIP3   OH269445   4.468   1.852   2.866 -0.2137 -0.3208  0.2610
15985TIP3    H169446   4.392   1.805   2.832 -0.0639 -0.0667 -0.4479
15985TIP3    H269447   4.454   1.943   2.841 -0.5005  0.0269  1.6346
15986TIP3   OH269448   5.337   6.297  16.959  0.4115 -0.3371  0.1386
15986TIP3    H169449   5.332   6.347  17.041 -1.1332  0.4147 -0.3913
15986TIP3    H269450   5.370   6.211  16.986  0.9983  0.2442  1.3804
15987TIP3   OH269451   3.734   6.360   5.655 -0.1048 -0.2364  0.4181
15987TIP3    H169452   3.821   6.361   5.694 -0.4872  0.4190  1.2769
15987TIP3    H269453   3.677   6.321   5.721 -0.7546  0.8797  0.5479
15988TIP3   OH269454   4.957   1.237  11.542  0.3154 -0.1494  0.0367
15988TIP3    H169455   5.014   1.266  11.471 -2.9572  2.1799 -1.9337
15988TIP3    H269456   4.923   1.152  11.513  1.1212 -0.5776  0.2828
15989TIP3   OH269457   1.943   6.277   1.526  0.0975 -0.1796 -0.5576
15989TIP3    H169458   1.861   6.305   1.486  0.0307  0.6531  0.1313
15989TIP3    H269459   1.959   6.341   1.595  0.3879 -1.3788  0.5194
15990TIP3   OH269460   6.203   6.462   1.021 -0.1664  0.3748  0.3997
15990TIP3    H169461   6.293   6.492   1.004 -1.1155  2.5239 -1.2325
15990TIP3    H269462   6.162   6.460   0.935 -0.9674 -3.4741  0.6598
15991TIP3   OH269463   1.179   1.449   0.455 -0.3676  0.3400 -0.1765
15991TIP3    H169464   1.094   1.487   0.433 -0.5390 -0.8559 -1.7664
15991TIP3    H269465   1.160   1.385   0.523 -0.3454  1.7078  1.1761
15992TIP3   OH269466   2.383   6.571   3.145 -0.0717 -0.2765 -0.3528
15992TIP3    H169467   2.309   6.524   3.184  0.3347 -1.1646 -0.6246
15992TIP3    H269468   2.378   6.659   3.183 -1.0101 -0.4493 -0.0378
15993TIP3   OH269469   5.764   5.415   4.805  0.3250 -0.3018  0.0258
15993TIP3    H169470   5.780   5.509   4.812 -1.1159 -0.1271  1.5260
15993TIP3    H269471   5.715   5.404   4.724 -0.4654  0.3994  0.3987
15994TIP3   OH269472   2.369   4.369   2.631 -0.3105 -0.1776  0.1897
15994TIP3    H169473   2.328   4.284   2.649  0.1837 -0.3423  0.5605
15994TIP3    H269474   2.461   4.356   2.652 -0.1426  0.3159 -0.2197
15995TIP3   OH269475   0.529   6.267   4.621  0.4775 -0.0725 -0.1336
15995TIP3    H169476   0.570   6.297   4.702  2.0111  1.6586 -1.4715
15995TIP3    H269477   0.458   6.330   4.605  1.3780  0.7299 -1.0727
15996TIP3   OH269478   2.929   2.015  11.719 -0.5892  0.1487  0.4455
15996TIP3    H169479   3.003   2.068  11.689  0.5821 -1.4499  0.3618
15996TIP3    H269480   2.866   2.018  11.647 -0.1541  0.6985  0.0806
15997TIP3   OH269481   3.383   0.269  15.188 -0.0404 -0.5105 -0.3962
15997TIP3    H169482   3.304   0.323  15.187  1.3980  1.7071 -1.2188
15997TIP3    H269483   3.366   0.204  15.257 -0.9346  2.5317  2.5395
15998TIP3   OH269484   3.244   3.443  13.294 -0.2221 -0.3826 -0.1041
15998TIP3    H169485   3.156   3.419  13.322 -0.8811  2.3752  0.5382
15998TIP3    H269486   3.299   3.434  13.372 -0.2473 -0.7156 -0.1253
15999TIP3   OH269487   6.278   5.858  13.182  0.6288 -0.4362  0.1153
15999TIP3    H169488   6.343   5.823  13.244  0.2454 -1.0831  0.1653
15999TIP3    H269489   6.316   5.843  13.096  1.8011  1.7290  0.1864
16000TIP3   OH269490   5.578   5.659  12.349  0.2708 -0.4794  0.5308
16000TIP3    H169491   5.533   5.581  12.317  0.0925  0.3358 -1.3206
16000TIP3    H269492   5.508   5.724  12.360  0.5047 -0.3633  1.4494
16001TIP3   OH269493   0.429   5.729   3.326 -0.0635 -0.0389  0.9292
16001TIP3    H169494   0.413   5.821   3.306 -1.2938 -0.2366  0.8946
16001TIP3    H269495   0.499   5.731   3.391 -0.6454  0.9823  1.5668
16002TIP3   OH269496   2.987   6.571   0.912  0.1261 -0.1118 -0.5282
16002TIP3    H169497   2.952   6.513   0.979 -1.0816 -0.9618 -1.8240
16002TIP3    H269498   2.980   6.659   0.950  4.1455 -0.8202  2.4117
16003TIP3   OH269499   1.955   5.866   5.687  0.0550 -0.3860 -0.0753
16003TIP3    H169500   2.046   5.840   5.703  0.3555  2.0556  3.2793
16003TIP3    H269501   1.957   5.962   5.688 -2.4438 -0.2377 -1.0662
16004TIP3   OH269502   6.183   1.273   3.454 -0.0404  0.3337 -0.3919
16004TIP3    H169503   6.139   1.328   3.518 -3.1439 -0.8939 -1.2705
16004TIP3    H269504   6.237   1.333   3.403 -2.7928  2.5387 -0.9355
16005TIP3   OH269505   4.801   4.010  13.424  0.6384 -0.0195 -0.7316
16005TIP3    H169506   4.780   4.100  13.451  0.9841  0.2061 -1.2013
16005TIP3    H269507   4.772   3.956  13.497 -0.5696  0.3752 -0.8810
16006TIP3   OH269508   5.166   4.090   2.614 -0.0779  0.2907  0.0689
16006TIP3    H169509   5.086   4.038   2.615 -0.5034  0.9358  0.0286
16006TIP3    H269510   5.222   4.047   2.549  0.8115 -1.9257  2.1565
16007TIP3   OH269511   5.366   5.406   4.073  0.0037  0.3217  0.3994
16007TIP3    H169512   5.368   5.318   4.110  0.3502  0.7527  1.4578
16007TIP3    H269513   5.282   5.411   4.028  0.0150 -0.5696  0.2518
16008TIP3   OH269514   4.885   0.014   1.869  0.1790 -0.5213 -0.3929
16008TIP3    H169515   4.859   0.102   1.840  2.6104  0.9492  1.5037
16008TIP3    H269516   4.840   0.003   1.953 -0.9407 -1.6110 -1.0917
16009TIP3   OH269517   2.620   6.562  14.646  0.1778  0.0011 -0.3920
16009TIP3    H169518   2.703   6.536  14.606 -0.9747 -4.4541 -0.3714
16009TIP3    H269519   2.634   6.551  14.740 -0.4679 -1.1914 -0.4114
16010TIP3   OH269520   1.625   0.545  13.124  0.6125  0.4219 -0.3655
16010TIP3    H169521   1.589   0.632  13.144 -0.3587 -0.1152  0.3011
16010TIP3    H269522   1.700   0.536  13.183  0.5208  0.6730 -0.2099
16011TIP3   OH269523   3.530   6.333   0.353 -0.1387  0.4481  0.5944
16011TIP3    H169524   3.538   6.270   0.281  1.5202  0.8256  0.4174
16011TIP3    H269525   3.491   6.410   0.312  1.3087  0.8638 -0.0741
16012TIP3   OH269526   4.473   0.378  12.624 -0.1013  0.1717 -0.5833
16012TIP3    H169527   4.474   0.448  12.559  1.4853  0.5160 -0.2319
16012TIP3    H269528   4.515   0.304  12.580 -0.7397 -0.2067 -0.5709
16013TIP3   OH269529   0.754   6.036   2.771  0.0521 -0.5689 -0.4112
16013TIP3    H169530   0.737   5.953   2.726 -0.8368 -0.6659  0.0813
16013TIP3    H269531   0.668   6.077   2.779  0.6009  0.8890 -1.5551
16014TIP3   OH269532   3.897   4.696  17.031 -0.5634 -0.5455 -0.3485
16014TIP3    H169533   3.973   4.680  17.087 -0.6388 -2.0467 -0.6442
16014TIP3    H269534   3.823   4.663  17.082 -0.9723  0.5179 -0.2404
16015TIP3   OH269535   1.649   4.833   6.423  0.2345 -0.5877 -0.2377
16015TIP3    H169536   1.614   4.897   6.484 -0.5010 -1.3002  0.0897
16015TIP3    H269537   1.591   4.837   6.347  0.4507 -0.5612 -0.4061
16016TIP3   OH269538   3.394   6.525   2.394  0.5693 -0.0839 -0.0018
16016TIP3    H169539   3.408   6.450   2.452  0.2605 -0.4882 -0.4439
16016TIP3    H269540   3.476   6.533   2.345  1.4656  1.2730  1.6073
16017TIP3   OH269541   3.330   1.711   2.933  0.1736 -0.5279 -0.4500
16017TIP3    H169542   3.282   1.748   3.007 -2.7093 -3.6060 -0.5360
16017TIP3    H269543   3.405   1.769   2.921 -1.4767  2.4294  2.2035
16018TIP3   OH269544   2.229   0.835  10.145  0.3958  0.1141 -0.2202
16018TIP3    H169545   2.138   0.829  10.117  1.1989 -0.1037 -3.1610
16018TIP3    H269546   2.232   0.790  10.229 -1.4739 -3.8852 -2.0361
16019TIP3   OH269547   2.790   4.627  13.494  0.0398  0.5486 -0.4780
16019TIP3    H169548   2.865   4.660  13.444  0.4998  1.3760  0.7322
16019TIP3    H269549   2.815   4.537  13.518 -0.5987 -0.2372 -2.5171
16020TIP3   OH269550   2.912   6.695   0.426  0.7935 -0.2797 -0.7247
16020TIP3    H169551   2.880   6.613   0.463  1.5734 -0.5454 -0.6054
16020TIP3    H269552   2.878   6.698   0.337 -2.7810  1.2878  0.4909
16021TIP3   OH269553   3.567   4.414  15.559 -0.1353  0.0902 -0.2968
16021TIP3    H169554   3.524   4.377  15.636 -1.1231 -1.2884 -1.4483
16021TIP3    H269555   3.496   4.436  15.500  0.6337  0.0426 -1.2720
16022TIP3   OH269556   1.632   1.475   1.579 -0.4426  0.1758  0.1168
16022TIP3    H169557   1.574   1.526   1.636 -0.3459  0.8195 -0.3502
16022TIP3    H269558   1.601   1.494   1.491 -1.6107 -2.0271 -0.0455
16023TIP3   OH269559   4.727   3.445   0.695 -0.0603 -0.1970  0.3282
16023TIP3    H169560   4.714   3.475   0.605  0.1162 -1.5564 -0.1851
16023TIP3    H269561   4.645   3.399   0.716 -0.1898  0.3162  0.9497
16024TIP3   OH269562   2.038   2.729   3.919  0.7128  0.1366  0.2636
16024TIP3    H169563   2.048   2.824   3.916  0.1390  0.1697 -1.3862
16024TIP3    H269564   2.107   2.695   3.863  0.4713 -0.3862  0.2761
16025TIP3   OH269565   5.731   2.534   4.562  0.4551  0.8280 -0.4584
16025TIP3    H169566   5.729   2.476   4.639  0.8864  2.9328  1.2518
16025TIP3    H269567   5.789   2.490   4.500 -0.1708 -1.1052  0.2582
16026TIP3   OH269568   4.840   2.204  11.867  0.2156 -0.5704 -0.3830
16026TIP3    H169569   4.817   2.282  11.817 -0.8139 -0.3987  0.3353
16026TIP3    H269570   4.917   2.169  11.822 -1.1377 -0.8834 -2.5867
16027TIP3   OH269571   2.801   1.843  16.348 -0.1239 -0.0473  0.2185
16027TIP3    H169572   2.824   1.759  16.387  0.9401  0.3511  0.4799
16027TIP3    H269573   2.730   1.822  16.286  0.3946 -1.1941 -0.0167
16028TIP3   OH269574   0.742   3.803   2.208 -0.1886 -0.2998  0.3481
16028TIP3    H169575   0.690   3.802   2.289 -0.6035  0.0777  0.0963
16028TIP3    H269576   0.779   3.715   2.202 -2.1247 -1.1347 -0.3029
16029TIP3   OH269577   0.247   3.691  15.188  0.0768  0.4492  0.3410
16029TIP3    H169578   0.163   3.664  15.151 -0.1043 -0.7400  1.5248
16029TIP3    H269579   0.298   3.721  15.113 -0.5481 -1.1191 -0.7638
16030TIP3   OH269580   6.688   4.944  13.434 -0.0570 -0.3329  0.1169
16030TIP3    H169581   6.744   4.957  13.357  1.3415 -1.0630  0.9791
16030TIP3    H269582   6.653   5.031  13.453 -1.4011 -0.3313 -2.0341
16031TIP3   OH269583   0.345   5.470  15.933 -0.5990  0.0262 -0.3812
16031TIP3    H169584   0.286   5.413  15.882 -0.5600 -0.4508  0.1053
16031TIP3    H269585   0.432   5.431  15.921 -0.7725 -0.9216  1.1712
16032TIP3   OH269586   2.098   3.769   0.039 -0.2210 -0.1696  0.3154
16032TIP3    H169587   2.141   3.855   0.038 -2.9534  1.3233 -0.5627
16032TIP3    H269588   2.114   3.733  -0.048 -1.9064  1.1083 -0.6010
16033TIP3   OH269589   5.687   4.867   5.352  0.0300  0.0575  0.2453
16033TIP3    H169590   5.750   4.865   5.425 -0.0134  1.1634  0.3302
16033TIP3    H269591   5.610   4.910   5.388 -0.2467 -0.0141 -0.2594
16034TIP3   OH269592   3.965   6.004  12.494  0.1652 -0.3093 -0.1611
16034TIP3    H169593   4.028   5.945  12.535 -1.5615 -2.5432 -0.4514
16034TIP3    H269594   4.007   6.031  12.412  0.3669 -2.7717 -0.9808
16035TIP3   OH269595   6.442   0.865   3.335 -0.8364 -0.1427  0.2613
16035TIP3    H169596   6.362   0.913   3.355 -2.3214 -2.3965  0.1665
16035TIP3    H269597   6.465   0.821   3.416 -1.5273 -1.9469 -0.4710
16036TIP3   OH269598   0.404   0.320  15.424 -0.3192  0.1638  0.3172
16036TIP3    H169599   0.466   0.272  15.480  0.7983 -1.6191 -2.2624
16036TIP3    H269600   0.458   0.351  15.351 -1.7252  2.4158  0.1397
16037TIP3   OH269601   4.327   3.291  11.458  0.2740 -0.4462  0.1506
16037TIP3    H169602   4.298   3.212  11.414  2.8733 -2.5667  1.9125
16037TIP3    H269603   4.399   3.324  11.404 -0.9883  0.9620 -0.7371
16038TIP3   OH269604   5.336   0.539   1.687  0.2311  0.1885 -0.6467
16038TIP3    H169605   5.281   0.605   1.644 -0.6542 -1.3694 -2.0284
16038TIP3    H269606   5.324   0.460   1.634  1.6001 -0.9777  0.6961
16039TIP3   OH269607   4.168   5.528  10.738 -0.5583  0.1683  0.7329
16039TIP3    H169608   4.162   5.502  10.646 -1.3387 -0.8563  1.0637
16039TIP3    H269609   4.138   5.451  10.787  0.4943  0.4594  1.8745
16040TIP3   OH269610   2.915   2.901  11.382 -0.0661  0.6854 -0.0525
16040TIP3    H169611   2.821   2.907  11.400 -0.0309 -0.6145  0.6698
16040TIP3    H269612   2.925   2.941  11.296 -1.1077  1.8571  0.3455
16041TIP3   OH269613   0.914   1.391  13.281  0.2430  0.0991  0.6884
16041TIP3    H169614   0.904   1.328  13.210 -1.3880  1.5547 -0.4498
16041TIP3    H269615   1.007   1.387  13.303  1.0622  0.3607 -2.2949
16042TIP3   OH269616   6.624   6.692   5.776 -0.6728 -0.3288 -0.0028
16042TIP3    H169617   6.530   6.710   5.772 -0.6886 -0.6741 -2.2185
16042TIP3    H269618   6.630   6.596   5.782 -0.4559 -0.2793  0.6442
16043TIP3   OH269619   3.476   0.002   4.159  0.2911  0.3838 -0.5366
16043TIP3    H169620   3.441  -0.054   4.229  0.8597  0.9178  0.1938
16043TIP3    H269621   3.465  -0.050   4.079  0.7582 -0.7555  0.1108
16044TIP3   OH269622   4.440   2.794  14.165  0.2756  0.4732 -0.2959
16044TIP3    H169623   4.522   2.745  14.175 -0.2622 -0.7566 -1.6884
16044TIP3    H269624   4.371   2.729  14.176 -0.5139  1.3387 -0.0113
16045TIP3   OH269625   6.667   2.943   0.018  0.5228  0.3046 -0.5641
16045TIP3    H169626   6.647   2.952  -0.075  1.2636  1.1143 -0.6569
16045TIP3    H269627   6.713   3.024   0.041 -1.0245  0.8425  0.8842
16046TIP3   OH269628   0.812   0.961   3.266 -0.0626 -0.1081 -0.3282
16046TIP3    H169629   0.883   1.025   3.270  1.1472 -1.4053 -0.2635
16046TIP3    H269630   0.751   0.989   3.335 -0.6979  2.1901 -1.7151
16047TIP3   OH269631   5.759   6.811  13.481 -1.1924 -0.1363  0.1607
16047TIP3    H169632   5.765   6.819  13.576 -0.2015  1.5361  0.0005
16047TIP3    H269633   5.744   6.900  13.451  3.1714  0.2574 -1.5146
16048TIP3   OH269634   6.074   1.691   5.870  0.0992 -0.2802 -0.4763
16048TIP3    H169635   6.138   1.628   5.902 -0.8731  0.2264  2.8444
16048TIP3    H269636   6.103   1.775   5.905 -2.0970  0.0140  0.8673
16049TIP3   OH269637   4.173   5.345   0.287  0.1908 -0.5687  0.3390
16049TIP3    H169638   4.255   5.392   0.303 -0.2084  0.6426 -0.9451
16049TIP3    H269639   4.190   5.295   0.208 -1.2278  2.2497 -1.9240
16050TIP3   OH269640   3.895   6.254  14.236 -0.5798  0.3493  0.4857
16050TIP3    H169641   3.831   6.188  14.211 -0.9122  1.0566 -0.6516
16050TIP3    H269642   3.949   6.266  14.158  0.6046  0.1581  1.2470
16051TIP3   OH269643   2.417   1.757  12.611 -0.6223 -0.1777  0.1329
16051TIP3    H169644   2.327   1.776  12.640 -0.2692 -0.2091  1.3202
16051TIP3    H269645   2.452   1.841  12.583 -0.9291 -0.1116 -0.0591
16052TIP3   OH269646   6.480   2.933   2.393 -0.0161 -0.1106 -0.0012
16052TIP3    H169647   6.428   2.884   2.456  4.3511 -2.6337  2.1139
16052TIP3    H269648   6.488   3.021   2.431 -0.4750 -0.5103  1.0333
16053TIP3   OH269649   3.406   6.471   5.726  0.5147  0.3489 -0.3062
16053TIP3    H169650   3.450   6.542   5.773  1.5432 -0.6907  0.3785
16053TIP3    H269651   3.455   6.393   5.751 -3.3459 -1.4173  2.8007
16054TIP3   OH269652   0.356   1.519  14.035  0.2534 -0.9351 -0.0025
16054TIP3    H169653   0.282   1.561  14.079  0.9873 -0.0296  0.4082
16054TIP3    H269654   0.395   1.463  14.102  1.9191  1.1262  0.9015
16055TIP3   OH269655   0.607   2.514  16.888 -0.1319  0.2829  0.7522
16055TIP3    H169656   0.586   2.607  16.900  0.3595  0.3883  0.8052
16055TIP3    H269657   0.608   2.478  16.977 -1.3242 -0.0019  0.6657
16056TIP3   OH269658   5.782   0.884   0.372  0.6356 -0.1817 -0.0965
16056TIP3    H169659   5.768   0.790   0.360  0.0677 -0.2674  1.0286
16056TIP3    H269660   5.741   0.903   0.456  1.0153  1.0211 -0.1645
16057TIP3   OH269661   6.703   3.927  11.362  0.2188 -0.2538  0.1340
16057TIP3    H169662   6.761   3.923  11.286  1.1945 -0.2544  0.8539
16057TIP3    H269663   6.684   3.836  11.383 -0.3641 -0.2440 -0.3317
16058TIP3   OH269664   1.961   4.735  12.994 -0.0667  0.0786 -0.3399
16058TIP3    H169665   1.910   4.713  13.072 -1.2833  0.0500 -1.1063
16058TIP3    H269666   1.899   4.725  12.922  1.1917 -0.5084 -1.3815
16059TIP3   OH269667   4.567   0.442  11.033  0.0232 -0.2207  0.1908
16059TIP3    H169668   4.543   0.366  10.979 -1.2725 -0.7238  1.3837
16059TIP3    H269669   4.658   0.426  11.058 -0.2462 -1.4577  0.4759
16060TIP3   OH269670   4.905   4.691   0.088 -0.0496  0.3860  0.5812
16060TIP3    H169671   4.912   4.786   0.091  1.4788  0.3911 -1.3489
16060TIP3    H269672   4.995   4.660   0.081 -0.6421 -0.9689 -2.4136
16061TIP3   OH269673   1.162   5.104  16.265  0.0579  0.6749  0.9825
16061TIP3    H169674   1.224   5.139  16.329  1.3128  0.3258 -0.0154
16061TIP3    H269675   1.160   5.168  16.195  0.5205 -0.0863  0.2638
16062TIP3   OH269676   3.235   6.253  13.863  0.0020  0.1889  0.3800
16062TIP3    H169677   3.261   6.330  13.811 -2.0965 -0.0318 -1.1038
16062TIP3    H269678   3.231   6.182  13.800  0.3670 -0.8070  1.4519
16063TIP3   OH269679   4.824   6.600   5.354 -0.1956 -0.1329 -0.4436
16063TIP3    H169680   4.851   6.576   5.443  0.5161 -0.0707 -0.6345
16063TIP3    H269681   4.745   6.549   5.339 -1.1176  0.8736  0.7188
16064TIP3   OH269682   0.554   4.204   2.870  0.0926  0.4899  0.7700
16064TIP3    H169683   0.515   4.157   2.944  0.5512  1.3473  1.5797
16064TIP3    H269684   0.531   4.152   2.793  1.5801 -1.7212  1.7245
16065TIP3   OH269685   4.659   5.855   5.240 -0.0410 -0.0895 -0.0052
16065TIP3    H169686   4.676   5.761   5.250  0.0826  0.0542  1.3362
16065TIP3    H269687   4.593   5.860   5.171  0.8246 -1.0672 -0.9669
16066TIP3   OH269688   4.647   4.159   1.891 -0.3549 -0.0364  0.1345
16066TIP3    H169689   4.589   4.137   1.818 -0.3454 -1.1093  0.4242
16066TIP3    H269690   4.588   4.190   1.960 -0.3358  1.2893 -0.4129
16067TIP3   OH269691   4.394   1.227   4.276  0.5353  0.1644  0.1933
16067TIP3    H169692   4.426   1.289   4.341 -2.0106  1.0069  0.7553
16067TIP3    H269693   4.300   1.244   4.271  0.2160 -1.7516 -1.7236
16068TIP3   OH269694   3.600   5.044   3.771 -0.2389  0.2498  0.2182
16068TIP3    H169695   3.534   4.988   3.813 -1.5070  0.4379 -1.4384
16068TIP3    H269696   3.549   5.103   3.715  1.3028  0.7210 -0.7334
16069TIP3   OH269697   5.795   0.986   5.663  0.7563 -0.3764 -0.0393
16069TIP3    H169698   5.728   0.919   5.679  0.1162  0.3917  0.5699
16069TIP3    H269699   5.847   0.950   5.590 -1.0975 -0.4545 -1.4113
16070TIP3   OH269700   2.913   5.820  14.769 -0.3666  0.7278  0.5970
16070TIP3    H169701   2.922   5.892  14.707  1.8612 -1.2536 -1.6074
16070TIP3    H269702   2.834   5.774  14.740  0.5237 -0.0443 -0.6879
16071TIP3   OH269703   0.135   0.977   1.079 -0.2585  0.0411  0.1909
16071TIP3    H169704   0.049   0.936   1.085  1.0618 -3.4841 -2.1032
16071TIP3    H269705   0.131   1.029   0.998  0.5530 -2.6895 -1.7406
16072TIP3   OH269706   4.759   4.892  11.487 -0.0719 -0.2623 -0.1155
16072TIP3    H169707   4.848   4.876  11.517  0.5661 -0.4507 -1.9786
16072TIP3    H269708   4.734   4.812  11.442 -0.3599  0.5308 -1.4372
16073TIP3   OH269709   5.705   2.812   1.226  0.5216 -0.4471  0.2354
16073TIP3    H169710   5.725   2.734   1.278 -2.3204 -0.2218  1.8771
16073TIP3    H269711   5.740   2.885   1.276 -1.7722 -0.2765  1.7546
16074TIP3   OH269712   1.880   6.569   4.715 -0.0418 -0.0376  0.2326
16074TIP3    H169713   1.968   6.551   4.750  1.1967  0.6488 -2.2848
16074TIP3    H269714   1.874   6.665   4.716 -1.0776 -0.0992  1.0299
16075TIP3   OH269715   2.557   0.077   2.228  0.1071  0.2069  0.2853
16075TIP3    H169716   2.525   0.057   2.316 -0.6384  0.6318  0.1203
16075TIP3    H269717   2.650   0.097   2.240  1.0200 -3.4780  0.4344
16076TIP3   OH269718   2.210   1.850  11.367  0.2497 -0.3700 -0.3426
16076TIP3    H169719   2.289   1.829  11.317 -0.4748 -1.0949 -1.2099
16076TIP3    H269720   2.208   1.784  11.436  0.9030  0.2381  0.2808
16077TIP3   OH269721   5.242   6.542  12.693  0.0905 -0.2533 -0.2840
16077TIP3    H169722   5.295   6.462  12.693 -0.3596 -0.5617 -0.0593
16077TIP3    H269723   5.304   6.613  12.707  0.8061 -0.3531 -2.5243
16078TIP3   OH269724   3.231   2.263   5.777 -0.2070 -0.8521  0.1411
16078TIP3    H169725   3.258   2.171   5.780  0.7063 -0.5912  0.6087
16078TIP3    H269726   3.250   2.296   5.865  1.8170  0.3838 -0.6732
16079TIP3   OH269727   4.930   6.718   6.015  0.1577 -0.2286 -0.3321
16079TIP3    H169728   4.883   6.660   5.955  0.9693 -0.4636 -0.7655
16079TIP3    H269729   4.862   6.763   6.064 -0.5041 -1.7605  0.2284
16080TIP3   OH269730   3.624   0.005   0.122 -0.0407 -0.5681  0.1330
16080TIP3    H169731   3.564  -0.067   0.103 -0.6853 -0.3742  1.2959
16080TIP3    H269732   3.692  -0.035   0.178 -1.0049 -0.0852  1.7188
16081TIP3   OH269733   0.381   2.160   4.824 -0.0899  0.3656 -0.2281
16081TIP3    H169734   0.421   2.246   4.812 -1.4216  0.8676 -1.3327
16081TIP3    H269735   0.287   2.175   4.814 -0.4840 -0.9862  1.0465
16082TIP3   OH269736   1.937   5.306   6.213 -0.4555 -0.7766 -0.3286
16082TIP3    H169737   2.021   5.319   6.258 -0.5274 -1.1191 -0.0873
16082TIP3    H269738   1.881   5.265   6.279 -1.1563  0.4153 -0.1505
16083TIP3   OH269739   5.590   4.115  12.511 -0.6795 -0.6594 -0.6476
16083TIP3    H169740   5.660   4.130  12.574 -1.2220  2.0972 -0.5530
16083TIP3    H269741   5.511   4.104  12.564 -0.7857 -0.6599 -0.8051
16084TIP3   OH269742   6.306   4.609  16.143  0.2761  0.1716  0.2096
16084TIP3    H169743   6.316   4.593  16.237 -1.2201  2.2399  0.8047
16084TIP3    H269744   6.393   4.594  16.107  0.3008 -3.3738  1.4086
16085TIP3   OH269745   2.815   3.976  14.447 -0.0176  0.1791 -0.3812
16085TIP3    H169746   2.816   3.884  14.473 -0.1726 -0.4357 -2.4197
16085TIP3    H269747   2.733   3.986  14.399 -0.5175  1.6744  0.7174
16086TIP3   OH269748   1.185   4.772  17.037  0.0388  0.5979 -0.3528
16086TIP3    H169749   1.102   4.819  17.031  0.2197  0.7556 -2.4443
16086TIP3    H269750   1.170   4.703  17.101 -1.3624  1.2732  0.0765
16087TIP3   OH269751   4.587   1.109  11.657  0.5688 -0.2456  0.3556
16087TIP3    H169752   4.558   1.192  11.694  0.5064 -0.3232  0.4808
16087TIP3    H269753   4.512   1.051  11.669  0.4977 -0.2344 -0.0107
16088TIP3   OH269754   0.332   3.027   4.071  0.4141 -0.1593  0.8594
16088TIP3    H169755   0.378   3.011   4.154 -0.2566  0.4791  1.3698
16088TIP3    H269756   0.309   2.940   4.039 -0.3590 -0.3798  1.9554
16089TIP3   OH269757   4.208   4.783  13.137  0.1240 -0.2428 -0.0691
16089TIP3    H169758   4.179   4.794  13.228 -0.0146  0.2818 -0.1736
16089TIP3    H269759   4.301   4.806  13.138  0.6681 -2.2905  0.3384
16090TIP3   OH269760   5.171   2.902  16.613 -0.0337  0.4776  0.0539
16090TIP3    H169761   5.261   2.906  16.646 -0.2857  1.2859  0.6351
16090TIP3    H269762   5.182   2.899  16.517  0.5660  2.7231  0.0092
16091TIP3   OH269763   4.934   3.895  12.954 -0.5092  0.0940 -0.1695
16091TIP3    H169764   4.880   3.917  13.029  1.5265  0.5476  1.2431
16091TIP3    H269765   5.021   3.929  12.976  0.6374 -1.5631 -1.8143
16092TIP3   OH269766   6.405   1.017   0.248 -0.1488 -1.1358 -0.0021
16092TIP3    H169767   6.347   1.063   0.188  1.5710  1.3526  0.1037
16092TIP3    H269768   6.361   1.024   0.333 -0.3411 -0.4446 -0.1522
16093TIP3   OH269769   3.510   2.164   6.771 -0.4037  0.6653  0.7350
16093TIP3    H169770   3.534   2.233   6.832 -1.5107  1.2416  0.5399
16093TIP3    H269771   3.414   2.165   6.769 -0.4039  0.2386 -0.5274
16094TIP3   OH269772   1.500   6.165  11.876  0.4538 -0.1448  0.2789
16094TIP3    H169773   1.464   6.108  11.808  1.4052  0.3509 -0.6777
16094TIP3    H269774   1.550   6.106  11.932  1.1199 -0.3285 -0.4842
16095TIP3   OH269775   6.783   0.324  16.433 -0.2993 -0.1576  0.2060
16095TIP3    H169776   6.704   0.379  16.432  0.6400  1.2865  0.9580
16095TIP3    H269777   6.756   0.243  16.476 -1.7800 -0.3962 -1.0920
16096TIP3   OH269778   2.131   1.632   1.671 -0.0552  0.2732  0.5569
16096TIP3    H169779   2.154   1.672   1.587  0.1937  0.7564  0.8462
16096TIP3    H269780   2.053   1.580   1.653 -0.5588  1.1331  0.2311
16097TIP3   OH269781   4.500   6.564  10.926 -0.3467  0.2687  0.2578
16097TIP3    H169782   4.509   6.633  10.860 -0.1946  1.0986  1.1256
16097TIP3    H269783   4.579   6.512  10.916 -0.1126  0.6516  0.0724
16098TIP3   OH269784   0.259   5.403   5.268  0.0361 -0.1021 -0.2323
16098TIP3    H169785   0.257   5.499   5.276  1.5707 -0.1064  0.6526
16098TIP3    H269786   0.207   5.384   5.190  0.7989  1.5523 -1.1965
16099TIP3   OH269787   5.438   4.182   1.832  0.7341  0.1631 -0.4719
16099TIP3    H169788   5.525   4.190   1.792  0.0119 -1.7269 -2.6949
16099TIP3    H269789   5.387   4.252   1.792  0.5424 -0.4714 -1.3706
16100TIP3   OH269790   2.145   2.270  16.120 -0.7296 -0.2474  0.1060
16100TIP3    H169791   2.174   2.231  16.203 -0.2977 -0.5505 -0.1836
16100TIP3    H269792   2.121   2.196  16.065  0.6229 -0.1699 -0.6423
16101TIP3   OH269793   6.765   1.494  11.470  0.3015 -0.3795  0.2663
16101TIP3    H169794   6.719   1.567  11.429  1.8215  0.6605  0.3303
16101TIP3    H269795   6.696   1.432  11.493 -1.2948  1.8312  1.8885
16102TIP3   OH269796   6.406   1.807  15.262  0.1855  0.3878 -0.2370
16102TIP3    H169797   6.336   1.873  15.263  0.0141  0.2120 -0.5474
16102TIP3    H269798   6.389   1.753  15.338 -0.7730 -0.4365 -1.0197
16103TIP3   OH269799   0.128   3.389  14.718  0.4337  0.2860  0.2188
16103TIP3    H169800   0.199   3.382  14.655  0.4048 -3.3075  0.3869
16103TIP3    H269801   0.170   3.412  14.801  0.8250  2.0616 -0.4286
16104TIP3   OH269802   3.969   1.767   0.072 -0.0872  0.4190 -0.3020
16104TIP3    H169803   3.947   1.742   0.162  0.1726  1.1693 -0.0171
16104TIP3    H269804   3.935   1.696   0.018 -2.5476  1.1854  0.1521
16105TIP3   OH269805   4.082   4.767  13.852 -0.7863  0.6600  0.1083
16105TIP3    H169806   4.003   4.788  13.902 -1.2966 -1.8762  0.5347
16105TIP3    H269807   4.052   4.757  13.762 -0.9072  0.1040  0.2024
16106TIP3   OH269808   0.854   2.279   4.776  0.3632 -0.2658 -0.2939
16106TIP3    H169809   0.877   2.313   4.690  1.6813 -0.4766 -0.0532
16106TIP3    H269810   0.923   2.215   4.795  0.4409  0.2148  1.1638
16107TIP3   OH269811   6.151   3.878  13.075  0.0898 -0.1031  0.2444
16107TIP3    H169812   6.137   3.928  13.156 -2.1368 -0.4763  0.1402
16107TIP3    H269813   6.145   3.786  13.103 -0.1268 -0.2408 -0.2572
16108TIP3   OH269814   0.735   0.526   3.517  0.2844 -0.3482 -0.1127
16108TIP3    H169815   0.693   0.554   3.598 -0.9696 -1.1886 -0.4540
16108TIP3    H269816   0.759   0.608   3.473 -2.0334  0.2050 -0.4422
16109TIP3   OH269817   2.932   2.246   4.802  0.5009  0.3659 -0.0407
16109TIP3    H169818   3.005   2.299   4.770  0.2078  0.1432 -1.1522
16109TIP3    H269819   2.926   2.174   4.739  0.6593 -0.7903  1.2319
16110TIP3   OH269820   4.630   4.088   4.609  0.2762  0.0296 -0.2436
16110TIP3    H169821   4.632   4.144   4.686 -0.5852  2.5006 -1.8825
16110TIP3    H269822   4.537   4.070   4.594  0.3303  0.5282 -1.3078
16111TIP3   OH269823   2.041   2.359  10.721 -0.9419  0.5015 -0.2194
16111TIP3    H169824   2.132   2.383  10.737 -1.3373  1.4054  0.7447
16111TIP3    H269825   2.005   2.434  10.673 -0.3794 -1.1883 -3.6443
16112TIP3   OH269826   4.814   2.448  10.606  0.3023 -0.1816 -0.2067
16112TIP3    H169827   4.838   2.540  10.615  2.4213 -0.8072  1.2291
16112TIP3    H269828   4.770   2.426  10.688  0.2254 -0.5696 -0.3463
16113TIP3   OH269829   4.885   6.541  14.848  0.1811 -0.3379 -0.1899
16113TIP3    H169830   4.815   6.566  14.908  1.1172  0.8090  0.4668
16113TIP3    H269831   4.966   6.559  14.896  0.9561  0.0136 -1.5517
16114TIP3   OH269832   4.426   4.193   0.896  0.4306  0.0257  0.2803
16114TIP3    H169833   4.501   4.145   0.860 -1.4618 -2.6277 -0.4848
16114TIP3    H269834   4.407   4.149   0.978  0.0036  0.9964  0.7132
16115TIP3   OH269835   4.794   0.648  13.877  0.2253 -0.2932  0.0508
16115TIP3    H169836   4.745   0.592  13.937  3.2843 -1.7996  1.3555
16115TIP3    H269837   4.841   0.710  13.933 -1.0434  1.9645 -1.2195
16116TIP3   OH269838   0.063   4.724  12.558 -0.0746  0.3859  0.5151
16116TIP3    H169839   0.090   4.796  12.501 -0.4137 -0.4642 -0.7451
16116TIP3    H269840   0.085   4.645  12.509  1.0216 -0.4097  2.2149
16117TIP3   OH269841   4.665   2.347   5.806 -0.2957  0.3538  0.5212
16117TIP3    H169842   4.709   2.426   5.777  2.5308 -1.7274 -1.4689
16117TIP3    H269843   4.736   2.286   5.826 -2.2676 -2.3306 -0.0159
16118TIP3   OH269844   3.596   0.890  13.099  0.4814  0.0233  0.2040
16118TIP3    H169845   3.519   0.838  13.076  1.0798 -0.8029  0.0159
16118TIP3    H269846   3.566   0.981  13.097 -1.0312 -0.3689  2.1673
16119TIP3   OH269847   5.984   4.273  11.919  0.0260  0.3322 -0.3222
16119TIP3    H169848   6.035   4.256  11.999 -1.8096  1.7893  1.2561
16119TIP3    H269849   6.000   4.196  11.865  3.2492  0.3610  0.3486
16120TIP3   OH269850   2.289   6.166  11.270  0.2175 -0.1155  0.2141
16120TIP3    H169851   2.360   6.176  11.334  1.2364  0.3224 -0.9316
16120TIP3    H269852   2.267   6.073  11.273  1.8450 -0.5632 -0.4012
16121TIP3   OH269853   1.676   6.514   2.147 -0.3230  0.0859 -0.3772
16121TIP3    H169854   1.757   6.467   2.169 -1.8681 -2.0577  1.2198
16121TIP3    H269855   1.629   6.454   2.088 -0.4303  1.6895 -2.0291
16122TIP3   OH269856   6.163   4.557  12.199  0.3767  0.0649  0.0366
16122TIP3    H169857   6.121   4.476  12.227 -0.9237  1.1321  1.3464
16122TIP3    H269858   6.115   4.583  12.120 -2.5048  1.9276  2.1941
16123TIP3   OH269859   1.950   5.927   2.730  0.6878 -0.0996  0.1238
16123TIP3    H169860   2.038   5.934   2.694  0.7784  2.0589  0.5855
16123TIP3    H269861   1.915   5.846   2.694  1.2900  1.0988 -3.6047
16124TIP3   OH269862   5.874   1.092   1.313  0.0363  0.8165  0.1228
16124TIP3    H169863   5.955   1.046   1.336  1.0526  3.1715  1.5919
16124TIP3    H269864   5.825   1.029   1.260  1.4394 -1.8149  1.7515
16125TIP3   OH269865   5.836   2.584   5.655  0.2914  0.0386 -0.1844
16125TIP3    H169866   5.856   2.507   5.600 -1.0291 -2.4278  2.5165
16125TIP3    H269867   5.918   2.633   5.657  1.1922 -1.2490 -2.0384
16126TIP3   OH269868   3.783   4.927   0.569 -0.3860  0.1454 -0.3732
16126TIP3    H169869   3.856   4.904   0.512 -0.0858 -1.9384  0.7240
16126TIP3    H269870   3.708   4.879   0.533 -0.5039 -0.0927  0.1686
16127TIP3   OH269871   2.871   0.086  12.872 -0.3719  0.0515  0.0086
16127TIP3    H169872   2.843   0.137  12.796  0.9012  1.3137  0.3412
16127TIP3    H269873   2.790   0.071  12.922 -0.9875  0.4924 -0.8350
16128TIP3   OH269874   3.943   1.989   0.333 -0.5490 -0.1246 -0.3110
16128TIP3    H169875   4.031   2.020   0.355 -1.3811  2.7753 -0.6211
16128TIP3    H269876   3.925   1.919   0.396  1.1314  0.7283  1.2036
16129TIP3   OH269877   5.912   5.420   0.320  0.0252 -0.3332 -0.1330
16129TIP3    H169878   5.892   5.499   0.270 -1.8219 -1.3515 -1.1491
16129TIP3    H269879   5.994   5.388   0.283 -0.5692 -0.2839 -1.5535
16130TIP3   OH269880   2.239   0.590   2.668 -0.1433 -0.6312  0.1253
16130TIP3    H169881   2.328   0.574   2.637 -0.4211 -1.3053 -0.3595
16130TIP3    H269882   2.249   0.617   2.759  0.7032  1.3876 -0.5063
16131TIP3   OH269883   1.838   2.370   1.968 -0.6660  0.1323  0.6212
16131TIP3    H169884   1.897   2.445   1.979 -0.1508  0.3170 -2.4427
16131TIP3    H269885   1.756   2.398   2.009  0.5762  0.8523  2.7983
16132TIP3   OH269886   5.992   0.697   1.448  0.4147 -0.3890 -0.0063
16132TIP3    H169887   6.011   0.698   1.354  0.6044 -0.1296  0.0337
16132TIP3    H269888   6.047   0.626   1.482 -0.7362 -1.4667 -0.3078
16133TIP3   OH269889   3.496   1.178  12.251  0.2006  0.2395  0.3246
16133TIP3    H169890   3.533   1.161  12.338 -2.1615  0.5726  1.4849
16133TIP3    H269891   3.552   1.128  12.191  2.8377  1.2046  1.7978
16134TIP3   OH269892   5.463   6.588   3.746 -0.1348 -0.2452  0.4681
16134TIP3    H169893   5.495   6.569   3.658 -0.9041  0.6729 -0.0365
16134TIP3    H269894   5.514   6.664   3.774 -2.1381  1.5975 -0.5739
16135TIP3   OH269895   6.587   3.932   4.436 -0.1692  0.8661 -0.0458
16135TIP3    H169896   6.629   3.865   4.489 -2.3571 -1.4836 -1.0527
16135TIP3    H269897   6.622   3.918   4.348 -2.2670 -0.5860 -0.7284
16136TIP3   OH269898   0.898   1.233  16.776  0.0076  0.6713  0.4149
16136TIP3    H169899   0.819   1.195  16.815  0.4353  1.0710  1.7334
16136TIP3    H269900   0.869   1.267  16.691 -0.3942 -2.5043 -0.8496
16137TIP3   OH269901   3.011   6.484   2.314  0.0460  0.3110 -0.0911
16137TIP3    H169902   3.061   6.548   2.365 -0.0143  0.5283 -0.3050
16137TIP3    H269903   2.926   6.525   2.301 -0.3617 -0.2591  0.6779
16138TIP3   OH269904   2.378   0.793   2.902  0.0521  0.3665  0.5454
16138TIP3    H169905   2.447   0.847   2.940 -1.5120  1.0455  2.6588
16138TIP3    H269906   2.321   0.856   2.857  0.6266 -0.1419 -0.9161
16139TIP3   OH269907   4.472   5.668  14.072 -0.3482 -0.0210 -0.1782
16139TIP3    H169908   4.477   5.721  13.992 -0.1797  0.3969  0.1067
16139TIP3    H269909   4.383   5.633  14.072 -0.1945 -0.4348 -0.8054
16140TIP3   OH269910   3.045   2.023  15.535 -0.1163  0.6310 -0.3403
16140TIP3    H169911   3.089   2.062  15.460  0.3353  0.3478 -0.2228
16140TIP3    H269912   2.979   2.088  15.560  0.3751  1.1577 -0.3844
16141TIP3   OH269913   1.809   6.503  16.486  0.0073 -0.3189  0.1258
16141TIP3    H169914   1.886   6.447  16.474  1.2815  1.5119 -0.6264
16141TIP3    H269915   1.844   6.592  16.488 -1.9794  0.4997  1.0489
16142TIP3   OH269916   3.697   5.351  16.981  0.3390 -0.2394 -0.1681
16142TIP3    H169917   3.605   5.347  17.007 -0.0876  2.1253 -1.0913
16142TIP3    H269918   3.738   5.409  17.045  1.6090 -2.4323  1.1388
16143TIP3   OH269919   0.891   5.087  11.734  0.0552  0.2205  0.5134
16143TIP3    H169920   0.893   5.172  11.778 -2.3073  0.1312  0.9180
16143TIP3    H269921   0.899   5.023  11.804 -0.9409  0.1136  0.5491
16144TIP3   OH269922   1.897   3.645  12.489 -0.1265 -0.0188 -0.0587
16144TIP3    H169923   1.992   3.649  12.494 -0.2158  1.8161  1.2724
16144TIP3    H269924   1.869   3.621  12.578 -0.8863 -2.5294 -0.9059
16145TIP3   OH269925   5.540   6.538  16.888  0.7722 -0.6993 -0.3551
16145TIP3    H169926   5.512   6.451  16.861 -2.1087  0.1030 -0.3085
16145TIP3    H269927   5.601   6.523  16.961 -0.1853 -2.6609  0.1013
16146TIP3   OH269928   6.168   2.975   3.149 -0.8685 -0.2166  0.0320
16146TIP3    H169929   6.114   3.052   3.168 -2.1128 -0.7081 -1.3306
16146TIP3    H269930   6.115   2.922   3.090  0.8227 -1.0806 -0.8030
16147TIP3   OH269931   2.969   0.488  13.617 -0.0776  0.5802  0.1797
16147TIP3    H169932   3.006   0.443  13.694 -1.3875  1.3077  1.2968
16147TIP3    H269933   3.027   0.561  13.601  0.2065  0.4256  0.4933
16148TIP3   OH269934   0.927   3.492   3.039  0.0489 -0.3015  0.2386
16148TIP3    H169935   0.966   3.481   3.125  0.3744 -0.3364  0.0888
16148TIP3    H269936   0.960   3.419   2.987 -0.4213 -0.4808  0.1780
16149TIP3   OH269937   2.036   2.548  15.822  0.1539 -0.2941  0.4166
16149TIP3    H169938   2.121   2.590  15.812  0.0427 -0.2645 -0.4435
16149TIP3    H269939   1.974   2.620  15.824 -0.0554 -0.3819 -1.2473
16150TIP3   OH269940   5.355   4.736   4.525 -0.3466 -0.1496  0.1991
16150TIP3    H169941   5.347   4.782   4.442 -0.7649 -1.2411 -0.3815
16150TIP3    H269942   5.447   4.742   4.548 -0.0833 -0.4699 -0.7299
16151TIP3   OH269943   4.001   3.006   0.939  0.2158 -0.0707 -0.3492
16151TIP3    H169944   3.946   3.065   0.992  0.2418  0.6327 -1.0750
16151TIP3    H269945   3.958   3.006   0.853  0.8663 -0.2072 -0.6755
16152TIP3   OH269946   0.421   5.248  14.974 -0.2931 -0.4061 -0.0853
16152TIP3    H169947   0.511   5.230  15.001 -0.0876  1.6405  0.8239
16152TIP3    H269948   0.426   5.329  14.924 -1.5820 -0.4657 -0.3549
16153TIP3   OH269949   5.370   0.806   2.796  0.2774  0.1648  0.1790
16153TIP3    H169950   5.324   0.821   2.878 -1.2228  0.5052 -0.6948
16153TIP3    H269951   5.453   0.767   2.823 -0.6377 -0.7982  1.7896
16154TIP3   OH269952   4.715   2.603   3.848 -0.8978 -0.0721 -0.6159
16154TIP3    H169953   4.701   2.561   3.763 -0.9680 -0.2119 -0.5366
16154TIP3    H269954   4.739   2.693   3.827 -0.4244 -0.2393 -0.7956
16155TIP3   OH269955   4.274   5.620   2.946  0.2269 -0.5968 -0.0622
16155TIP3    H169956   4.289   5.533   2.909  0.3867 -0.3698 -0.5411
16155TIP3    H269957   4.257   5.604   3.039 -0.0091 -1.1624 -0.1946
16156TIP3   OH269958   3.371   1.723   2.069  0.3472  0.5651 -0.3550
16156TIP3    H169959   3.457   1.714   2.029  0.6074  1.1467  0.0629
16156TIP3    H269960   3.378   1.678   2.153 -0.0608 -0.2447 -0.7345
16157TIP3   OH269961   3.298   5.763   5.409  0.2737  0.2054 -0.0865
16157TIP3    H169962   3.238   5.762   5.484 -0.0598  0.2697 -0.3490
16157TIP3    H269963   3.267   5.836   5.355  2.3523  2.1574  1.1954
16158TIP3   OH269964   2.989   5.226   2.280  0.7461  0.1950  0.7391
16158TIP3    H169965   3.020   5.303   2.328  0.5666  0.3276  0.6424
16158TIP3    H269966   2.906   5.204   2.321  0.4281  0.5092  0.2739
16159TIP3   OH269967   2.353   2.010   4.174  0.0952 -0.3675  0.6367
16159TIP3    H169968   2.377   2.100   4.197  2.6316 -0.4729 -1.1620
16159TIP3    H269969   2.310   2.018   4.089  0.1761 -0.8268  0.5513
16160TIP3   OH269970   3.052   4.286  11.346  0.3982  0.0512 -0.4487
16160TIP3    H169971   3.052   4.247  11.259  0.3021  0.7151 -0.7461
16160TIP3    H269972   2.979   4.347  11.345  0.2697 -0.0826  0.1687
16161TIP3   OH269973   0.417   0.631   4.934 -0.6461  0.5385 -0.4863
16161TIP3    H169974   0.374   0.710   4.967 -0.0560  1.1905 -1.2300
16161TIP3    H269975   0.346   0.576   4.902 -0.9665  1.4289 -1.3489
16162TIP3   OH269976   0.641   3.696   6.104 -0.0788 -0.0593  0.6539
16162TIP3    H169977   0.647   3.789   6.083  3.4180 -0.5261 -1.1340
16162TIP3    H269978   0.715   3.680   6.164 -1.0200 -1.5912  1.4735
16163TIP3   OH269979   1.923   1.097  16.747  0.6015 -0.2912  0.4964
16163TIP3    H169980   2.011   1.091  16.709  0.4431  0.5730 -0.0331
16163TIP3    H269981   1.913   1.189  16.771 -0.7294 -0.0284 -0.9138
16164TIP3   OH269982   0.145   4.381  15.973  0.8009 -0.2891  0.2382
16164TIP3    H169983   0.142   4.373  15.878 -0.9176  3.0085 -0.1526
16164TIP3    H269984   0.209   4.451  15.989 -0.3253  0.5435  1.3088
16165TIP3   OH269985   1.415   0.811   3.592 -0.4606 -0.1338  0.3347
16165TIP3    H169986   1.400   0.826   3.685 -1.2851 -1.7998  0.5055
16165TIP3    H269987   1.510   0.800   3.584 -0.4493 -0.6892  1.1121
16166TIP3   OH269988   1.798   1.536   5.987  0.3436  0.0550  0.1332
16166TIP3    H169989   1.720   1.590   6.003  0.5954  0.6567 -0.6173
16166TIP3    H269990   1.860   1.565   6.054  0.5835  0.9238 -0.4550
16167TIP3   OH269991   5.668   6.013   2.727 -0.4349  0.3234  0.0431
16167TIP3    H169992   5.672   5.940   2.788 -1.4077  0.9885  0.9364
16167TIP3    H269993   5.657   6.091   2.782 -1.2699  0.9483 -0.9581
16168TIP3   OH269994   3.310   1.603  12.190 -0.4227  0.0443 -0.4394
16168TIP3    H169995   3.301   1.550  12.269  4.0051 -0.7254 -0.2342
16168TIP3    H269996   3.240   1.573  12.132 -1.0781 -2.5098  1.5300
16169TIP3   OH269997   5.686   1.768   1.403 -0.6146  0.3296  1.0284
16169TIP3    H169998   5.661   1.859   1.420  0.7466  0.6513  1.4103
16169TIP3    H269999   5.737   1.742   1.480  0.9104 -0.0055 -0.0403
16170TIP3   OH270000   2.182   0.939  13.459 -0.0341  0.3160  0.1179
16170TIP3    H170001   2.196   1.034  13.451 -0.5753  0.2733 -1.8102
16170TIP3    H270002   2.270   0.902  13.454  0.0392  0.6205 -1.5773
16171TIP3   OH270003   4.808   0.707  15.008  0.1308 -0.0288 -0.6958
16171TIP3    H170004   4.821   0.664  14.923 -2.1130 -2.5679  0.0819
16171TIP3    H270005   4.741   0.773  14.991  1.2111  0.9595 -1.2568
16172TIP3   OH270006   0.610   3.234  13.744  0.2152  0.1089 -0.0504
16172TIP3    H170007   0.673   3.258  13.676  0.5153 -0.6850 -0.0710
16172TIP3    H270008   0.622   3.139  13.755 -2.2472 -0.4292 -1.3561
16173TIP3   OH270009   2.316   5.935   5.463 -0.1350  0.7849  0.1339
16173TIP3    H170010   2.334   5.973   5.377  1.0055  0.7845  0.3569
16173TIP3    H270011   2.356   5.996   5.525  1.0564 -0.3587  0.5365
16174TIP3   OH270012   2.205   5.081  16.505 -0.4765 -0.2275  0.6623
16174TIP3    H170013   2.265   5.148  16.538 -1.1798  0.9258 -0.3188
16174TIP3    H270014   2.243   4.998  16.533  1.2372  0.5032  0.5796
16175TIP3   OH270015   5.071   0.995  16.913  0.3981  0.2644  0.3284
16175TIP3    H170016   5.141   0.949  16.867  0.6480 -0.9120  1.8127
16175TIP3    H270017   5.104   1.084  16.923  1.2737 -0.0289  0.1641
16176TIP3   OH270018   4.608   1.535   1.026  0.2763  0.2123  0.0991
16176TIP3    H170019   4.622   1.629   1.031 -0.5751  0.3050  1.2399
16176TIP3    H270020   4.520   1.525   0.989  0.5275 -0.1400 -0.4042
16177TIP3   OH270021   4.348   2.982   5.643 -0.3198  0.3075  0.3050
16177TIP3    H170022   4.406   2.958   5.715 -0.2316 -0.6861 -0.0830
16177TIP3    H270023   4.405   2.991   5.567 -0.4983  0.6960  0.2142
16178TIP3   OH270024   5.754   5.330  17.119  0.5710 -0.5786  0.1943
16178TIP3    H170025   5.719   5.396  17.177  0.7875  0.0306 -0.3561
16178TIP3    H270026   5.837   5.304  17.159  0.5110 -0.4808  0.3808
16179TIP3   OH270027   0.498   3.095  10.587  0.0636 -0.4179  1.3529
16179TIP3    H170028   0.545   3.162  10.537 -0.7057 -1.4191 -0.8519
16179TIP3    H270029   0.551   3.016  10.577 -1.1355 -1.1344  0.3097
16180TIP3   OH270030   0.683   6.262  12.472 -0.2982 -0.1196 -0.1350
16180TIP3    H170031   0.773   6.243  12.499 -0.1087  1.3135  0.3475
16180TIP3    H270032   0.635   6.268  12.554 -0.5703  0.3242 -0.3255
16181TIP3   OH270033   3.200   0.158   0.338  0.3009  0.3669  0.5265
16181TIP3    H170034   3.193   0.222   0.409 -1.4272 -0.2109  0.9421
16181TIP3    H270035   3.278   0.108   0.358  0.3324  0.7896  1.5417
16182TIP3   OH270036   1.873   3.367   0.729  0.0576 -0.5281  0.6999
16182TIP3    H170037   1.784   3.334   0.719  0.7038 -1.4743 -3.7605
16182TIP3    H270038   1.925   3.291   0.753  0.2388 -1.0076 -1.0689
16183TIP3   OH270039   4.759   0.477   2.401  0.0041  0.0950 -0.3235
16183TIP3    H170040   4.695   0.431   2.457  0.6639 -0.1600  0.2412
16183TIP3    H270041   4.708   0.507   2.326 -0.8908  0.3701  0.3766
16184TIP3   OH270042   0.687   1.969   4.485 -0.1551 -0.1934 -0.5922
16184TIP3    H170043   0.595   1.950   4.466 -0.0962 -0.9104 -0.2072
16184TIP3    H270044   0.703   2.053   4.443 -1.4114  0.6840  0.5925
16185TIP3   OH270045   5.670   6.091  14.708  0.2994 -0.1709  0.5164
16185TIP3    H170046   5.618   6.111  14.629 -1.2252  3.0143  2.1226
16185TIP3    H270047   5.625   6.017  14.748  0.2514 -0.9131 -0.8495
16186TIP3   OH270048   0.592   0.072   5.670  0.4177  0.0134 -0.3818
16186TIP3    H170049   0.552   0.154   5.641 -0.0141  0.1664  0.5981
16186TIP3    H270050   0.635   0.095   5.753  0.6947 -0.6416 -0.3394
16187TIP3   OH270051   3.005   0.238   0.989  0.2961  0.3382 -0.5651
16187TIP3    H170052   2.997   0.306   1.056  1.3068  0.9824 -1.0770
16187TIP3    H270053   2.998   0.285   0.906  1.3500 -0.1174 -0.9312
16188TIP3   OH270054   3.918   0.893   1.956  0.0990  0.2062 -0.1896
16188TIP3    H170055   3.893   0.806   1.923 -0.2300  0.4166 -0.5076
16188TIP3    H270056   3.939   0.879   2.048  0.9309 -0.3794 -0.4615
16189TIP3   OH270057   1.085   6.033   5.505 -0.2176 -0.2417  0.1407
16189TIP3    H170058   1.150   6.097   5.475  0.7578 -1.4918 -0.5715
16189TIP3    H270059   1.007   6.084   5.524 -0.0386  0.9916 -2.0477
16190TIP3   OH270060   4.736   0.654  11.654  0.2081  0.2595 -0.5170
16190TIP3    H170061   4.765   0.578  11.603  1.1505  1.0369 -1.1823
16190TIP3    H270062   4.812   0.678  11.706 -0.3092  0.3400  0.2150
16191TIP3   OH270063   3.173   0.229  15.951  0.3461 -0.1229 -0.7656
16191TIP3    H170064   3.243   0.252  16.013 -3.1248 -0.1570  3.7188
16191TIP3    H270065   3.168   0.133  15.957 -1.2813  0.0056  0.6607
16192TIP3   OH270066   0.072   4.282   0.932  0.1528 -0.5862 -0.1034
16192TIP3    H170067   0.158   4.283   0.974  0.0855  0.7531  0.0477
16192TIP3    H270068   0.034   4.367   0.953 -1.0245 -0.9767 -0.5611
16193TIP3   OH270069   5.633   6.730   3.228  0.7343  0.5316 -0.2635
16193TIP3    H170070   5.670   6.818   3.231 -1.2588  1.3837  1.2839
16193TIP3    H270071   5.559   6.737   3.168  1.7681 -0.6699 -1.7759
16194TIP3   OH270072   3.744   6.811  16.936 -0.8530  0.1518  0.2970
16194TIP3    H170073   3.775   6.732  16.980 -2.6547 -0.2716  0.9237
16194TIP3    H270074   3.821   6.868  16.930 -0.2070 -0.3324  2.7992
16195TIP3   OH270075   3.802   0.925  13.793 -0.7309 -0.0058  0.1802
16195TIP3    H170076   3.842   0.838  13.784  0.0973  0.3348  0.4350
16195TIP3    H270077   3.848   0.965  13.866 -1.7411  0.3140  0.6633
16196TIP3   OH270078   2.513   6.293   5.300 -0.1483  0.0166 -0.3925
16196TIP3    H170079   2.514   6.321   5.209  0.3629 -0.2682 -0.4751
16196TIP3    H270080   2.479   6.203   5.297  0.8355 -0.3655 -0.4131
16197TIP3   OH270081   0.069   2.641  11.193  0.3048  0.0726 -0.7680
16197TIP3    H170082   0.097   2.691  11.269  1.1671 -2.2457  0.5509
16197TIP3    H270083   0.013   2.572  11.229  0.0550 -0.5845 -2.3276
16198TIP3   OH270084   5.241   1.589   5.915 -0.1739 -0.4457 -0.2888
16198TIP3    H170085   5.229   1.676   5.955  0.4261 -0.3974 -0.1977
16198TIP3    H270086   5.163   1.541   5.940  0.1077 -0.3639  0.8363
16199TIP3   OH270087   1.322   2.506  12.993 -0.2214 -0.1448  0.1003
16199TIP3    H170088   1.342   2.593  12.960 -1.1797  0.6326  1.4526
16199TIP3    H270089   1.344   2.447  12.921  1.9489  1.0378 -0.2922
16200TIP3   OH270090   2.784   0.003   5.744  0.0320 -0.4607  0.3155
16200TIP3    H170091   2.800   0.009   5.838  1.9746 -0.6693  0.0507
16200TIP3    H270092   2.780  -0.091   5.726 -0.0288 -0.4284  0.1604
16201TIP3   OH270093   0.981   4.492  13.962  0.9131  0.7187  0.0327
16201TIP3    H170094   1.042   4.532  13.900  0.8502  3.4169  1.5514
16201TIP3    H270095   0.894   4.521  13.932  0.5539 -0.8160 -0.5218
16202TIP3   OH270096   6.250   5.830  15.836 -0.8218  0.3395 -0.4099
16202TIP3    H170097   6.282   5.920  15.832 -1.6295  0.6416 -0.3051
16202TIP3    H270098   6.240   5.812  15.929  1.8482 -0.7987 -0.2659
16203TIP3   OH270099   4.378   0.863   4.988 -0.1617 -0.7736 -0.4121
16203TIP3    H170100   4.452   0.812   5.019  0.2562 -0.7082 -1.2585
16203TIP3    H270101   4.415   0.922   4.923 -0.4707  1.3386  1.2525
16204TIP3   OH270102   1.203   5.117   2.299  0.3883 -0.2075 -0.2526
16204TIP3    H170103   1.271   5.168   2.343 -0.4759  0.3633  0.4466
16204TIP3    H270104   1.197   5.035   2.349 -0.8355  0.5821  0.9621
16205TIP3   OH270105   3.531   1.902  16.749  0.0408  0.4723 -0.3781
16205TIP3    H170106   3.586   1.947  16.813 -0.1350 -1.4109  1.1837
16205TIP3    H270107   3.464   1.966  16.725 -1.6498  0.4761  3.5612
16206TIP3   OH270108   3.147   6.361   5.196 -0.3478 -0.4526  0.0913
16206TIP3    H170109   3.082   6.297   5.167  0.3401 -1.3208  0.4023
16206TIP3    H270110   3.103   6.410   5.265 -0.7466 -0.9022  0.1668
16207TIP3   OH270111   4.775   3.016   2.680  0.8518 -0.6791 -0.0588
16207TIP3    H170112   4.744   3.075   2.611  1.2383 -1.4028 -0.8735
16207TIP3    H270113   4.822   3.072   2.741 -0.2493  0.1133  0.0964
16208TIP3   OH270114   6.426   2.689   3.805  0.2350  0.1685 -0.0946
16208TIP3    H170115   6.354   2.628   3.820  1.2391 -1.9332 -2.9921
16208TIP3    H270116   6.385   2.764   3.761 -0.5805  0.4238  1.0370
16209TIP3   OH270117   5.900   5.827  14.060 -0.1393 -0.2350 -0.6590
16209TIP3    H170118   5.826   5.888  14.064 -1.4174 -1.6084 -2.1970
16209TIP3    H270119   5.867   5.752  14.012  1.4325 -2.1375  1.0704
16210TIP3   OH270120   5.106   4.321   3.901 -0.1492 -0.2573  0.5445
16210TIP3    H170121   5.177   4.282   3.951 -0.6039  0.5555  1.8824
16210TIP3    H270122   5.043   4.351   3.967  0.1779  2.7371 -0.3599
16211TIP3   OH270123   4.497   1.774  12.056 -0.2903 -0.2205 -0.0281
16211TIP3    H170124   4.523   1.824  11.980  0.0217  1.3284  1.0524
16211TIP3    H270125   4.578   1.760  12.105 -0.6325 -0.3323  0.5169
16212TIP3   OH270126   5.828   0.258  11.630 -0.3662  0.3753  0.5887
16212TIP3    H170127   5.797   0.342  11.664  0.2849  0.1852  1.7090
16212TIP3    H270128   5.751   0.202  11.629 -0.6984  0.8310  0.3200
16213TIP3   OH270129   2.405   6.700   3.584 -0.1732 -0.4934  0.0664
16213TIP3    H170130   2.500   6.694   3.575 -0.0134  1.0496  0.4841
16213TIP3    H270131   2.391   6.721   3.676 -0.7372  1.7666 -0.4592
16214TIP3   OH270132   1.177   2.295   3.979 -0.0943 -0.6978  0.0048
16214TIP3    H170133   1.147   2.324   4.066 -1.0161  2.1301 -1.1333
16214TIP3    H270134   1.097   2.282   3.929  0.4304 -2.4495 -0.4212
16215TIP3   OH270135   1.724   2.081   2.975 -0.0231  0.1040 -0.0919
16215TIP3    H170136   1.716   2.084   2.879  0.7569 -0.0392 -0.1636
16215TIP3    H270137   1.802   2.133   2.994 -0.0549 -0.0471  0.4501
16216TIP3   OH270138   4.088   1.906  16.276 -0.2245  0.0408 -0.0057
16216TIP3    H170139   4.059   1.909  16.367  0.8716  1.2556  0.3471
16216TIP3    H270140   4.165   1.850  16.278 -1.1595 -1.3079 -0.5177
16217TIP3   OH270141   5.997   1.951  11.922  0.6609  0.0964 -0.4361
16217TIP3    H170142   6.034   1.982  11.840  1.2891  1.8213  0.4483
16217TIP3    H270143   5.950   2.026  11.958 -1.1136 -1.1447 -0.0237
16218TIP3   OH270144   3.204   2.136   3.155  1.1982 -0.3379  0.3812
16218TIP3    H170145   3.195   2.048   3.190  0.6681 -0.3489  0.2186
16218TIP3    H270146   3.251   2.125   3.073  1.4647 -0.4273  0.5442
16219TIP3   OH270147   4.950   2.891   1.855 -0.3055  0.0259 -0.1364
16219TIP3    H170148   4.972   2.959   1.791 -0.1682 -1.2000 -1.4359
16219TIP3    H270149   4.867   2.919   1.892  0.8253  2.0793  1.0679
16220TIP3   OH270150   5.041   4.059   3.383  0.4602 -0.1401  0.0160
16220TIP3    H170151   5.062   4.153   3.387  0.3107 -0.1063  0.0078
16220TIP3    H270152   5.118   4.019   3.343  0.7219 -0.0817  0.4580
16221TIP3   OH270153   5.594   0.587  12.422  0.4869  0.4537 -0.1833
16221TIP3    H170154   5.613   0.680  12.412  0.4688  0.7790  2.3131
16221TIP3    H270155   5.503   0.585  12.453  0.2339 -0.4537 -0.9473
16222TIP3   OH270156   4.910   3.073   5.049  0.3966 -0.2537  0.1600
16222TIP3    H170157   4.932   3.165   5.060  0.0986 -0.2196  0.4925
16222TIP3    H270158   4.830   3.061   5.101 -0.0889 -0.4898 -0.6176
16223TIP3   OH270159   4.169   0.283  15.650  0.6158  0.0460  0.1369
16223TIP3    H170160   4.132   0.285  15.738  1.7015  0.5208  0.6086
16223TIP3    H270161   4.113   0.341  15.598 -0.1407 -0.3847  0.4697
16224TIP3   OH270162   1.786   0.426  13.797 -0.5136 -0.7838 -0.1610
16224TIP3    H170163   1.693   0.407  13.784 -0.2737 -1.6357 -0.7414
16224TIP3    H270164   1.796   0.516  13.766 -1.1864 -0.6035  0.1255
16225TIP3   OH270165   0.151   0.968  15.449 -0.0608 -0.5659 -0.3478
16225TIP3    H170166   0.227   1.024  15.468  1.5958 -3.2051  1.4683
16225TIP3    H270167   0.101   0.968  15.531 -1.1181 -0.2467 -0.9721
16226TIP3   OH270168   3.427   3.861   0.589 -0.2589  0.6426  0.1286
16226TIP3    H170169   3.484   3.784   0.588 -0.6387  0.3508  0.4412
16226TIP3    H270170   3.341   3.826   0.614  0.0133  1.4619  2.4028
16227TIP3   OH270171   6.700   0.576   2.242 -0.2714 -0.2098 -0.2432
16227TIP3    H170172   6.781   0.588   2.191  0.3124  0.8948  0.8766
16227TIP3    H270173   6.656   0.502   2.200 -0.4995  1.4413 -3.1935
16228TIP3   OH270174   0.276   4.168  14.584 -0.2344  0.0981  0.2244
16228TIP3    H170175   0.245   4.247  14.540  0.6953  0.2229 -0.2453
16228TIP3    H270176   0.355   4.143  14.535  0.2912 -0.3044  1.2393
16229TIP3   OH270177   6.474   6.802   4.860  0.0372  0.9469 -0.4549
16229TIP3    H170178   6.403   6.864   4.876 -1.0259 -0.3088 -0.1454
16229TIP3    H270179   6.487   6.758   4.944 -0.5268 -0.5506 -1.1291
16230TIP3   OH270180   4.763   6.167   1.695  0.3389  0.3953  0.4749
16230TIP3    H170181   4.702   6.235   1.666  1.2465  0.0593 -2.5702
16230TIP3    H270182   4.833   6.216   1.739  0.1377  1.2585 -0.1388
16231TIP3   OH270183   3.691   4.649   1.874 -0.7435 -0.0928 -0.9198
16231TIP3    H170184   3.627   4.624   1.940  1.1002  0.7198  1.3088
16231TIP3    H270185   3.678   4.743   1.861  1.2784  0.5756  1.2066
16232TIP3   OH270186   3.652   4.689   0.023 -0.4511  0.3901 -0.4259
16232TIP3    H170187   3.594   4.629   0.069  0.4134  0.0379  0.2231
16232TIP3    H270188   3.620   4.777   0.046 -0.9364  0.1985 -0.3668
16233TIP3   OH270189   1.624   4.313   0.036  0.4474  0.0228  0.4321
16233TIP3    H170190   1.626   4.226   0.076  1.4017  0.2613  0.9191
16233TIP3    H270191   1.587   4.298  -0.051 -2.3153 -0.4217  1.5633
16234TIP3   OH270192   5.001   2.803  16.845  0.4066  0.0816  0.0956
16234TIP3    H170193   5.049   2.813  16.763  0.9850  0.0505  0.4267
16234TIP3    H270194   5.025   2.715  16.876 -2.2792 -1.2478 -1.2870
16235TIP3   OH270195   6.568   2.846  12.694  0.3571 -0.5195  0.3418
16235TIP3    H170196   6.478   2.828  12.668  0.8731 -2.6423 -0.2149
16235TIP3    H270197   6.560   2.896  12.775 -1.2878  1.8498 -1.1797
16236TIP3   OH270198   4.980   3.037   5.353 -0.2078 -0.0664  0.0681
16236TIP3    H170199   4.998   3.099   5.284 -1.4526 -0.7525 -0.9233
16236TIP3    H270200   4.982   3.089   5.434 -1.9254  1.4183 -0.7860
16237TIP3   OH270201   0.446   4.522   4.985  0.0978 -0.4883  0.0807
16237TIP3    H170202   0.421   4.605   4.945 -0.0094  0.1471  1.4021
16237TIP3    H270203   0.364   4.481   5.012  0.2291 -0.1691  1.0240
16238TIP3   OH270204   5.634   0.037  10.828  0.0337 -0.7881  0.4107
16238TIP3    H170205   5.566  -0.019  10.865 -1.1974  1.4235  1.7035
16238TIP3    H270206   5.682   0.070  10.904  1.8728 -1.4087 -0.4276
16239TIP3   OH270207   2.671   4.377  10.431  0.0028 -0.1178  0.1354
16239TIP3    H170208   2.660   4.439  10.359 -0.7752 -1.8682 -1.3636
16239TIP3    H270209   2.750   4.406  10.476  0.5004  1.0854 -1.4042
16240TIP3   OH270210   1.816   5.985  13.855 -0.3849 -0.5626 -0.2618
16240TIP3    H170211   1.836   5.893  13.875 -1.3210 -0.5965  0.6151
16240TIP3    H270212   1.792   5.984  13.762 -0.5047 -1.2392 -0.2337
16241TIP3   OH270213   6.379   0.517  15.740  0.1807  0.0741 -0.5351
16241TIP3    H170214   6.359   0.609  15.727  1.6010  0.6641  1.0251
16241TIP3    H270215   6.474   0.512  15.730  0.2512 -1.0042  0.4807
16242TIP3   OH270216   2.623   2.677   2.016 -0.1906 -0.4147 -0.2552
16242TIP3    H170217   2.590   2.757   1.976  0.8345  0.8026  1.2225
16242TIP3    H270218   2.587   2.679   2.105  2.9724  0.5103  1.1236
16243TIP3   OH270219   0.937   4.829  12.968 -0.1473  0.7198 -0.5911
16243TIP3    H170220   0.865   4.891  12.980  0.6637  1.8073 -1.1661
16243TIP3    H270221   1.005   4.880  12.924  1.4107  0.0215  0.9224
16244TIP3   OH270222   0.006   2.931  14.234 -0.2987  0.3003  0.0446
16244TIP3    H170223  -0.088   2.918  14.219 -0.6940  1.7863  1.0094
16244TIP3    H270224   0.036   2.979  14.157  0.1902 -2.0226 -1.3135
16245TIP3   OH270225   2.788   3.495  16.532 -0.2126 -0.9516 -0.2558
16245TIP3    H170226   2.740   3.445  16.467 -0.6952 -2.4726  1.2019
16245TIP3    H270227   2.732   3.496  16.609  0.5928  0.2952  0.3645
16246TIP3   OH270228   1.552   6.441  16.503 -0.2303  0.2466 -0.9406
16246TIP3    H170229   1.574   6.355  16.538  1.3637  0.6774 -0.7934
16246TIP3    H270230   1.635   6.475  16.470 -0.8250  1.7250 -0.9873
16247TIP3   OH270231   5.822   5.662  13.485 -0.0149  0.7729  0.5861
16247TIP3    H170232   5.835   5.708  13.402  1.8114 -0.0513  0.3553
16247TIP3    H270233   5.910   5.654  13.522 -0.7999  1.2037  2.6761
16248TIP3   OH270234   3.719   0.574   5.962  0.1828 -0.1516 -0.9643
16248TIP3    H170235   3.679   0.597   6.046  2.9548 -3.3044  1.5101
16248TIP3    H270236   3.787   0.641   5.950 -0.6273  0.6730 -1.0537
16249TIP3   OH270237   2.053   1.601   1.311  0.0927 -0.2052 -0.2856
16249TIP3    H170238   2.085   1.571   1.226  0.3260 -1.1052  0.1099
16249TIP3    H270239   2.020   1.522   1.354  1.3329 -0.0515  1.0497
16250TIP3   OH270240   1.095   4.181   4.718  0.6768  0.1430  0.2348
16250TIP3    H170241   1.045   4.198   4.798 -0.5050 -0.3670 -0.3627
16250TIP3    H270242   1.187   4.184   4.745  0.2872 -1.4009  1.9213
16251TIP3   OH270243   2.130   3.051  11.116  0.0462 -0.7923 -0.0938
16251TIP3    H170244   2.079   2.975  11.143 -1.4491  0.7242  1.6574
16251TIP3    H270245   2.117   3.115  11.187 -1.5815  2.3752 -2.9575
16252TIP3   OH270246   6.321   5.199  11.672 -0.1072 -0.6190  0.7315
16252TIP3    H170247   6.273   5.272  11.712 -0.9987  0.2281 -1.7221
16252TIP3    H270248   6.406   5.200  11.715  0.2254  2.4586  0.2090
16253TIP3   OH270249   1.508   3.533  14.893 -0.0139 -0.2617 -0.3766
16253TIP3    H170250   1.467   3.578  14.819 -0.5297 -0.1275 -0.0169
16253TIP3    H270251   1.566   3.468  14.853  0.5127  0.5159 -0.9054
16254TIP3   OH270252   3.164   3.154  14.845  0.0864 -0.0025  0.5853
16254TIP3    H170253   3.157   3.059  14.849 -1.6132  0.0204 -0.9471
16254TIP3    H270254   3.092   3.182  14.789  0.5135  2.2085  1.0348
16255TIP3   OH270255   5.273   3.581  13.892 -0.0897 -0.1131 -0.3076
16255TIP3    H170256   5.228   3.499  13.871  0.4815 -1.2262  2.4776
16255TIP3    H270257   5.359   3.555  13.922 -0.7289  1.1874  3.0906
16256TIP3   OH270258   5.707   5.568  11.675 -0.0409 -0.1991  0.2857
16256TIP3    H170259   5.725   5.479  11.644  0.9465 -0.3132  1.1231
16256TIP3    H270260   5.643   5.603  11.613  2.0142 -0.3087 -2.0302
16257TIP3   OH270261   2.050   0.091   5.979 -0.2060 -0.0685 -0.1193
16257TIP3    H170262   1.966   0.135   5.964 -1.4473 -0.1525  4.8695
16257TIP3    H270263   2.026   0.002   6.004  1.1596  0.2421  2.6214
16258TIP3   OH270264   4.235   2.884  11.809  0.3076 -0.2661  0.4418
16258TIP3    H170265   4.319   2.870  11.853 -0.1064 -0.7673  1.0932
16258TIP3    H270266   4.242   2.836  11.727  0.6969 -0.2092  0.4369
16259TIP3   OH270267   5.353   1.036   2.091 -1.2439  1.0990 -0.2046
16259TIP3    H170268   5.405   1.091   2.149  0.8959 -0.1093 -0.8497
16259TIP3    H270269   5.364   1.075   2.004  0.2280 -0.1914 -0.6545
16260TIP3   OH270270   0.004   5.934   3.846 -0.1509 -0.1016  0.1973
16260TIP3    H170271   0.086   5.889   3.865  0.2237  1.0525  1.4849
16260TIP3    H270272  -0.021   5.975   3.929  0.2692  3.1600 -1.1320
16261TIP3   OH270273   1.076   3.801   4.261 -0.7870  0.1062  0.0105
16261TIP3    H170274   0.999   3.821   4.209 -0.7789  0.1037 -0.0024
16261TIP3    H270275   1.106   3.887   4.293  0.0476  0.2747 -1.1717
16262TIP3   OH270276   0.952   5.038   1.811  0.2802  0.5073 -0.1271
16262TIP3    H170277   0.964   5.058   1.904 -0.9420 -0.7305  0.3175
16262TIP3    H270278   0.871   4.988   1.807 -0.2730  1.4519 -2.0032
16263TIP3   OH270279   4.775   5.553  16.913  0.0689  0.2587 -0.2612
16263TIP3    H170280   4.696   5.568  16.965 -1.4736  0.2283 -2.4568
16263TIP3    H270281   4.794   5.638  16.874  1.3398  0.3337  0.4527
16264TIP3   OH270282   0.185   5.155   5.094  0.2659 -0.2889  0.1448
16264TIP3    H170283   0.228   5.107   5.165  0.6641  0.9200  0.7529
16264TIP3    H270284   0.246   5.150   5.021  0.5481 -0.2594  0.3738
16265TIP3   OH270285   4.810   2.572  13.442  0.4440 -0.4906  0.7446
16265TIP3    H170286   4.847   2.639  13.385  1.6499 -0.4409  1.5642
16265TIP3    H270287   4.809   2.612  13.529 -1.0078 -0.7081  0.8663
16266TIP3   OH270288   5.647   1.948  13.735  0.4710 -0.2865 -0.1767
16266TIP3    H170289   5.714   1.988  13.790  0.0503  0.1989 -0.0112
16266TIP3    H270290   5.580   1.919  13.797 -0.8735  1.8695 -0.5109
16267TIP3   OH270291   0.010   3.003   2.604 -0.1856  1.0272  0.0679
16267TIP3    H170292   0.064   3.076   2.634  1.4113  0.3700 -1.0462
16267TIP3    H270293   0.065   2.957   2.540 -1.7568 -0.2023 -0.4765
16268TIP3   OH270294   6.403   5.006  16.866  0.1791  0.2189 -0.2807
16268TIP3    H170295   6.322   4.976  16.906  0.3855 -1.0737 -0.7727
16268TIP3    H270296   6.468   4.939  16.889  1.0556  1.1088 -0.0900
16269TIP3   OH270297   5.395   3.095   3.009 -0.2315  0.6830 -0.0654
16269TIP3    H170298   5.405   3.135   3.095  3.0485 -0.4469  0.2445
16269TIP3    H270299   5.472   3.125   2.960 -1.6019  0.6694 -2.3627
16270TIP3   OH270300   4.015   4.322   5.002 -0.0220  0.4196 -0.2439
16270TIP3    H170301   4.019   4.350   5.093  0.1387 -0.1949 -0.0583
16270TIP3    H270302   3.938   4.265   4.998  0.8562 -0.8079 -0.1312
16271TIP3   OH270303   0.379   0.745   5.702 -0.2528 -0.0305 -0.2545
16271TIP3    H170304   0.360   0.809   5.633  0.1717  0.7064  0.2968
16271TIP3    H270305   0.463   0.707   5.677  0.3478  0.8861  0.3031
16272TIP3   OH270306   0.867   2.550  10.842  0.0188  0.2933 -0.6801
16272TIP3    H170307   0.815   2.587  10.770 -1.4738 -0.9074 -0.2838
16272TIP3    H270308   0.935   2.498  10.798 -0.2027  0.4570 -1.2263
16273TIP3   OH270309   6.619   1.459   5.058 -0.1110 -0.5373 -0.0398
16273TIP3    H170310   6.664   1.411   4.988 -0.1115  0.2455 -0.5940
16273TIP3    H270311   6.626   1.550   5.032 -0.7718 -0.2949  0.6090
16274TIP3   OH270312   1.911   3.901  16.781 -0.2165  0.1981  0.0385
16274TIP3    H170313   1.984   3.850  16.745 -0.2752  0.2872 -0.2104
16274TIP3    H270314   1.835   3.844  16.774 -0.2081  0.1778  0.1149
16275TIP3   OH270315   5.093   2.073  12.994  0.0212 -0.2015 -0.2867
16275TIP3    H170316   5.031   2.145  12.988  0.2511  0.0214 -0.0152
16275TIP3    H270317   5.166   2.100  12.937  0.6977  0.3876  0.8313
16276TIP3   OH270318   4.739   2.782   5.035  0.0219  0.2915  0.4688
16276TIP3    H170319   4.699   2.867   5.053  0.0404  1.3110 -3.4261
16276TIP3    H270320   4.667   2.719   5.041 -0.2220  0.6947  2.2380
16277TIP3   OH270321   5.359   5.881  16.896  0.2882 -0.1877 -0.7758
16277TIP3    H170322   5.435   5.824  16.883  1.8189  0.8582  2.3665
16277TIP3    H270323   5.356   5.935  16.817  0.3305 -2.8358 -2.6922
16278TIP3   OH270324   4.210   5.052   5.213  0.0828  0.7457 -0.1552
16278TIP3    H170325   4.123   5.016   5.203  0.5494  0.0235 -2.3047
16278TIP3    H270326   4.259   4.987   5.263 -0.5458  1.0927  0.9349
16279TIP3   OH270327   2.732   6.722  10.878  0.3336  0.0124 -0.1453
16279TIP3    H170328   2.743   6.787  10.808 -1.2081 -0.4811 -0.8724
16279TIP3    H270329   2.684   6.769  10.946  1.5030  0.3793  0.4572
16280TIP3   OH270330   4.768   6.393   1.269 -0.3368  0.4571  0.0556
16280TIP3    H170331   4.691   6.342   1.294 -1.0636 -1.0829 -4.4517
16280TIP3    H270332   4.842   6.335   1.282 -0.7038 -0.3313 -1.2117
16281TIP3   OH270333   2.575   4.006   4.692  0.0328 -0.5079 -0.2900
16281TIP3    H170334   2.555   3.947   4.764  0.0807 -0.9181 -0.6068
16281TIP3    H270335   2.500   4.065   4.688  0.5941  0.3056  0.8707
16282TIP3   OH270336   3.823   2.380  11.348  0.2285 -0.2403 -0.2477
16282TIP3    H170337   3.876   2.449  11.388  0.7954 -0.5246 -0.4847
16282TIP3    H270338   3.886   2.330  11.296 -0.3990 -0.2021 -1.0531
16283TIP3   OH270339   3.014   1.776  14.116 -0.4812  0.2587  0.4372
16283TIP3    H170340   2.994   1.746  14.027 -2.0702  0.8828  0.5515
16283TIP3    H270341   2.934   1.818  14.146  0.5225  1.4486  1.6008
16284TIP3   OH270342   5.400   3.267  12.413 -0.4527 -0.0529 -0.1595
16284TIP3    H170343   5.333   3.327  12.381 -0.7614  0.7349  1.8038
16284TIP3    H270344   5.478   3.322  12.423  0.1394 -0.6769 -1.1916
16285TIP3   OH270345   6.285   5.830   0.157 -0.2731 -0.2861  0.1663
16285TIP3    H170346   6.364   5.833   0.103 -1.1041  0.6675 -1.0303
16285TIP3    H270347   6.310   5.874   0.239  0.4091  0.0601 -0.2192
16286TIP3   OH270348   1.473   1.669  16.038  0.5246 -0.2857  0.2939
16286TIP3    H170349   1.444   1.734  16.102  0.1398  0.4309 -0.5880
16286TIP3    H270350   1.533   1.613  16.087 -0.6197 -0.4544  1.5928
16287TIP3   OH270351   1.718   0.511  15.359 -0.0623  0.2960 -0.1341
16287TIP3    H170352   1.668   0.586  15.392 -0.3752 -0.2381  0.6494
16287TIP3    H270353   1.787   0.549  15.306  0.1072  1.1710  0.6991
16288TIP3   OH270354   6.610   5.750   6.059  0.0679  0.3796 -0.1792
16288TIP3    H170355   6.677   5.693   6.096  0.4909  1.2749  0.4692
16288TIP3    H270356   6.539   5.749   6.124 -1.0442 -1.3837 -1.3283
16289TIP3   OH270357   3.278   4.427  13.156  0.0529  0.4258 -0.2823
16289TIP3    H170358   3.199   4.480  13.142  0.7229  1.9156  1.1921
16289TIP3    H270359   3.280   4.411  13.250  1.9750  1.2382 -0.1426
16290TIP3   OH270360   3.379   3.748  12.030  0.7176 -0.3899  0.4396
16290TIP3    H170361   3.322   3.764  11.955  0.4400 -0.4197  0.6430
16290TIP3    H270362   3.453   3.699  11.994  0.8425  0.0574  0.0877
16291TIP3   OH270363   0.603   1.341  14.621 -0.1160 -0.0846 -0.0618
16291TIP3    H170364   0.632   1.345  14.712 -0.3911 -0.0277  0.0258
16291TIP3    H270365   0.546   1.417  14.611  2.0745  1.5143 -1.0789
16292TIP3   OH270366   1.334   3.786  11.927  0.1375  0.0940  0.0596
16292TIP3    H170367   1.328   3.716  11.862 -0.5253 -0.2872  0.5138
16292TIP3    H270368   1.254   3.776  11.980 -1.6915  3.1392 -1.7943
16293TIP3   OH270369   1.215   2.021  15.589 -0.0237  0.1756  0.1930
16293TIP3    H170370   1.223   1.926  15.594  1.6424  0.1645 -1.3784
16293TIP3    H270371   1.306   2.052  15.585 -0.5572  1.6807 -1.2307
16294TIP3   OH270372   4.773   4.212  15.615  0.3374  0.1841  0.3594
16294TIP3    H170373   4.771   4.233  15.521  1.5650  0.2538  0.3338
16294TIP3    H270374   4.857   4.246  15.645  1.0825 -2.0839  0.9580
16295TIP3   OH270375   1.717   6.090   4.261 -0.4610  0.0201 -0.4245
16295TIP3    H170376   1.684   6.156   4.322  1.1205 -0.6539  1.2163
16295TIP3    H270377   1.648   6.083   4.195 -0.8337  3.0789 -0.5181
16296TIP3   OH270378   0.583   1.373  10.756 -0.1741 -0.1937  0.0887
16296TIP3    H170379   0.657   1.428  10.783 -1.1430  0.7697  0.8664
16296TIP3    H270380   0.553   1.410  10.674  0.3086 -0.7027 -0.3261
16297TIP3   OH270381   5.243   5.515  15.187  0.0245  0.1863  0.2336
16297TIP3    H170382   5.294   5.445  15.147  1.7775  1.4929  0.0533
16297TIP3    H270383   5.270   5.594  15.141 -2.7537  0.9102 -0.3834
16298TIP3   OH270384   0.577   3.575  10.852 -0.4565  0.2310  0.0821
16298TIP3    H170385   0.518   3.507  10.882  0.5735 -0.4772  0.5652
16298TIP3    H270386   0.545   3.598  10.765 -0.5797 -1.1656 -0.2564
16299TIP3   OH270387   1.625   4.639   1.149  0.2415  0.0661  0.4070
16299TIP3    H170388   1.632   4.553   1.109  1.9958 -0.1017  1.0176
16299TIP3    H270389   1.532   4.649   1.169  0.0918 -1.9173  0.8507
16300TIP3   OH270390   5.570   1.379   3.791 -0.1377 -0.0526  0.4830
16300TIP3    H170391   5.658   1.404   3.819  0.0822  3.6023 -2.5225
16300TIP3    H270392   5.512   1.416   3.857  0.5110  4.1158 -0.9518
16301TIP3   OH270393   0.275   6.162  14.670  0.5306 -0.4451 -0.3639
16301TIP3    H170394   0.355   6.194  14.630  0.7373 -0.1299  0.2837
16301TIP3    H270395   0.206   6.220  14.639  0.6880 -0.2115 -0.2779
16302TIP3   OH270396   1.721   2.520   4.793 -0.3462  0.3560 -0.6181
16302TIP3    H170397   1.785   2.449   4.796  0.4890  1.1061  0.4900
16302TIP3    H270398   1.736   2.564   4.710 -0.1451 -0.1143 -0.8304
16303TIP3   OH270399   5.532   3.752   0.931  0.1530 -0.3168  0.1386
16303TIP3    H170400   5.592   3.815   0.971 -0.2051 -0.4938  0.9672
16303TIP3    H270401   5.514   3.689   1.000  1.5297 -2.0933 -1.0386
16304TIP3   OH270402   1.071   4.330  14.830 -0.2168  0.0213  0.2227
16304TIP3    H170403   1.100   4.420  14.843 -2.0526  0.7524 -0.4737
16304TIP3    H270404   1.114   4.302  14.749  4.0557 -1.4463  2.6601
16305TIP3   OH270405   3.888   5.374  12.311 -0.5003  0.8723 -0.3082
16305TIP3    H170406   3.887   5.283  12.340 -0.2725  1.4536  1.6661
16305TIP3    H270407   3.796   5.395  12.295 -1.1339  1.3991  3.2204
16306TIP3   OH270408   2.614   2.738  16.910 -0.0326 -0.2085  0.1399
16306TIP3    H170409   2.705   2.729  16.938  0.7980  1.0145 -1.9709
16306TIP3    H270410   2.590   2.828  16.936  0.0509  0.1810 -1.0866
16307TIP3   OH270411   5.286   1.042  10.795 -0.0253  0.7740  0.3965
16307TIP3    H170412   5.361   1.082  10.840 -0.4425  2.0699 -0.0404
16307TIP3    H270413   5.232   1.115  10.767 -0.9104 -0.1066 -0.2734
16308TIP3   OH270414   2.781   5.120  15.027 -0.1450  0.4241 -0.3501
16308TIP3    H170415   2.706   5.103  14.970  0.0934  2.0685 -1.2261
16308TIP3    H270416   2.811   5.207  15.001  1.3847  0.2616  0.7538
16309TIP3   OH270417   6.041   3.395   1.574  0.1108 -0.0753 -0.8186
16309TIP3    H170418   6.081   3.469   1.619  0.7945 -0.1693 -1.2695
16309TIP3    H270419   5.947   3.406   1.589  0.3413 -0.6265  1.4593
16310TIP3   OH270420   5.641   3.125  14.472 -0.4208 -0.3645  0.7833
16310TIP3    H170421   5.729   3.159  14.491 -0.1413 -0.9383  0.5750
16310TIP3    H270422   5.631   3.135  14.378 -0.0773 -1.4025  0.6182
16311TIP3   OH270423   1.727   6.266  13.726  0.2293 -0.3159  0.2008
16311TIP3    H170424   1.805   6.259  13.780  0.5667 -0.9076 -0.3424
16311TIP3    H270425   1.673   6.333  13.769  0.4849 -0.7697  1.2500
16312TIP3   OH270426   4.468   2.480   0.370  0.0864  0.3998  0.0642
16312TIP3    H170427   4.416   2.480   0.450 -0.0471 -0.9736 -0.0135
16312TIP3    H270428   4.405   2.500   0.300 -0.3121 -0.9779  0.0053
16313TIP3   OH270429   4.534   2.899  13.901  0.1808 -0.6206  0.7730
16313TIP3    H170430   4.494   2.925  13.819  1.8371  2.2498  0.7369
16313TIP3    H270431   4.462   2.897  13.964 -0.5908  0.7933 -0.0252
16314TIP3   OH270432   6.239   0.894  17.134 -0.0322  0.4469  0.2796
16314TIP3    H170433   6.218   0.876  17.225  1.7283  1.7227  0.9823
16314TIP3    H270434   6.162   0.939  17.100 -0.6016  0.1906  1.1927
16315TIP3   OH270435   6.597   2.296   3.678  0.0718  0.2797 -0.2551
16315TIP3    H170436   6.683   2.330   3.705 -0.1655  0.4503  0.3071
16315TIP3    H270437   6.616   2.244   3.600  0.4657  1.6139 -1.0913
16316TIP3   OH270438   2.441   3.470   4.130  0.0623  1.1353 -0.1811
16316TIP3    H170439   2.425   3.446   4.222  0.5040 -0.5192 -0.4923
16316TIP3    H270440   2.531   3.440   4.114 -0.8485 -0.9611 -1.8281
16317TIP3   OH270441   6.688   0.116   6.138 -0.0739  0.2233  0.2560
16317TIP3    H170442   6.655   0.205   6.143  0.5390  0.6361 -2.0097
16317TIP3    H270443   6.636   0.075   6.069  0.4254 -0.8212  0.4751
16318TIP3   OH270444   6.499   5.069  17.137  0.5305 -0.0496  0.7098
16318TIP3    H170445   6.539   5.041  17.220  1.0663 -0.0639  0.4508
16318TIP3    H270446   6.538   5.012  17.071 -1.1984 -1.2316  0.6467
16319TIP3   OH270447   1.945   5.216   4.937 -0.2381  0.0508 -0.6046
16319TIP3    H170448   1.910   5.200   4.850  0.1250  0.4447 -0.8248
16319TIP3    H270449   1.978   5.306   4.934 -1.0900  0.4022  0.2251
16320TIP3   OH270450   2.451   3.953  12.750  0.1086 -0.7580 -0.2106
16320TIP3    H170451   2.441   3.897  12.827  2.0657 -0.3836  0.3674
16320TIP3    H270452   2.406   4.034  12.774  0.0376 -0.9235  0.2313
16321TIP3   OH270453   4.300   5.900   3.527  0.9303  0.1669  0.1503
16321TIP3    H170454   4.222   5.853   3.556  1.0940  0.4358  1.0719
16321TIP3    H270455   4.270   5.955   3.455  0.6204 -0.9339 -0.5803
16322TIP3   OH270456   0.042   2.720  16.488 -0.0092  0.3757  0.0337
16322TIP3    H170457  -0.011   2.794  16.518  1.4626  0.4469  2.8044
16322TIP3    H270458   0.085   2.752  16.408  1.0313  2.8359  1.4530
16323TIP3   OH270459   4.663   3.239  14.342  0.3457 -0.0452  0.3034
16323TIP3    H170460   4.669   3.200  14.429  0.7036 -0.1589  0.2289
16323TIP3    H270461   4.632   3.168  14.286 -3.1532  0.8162  0.8860
16324TIP3   OH270462   6.010   6.535   2.979  0.2092 -0.0007 -0.2958
16324TIP3    H170463   5.980   6.473   3.046  0.5336 -1.1003 -1.1432
16324TIP3    H270464   5.944   6.605   2.980  1.0779  0.9229  2.3297
16325TIP3   OH270465   3.136   3.960   3.426 -0.0417  0.3123  0.2920
16325TIP3    H170466   3.131   3.887   3.364 -0.4679  1.1335 -0.6687
16325TIP3    H270467   3.056   4.011   3.409 -0.3957  0.3126  1.8422
16326TIP3   OH270468   2.924   2.848  10.812 -0.0202 -0.7017  0.3377
16326TIP3    H170469   2.860   2.879  10.876 -0.4050 -0.7274 -0.0283
16326TIP3    H270470   3.006   2.890  10.837 -0.0885 -0.9944  1.0609
16327TIP3   OH270471   6.463   6.263  16.332 -0.3719  0.1386 -0.8450
16327TIP3    H170472   6.526   6.314  16.384 -1.2677  1.2792 -0.8405
16327TIP3    H270473   6.435   6.322  16.263 -2.3406  0.1197 -0.1456
16328TIP3   OH270474   5.206   1.010   4.009 -0.3410 -0.5281  0.6208
16328TIP3    H170475   5.170   1.090   3.969 -1.9605 -0.6877  1.6683
16328TIP3    H270476   5.138   0.944   3.997 -0.1648 -1.0279  2.0928
16329TIP3   OH270477   6.843   3.311  10.703 -0.4934 -0.5247  0.6209
16329TIP3    H170478   6.829   3.241  10.639  0.8164  0.5433 -0.9083
16329TIP3    H270479   6.771   3.372  10.687  0.2177  0.0878 -0.3757
16330TIP3   OH270480   2.633   3.011   5.462 -0.0865  0.2444 -0.1506
16330TIP3    H170481   2.718   2.968   5.472 -0.2127 -0.3930 -1.5467
16330TIP3    H270482   2.651   3.103   5.477  0.6913  0.0174  0.3906
16331TIP3   OH270483   6.461   0.837   2.162 -0.2736  0.2018 -0.3597
16331TIP3    H170484   6.372   0.871   2.159 -0.7846 -1.0766 -0.3117
16331TIP3    H270485   6.510   0.901   2.214 -1.7303 -0.2927  1.7685
16332TIP3   OH270486   2.959   4.568   2.176 -0.3284 -0.2595  0.1018
16332TIP3    H170487   3.042   4.548   2.134 -1.2121 -0.2349 -1.7204
16332TIP3    H270488   2.968   4.531   2.264  1.5071 -0.4540 -0.1327
16333TIP3   OH270489   6.218   6.701   0.232  0.4672 -0.2629  0.7290
16333TIP3    H170490   6.304   6.738   0.213  1.2307 -2.1722  0.2421
16333TIP3    H270491   6.198   6.730   0.321  1.0822  1.1528  0.4190
16334TIP3   OH270492   2.696   4.204  16.809 -0.1714  0.4472  1.0404
16334TIP3    H170493   2.647   4.193  16.891 -0.9158  0.0590  0.5525
16334TIP3    H270494   2.693   4.298  16.792 -1.2248  0.3752  0.7428
16335TIP3   OH270495   2.497   4.507  15.805  0.4622 -0.3563  0.1220
16335TIP3    H170496   2.405   4.487  15.825  0.4530  0.2866  0.7556
16335TIP3    H270497   2.528   4.429  15.758 -0.4025 -0.5818 -0.1109
16336TIP3   OH270498   1.669   6.441   1.678 -0.1009  0.5670 -0.3420
16336TIP3    H170499   1.739   6.479   1.730 -0.6579  0.5511  0.4389
16336TIP3    H270500   1.588   6.470   1.721 -0.5677 -1.6537  0.4357
16337TIP3   OH270501   1.615   5.340   1.614 -0.1705 -0.7966 -0.4582
16337TIP3    H170502   1.680   5.313   1.548 -0.1711 -0.7786 -0.4661
16337TIP3    H270503   1.534   5.296   1.587 -0.3669 -0.1706 -0.9167
16338TIP3   OH270504   3.957   6.291  15.002  0.2975 -0.2767  0.2162
16338TIP3    H170505   3.995   6.373  14.971 -3.3199  0.9359 -1.5317
16338TIP3    H270506   3.870   6.315  15.035 -1.4595 -3.5014 -1.5799
16339TIP3   OH270507   2.114   4.592  16.277  0.4017  0.2547  0.6769
16339TIP3    H170508   2.156   4.507  16.290  1.8806  1.1057  1.7882
16339TIP3    H270509   2.034   4.588  16.329  0.3864 -0.4906  0.6074
16340TIP3   OH270510   2.884   2.985   1.665  0.5459  0.4642  0.1888
16340TIP3    H170511   2.920   2.896   1.653  3.3268  1.7232 -2.1207
16340TIP3    H270512   2.793   2.977   1.638  0.7975 -1.6242 -0.2792
16341TIP3   OH270513   6.565   0.039   4.394 -0.6460  0.1553  0.3386
16341TIP3    H170514   6.649  -0.002   4.374 -0.7686 -0.7383  1.5123
16341TIP3    H270515   6.552   0.104   4.325  1.5064  1.0758  0.7380
16342TIP3   OH270516   2.879   2.197   4.246  0.0829 -0.2952  0.3105
16342TIP3    H170517   2.962   2.226   4.284  0.9033  0.0209 -1.5588
16342TIP3    H270518   2.814   2.256   4.284  1.1607  1.4282 -0.3493
16343TIP3   OH270519   2.333   0.589   6.576 -0.3065  0.5249  0.2947
16343TIP3    H170520   2.271   0.561   6.643  1.1395  0.4196  1.6330
16343TIP3    H270521   2.348   0.682   6.594  2.1489 -0.0835  1.9386
16344TIP3   OH270522   5.986   4.028  13.291 -0.2575 -0.2508  0.0955
16344TIP3    H170523   5.952   4.018  13.380 -0.6910 -0.7734 -0.1287
16344TIP3    H270524   6.073   4.067  13.303 -0.5651  0.2696  0.7129
16345TIP3   OH270525   5.147   2.885  15.746 -0.1836 -0.2252  0.3300
16345TIP3    H170526   5.187   2.804  15.713 -0.3415 -0.2342  0.1582
16345TIP3    H270527   5.128   2.866  15.838  1.0792  0.1122  0.6791
16346TIP3   OH270528   1.501   1.954   0.133 -0.0719 -0.5683  0.3247
16346TIP3    H170529   1.563   1.922   0.067 -0.5159  0.9654 -0.8872
16346TIP3    H270530   1.431   1.995   0.082 -2.0744 -2.1158  1.6503
16347TIP3   OH270531   5.526   4.672  13.972  0.1695 -0.0043  0.2230
16347TIP3    H170532   5.598   4.615  14.000  0.1136  0.9832  2.5895
16347TIP3    H270533   5.565   4.729  13.905  0.6220 -1.7064 -1.0575
16348TIP3   OH270534   5.121   4.883   0.676 -0.3457  0.5310 -0.5690
16348TIP3    H170535   5.133   4.876   0.771 -0.4586  0.6691 -0.5439
16348TIP3    H270536   5.210   4.885   0.641 -0.2504 -2.1013 -0.6715
16349TIP3   OH270537   2.220   2.806   2.141  0.4737 -0.5171  0.4136
16349TIP3    H170538   2.256   2.801   2.229  0.4909  0.8312  0.5120
16349TIP3    H270539   2.175   2.891   2.139  0.8561 -0.3261 -1.0139
16350TIP3   OH270540   5.980   1.135  11.981  0.8845 -0.2237 -0.1828
16350TIP3    H170541   5.973   1.186  12.062  0.2668  2.7783 -1.9575
16350TIP3    H270542   6.074   1.122  11.968  1.0682  0.6063  0.2586
16351TIP3   OH270543   5.406   5.351  13.469 -0.3611 -0.6276  0.0007
16351TIP3    H170544   5.355   5.430  13.485 -1.0865 -1.0413 -0.2384
16351TIP3    H270545   5.474   5.352  13.537 -0.7337 -0.1128  0.3688
16352TIP3   OH270546   0.373   2.149  12.369 -0.3476  0.0180  0.0143
16352TIP3    H170547   0.361   2.243  12.384 -0.0476 -0.0102  0.4429
16352TIP3    H270548   0.326   2.132  12.288  0.6511  0.7902 -0.7603
16353TIP3   OH270549   1.490   4.076   1.396  0.5708  0.0590 -0.3118
16353TIP3    H170550   1.500   4.091   1.489  1.0703 -0.3317 -0.2968
16353TIP3    H270551   1.401   4.039   1.387 -1.0676  3.6442 -0.4588
16354TIP3   OH270552   2.524   2.518  12.905  0.0839  0.6375  0.2840
16354TIP3    H170553   2.552   2.570  12.829 -0.2241  1.3959  0.6760
16354TIP3    H270554   2.519   2.428  12.872 -0.2176  0.9767 -0.6511
16355TIP3   OH270555   1.034   4.515  15.155 -0.2531 -0.3603  0.1116
16355TIP3    H170556   1.115   4.535  15.109 -0.7938  1.6100 -0.0905
16355TIP3    H270557   1.032   4.419  15.161  2.4845 -0.4512  0.8887
16356TIP3   OH270558   4.909   6.610  14.354  0.0452 -0.2963  0.3335
16356TIP3    H170559   4.854   6.574  14.424  0.5115 -0.2009  0.7532
16356TIP3    H270560   4.912   6.541  14.288  0.0188 -0.5864  0.6348
16357TIP3   OH270561   1.412   5.851   6.681 -0.5615  0.1721  0.1068
16357TIP3    H170562   1.468   5.915   6.638 -0.4354  0.5132  0.7822
16357TIP3    H270563   1.471   5.797   6.733 -0.7019 -0.3099 -0.2227
16358TIP3   OH270564   0.087   2.507  15.015 -0.5362 -0.3646 -0.1337
16358TIP3    H170565   0.007   2.477  15.058 -1.4883 -0.6813 -1.9776
16358TIP3    H270566   0.069   2.599  14.994  0.3555  0.1064  1.0620
16359TIP3   OH270567   2.781   2.484   5.335 -0.0350  0.3060 -0.5272
16359TIP3    H170568   2.854   2.507   5.393  0.4860 -1.5894 -0.3738
16359TIP3    H270569   2.707   2.468   5.394 -0.3029  1.1973 -0.6096
16360TIP3   OH270570   4.595   2.788   0.827  0.9828  0.1868  0.4673
16360TIP3    H170571   4.659   2.792   0.756  0.5330  1.6998  0.1230
16360TIP3    H270572   4.559   2.699   0.822  2.7323 -0.5539  0.4145
16361TIP3   OH270573   5.029   3.022   3.217 -0.0374 -0.0662 -0.2379
16361TIP3    H170574   5.059   3.042   3.128  0.1505  0.5438 -0.0366
16361TIP3    H270575   5.093   2.959   3.250  1.3739  1.6116  0.3831
16362TIP3   OH270576   6.133   0.705  15.031  0.1210 -0.0284  0.0236
16362TIP3    H170577   6.137   0.789  14.986  0.7833 -0.2148 -0.2629
16362TIP3    H270578   6.198   0.712  15.101 -0.0790 -0.1703  0.2245
16363TIP3   OH270579   1.927   0.346  14.832 -0.4607 -0.1549 -0.3879
16363TIP3    H170580   1.881   0.274  14.788  1.6805 -1.2775 -0.9494
16363TIP3    H270581   1.991   0.376  14.768  0.2242  0.7205  0.6704
16364TIP3   OH270582   2.089   5.221  11.810  0.0272 -0.0013  0.0273
16364TIP3    H170583   2.083   5.317  11.813 -0.7218 -0.0694  1.5300
16364TIP3    H270584   1.998   5.192  11.805  0.1676 -0.6595  1.0882
16365TIP3   OH270585   0.611   4.765   5.500 -0.0672 -1.1352  0.4181
16365TIP3    H170586   0.553   4.714   5.556 -3.2904  2.3707  0.6634
16365TIP3    H270587   0.588   4.741   5.411  0.3905 -1.9923  0.5222
16366TIP3   OH270588   1.703   4.530   3.952 -0.7014 -0.4406  0.3970
16366TIP3    H170589   1.613   4.506   3.974 -0.2315 -1.2717  1.5296
16366TIP3    H270590   1.756   4.456   3.982  0.5486  0.8381  1.5422
16367TIP3   OH270591   6.786   3.252   5.009  0.3285 -0.0470 -0.1488
16367TIP3    H170592   6.740   3.174   5.042 -1.3618  1.1771  0.5339
16367TIP3    H270593   6.846   3.275   5.080 -0.0372 -0.0426  0.1665
16368TIP3   OH270594   3.860   5.715   5.008 -0.0458 -0.4109 -0.8088
16368TIP3    H170595   3.921   5.699   5.080  0.4155 -0.1627 -1.1426
16368TIP3    H270596   3.901   5.676   4.932 -0.5237 -0.6524 -0.9474
16369TIP3   OH270597   5.215   5.390   5.163 -0.3422  0.0212 -0.2378
16369TIP3    H170598   5.273   5.316   5.143  0.1402  0.6895 -1.4107
16369TIP3    H270599   5.221   5.446   5.086  0.4642  2.0206  1.2070
16370TIP3   OH270600   3.552   4.932   4.545 -0.2821 -0.0491 -0.5389
16370TIP3    H170601   3.595   4.907   4.627 -1.0198  0.3439 -0.0166
16370TIP3    H270602   3.592   4.875   4.479  0.9592  0.2392 -0.0662
16371TIP3   OH270603   4.313   2.722  15.854 -0.4037 -0.1545 -0.3597
16371TIP3    H170604   4.295   2.630  15.834 -1.2702 -0.1974  0.5181
16371TIP3    H270605   4.230   2.755  15.888  0.4695  0.3723  1.3597
16372TIP3   OH270606   5.445   1.972   0.459 -0.0439  0.1595 -0.1849
16372TIP3    H170607   5.392   1.935   0.389  1.9542  0.2920 -1.8551
16372TIP3    H270608   5.396   2.048   0.489 -1.6871 -0.8075 -0.3193
16373TIP3   OH270609   1.604   6.838   3.208 -0.6620  0.3034  0.3099
16373TIP3    H170610   1.580   6.926   3.179  0.2472  0.1076 -1.1546
16373TIP3    H270611   1.523   6.787   3.200 -1.2312  1.0033  1.3022
16374TIP3   OH270612   1.648   4.130  14.159 -0.1053  0.0858  0.1268
16374TIP3    H170613   1.665   4.154  14.068  1.5069 -0.2138  0.3221
16374TIP3    H270614   1.569   4.076  14.155 -1.3123  1.8105 -0.8123
16375TIP3   OH270615   0.226   0.183  15.861  0.2261  0.4086 -0.4801
16375TIP3    H170616   0.181   0.206  15.943  1.7176 -0.9077  0.7875
16375TIP3    H270617   0.159   0.139  15.809 -0.5817  0.6290  0.3414
16376TIP3   OH270618   5.464   4.873  16.223  0.2360  0.1021  0.4195
16376TIP3    H170619   5.474   4.951  16.278  0.5453 -0.6866  1.5038
16376TIP3    H270620   5.419   4.810  16.279  0.8607 -0.8345 -0.1134
16377TIP3   OH270621   3.477   3.344   6.255  0.0505  0.8729  0.1954
16377TIP3    H170622   3.434   3.309   6.333  1.5293 -2.7773 -0.4048
16377TIP3    H270623   3.570   3.336   6.273  0.4280 -0.1478 -1.9089
16378TIP3   OH270624   4.015   5.622   3.640  0.0322  0.0598  0.0493
16378TIP3    H170625   3.929   5.663   3.629 -0.3047 -0.4479  0.7266
16378TIP3    H270626   4.036   5.635   3.732  1.2264  1.2080 -0.3680
16379TIP3   OH270627   5.063   6.608   0.181 -0.2254 -0.1706 -0.0678
16379TIP3    H170628   5.055   6.673   0.251  2.1351  0.2011 -0.0698
16379TIP3    H270629   5.079   6.660   0.102 -1.9807 -0.6318 -0.7723
16380TIP3   OH270630   2.445   6.103  12.423  0.6527  0.2974  0.3323
16380TIP3    H170631   2.501   6.033  12.389  1.5047 -0.0425  2.2978
16380TIP3    H270632   2.446   6.170  12.354  2.5543 -0.2012 -0.1810
16381TIP3   OH270633   4.950   6.109   4.146  0.0703  0.0210  0.4463
16381TIP3    H170634   5.033   6.124   4.192  0.5087 -0.0363 -0.3105
16381TIP3    H270635   4.933   6.015   4.158  1.8502 -0.7500 -2.1469
16382TIP3   OH270636   3.744   1.830   1.313  0.0792 -0.3041 -0.3406
16382TIP3    H170637   3.827   1.805   1.272  0.5935  0.2264  0.3442
16382TIP3    H270638   3.725   1.917   1.278 -0.0606 -0.3204 -0.3074
16383TIP3   OH270639   0.879   4.032   0.481 -0.4087 -0.4705  0.3237
16383TIP3    H170640   0.856   4.116   0.441  0.4878 -0.5678 -0.4312
16383TIP3    H270641   0.798   3.980   0.476 -0.8659  0.2165  0.4602
16384TIP3   OH270642   6.488   6.117   5.374  0.6237  0.0789  0.7636
16384TIP3    H170643   6.423   6.068   5.423 -0.8482  1.8865  0.7252
16384TIP3    H270644   6.530   6.173   5.439  0.0979  1.0012  0.3200
16385TIP3   OH270645   4.743   5.816  11.693 -0.0948  0.3001  0.0296
16385TIP3    H170646   4.790   5.753  11.638 -2.1036 -0.3900 -0.9847
16385TIP3    H270647   4.801   5.831  11.768  1.3518 -1.1176 -0.7597
16386TIP3   OH270648   0.022   3.817  16.467  0.5394 -0.0898 -0.3211
16386TIP3    H170649   0.073   3.896  16.448  0.2288 -0.1987 -1.6630
16386TIP3    H270650  -0.069   3.848  16.471  0.3196 -0.5106 -1.7412
16387TIP3   OH270651   2.743   6.147   3.612 -0.1376 -0.8220  0.0619
16387TIP3    H170652   2.816   6.186   3.564  0.5066  0.2966  1.8610
16387TIP3    H270653   2.667   6.159   3.554  0.9171 -1.2806 -1.4819
16388TIP3   OH270654   6.722   1.344  13.095 -0.2017 -0.1979 -0.0841
16388TIP3    H170655   6.809   1.348  13.133 -0.2465 -0.9404  0.1176
16388TIP3    H270656   6.698   1.435  13.078  0.5183  0.0208  0.0639
16389TIP3   OH270657   1.696   4.421   1.618 -0.2410 -0.5507 -0.2664
16389TIP3    H170658   1.771   4.479   1.607 -0.6174 -0.0302 -0.1348
16389TIP3    H270659   1.673   4.395   1.529  0.6789 -1.4886 -0.2555
16390TIP3   OH270660   0.645   6.652  16.649  0.4795 -0.3796 -0.0881
16390TIP3    H170661   0.564   6.636  16.696  1.2646 -1.5136  0.9415
16390TIP3    H270662   0.619   6.659  16.558 -0.7932 -0.5108  0.2434
16391TIP3   OH270663   6.410   6.350  14.828  0.3044 -0.1262 -0.1599
16391TIP3    H170664   6.357   6.344  14.906 -0.0217 -0.4672 -0.4057
16391TIP3    H270665   6.350   6.331  14.756  0.6736 -0.1469 -0.4676
16392TIP3   OH270666   0.810   2.194   2.379  0.5596  0.7976  0.2066
16392TIP3    H170667   0.804   2.177   2.285 -0.7797 -0.7078  0.5117
16392TIP3    H270668   0.900   2.224   2.392  1.1601 -0.1700 -1.3822
16393TIP3   OH270669   5.097   5.021   4.607  0.1794 -0.0909 -0.5460
16393TIP3    H170670   5.040   4.996   4.534 -0.5823  2.6489 -1.0269
16393TIP3    H270671   5.063   4.972   4.682 -0.2292 -1.5154 -1.6174
16394TIP3   OH270672   1.068   6.691   6.073 -0.8197  0.1882 -0.4663
16394TIP3    H170673   1.003   6.671   6.140 -0.0959 -3.1445 -0.5752
16394TIP3    H270674   1.152   6.679   6.116 -0.3348 -0.0274 -1.4280
16395TIP3   OH270675   4.156   3.837   4.611 -0.8797 -0.3667  0.1737
16395TIP3    H170676   4.076   3.794   4.640  0.0474 -3.0242 -0.8479
16395TIP3    H270677   4.169   3.805   4.522  1.1914  0.1403  0.2440
16396TIP3   OH270678   1.028   0.922   0.646 -0.0308 -0.2353 -0.1725
16396TIP3    H170679   1.024   0.922   0.742 -1.8104 -0.9747 -0.2133
16396TIP3    H270680   1.108   0.873   0.625 -0.4969 -1.5381  0.9438
16397TIP3   OH270681   4.111   4.865   0.948  0.4674 -0.1553  0.1448
16397TIP3    H170682   4.062   4.882   1.029  0.5492 -1.3014  0.4498
16397TIP3    H270683   4.201   4.893   0.968  0.6623 -1.1535  0.7322
16398TIP3   OH270684   4.420   1.517  13.404 -0.5514 -0.5155  0.2593
16398TIP3    H170685   4.405   1.497  13.496  0.0406 -1.5642  0.1487
16398TIP3    H270686   4.451   1.435  13.367  0.1584  0.1506 -0.6698
16399TIP3   OH270687   1.849   2.380  12.163 -0.3208  0.2760  0.3700
16399TIP3    H170688   1.849   2.286  12.185 -3.1164  0.4725  1.6094
16399TIP3    H270689   1.912   2.419  12.224  1.5039 -0.8192 -0.7030
16400TIP3   OH270690   0.791   0.252   3.030 -0.3544 -0.3646  0.1117
16400TIP3    H170691   0.697   0.264   3.034 -0.3188  1.1787 -1.9007
16400TIP3    H270692   0.823   0.284   3.114 -1.5504  0.1890  0.3696
16401TIP3   OH270693   4.370   0.313  11.952 -0.0297 -0.2700 -0.5867
16401TIP3    H170694   4.304   0.271  11.899 -0.5816 -1.0085  0.6348
16401TIP3    H270695   4.426   0.359  11.890 -0.2490 -1.6372 -1.8368
16402TIP3   OH270696   1.373   4.197   5.582 -0.1865  0.7025 -0.0012
16402TIP3    H170697   1.395   4.282   5.620 -0.9661  0.2185  1.6383
16402TIP3    H270698   1.286   4.209   5.544 -0.2222  0.6825  0.0747
16403TIP3   OH270699   0.043   5.794  11.423  0.2033 -0.4224  1.1959
16403TIP3    H170700  -0.045   5.768  11.450  0.0739  0.0514  1.2330
16403TIP3    H270701   0.061   5.739  11.347 -1.1727  1.2665 -0.4529
16404TIP3   OH270702   3.481   6.801  15.873 -0.3899 -0.0643  0.2470
16404TIP3    H170703   3.562   6.851  15.884  0.0349 -0.7546  0.3428
16404TIP3    H270704   3.449   6.788  15.962 -1.0854  0.9501  0.1654
16405TIP3   OH270705   2.321   4.888  15.352  0.3025 -0.5285 -0.6373
16405TIP3    H170706   2.228   4.869  15.362  0.3574 -1.5285 -1.8096
16405TIP3    H270707   2.351   4.908  15.440 -0.5999 -2.2132  0.0914
16406TIP3   OH270708   6.486   1.581   3.039  0.1227  0.0937  0.5463
16406TIP3    H170709   6.568   1.531   3.039  0.2839  0.2898 -1.4098
16406TIP3    H270710   6.511   1.669   3.012 -0.6549  0.2987  0.4766
16407TIP3   OH270711   3.865   3.282   0.613  0.5687 -0.3701 -0.4382
16407TIP3    H170712   3.948   3.307   0.571 -0.3798  0.0505 -2.2005
16407TIP3    H270713   3.865   3.187   0.613 -0.4516 -0.5177 -3.9137
16408TIP3   OH270714   3.794   3.227  16.459  0.3753 -0.0864 -0.0850
16408TIP3    H170715   3.852   3.209  16.385 -0.1947  2.0843 -1.1253
16408TIP3    H270716   3.847   3.283  16.517 -0.1493  0.6582 -0.3117
16409TIP3   OH270717   1.044   4.478   5.757  0.3225  0.2740 -0.6017
16409TIP3    H170718   1.115   4.505   5.816  0.9327 -0.9829 -0.7429
16409TIP3    H270719   1.084   4.417   5.697 -0.8303 -0.2563 -0.8585
16410TIP3   OH270720   3.076   1.235  14.758  0.5366  0.2370  0.3421
16410TIP3    H170721   3.025   1.316  14.763  3.1602  2.2270 -2.0537
16410TIP3    H270722   3.051   1.197  14.673  1.0416 -0.2246  0.3982
16411TIP3   OH270723   0.954   6.493   3.246  0.3332 -0.4043 -0.3461
16411TIP3    H170724   0.971   6.533   3.161  0.6398  1.6260  0.6309
16411TIP3    H270725   0.928   6.565   3.302  2.0452 -1.3716  1.8222
16412TIP3   OH270726   2.705   6.618   2.159 -0.7423 -0.3984  0.0454
16412TIP3    H170727   2.766   6.606   2.087 -1.1824 -0.4186 -0.3310
16412TIP3    H270728   2.619   6.600   2.121 -1.0529  0.2959  0.3841
16413TIP3   OH270729   6.704   4.761  15.756 -0.2202 -0.0764  0.8201
16413TIP3    H170730   6.670   4.704  15.687  0.4560  0.4306  0.0449
16413TIP3    H270731   6.629   4.781  15.811 -1.0701  0.6219 -0.5597
16414TIP3   OH270732   2.600   1.187   0.031  0.3803 -0.2152 -0.4771
16414TIP3    H170733   2.670   1.212   0.092  0.0120 -0.7791  0.1978
16414TIP3    H270734   2.645   1.169  -0.051  0.9560  0.0020 -0.2144
16415TIP3   OH270735   1.654   3.719   1.416 -0.0557  0.0201  0.1306
16415TIP3    H170736   1.608   3.662   1.355  1.0642 -0.9172  0.1395
16415TIP3    H270737   1.603   3.713   1.497  1.1117 -2.5789  0.7617
16416TIP3   OH270738   6.636   5.688  11.804  0.1601  0.4298  0.3054
16416TIP3    H170739   6.643   5.749  11.878  0.0814 -0.8880  1.4509
16416TIP3    H270740   6.645   5.743  11.727  0.6967  1.8083  1.3009
16417TIP3   OH270741   3.017   5.517  12.097 -0.4714 -0.3284  0.0752
16417TIP3    H170742   2.985   5.561  12.176 -1.6518 -0.0609 -0.5192
16417TIP3    H270743   2.944   5.524  12.035 -0.5982 -2.8177 -0.1666
16418TIP3   OH270744   0.615   4.352   1.456  0.0564 -0.3144 -0.4004
16418TIP3    H170745   0.610   4.380   1.365  1.2332  2.4630  0.2726
16418TIP3    H270746   0.565   4.418   1.504  0.0649 -1.3083  1.0384
16419TIP3   OH270747   2.315   6.600  13.157  0.1756 -0.4265  0.4311
16419TIP3    H170748   2.237   6.631  13.203  0.5615 -0.6056  1.2183
16419TIP3    H270749   2.388   6.623  13.215  0.5208 -2.4093  0.8704
16420TIP3   OH270750   2.374   5.565  13.873  0.0474 -0.5898  0.4598
16420TIP3    H170751   2.428   5.561  13.952  0.1640 -1.3257  0.3589
16420TIP3    H270752   2.436   5.585  13.803 -0.2010  1.0212  0.6671
16421TIP3   OH270753   1.488   6.013  16.895 -0.2900 -0.1179 -0.6633
16421TIP3    H170754   1.437   5.973  16.824 -0.0731  1.6968 -1.9148
16421TIP3    H270755   1.429   6.079  16.931 -1.1756 -2.3052  2.3184
16422TIP3   OH270756   5.056   1.936  16.934 -0.6733 -0.1958  0.2170
16422TIP3    H170757   4.982   1.888  16.898 -1.7025  1.2586  0.3192
16422TIP3    H270758   5.113   1.952  16.859 -0.8507 -0.6018 -0.0092
16423TIP3   OH270759   2.112   4.329  10.633  0.2896  0.5736 -0.5694
16423TIP3    H170760   2.205   4.348  10.619  0.2451  0.7566 -0.6184
16423TIP3    H270761   2.110   4.277  10.713  0.4581  0.3510 -0.7078
16424TIP3   OH270762   1.231   6.073   4.362 -0.2883 -0.6872 -0.4500
16424TIP3    H170763   1.224   5.986   4.401  1.3131 -0.3345  0.7225
16424TIP3    H270764   1.184   6.130   4.422  1.1377 -0.3375  0.3979
16425TIP3   OH270765   0.039   4.708  14.548 -0.2316  0.5691 -0.3840
16425TIP3    H170766   0.118   4.727  14.498 -1.0183  1.8210 -1.1972
16425TIP3    H270767   0.046   4.763  14.626 -0.5159  1.0344 -0.6844
16426TIP3   OH270768   4.256   0.973   5.714 -0.2633  0.0275 -0.5140
16426TIP3    H170769   4.233   0.921   5.790 -1.3949  1.1314 -0.0598
16426TIP3    H270770   4.218   0.925   5.639 -1.2597  0.1600 -0.1108
16427TIP3   OH270771   6.792   2.571  10.175  0.2003  0.0072  0.6607
16427TIP3    H170772   6.763   2.495  10.225  0.2370 -0.4828 -0.0428
16427TIP3    H270773   6.884   2.582  10.198  0.5567 -0.9764 -0.2137
16428TIP3   OH270774   2.544   2.613  10.920 -0.1498  0.1863 -0.0838
16428TIP3    H170775   2.611   2.614  10.851 -1.5482  1.5170 -1.4989
16428TIP3    H270776   2.574   2.678  10.983  1.1249 -1.0115  0.5856
16429TIP3   OH270777   4.727   2.741  16.931 -0.5232 -0.1196 -0.2276
16429TIP3    H170778   4.736   2.646  16.941  1.2109  0.1537  1.5047
16429TIP3    H270779   4.817   2.773  16.930 -1.0979  1.5642 -0.2907
16430TIP3   OH270780   5.577   3.168  11.550 -0.0900  0.0082  0.2375
16430TIP3    H170781   5.570   3.074  11.530  0.3182 -0.3352  1.6288
16430TIP3    H270782   5.648   3.199  11.493  0.3443 -0.7085  0.3705
16431TIP3   OH270783   2.569   6.461  16.274  0.1232 -0.2800  0.2611
16431TIP3    H170784   2.505   6.395  16.247  0.0661 -0.1997  0.2011
16431TIP3    H270785   2.620   6.479  16.195  0.0096 -0.1063  0.2257
16432TIP3   OH270786   4.158   0.894  10.318  0.1622 -0.8397  0.0823
16432TIP3    H170787   4.188   0.908  10.407 -0.3778 -0.7263  0.2504
16432TIP3    H270788   4.092   0.961  10.304 -0.7673 -1.7259  0.0830
16433TIP3   OH270789   3.903   2.182   5.677 -0.2933  0.4426 -0.6685
16433TIP3    H170790   3.997   2.181   5.692 -0.2360 -0.7099 -1.0083
16433TIP3    H270791   3.893   2.210   5.585 -0.1183 -1.8880 -1.4524
16434TIP3   OH270792   2.284   3.334  16.908  0.0624  0.3564 -0.6447
16434TIP3    H170793   2.326   3.420  16.906  0.3331  0.2505  0.0621
16434TIP3    H270794   2.275   3.309  16.816  2.9559 -0.2940 -0.8417
16435TIP3   OH270795   6.159   2.779  15.254 -0.6247 -0.4697 -0.2119
16435TIP3    H170796   6.175   2.794  15.161 -1.8720 -1.3235 -0.5982
16435TIP3    H270797   6.246   2.783  15.295  0.2304 -2.1534 -1.7280
16436TIP3   OH270798   0.839   4.510   4.462 -0.1157  0.6265 -0.0212
16436TIP3    H170799   0.849   4.415   4.472 -0.0531  0.8503  2.7757
16436TIP3    H270800   0.795   4.520   4.378 -0.3073 -1.8922 -0.3111
16437TIP3   OH270801   6.210   5.401   0.569  0.2928 -0.2513 -0.7421
16437TIP3    H170802   6.293   5.380   0.526 -0.0465 -0.3380 -1.3778
16437TIP3    H270803   6.183   5.484   0.530 -0.5992 -0.9035 -1.6033
16438TIP3   OH270804   2.879   1.369   5.486  0.7331 -0.0268 -0.0368
16438TIP3    H170805   2.864   1.282   5.448 -0.7326  0.3058 -0.2727
16438TIP3    H270806   2.865   1.356   5.580  4.6104 -0.9063  0.5769
16439TIP3   OH270807   3.029   0.486  15.392 -0.4569 -0.8301  0.5546
16439TIP3    H170808   2.943   0.523  15.409 -0.3123 -0.4753  0.5328
16439TIP3    H270809   3.041   0.419  15.459  0.0100  0.3888  1.7389
16440TIP3   OH270810   3.526   3.491   2.260  0.8064  0.1016  0.1170
16440TIP3    H170811   3.514   3.422   2.325  0.3644 -0.2342 -0.3063
16440TIP3    H270812   3.485   3.568   2.299 -0.9494 -0.4999 -0.4134
16441TIP3   OH270813   0.850   3.111  14.026 -0.7609 -0.3347 -0.1564
16441TIP3    H170814   0.823   3.023  13.998  1.0724 -0.7376 -0.7820
16441TIP3    H270815   0.917   3.137  13.963 -0.3271  0.9667  0.7934
16442TIP3   OH270816   3.435   2.919  12.883  0.1845 -0.2598 -0.3602
16442TIP3    H170817   3.506   2.855  12.871  1.0019  0.7766 -1.2282
16442TIP3    H270818   3.458   2.992  12.825 -0.0096  1.4352  1.5844
16443TIP3   OH270819   2.130   1.335   2.320  0.1411  0.0586  0.3813
16443TIP3    H170820   2.122   1.326   2.415 -1.2817  0.8586  0.3566
16443TIP3    H270821   2.204   1.394   2.308 -0.3428  0.8315  1.0500
16444TIP3   OH270822   2.121   5.996  13.423 -0.6009 -0.1511  0.5216
16444TIP3    H170823   2.162   5.936  13.486 -0.1403 -1.5699 -1.0520
16444TIP3    H270824   2.071   6.057  13.478  2.6515  0.9805  2.4657
16445TIP3   OH270825   1.890   5.913  12.954 -0.2453 -0.0513 -0.1811
16445TIP3    H170826   1.898   5.970  12.877 -0.6779 -0.8254 -0.8027
16445TIP3    H270827   1.915   5.970  13.027 -0.7722  0.9800 -0.7734
16446TIP3   OH270828   4.979   4.356   1.193  0.6137 -0.0803  0.5757
16446TIP3    H170829   5.037   4.298   1.242  1.3275 -0.2715 -0.4416
16446TIP3    H270830   5.036   4.429   1.166  1.2185 -1.5990 -2.8029
16447TIP3   OH270831   0.544   4.795  10.653  0.3339 -0.8706  0.3129
16447TIP3    H170832   0.526   4.729  10.586  1.8268  0.2152 -1.2468
16447TIP3    H270833   0.559   4.875  10.603  2.6074 -0.2513  1.8767
16448TIP3   OH270834   1.932   5.692   5.246  0.0901 -0.0623  0.2082
16448TIP3    H170835   1.902   5.688   5.155 -0.7968 -0.1686  0.5018
16448TIP3    H270836   1.903   5.778   5.277  1.8311  0.6749 -0.0929
16449TIP3   OH270837   5.477   1.273  16.910 -0.3229  0.0324 -1.0575
16449TIP3    H170838   5.451   1.289  17.000  0.4927  0.4685 -0.8819
16449TIP3    H270839   5.456   1.354  16.864 -1.5788 -0.5129 -1.4697
16450TIP3   OH270840   3.828   3.484  12.713 -0.8958  0.4019  0.1276
16450TIP3    H170841   3.737   3.463  12.692 -0.6055  0.3642 -1.1709
16450TIP3    H270842   3.822   3.556  12.775 -1.8288 -0.8177  1.5200
16451TIP3   OH270843   4.445   3.439   3.964 -0.4482  0.2450  0.2440
16451TIP3    H170844   4.440   3.463   4.057  0.6694  0.8183  0.1750
16451TIP3    H270845   4.483   3.351   3.964 -1.5910 -0.2759  0.3581
16452TIP3   OH270846   5.803   2.985   4.470 -0.3024  0.0061 -0.0147
16452TIP3    H170847   5.840   2.899   4.489  2.1797  0.9094 -0.3429
16452TIP3    H270848   5.749   2.972   4.393  2.1350 -0.8480 -1.6856
16453TIP3   OH270849   4.933   1.188   6.041 -0.0554 -0.2559 -0.0453
16453TIP3    H170850   4.962   1.098   6.027  0.4123 -0.0406 -0.4854
16453TIP3    H270851   4.867   1.181   6.110  0.5152 -0.8460  0.4616
16454TIP3   OH270852   3.445   4.426  12.208  0.1463 -0.9483  0.7767
16454TIP3    H170853   3.468   4.433  12.300 -1.1034 -0.6617  1.0807
16454TIP3    H270854   3.362   4.379  12.207  0.3346 -1.2949 -0.2313
16455TIP3   OH270855   6.795   3.325  14.344 -0.1031  0.1183  0.2089
16455TIP3    H170856   6.804   3.244  14.394 -2.4752 -1.0894 -1.1509
16455TIP3    H270857   6.702   3.331  14.323  0.4676  1.5135 -2.4472
16456TIP3   OH270858   2.939   5.766  13.114  0.0157  1.0184 -0.1523
16456TIP3    H170859   2.966   5.675  13.108 -2.4816  0.1228  1.0398
16456TIP3    H270860   2.888   5.781  13.035 -0.9094  0.8808  0.4117
16457TIP3   OH270861   2.884   1.474   3.464  0.1325  1.0115 -0.0882
16457TIP3    H170862   2.820   1.415   3.425  0.2765  0.2485  0.8087
16457TIP3    H270863   2.968   1.430   3.451  0.2237  0.9360  0.7125
16458TIP3   OH270864   1.292   0.137  12.074 -0.9977 -0.0392 -0.2371
16458TIP3    H170865   1.337   0.154  12.157 -0.2848 -1.1743 -0.3758
16458TIP3    H270866   1.361   0.106  12.015 -1.7785 -0.7734 -0.7743
16459TIP3   OH270867   2.771   1.007  10.864  0.5418  0.3618 -0.0418
16459TIP3    H170868   2.780   0.938  10.931  3.6280  1.2387  0.6455
16459TIP3    H270869   2.710   1.069  10.902  0.1365 -0.4865  0.7456
16460TIP3   OH270870   6.671   4.486   1.729 -0.3110  0.0752  0.0182
16460TIP3    H170871   6.746   4.523   1.776 -0.4836 -0.1469  0.4667
16460TIP3    H270872   6.710   4.446   1.651  0.2230 -1.2795  0.9415
16461TIP3   OH270873   1.475   0.401  11.843 -0.2922 -0.1263 -0.1606
16461TIP3    H170874   1.558   0.376  11.883  1.3164  1.6246 -2.1565
16461TIP3    H270875   1.463   0.340  11.771 -0.5934 -0.2031 -0.0481
16462TIP3   OH270876   1.482   5.465  11.400 -0.0074 -0.0321 -0.5417
16462TIP3    H170877   1.436   5.541  11.436 -0.3777 -0.7724  0.6514
16462TIP3    H270878   1.440   5.448  11.316  0.0660  1.0512 -0.8069
16463TIP3   OH270879   3.237   0.811  17.032 -0.4298  0.7564 -0.4122
16463TIP3    H170880   3.229   0.872  16.959  1.4785  1.7098  0.1098
16463TIP3    H270881   3.182   0.849  17.101 -3.4170 -0.8939 -1.6915
16464TIP3   OH270882   1.820   6.667  13.179  0.6971  0.5685  0.0795
16464TIP3    H170883   1.824   6.733  13.110  0.9252 -1.3816 -1.8776
16464TIP3    H270884   1.730   6.671  13.210 -0.0744 -0.0206 -1.9431
16465TIP3   OH270885   2.377   2.802   1.205  0.2229  0.1075 -1.0129
16465TIP3    H170886   2.457   2.749   1.205  0.4554  0.4154 -2.8741
16465TIP3    H270887   2.310   2.744   1.169 -0.7231 -0.5197  1.5367
16466TIP3   OH270888   2.641   2.833  15.206 -0.9881  0.4140 -0.9341
16466TIP3    H170889   2.648   2.794  15.293  0.5586  1.7618 -0.4170
16466TIP3    H270890   2.557   2.801  15.173 -1.0245 -1.1469  0.5212
16467TIP3   OH270891   5.074   1.825  12.438 -0.0969 -0.5369  0.1708
16467TIP3    H170892   5.009   1.852  12.373  1.7060  0.6542 -1.2406
16467TIP3    H270893   5.045   1.865  12.520 -0.4864  1.0913 -0.7132
16468TIP3   OH270894   3.069   1.868  16.993 -0.8927  0.0829  0.4271
16468TIP3    H170895   3.060   1.905  16.905 -2.9528 -0.9579  0.1388
16468TIP3    H270896   3.052   1.941  17.052  2.3480  1.2690  0.1166
16469TIP3   OH270897   0.317   2.760  16.336 -0.6747 -0.6547 -0.0895
16469TIP3    H170898   0.400   2.723  16.365  0.7723  0.5374 -2.4600
16469TIP3    H270899   0.309   2.842  16.384  0.7926  0.4201 -1.5949
16470TIP3   OH270900   2.546   1.954   3.402  0.4681 -0.3422 -0.5253
16470TIP3    H170901   2.482   1.888   3.374 -1.1408  0.5636  0.8356
16470TIP3    H270902   2.608   1.959   3.329 -0.5479 -1.8501 -1.5612
16471TIP3   OH270903   5.400   4.078  15.655 -0.5894  0.6639  0.9144
16471TIP3    H170904   5.493   4.057  15.665 -0.4489 -0.3155 -1.6067
16471TIP3    H270905   5.354   4.003  15.692 -0.2042 -0.9728 -1.6234
16472TIP3   OH270906   2.545   0.009   2.486  0.7027  0.5596 -0.0719
16472TIP3    H170907   2.473  -0.053   2.476  0.8071  0.4331 -0.0383
16472TIP3    H270908   2.617  -0.043   2.523  0.4326  0.9378  1.0357
16473TIP3   OH270909   4.913   4.200   5.802  0.0440 -0.0861 -0.2824
16473TIP3    H170910   4.924   4.181   5.895  1.3986 -3.1663 -0.9465
16473TIP3    H270911   4.849   4.136   5.772  0.6852 -0.0913 -1.7177
16474TIP3   OH270912   1.117   1.872   0.616  0.0680  0.3901 -0.3061
16474TIP3    H170913   1.115   1.781   0.646  1.1981  0.5948  0.4420
16474TIP3    H270914   1.135   1.865   0.522 -1.0697 -0.1804 -0.4963
16475TIP3   OH270915   2.126   6.428   3.797 -0.3891 -0.0020 -0.0961
16475TIP3    H170916   2.104   6.455   3.708 -1.4379  1.2181  0.5122
16475TIP3    H270917   2.205   6.374   3.786 -0.9679 -0.5843 -1.8379
16476TIP3   OH270918   3.519   5.663  14.880 -0.6826 -0.4508 -0.1267
16476TIP3    H170919   3.608   5.653  14.912 -0.8168 -0.5857  0.2001
16476TIP3    H270920   3.479   5.725  14.940  0.0007  1.8004 -1.8409
16477TIP3   OH270921   6.338   1.167   4.155 -0.0208  0.0563 -1.0203
16477TIP3    H170922   6.326   1.078   4.124  0.6288  0.1054 -1.4104
16477TIP3    H270923   6.379   1.213   4.082  0.9368  0.3286 -0.3308
16478TIP3   OH270924   4.304   4.225   4.811 -0.3014 -0.2231 -0.0668
16478TIP3    H170925   4.398   4.238   4.797 -0.2523 -0.1402  0.3052
16478TIP3    H270926   4.267   4.220   4.724 -0.0042  0.1401 -0.2161
16479TIP3   OH270927   4.165   6.277  15.174 -0.2336  0.5514 -0.0168
16479TIP3    H170928   4.132   6.207  15.230 -0.7687  0.6669 -0.1838
16479TIP3    H270929   4.110   6.273  15.095  1.0369 -0.1521 -0.9051
16480TIP3   OH270930   1.938   6.215   3.809 -0.3946  0.0620  0.3769
16480TIP3    H170931   1.990   6.139   3.782 -2.3991 -0.3827 -2.6786
16480TIP3    H270932   1.995   6.290   3.795  0.6512 -0.6425  0.7139
16481TIP3   OH270933   2.528   6.586  12.391 -0.0303  0.1905 -0.4652
16481TIP3    H170934   2.621   6.569  12.402 -0.0789 -1.3980 -1.9815
16481TIP3    H270935   2.488   6.562  12.475  1.0184  2.3401  0.7401
16482TIP3   OH270936   2.005   4.017   4.388  0.0696 -0.1097 -0.4699
16482TIP3    H170937   1.926   4.009   4.442  0.9052  0.8263  0.9537
16482TIP3    H270938   2.067   3.957   4.428  1.3088  1.9267  0.8133
16483TIP3   OH270939   4.696   3.897   3.734 -0.3611  0.5587  0.2078
16483TIP3    H170940   4.776   3.880   3.684  0.0518 -1.2820  1.4033
16483TIP3    H270941   4.707   3.987   3.766  0.2197  1.0915 -1.3770
16484TIP3   OH270942   6.506   0.451   5.875  0.8260 -0.2144  0.1741
16484TIP3    H170943   6.541   0.492   5.796  3.7529  0.0053  1.4590
16484TIP3    H270944   6.434   0.509   5.901  0.8827  0.6299 -1.3911
16485TIP3   OH270945   2.160   4.544   3.812 -0.9628  0.3995  0.6848
16485TIP3    H170946   2.109   4.473   3.773 -0.2638  0.1284  0.2363
16485TIP3    H270947   2.241   4.502   3.842 -0.5356  1.0005  0.4013
16486TIP3   OH270948   2.479   6.513   2.044 -0.3467 -0.1188 -0.0388
16486TIP3    H170949   2.384   6.505   2.052 -0.1896 -1.4500  0.8883
16486TIP3    H270950   2.498   6.485   1.955 -0.7847 -0.3968 -0.0467
16487TIP3   OH270951   5.028   5.223   3.305  0.1797 -0.0911 -0.0796
16487TIP3    H170952   5.008   5.248   3.215 -0.3839  1.2347  0.4003
16487TIP3    H270953   4.961   5.265   3.358  0.7058 -0.5708  1.0048
16488TIP3   OH270954   6.534   4.033  15.101 -0.7482 -0.0933  0.2102
16488TIP3    H170955   6.479   4.104  15.133 -0.0877 -0.1757  1.5537
16488TIP3    H270956   6.603   4.076  15.051 -0.5891  0.1848  0.6651
16489TIP3   OH270957   3.302   6.366  14.748 -0.1505  0.2483 -0.3844
16489TIP3    H170958   3.264   6.278  14.742  1.1630 -0.3254 -0.5739
16489TIP3    H270959   3.306   6.397  14.657  1.7775 -0.5793 -0.6342
16490TIP3   OH270960   5.752   5.336  16.318  0.4525  0.2707  0.1494
16490TIP3    H170961   5.828   5.289  16.350  0.1861  0.5398  1.2027
16490TIP3    H270962   5.764   5.339  16.223  0.9319 -1.1032  0.1486
16491TIP3   OH270963   3.195   6.241   2.442  0.1714 -0.3356  0.2667
16491TIP3    H170964   3.273   6.280   2.482  0.0632 -0.0225  0.1798
16491TIP3    H270965   3.140   6.215   2.515 -0.3081  0.8072  0.3296
16492TIP3   OH270966   0.056   2.693  13.808  0.3544  0.0408 -0.4199
16492TIP3    H170967   0.107   2.745  13.746  0.5679  2.1312  1.3662
16492TIP3    H270968   0.119   2.631  13.845  1.3416  1.6086  0.6819
16493TIP3   OH270969   3.024   3.711  12.062  0.1754 -0.1811 -0.0241
16493TIP3    H170970   3.052   3.764  11.987 -2.5564 -0.7757 -1.5853
16493TIP3    H270971   2.959   3.765  12.107 -0.4262 -1.0082  0.1255
16494TIP3   OH270972   1.105   5.977  13.633  0.1369 -0.1001 -0.0026
16494TIP3    H170973   1.113   5.891  13.674  0.9012 -0.6432 -1.2154
16494TIP3    H270974   1.116   5.959  13.539  1.1755  1.4190 -0.2073
16495TIP3   OH270975   1.238   2.516  13.566  0.1500 -0.2391 -0.3316
16495TIP3    H170976   1.303   2.580  13.595 -0.8310 -0.1484  1.8999
16495TIP3    H270977   1.259   2.500  13.474  2.6024  0.6248 -0.0024
16496TIP3   OH270978   2.403   3.836   4.267 -0.1068 -0.3709 -0.0518
16496TIP3    H170979   2.317   3.834   4.308  0.0491 -2.5473  0.2794
16496TIP3    H270980   2.384   3.850   4.174 -0.7913 -0.4632  0.0656
16497TIP3   OH270981   6.772   3.076   2.284  0.0435  0.3845  0.4723
16497TIP3    H170982   6.683   3.046   2.301 -0.2151  0.3003 -0.9013
16497TIP3    H270983   6.804   3.108   2.368  0.0477 -2.9386  1.8868
16498TIP3   OH270984   5.611   6.358  14.333  0.1155 -0.0427  0.0628
16498TIP3    H170985   5.538   6.321  14.382  0.1252 -1.3914 -0.8830
16498TIP3    H270986   5.580   6.360  14.242  0.9526  0.1292 -0.2277
16499TIP3   OH270987   2.922   6.411   2.923 -0.4162  0.1408  0.0844
16499TIP3    H170988   2.982   6.339   2.904 -1.7975 -1.3761  1.2264
16499TIP3    H270989   2.835   6.377   2.902 -1.1086  1.5008  0.5929
16500TIP3   OH270990   6.593   5.176  13.675 -0.1488  0.7086  0.1250
16500TIP3    H170991   6.636   5.229  13.607  0.5284 -2.0673 -1.8124
16500TIP3    H270992   6.663   5.154  13.736  0.4966 -0.8730 -1.0970
16501TIP3   OH270993   0.133   0.667  15.678 -0.8049  0.2008  0.6201
16501TIP3    H170994   0.203   0.656  15.614 -1.5978 -1.4956  0.0120
16501TIP3    H270995   0.129   0.584  15.725 -1.1290  0.9482  1.9943
16502TIP3   OH270996   6.126   2.525   4.658 -0.3571  0.1886  0.8207
16502TIP3    H170997   6.186   2.583   4.705 -0.9234  1.6380 -0.1799
16502TIP3    H270998   6.163   2.437   4.670  1.6551  0.9766  0.7155
16503TIP3   OH270999   0.872   0.692   4.005 -0.0133 -0.2114 -0.0985
16503TIP3    H171000   0.955   0.653   4.033 -0.7328 -1.8381 -0.1375
16503TIP3    H271001   0.883   0.785   4.024  2.0484 -0.2728 -0.6773
16504TIP3   OH271002   6.600   3.428  10.608 -0.2073  0.0303 -0.4727
16504TIP3    H171003   6.626   3.361  10.545 -0.9576 -2.1747  1.4100
16504TIP3    H271004   6.551   3.492  10.556  0.9178 -0.5917 -2.4252
16505TIP3   OH271005   3.416   2.982   0.283 -0.1483 -0.2410 -0.3160
16505TIP3    H171006   3.366   3.062   0.270 -0.0960  0.1366  1.6209
16505TIP3    H271007   3.357   2.924   0.331 -0.2340 -1.4457 -1.7937
16506TIP3   OH271008   2.463   1.244   4.579  0.3208 -0.1274  0.5152
16506TIP3    H171009   2.527   1.300   4.534  0.1444 -0.0877  0.3123
16506TIP3    H271010   2.516   1.192   4.640  0.4828  0.2791  0.7231
16507TIP3   OH271011   0.935   3.938   2.801  0.4226  0.5715 -0.5068
16507TIP3    H171012   0.868   3.887   2.846  0.0985  1.3297 -0.1126
16507TIP3    H271013   0.905   3.940   2.710  0.7209 -0.3866 -0.6334
16508TIP3   OH271014   3.161   0.327   2.792  0.9486  0.7438 -0.0081
16508TIP3    H171015   3.100   0.378   2.739  2.2420  0.2106 -2.1567
16508TIP3    H271016   3.174   0.379   2.871 -0.7188  1.8133 -0.3838
16509TIP3   OH271017   5.196   2.476  14.367 -0.3101 -0.4818 -0.4433
16509TIP3    H171018   5.171   2.429  14.446 -1.0618  1.5128  0.5850
16509TIP3    H271019   5.290   2.492  14.378 -0.4525 -0.0170  0.1835
16510TIP3   OH271020   2.999   5.402   1.375  0.4178 -0.4069  0.0705
16510TIP3    H171021   2.942   5.424   1.449 -0.2079 -0.5048 -0.3770
16510TIP3    H271022   3.004   5.483   1.324 -1.5338 -1.0971 -1.3432
16511TIP3   OH271023   4.365   0.144   4.274 -0.1497  0.3447 -0.2096
16511TIP3    H171024   4.294   0.181   4.222  1.0636 -0.0304 -2.2540
16511TIP3    H271025   4.323   0.113   4.355 -1.6876  3.2635  0.2167
16512TIP3   OH271026   0.494   3.407  14.576 -0.3087 -1.0821  0.2632
16512TIP3    H171027   0.408   3.429  14.539 -0.6042 -2.5219  0.0181
16512TIP3    H271028   0.556   3.428  14.506 -0.5541 -0.8699  0.1063
16513TIP3   OH271029   4.453   2.842  14.707 -0.5132 -0.6711  0.2543
16513TIP3    H171030   4.526   2.880  14.756  0.7845  0.2751 -2.2303
16513TIP3    H271031   4.421   2.772  14.763  2.2011 -1.0097  1.5578
16514TIP3   OH271032   1.431   5.472  12.380 -0.0929 -0.0832 -0.4449
16514TIP3    H171033   1.387   5.524  12.313 -2.5226  0.3085  1.3422
16514TIP3    H271034   1.438   5.531  12.455  3.3703 -0.2196 -0.5147
16515TIP3   OH271035   4.892   1.588  12.776 -0.3032 -0.8553 -0.5756
16515TIP3    H171036   4.848   1.543  12.705 -0.8846  0.2639 -0.9612
16515TIP3    H271037   4.869   1.538  12.854  2.9151 -3.9821 -1.4209
16516TIP3   OH271038   0.872   5.837   5.504 -0.1964 -0.5259  0.0890
16516TIP3    H171039   0.811   5.841   5.430 -1.1266 -0.4202  0.8357
16516TIP3    H271040   0.946   5.891   5.478 -0.7115 -0.1373 -0.5844
16517TIP3   OH271041   0.797   2.116  12.473  0.4406  0.4034 -0.4943
16517TIP3    H171042   0.785   2.211  12.468 -1.2548  0.3866  1.5561
16517TIP3    H271043   0.723   2.080  12.424  0.1761  0.1715  0.0651
16518TIP3   OH271044   2.214   4.809   2.451 -0.9659 -0.3819 -0.3610
16518TIP3    H171045   2.214   4.893   2.496 -1.2061 -0.3129 -0.4896
16518TIP3    H271046   2.142   4.760   2.490 -1.5220 -0.1227 -1.0280
16519TIP3   OH271047   0.589   0.581   5.673 -0.1041 -0.1496 -0.7525
16519TIP3    H171048   0.559   0.541   5.591  0.9352  1.2245 -1.8652
16519TIP3    H271049   0.598   0.508   5.734 -1.2686 -1.1622 -1.7300
16520TIP3   OH271050   5.975   4.457  12.939 -0.4125  0.2842  0.4713
16520TIP3    H171051   5.888   4.490  12.916 -0.5070  0.0080  0.4308
16520TIP3    H271052   5.963   4.414  13.024  0.1023  2.0069  1.4675
16521TIP3   OH271053   3.184   5.168  16.150 -0.2101  0.0560  0.2471
16521TIP3    H171054   3.261   5.201  16.105 -0.7720  0.7167 -0.2388
16521TIP3    H271055   3.112   5.222  16.119 -1.2878 -1.9908 -1.0663
16522TIP3   OH271056   4.647   0.631   1.605 -0.1039  0.4629 -0.5577
16522TIP3    H171057   4.576   0.652   1.666  0.3966  0.3102  0.0854
16522TIP3    H271058   4.652   0.535   1.607  0.8277  0.5098  0.2384
16523TIP3   OH271059   6.180   0.821  11.785  0.1353  0.3786 -0.1565
16523TIP3    H171060   6.201   0.868  11.705 -0.7234  0.7771 -0.1467
16523TIP3    H271061   6.177   0.729  11.758  0.3689  0.4597 -0.4671
16524TIP3   OH271062   1.549   2.479  16.793  0.2058  0.3524 -0.1624
16524TIP3    H171063   1.506   2.401  16.830 -2.4533  1.5011 -0.6019
16524TIP3    H271064   1.622   2.496  16.852 -0.4528 -1.2132  1.1911
16525TIP3   OH271065   6.027   4.234   1.784  0.0574 -0.1265  0.1311
16525TIP3    H171066   6.033   4.193   1.698 -0.8958  0.2566 -0.1414
16525TIP3    H271067   6.008   4.162   1.844  1.2228 -0.4628  0.1037
16526TIP3   OH271068   3.364   5.913   1.177 -0.0343  0.1644  0.1683
16526TIP3    H171069   3.309   5.980   1.219 -0.2770 -0.3124  0.6163
16526TIP3    H271070   3.450   5.925   1.216  0.2742  1.1008 -0.7393
16527TIP3   OH271071   4.783   4.433   3.903  0.2444  0.2874  0.8140
16527TIP3    H171072   4.824   4.384   3.832  1.4786  0.1690  1.5567
16527TIP3    H271073   4.800   4.380   3.981  1.2961  1.6604  1.5913
16528TIP3   OH271074   2.939   4.315   5.830 -0.6219  0.0714 -0.3780
16528TIP3    H171075   2.847   4.338   5.815 -0.7360 -0.2523 -0.2048
16528TIP3    H271076   2.951   4.233   5.781 -0.5409 -0.1084 -0.0595
16529TIP3   OH271077   5.876   0.694   6.242  0.6075 -0.0409 -0.0462
16529TIP3    H171078   5.970   0.685   6.256  1.2457  1.8740 -2.4465
16529TIP3    H271079   5.837   0.673   6.327  3.0825 -1.8230  0.7749
16530TIP3   OH271080   1.194   0.142  14.251 -0.7520  0.3455 -0.5298
16530TIP3    H171081   1.263   0.190  14.205  1.1210 -2.5196 -0.9616
16530TIP3    H271082   1.131   0.118  14.183 -1.4533  1.7026 -0.3889
16531TIP3   OH271083   6.464   0.242   0.989  0.1790  0.2835  0.3274
16531TIP3    H171084   6.495   0.153   1.004  2.1868  1.0754  1.3643
16531TIP3    H271085   6.372   0.240   1.015 -0.1915 -1.7544 -0.9228
16532TIP3   OH271086   5.283   1.783   4.972  0.1680  0.2776  0.4591
16532TIP3    H171087   5.325   1.805   4.889 -0.6271  1.7562  0.4153
16532TIP3    H271088   5.328   1.837   5.037  0.3876 -0.4310  0.9047
16533TIP3   OH271089   0.053   1.578   2.893 -0.8288 -0.1527  0.5996
16533TIP3    H171090   0.141   1.542   2.901 -0.7723 -1.0375 -2.7811
16533TIP3    H271091  -0.004   1.512   2.933 -0.3250 -2.0584 -1.6303
16534TIP3   OH271092   5.742   6.217   0.201  0.0221  0.1453  0.5120
16534TIP3    H171093   5.709   6.300   0.235 -0.5799  0.3765 -0.6055
16534TIP3    H271094   5.675   6.153   0.225  0.3575  0.0170  1.1352
16535TIP3   OH271095   5.461   6.383   3.928  0.3779 -0.0342  0.7654
16535TIP3    H171096   5.456   6.433   3.847 -0.9474 -0.0149  0.8455
16535TIP3    H271097   5.436   6.445   3.996 -3.1138 -1.1614  0.6859
16536TIP3   OH271098   6.667   6.836  17.103 -0.1318 -0.6224  0.6867
16536TIP3    H171099   6.649   6.797  17.189  0.6381 -0.6640  0.8406
16536TIP3    H271100   6.588   6.819  17.052 -0.0778 -1.7820  0.9645
16537TIP3   OH271101   3.733   4.505  14.372 -0.3209 -0.4863  0.3117
16537TIP3    H171102   3.826   4.521  14.357 -0.9998  1.9105 -2.1771
16537TIP3    H271103   3.722   4.411  14.354  1.3994 -0.5388 -0.7124
16538TIP3   OH271104   6.764   2.978  12.118 -0.5289 -0.4910 -0.0169
16538TIP3    H171105   6.826   2.999  12.188  1.0960 -1.0039 -1.2326
16538TIP3    H271106   6.684   2.952  12.164 -0.2574  1.2939  1.5985
16539TIP3   OH271107   3.420   3.424  12.094 -0.1248 -0.0522  0.5387
16539TIP3    H171108   3.472   3.378  12.028 -0.2945 -0.5806  0.7730
16539TIP3    H271109   3.329   3.408  12.068 -0.2091  1.6112 -0.3952
16540TIP3   OH271110   4.974   5.332   0.214 -0.5159  0.2618  0.1088
16540TIP3    H171111   4.887   5.294   0.229 -1.6627  2.0215 -1.5710
16540TIP3    H271112   4.989   5.389   0.289 -0.6377 -0.3308  0.5879
16541TIP3   OH271113   3.867   2.372   4.127 -0.3918 -0.1809  0.8306
16541TIP3    H171114   3.906   2.400   4.209 -1.5692 -0.5571  1.5359
16541TIP3    H271115   3.902   2.285   4.111  1.0559  0.4987  0.0990
16542TIP3   OH271116   4.841   1.027   1.080  0.0688  0.2867  0.1067
16542TIP3    H171117   4.745   1.030   1.072  0.1647  0.7465 -1.0580
16542TIP3    H271118   4.863   1.102   1.135 -0.0820  1.7028 -1.6572
16543TIP3   OH271119   4.907   0.263   4.596 -0.1926  0.1560 -0.3191
16543TIP3    H171120   4.864   0.306   4.670  1.4552  1.7418 -0.2350
16543TIP3    H271121   4.994   0.240   4.629  0.0647 -0.4007 -1.3559
16544TIP3   OH271122   0.760   3.861   1.180 -0.1583 -0.2639  1.0384
16544TIP3    H171123   0.710   3.794   1.226 -0.8561  0.1376  0.8902
16544TIP3    H271124   0.845   3.822   1.165 -0.7325 -1.3303  0.4532
16545TIP3   OH271125   6.089   0.917   1.610 -0.0816  0.0397 -0.4899
16545TIP3    H171126   6.053   0.876   1.532  1.1975  0.5649 -1.3828
16545TIP3    H271127   6.087   0.849   1.677 -0.9209 -0.4977 -1.0443
16546TIP3   OH271128   2.567   5.498  14.366  0.1964 -0.5514  0.1750
16546TIP3    H171129   2.578   5.406  14.341  2.0506 -0.0317 -1.1079
16546TIP3    H271130   2.655   5.528  14.386 -0.3506  1.0346  0.3228
16547TIP3   OH271131   5.679   4.651   3.447 -0.5927  0.4036 -1.0788
16547TIP3    H171132   5.707   4.559   3.451  0.3084  0.6911 -0.3685
16547TIP3    H271133   5.602   4.655   3.504  0.3970  0.4154  0.3091
16548TIP3   OH271134   2.023   4.512  12.019  0.1136 -0.3215  0.1914
16548TIP3    H171135   2.042   4.452  11.947 -1.7696 -0.6555 -0.0801
16548TIP3    H271136   1.978   4.457  12.084  2.5885 -0.2678  2.1236
16549TIP3   OH271137   3.549   3.125   3.305 -0.0588  0.2028  0.2489
16549TIP3    H171138   3.511   3.119   3.393  0.3781  1.5196  0.5482
16549TIP3    H271139   3.633   3.079   3.312  0.1496  0.6298  0.6360
16550TIP3   OH271140   5.515   0.036  13.684 -0.7770  0.1183  0.4173
16550TIP3    H171141   5.601   0.070  13.711  0.0244 -1.5901  0.1704
16550TIP3    H271142   5.508   0.058  13.591  0.8691 -2.4215 -0.4133
16551TIP3   OH271143   4.717   3.960  12.769  0.2200 -0.0351  1.1103
16551TIP3    H171144   4.801   3.992  12.801  0.4275  0.3291  0.2313
16551TIP3    H271145   4.711   3.871  12.803  1.8969 -0.8060 -0.4489
16552TIP3   OH271146   4.209   5.343   2.789 -0.0529 -0.4875 -0.5741
16552TIP3    H171147   4.299   5.351   2.819  0.8287  0.3305 -3.1227
16552TIP3    H271148   4.207   5.392   2.706 -2.6659 -1.0539 -0.9382
16553TIP3   OH271149   5.634   6.077  16.840  0.2378 -0.3670  0.2998
16553TIP3    H171150   5.637   6.041  16.751  0.4635 -0.0669  0.1828
16553TIP3    H271151   5.581   6.156  16.832 -1.7016 -1.5426  0.8818
16554TIP3   OH271152   4.201   6.312  13.736  0.0223 -0.2436  0.1070
16554TIP3    H171153   4.180   6.402  13.712  1.6639 -0.2382 -1.5657
16554TIP3    H271154   4.205   6.313  13.831  1.3219  1.7975  0.0883
16555TIP3   OH271155   0.370   4.930  13.380 -0.7598 -0.6604 -0.5615
16555TIP3    H171156   0.326   4.846  13.369 -2.4690  0.1846 -0.4982
16555TIP3    H271157   0.333   4.967  13.460 -0.1416  0.2279 -0.6635
16556TIP3   OH271158   1.689   3.886   3.692 -0.6113 -0.8284 -0.0524
16556TIP3    H171159   1.760   3.917   3.636  0.1686 -1.0385  0.7965
16556TIP3    H271160   1.609   3.908   3.644 -0.0007  0.1100 -0.6657
16557TIP3   OH271161   4.761   0.141   0.343 -0.4240 -0.0948  0.5562
16557TIP3    H171162   4.763   0.224   0.391 -1.0960  0.7815 -0.8710
16557TIP3    H271163   4.675   0.105   0.363 -1.5132  1.2189 -1.4423
16558TIP3   OH271164   6.432   0.855   1.388  0.4065 -0.3536 -0.5820
16558TIP3    H171165   6.470   0.883   1.472 -0.4529  0.1412 -0.3426
16558TIP3    H271166   6.472   0.912   1.323 -0.1525  0.3787 -0.2923
16559TIP3   OH271167   6.758   3.466  11.210  0.0413 -0.7879 -0.1799
16559TIP3    H171168   6.676   3.466  11.160  1.3117  0.2172 -2.4126
16559TIP3    H271169   6.785   3.375  11.211 -0.7885 -1.0391  0.0298
16560TIP3   OH271170   4.453   6.768  13.115 -0.3525 -0.0915  0.0849
16560TIP3    H171171   4.495   6.766  13.201 -0.4703  0.8931  0.1805
16560TIP3    H271172   4.448   6.676  13.088 -1.7249 -0.5799  1.8238
16561TIP3   OH271173   3.179   4.369   5.126 -0.5223  0.0346  0.6023
16561TIP3    H171174   3.243   4.298   5.119 -1.2969 -0.5306 -1.5523
16561TIP3    H271175   3.215   4.439   5.072 -1.4124 -0.1081 -0.2285
16562TIP3   OH271176   6.296   2.308   3.989 -0.4806 -0.0818 -0.0100
16562TIP3    H171177   6.252   2.224   3.978 -0.6139 -0.4277  2.6192
16562TIP3    H271178   6.389   2.287   3.989 -0.5086 -0.2167  0.4392
16563TIP3   OH271179   6.207   0.975  14.879  0.2297  0.5902  0.0637
16563TIP3    H171180   6.213   0.901  14.817 -1.7560  0.0877  0.4173
16563TIP3    H271181   6.297   0.987  14.910  1.2525  0.6766 -2.6741
16564TIP3   OH271182   1.011   3.075   2.446  0.0562  0.0222 -0.3033
16564TIP3    H171183   1.100   3.074   2.411 -0.2214 -3.4499 -1.3545
16564TIP3    H271184   0.957   3.106   2.374  0.0313 -2.3265 -1.4023
16565TIP3   OH271185   0.026   0.540  13.758  0.1486 -0.0840 -0.7251
16565TIP3    H171186   0.120   0.529  13.767  0.1044  0.0372 -0.1030
16565TIP3    H271187  -0.012   0.468  13.807 -0.0878  0.0850 -0.6558
16566TIP3   OH271188   4.647   2.447  16.365  0.2051 -0.2294 -0.3532
16566TIP3    H171189   4.555   2.437  16.339  0.1367  1.4764 -0.9030
16566TIP3    H271190   4.671   2.535  16.335  1.7016 -0.2213  0.7556
16567TIP3   OH271191   2.267   0.811  15.086 -0.0026 -0.3829 -0.4726
16567TIP3    H171192   2.340   0.831  15.145  0.3291 -0.9062 -0.6939
16567TIP3    H271193   2.308   0.802  15.000  0.0612 -2.8987 -0.2709
16568TIP3   OH271194   1.504   2.339   2.972 -0.2530 -0.5682 -0.3224
16568TIP3    H171195   1.552   2.317   2.892 -1.4377 -0.2103 -1.1654
16568TIP3    H271196   1.473   2.255   3.005 -1.3879 -0.5708 -1.3282
16569TIP3   OH271197   5.541   5.826  15.610 -0.4361  0.3159  0.2480
16569TIP3    H171198   5.600   5.867  15.547 -1.2612  0.3138 -0.5601
16569TIP3    H271199   5.519   5.896  15.672 -0.3789  0.5851 -0.0346
16570TIP3   OH271200   1.263   0.523  13.319 -0.2049 -0.3189 -0.2648
16570TIP3    H171201   1.251   0.446  13.375 -3.0933 -1.0511 -1.7220
16570TIP3    H271202   1.175   0.559  13.307  0.4807  0.7212 -3.0339
16571TIP3   OH271203   1.057   0.089   3.112  0.1587  0.4964 -0.1487
16571TIP3    H171204   1.086   0.043   3.033 -0.9724 -1.4769  0.5249
16571TIP3    H271205   1.007   0.164   3.078 -0.1987 -0.2433 -1.3253
16572TIP3   OH271206   4.610   2.312  12.005  0.4661  0.2050  0.0602
16572TIP3    H171207   4.683   2.262  11.968  1.1042  1.7551 -0.8677
16572TIP3    H271208   4.650   2.394  12.036 -1.0287  1.7816 -1.8914
16573TIP3   OH271209   2.516   5.487   3.637  0.3999 -0.5335  0.2767
16573TIP3    H171210   2.574   5.524   3.571  0.9017  0.9175  1.4649
16573TIP3    H271211   2.573   5.434   3.692  0.2454 -0.6476  0.3264
16574TIP3   OH271212   6.243   6.075  15.073 -0.1869 -0.3376  0.0190
16574TIP3    H171213   6.231   6.170  15.065  0.5431 -0.3651 -1.9376
16574TIP3    H271214   6.154   6.040  15.072 -0.4384  0.2355 -1.4924
16575TIP3   OH271215   0.046   6.296  12.761 -0.4766  0.1600 -0.4164
16575TIP3    H171216   0.042   6.212  12.806 -2.1354 -0.2762 -1.2963
16575TIP3    H271217  -0.021   6.350  12.803  0.6607  1.1186  0.2300
16576TIP3   OH271218   6.042   1.560   4.832 -0.4656 -0.1390 -0.0991
16576TIP3    H171219   6.050   1.549   4.737 -1.1240 -0.4628 -0.1243
16576TIP3    H271220   5.987   1.486   4.860  1.2011 -1.0860  0.7934
16577TIP3   OH271221   1.548   6.357   4.286 -0.1851  0.4059 -0.1574
16577TIP3    H171222   1.540   6.358   4.190  0.7376 -1.8358 -0.3093
16577TIP3    H271223   1.615   6.423   4.305 -1.4185  1.9456 -0.8670
16578TIP3   OH271224   0.678   3.738  15.410 -0.5330  0.0967  0.5222
16578TIP3    H171225   0.673   3.791  15.331  0.2949 -0.3131  0.1795
16578TIP3    H271226   0.628   3.787  15.476  2.1861  2.5593  0.9393
16579TIP3   OH271227   0.841   6.674   5.915 -0.2537  0.3856  0.7336
16579TIP3    H171228   0.773   6.625   5.960  0.7143 -0.6965  1.0818
16579TIP3    H271229   0.915   6.673   5.976  0.4505  0.5457 -0.1010
16580TIP3   OH271230   3.292   1.067   2.308  0.0791  0.1941  0.0494
16580TIP3    H171231   3.291   1.008   2.232  0.8738 -1.2967  1.1366
16580TIP3    H271232   3.226   1.032   2.367 -1.4526  2.0958 -0.4207
16581TIP3   OH271233   2.438   1.126  13.087  0.3141  0.3750 -0.2586
16581TIP3    H171234   2.368   1.181  13.121 -0.4855 -0.5936 -0.3128
16581TIP3    H271235   2.451   1.059  13.154  1.1457  0.4975 -0.2829
16582TIP3   OH271236   0.860   0.080   5.459  0.1374 -0.5951  0.6321
16582TIP3    H171237   0.829   0.167   5.484  0.3654 -0.3937  0.2246
16582TIP3    H271238   0.880   0.037   5.542 -1.8269 -0.9728  0.9467
16583TIP3   OH271239   1.693   4.525  16.680  0.5153 -0.3848  0.0618
16583TIP3    H171240   1.643   4.540  16.599  0.8395 -0.1185 -0.0908
16583TIP3    H271241   1.718   4.612  16.709 -0.1641 -0.4226  0.8201
16584TIP3   OH271242   3.066   4.383  17.145 -0.0403 -0.4285  0.1496
16584TIP3    H171243   3.102   4.391  17.057  0.5408  0.1281  0.4342
16584TIP3    H271244   2.975   4.412  17.136  0.9650  3.3438  0.4183
16585TIP3   OH271245   0.676   2.810  12.975 -0.4516 -0.1727  0.3189
16585TIP3    H171246   0.630   2.775  13.051 -2.8811  0.2408 -0.8703
16585TIP3    H271247   0.625   2.886  12.948  1.2324  0.6368 -0.8115
16586TIP3   OH271248   3.458   5.248   1.797 -0.1116  0.3716 -0.3792
16586TIP3    H171249   3.414   5.235   1.714 -0.0751  0.7380 -0.4603
16586TIP3    H271250   3.533   5.189   1.794 -0.4792 -0.0977 -0.3272
16587TIP3   OH271251   3.915   3.521  12.431  0.3365 -0.1628 -0.3147
16587TIP3    H171252   3.851   3.458  12.398  0.8105 -2.0891  2.1348
16587TIP3    H271253   3.889   3.536  12.522  2.6998 -0.1705  0.4225
16588TIP3   OH271254   0.475   6.066   4.912  0.0197 -0.3581  0.9889
16588TIP3    H171255   0.502   6.051   4.821 -0.8523 -0.9025  0.8054
16588TIP3    H271256   0.531   6.137   4.942  1.7315 -1.5130  0.6766
16589TIP3   OH271257   1.653   0.718  13.520 -0.3494  0.4487 -0.1149
16589TIP3    H171258   1.563   0.732  13.550 -0.3878  0.4036 -0.2077
16589TIP3    H271259   1.646   0.644  13.459 -0.0487 -0.4216  0.8779
16590TIP3   OH271260   1.088   2.380  12.361 -0.4202  0.4167  0.2130
16590TIP3    H171261   1.099   2.285  12.354 -0.0008  0.4699  0.1082
16590TIP3    H271262   1.168   2.409  12.406 -0.3156  0.7785 -0.2082
16591TIP3   OH271263   0.978   0.745  17.112  0.5673  0.2137  0.5154
16591TIP3    H171264   0.913   0.744  17.042  0.3677 -0.7025  0.6926
16591TIP3    H271265   1.052   0.793  17.076  0.4485 -0.1986 -0.3117
16592TIP3   OH271266   4.458   3.292   0.410  0.1551  0.0946 -0.4557
16592TIP3    H171267   4.458   3.272   0.503 -0.5546  1.4779 -0.1395
16592TIP3    H271268   4.529   3.355   0.399  0.3152 -0.1562 -0.8719
16593TIP3   OH271269   0.433   4.718  16.471 -0.3587  0.1012  0.3854
16593TIP3    H171270   0.493   4.650  16.441  1.0033  2.3594 -2.5589
16593TIP3    H271271   0.347   4.677  16.468  0.5838 -2.0515  0.7253
16594TIP3   OH271272   0.926   0.444   5.991 -0.1125 -1.3262  0.0755
16594TIP3    H171273   0.901   0.514   5.931  0.0391 -2.3117 -1.1738
16594TIP3    H271274   1.014   0.418   5.964  0.9052 -0.3222  2.1553
16595TIP3   OH271275   2.178   6.329   5.326 -0.3148  0.2748 -0.1279
16595TIP3    H171276   2.266   6.353   5.297 -0.5262 -0.8889 -1.9218
16595TIP3    H271277   2.121   6.394   5.286 -0.3226  0.8204  0.7456
16596TIP3   OH271278   2.914   5.100   4.440  0.4035  0.2591 -0.2750
16596TIP3    H171279   2.904   5.065   4.528  1.1686 -0.3124 -0.4059
16596TIP3    H271280   2.914   5.195   4.452 -0.6264  0.2047  0.2017
16597TIP3   OH271281   4.412   5.498   0.256  0.6979 -0.7362  0.3342
16597TIP3    H171282   4.498   5.539   0.268  0.2694  0.5361 -0.7553
16597TIP3    H271283   4.375   5.541   0.179  0.2657 -3.3214 -1.0018
16598TIP3   OH271284   5.297   5.326   2.846 -0.1521  0.3360  0.4480
16598TIP3    H171285   5.211   5.306   2.885 -0.6760  0.4539 -0.6177
16598TIP3    H271286   5.331   5.241   2.818 -0.4987  0.4361 -0.2863
16599TIP3   OH271287   4.608   0.698   2.748 -0.2309  0.2342  0.9036
16599TIP3    H171288   4.605   0.727   2.657  0.4468  0.0388  0.8144
16599TIP3    H271289   4.696   0.719   2.778  0.2339 -1.4904  0.8975
16600TIP3   OH271290   5.429   2.648  17.072 -0.3336 -0.4168  0.0657
16600TIP3    H171291   5.369   2.621  17.141  0.2617  0.1538  0.8233
16600TIP3    H271292   5.488   2.573  17.062 -1.9162 -1.5327 -1.6106
16601TIP3   OH271293   1.429   5.461  15.757 -0.7737  0.3145 -0.0681
16601TIP3    H171294   1.507   5.418  15.791 -0.5974  0.0729 -0.7474
16601TIP3    H271295   1.377   5.483  15.834 -0.6793 -0.7708  0.3193
16602TIP3   OH271296   5.832   4.977  16.302  0.1698  0.0062 -0.1957
16602TIP3    H171297   5.779   4.928  16.239 -2.5156 -0.1546  2.0280
16602TIP3    H271298   5.848   4.914  16.373 -0.7364  1.4292  1.3192
16603TIP3   OH271299   5.922   5.170   4.660  0.0977  0.0648 -0.2736
16603TIP3    H171300   5.919   5.250   4.607  2.4950 -0.8554 -1.9861
16603TIP3    H271301   5.844   5.175   4.715  0.0388  3.4537 -0.4411
16604TIP3   OH271302   6.043   4.810   5.347  0.5702 -0.5198 -0.1077
16604TIP3    H171303   6.053   4.729   5.397  1.4170 -0.2644  0.1462
16604TIP3    H271304   6.036   4.879   5.413 -0.3739 -0.3996 -0.3168
16605TIP3   OH271305   4.748   6.146   2.879  0.2649 -0.0775 -0.2691
16605TIP3    H171306   4.679   6.103   2.928  0.1568  0.1122 -0.2528
16605TIP3    H271307   4.770   6.085   2.809  0.2783 -0.2598 -0.1054
16606TIP3   OH271308   4.945   1.091   2.051 -0.0800  0.0295 -0.2820
16606TIP3    H171309   4.910   1.177   2.027  0.0687  0.3633  0.6869
16606TIP3    H271310   4.960   1.047   1.967 -0.2444  0.9111 -0.7780
16607TIP3   OH271311   1.248   0.606  17.037  0.2896 -0.3557 -0.3587
16607TIP3    H171312   1.263   0.687  17.086  1.0622 -0.0688 -1.0451
16607TIP3    H271313   1.168   0.569  17.075  0.5424  0.1635  0.7051
16608TIP3   OH271314   2.999   2.200   6.297  0.0539 -0.1418 -0.4650
16608TIP3    H171315   2.906   2.182   6.284 -0.0774  2.1841 -4.1432
16608TIP3    H271316   3.001   2.285   6.342  0.5587 -1.4975  2.3082
16609TIP3   OH271317   4.136   6.590  14.459  0.3473  0.4443 -0.1300
16609TIP3    H171318   4.211   6.644  14.436 -0.2832  0.6442 -1.8856
16609TIP3    H271319   4.126   6.531  14.384 -0.3767 -0.5618  0.7273
16610TIP3   OH271320   6.028   6.520   2.376  0.1455  0.0220 -0.4833
16610TIP3    H171321   6.118   6.507   2.406 -0.8123 -0.7384  2.3693
16610TIP3    H271322   5.979   6.447   2.416 -2.2764  2.2000  0.8208
16611TIP3   OH271323   1.236   5.061   1.500  0.1804  0.0202  0.4439
16611TIP3    H171324   1.226   5.012   1.582 -1.7700 -0.5363 -0.0811
16611TIP3    H271325   1.200   5.148   1.520  1.6127  0.5848  0.7309
16612TIP3   OH271326   2.824   0.859  14.454  0.0983 -0.3308  0.0846
16612TIP3    H171327   2.838   0.951  14.431 -1.2825 -0.5201 -1.8362
16612TIP3    H271328   2.729   0.847  14.449  0.2329 -1.8385  0.4280
16613TIP3   OH271329   0.686   5.277   2.768 -0.0722  0.4925 -0.0596
16613TIP3    H171330   0.668   5.344   2.835  0.5982  1.8040 -1.1494
16613TIP3    H271331   0.769   5.304   2.729  1.3622 -2.1763  0.8873
16614TIP3   OH271332   3.643   5.854  16.772 -0.0752  0.2221 -0.3337
16614TIP3    H171333   3.645   5.845  16.867 -0.5721 -0.2414 -0.3670
16614TIP3    H271334   3.734   5.876  16.749  0.3841 -1.1256  0.1040
16615TIP3   OH271335   3.599   1.442  12.208  0.2249  0.4322  0.3838
16615TIP3    H171336   3.632   1.470  12.123  1.1276  1.5070  1.0537
16615TIP3    H271337   3.565   1.354  12.193 -0.0817  0.7770 -1.1855
16616TIP3   OH271338   5.734   6.438  13.275 -0.2696 -0.2176 -0.0406
16616TIP3    H171339   5.729   6.434  13.370  0.7751 -1.6890 -0.0134
16616TIP3    H271340   5.732   6.347  13.247  1.0358  0.0969 -1.3120
16617TIP3   OH271341   1.590   0.999   4.520  0.5179  0.3112 -0.8179
16617TIP3    H171342   1.610   1.087   4.491  0.5659  0.0077 -1.7250
16617TIP3    H271343   1.675   0.953   4.519  0.7907  0.6495  1.1607
16618TIP3   OH271344   3.659   2.041  14.041 -0.0852 -0.0059  0.4270
16618TIP3    H171345   3.570   2.046  14.008 -0.6393 -0.3318  1.8118
16618TIP3    H271346   3.665   2.111  14.106  1.3996  1.5021 -1.2144
16619TIP3   OH271347   3.681   1.206  16.558 -0.0996  0.3038  0.5582
16619TIP3    H171348   3.767   1.164  16.558 -0.4467 -0.4187  1.0271
16619TIP3    H271349   3.641   1.181  16.474 -0.2096 -0.1148  0.7328
16620TIP3   OH271350   5.121   4.437  14.232 -0.5633  0.0775 -0.2153
16620TIP3    H171351   5.037   4.452  14.188 -1.7626 -2.6407  0.9231
16620TIP3    H271352   5.174   4.391  14.167 -0.2947  0.9274 -0.6079
16621TIP3   OH271353   1.210   5.492   2.998  0.0036 -0.2809 -0.6791
16621TIP3    H171354   1.123   5.514   3.032  0.5604  1.8005 -0.4606
16621TIP3    H271355   1.193   5.446   2.916 -1.3267 -3.1227  1.0455
16622TIP3   OH271356   3.512   5.645   5.677  0.1502 -0.2093 -0.0130
16622TIP3    H171357   3.472   5.577   5.731 -0.3043 -0.3403 -0.5063
16622TIP3    H271358   3.476   5.727   5.711  0.1645 -0.2623  0.1317
16623TIP3   OH271359   3.832   0.211   5.512 -0.1485 -0.3770  0.3433
16623TIP3    H171360   3.818   0.161   5.593 -0.0474 -0.6602  0.1886
16623TIP3    H271361   3.773   0.170   5.449 -1.2712  0.7338  0.6315
16624TIP3   OH271362   2.784   4.155  16.296 -0.8217 -0.1017  1.4830
16624TIP3    H171363   2.869   4.112  16.292  0.1752  1.6065  2.8636
16624TIP3    H271364   2.742   4.118  16.374 -1.1340 -0.5345  1.1169
16625TIP3   OH271365   1.008   5.178   0.448  0.2144 -0.2582 -0.0557
16625TIP3    H171366   1.101   5.168   0.466  0.4151  2.6135  1.0197
16625TIP3    H271367   0.969   5.203   0.532 -1.5126 -1.1468 -0.5378
16626TIP3   OH271368   1.103   5.298  14.908 -0.4720 -0.2424  0.0056
16626TIP3    H171369   1.036   5.273  14.844  0.7848 -1.0324 -1.0478
16626TIP3    H271370   1.115   5.392  14.895 -1.4081 -0.0840  0.2454
16627TIP3   OH271371   4.561   4.729  16.006  0.4288  0.0029 -0.4840
16627TIP3    H171372   4.558   4.725  16.102  0.4908 -1.6473 -0.5295
16627TIP3    H271373   4.484   4.781  15.982  0.4974  0.5624  0.4498
16628TIP3   OH271374   4.084   2.585   1.262  0.2812  0.1384  0.1269
16628TIP3    H171375   4.016   2.618   1.202  0.4216 -1.0165 -0.7149
16628TIP3    H271376   4.166   2.619   1.226  0.3241 -0.1697 -0.0707
16629TIP3   OH271377   3.539   4.493  12.474  0.0362 -0.3378  0.0493
16629TIP3    H171378   3.606   4.431  12.502  0.0292 -0.2771  0.2032
16629TIP3    H271379   3.583   4.578  12.472  0.2217 -0.4482 -0.8148
16630TIP3   OH271380   2.074   4.479  13.181  0.3343  0.3887  0.4655
16630TIP3    H171381   1.983   4.509  13.186 -0.4018 -1.6238 -0.0545
16630TIP3    H271382   2.084   4.419  13.255  0.2669 -1.6870 -1.1059
16631TIP3   OH271383   6.605   1.524   5.949  0.4739  0.1548 -0.0663
16631TIP3    H171384   6.633   1.616   5.947 -1.4749  0.8118  0.6626
16631TIP3    H271385   6.601   1.502   6.042 -1.4415  0.1611 -0.0991
16632TIP3   OH271386   3.451   4.846  17.103 -0.0414 -0.1474 -0.2864
16632TIP3    H171387   3.468   4.919  17.163  1.9635 -0.0129 -0.9437
16632TIP3    H271388   3.380   4.797  17.145 -0.6527  1.5161  0.7411
16633TIP3   OH271389   4.765   2.364  13.986  0.2578 -0.1087 -0.6023
16633TIP3    H171390   4.855   2.390  14.003  0.7395 -1.7704 -0.4024
16633TIP3    H271391   4.769   2.315  13.904 -0.0224 -2.1379  0.5202
16634TIP3   OH271392   5.383   0.051   3.718  0.3708  0.7052 -0.2457
16634TIP3    H171393   5.327   0.064   3.795  1.0641 -0.1017  0.4234
16634TIP3    H271394   5.470   0.080   3.747  0.1583  2.8621 -1.5706
16635TIP3   OH271395   5.502   0.804  11.894  0.3572 -0.1600 -0.4047
16635TIP3    H171396   5.461   0.743  11.956  1.0058  3.2549  3.8805
16635TIP3    H271397   5.429   0.847  11.851 -0.2188 -1.0408 -0.3300
16636TIP3   OH271398   1.363   4.289  11.849 -0.0313  0.1891  0.3234
16636TIP3    H171399   1.356   4.261  11.940 -0.2666 -0.0208  0.2399
16636TIP3    H271400   1.317   4.373  11.846 -1.6889 -0.6994 -0.0056
16637TIP3   OH271401   0.319   5.739   4.819  0.4084 -0.3715  0.2722
16637TIP3    H171402   0.258   5.805   4.784  0.4956 -1.0778 -1.2745
16637TIP3    H271403   0.338   5.770   4.908 -0.0727  1.3300 -0.1721
16638TIP3   OH271404   2.937   6.508  15.097  0.0079 -0.1906 -0.6564
16638TIP3    H171405   2.870   6.517  15.028 -1.0962  0.8005  0.5068
16638TIP3    H271406   2.936   6.414  15.118 -0.2407 -0.3654 -1.3916
16639TIP3   OH271407   1.062   1.800   5.975 -0.3834  0.0936  0.1690
16639TIP3    H171408   1.118   1.872   5.944  2.1447 -1.0569  1.6813
16639TIP3    H271409   1.035   1.827   6.063 -0.1338 -0.4095  0.4045
16640TIP3   OH271410   3.140   3.648   1.664 -0.0945 -0.0610  0.0958
16640TIP3    H171411   3.170   3.666   1.575  0.4088  0.9691  0.4527
16640TIP3    H271412   3.183   3.715   1.717 -0.1682 -0.8345  1.1567
16641TIP3   OH271413   5.907   4.635   0.315 -0.0204  0.1735  0.5435
16641TIP3    H171414   5.881   4.543   0.327  1.7157 -0.4153  0.1713
16641TIP3    H271415   5.979   4.647   0.376  0.1576  1.1231  0.1581
16642TIP3   OH271416   2.275   0.934   1.608  0.4668  0.3015 -0.3826
16642TIP3    H171417   2.325   0.916   1.687 -0.3473 -0.5128 -0.0431
16642TIP3    H271418   2.302   0.866   1.546  1.4712  1.2231 -1.0075
16643TIP3   OH271419   0.342   4.526  12.138  0.2195  0.3740  0.0296
16643TIP3    H171420   0.286   4.475  12.079 -0.4705  0.5343  0.5278
16643TIP3    H271421   0.292   4.530  12.220  2.0180 -1.6087  1.3396
16644TIP3   OH271422   5.061   4.211   0.068  0.1782 -0.6229  0.4557
16644TIP3    H171423   5.094   4.301   0.070  1.5154 -1.0538  2.9527
16644TIP3    H271424   4.968   4.220   0.048  0.4454  1.2289 -0.1717
16645TIP3   OH271425   2.045   3.453   5.920 -0.3189  0.7283  0.1677
16645TIP3    H171426   2.009   3.479   6.005  0.2085  0.3336  0.5194
16645TIP3    H271427   1.973   3.468   5.858 -2.2013 -2.8213  1.2453
16646TIP3   OH271428   3.091   1.135  12.771 -0.5446  0.9574 -0.3661
16646TIP3    H171429   3.047   1.062  12.814  1.1194  1.8773  3.2482
16646TIP3    H271430   3.140   1.094  12.699  0.6218 -1.5838  1.7278
16647TIP3   OH271431   3.020   2.077   0.029  0.3143  0.2704  0.2805
16647TIP3    H171432   3.034   2.016   0.101  0.4609  3.4078  3.1995
16647TIP3    H271433   3.090   2.141   0.038 -0.1380  1.2185 -2.2091
16648TIP3   OH271434   1.116   4.982   5.254 -0.8042 -0.1443 -0.5078
16648TIP3    H171435   1.084   5.014   5.338 -1.3331  0.3312 -0.8733
16648TIP3    H271436   1.096   5.053   5.193  2.2588  0.8093 -0.5542
16649TIP3   OH271437   3.532   3.866  13.231  0.6661 -0.8431  0.1050
16649TIP3    H171438   3.585   3.926  13.178 -1.7138  0.9456 -0.4119
16649TIP3    H271439   3.532   3.905  13.319  0.5120 -1.0520  0.1991
16650TIP3   OH271440   1.029   5.285  15.999 -0.2416  0.2519  0.0655
16650TIP3    H171441   0.990   5.315  16.081 -0.2230 -0.7187  0.4359
16650TIP3    H271442   0.956   5.244  15.952  0.2583 -1.4171  0.6861
16651TIP3   OH271443   4.322   6.774   6.308  0.3015 -0.0625 -0.3363
16651TIP3    H171444   4.331   6.708   6.239 -1.7399 -2.8703  1.8527
16651TIP3    H271445   4.244   6.824   6.283  0.4238 -0.0714 -0.7606
16652TIP3   OH271446   5.449   3.369  16.382  0.5851  0.1815 -0.8326
16652TIP3    H171447   5.436   3.331  16.469 -2.0398 -1.2872 -1.7423
16652TIP3    H271448   5.388   3.442  16.378 -0.6251 -0.8226 -1.9470
16653TIP3   OH271449   3.569   5.137  16.559 -0.1531  0.4290  0.0197
16653TIP3    H171450   3.520   5.183  16.628  1.2186  0.8886  0.7398
16653TIP3    H271451   3.615   5.207  16.512 -0.1826  0.0150 -0.6284
16654TIP3   OH271452   4.123   2.831  14.087  0.2110 -0.3144  0.1974
16654TIP3    H171453   4.034   2.833  14.122  0.0489  1.1782 -0.2239
16654TIP3    H271454   4.135   2.918  14.048  2.8911  0.6876  2.8657
16655TIP3   OH271455   5.264   1.290   0.736 -0.0127 -0.6879 -0.0782
16655TIP3    H171456   5.288   1.221   0.797 -0.0402 -0.8084 -0.2027
16655TIP3    H271457   5.170   1.303   0.750 -0.2145 -1.3543 -0.7318
16656TIP3   OH271458   1.194   4.226  14.605 -0.7632  0.4505  0.0909
16656TIP3    H171459   1.276   4.273  14.588 -0.7343  0.2317 -0.3890
16656TIP3    H271460   1.197   4.150  14.547  0.8064 -2.1465  3.2796
16657TIP3   OH271461   0.507   3.862  15.640  0.9130 -0.0572 -0.0452
16657TIP3    H171462   0.478   3.857  15.731 -0.9419  1.3701 -0.5051
16657TIP3    H271463   0.507   3.955  15.620  1.1701 -0.3659 -1.5606
16658TIP3   OH271464   0.624   3.354  12.322  0.1030 -0.1156  0.5779
16658TIP3    H171465   0.630   3.379  12.414 -1.1933  1.5245  0.2486
16658TIP3    H271466   0.700   3.397  12.281 -1.5267  2.6308  0.2099
16659TIP3   OH271467   0.583   6.029   5.516 -0.8595  0.2374 -0.3562
16659TIP3    H171468   0.510   6.071   5.563 -1.6319 -0.7457 -0.6349
16659TIP3    H271469   0.629   5.978   5.583 -0.5128  0.7424 -0.2079
16660TIP3   OH271470   2.542   0.840  11.215  0.0133  0.6476  0.0667
16660TIP3    H171471   2.471   0.900  11.235 -0.9481 -0.6473  0.6451
16660TIP3    H271472   2.575   0.869  11.130 -0.4101  1.9876  0.3496
16661TIP3   OH271473   3.863   5.232  16.796  0.4608 -0.2356  0.1771
16661TIP3    H171474   3.799   5.275  16.852 -2.1478 -2.4290 -0.8870
16661TIP3    H271475   3.883   5.296  16.728  1.4838  1.4132  1.9487
16662TIP3   OH271476   1.899   2.327   1.643 -0.0724  0.7310 -0.3151
16662TIP3    H171477   1.991   2.331   1.616 -0.1806  0.1527 -0.8133
16662TIP3    H271478   1.866   2.416   1.631  1.0010  1.5257  2.0905
16663TIP3   OH271479   3.864   4.698   3.351  0.0003  0.8269  0.0051
16663TIP3    H171480   3.940   4.723   3.298  1.6072 -0.5407  1.5092
16663TIP3    H271481   3.860   4.602   3.342 -3.5947  1.0023 -2.5643
16664TIP3   OH271482   2.594   6.447  10.497 -0.2666 -0.6358 -0.1300
16664TIP3    H171483   2.564   6.536  10.478 -1.6505 -1.2368 -0.9331
16664TIP3    H271484   2.648   6.423  10.422  2.9103  0.6519  1.5745
16665TIP3   OH271485   6.679   4.983  11.114 -0.2661 -0.1418 -0.2827
16665TIP3    H171486   6.674   4.910  11.052  1.4854 -0.1080 -0.5379
16665TIP3    H271487   6.600   4.976  11.167 -1.4853 -0.5715 -2.0826
16666TIP3   OH271488   1.252   4.247  17.085  0.4593  0.2815 -0.1510
16666TIP3    H171489   1.346   4.245  17.068  0.7287  2.7915  0.6780
16666TIP3    H271490   1.244   4.235  17.179 -0.1902 -1.2167 -0.3627
16667TIP3   OH271491   1.623   2.220  16.041  0.2135 -0.2634  0.3321
16667TIP3    H171492   1.602   2.277  16.115  0.4211  0.2656 -0.0119
16667TIP3    H271493   1.690   2.268  15.992 -1.8119  0.6704 -1.7194
16668TIP3   OH271494   0.573   4.678   5.249 -0.6150  0.1763  0.1666
16668TIP3    H171495   0.629   4.612   5.208 -0.3700  0.9115 -0.7417
16668TIP3    H271496   0.484   4.648   5.232 -0.5092  0.2165 -0.4965
16669TIP3   OH271497   6.562   5.736  16.293  0.2400 -0.0386  0.1904
16669TIP3    H171498   6.575   5.831  16.287 -0.7872  0.1051  0.1277
16669TIP3    H271499   6.620   5.709  16.364 -1.9988  1.1812  2.6746
16670TIP3   OH271500   6.363   5.567  14.274  0.0741  0.1452  0.1516
16670TIP3    H171501   6.306   5.604  14.341  0.7017  0.1184  0.7116
16670TIP3    H271502   6.364   5.633  14.205  0.0467  0.5307  0.5144
16671TIP3   OH271503   1.813   2.236  13.677 -0.0037  0.4608  0.3650
16671TIP3    H171504   1.740   2.194  13.722  0.0534  0.7408  0.7207
16671TIP3    H271505   1.846   2.300  13.740 -0.8414  1.8881 -0.5894
16672TIP3   OH271506   4.149   6.046  14.371 -0.2520 -0.3853 -0.3256
16672TIP3    H171507   4.224   6.089  14.329 -1.2740  0.3197 -1.5055
16672TIP3    H271508   4.123   6.106  14.441  1.0019 -1.2124  0.8959
16673TIP3   OH271509   0.430   0.700  13.685 -0.4505 -0.4946  0.0015
16673TIP3    H171510   0.473   0.715  13.769  0.2812 -1.3016 -0.2126
16673TIP3    H271511   0.417   0.788  13.649  0.3044 -0.1950  0.4310
16674TIP3   OH271512   1.578   2.603   5.446 -0.1930 -0.0470 -0.2457
16674TIP3    H171513   1.506   2.542   5.462  2.9690 -3.6038  1.9835
16674TIP3    H271514   1.557   2.679   5.501 -1.2007 -2.0038  2.2649
16675TIP3   OH271515   6.217   1.324   2.456  0.1856  0.5185  0.8473
16675TIP3    H171516   6.159   1.359   2.388  0.5071  1.1231  0.8713
16675TIP3    H271517   6.279   1.269   2.408  1.8391  2.7149  0.2696
16676TIP3   OH271518   5.343   1.343   1.938  0.0439 -0.1317  0.6955
16676TIP3    H171519   5.378   1.261   1.904 -2.1710 -0.4219 -1.1283
16676TIP3    H271520   5.303   1.318   2.022  1.0725 -0.4915  1.0919
16677TIP3   OH271521   2.755   5.615  16.253  0.6721 -0.6216 -0.3466
16677TIP3    H171522   2.732   5.635  16.344 -0.3847 -2.7678 -0.0903
16677TIP3    H271523   2.695   5.669  16.201  1.1145  0.4335  0.1999
16678TIP3   OH271524   4.363   1.918  13.068 -0.1039 -0.1403  0.1953
16678TIP3    H171525   4.440   1.967  13.099  0.6224 -0.7082 -0.6407
16678TIP3    H271526   4.363   1.933  12.973 -2.9980  2.6043  0.4822
16679TIP3   OH271527   3.126   3.499   4.892 -0.3798 -0.4366 -0.5365
16679TIP3    H171528   3.054   3.543   4.936 -0.1212  0.1996 -0.7375
16679TIP3    H271529   3.204   3.524   4.942 -0.3066 -1.2024 -0.2578
16680TIP3   OH271530   3.571   4.528   5.124 -0.2535 -0.8960 -0.2970
16680TIP3    H171531   3.540   4.596   5.183  1.8664 -1.0190  1.0485
16680TIP3    H271532   3.493   4.477   5.102 -1.4311  0.4088  0.7405
16681TIP3   OH271533   3.165   0.327  12.884 -0.0215 -0.7659 -0.2055
16681TIP3    H171534   3.099   0.394  12.904 -0.2324 -0.9265 -0.3584
16681TIP3    H271535   3.137   0.250  12.933  1.0012 -0.3250  1.1054
16682TIP3   OH271536   1.971   5.419  10.755  0.2308 -0.0460 -0.0720
16682TIP3    H171537   1.877   5.418  10.773 -0.2011  0.5226 -2.0750
16682TIP3    H271538   1.996   5.511  10.760  0.5073 -0.1035 -0.3570
16683TIP3   OH271539   5.777   1.203  14.811 -0.3508 -0.1656 -0.2718
16683TIP3    H171540   5.737   1.165  14.889  1.1682 -1.9277 -0.2878
16683TIP3    H271541   5.706   1.208  14.747 -1.7209  1.6311  1.2504
16684TIP3   OH271542   4.193   0.211   4.641  0.1217  0.0406 -0.7690
16684TIP3    H171543   4.264   0.248   4.692 -1.3693  0.1415  1.3508
16684TIP3    H271544   4.224   0.124   4.616  0.9105  0.0188  0.2510
16685TIP3   OH271545   3.710   0.156   1.365 -0.3632 -0.1250  0.0761
16685TIP3    H171546   3.766   0.084   1.396  0.5229  1.4193  2.2973
16685TIP3    H271547   3.772   0.224   1.338 -1.1712  0.6496  0.1412
16686TIP3   OH271548   1.241   6.076   0.524 -0.1994  0.5462 -0.0071
16686TIP3    H171549   1.248   6.084   0.429 -1.3719  0.5492 -0.0991
16686TIP3    H271550   1.160   6.028   0.539  0.7063 -0.7650  0.9544
16687TIP3   OH271551   3.141   2.959   3.435 -0.5206  0.1320  0.1006
16687TIP3    H171552   3.129   2.937   3.342 -2.1369  0.8455  0.0939
16687TIP3    H271553   3.118   2.878   3.481 -1.8246  0.3710 -0.0784
16688TIP3   OH271554   6.267   0.629   5.027 -0.3809 -0.1125  0.0738
16688TIP3    H171555   6.315   0.710   5.008 -0.9158 -0.0573 -1.1634
16688TIP3    H271556   6.312   0.591   5.102  0.8242  0.5677 -0.2820
16689TIP3   OH271557   5.376   3.427   4.271  0.0546  0.0866  0.0782
16689TIP3    H171558   5.335   3.513   4.278  1.2007  0.5572  1.4572
16689TIP3    H271559   5.351   3.383   4.353  0.2275 -0.5490 -0.2077
16690TIP3   OH271560   2.433   3.281  14.367 -0.0787 -0.3965  0.0089
16690TIP3    H171561   2.423   3.372  14.393 -2.9489 -0.9540  1.2571
16690TIP3    H271562   2.458   3.236  14.448  1.7555 -0.7099 -0.6906
16691TIP3   OH271563   6.803   5.681  13.774 -0.6777 -0.2322 -0.3297
16691TIP3    H171564   6.832   5.747  13.712 -1.5011  1.7997  1.3369
16691TIP3    H271565   6.815   5.598  13.728  1.6992  0.9241 -2.0042
16692TIP3   OH271566   1.321   5.454  14.050 -0.0484 -0.2554 -0.0846
16692TIP3    H171567   1.290   5.391  13.985 -2.2885 -0.1483  0.7708
16692TIP3    H271568   1.390   5.503  14.006 -0.3407 -1.2909 -1.7807
16693TIP3   OH271569   1.776   2.011  11.609  0.1037  0.1867  0.1775
16693TIP3    H171570   1.705   2.014  11.673  0.0879  0.6047  0.1458
16693TIP3    H271571   1.847   1.967  11.655  0.6127  1.7946  1.0405
16694TIP3   OH271572   5.946   6.566   4.155  0.1481  0.2403  1.1371
16694TIP3    H171573   5.919   6.492   4.209  0.3543  0.8084  2.0474
16694TIP3    H271574   5.962   6.636   4.218 -0.3279  1.1440  0.2729
16695TIP3   OH271575   2.500   4.684  14.853 -0.3772 -0.5456  0.0496
16695TIP3    H171576   2.495   4.714  14.944 -0.2333  1.0746 -0.4552
16695TIP3    H271577   2.539   4.596  14.859  0.9073  0.0719  1.4542
16696TIP3   OH271578   2.451   1.438   1.692  0.7288 -0.1203  0.1434
16696TIP3    H171579   2.446   1.523   1.649 -1.2004 -0.2200  0.0472
16696TIP3    H271580   2.359   1.414   1.708  1.2864 -1.2145  2.1009
16697TIP3   OH271581   6.703   1.874   1.486  0.2872 -0.6225 -0.1869
16697TIP3    H171582   6.614   1.856   1.455  0.2672  0.4057 -0.7874
16697TIP3    H271583   6.709   1.829   1.570 -0.8248 -0.6550 -0.1062
16698TIP3   OH271584   5.633   1.953  11.263 -0.2610 -0.7934 -0.3562
16698TIP3    H171585   5.590   2.037  11.244 -0.4318 -0.5228  1.0893
16698TIP3    H271586   5.578   1.888  11.220 -1.5604 -0.3565  0.5785
16699TIP3   OH271587   0.473   5.947  17.008 -0.6300  0.6705 -0.5466
16699TIP3    H171588   0.547   6.008  17.001 -0.1765  0.1622 -0.2842
16699TIP3    H271589   0.513   5.861  17.002 -0.8743  0.3028  2.0168
16700TIP3   OH271590   4.035   6.519  12.258  0.3807  0.4573  0.3923
16700TIP3    H171591   4.041   6.503  12.164  1.0071 -0.8497  0.6228
16700TIP3    H271592   4.112   6.571  12.279 -0.2474  1.5535  0.0527
16701TIP3   OH271593   5.997   1.820   4.958  0.5498 -0.4089  0.3447
16701TIP3    H171594   6.017   1.749   4.897 -0.1152  0.5910 -1.1214
16701TIP3    H271595   6.072   1.880   4.950  0.6661 -0.4906  0.8411
16702TIP3   OH271596   6.553   5.694  14.807 -0.1821  0.3255 -0.4498
16702TIP3    H171597   6.597   5.609  14.804 -0.8226 -0.0471  0.2977
16702TIP3    H271598   6.513   5.704  14.721 -1.3206 -0.8112 -0.0787
16703TIP3   OH271599   4.283   1.160  16.792 -0.1850 -0.7307  0.1091
16703TIP3    H171600   4.259   1.238  16.841  1.2108  0.5152 -1.0693
16703TIP3    H271601   4.202   1.133  16.748 -1.0146 -0.8246  1.6315
16704TIP3   OH271602   4.466   0.702   1.846  0.0082 -0.5018  0.0561
16704TIP3    H171603   4.540   0.729   1.901 -0.6622  1.9518 -0.1405
16704TIP3    H271604   4.424   0.631   1.895  1.1843 -0.4322  1.2196
16705TIP3   OH271605   4.535   2.802   2.777  0.5527  0.1232  0.1097
16705TIP3    H171606   4.600   2.757   2.831  1.0990  0.3835 -0.3232
16705TIP3    H271607   4.573   2.888   2.760  0.1308  0.2497 -0.2176
16706TIP3   OH271608   4.454   6.317  11.603 -0.1481  0.1176  0.2272
16706TIP3    H171609   4.509   6.240  11.620  0.2351  0.3405  0.0005
16706TIP3    H271610   4.508   6.391  11.630 -0.3397  0.3390  0.0073
16707TIP3   OH271611   6.333   2.797   5.226  0.2216 -0.4267 -0.2828
16707TIP3    H171612   6.290   2.881   5.210  0.1106 -0.5445 -0.6014
16707TIP3    H271613   6.407   2.795   5.165 -1.4085 -1.7776 -2.3734
16708TIP3   OH271614   5.039   2.647   2.223  0.0872  0.5496  0.0385
16708TIP3    H171615   5.002   2.567   2.261  0.3084  0.3927 -0.0763
16708TIP3    H271616   5.104   2.676   2.287 -0.6375  1.1477  0.5194
16709TIP3   OH271617   1.324   6.095  16.165 -0.8611 -0.2576  0.1486
16709TIP3    H171618   1.273   6.173  16.142  0.3122  0.2059 -0.9862
16709TIP3    H271619   1.397   6.095  16.104 -1.8258 -3.3434 -1.1985
16710TIP3   OH271620   4.179   4.436   3.481 -0.3554  0.4482 -0.2942
16710TIP3    H171621   4.175   4.355   3.430  0.3710  0.9135 -1.1209
16710TIP3    H271622   4.209   4.502   3.419  0.1554  1.1199  0.6414
16711TIP3   OH271623   3.285   0.734   3.974 -0.0853 -0.1828 -0.0110
16711TIP3    H171624   3.341   0.746   3.897  1.1252 -0.0659  0.8613
16711TIP3    H271625   3.249   0.821   3.990  1.5280  0.3620  0.9204
16712TIP3   OH271626   0.467   1.472   1.667  0.6492  0.6178  0.1726
16712TIP3    H171627   0.543   1.445   1.718  0.6132  2.6634  1.4035
16712TIP3    H271628   0.503   1.509   1.587  0.8576  0.0715  0.0124
16713TIP3   OH271629   5.976   4.237  13.586  0.6694 -0.0835  0.1034
16713TIP3    H171630   5.992   4.243  13.491  0.1741  0.4253  0.0481
16713TIP3    H271631   6.043   4.294  13.625  0.0455  0.7645 -0.0302
16714TIP3   OH271632   2.185   4.359   5.157  0.4371  0.4339 -0.3552
16714TIP3    H171633   2.253   4.358   5.089  1.3706 -0.2603  0.5595
16714TIP3    H271634   2.127   4.286   5.134  0.1062  0.9111 -1.0380
16715TIP3   OH271635   1.846   0.916   4.581  0.3921  0.0326  0.5940
16715TIP3    H171636   1.877   1.005   4.597  2.1173 -0.6354  1.1701
16715TIP3    H271637   1.854   0.872   4.665 -0.6882 -0.6250  0.3728
16716TIP3   OH271638   5.991   2.047   3.249  0.4302  0.1937  0.0297
16716TIP3    H171639   5.997   1.961   3.292 -0.4663 -0.2276 -0.6515
16716TIP3    H271640   5.991   2.110   3.321  0.4669 -0.4127  0.5691
16717TIP3   OH271641   6.363   3.567  12.514 -0.5858 -0.7564 -0.2474
16717TIP3    H171642   6.414   3.487  12.524 -0.3165 -0.5057  0.4916
16717TIP3    H271643   6.272   3.539  12.529 -0.3038 -0.5964  2.1637
16718TIP3   OH271644   4.875   4.123   1.582  0.9733 -0.1908 -0.1070
16718TIP3    H171645   4.889   4.217   1.567 -0.8347  0.2228  0.5780
16718TIP3    H271646   4.904   4.109   1.672  0.3628 -0.0883  0.1062
16719TIP3   OH271647   0.395   6.674   6.794  0.4696 -0.3716  0.0650
16719TIP3    H171648   0.453   6.739   6.755 -0.0469  0.0460 -0.0216
16719TIP3    H271649   0.422   6.591   6.754  1.5971 -0.3341  0.6967
16720TIP3   OH271650   0.755   6.304  13.811  0.3615 -0.0982  0.3778
16720TIP3    H171651   0.712   6.218  13.809 -0.1607  0.0635  2.5501
16720TIP3    H271652   0.690   6.362  13.849  1.2057  0.9721  0.2195
16721TIP3   OH271653   4.248   5.008   5.851  0.3310 -0.0520  0.9101
16721TIP3    H171654   4.321   4.965   5.806 -1.4579 -1.4310 -0.8863
16721TIP3    H271655   4.213   4.941   5.910 -0.9564 -0.3266 -0.0953
16722TIP3   OH271656   6.581   4.460   0.413  0.4150 -0.4177  0.2798
16722TIP3    H171657   6.633   4.380   0.406  0.3730 -0.3825 -0.5531
16722TIP3    H271658   6.590   4.486   0.505  2.3884 -0.0685  0.0450
16723TIP3   OH271659   2.552   0.425   2.677  0.5352 -0.3190 -0.0418
16723TIP3    H171660   2.628   0.367   2.685 -0.1244 -1.0365  1.6349
16723TIP3    H271661   2.491   0.377   2.620  1.1202  0.0341 -0.9818
16724TIP3   OH271662   5.172   1.475   4.975  0.5279 -0.0924  0.4402
16724TIP3    H171663   5.191   1.564   4.944  0.5358 -0.8079 -1.7724
16724TIP3    H271664   5.255   1.445   5.012  0.4491  0.9047  1.4670
16725TIP3   OH271665   4.464   5.375   2.868  0.7386  0.4471  0.2811
16725TIP3    H171666   4.526   5.314   2.828  1.4191  1.0692  0.3696
16725TIP3    H271667   4.518   5.430   2.925 -0.2305 -0.6951  2.4464
16726TIP3   OH271668   0.799   2.585  16.338 -0.4239  0.1838  0.1302
16726TIP3    H171669   0.756   2.521  16.281 -1.7978  0.3753  0.9123
16726TIP3    H271670   0.842   2.646  16.278 -0.8737 -0.2776 -0.6714
16727TIP3   OH271671   0.903   1.266   0.370 -0.3850  0.0124 -0.2070
16727TIP3    H171672   0.977   1.221   0.411  0.7682  2.1817  0.2621
16727TIP3    H271673   0.941   1.313   0.295 -1.7471 -0.7104 -1.3973
16728TIP3   OH271674   0.201   1.559   4.280  0.3701 -0.2108  0.3371
16728TIP3    H171675   0.279   1.614   4.285  0.4414 -0.2155 -0.5088
16728TIP3    H271676   0.172   1.550   4.370  0.6058  0.8545  0.5326
16729TIP3   OH271677   4.593   1.093   4.873 -0.2173  0.5092 -0.0586
16729TIP3    H171678   4.664   1.031   4.889 -1.6676 -1.1474  0.3100
16729TIP3    H271679   4.635   1.165   4.825  1.7991 -0.1019  0.6639
16730TIP3   OH271680   6.173   6.429   4.028  0.3874 -0.1854  0.7046
16730TIP3    H171681   6.088   6.385   4.030  0.4541 -0.3203  2.2732
16730TIP3    H271682   6.157   6.511   4.075  1.0417 -0.0721  0.7314
16731TIP3   OH271683   4.569   2.702  12.504 -0.1409  0.0121  0.9818
16731TIP3    H171684   4.526   2.629  12.548 -2.3923  1.0996  0.7726
16731TIP3    H271685   4.497   2.749  12.462  1.5858  0.4794 -1.7168
16732TIP3   OH271686   1.039   1.221  12.752 -0.5865  0.4492  0.0106
16732TIP3    H171687   1.035   1.133  12.715 -0.3171 -1.1370  3.4555
16732TIP3    H271688   1.105   1.266  12.699  1.4908 -2.4056 -0.0330
16733TIP3   OH271689   4.801   0.448  11.160 -0.1374  0.2884 -0.2036
16733TIP3    H171690   4.820   0.356  11.141 -1.7553 -0.0860 -0.1688
16733TIP3    H271691   4.843   0.464  11.245  0.8467 -0.1660 -0.5924
16734TIP3   OH271692   5.474   4.524   4.885 -0.2437  0.1880 -0.2088
16734TIP3    H171693   5.543   4.486   4.940  0.2034 -1.4668 -1.8253
16734TIP3    H271694   5.488   4.619   4.892 -0.5939  0.0884  2.9301
16735TIP3   OH271695   3.778   4.352  11.816  0.0508  0.2215 -0.1946
16735TIP3    H171696   3.724   4.431  11.825 -2.0715 -0.8262 -2.5210
16735TIP3    H271697   3.755   4.299  11.893  0.3356  1.1860  0.5816
16736TIP3   OH271698   6.046   6.064  16.872 -0.2188 -0.5010 -0.6568
16736TIP3    H171699   5.974   6.116  16.907 -0.1523  1.6329 -3.3812
16736TIP3    H271700   6.099   6.042  16.950 -1.2777  1.9333  0.8857
16737TIP3   OH271701   1.944   5.657  13.032  0.0021  0.2745  0.2913
16737TIP3    H171702   1.905   5.729  12.984  0.8441  1.4285  1.2589
16737TIP3    H271703   1.942   5.685  13.124  3.0074  0.4384  0.4259
16738TIP3   OH271704   4.806   5.879   1.415  0.1331  0.1850 -0.5777
16738TIP3    H171705   4.809   5.940   1.341  1.9909  0.9650  0.0948
16738TIP3    H271706   4.827   5.794   1.376 -1.7745  0.0202 -1.3954
16739TIP3   OH271707   4.115   1.356  16.036 -0.0654  0.0739 -0.2907
16739TIP3    H171708   4.151   1.442  16.012  1.7650 -0.7910 -0.8181
16739TIP3    H271709   4.115   1.357  16.132 -0.7113  0.8975 -0.2833
16740TIP3   OH271710   4.500   4.756   2.728  0.4269 -0.3643  0.4537
16740TIP3    H171711   4.470   4.665   2.733  0.4244 -0.3529  0.6536
16740TIP3    H271712   4.437   4.805   2.780 -1.6805  0.3027 -2.4495
16741TIP3   OH271713   2.958   3.833  14.008  0.8606 -0.3769  0.4710
16741TIP3    H171714   2.999   3.800  13.928  2.6336  0.5317  0.9363
16741TIP3    H271715   2.911   3.912  13.980  0.8680 -0.4639  0.2090
16742TIP3   OH271716   5.275   1.003  16.287 -0.2324  0.1989 -0.2017
16742TIP3    H171717   5.329   1.082  16.293 -0.6654  0.6910 -2.0986
16742TIP3    H271718   5.190   1.034  16.257 -0.3630 -0.9895 -1.1198
16743TIP3   OH271719   0.191   3.554   5.784  0.5233 -0.2192 -0.1082
16743TIP3    H171720   0.168   3.646   5.790 -0.7265 -0.6063  2.2331
16743TIP3    H271721   0.111   3.510   5.755  1.3288 -0.5469 -2.0079
16744TIP3   OH271722   4.491   5.384   0.856 -0.0777  0.4103 -0.0348
16744TIP3    H171723   4.487   5.462   0.801 -1.3349 -0.3087 -1.0268
16744TIP3    H271724   4.584   5.370   0.871  0.2951  0.8314 -1.7335
16745TIP3   OH271725   4.740   3.743  11.092 -0.3528  0.2806 -0.3648
16745TIP3    H171726   4.655   3.700  11.105  0.0410 -1.7471 -3.4086
16745TIP3    H271727   4.722   3.814  11.030  0.1901 -0.3676 -1.2840
16746TIP3   OH271728   0.782   5.152   2.261  0.1707 -0.0081 -0.0223
16746TIP3    H171729   0.722   5.139   2.334 -1.3642 -1.1423 -1.4203
16746TIP3    H271730   0.735   5.211   2.201  1.5595  1.2287  0.0391
16747TIP3   OH271731   3.922   5.569   3.364  0.1926 -0.5421  0.1354
16747TIP3    H171732   3.847   5.606   3.317  1.7553 -1.0766 -3.0339
16747TIP3    H271733   3.902   5.584   3.457 -3.0924  0.6455 -0.6377
16748TIP3   OH271734   3.717   0.619   2.543 -0.6683  0.1232  0.2856
16748TIP3    H171735   3.733   0.698   2.491  2.1335  0.0832  0.9233
16748TIP3    H271736   3.715   0.649   2.633 -1.4413 -0.3303  0.4305
16749TIP3   OH271737   5.990   5.399  14.495 -0.0556  0.3160  0.1591
16749TIP3    H171738   6.033   5.314  14.504  0.7532  0.6436 -0.4979
16749TIP3    H271739   5.960   5.401  14.404 -0.3308  0.6140  0.2543
16750TIP3   OH271740   3.946   6.220  13.924 -0.2190  0.6426  0.8404
16750TIP3    H171741   3.955   6.309  13.889 -2.2152  0.8707  0.7639
16750TIP3    H271742   4.034   6.196  13.953  0.5363  2.2920  0.0323
16751TIP3   OH271743   6.495   0.634  10.894  0.4352 -0.1816  0.6751
16751TIP3    H171744   6.540   0.662  10.973  0.1229  1.1114  0.4130
16751TIP3    H271745   6.444   0.710  10.866  0.7876 -0.4954 -0.9547
16752TIP3   OH271746   1.418   5.272  15.291 -0.0328 -0.4400  0.0617
16752TIP3    H171747   1.367   5.232  15.222 -1.2404  1.0881 -0.0019
16752TIP3    H271748   1.368   5.254  15.371  0.2666 -0.4382  0.2515
16753TIP3   OH271749   0.654   5.928  12.185  0.3158 -0.7104 -0.3491
16753TIP3    H171750   0.680   5.887  12.267  1.7013  1.4156  0.3537
16753TIP3    H271751   0.613   6.010  12.211  3.2534  1.3804 -1.7418
16754TIP3   OH271752   4.194   2.908  15.232  0.3204 -0.5129 -0.1802
16754TIP3    H171753   4.246   2.889  15.309  2.2953 -0.3512 -1.3970
16754TIP3    H271754   4.125   2.842  15.232  0.6078 -0.8350  1.4072
16755TIP3   OH271755   0.206   2.059   1.499 -0.0076 -0.1128  0.0305
16755TIP3    H171756   0.166   2.023   1.578 -0.6823  1.2525  0.3383
16755TIP3    H271757   0.245   1.983   1.455  1.2637 -0.7818  2.1622
16756TIP3   OH271758   5.921   1.184  15.384  0.3902  0.2308 -0.1781
16756TIP3    H171759   5.908   1.102  15.337 -1.7059 -0.0625  0.8003
16756TIP3    H271760   5.982   1.233  15.330 -0.0854 -1.0354 -1.9619
16757TIP3   OH271761   4.833   1.946  12.012 -0.3468  0.0633 -0.2829
16757TIP3    H171762   4.807   2.027  11.967  0.4576 -0.4062 -1.6446
16757TIP3    H271763   4.906   1.912  11.961  0.1214 -0.9055  0.9719
16758TIP3   OH271764   4.259   4.134  10.399 -0.1632  0.3734  0.3757
16758TIP3    H171765   4.185   4.082  10.429 -1.0400  1.6009  0.3929
16758TIP3    H271766   4.264   4.207  10.460  1.1598  0.2470  0.4550
16759TIP3   OH271767   3.087   6.350   1.967  0.2248 -0.5203  0.2697
16759TIP3    H171768   3.153   6.391   1.912 -0.5744  0.9597  0.3788
16759TIP3    H271769   3.036   6.295   1.907  0.3902 -0.2185 -0.1464
16760TIP3   OH271770   3.055   1.431   4.849 -0.3052  0.6141  0.2987
16760TIP3    H171771   3.117   1.467   4.786  0.0123  1.6295  1.1400
16760TIP3    H271772   2.972   1.427   4.802  0.4018 -0.8692 -0.8765
16761TIP3   OH271773   3.881   1.690  13.216 -0.4910 -0.0031 -0.1347
16761TIP3    H171774   3.892   1.781  13.243 -0.6832 -0.3720  1.2741
16761TIP3    H271775   3.959   1.671  13.164 -0.5985  1.0438 -0.7184
16762TIP3   OH271776   1.641   1.727   5.292 -0.1139 -0.2871 -0.2098
16762TIP3    H171777   1.675   1.638   5.285  0.2398 -0.3144  1.5448
16762TIP3    H271778   1.702   1.772   5.349 -0.2213  1.1488 -1.1699
16763TIP3   OH271779   0.630   0.363  14.248 -0.3561 -0.6118 -0.1160
16763TIP3    H171780   0.710   0.404  14.279 -0.8861 -0.2747  0.8671
16763TIP3    H271781   0.640   0.271  14.271 -0.5264 -0.4518  0.6399
16764TIP3   OH271782   0.191   1.302   6.063 -0.0508  0.0083 -0.3860
16764TIP3    H171783   0.176   1.292   6.157  1.6573  0.6140 -0.0212
16764TIP3    H271784   0.103   1.310   6.026 -0.7302  2.2186  1.4414
16765TIP3   OH271785   3.934   5.636  12.328  0.1150 -0.3677  0.5791
16765TIP3    H171786   3.862   5.679  12.373  1.5181  0.4889  2.1238
16765TIP3    H271787   3.917   5.543  12.339 -0.9285 -0.1815  0.6195
16766TIP3   OH271788   2.519   2.762   5.572 -0.0864  0.1906  0.3240
16766TIP3    H171789   2.431   2.768   5.535  0.9303  0.7617 -2.2061
16766TIP3    H271790   2.563   2.842   5.544  1.6137 -0.6298  0.4600
16767TIP3   OH271791   3.390   0.202   3.976  0.4699  0.3044  0.0591
16767TIP3    H171792   3.432   0.288   3.983  1.8089 -0.2754 -0.5177
16767TIP3    H271793   3.432   0.148   4.042  1.0631 -0.4414 -0.8929
16768TIP3   OH271794   0.201   5.339   4.523  0.2007  0.4159  0.6112
16768TIP3    H171795   0.161   5.419   4.556 -0.8041  0.3663 -0.4161
16768TIP3    H271796   0.129   5.292   4.481  1.2459  0.1095 -0.9271
16769TIP3   OH271797   1.045   0.724   6.578  0.1661  0.2311  0.3732
16769TIP3    H171798   1.052   0.750   6.670  3.4187  1.0263  0.0122
16769TIP3    H271799   1.045   0.628   6.580 -1.3333  0.2079  1.1973
16770TIP3   OH271800   2.314   5.807   0.417  0.5471 -0.3576 -0.2834
16770TIP3    H171801   2.343   5.763   0.497  1.9253  0.9909  0.0181
16770TIP3    H271802   2.367   5.887   0.413 -0.8310  0.5568 -1.5536
16771TIP3   OH271803   5.897   6.075   3.367 -0.3640 -0.0132  0.2593
16771TIP3    H171804   5.990   6.053   3.359 -0.4919 -1.2334  1.6062
16771TIP3    H271805   5.885   6.095   3.460 -1.5293 -0.3178  0.1935
16772TIP3   OH271806   0.260   3.597  10.416 -0.2245  0.0161 -0.1846
16772TIP3    H171807   0.326   3.588  10.347  1.3079  0.5480  1.1392
16772TIP3    H271808   0.177   3.603  10.370  0.6946 -0.1930 -1.9444
16773TIP3   OH271809   1.869   4.226   2.899 -0.0258  0.4325 -0.4817
16773TIP3    H171810   1.864   4.255   2.808 -0.7035  0.3075 -0.4877
16773TIP3    H271811   1.809   4.151   2.904 -2.0972  2.0648  0.6849
16774TIP3   OH271812   0.740   1.560  12.750  0.6012 -0.0885 -0.4099
16774TIP3    H171813   0.778   1.515  12.825 -1.6417 -0.8770  0.3455
16774TIP3    H271814   0.697   1.637  12.787 -0.3293 -0.3630 -0.8725
16775TIP3   OH271815   3.964   2.885  11.239 -0.2786  0.0021  0.4720
16775TIP3    H171816   3.983   2.949  11.171  1.2779 -1.1951 -0.3002
16775TIP3    H271817   3.875   2.905  11.267 -0.0243  2.1219 -0.1142
16776TIP3   OH271818   0.213   1.187  13.526 -0.2132  0.3688  0.4216
16776TIP3    H171819   0.198   1.148  13.440 -0.1505  0.9032  0.1641
16776TIP3    H271820   0.144   1.151  13.581  0.7981 -1.3822  0.6214
16777TIP3   OH271821   4.239   0.558   3.198  0.3022  0.3030  0.7861
16777TIP3    H171822   4.285   0.477   3.175 -0.5873 -0.9775  3.1853
16777TIP3    H271823   4.164   0.529   3.250 -2.3171  2.4249 -1.5109
16778TIP3   OH271824   6.612   0.511   5.055  0.0539  0.0304  0.6806
16778TIP3    H171825   6.642   0.560   4.979 -2.6495  1.6839  0.5549
16778TIP3    H271826   6.536   0.462   5.024 -0.8535  0.4143  2.1731
16779TIP3   OH271827   6.624   6.731  11.669  0.0219  0.5601 -0.2017
16779TIP3    H171828   6.626   6.707  11.576  0.2789  2.6800 -0.7810
16779TIP3    H271829   6.618   6.647  11.715  0.0347 -0.5419 -2.1162
16780TIP3   OH271830   6.515   6.274   3.417  0.2747  0.5577  0.0315
16780TIP3    H171831   6.611   6.271   3.424  0.4125  2.6899 -0.0972
16780TIP3    H271832   6.485   6.271   3.508  0.5051  0.5257  0.1077
16781TIP3   OH271833   1.227   2.178  11.813 -0.3230  0.5028 -0.1065
16781TIP3    H171834   1.292   2.222  11.759  1.2581  0.2358  1.4917
16781TIP3    H271835   1.187   2.248  11.865 -0.3568  0.4957 -0.1227
16782TIP3   OH271836   3.010   2.307  11.463 -0.3963  0.4472 -0.3323
16782TIP3    H171837   2.943   2.369  11.492  0.8111  1.0343  1.3850
16782TIP3    H271838   3.038   2.341  11.378 -0.6328  1.5613  0.0128
16783TIP3   OH271839   6.840   4.723   2.079 -0.1212  0.1219  0.0632
16783TIP3    H171840   6.803   4.730   2.168 -0.5761  2.3098 -0.2395
16783TIP3    H271841   6.921   4.772   2.083  1.0917 -1.7466 -0.1981
16784TIP3   OH271842   4.247   6.522  12.798 -0.0026  0.7601  0.0323
16784TIP3    H171843   4.247   6.445  12.742  1.0743  1.6524 -1.2461
16784TIP3    H271844   4.154   6.542  12.811 -0.3037 -0.7868  0.4885
16785TIP3   OH271845   5.973   3.458   4.950 -0.6234 -0.3487 -0.2328
16785TIP3    H171846   5.966   3.548   4.983 -0.1585 -0.2044 -0.5196
16785TIP3    H271847   6.014   3.409   5.021 -1.6500 -0.5246  0.2541
16786TIP3   OH271848   2.068   1.232  15.093 -0.3824 -0.6989 -0.1864
16786TIP3    H171849   2.085   1.272  15.178 -0.1790 -2.1287  0.4622
16786TIP3    H271850   2.078   1.304  15.031 -1.0614  0.4900  1.0282
16787TIP3   OH271851   5.993   6.722   3.858 -0.0506 -0.3075 -0.2161
16787TIP3    H171852   6.022   6.769   3.779 -1.4749  1.9429  0.5194
16787TIP3    H271853   5.965   6.636   3.825  0.7303  0.0371 -1.9251
16788TIP3   OH271854   6.027   5.542  15.967  0.3951 -0.4796 -0.5651
16788TIP3    H171855   5.976   5.462  15.955  0.7027 -0.6334 -0.8664
16788TIP3    H271856   6.056   5.538  16.058  0.6923 -0.8798 -0.6749
16789TIP3   OH271857   3.506   3.199   2.994 -0.1225  0.2622 -0.7038
16789TIP3    H171858   3.565   3.133   2.957  0.5539  1.9197 -2.8259
16789TIP3    H271859   3.519   3.192   3.089  0.7961 -1.8140 -0.9254
16790TIP3   OH271860   6.138   0.105   1.685 -0.2055 -0.6809  0.1225
16790TIP3    H171861   6.066   0.163   1.661  1.0218  0.0014 -2.2915
16790TIP3    H271862   6.106   0.017   1.668 -0.0750 -0.3158 -2.4221
16791TIP3   OH271863   4.673   4.251  14.539  0.0372 -0.4571 -0.2586
16791TIP3    H171864   4.614   4.184  14.574 -0.1221 -2.3580 -3.7237
16791TIP3    H271865   4.745   4.255  14.602 -1.7521 -1.0503  1.9811
16792TIP3   OH271866   0.355   4.991  13.958  0.3652  0.0734 -0.0330
16792TIP3    H171867   0.399   5.066  13.917 -1.2145  0.7817 -0.5086
16792TIP3    H271868   0.311   5.028  14.034 -1.0837 -0.1870 -0.7124
16793TIP3   OH271869   2.126   4.829   3.388 -0.4248 -0.1242  0.2273
16793TIP3    H171870   2.206   4.777   3.395 -0.2406  0.0976 -0.1582
16793TIP3    H271871   2.136   4.876   3.305 -1.0533 -0.2560  0.0761
16794TIP3   OH271872   4.209   0.716   1.179 -1.0338  0.6057 -0.1346
16794TIP3    H171873   4.195   0.650   1.247  1.8112  0.7022  0.6708
16794TIP3    H271874   4.263   0.673   1.114 -0.1878  1.7390 -0.2146
16795TIP3   OH271875   4.889   0.099  12.229  1.0263 -0.2303 -0.5694
16795TIP3    H171876   4.847   0.148  12.158  2.2389  0.7917 -0.6029
16795TIP3    H271877   4.966   0.059  12.189  2.8548  1.9837  0.5480
16796TIP3   OH271878   4.465   5.535   4.051  0.3550  0.2674 -0.7604
16796TIP3    H171879   4.386   5.555   4.000  1.0571  0.2018 -1.9200
16796TIP3    H271880   4.474   5.440   4.044 -0.7539 -0.0627  1.3822
16797TIP3   OH271881   2.947   6.191   3.405 -0.5682  0.1175  0.0900
16797TIP3    H171882   2.926   6.240   3.325 -0.0814 -1.4022 -1.0146
16797TIP3    H271883   3.040   6.172   3.397 -0.7806 -1.1218  0.4039
16798TIP3   OH271884   0.962   6.171   1.338 -0.1400 -0.1366  0.0180
16798TIP3    H171885   0.965   6.137   1.428 -0.9893 -0.9201 -0.2321
16798TIP3    H271886   1.034   6.126   1.293 -1.0807 -1.4511 -0.2393
16799TIP3   OH271887   0.119   4.963   3.746 -0.1341 -0.1515 -0.6050
16799TIP3    H171888   0.146   4.923   3.663  0.8459  0.6797 -0.7077
16799TIP3    H271889   0.089   5.051   3.722  0.0164  0.0391 -0.1001
16800TIP3   OH271890   2.174   0.937  15.930 -0.1684 -0.3010  0.4034
16800TIP3    H171891   2.201   0.995  16.001 -0.2989 -0.1694  0.3471
16800TIP3    H271892   2.228   0.859  15.941  0.4346  0.0672  0.1261
16801TIP3   OH271893   6.660   2.898   5.705 -0.4515  0.3706  0.1830
16801TIP3    H171894   6.598   2.952   5.755 -0.6681  0.2514  0.0435
16801TIP3    H271895   6.683   2.827   5.765  1.2285  1.5752  1.0474
16802TIP3   OH271896   3.732   4.835  11.279  0.1226 -0.4708  0.2626
16802TIP3    H171897   3.653   4.868  11.235  0.4263 -0.0171  0.0441
16802TIP3    H271898   3.786   4.800  11.209  1.1343  1.3252  0.0801
16803TIP3   OH271899   1.289   5.546  13.086  0.4368  0.2906 -1.1935
16803TIP3    H171900   1.341   5.616  13.045  1.3716 -0.1776 -0.8418
16803TIP3    H271901   1.290   5.567  13.179 -0.0112  0.2732 -1.1834
16804TIP3   OH271902   3.596   0.550  16.146 -0.2530  0.3208 -0.1720
16804TIP3    H171903   3.566   0.633  16.182  0.1443  0.3799  0.0217
16804TIP3    H271904   3.654   0.574  16.073 -0.3050  0.2122 -0.2502
16805TIP3   OH271905   6.453   0.573  14.727  0.2747  0.2544 -0.2785
16805TIP3    H171906   6.464   0.497  14.670  0.0933  0.5504 -0.7124
16805TIP3    H271907   6.510   0.640  14.690 -0.2344  0.6182 -0.4284
16806TIP3   OH271908   1.748   2.035   3.363 -0.0534 -0.1735  0.2032
16806TIP3    H171909   1.838   2.040   3.330 -0.5805  4.4879 -1.1997
16806TIP3    H271910   1.753   1.973   3.435  4.7090  1.0773  1.3242
16807TIP3   OH271911   2.458   5.302   2.474 -0.2528 -0.6284 -0.1734
16807TIP3    H171912   2.498   5.249   2.542 -1.0711 -2.1917 -0.8441
16807TIP3    H271913   2.527   5.363   2.446  0.4340 -0.7431  1.2294
16808TIP3   OH271914   6.669   3.614   0.294  0.3107 -0.6168  0.2742
16808TIP3    H171915   6.630   3.598   0.380  0.1176 -0.0384  0.3003
16808TIP3    H271916   6.593   3.626   0.235  0.4385 -0.0718  0.2117
16809TIP3   OH271917   3.743   6.406   0.513 -0.0459 -0.1967  0.7139
16809TIP3    H171918   3.669   6.355   0.478 -2.1940  3.3126 -0.4118
16809TIP3    H271919   3.814   6.391   0.451 -1.1120 -0.6175 -0.4414
16810TIP3   OH271920   1.683   0.346   4.861 -0.9632  0.9161  0.8302
16810TIP3    H171921   1.705   0.431   4.822  0.8895 -0.6676 -1.9567
16810TIP3    H271922   1.695   0.283   4.790 -2.3130 -1.7189  2.7481
16811TIP3   OH271923   6.370   4.805   3.543 -0.0708  0.2791  0.3982
16811TIP3    H171924   6.288   4.756   3.552  0.1615  0.2013  2.6531
16811TIP3    H271925   6.352   4.868   3.473 -0.4188 -2.7956 -2.5521
16812TIP3   OH271926   5.611   1.191  11.640  0.4935 -0.2832 -0.2319
16812TIP3    H171927   5.688   1.147  11.674  0.0638 -0.1797  0.9049
16812TIP3    H271928   5.645   1.266  11.591  1.1421 -0.8280 -0.6307
16813TIP3   OH271929   5.607   6.082   5.813 -0.5273 -0.1710  0.8587
16813TIP3    H171930   5.560   6.027   5.875  0.8872 -1.0445  1.1907
16813TIP3    H271931   5.665   6.022   5.767 -0.1969  0.7794  0.0029
16814TIP3   OH271932   0.081   6.153  15.016  0.1848  0.6456  0.1684
16814TIP3    H171933   0.031   6.084  15.060  1.8656  0.0791  1.2660
16814TIP3    H271934   0.017   6.223  15.002 -1.3052 -0.6708  0.0070
16815TIP3   OH271935   5.818   5.037  15.030 -0.0085 -0.6583  0.1937
16815TIP3    H171936   5.891   5.082  15.071 -1.2778  1.1060  0.6141
16815TIP3    H271937   5.834   4.944  15.048  1.9923 -0.3180  0.4319
16816TIP3   OH271938   0.917   1.373  12.510  0.1956  0.0901  0.1404
16816TIP3    H171939   0.864   1.294  12.521  1.3106 -0.4653  2.1555
16816TIP3    H271940   1.006   1.345  12.534  0.6806  1.8844  0.5978
16817TIP3   OH271941   4.813   5.053  15.579 -0.3627 -0.2110  0.5810
16817TIP3    H171942   4.820   5.116  15.651 -1.7833  1.0897 -0.3528
16817TIP3    H271943   4.851   5.098  15.504  0.2494 -1.1914  0.2860
16818TIP3   OH271944   1.369   3.970  15.804 -0.3415 -0.5252 -0.0164
16818TIP3    H171945   1.463   3.973  15.819 -0.3045 -1.8854  0.1227
16818TIP3    H271946   1.354   3.888  15.757 -1.3930 -0.0490 -0.5786
16819TIP3   OH271947   1.467   5.773   2.677 -0.2056  0.2789 -0.5847
16819TIP3    H171948   1.550   5.792   2.721  0.5997  1.5612 -2.5114
16819TIP3    H271949   1.474   5.817   2.593 -1.4387 -2.5227 -2.2854
16820TIP3   OH271950   3.983   4.022  11.354  0.1016 -0.3443  0.1492
16820TIP3    H171951   3.940   4.034  11.439  0.9600 -1.0559  0.7061
16820TIP3    H271952   3.936   3.949  11.314 -1.2710  0.9198 -0.6699
16821TIP3   OH271953   2.399   1.717   3.421  1.2054  0.4534 -0.5215
16821TIP3    H171954   2.321   1.727   3.367  0.8150  1.0982  0.1431
16821TIP3    H271955   2.421   1.624   3.415  0.8053  0.3993 -1.2698
16822TIP3   OH271956   4.358   2.643  10.268 -0.5570  0.0204 -0.3867
16822TIP3    H171957   4.399   2.558  10.288  1.3634  0.6770 -1.2700
16822TIP3    H271958   4.280   2.621  10.218 -2.0745 -1.3567  2.3432
16823TIP3   OH271959   2.596   4.004   0.955 -0.3730 -0.0514  0.2715
16823TIP3    H171960   2.534   3.942   0.994 -2.3301  0.6428 -1.5393
16823TIP3    H271961   2.636   4.048   1.029 -2.0814 -0.5285  1.5324
16824TIP3   OH271962   2.161   1.021  12.395 -0.7454 -0.0080  0.6017
16824TIP3    H171963   2.203   1.099  12.359 -1.0904 -0.1232 -0.0615
16824TIP3    H271964   2.224   0.987  12.458 -0.6435  0.8771  0.9911
16825TIP3   OH271965   1.549   0.066   4.789  0.2521  0.2881 -0.1435
16825TIP3    H171966   1.467   0.017   4.789  0.2695  0.2360 -0.8549
16825TIP3    H271967   1.530   0.145   4.738  0.2172  1.0411  1.0068
16826TIP3   OH271968   3.950   6.587   2.334  0.5091  0.3097 -0.1317
16826TIP3    H171969   4.030   6.536   2.347  0.6915  0.6752  0.1964
16826TIP3    H271970   3.949   6.606   2.240 -0.2632 -1.4256 -0.5122
16827TIP3   OH271971   3.300   3.635   0.667 -0.2756 -0.2552 -0.6850
16827TIP3    H171972   3.230   3.700   0.674  1.4226  1.7549 -1.0073
16827TIP3    H271973   3.315   3.605   0.757 -1.9725 -1.2645 -0.7039
16828TIP3   OH271974   3.498   5.080   5.500  0.0780  0.3050 -0.2507
16828TIP3    H171975   3.556   5.005   5.508 -0.0318  0.1211 -1.0562
16828TIP3    H271976   3.540   5.149   5.551  1.2142  0.2918 -1.1434
16829TIP3   OH271977   4.850   5.625  14.250 -0.7496 -0.8707  0.1171
16829TIP3    H171978   4.891   5.681  14.184 -2.2305 -0.1591 -0.2384
16829TIP3    H271979   4.853   5.676  14.330 -1.4076 -0.5697 -0.0370
16830TIP3   OH271980   2.889   0.421   2.510  0.2966 -0.3926 -0.0589
16830TIP3    H171981   2.813   0.398   2.458  0.1934 -1.4889  0.5581
16830TIP3    H271982   2.962   0.374   2.470  0.4598 -0.1971  0.0005
16831TIP3   OH271983   1.031   5.450  15.144 -0.0608  0.4700  0.0494
16831TIP3    H171984   1.119   5.481  15.123 -0.0409 -0.1872 -0.9395
16831TIP3    H271985   0.988   5.441  15.058 -1.3602  1.5273  0.5487
16832TIP3   OH271986   3.238   2.309  16.561 -0.1749  0.3569 -0.0086
16832TIP3    H171987   3.303   2.330  16.494 -1.2130  0.0935 -1.1319
16832TIP3    H271988   3.225   2.392  16.607  0.7307  0.4828  0.0402
16833TIP3   OH271989   6.428   1.389  13.895  0.2019 -0.4226 -0.4356
16833TIP3    H171990   6.420   1.301  13.933 -3.1322 -0.5738 -1.1066
16833TIP3    H271991   6.444   1.446  13.970 -0.2812 -1.3609  0.4091
16834TIP3   OH271992   3.109   4.213   4.432 -0.3527  0.1753  0.4802
16834TIP3    H171993   3.060   4.262   4.497 -1.4203  2.4135 -1.8456
16834TIP3    H271994   3.046   4.194   4.363  0.9275 -1.3242 -0.3743
16835TIP3   OH271995   4.825   4.296  16.135 -0.1243 -0.2043 -0.0819
16835TIP3    H171996   4.920   4.291  16.141 -0.1180  1.0537  1.4425
16835TIP3    H271997   4.794   4.217  16.180  0.2097  0.3446  1.1639
16836TIP3   OH271998   6.783   2.295   5.215  0.8782  0.5080  0.0776
16836TIP3    H171999   6.827   2.378   5.232 -1.3594  1.1235  4.0098
16836TIP3    H272000   6.837   2.230   5.259  0.6927  0.4612  0.2375
16837TIP3   OH272001   6.843   6.156   5.363  0.5769 -0.1297 -0.3857
16837TIP3    H172002   6.900   6.230   5.384  0.2202  0.0020  0.1423
16837TIP3    H272003   6.755   6.194   5.365  0.4438 -0.4115 -0.8283
16838TIP3   OH272004   2.223   5.240  15.415  0.0892 -0.0640  0.9592
16838TIP3    H172005   2.305   5.193  15.431  0.1473  0.0448  0.9813
16838TIP3    H272006   2.250   5.328  15.392 -0.0333  0.0720  1.3194
16839TIP3   OH272007   0.123   5.706  11.965  0.6893 -0.1478  0.0788
16839TIP3    H172008   0.068   5.738  12.036 -0.5759  0.8806 -1.3018
16839TIP3    H272009   0.113   5.611  11.967 -2.8336  0.0670 -1.3536
16840TIP3   OH272010   4.944   4.096   2.259 -0.4827  0.0150  0.2799
16840TIP3    H172011   4.872   4.154   2.283  0.5906  1.8041 -0.6514
16840TIP3    H272012   5.022   4.137   2.296  0.2908 -0.9853 -0.1898
16841TIP3   OH272013   0.801   4.922  11.949  0.6264 -0.6891  0.1915
16841TIP3    H172014   0.776   4.857  12.015  2.2455 -3.1971 -1.4763
16841TIP3    H272015   0.738   4.909  11.878 -0.4792  1.2863  0.7458
16842TIP3   OH272016   3.148   3.641   4.285 -0.1004  0.3224  0.2484
16842TIP3    H172017   3.148   3.734   4.309 -2.2727  0.1939  0.9983
16842TIP3    H272018   3.220   3.603   4.335 -1.3770  1.0056  2.7820
16843TIP3   OH272019   2.480   2.670   6.025  0.3273  0.2290 -0.2948
16843TIP3    H172020   2.550   2.735   6.030 -0.5347  1.2541 -1.0120
16843TIP3    H272021   2.400   2.722   6.011 -0.9123 -0.7204  2.3797
16844TIP3   OH272022   2.180   0.890   0.316  0.9867  0.1171  0.1722
16844TIP3    H172023   2.175   0.895   0.412 -0.9400  1.6022  0.0338
16844TIP3    H272024   2.108   0.832   0.292  0.5206  0.9424 -0.4512
16845TIP3   OH272025   2.329   6.458   4.631  0.1820 -0.0821  0.2289
16845TIP3    H172026   2.285   6.378   4.601 -0.3014  0.3910 -0.3708
16845TIP3    H272027   2.277   6.488   4.706  1.3726 -1.2501  1.5686
16846TIP3   OH272028   0.218   4.366   5.046 -0.5859  0.3057 -0.1526
16846TIP3    H172029   0.164   4.360   5.125  0.1931  0.1659  0.3763
16846TIP3    H272030   0.177   4.306   4.984 -1.2990  0.5382  0.0757
16847TIP3   OH272031   4.713   2.561   0.522 -0.3836 -0.6094  0.2192
16847TIP3    H172032   4.731   2.631   0.460 -0.8251 -0.0188  0.7398
16847TIP3    H272033   4.666   2.496   0.472  1.2744 -1.2186 -0.6377
16848TIP3   OH272034   0.997   1.789  14.598  0.5939 -0.1166 -0.4659
16848TIP3    H172035   0.974   1.804  14.690 -1.2679  1.2685 -1.0952
16848TIP3    H272036   0.924   1.738  14.563 -0.3697  2.0875 -1.8914
16849TIP3   OH272037   3.785   3.091  14.623  0.4229 -0.1877  0.1234
16849TIP3    H172038   3.794   3.168  14.567  2.6150  0.2181  0.9323
16849TIP3    H272039   3.793   3.016  14.564  0.9765  0.2326 -0.3382
16850TIP3   OH272040   2.176   5.391   2.920 -0.5048  0.4006 -0.2586
16850TIP3    H172041   2.263   5.361   2.945  0.7988  1.5510 -2.9561
16850TIP3    H272042   2.125   5.310   2.907  0.7937 -0.3756 -0.6446
16851TIP3   OH272043   6.054   2.006   4.742 -0.0736 -0.0134 -0.3804
16851TIP3    H172044   6.128   2.054   4.705 -0.6121 -0.4781 -2.1294
16851TIP3    H272045   6.050   1.925   4.693  0.6238 -1.8267  2.3175
16852TIP3   OH272046   2.622   5.437  12.642 -0.2671  0.4156  0.6848
16852TIP3    H172047   2.620   5.406  12.552 -1.6430 -1.3523  1.2881
16852TIP3    H272048   2.713   5.466  12.654  0.3100 -0.5914 -0.8468
16853TIP3   OH272049   2.448   2.814  14.203  0.1471 -0.0556  0.4577
16853TIP3    H172050   2.390   2.768  14.143 -0.8246 -0.1772  1.4702
16853TIP3    H272051   2.398   2.823  14.284  0.6062  2.0701  0.5554
16854TIP3   OH272052   0.891   1.765  14.879  0.0063  0.0068 -0.2228
16854TIP3    H172053   0.822   1.805  14.932 -0.8458 -2.2237  0.4600
16854TIP3    H272054   0.857   1.679  14.856  1.1098  0.1940 -2.9164
16855TIP3   OH272055   0.567   0.326  10.609 -0.0389 -0.2131  0.2800
16855TIP3    H172056   0.538   0.407  10.651 -2.0643 -0.9453  0.4092
16855TIP3    H272057   0.586   0.351  10.519  0.8176  0.6705  0.6849
16856TIP3   OH272058   3.723   4.946   1.938  0.3580  0.3282 -0.1616
16856TIP3    H172059   3.711   5.031   1.981  3.4483  1.9243 -2.1394
16856TIP3    H272060   3.806   4.913   1.973 -0.5509 -1.7278  0.1962
16857TIP3   OH272061   5.910   4.746  14.538  0.1736  0.3330 -0.1422
16857TIP3    H172062   5.899   4.735  14.633  1.7139  2.6102  0.4011
16857TIP3    H272063   5.821   4.764  14.506 -0.6606 -2.1795  0.4945
16858TIP3   OH272064   4.010   6.370   5.697  0.1037 -0.1714  0.3959
16858TIP3    H172065   4.060   6.304   5.745  0.5106 -0.2470 -0.1190
16858TIP3    H272066   4.004   6.336   5.608  3.0524  1.8511 -0.7642
16859TIP3   OH272067   6.272   3.215  15.347  0.2203  0.8767  0.1617
16859TIP3    H172068   6.355   3.257  15.326  0.6221 -0.1625 -0.4071
16859TIP3    H272069   6.220   3.223  15.267 -0.0460  1.0959  0.3540
16860TIP3   OH272070   4.362   3.370   1.431 -0.2330  0.4329  0.3988
16860TIP3    H172071   4.434   3.307   1.438  0.7984  1.6180  1.0529
16860TIP3    H272072   4.351   3.403   1.521 -0.9012  1.0197  0.1103
16861TIP3   OH272073   5.683   4.790   4.571 -0.3429 -0.3925  0.2005
16861TIP3    H172074   5.776   4.795   4.593 -0.5428 -0.8935  1.2337
16861TIP3    H272075   5.679   4.813   4.478  0.3910  3.3141  0.9402
16862TIP3   OH272076   3.182   0.074   3.838 -0.4907  0.3543 -0.9098
16862TIP3    H172077   3.163   0.001   3.896  0.0746  0.1173 -1.0193
16862TIP3    H272078   3.256   0.119   3.878 -0.6979  0.7435 -0.9561
16863TIP3   OH272079   5.245   1.599   3.725 -0.0447  0.1881  0.0273
16863TIP3    H172080   5.213   1.545   3.797 -0.9340  0.5577 -0.0752
16863TIP3    H272081   5.239   1.688   3.757 -3.3577  0.6476 -1.4813
16864TIP3   OH272082   6.193   0.559  10.979 -0.5911 -0.6124  0.1247
16864TIP3    H172083   6.263   0.618  10.952 -1.6180  0.6497  0.0977
16864TIP3    H272084   6.225   0.518  11.059 -0.2816  0.8846  0.8065
16865TIP3   OH272085   4.163   5.945  16.488  0.0824  0.1600 -0.2986
16865TIP3    H172086   4.176   5.974  16.398 -1.2715  0.0259 -0.5557
16865TIP3    H272087   4.208   6.010  16.541 -0.9069  1.4325 -0.9813
16866TIP3   OH272088   2.095   0.051  11.493 -0.5380 -0.4228 -0.4238
16866TIP3    H172089   2.069   0.083  11.579  1.3730 -0.9864  0.4210
16866TIP3    H272090   2.090  -0.045  11.500 -1.3542 -0.4559 -1.2869
16867TIP3   OH272091   6.828   5.407   2.135 -0.2321  0.0607  0.7100
16867TIP3    H172092   6.744   5.386   2.174  0.7759 -1.1948  2.3327
16867TIP3    H272093   6.893   5.368   2.194  1.4487 -0.3136 -1.2361
16868TIP3   OH272094   0.173   1.991   2.359 -0.3246  0.1915 -0.1960
16868TIP3    H172095   0.142   1.933   2.289 -1.8391  1.7146 -0.8656
16868TIP3    H272096   0.132   1.958   2.438 -0.0401 -0.4835 -0.3244
16869TIP3   OH272097   6.385   3.768   1.413 -0.0873  0.2465  0.2373
16869TIP3    H172098   6.478   3.786   1.397 -0.2211  0.8603  0.1074
16869TIP3    H272099   6.372   3.677   1.386  0.4852  0.1455  0.2972
16870TIP3   OH272100   1.303   5.978   0.951  0.5622  0.4986 -0.5713
16870TIP3    H172101   1.338   6.066   0.965 -0.6215  0.6890  1.7121
16870TIP3    H272102   1.345   5.925   1.019 -1.6491  0.2260  0.6848
16871TIP3   OH272103   5.302   2.103   0.239 -0.5998 -0.4315 -0.7851
16871TIP3    H172104   5.222   2.129   0.285 -0.4287  0.7770 -1.1170
16871TIP3    H272105   5.271   2.052   0.165 -1.2757  1.5754 -1.9844
16872TIP3   OH272106   6.411   5.135  15.052  0.1584 -0.1355 -0.8558
16872TIP3    H172107   6.336   5.190  15.070  0.8984  0.4807  0.4964
16872TIP3    H272108   6.487   5.190  15.070  0.9205 -1.3797  0.0108
16873TIP3   OH272109   2.564   4.404  12.751  0.0846  0.1186  0.3247
16873TIP3    H172110   2.610   4.466  12.693  0.9304 -0.2412  0.5906
16873TIP3    H272111   2.613   4.323  12.742 -0.6233 -0.3332  0.4915
16874TIP3   OH272112   3.690   0.080   0.991 -0.3942  0.0911  0.4050
16874TIP3    H172113   3.652   0.146   1.048 -2.6655 -0.2095 -0.6558
16874TIP3    H272114   3.649   0.095   0.906  0.5924 -1.3917 -0.3746
16875TIP3   OH272115   1.503   5.421   5.777  0.0096 -0.4321  0.1633
16875TIP3    H172116   1.478   5.385   5.862 -0.9048 -1.7824 -0.6446
16875TIP3    H272117   1.531   5.510   5.796  1.7679 -1.3317  2.1604
16876TIP3   OH272118   3.470   0.907   0.131 -0.0528  0.0170  0.5053
16876TIP3    H172119   3.433   0.906   0.043 -0.8058 -0.6904  0.8173
16876TIP3    H272120   3.554   0.952   0.122  1.6697 -3.2519 -1.2806
16877TIP3   OH272121   2.618   0.448  15.620 -0.6190  0.4306  0.1965
16877TIP3    H172122   2.669   0.397  15.557  1.6694 -0.2118  2.3816
16877TIP3    H272123   2.575   0.382  15.675 -0.5552  0.9011  0.8209
16878TIP3   OH272124   2.660   4.136   3.069  0.1042 -0.5507 -0.3947
16878TIP3    H172125   2.657   4.069   3.137  0.0514  0.3632  0.5379
16878TIP3    H272126   2.627   4.093   2.991  1.1002 -1.9246 -0.1022
16879TIP3   OH272127   1.461   1.797  11.726  0.4785 -0.2638  0.2674
16879TIP3    H172128   1.505   1.801  11.641  1.3634  1.2693  0.7518
16879TIP3    H272129   1.368   1.793  11.704  0.6125  1.3978 -0.8288
16880TIP3   OH272130   6.233   4.159   5.519 -0.2427  0.2287  0.0439
16880TIP3    H172131   6.264   4.091   5.459 -0.1399  0.7851 -0.5449
16880TIP3    H272132   6.183   4.219   5.463 -0.7445  0.3707  0.6459
16881TIP3   OH272133   0.762   4.909   0.012  0.5049 -0.5252 -0.8796
16881TIP3    H172134   0.716   4.862   0.082  1.6442  0.4474  0.5966
16881TIP3    H272135   0.830   4.848  -0.016 -1.0832 -1.6597 -2.5265
16882TIP3   OH272136   0.005   0.044   4.410 -0.4124 -0.1101  1.2086
16882TIP3    H172137   0.034   0.128   4.447 -0.3012  0.0894  0.6862
16882TIP3    H272138   0.063   0.031   4.335  0.5334 -1.3643  2.1214
16883TIP3   OH272139   5.890   0.003  12.310  0.0505 -0.7500  0.0321
16883TIP3    H172140   5.880  -0.055  12.385 -0.7836  1.3679  1.6411
16883TIP3    H272141   5.969   0.054  12.328  0.0065 -0.4211 -0.6736
16884TIP3   OH272142   0.347   1.175  15.993 -0.5653  0.0725 -0.5647
16884TIP3    H172143   0.293   1.098  16.009  1.1595 -1.2016 -0.6067
16884TIP3    H272144   0.327   1.200  15.903  0.3540 -1.6129 -1.2703
16885TIP3   OH272145   4.759   5.000   1.558 -0.2219  0.3697  0.1664
16885TIP3    H172146   4.673   5.042   1.558 -0.2220  0.5872 -3.1256
16885TIP3    H272147   4.774   4.976   1.467  1.8108 -2.7004  1.1596
16886TIP3   OH272148   6.555   2.707  11.902 -0.5637 -0.3991 -0.1992
16886TIP3    H172149   6.642   2.739  11.882 -0.9034  1.0341  0.4626
16886TIP3    H272150   6.497   2.780  11.880 -1.3379 -0.3970  1.6886
16887TIP3   OH272151   5.614   1.635   1.011 -0.4656 -0.1131  0.7492
16887TIP3    H172152   5.578   1.564   0.958  2.6095 -0.8714 -0.5522
16887TIP3    H272153   5.579   1.715   0.972 -0.1521 -0.7710 -0.9672
16888TIP3   OH272154   6.225   4.135  12.475  0.8516  0.2167 -0.4735
16888TIP3    H172155   6.189   4.167  12.557  0.6629 -0.5727 -0.2456
16888TIP3    H272156   6.221   4.040  12.481  2.3161  0.1054 -0.7318
16889TIP3   OH272157   5.305   3.284   4.503  0.0961  0.1617  0.0183
16889TIP3    H172158   5.272   3.199   4.531 -2.1844  1.2417  0.8376
16889TIP3    H272159   5.374   3.305   4.566 -0.4056 -0.4075  0.7693
16890TIP3   OH272160   6.061   2.766   2.085  0.4228 -0.2578 -0.2273
16890TIP3    H172161   6.019   2.845   2.121  0.8940 -0.4994  0.9195
16890TIP3    H272162   6.105   2.796   2.006  0.3594  0.5830  0.0442
16891TIP3   OH272163   5.523   5.182  14.023 -0.5676 -0.4089  0.4793
16891TIP3    H172164   5.430   5.188  14.000 -0.2996 -2.4824 -1.4375
16891TIP3    H272165   5.523   5.185  14.119 -2.5975 -0.1209  0.5252
16892TIP3   OH272166   1.278   0.866   0.009 -0.2249  0.7048  0.4643
16892TIP3    H172167   1.261   0.948   0.056 -1.7118  1.0281 -0.5923
16892TIP3    H272168   1.332   0.892  -0.066 -1.9833  0.9970 -0.7358
16893TIP3   OH272169   0.758   3.021  15.342 -0.2061  0.2004  0.8510
16893TIP3    H172170   0.805   3.104  15.331  0.2626 -0.3440 -2.2402
16893TIP3    H272171   0.821   2.954  15.315 -1.7833 -0.7954 -0.5135
16894TIP3   OH272172   1.444   1.464   5.481 -0.8893 -0.3821  0.3480
16894TIP3    H172173   1.366   1.515   5.458  0.3084  0.5473 -1.9987
16894TIP3    H272174   1.410   1.389   5.529 -2.9493  1.3784  1.8442
16895TIP3   OH272175   4.840   1.870   1.100  0.0631  0.3219  1.0189
16895TIP3    H172176   4.831   1.892   1.193 -0.4472 -0.7377  1.2368
16895TIP3    H272177   4.922   1.910   1.074  0.2486  0.5731  1.9482
16896TIP3   OH272178   6.510   2.563  10.973 -0.1394  0.0225  0.3789
16896TIP3    H172179   6.596   2.605  10.966  0.1135 -0.6479 -0.9327
16896TIP3    H272180   6.449   2.631  10.946 -0.0712  0.6206  1.6802
16897TIP3   OH272181   5.389   2.569   5.093  0.0161  0.1344 -0.2467
16897TIP3    H172182   5.452   2.581   5.164 -0.0068 -0.7749 -0.0613
16897TIP3    H272183   5.440   2.580   5.013  0.2523  0.1557 -0.0924
16898TIP3   OH272184   0.974   6.019  15.524 -0.3775 -0.2177 -0.0560
16898TIP3    H172185   0.944   6.092  15.471 -0.8531 -1.1756 -1.1437
16898TIP3    H272186   1.026   5.965  15.465  1.3604  0.0665  1.1424
16899TIP3   OH272187   2.473   0.723  16.003 -0.3578  0.6962  0.3187
16899TIP3    H172188   2.392   0.689  15.966 -0.0918 -0.0003  0.3667
16899TIP3    H272189   2.450   0.754  16.090 -0.9315  2.0862 -0.2913
16900TIP3   OH272190   2.481   4.924  12.530  0.1287 -0.6949  0.0566
16900TIP3    H172191   2.389   4.942  12.510  0.3782 -0.8050 -1.2965
16900TIP3    H272192   2.513   5.005  12.570 -0.0815  0.0447 -1.2238
16901TIP3   OH272193   2.582   3.844   1.444 -0.7344 -0.2015  0.2916
16901TIP3    H172194   2.641   3.884   1.379 -0.7586  0.9979  0.9763
16901TIP3    H272195   2.494   3.860   1.409 -0.8674  2.1718  1.4598
16902TIP3   OH272196   5.007   4.638  16.223 -0.0587 -0.1721 -0.0819
16902TIP3    H172197   4.965   4.674  16.301 -2.3339  0.7218 -1.5996
16902TIP3    H272198   4.935   4.609  16.168  1.3676  0.4471 -2.4261
16903TIP3   OH272199   5.430   5.493  16.867  0.1842 -0.5084  0.1177
16903TIP3    H172200   5.340   5.526  16.863 -0.2025 -1.2757  1.6235
16903TIP3    H272201   5.478   5.547  16.805 -1.3133 -0.0701 -0.7157
16904TIP3   OH272202   3.423   6.042  11.799  0.4479  0.3055 -0.3355
16904TIP3    H172203   3.500   5.994  11.832 -0.9469 -0.9260  1.3426
16904TIP3    H272204   3.448   6.134  11.806  1.6533 -0.0540  0.5268
16905TIP3   OH272205   2.070   6.742  13.268  0.0572 -0.0391 -0.6175
16905TIP3    H172206   2.041   6.736  13.359 -0.8805 -0.8967 -0.9586
16905TIP3    H272207   1.996   6.710  13.216  1.0697 -0.8678 -1.6065
16906TIP3   OH272208   0.559   3.404   2.074 -0.3761 -0.3710 -0.1634
16906TIP3    H172209   0.515   3.324   2.102 -3.0697  0.4767 -1.5764
16906TIP3    H272210   0.572   3.453   2.155  0.9698 -2.0289  0.6676
16907TIP3   OH272211   4.410   6.358   5.106 -0.3273  0.1810 -0.6526
16907TIP3    H172212   4.342   6.416   5.139  0.0100  1.7653 -2.5820
16907TIP3    H272213   4.371   6.315   5.031  0.5926  0.6783 -1.4374
16908TIP3   OH272214   1.026   0.416  13.756 -0.4029 -1.2093  0.3635
16908TIP3    H172215   0.998   0.477  13.825 -0.3125 -1.0800  0.2870
16908TIP3    H272216   1.031   0.470  13.677  1.3009 -0.9225  0.6204
16909TIP3   OH272217   6.374   6.173   1.424 -0.1036  0.4807 -0.3962
16909TIP3    H172218   6.396   6.262   1.398  0.7661  0.7984  1.2528
16909TIP3    H272219   6.424   6.117   1.364  2.4938  1.1743  0.9471
16910TIP3   OH272220   4.567   5.628  16.671 -0.5038 -0.0556 -0.5426
16910TIP3    H172221   4.649   5.663  16.635 -1.3089  2.9811  0.3266
16910TIP3    H272222   4.499   5.683  16.633 -1.8780 -0.6514  0.9647
16911TIP3   OH272223   0.912   5.071  15.846 -0.3962  0.2489 -0.4187
16911TIP3    H172224   0.861   5.018  15.907 -1.0191 -0.6918 -1.6997
16911TIP3    H272225   0.847   5.105  15.784  0.3612  0.0510 -1.3486
16912TIP3   OH272226   6.140   0.614  14.121  0.1981  0.2022  0.0958
16912TIP3    H172227   6.198   0.644  14.191  1.9329 -0.0406 -1.1524
16912TIP3    H272228   6.172   0.526  14.099  0.8452  0.9027 -2.0979
16913TIP3   OH272229   1.943   0.755  10.311 -0.2459 -0.0092 -0.1529
16913TIP3    H172230   1.941   0.788  10.401  0.9088  1.0303 -0.4806
16913TIP3    H272231   1.990   0.672  10.316  0.4944  0.4195  0.1026
16914TIP3   OH272232   5.721   5.206  10.931 -0.3222  0.1072  0.0357
16914TIP3    H172233   5.793   5.247  10.980 -1.4361  0.4700  1.4602
16914TIP3    H272234   5.701   5.126  10.980  0.4553 -1.1037 -1.5418
16915TIP3   OH272235   0.082   5.411  15.309  0.0584  0.9399  0.5345
16915TIP3    H172236   0.145   5.424  15.238  0.4465  2.3791  1.1050
16915TIP3    H272237   0.035   5.332  15.284 -0.6162  2.0100 -1.9329
16916TIP3   OH272238   3.666   1.529  15.278 -0.3049  0.4090 -0.3305
16916TIP3    H172239   3.750   1.545  15.235  0.6399 -1.0819  0.8308
16916TIP3    H272240   3.607   1.501  15.207  0.5472  0.2353 -0.9812
16917TIP3   OH272241   1.533   3.095  13.988 -0.5189 -0.6067  0.2271
16917TIP3    H172242   1.456   3.054  13.949 -1.1901 -0.0056  0.8953
16917TIP3    H272243   1.601   3.087  13.920 -1.4583 -0.2169 -0.7930
16918TIP3   OH272244   3.011   5.324   4.541  0.6299 -0.1508 -0.3726
16918TIP3    H172245   2.959   5.374   4.605 -0.9221  0.2919 -1.8960
16918TIP3    H272246   3.098   5.363   4.545 -0.0251  1.3606 -0.0917
16919TIP3   OH272247   2.522   1.492  17.031  0.0791 -0.4167  0.4384
16919TIP3    H172248   2.580   1.535  16.968  0.8051  0.5074  1.6934
16919TIP3    H272249   2.576   1.482  17.110 -1.2915 -0.0113  1.4630
16920TIP3   OH272250   5.346   0.080  15.229  0.3634  0.2068 -0.2911
16920TIP3    H172251   5.313   0.164  15.197 -0.4521  1.0762  2.5908
16920TIP3    H272252   5.437   0.098  15.252  1.3436 -0.7383 -2.9521
16921TIP3   OH272253   6.552   3.267  15.302 -0.0172 -0.3812  0.1137
16921TIP3    H172254   6.630   3.218  15.328  0.5900  0.5384  0.0529
16921TIP3    H272255   6.564   3.354  15.340 -0.8753 -0.1422 -0.1397
16922TIP3   OH272256   3.923   4.863   6.002 -0.7241  0.1790  0.3316
16922TIP3    H172257   3.859   4.793   6.011 -0.5124  0.0486  0.8358
16922TIP3    H272258   4.008   4.818   6.002 -0.5860  0.4378  0.7130
16923TIP3   OH272259   3.708   2.401  15.038 -0.1041 -0.2408  0.2861
16923TIP3    H172260   3.730   2.308  15.029 -3.0090 -0.9459 -0.6684
16923TIP3    H272261   3.638   2.403  15.103 -0.7380  1.1499 -0.3937
16924TIP3   OH272262   2.439   1.187  10.775  0.4593 -0.1799 -0.2092
16924TIP3    H172263   2.505   1.192  10.844 -0.4330 -0.9106  0.7389
16924TIP3    H272264   2.481   1.225  10.698  1.8987 -0.4471  0.4188
16925TIP3   OH272265   6.717   5.526  13.556 -0.0861  0.0010  0.3009
16925TIP3    H172266   6.697   5.570  13.474  1.0962  1.1389  0.5887
16925TIP3    H272267   6.726   5.434  13.533 -1.8750 -0.0407 -0.4412
16926TIP3   OH272268   1.624   4.923   4.134  0.1338  0.2498 -0.4022
16926TIP3    H172269   1.570   4.875   4.197  0.3917 -0.4871 -0.7290
16926TIP3    H272270   1.653   5.001   4.181 -2.4788  1.5190 -0.6827
16927TIP3   OH272271   0.747   3.060  14.466 -0.3417 -0.1973 -0.0386
16927TIP3    H172272   0.656   3.081  14.486  0.1245  1.0248  0.9463
16927TIP3    H272273   0.797   3.130  14.508  1.1419 -1.6955  0.8301
16928TIP3   OH272274   3.410   1.075   6.058 -0.0288 -0.0313 -0.2834
16928TIP3    H172275   3.334   1.128   6.034 -1.6595 -1.8221  0.7234
16928TIP3    H272276   3.408   1.001   5.998 -0.2492 -1.0962  1.0082
16929TIP3   OH272277   1.569   2.724   1.894  0.0592 -0.2577 -0.2366
16929TIP3    H172278   1.656   2.716   1.932  0.7672 -0.7405 -1.8531
16929TIP3    H272279   1.509   2.691   1.961  1.1360 -0.2118  0.7754
16930TIP3   OH272280   5.569   0.673   2.929  0.2056  0.7260 -0.5100
16930TIP3    H172281   5.622   0.669   3.008 -2.0875  1.9610  1.2108
16930TIP3    H272282   5.532   0.585   2.921 -1.1028  1.1062  0.9945
16931TIP3   OH272283   1.836   1.791   1.542  0.3870 -0.0371 -0.1910
16931TIP3    H172284   1.903   1.860   1.537  0.2411  0.1074 -0.1602
16931TIP3    H272285   1.798   1.789   1.454 -0.0167  0.3321 -0.0259
16932TIP3   OH272286   2.226   1.058  14.264  0.0861  0.0501  0.1543
16932TIP3    H172287   2.157   1.012  14.311  1.4197 -0.1076  2.0551
16932TIP3    H272288   2.179   1.110  14.199 -1.7037 -1.1757  0.3757
16933TIP3   OH272289   0.581   1.637   4.042  0.7899  0.6289  0.0956
16933TIP3    H172290   0.564   1.544   4.054  2.8697  0.3596  1.4783
16933TIP3    H272291   0.674   1.648   4.064  1.1671  2.6961 -2.1262
16934TIP3   OH272292   6.835   4.042  12.454 -0.4409  0.0333 -0.4638
16934TIP3    H172293   6.857   4.095  12.531  0.6230  1.8472 -1.9485
16934TIP3    H272294   6.918   4.005  12.425 -0.4778  1.0239 -1.9044
16935TIP3   OH272295   4.058   2.723  10.446 -0.5903 -0.3150  0.0022
16935TIP3    H172296   4.024   2.642  10.483 -1.3823  0.0774  0.1633
16935TIP3    H272297   4.057   2.785  10.520  0.1781 -0.2084 -0.0724
16936TIP3   OH272298   4.798   4.925  12.514  0.0717 -0.1499 -0.5596
16936TIP3    H172299   4.862   4.929  12.443 -0.7307  0.4122 -1.2794
16936TIP3    H272300   4.730   4.866  12.482 -0.9331  1.1086 -0.8313
16937TIP3   OH272301   4.511   2.352   2.971 -0.7573  0.4235 -0.1319
16937TIP3    H172302   4.517   2.389   3.059  0.1836  0.2140 -0.0942
16937TIP3    H272303   4.445   2.405   2.927 -1.9933 -0.1105  1.0081
16938TIP3   OH272304   0.033   2.499   0.139 -0.6647 -0.0572 -0.4760
16938TIP3    H172305  -0.062   2.502   0.145 -0.5892  1.5166  0.6610
16938TIP3    H272306   0.051   2.453   0.057 -2.4112  0.3129 -1.1092
16939TIP3   OH272307   6.134   0.554   1.136 -0.1191 -0.0291  0.3515
16939TIP3    H172308   6.085   0.626   1.175  0.6668  0.2018  0.9402
16939TIP3    H272309   6.077   0.521   1.067 -0.7193  0.8031  0.4333
16940TIP3   OH272310   4.048   2.142  11.305 -0.0926  0.0970  0.0692
16940TIP3    H172311   4.079   2.205  11.241 -0.3974 -0.7150 -0.9027
16940TIP3    H272312   4.127   2.091  11.328 -0.2519 -0.5387 -0.7510
16941TIP3   OH272313   0.780   0.943  13.257  0.4112  0.3034  0.5495
16941TIP3    H172314   0.734   0.881  13.313  0.8488 -1.1783 -0.6462
16941TIP3    H272315   0.795   0.894  13.175 -0.8272  2.5627 -1.1485
16942TIP3   OH272316   6.471   6.834   6.003 -0.5063  0.1921 -0.5100
16942TIP3    H172317   6.426   6.827   5.918 -1.6609  0.6363  0.0559
16942TIP3    H272318   6.480   6.743   6.032  1.9298 -0.1818 -2.1067
16943TIP3   OH272319   5.850   3.134   1.800 -0.0245 -0.0394  0.1706
16943TIP3    H172320   5.761   3.168   1.797 -0.3076 -0.8337 -0.7445
16943TIP3    H272321   5.877   3.127   1.708  0.8623 -0.1250  0.4245
16944TIP3   OH272322   3.114   6.554  14.027 -0.1761  0.0232  0.1107
16944TIP3    H172323   3.035   6.501  14.030  0.2688 -0.6078  1.3646
16944TIP3    H272324   3.129   6.571  13.933 -1.8830  0.3245 -0.1285
16945TIP3   OH272325   0.999   6.411   0.461  0.5970  0.5328  0.2955
16945TIP3    H172326   0.940   6.417   0.536  2.1669 -1.1523  1.7694
16945TIP3    H272327   1.008   6.317   0.445  3.4274  0.6378  0.6789
16946TIP3   OH272328   0.119   0.353  14.254  0.0644 -0.4892 -0.0401
16946TIP3    H172329   0.079   0.273  14.217  1.0789 -0.3092 -1.6344
16946TIP3    H272330   0.160   0.395  14.179  0.1300  1.2042  0.9132
16947TIP3   OH272331   4.508   0.077   3.066  0.6901  0.0587 -0.3562
16947TIP3    H172332   4.572   0.059   2.997 -0.8537  0.8379 -2.0823
16947TIP3    H272333   4.429   0.031   3.038 -0.5222  1.8565 -0.0843
16948TIP3   OH272334   1.783   4.189   1.019  0.7330 -0.5777 -0.0020
16948TIP3    H172335   1.843   4.151   1.083 -0.7278 -0.6629  1.4033
16948TIP3    H272336   1.715   4.122   1.009 -0.5193  0.5770  0.5246
16949TIP3   OH272337   1.795   3.891  10.272  0.4210  0.2572 -0.8902
16949TIP3    H172338   1.872   3.906  10.217  1.0986 -0.0572 -0.0430
16949TIP3    H272339   1.830   3.874  10.359 -0.5367 -1.2749 -0.7622
16950TIP3   OH272340   4.109   5.814   1.741 -0.3166 -0.5553  0.3039
16950TIP3    H172341   4.022   5.778   1.725 -1.2136  1.3513  0.5759
16950TIP3    H272342   4.122   5.804   1.836 -0.2940 -0.6961  0.2869
16951TIP3   OH272343   5.752   1.611   1.933 -0.1479 -0.1956  0.1701
16951TIP3    H172344   5.708   1.690   1.903  0.4609 -0.6392 -2.1229
16951TIP3    H272345   5.740   1.548   1.861  2.1059 -1.1135  0.5052
16952TIP3   OH272346   3.367   0.993  11.027  0.0180 -0.2420  0.3253
16952TIP3    H172347   3.399   0.961  10.942  0.1929 -1.3497  0.7851
16952TIP3    H272348   3.434   1.054  11.057  0.0684 -0.0196 -0.2268
16953TIP3   OH272349   3.636   0.760  14.098  0.0814 -0.1340  0.2642
16953TIP3    H172350   3.685   0.790  14.175  0.9031 -0.5177 -0.1016
16953TIP3    H272351   3.570   0.827  14.084 -0.1438 -0.1007  1.3628
16954TIP3   OH272352   3.576   1.190  11.101  0.6449 -0.3429 -0.3469
16954TIP3    H172353   3.665   1.156  11.114  0.6916  0.2245  0.9753
16954TIP3    H272354   3.586   1.260  11.037  0.7667 -1.7989 -2.0095
16955TIP3   OH272355   0.146   5.613   1.695 -0.5866 -0.3032  0.1163
16955TIP3    H172356   0.212   5.671   1.732 -1.5408  1.4585 -0.8197
16955TIP3    H272357   0.104   5.572   1.771  1.2113 -1.0898  0.7355
16956TIP3   OH272358   5.714   1.408   6.124 -0.1373  0.0441 -0.2999
16956TIP3    H172359   5.790   1.464   6.141 -0.0891 -0.1307  0.0843
16956TIP3    H272360   5.746   1.319   6.140  0.1013 -0.2125 -2.0027
16957TIP3   OH272361   2.342   4.423   4.711  0.2034 -0.2933  0.0701
16957TIP3    H172362   2.301   4.427   4.797 -0.2885 -1.2336 -0.0973
16957TIP3    H272363   2.424   4.470   4.721 -1.3098  2.5957  0.1646
16958TIP3   OH272364   5.993   5.154  16.161  0.4350  0.0728 -0.1772
16958TIP3    H172365   5.954   5.081  16.209  1.9218 -0.5277  0.1749
16958TIP3    H272366   6.041   5.112  16.089 -1.9263  0.9495 -2.4119
16959TIP3   OH272367   2.954   0.180  11.452 -0.6647 -0.1608 -0.2118
16959TIP3    H172368   2.942   0.264  11.409 -0.5491  1.1889  2.2432
16959TIP3    H272369   3.029   0.140  11.407 -2.7627 -0.6171 -3.6936
16960TIP3   OH272370   6.123   2.260   5.528  0.0353  0.4885  0.0778
16960TIP3    H172371   6.043   2.312   5.535 -0.8980 -0.9579  0.7940
16960TIP3    H272372   6.139   2.251   5.434 -0.5811  0.8782 -0.0669
16961TIP3   OH272373   1.883   1.455  13.902  0.3076  0.1872  0.1384
16961TIP3    H172374   1.824   1.493  13.837  0.4419 -1.4669 -1.0134
16961TIP3    H272375   1.850   1.489  13.986 -0.9509  0.9926 -0.6337
16962TIP3   OH272376   4.265   5.520  15.358  0.8196 -0.2022  0.0046
16962TIP3    H172377   4.274   5.456  15.428 -0.2686 -0.5668 -0.1744
16962TIP3    H272378   4.258   5.468  15.278  0.1944  0.1416 -0.1712
16963TIP3   OH272379   4.590   2.422  12.576 -0.3458 -0.0328 -0.5842
16963TIP3    H172380   4.557   2.379  12.654  0.1685 -1.7716 -1.2653
16963TIP3    H272381   4.514   2.428  12.518 -0.3882 -0.1830 -0.5450
16964TIP3   OH272382   0.852   5.544  15.724  0.1414  0.5314 -0.5219
16964TIP3    H172383   0.925   5.601  15.747  0.6607 -0.1235 -0.5448
16964TIP3    H272384   0.790   5.602  15.679 -0.2439  1.5352  1.2057
16965TIP3   OH272385   2.955   5.021  15.821  0.2923 -0.3406  0.3679
16965TIP3    H172386   2.910   5.100  15.851 -1.0822 -0.9673  0.0320
16965TIP3    H272387   2.942   5.021  15.726 -0.2276 -1.2605  0.4285
16966TIP3   OH272388   1.851   4.766  16.191  0.3537 -0.3363  0.1164
16966TIP3    H172389   1.777   4.804  16.237  0.9774  0.7972  0.2102
16966TIP3    H272390   1.858   4.677  16.227  0.1717  0.1596  1.4477
16967TIP3   OH272391   2.633   0.884   0.860 -0.2380  0.3297  0.8489
16967TIP3    H172392   2.642   0.839   0.776 -2.4185 -2.0198  1.7512
16967TIP3    H272393   2.592   0.968   0.838  1.8008  1.0065 -0.6426
16968TIP3   OH272394   1.766   6.724  14.104  0.6300 -0.2931 -0.1978
16968TIP3    H172395   1.800   6.744  14.016 -0.9563  0.9762 -0.5723
16968TIP3    H272396   1.831   6.761  14.164  1.2770 -0.3627 -0.8415
16969TIP3   OH272397   0.991   3.071   1.535  0.0173 -0.0768 -0.2387
16969TIP3    H172398   0.956   3.141   1.590  0.3084 -0.5911  0.6240
16969TIP3    H272399   0.930   2.998   1.548  0.7106 -0.5691  0.2964
16970TIP3   OH272400   1.262   3.618   1.938 -0.0596  0.3075 -0.3473
16970TIP3    H172401   1.342   3.567   1.951  0.5681  1.4454  0.4837
16970TIP3    H272402   1.212   3.568   1.873  1.4933 -0.2385 -1.1924
16971TIP3   OH272403   3.574   5.298  11.238 -0.2679  0.1039  0.7195
16971TIP3    H172404   3.556   5.204  11.248 -0.0874  0.0305  0.3899
16971TIP3    H272405   3.566   5.314  11.144  0.3433  0.2800  0.6906
16972TIP3   OH272406   6.012   3.827  15.504 -0.5805  0.4647  0.5562
16972TIP3    H172407   6.026   3.791  15.416 -0.2760  1.3962  0.2133
16972TIP3    H272408   6.097   3.863  15.528 -0.3069 -0.8909  1.7734
16973TIP3   OH272409   2.926   3.194   1.449 -0.1498  0.5906 -0.5310
16973TIP3    H172410   2.911   3.106   1.484  1.5152  1.0909  1.6111
16973TIP3    H272411   2.863   3.249   1.495  0.4951  0.9026 -0.0172
16974TIP3   OH272412   3.751   1.336  12.895 -0.2862  0.5451 -0.1981
16974TIP3    H172413   3.762   1.370  12.983  1.5064  0.1469 -0.2444
16974TIP3    H272414   3.742   1.241  12.907 -0.6159  0.5484 -0.4076
16975TIP3   OH272415   5.662   0.354  10.268 -0.0501  0.0894  0.3154
16975TIP3    H172416   5.580   0.313  10.241 -0.8398  1.5202  0.4849
16975TIP3    H272417   5.728   0.313  10.212 -0.8109 -1.2750  0.3509
16976TIP3   OH272418   6.552   3.366   5.723  0.3859 -0.5514  0.2192
16976TIP3    H172419   6.471   3.345   5.677  1.1595 -1.4926 -0.7752
16976TIP3    H272420   6.544   3.321   5.807 -0.8457  0.8044  0.8634
16977TIP3   OH272421   1.010   1.849  15.182  0.2102  0.0377 -0.7842
16977TIP3    H172422   1.087   1.845  15.126  0.6506 -0.1761 -0.1808
16977TIP3    H272423   1.030   1.790  15.255  1.2632  2.9301  1.5054
16978TIP3   OH272424   4.055   5.870   3.368  0.0802  0.1624 -0.4089
16978TIP3    H172425   4.035   5.877   3.275  0.3119  2.4244 -0.3397
16978TIP3    H272426   4.050   5.776   3.386 -1.2570 -0.2133 -2.3892
16979TIP3   OH272427   5.962   6.239   4.001  0.2804  0.5513 -0.0717
16979TIP3    H172428   6.006   6.176   3.945  0.9246  0.3069  0.6812
16979TIP3    H272429   5.895   6.188   4.047  1.3694  0.1871  1.1817
16980TIP3   OH272430   1.194   5.716   5.570 -0.7873  0.0712  0.2845
16980TIP3    H172431   1.215   5.796   5.521 -1.2826 -0.5247 -0.9590
16980TIP3    H272432   1.250   5.649   5.531 -1.6560 -0.5576  0.0780
16981TIP3   OH272433   1.224   0.107  15.373 -0.3577  0.0133 -0.5654
16981TIP3    H172434   1.134   0.133  15.390  0.2097  0.8103  1.6175
16981TIP3    H272435   1.240   0.132  15.282 -2.2899 -0.0670 -0.9631
16982TIP3   OH272436   3.659   3.443   5.813 -0.2492 -0.0579  0.5853
16982TIP3    H172437   3.631   3.351   5.819 -0.8421  0.1577  1.4654
16982TIP3    H272438   3.748   3.443   5.848 -0.3946 -0.2474  0.9681
16983TIP3   OH272439   6.263   3.786   3.548  0.4269  0.1893 -0.2772
16983TIP3    H172440   6.203   3.754   3.615  1.5464 -0.7504  0.3073
16983TIP3    H272441   6.331   3.719   3.542  2.5255  2.1200  0.5402
16984TIP3   OH272442   0.826   1.438   1.738 -0.5301 -0.6576 -0.0387
16984TIP3    H172443   0.905   1.391   1.763 -0.8852 -0.8693  0.7078
16984TIP3    H272444   0.795   1.392   1.659  0.8097  0.2641 -1.1517
16985TIP3   OH272445   1.379   5.913  12.261 -0.1441  0.4222 -0.3787
16985TIP3    H172446   1.456   5.914  12.318  0.5436 -1.2069 -1.2053
16985TIP3    H272447   1.318   5.853  12.304  0.2868 -0.6352 -1.1968
16986TIP3   OH272448   5.976   5.865  14.794  0.0004 -0.0435 -0.3601
16986TIP3    H172449   5.956   5.881  14.887  0.2165 -2.1230  0.0872
16986TIP3    H272450   6.070   5.849  14.792 -0.1473 -0.8798 -0.7957
16987TIP3   OH272451   0.193   2.858   1.530  0.3067 -0.0553 -0.1939
16987TIP3    H172452   0.232   2.796   1.591 -0.9335 -0.7597 -0.0964
16987TIP3    H272453   0.195   2.814   1.445  0.6089  0.2962 -0.3706
16988TIP3   OH272454   5.575   3.711   3.432  0.9782 -0.6042 -0.5377
16988TIP3    H172455   5.567   3.763   3.352  2.7527  0.4273 -0.0802
16988TIP3    H272456   5.494   3.660   3.435 -0.2900  1.2304 -1.6415
16989TIP3   OH272457   2.952   5.983   2.528  0.0782  0.5705 -0.0690
16989TIP3    H172458   2.882   5.979   2.463  0.3305  1.7639 -0.4421
16989TIP3    H272459   3.021   5.926   2.494  0.3384  1.4287 -1.0351
16990TIP3   OH272460   1.170   3.483  12.913  0.1170 -0.0705  0.1982
16990TIP3    H172461   1.172   3.460  12.821  2.1552 -0.0756  0.1983
16990TIP3    H272462   1.243   3.544  12.925  1.9729 -2.4901  2.3686
16991TIP3   OH272463   5.459   4.099  13.946  0.2314 -0.2299 -1.1637
16991TIP3    H172464   5.378   4.150  13.951  0.2466 -0.3343  1.0248
16991TIP3    H272465   5.432   4.016  13.905 -0.6297  0.0026 -1.0992
16992TIP3   OH272466   4.282   6.792  15.341  0.0203 -0.4530 -0.4690
16992TIP3    H172467   4.333   6.783  15.261  1.5455 -0.7555  0.4788
16992TIP3    H272468   4.234   6.874  15.330  1.8507  0.6316 -0.8623
16993TIP3   OH272469   2.671   3.396   2.598  0.1520 -0.3338  0.3278
16993TIP3    H172470   2.730   3.321   2.584  0.0693 -0.4425  0.5452
16993TIP3    H272471   2.591   3.371   2.553  0.1053 -0.4022  0.4471
16994TIP3   OH272472   2.227   2.572  14.912 -0.2508 -0.1274  0.3390
16994TIP3    H172473   2.154   2.601  14.968 -1.2913 -1.1879 -0.4234
16994TIP3    H272474   2.185   2.522  14.842  1.2117 -0.6680 -0.1846
16995TIP3   OH272475   5.231   6.567   1.344 -0.2696  0.2597 -0.4329
16995TIP3    H172476   5.241   6.632   1.275 -0.8942 -0.1500 -0.9269
16995TIP3    H272477   5.149   6.590   1.387 -0.8658 -0.6111 -1.0765
16996TIP3   OH272478   0.085   2.176   1.081  0.8879 -0.3756 -0.1285
16996TIP3    H172479   0.007   2.122   1.077 -1.1510  2.3111  0.0251
16996TIP3    H272480   0.145   2.138   1.017 -1.6756 -0.9180 -2.3734
16997TIP3   OH272481   0.031   1.143  16.808 -0.0632 -0.0618 -0.2886
16997TIP3    H172482   0.031   1.166  16.901  0.2765  0.4324 -0.4007
16997TIP3    H272483   0.045   1.049  16.806  0.4199 -0.0065  0.1546
16998TIP3   OH272484   5.954   3.504   0.101  0.4148  0.2710 -0.7106
16998TIP3    H172485   6.047   3.478   0.095 -0.0280 -1.2254 -1.7374
16998TIP3    H272486   5.909   3.423   0.124 -0.7458  0.7718 -1.1828
16999TIP3   OH272487   2.862   2.897  15.519  0.3101 -0.0425 -0.6086
16999TIP3    H172488   2.917   2.917  15.595  0.1342  1.0523 -0.7539
16999TIP3    H272489   2.801   2.970  15.513 -1.0024 -1.1062 -0.6216
17000TIP3   OH272490   3.983   3.119  15.324 -0.5254 -0.3979 -0.9055
17000TIP3    H172491   4.023   3.102  15.410 -0.7205  0.8330 -0.5521
17000TIP3    H272492   4.021   3.053  15.267  0.5800 -0.4520 -0.1478
17001TIP3   OH272493   6.004   2.827  11.064 -0.6892 -0.2768  0.0955
17001TIP3    H172494   6.022   2.778  10.984 -0.1125  0.4741 -0.2503
17001TIP3    H272495   5.945   2.771  11.114  0.5128 -1.6321  0.0392
17002TIP3   OH272496   3.087   0.406  14.450 -0.0434  0.9242 -0.8479
17002TIP3    H172497   3.060   0.321  14.485 -0.3686  2.0320  1.8277
17002TIP3    H272498   3.007   0.442  14.410 -0.6266  1.0009  0.3239
17003TIP3   OH272499   2.922   2.085  13.295 -0.4351 -0.1400 -0.3552
17003TIP3    H172500   2.972   2.016  13.339 -1.0423 -0.3424  0.0350
17003TIP3    H272501   2.963   2.093  13.209  0.6223  0.0977  0.1463
17004TIP3   OH272502   1.231   1.332   1.275  0.1115  0.1421 -0.3731
17004TIP3    H172503   1.301   1.269   1.287  0.6624  1.1437  2.3751
17004TIP3    H272504   1.152   1.287   1.305  0.6506  0.8975  2.5252
17005TIP3   OH272505   5.913   5.930  12.701 -0.2196  0.0940 -0.0421
17005TIP3    H172506   5.892   5.948  12.609  0.7780  1.1727 -0.0754
17005TIP3    H272507   6.008   5.936  12.706 -0.2860  0.4030  1.1363
17006TIP3   OH272508   0.917   6.624   6.282 -0.0711 -0.4160 -0.0609
17006TIP3    H172509   0.846   6.591   6.337  0.3365  0.2027  0.8641
17006TIP3    H272510   0.989   6.563   6.298 -0.4353 -1.1663 -1.1611
17007TIP3   OH272511   1.819   0.522   3.136 -0.0788 -0.2512 -0.4488
17007TIP3    H172512   1.804   0.475   3.054 -0.3253 -0.1092 -0.4869
17007TIP3    H272513   1.878   0.466   3.186  0.2343 -0.2463 -0.8074
17008TIP3   OH272514   4.030   4.928  12.537 -0.0003 -0.2748 -0.5404
17008TIP3    H172515   4.033   4.913  12.631  0.2615  0.6521 -0.3976
17008TIP3    H272516   3.939   4.910  12.513 -0.2909  0.3665  0.0455
17009TIP3   OH272517   0.955   5.155   3.782  0.3407 -0.1905  0.3723
17009TIP3    H172518   0.933   5.240   3.745  1.5766  0.3664  0.8530
17009TIP3    H272519   0.905   5.150   3.863  1.8768  1.0619  1.4639
17010TIP3   OH272520   4.776   2.807  16.643  0.3016  0.1063  0.4473
17010TIP3    H172521   4.858   2.822  16.689  0.7183  1.8283 -0.7536
17010TIP3    H272522   4.778   2.869  16.570 -1.2796 -1.0452 -0.6338
17011TIP3   OH272523   2.581   3.769  15.624  0.7776 -0.2308  0.8041
17011TIP3    H172524   2.569   3.852  15.669  0.2049 -0.5865  1.3259
17011TIP3    H272525   2.501   3.758  15.572  0.7592 -0.5445  0.8933
17012TIP3   OH272526   4.862   2.092   5.355 -0.0014  0.1547 -0.0433
17012TIP3    H172527   4.880   2.143   5.276  0.6462  0.9367  0.5881
17012TIP3    H272528   4.949   2.064   5.385 -0.2573 -0.2677  0.3032
17013TIP3   OH272529   5.493   4.200   0.089  0.0208 -0.3441 -0.4440
17013TIP3    H172530   5.445   4.182   0.008 -0.5706 -1.8467  0.2102
17013TIP3    H272531   5.550   4.274   0.067 -2.3913  1.3794 -1.3284
17014TIP3   OH272532   2.135   2.093   0.429 -0.3465  0.0774  0.2565
17014TIP3    H172533   2.145   2.164   0.492  0.5534 -0.5724  0.8816
17014TIP3    H272534   2.069   2.036   0.467  3.0771 -2.5965  2.9606
17015TIP3   OH272535   2.004   1.781  13.774 -0.4485 -0.4099  0.9141
17015TIP3    H172536   2.070   1.838  13.734 -1.2705 -0.5501 -0.7105
17015TIP3    H272537   2.030   1.693  13.747 -1.4908 -0.4346 -0.0739
17016TIP3   OH272538   4.624   3.263   0.981 -0.1054 -0.5592  0.5940
17016TIP3    H172539   4.555   3.330   0.983  0.1220 -0.3081  0.1163
17016TIP3    H272540   4.583   3.187   0.940 -1.1297 -1.6071  3.2912
17017TIP3   OH272541   6.478   6.515   0.980 -0.3130  0.2067  0.5202
17017TIP3    H172542   6.447   6.434   0.939 -1.4395  0.6268  0.5018
17017TIP3    H272543   6.558   6.489   1.026 -0.1315 -0.7076 -0.2642
17018TIP3   OH272544   3.303   1.039  12.588 -0.3665  0.2752  0.2344
17018TIP3    H172545   3.363   1.109  12.565  0.3537 -0.3434  0.1961
17018TIP3    H272546   3.329   0.966  12.531 -0.0260 -0.5562  1.4266
17019TIP3   OH272547   0.947   1.119  11.529  0.0989  0.1394  0.0253
17019TIP3    H172548   0.970   1.209  11.555  1.6025 -0.6774  1.7895
17019TIP3    H272549   0.984   1.065  11.599 -0.0393 -1.9131 -1.4307
17020TIP3   OH272550   5.281   1.828  11.501 -0.3917 -0.0046 -0.7793
17020TIP3    H172551   5.353   1.765  11.501  1.4107  1.8474  2.0440
17020TIP3    H272552   5.305   1.893  11.435 -0.5814 -0.5053 -1.3487
17021TIP3   OH272553   1.721   3.694   4.029  0.2269 -0.3140 -0.2625
17021TIP3    H172554   1.726   3.639   3.951  1.8176  1.5323 -1.5540
17021TIP3    H272555   1.679   3.775   3.998  2.1957  1.0311  0.3615
17022TIP3   OH272556   1.096   5.403   1.144  0.2814  0.7394 -0.0592
17022TIP3    H172557   1.053   5.379   1.062  1.7298  0.9466 -0.9043
17022TIP3    H272558   1.025   5.437   1.199 -0.8393 -0.1211 -0.9285
17023TIP3   OH272559   6.766   3.440  11.880  0.2533  0.7055  0.2207
17023TIP3    H172560   6.698   3.447  11.948 -2.0302 -2.1217 -1.5545
17023TIP3    H272561   6.808   3.356  11.898  0.8615  0.7866 -0.8066
17024TIP3   OH272562   3.150   1.912  15.277 -0.4409  0.1396  0.0392
17024TIP3    H172563   3.110   1.933  15.193 -0.4201 -1.5483 -0.4153
17024TIP3    H272564   3.121   1.823  15.297  0.4445  0.0955  1.2842
17025TIP3   OH272565   0.458   4.849   3.724  0.1765 -0.0436  0.4909
17025TIP3    H172566   0.395   4.886   3.663  1.3496  3.1291  0.9857
17025TIP3    H272567   0.510   4.788   3.671 -0.1463  1.0739 -1.2070
17026TIP3   OH272568   1.552   1.654   2.350 -0.3769 -0.2179 -0.9879
17026TIP3    H172569   1.605   1.716   2.400 -1.0393 -0.3896 -0.0426
17026TIP3    H272570   1.463   1.688   2.359 -0.4536  0.0111 -2.4655
17027TIP3   OH272571   2.875   4.598  15.388  0.3026 -0.0273  0.2891
17027TIP3    H172572   2.827   4.528  15.343  2.8922 -2.2120  0.6914
17027TIP3    H272573   2.846   4.593  15.479  0.2755 -0.3860  0.2615
17028TIP3   OH272574   0.620   3.567  14.767  0.2387 -0.0990 -0.1863
17028TIP3    H172575   0.588   3.556  14.857  0.6266 -0.7140 -0.1142
17028TIP3    H272576   0.565   3.509  14.715 -0.3580  0.6799 -0.4405
17029TIP3   OH272577   6.155   3.071  10.273  0.2589 -0.1172 -0.1042
17029TIP3    H172578   6.130   3.009  10.205  0.1518  0.9899 -1.1016
17029TIP3    H272579   6.143   3.157  10.234  1.7737  0.5406  0.7451
17030TIP3   OH272580   2.127   2.851   1.673 -0.2218  0.2988  0.2751
17030TIP3    H172581   2.219   2.846   1.700 -0.3115  0.4129  0.6098
17030TIP3    H272582   2.130   2.871   1.580  0.0950  0.1434  0.2502
17031TIP3   OH272583   5.481   5.110  16.022 -0.4718 -0.1359 -0.4620
17031TIP3    H172584   5.452   5.092  15.933  2.5023 -2.0711 -1.1560
17031TIP3    H272585   5.498   5.023  16.060  0.4834  0.7291  1.2008
17032TIP3   OH272586   0.740   5.570  13.472  1.1337 -0.2109 -0.3452
17032TIP3    H172587   0.669   5.540  13.529 -0.4696  2.9224 -0.4919
17032TIP3    H272588   0.705   5.559  13.383  2.1041 -1.4628 -0.6034
17033TIP3   OH272589   5.984   6.752   2.565 -0.1250  0.1100 -0.3331
17033TIP3    H172590   6.062   6.707   2.597 -1.6759 -2.9461 -0.5577
17033TIP3    H272591   5.927   6.759   2.642 -0.5739  0.2038 -0.6689
17034TIP3   OH272592   2.748   6.690   4.489 -0.3379 -0.1237 -0.1877
17034TIP3    H172593   2.670   6.690   4.545 -0.9381  0.8668 -0.9757
17034TIP3    H272594   2.732   6.621   4.425 -0.0577 -0.6601  0.3177
17035TIP3   OH272595   3.852   4.968  10.861  0.0479 -0.0326 -0.3398
17035TIP3    H172596   3.874   4.875  10.860  1.3375  0.1925  1.7783
17035TIP3    H272597   3.936   5.012  10.876 -0.9341  1.2726  1.6370
17036TIP3   OH272598   6.590   5.701   1.151 -0.2410 -0.1439 -0.0781
17036TIP3    H172599   6.578   5.757   1.228  0.9062  1.1074 -0.7605
17036TIP3    H272600   6.505   5.702   1.107 -0.3287  0.8171  0.0914
17037TIP3   OH272601   1.113   1.100   0.436 -0.2496 -0.1489 -0.4223
17037TIP3    H172602   1.199   1.112   0.477 -0.4621  0.8166 -0.2549
17037TIP3    H272603   1.071   1.032   0.489  0.8760 -1.5827 -1.2619
17038TIP3   OH272604   5.773   1.682  14.055 -0.4474  0.3562  0.4739
17038TIP3    H172605   5.688   1.638  14.056 -0.3110 -0.1368 -2.2299
17038TIP3    H272606   5.837   1.611  14.050 -0.1785  0.6714 -2.7392
17039TIP3   OH272607   0.658   6.124  11.737 -0.6572  0.0997 -0.3031
17039TIP3    H172608   0.680   6.057  11.672  2.8333 -1.4414  2.1252
17039TIP3    H272609   0.707   6.201  11.710  0.4390 -0.3987  0.2213
17040TIP3   OH272610   3.952   4.614  13.296  0.0273  0.1682 -0.7752
17040TIP3    H172611   3.928   4.595  13.206  0.6431  0.0888 -0.9286
17040TIP3    H272612   4.039   4.575  13.306 -0.4247 -0.6311  0.1320
17041TIP3   OH272613   6.658   4.105   3.919  0.0451 -0.3718  0.4516
17041TIP3    H172614   6.643   4.139   3.831 -0.2073 -1.2694  0.1390
17041TIP3    H272615   6.697   4.019   3.905 -0.7787 -0.8878  1.2023
17042TIP3   OH272616   4.150   0.010  12.646 -0.6123  0.0740  0.5526
17042TIP3    H172617   4.073  -0.012  12.698 -0.9912  1.3471  0.5633
17042TIP3    H272618   4.220  -0.043  12.685 -1.1830 -0.0489  1.4549
17043TIP3   OH272619   2.959   1.649  12.927 -0.3050 -0.0636 -0.0783
17043TIP3    H172620   2.943   1.742  12.945 -0.0653 -0.2934  1.4300
17043TIP3    H272621   2.928   1.636  12.837 -1.8917  1.0992  0.2670
17044TIP3   OH272622   5.834   0.116  15.811  0.5454 -0.0110 -0.6117
17044TIP3    H172623   5.786   0.067  15.744  1.2695 -0.0934 -1.0781
17044TIP3    H272624   5.794   0.089  15.894 -0.0113 -0.3022 -0.9712
17045TIP3   OH272625   6.003   5.240  15.136  0.3612  0.4323 -0.4437
17045TIP3    H172626   6.007   5.240  15.231 -0.8333 -2.4874 -0.2690
17045TIP3    H272627   5.960   5.322  15.113  0.3774  1.0394  1.5504
17046TIP3   OH272628   4.964   0.747   2.005  0.1870 -0.2072  0.6709
17046TIP3    H172629   4.941   0.654   1.998  1.4539 -0.4910 -0.0678
17046TIP3    H272630   5.059   0.749   1.990  0.5328  0.9892  2.7357
17047TIP3   OH272631   4.494   5.381  11.695 -0.4723  0.1015  0.2120
17047TIP3    H172632   4.477   5.475  11.704 -0.5048  0.1329 -0.1867
17047TIP3    H272633   4.431   5.340  11.754 -0.1461  0.3527  0.7431
17048TIP3   OH272634   6.274   1.704  15.471 -0.4649 -0.1114  0.0419
17048TIP3    H172635   6.203   1.764  15.450 -0.2654 -0.0035 -0.3228
17048TIP3    H272636   6.279   1.705  15.567  1.2708  2.4844  0.0010
17049TIP3   OH272637   4.225   4.753   2.534 -0.0477  0.0631 -0.1677
17049TIP3    H172638   4.240   4.726   2.625  0.7936 -0.0185 -0.3249
17049TIP3    H272639   4.252   4.845   2.533  1.2614 -0.3106 -0.6478
17050TIP3   OH272640   4.050   3.392  12.818 -0.1254  0.0772  0.4456
17050TIP3    H172641   4.082   3.319  12.764  1.3390  0.8543  0.1981
17050TIP3    H272642   3.977   3.428  12.768  0.5957  0.1812 -0.5683
17051TIP3   OH272643   5.776   0.722  10.645 -0.3068 -0.9350 -0.1227
17051TIP3    H172644   5.782   0.814  10.617 -1.2397 -0.7295  0.3394
17051TIP3    H272645   5.686   0.711  10.674  0.7035 -0.9547  3.4625
17052TIP3   OH272646   3.609   6.481  12.783  0.0973 -0.5493  0.6106
17052TIP3    H172647   3.594   6.423  12.708  1.8795 -0.6193  0.2507
17052TIP3    H272648   3.525   6.483  12.830 -0.7866 -1.2163 -0.8854
17053TIP3   OH272649   2.642   4.393   5.357  0.6656 -0.5570  0.0254
17053TIP3    H172650   2.675   4.393   5.447 -0.1556  0.6828  0.3594
17053TIP3    H272651   2.596   4.477   5.349  0.1086 -0.9715 -1.3216
17054TIP3   OH272652   3.655   1.841  15.565 -0.1851  0.4005  0.1319
17054TIP3    H172653   3.692   1.761  15.604 -1.2168  1.0383  2.5746
17054TIP3    H272654   3.732   1.893  15.540  0.5539 -1.7734 -2.7390
17055TIP3   OH272655   6.219   1.283   4.768 -0.4587  0.7284  0.1059
17055TIP3    H172656   6.287   1.347   4.789  0.2700 -0.7110  2.5120
17055TIP3    H272657   6.161   1.284   4.845 -0.1899 -1.7590  0.4079
17056TIP3   OH272658   2.656   1.712  12.509  0.6014 -0.3175  0.2167
17056TIP3    H172659   2.565   1.705  12.538  0.9667  0.1875  1.5728
17056TIP3    H272660   2.666   1.642  12.445 -0.6427 -0.6016  0.2973
17057TIP3   OH272661   5.461   6.738  11.091 -0.7401  0.5013 -0.0514
17057TIP3    H172662   5.557   6.736  11.089 -0.7273  1.2282 -0.4929
17057TIP3    H272663   5.434   6.674  11.025 -0.6069 -1.3009  1.5293
17058TIP3   OH272664   1.207   1.951  10.719  0.7958 -0.4321  0.2981
17058TIP3    H172665   1.222   2.004  10.797  0.5200  0.6234 -0.3422
17058TIP3    H272666   1.120   1.977  10.689  0.4743 -1.5609  0.1926
17059TIP3   OH272667   4.733   6.568  14.596 -0.0226  0.2380  0.8073
17059TIP3    H172668   4.644   6.535  14.609 -0.0516  0.6853  1.8620
17059TIP3    H272669   4.768   6.579  14.685  0.1076  2.6736  0.5406
17060TIP3   OH272670   0.210   5.224   3.416  0.5081 -0.1862  0.0257
17060TIP3    H172671   0.144   5.270   3.363 -0.1666  0.4218  1.3422
17060TIP3    H272672   0.290   5.274   3.402  0.3020  0.0533 -0.3139
17061TIP3   OH272673   2.399   0.750   1.451 -0.5111 -0.0939  0.1078
17061TIP3    H172674   2.389   0.655   1.460  0.3460 -0.3856 -1.6636
17061TIP3    H272675   2.480   0.762   1.402 -0.2698  1.5972  0.8498
17062TIP3   OH272676   1.273   5.800   3.939  0.3460  0.9280  0.3778
17062TIP3    H172677   1.356   5.847   3.932  0.1922  1.3938  1.4823
17062TIP3    H272678   1.273   5.740   3.865  0.2348  3.1530 -1.5091
17063TIP3   OH272679   2.062   1.348  15.386 -0.1951 -0.8429  0.2028
17063TIP3    H172680   2.111   1.315  15.461 -2.1774 -0.3589  1.8020
17063TIP3    H272681   2.005   1.275  15.361  1.3903 -1.5108 -1.8279
17064TIP3   OH272682   0.882   4.569  12.598 -0.7418  0.5474  0.0906
17064TIP3    H172683   0.844   4.546  12.683  1.6262 -0.7938  0.8682
17064TIP3    H272684   0.833   4.518  12.535  0.3460 -1.9754  1.1653
17065TIP3   OH272685   6.187   3.992   3.375 -0.0801 -0.1066 -0.0210
17065TIP3    H172686   6.202   3.910   3.421 -2.2256 -1.0631 -0.8752
17065TIP3    H272687   6.091   3.999   3.368  0.0797  0.5574 -3.2517
17066TIP3   OH272688   6.363   1.977  11.748 -0.3051 -0.0076  0.3455
17066TIP3    H172689   6.374   1.882  11.759 -0.7197 -0.2269 -0.9788
17066TIP3    H272690   6.435   2.003  11.691 -2.8312 -0.4165 -3.3630
17067TIP3   OH272691   0.833   3.061   4.186 -0.3248 -0.3523  0.3075
17067TIP3    H172692   0.845   2.966   4.178 -1.7057 -0.6694  1.5364
17067TIP3    H272693   0.826   3.092   4.095  0.3946 -1.3862 -0.1130
17068TIP3   OH272694   0.877   1.266  13.523 -0.1859  0.2006  0.3784
17068TIP3    H172695   0.961   1.310  13.539  0.6180 -0.7101 -1.1273
17068TIP3    H272696   0.827   1.327  13.470 -0.4466  0.6977  1.1805
17069TIP3   OH272697   4.809   0.911   5.599 -1.0239  0.0591  0.2626
17069TIP3    H172698   4.895   0.930   5.560 -1.0310  3.1401  1.4864
17069TIP3    H272699   4.770   0.847   5.539  1.2308  0.2266 -1.5492
17070TIP3   OH272700   2.125   6.063   1.480  0.8403 -0.3224 -0.4826
17070TIP3    H172701   2.184   6.095   1.412  1.5731  0.6079  0.5626
17070TIP3    H272702   2.061   6.133   1.492  1.4788  0.0945  0.6613
17071TIP3   OH272703   0.936   5.064   4.774  0.2102 -0.7026 -0.5900
17071TIP3    H172704   0.853   5.022   4.797  0.6530 -1.2317  0.0953
17071TIP3    H272705   1.002   4.995   4.787  0.5930 -0.8393 -2.8423
17072TIP3   OH272706   3.986   1.664   1.907  0.0534  0.0101  0.0790
17072TIP3    H172707   3.909   1.620   1.942  0.7271 -2.3509 -1.2054
17072TIP3    H272708   4.020   1.714   1.982 -0.0960 -2.6256  2.0656
17073TIP3   OH272709   5.109   1.820   0.593 -0.2503 -0.8714 -0.3091
17073TIP3    H172710   5.126   1.913   0.578  1.9516 -1.1511  0.1494
17073TIP3    H272711   5.014   1.815   0.602 -0.2905  1.7521  2.3273
17074TIP3   OH272712   5.662   6.157   1.173 -0.0283 -0.0835  0.4419
17074TIP3    H172713   5.681   6.249   1.192 -0.7731  0.2771 -0.4989
17074TIP3    H272714   5.599   6.159   1.101  1.0335 -1.3588 -0.5843
17075TIP3   OH272715   0.125   5.246   0.919 -0.1643 -0.4924  0.3575
17075TIP3    H172716   0.063   5.207   0.980 -1.1033  1.1971  0.5226
17075TIP3    H272717   0.090   5.333   0.901  2.0693  0.4752  0.3463
17076TIP3   OH272718   3.526   6.278  12.615  0.1091 -0.4562  0.2875
17076TIP3    H172719   3.503   6.267  12.523  1.4503 -1.2441  0.0315
17076TIP3    H272720   3.520   6.190  12.652 -3.1617  0.1912  1.6817
17077TIP3   OH272721   2.149   0.654   0.527 -0.5636  0.2058 -0.3375
17077TIP3    H172722   2.108   0.729   0.571  1.3154  1.1138 -0.0485
17077TIP3    H272723   2.167   0.591   0.597  0.6743  0.8374 -0.0558
17078TIP3   OH272724   3.666   3.985  12.984  0.1372  0.1791  0.0263
17078TIP3    H172725   3.621   4.012  12.903 -0.8790  0.9154  0.8080
17078TIP3    H272726   3.753   4.024  12.976  0.9938 -1.8936 -1.8604
17079TIP3   OH272727   1.323   4.717   4.727  0.3792  0.0670 -0.7174
17079TIP3    H172728   1.392   4.660   4.759 -0.6926 -0.4655  0.7547
17079TIP3    H272729   1.272   4.663   4.668 -0.4576 -0.4590  0.4438
17080TIP3   OH272730   4.583   5.488   0.548 -0.1853  0.2492 -0.3372
17080TIP3    H172731   4.488   5.499   0.552 -0.0769  0.7677  1.4849
17080TIP3    H272732   4.595   5.414   0.488 -1.7119  0.3372 -0.8107
17081TIP3   OH272733   1.763   4.808  12.774  0.3357  0.5275 -0.1700
17081TIP3    H172734   1.794   4.730  12.729  0.4629 -1.5676  3.1929
17081TIP3    H272735   1.669   4.794  12.786  0.2881  1.0556  0.1163
17082TIP3   OH272736   0.181   6.239  12.307 -0.2710  0.1926  0.7788
17082TIP3    H172737   0.144   6.187  12.380  0.5272  0.6838  1.5435
17082TIP3    H272738   0.216   6.317  12.349  3.1807 -0.9885  0.3471
17083TIP3   OH272739   4.984   1.827  12.968 -0.3406  0.1331 -0.1613
17083TIP3    H172740   4.892   1.842  12.987 -0.3870  0.8145 -0.8343
17083TIP3    H272741   5.025   1.914  12.977  0.2053 -0.1373  0.0127
17084TIP3   OH272742   5.248   0.171  13.921  0.5060 -0.1932  0.1421
17084TIP3    H172743   5.234   0.177  13.826 -0.7097 -0.0949  0.3045
17084TIP3    H272744   5.193   0.098  13.949  0.5445  0.0319  0.8241
17085TIP3   OH272745   6.563   0.335  10.577  0.0721  0.2952 -0.3924
17085TIP3    H172746   6.617   0.285  10.517  2.0595  0.2551  1.3285
17085TIP3    H272747   6.511   0.269  10.623  0.6009  0.0684 -0.1149
17086TIP3   OH272748   6.210   3.281  15.085  0.4803 -0.1754  0.1445
17086TIP3    H172749   6.180   3.367  15.054 -0.4446 -0.1936  0.9494
17086TIP3    H272750   6.213   3.227  15.005 -1.0065  0.0276 -0.0825
17087TIP3   OH272751   3.465   5.488   3.427 -0.6042 -0.0644  0.5797
17087TIP3    H172752   3.372   5.481   3.403 -0.7460  1.9577  0.4109
17087TIP3    H272753   3.464   5.511   3.519 -0.2922  0.5582  0.4302
17088TIP3   OH272754   3.675   3.944  13.734  0.2258 -0.3157  0.9321
17088TIP3    H172755   3.770   3.943  13.747  0.6508 -0.8967 -1.6671
17088TIP3    H272756   3.648   3.854  13.754  0.2731 -0.2420  1.3362
17089TIP3   OH272757   0.606   5.864   3.498  0.0559 -0.1160 -0.2374
17089TIP3    H172758   0.688   5.838   3.456 -0.7245 -0.9270 -1.3310
17089TIP3    H272759   0.625   5.949   3.538  1.8170 -0.9515  0.7950
17090TIP3   OH272760   2.119   1.519  15.898 -0.4024  0.4459 -0.5855
17090TIP3    H172761   2.038   1.534  15.948 -0.4055  0.0562 -0.4719
17090TIP3    H272762   2.091   1.518  15.807 -0.4100  1.0773 -0.5939
17091TIP3   OH272763   1.719   2.658   3.596 -0.4109  0.3266 -0.0074
17091TIP3    H172764   1.710   2.685   3.687 -1.0400  2.3969 -0.6193
17091TIP3    H272765   1.781   2.721   3.559 -1.3365  0.4872 -1.3559
17092TIP3   OH272766   3.665   5.877  11.840 -0.4147 -0.0151  0.1777
17092TIP3    H172767   3.604   5.831  11.783 -0.4097  1.0981 -0.7822
17092TIP3    H272768   3.706   5.942  11.783 -2.1230  2.7969  1.8630
17093TIP3   OH272769   3.540   0.871  12.029 -0.0867  0.1131 -0.0298
17093TIP3    H172770   3.620   0.913  12.060  0.5293 -1.8068  1.2298
17093TIP3    H272771   3.562   0.837  11.942  0.1595  0.4167 -0.0844
17094TIP3   OH272772   6.303   5.842   2.776 -0.4019  0.1568  0.1668
17094TIP3    H172773   6.279   5.857   2.684 -0.4485  0.9144  0.3026
17094TIP3    H272774   6.259   5.760   2.798  3.0474 -2.5168 -1.7708
17095TIP3   OH272775   1.191   6.717  12.573 -0.5292  0.5424 -0.8046
17095TIP3    H172776   1.168   6.755  12.657  1.3233 -0.8075  0.3986
17095TIP3    H272777   1.107   6.703  12.529 -1.6599  0.1017  1.3543
17096TIP3   OH272778   4.174   5.153   1.688 -0.0639 -0.2783  0.3615
17096TIP3    H172779   4.141   5.242   1.693  2.7835  1.0380 -1.5071
17096TIP3    H272780   4.156   5.126   1.597  3.6989  0.5497 -0.7854
17097TIP3   OH272781   6.132   5.993   0.752 -0.9727 -0.1772 -0.2780
17097TIP3    H172782   6.097   5.969   0.666  0.0244 -1.6382 -0.2891
17097TIP3    H272783   6.061   6.043   0.793 -1.5709  0.2932 -1.8222
17098TIP3   OH272784   0.183   5.272  13.365  0.3682  0.0251  0.2627
17098TIP3    H172785   0.217   5.250  13.452 -1.0258  0.1187  0.8656
17098TIP3    H272786   0.190   5.368  13.361 -0.3831  0.1026  0.6452
17099TIP3   OH272787   0.415   3.542   5.068  0.2172  0.3253 -0.3081
17099TIP3    H172788   0.493   3.492   5.092 -0.8738 -0.9334  0.7857
17099TIP3    H272789   0.440   3.591   4.990  1.1832 -2.4375 -1.8587
17100TIP3   OH272790   4.148   4.091   0.027  0.3504 -0.0994 -0.3556
17100TIP3    H172791   4.147   4.149  -0.050 -3.8588  0.2514 -0.2974
17100TIP3    H272792   4.144   4.003  -0.010 -2.3337  0.0868 -0.6923
17101TIP3   OH272793   2.023   4.249  10.894  0.4237 -0.2495 -0.3416
17101TIP3    H172794   2.023   4.158  10.864 -0.7921  0.1517 -1.6699
17101TIP3    H272795   1.932   4.278  10.883  0.8202  1.1664 -0.1002
17102TIP3   OH272796   0.809   6.364   5.049 -0.3804 -0.1626 -0.0325
17102TIP3    H172797   0.836   6.384   5.139 -0.1529 -0.8293  0.0492
17102TIP3    H272798   0.846   6.278   5.031  0.8897  0.5924 -1.2995
17103TIP3   OH272799   0.026   2.298   4.106  0.0084 -0.4949 -0.6615
17103TIP3    H172800   0.047   2.252   4.025  0.0992 -0.4746 -0.6499
17103TIP3    H272801  -0.008   2.231   4.164  0.5496 -0.6285 -0.4941
17104TIP3   OH272802   0.634   4.098  13.416  0.0940 -0.1037  0.2160
17104TIP3    H172803   0.611   4.055  13.334  0.7265  0.1358 -0.0933
17104TIP3    H272804   0.667   4.184  13.390  0.3798 -0.0571  0.7138
17105TIP3   OH272805   0.286   2.909  14.861 -0.5513 -0.6961  0.3533
17105TIP3    H172806   0.361   2.858  14.893 -0.5632 -0.7665  0.2710
17105TIP3    H272807   0.209   2.860  14.891 -0.5650 -0.5559  0.5469
17106TIP3   OH272808   5.026   0.049  16.117  0.0350 -0.0684  0.3469
17106TIP3    H172809   4.951   0.086  16.070 -1.1694 -1.6713  0.9157
17106TIP3    H272810   4.994   0.034  16.206  1.3801  0.1960  0.9033
17107TIP3   OH272811   1.197   2.251   5.826  0.0729  0.1893  0.3575
17107TIP3    H172812   1.168   2.184   5.888  0.9213 -0.2861  0.2561
17107TIP3    H272813   1.195   2.333   5.875 -0.9692  0.0968  0.4857
17108TIP3   OH272814   3.093   2.173   4.458  0.5796 -0.3370 -0.0423
17108TIP3    H172815   3.038   2.123   4.518 -1.5837  0.7062 -1.0188
17108TIP3    H272816   3.113   2.112   4.387 -3.2646  0.2930 -1.9826
17109TIP3   OH272817   2.274   4.060   5.431 -0.1052 -0.5109 -1.0066
17109TIP3    H172818   2.356   4.042   5.479  0.2605 -1.6300 -1.9937
17109TIP3    H272819   2.217   3.986   5.454 -0.5782 -0.1209 -0.9100
17110TIP3   OH272820   1.067   4.925  15.023 -0.0544 -0.1999 -0.4319
17110TIP3    H172821   1.111   4.903  14.941 -0.3426  0.9342 -0.9015
17110TIP3    H272822   0.984   4.965  14.995  0.3654  1.2938  0.3770
17111TIP3   OH272823   3.836   0.465  15.395  0.2101  0.3208 -0.2743
17111TIP3    H172824   3.778   0.523  15.444 -0.0973  0.1234 -0.4050
17111TIP3    H272825   3.924   0.496  15.417  0.0559  0.6684 -0.1361
17112TIP3   OH272826   2.527   1.072   5.569  0.4408 -0.1489  0.0034
17112TIP3    H172827   2.590   1.003   5.547  1.8338 -0.0569  3.0962
17112TIP3    H272828   2.468   1.031   5.633  0.3849  1.0936  0.7748
17113TIP3   OH272829   6.377   6.496  11.649 -0.1637 -0.1317  0.9366
17113TIP3    H172830   6.338   6.559  11.710  0.0205 -0.2476  1.1741
17113TIP3    H272831   6.377   6.541  11.565 -0.4957 -0.0006  1.0027
17114TIP3   OH272832   2.683   1.559   3.646  0.2239 -0.0517  0.2109
17114TIP3    H172833   2.755   1.519   3.598  2.2734  1.1284  2.0999
17114TIP3    H272834   2.676   1.647   3.609  0.2010  0.0658  0.4971
17115TIP3   OH272835   2.631   5.776   0.039 -0.0662  0.0750  0.0197
17115TIP3    H172836   2.644   5.871   0.047 -0.5154  0.1855 -0.5126
17115TIP3    H272837   2.597   5.764  -0.049 -0.3012 -0.5565  0.1932
17116TIP3   OH272838   1.984   5.971  15.787  0.2589  0.1835  0.0479
17116TIP3    H172839   1.903   6.006  15.750  0.7050  1.1372 -0.0657
17116TIP3    H272840   1.981   5.877  15.768 -1.0961  0.1043  0.5914
17117TIP3   OH272841   5.215   1.896  13.660  0.3819  0.3280  0.1921
17117TIP3    H172842   5.170   1.854  13.587 -1.0691  0.7445  0.7994
17117TIP3    H272843   5.212   1.832  13.731 -0.0922  0.6978  0.5158
17118TIP3   OH272844   6.587   4.109  13.156 -0.4026 -0.3409  0.2315
17118TIP3    H172845   6.527   4.035  13.162 -0.7849 -0.0702 -0.2052
17118TIP3    H272846   6.532   4.186  13.174  0.4806 -0.2953  3.4769
17119TIP3   OH272847   1.105   2.053   3.631  0.1027 -0.4073  0.6359
17119TIP3    H172848   1.068   2.109   3.698 -2.0550 -1.1355  0.1446
17119TIP3    H272849   1.199   2.071   3.633 -0.0655  0.5441  2.9137
17120TIP3   OH272850   4.191   0.126   0.730  0.3467  0.5056  0.3723
17120TIP3    H172851   4.200   0.032   0.746 -1.5688  0.2461  0.1403
17120TIP3    H272852   4.175   0.133   0.636  1.8036  1.2056  0.1472
17121TIP3   OH272853   5.865   5.638   5.669 -0.1407 -0.2645  0.2195
17121TIP3    H172854   5.876   5.632   5.574 -0.4497 -2.4148  0.2558
17121TIP3    H272855   5.774   5.667   5.681 -0.2451 -0.4327 -0.1438
17122TIP3   OH272856   1.365   1.515   3.203  0.2425 -0.1268  0.3487
17122TIP3    H172857   1.331   1.540   3.290  0.8253 -1.3075  0.9408
17122TIP3    H272858   1.459   1.501   3.217  0.8010  1.8434 -0.9876
17123TIP3   OH272859   6.008   3.514  11.599 -0.1615 -0.2919  0.5091
17123TIP3    H172860   6.022   3.509  11.505  1.2758  2.2253  0.5220
17123TIP3    H272861   6.093   3.490  11.637 -0.0552  0.8892  1.0597
17124TIP3   OH272862   4.134   4.524   0.697 -0.2394  0.3214 -0.3579
17124TIP3    H172863   4.075   4.488   0.763 -0.0638 -0.3086 -0.5411
17124TIP3    H272864   4.220   4.490   0.720 -0.4894 -1.6677 -2.1177
17125TIP3   OH272865   2.803   0.189   3.245  0.3368 -0.0677 -0.0447
17125TIP3    H172866   2.761   0.198   3.159 -0.6157 -2.6827  0.0431
17125TIP3    H272867   2.730   0.167   3.304  1.0550  1.1521  1.3531
17126TIP3   OH272868   5.303   2.073  16.789 -0.7002 -0.1262  0.1663
17126TIP3    H172869   5.333   2.156  16.752  0.4269  0.4269  2.1609
17126TIP3    H272870   5.356   2.061  16.868 -3.0563 -1.0768  1.7471
17127TIP3   OH272871   2.641   0.842   5.442  0.2068  0.3102  0.1071
17127TIP3    H172872   2.703   0.859   5.371  0.4471  0.5515  0.3692
17127TIP3    H272873   2.558   0.823   5.398  0.4238  0.1538 -0.2436
17128TIP3   OH272874   5.882   5.475   1.823 -0.1641  0.1752 -0.5002
17128TIP3    H172875   5.836   5.502   1.744  0.8970 -0.5114 -1.3793
17128TIP3    H272876   5.813   5.468   1.889 -0.9194  1.7493 -1.0801
17129TIP3   OH272877   4.382   2.376  12.406  0.0477  0.3365 -0.0441
17129TIP3    H172878   4.405   2.295  12.360 -1.9034 -1.8356  2.4912
17129TIP3    H272879   4.321   2.421  12.348  0.6887 -0.2885 -1.2283
17130TIP3   OH272880   2.632   4.088   1.606 -0.5278 -0.1379  0.1405
17130TIP3    H172881   2.616   4.180   1.590 -0.5469  0.0751  1.3241
17130TIP3    H272882   2.716   4.071   1.563 -0.7316  0.3120 -0.4531
17131TIP3   OH272883   2.034   0.479   4.019  0.2030  0.4075 -0.5961
17131TIP3    H172884   2.003   0.566   3.993 -0.4141  0.1171 -0.8366
17131TIP3    H272885   2.122   0.495   4.053 -1.0125  1.6171  2.3235
17132TIP3   OH272886   0.999   3.404  13.370  0.0154 -0.1468  0.6711
17132TIP3    H172887   0.961   3.491  13.362  0.0955 -0.1185  0.5945
17132TIP3    H272888   1.089   3.414  13.338 -0.0703 -0.3234  0.3688
17133TIP3   OH272889   4.114   0.197  15.375  0.4532 -0.2216  0.8134
17133TIP3    H172890   4.103   0.219  15.467 -1.2376 -0.7054  0.7604
17133TIP3    H272891   4.034   0.150  15.351  0.2868  0.9338 -1.2045
17134TIP3   OH272892   0.064   4.233  16.878  0.1668  0.2686  0.1282
17134TIP3    H172893   0.109   4.218  16.795  1.3372 -1.6358  1.0259
17134TIP3    H272894   0.132   4.221  16.944 -1.2693 -0.9652  1.4688
17135TIP3   OH272895   1.066   2.161  13.154  0.1974  0.5856  0.1316
17135TIP3    H172896   1.056   2.254  13.132  0.5956  0.3816 -0.9944
17135TIP3    H272897   0.981   2.135  13.190 -1.1388  0.5780 -2.7437
17136TIP3   OH272898   2.443   5.213  12.348 -0.0867 -0.2782  0.1460
17136TIP3    H172899   2.353   5.241  12.361 -1.2110 -2.7689 -1.4194
17136TIP3    H272900   2.473   5.186  12.435 -1.9343 -2.1498  0.2851
17137TIP3   OH272901   3.134   5.002  13.246 -0.5319  0.1802 -0.7343
17137TIP3    H172902   3.159   5.085  13.205 -1.8309  0.5542 -0.8029
17137TIP3    H272903   3.101   5.027  13.332  1.6475 -0.5415  0.3878
17138TIP3   OH272904   2.483   5.041  16.800  0.5323 -0.3785 -0.1043
17138TIP3    H172905   2.510   4.949  16.806  1.8643 -0.1564 -1.9610
17138TIP3    H272906   2.559   5.090  16.833 -1.5577  0.1338  4.9311
17139TIP3   OH272907   0.253   1.780   3.505  0.7023  0.0717  0.2598
17139TIP3    H172908   0.300   1.858   3.476  0.9231 -0.5212 -1.0514
17139TIP3    H272909   0.256   1.721   3.430  0.5898 -1.2296  1.2360
17140TIP3   OH272910   2.752   1.229   0.575 -0.2711 -0.1023 -0.0965
17140TIP3    H172911   2.828   1.243   0.518 -0.8915  1.5162 -0.5848
17140TIP3    H272912   2.767   1.287   0.649 -0.1365 -1.1890  0.7550
17141TIP3   OH272913   3.813   1.944  16.934  0.0922  0.4238 -0.7941
17141TIP3    H172914   3.813   1.850  16.951  0.5096  0.8545  1.9842
17141TIP3    H272915   3.750   1.980  16.996  0.4746  2.0764 -1.2990
17142TIP3   OH272916   4.068   2.516  13.451  0.3886  1.1988 -0.0422
17142TIP3    H172917   4.010   2.441  13.433 -2.3447  3.1943 -0.2949
17142TIP3    H272918   4.064   2.526  13.546 -0.0119  1.5504 -0.0918
17143TIP3   OH272919   3.443   4.354   1.883 -0.4202 -0.4813 -0.4232
17143TIP3    H172920   3.449   4.265   1.917 -1.2722  0.1134  1.4319
17143TIP3    H272921   3.528   4.394   1.902 -0.6762 -0.3483  0.4898
17144TIP3   OH272922   6.236   4.535  13.098 -0.2115  0.0840 -0.4758
17144TIP3    H172923   6.235   4.589  13.177  1.8831 -1.2401  0.5292
17144TIP3    H272924   6.144   4.532  13.071 -1.1095  0.0554  2.2812
17145TIP3   OH272925   1.556   6.495  13.785 -0.1072 -0.0773 -0.3115
17145TIP3    H172926   1.548   6.502  13.880  0.2406  1.3109 -0.3713
17145TIP3    H272927   1.477   6.535  13.751 -2.4051 -4.2736 -0.6461
17146TIP3   OH272928   0.671   0.007   5.059 -0.0514 -0.2407  0.3022
17146TIP3    H172929   0.591  -0.044   5.047 -1.0118  0.7710  1.9835
17146TIP3    H272930   0.713  -0.031   5.136 -0.3324  0.8971  1.0481
17147TIP3   OH272931   3.800   1.180   2.800  0.1443 -0.4456 -0.4146
17147TIP3    H172932   3.747   1.250   2.838 -0.0351 -1.3510  1.0709
17147TIP3    H272933   3.844   1.221   2.725 -0.4651  1.0703  0.0282
17148TIP3   OH272934   2.484   4.986   2.006  0.0630  0.2299 -0.1991
17148TIP3    H172935   2.390   4.973   1.992  0.1155  0.5307 -0.8483
17148TIP3    H272936   2.489   5.057   2.070 -0.1988 -1.7340  2.1505
17149TIP3   OH272937   1.778   2.098  13.159 -0.0784  0.5076 -0.3038
17149TIP3    H172938   1.700   2.052  13.127  0.7553  0.1076 -1.9290
17149TIP3    H272939   1.752   2.135  13.243 -1.5809 -0.7832 -0.1488
17150TIP3   OH272940   1.915   2.917   6.235  0.6236 -0.1294  0.3647
17150TIP3    H172941   1.825   2.952   6.231  1.2279  1.4136 -1.1501
17150TIP3    H272942   1.935   2.913   6.328 -0.9445 -0.2903  0.7200
17151TIP3   OH272943   1.252   6.137   0.260  0.2480 -0.0231 -0.0945
17151TIP3    H172944   1.296   6.062   0.220  0.8054  0.7109 -0.8872
17151TIP3    H272945   1.255   6.206   0.193 -0.9146  0.4842  0.3348
17152TIP3   OH272946   3.343   6.281  11.469 -0.9546 -0.1765 -0.2155
17152TIP3    H172947   3.412   6.317  11.525  0.7832  1.2338 -3.0660
17152TIP3    H272948   3.280   6.352  11.460 -1.3561 -0.4861  0.1283
17153TIP3   OH272949   1.446   5.231   4.045 -0.0116  0.1092 -0.1735
17153TIP3    H172950   1.534   5.204   4.073  0.3347  0.2786 -1.0650
17153TIP3    H272951   1.388   5.163   4.079  0.5220 -0.2437  0.0357
17154TIP3   OH272952   5.986   1.384   3.186 -0.3414  0.3431 -0.6847
17154TIP3    H172953   5.988   1.313   3.121  0.8305 -0.0486 -0.2475
17154TIP3    H272954   6.040   1.453   3.148 -2.6399  1.6645 -1.7725
17155TIP3   OH272955   0.914   4.777   4.380  0.1037 -0.4474  0.2208
17155TIP3    H172956   0.840   4.797   4.322  1.7500 -0.7266 -2.1004
17155TIP3    H272957   0.924   4.683   4.374  1.8300 -0.2274 -1.1214
17156TIP3   OH272958   1.588   5.740  12.104 -0.0090  0.0483 -0.0952
17156TIP3    H172959   1.547   5.668  12.056 -0.3179 -0.5696  1.0328
17156TIP3    H272960   1.554   5.730  12.193  1.7119  0.2059  0.6180
17157TIP3   OH272961   3.201   2.586   3.361 -0.2999 -0.5428  0.0256
17157TIP3    H172962   3.257   2.554   3.432  0.3369  1.0589  0.2932
17157TIP3    H272963   3.254   2.573   3.282 -0.7888 -1.8109 -0.1221
17158TIP3   OH272964   2.116   1.175  11.980 -0.3378 -0.2415  0.4175
17158TIP3    H172965   2.157   1.261  11.989  1.5434 -1.1859  1.2884
17158TIP3    H272966   2.034   1.183  12.028 -1.1468  1.6154 -1.1315
17159TIP3   OH272967   1.954   2.356  15.113  0.6655 -0.2530 -0.0835
17159TIP3    H172968   1.955   2.431  15.173 -0.3008 -0.3617  0.0835
17159TIP3    H272969   2.046   2.337  15.097  0.9255  0.6689  0.2545
17160TIP3   OH272970   1.815   2.639  15.147 -0.1811  0.5430  0.0853
17160TIP3    H172971   1.772   2.724  15.159 -1.9253  0.1417 -2.5106
17160TIP3    H272972   1.868   2.650  15.069  0.1286 -0.5572  0.1247
17161TIP3   OH272973   0.315   0.903   2.125 -0.4161 -0.2803 -0.6086
17161TIP3    H172974   0.330   0.832   2.062 -1.3537 -0.8859 -0.1676
17161TIP3    H272975   0.387   0.895   2.188 -0.9663 -1.3689 -0.0979
17162TIP3   OH272976   1.959   3.059   5.237 -0.2814 -0.0588 -0.2573
17162TIP3    H172977   2.023   2.990   5.218  1.2837  0.9166  1.2671
17162TIP3    H272978   1.947   3.056   5.332 -0.3893  1.5680 -0.1882
17163TIP3   OH272979   0.874   1.802  10.887  0.3939  0.0579  0.5029
17163TIP3    H172980   0.936   1.734  10.861  0.8671 -0.1301  2.0460
17163TIP3    H272981   0.841   1.837  10.804  0.3909 -1.7992 -0.3216
17164TIP3   OH272982   0.694   0.020  15.478  0.0205  0.0779 -0.0198
17164TIP3    H172983   0.690   0.113  15.500 -0.0232  0.8798 -3.0154
17164TIP3    H272984   0.606  -0.003  15.450  0.1780 -0.7295  0.1028
17165TIP3   OH272985   4.208   2.558  14.998 -0.2094  0.7286 -0.1302
17165TIP3    H172986   4.228   2.468  15.025  0.9320  1.2765  0.9010
17165TIP3    H272987   4.162   2.547  14.915 -2.3492 -0.9231  1.1705
17166TIP3   OH272988   2.173   4.169   2.671 -0.7576 -0.3396 -0.2883
17166TIP3    H172989   2.096   4.217   2.640  0.2410  1.0666 -0.6736
17166TIP3    H272990   2.167   4.083   2.628 -0.7472  0.6624 -2.3959
17167TIP3   OH272991   3.269   3.708  15.498 -0.7237 -0.4049 -0.4902
17167TIP3    H172992   3.334   3.725  15.429 -0.0116  2.6208  0.7820
17167TIP3    H272993   3.185   3.722  15.455 -0.3029  0.9741 -0.9117
17168TIP3   OH272994   1.802   5.819   4.785  0.0461 -0.1669  0.0980
17168TIP3    H172995   1.849   5.836   4.703  1.0329 -1.5750  0.3318
17168TIP3    H272996   1.785   5.906   4.822  4.2336  0.5151  0.9498
17169TIP3   OH272997   0.990   4.359   0.949  0.5228  0.1969 -0.1593
17169TIP3    H172998   1.054   4.399   0.890  0.4366 -1.3636 -1.3910
17169TIP3    H272999   0.958   4.432   1.003  1.1040  1.5800 -1.5835
17170TIP3   OH273000   0.531   4.203   0.405  0.4241  0.4198 -0.6603
17170TIP3    H173001   0.596   4.266   0.375  1.4524  0.3763  1.3089
17170TIP3    H273002   0.583   4.131   0.443 -0.7191 -1.3340 -2.2594
17171TIP3   OH273003   6.107   2.225   1.874  0.1751  0.0460 -0.0615
17171TIP3    H173004   6.109   2.180   1.959  0.0988 -1.3398 -0.7524
17171TIP3    H273005   6.060   2.306   1.890  1.1357  0.3474  1.4610
17172TIP3   OH273006   5.685   1.592  15.956  0.2335 -0.6528 -0.3913
17172TIP3    H173007   5.592   1.570  15.951  0.3035 -1.4775  1.1211
17172TIP3    H273008   5.721   1.527  16.018  1.2832  1.2099  1.0498
17173TIP3   OH273009   6.312   0.311  12.477 -0.3567  0.1404 -0.1748
17173TIP3    H173010   6.405   0.303  12.454 -0.5578  0.0725 -0.9904
17173TIP3    H273011   6.311   0.371  12.552  0.3666 -0.0866  0.0292
17174TIP3   OH273012   0.085   4.979  16.366 -0.1870 -0.0876 -0.7711
17174TIP3    H173013   0.086   4.997  16.272  0.7432  0.4531 -0.6641
17174TIP3    H273014   0.175   4.957  16.387 -0.1757  0.7719  0.1678
17175TIP3   OH273015   0.807   2.635  11.079 -0.5207  0.5152  0.3868
17175TIP3    H173016   0.790   2.727  11.058  1.5788  0.6529 -1.0932
17175TIP3    H273017   0.833   2.596  10.995 -0.6179 -1.2482  1.1367
17176TIP3   OH273018   3.964   2.577   5.935 -0.1037  0.3398 -0.2632
17176TIP3    H173019   3.958   2.498   5.988 -1.6921  0.6045 -0.0130
17176TIP3    H273020   3.938   2.648   5.994 -0.9135  0.7611 -1.0903
17177TIP3   OH273021   3.850   3.353   5.453  0.3753  0.5644 -0.1996
17177TIP3    H173022   3.828   3.268   5.493 -1.4601  0.9467 -0.3447
17177TIP3    H273023   3.896   3.400   5.522 -0.9531  0.4396  0.8016
17178TIP3   OH273024   1.225   3.180   2.306  0.2204 -0.1448 -0.2312
17178TIP3    H173025   1.272   3.262   2.317 -2.7133  1.5766  0.3665
17178TIP3    H273026   1.231   3.161   2.212 -2.1153  2.8348 -1.1305
17179TIP3   OH273027   4.956   3.491   4.900 -0.2520  0.5957 -0.0096
17179TIP3    H173028   4.944   3.575   4.857  0.5311  0.1302 -1.1840
17179TIP3    H273029   4.885   3.436   4.866 -0.9016  0.8192  0.9285
17180TIP3   OH273030   5.410   0.054   3.443 -0.1107 -0.3927  0.1816
17180TIP3    H173031   5.395  -0.040   3.434 -1.0271 -0.4313  1.7902
17180TIP3    H273032   5.395   0.072   3.536 -2.0156  1.7061 -0.4487
17181TIP3   OH273033   5.912   5.427  14.236 -0.0611  0.1336  0.3314
17181TIP3    H173034   5.877   5.373  14.165 -1.5075  0.0645  1.0533
17181TIP3    H273035   5.990   5.468  14.199  0.2970 -1.3864 -0.6689
17182TIP3   OH273036   2.730   1.926   0.635  0.5652 -0.6251 -0.2445
17182TIP3    H173037   2.792   1.863   0.600  1.4061 -0.0672  0.1940
17182TIP3    H273038   2.766   1.951   0.720 -1.1210 -1.5114  0.7852
17183TIP3   OH273039   0.756   6.224  14.364  0.4974 -0.1751 -0.2317
17183TIP3    H173040   0.840   6.202  14.403 -0.1618 -1.6294  0.4406
17183TIP3    H273041   0.752   6.171  14.284  0.2286 -0.0876 -0.2790
17184TIP3   OH273042   0.815   0.137   4.293 -0.2928  0.0328 -0.1082
17184TIP3    H173043   0.905   0.145   4.327 -0.0231 -0.8772 -0.5686
17184TIP3    H273044   0.807   0.045   4.269 -1.5162  0.0023  0.3573
17185TIP3   OH273045   2.740   3.783   4.991 -0.6189  0.4617  0.3495
17185TIP3    H173046   2.740   3.876   4.971  0.3553  0.1376 -1.4183
17185TIP3    H273047   2.827   3.753   4.962 -1.1686 -1.1111  0.2488
17186TIP3   OH273048   6.617   3.463  10.287 -0.4434 -0.1290  0.4677
17186TIP3    H173049   6.672   3.388  10.309  2.1928  1.3847 -0.4124
17186TIP3    H273050   6.530   3.440  10.319  0.6867 -2.6785  2.0045
17187TIP3   OH273051   5.887   5.039   3.062  0.1583 -0.4715  0.4395
17187TIP3    H173052   5.971   5.082   3.047  0.5203 -1.5340 -0.8741
17187TIP3    H273053   5.875   5.040   3.157  2.2889 -1.4133  0.7781
17188TIP3   OH273054   3.564   5.057  11.355 -0.2647  0.1818 -0.4383
17188TIP3    H173055   3.603   4.971  11.371 -0.1797  0.5351  1.5608
17188TIP3    H273056   3.471   5.044  11.373 -0.2206  0.5520  0.0624
17189TIP3   OH273057   0.251   6.563   1.537  0.5136 -0.1913  0.1430
17189TIP3    H173058   0.282   6.596   1.622  0.0835  0.9596 -0.1259
17189TIP3    H273059   0.172   6.513   1.558 -0.0979  0.8349  0.3463
17190TIP3   OH273060   3.194   5.264  16.601  0.1385  0.4213 -0.1374
17190TIP3    H173061   3.120   5.249  16.660  0.0337  1.5784  0.0570
17190TIP3    H273062   3.257   5.313  16.654 -0.2716  2.1279 -1.1594
17191TIP3   OH273063   4.970   0.024  10.256  0.4099 -0.2924 -0.9742
17191TIP3    H173064   4.962   0.091  10.188 -2.6456  2.7036  1.9300
17191TIP3    H273065   5.063   0.004  10.258  1.2241  2.4460 -3.3315
17192TIP3   OH273066   0.954   4.965   2.884  0.0166 -0.0536 -0.3297
17192TIP3    H173067   0.981   4.982   2.794  1.8019 -1.7909 -0.1830
17192TIP3    H273068   1.036   4.967   2.934 -0.8655  0.2269  1.1575
17193TIP3   OH273069   4.562   4.316   2.086 -0.2780  0.1378  0.2303
17193TIP3    H173070   4.474   4.349   2.102 -0.2752  0.5620 -0.5975
17193TIP3    H273071   4.608   4.389   2.044  0.6448  0.1233  1.1710
17194TIP3   OH273072   3.532   2.208  15.719  0.2559  0.0051 -0.8355
17194TIP3    H173073   3.437   2.214  15.733  0.0853 -1.5456 -1.1846
17194TIP3    H273074   3.561   2.144  15.784  0.6202 -1.6096 -2.5323
17195TIP3   OH273075   3.756   3.449  13.996 -0.3708  0.7182 -0.2467
17195TIP3    H173076   3.688   3.395  13.954 -0.3558 -0.1344  0.7858
17195TIP3    H273077   3.812   3.386  14.041  1.3619  1.3755 -1.3831
17196TIP3   OH273078   6.767   4.290   3.122 -0.1396 -0.1574 -0.1157
17196TIP3    H173079   6.847   4.243   3.099  0.7236  0.5764  1.2593
17196TIP3    H273080   6.797   4.378   3.146 -1.2615 -0.1041  1.1690
17197TIP3   OH273081   1.154   5.523   2.305  0.8905 -0.6860 -0.2495
17197TIP3    H173082   1.120   5.463   2.238 -1.7633 -0.8258  1.0558
17197TIP3    H273083   1.143   5.610   2.267 -1.6067 -0.6903  0.2704
17198TIP3   OH273084   3.967   5.465  14.976 -0.4715 -0.0043  0.9216
17198TIP3    H173085   3.974   5.453  14.881 -1.6954  1.6238  0.5896
17198TIP3    H273086   4.005   5.385  15.012 -0.5007 -0.9275 -0.9365
17199TIP3   OH273087   4.695   3.800  13.568 -0.4362 -0.1535 -0.2642
17199TIP3    H173088   4.617   3.815  13.515 -0.7827 -1.3415 -0.1310
17199TIP3    H273089   4.662   3.786  13.657 -0.2259 -1.9436 -0.4295
17200TIP3   OH273090   4.022   6.678   2.079  0.4007  0.0823  0.1606
17200TIP3    H173091   4.037   6.772   2.070 -0.5226  0.1321 -1.1800
17200TIP3    H273092   4.107   6.639   2.061  0.7843  0.6478  0.6850
17201TIP3   OH273093   3.518   0.830   5.607  0.4123 -0.0649  0.1408
17201TIP3    H173094   3.500   0.908   5.556  1.9594 -0.0233 -0.4045
17201TIP3    H273095   3.495   0.757   5.549  0.1081 -0.0204  0.2042
17202TIP3   OH273096   0.556   5.903   2.083  0.1310  0.2513 -0.1513
17202TIP3    H173097   0.468   5.940   2.074  0.2893  0.1925 -3.1686
17202TIP3    H273098   0.585   5.928   2.170 -3.3975 -0.9446  1.5589
17203TIP3   OH273099   1.118   5.767   0.481  0.3428  0.1801 -0.0031
17203TIP3    H173100   1.150   5.793   0.567 -1.8475  1.3948  0.5308
17203TIP3    H273101   1.160   5.828   0.420 -2.1650  3.0202  0.8840
17204TIP3   OH273102   0.422   0.109   3.368  0.6668  0.3669  0.3546
17204TIP3    H173103   0.444   0.144   3.454  0.0077 -2.0964  1.6191
17204TIP3    H273104   0.331   0.081   3.376  0.4668  0.4234 -1.2864
17205TIP3   OH273105   3.312   2.924   6.741  0.1985  0.3959  0.0843
17205TIP3    H173106   3.251   2.965   6.680  1.0143  0.8896 -0.4040
17205TIP3    H273107   3.392   2.974   6.734  0.6488 -0.1884  0.7973
17206TIP3   OH273108   1.160   3.188   3.728  0.7720 -0.4025  0.4530
17206TIP3    H173109   1.212   3.113   3.755  0.2762 -0.8759  0.0997
17206TIP3    H273110   1.123   3.164   3.643 -2.2623 -1.2591  1.8571
17207TIP3   OH273111   2.873   4.340  14.133  0.4637  0.2393  0.2849
17207TIP3    H173112   2.839   4.269  14.078  2.1345 -0.1215 -0.3263
17207TIP3    H273113   2.815   4.414  14.113 -0.9256 -0.7544  0.4781
17208TIP3   OH273114   4.851   2.427  11.368 -0.2215  0.2647  0.0631
17208TIP3    H173115   4.793   2.372  11.315  1.2315 -1.4621  0.2003
17208TIP3    H273116   4.876   2.373  11.442  1.8876  0.7750 -0.1972
17209TIP3   OH273117   0.270   4.379  12.541 -0.6821 -0.1293 -0.3758
17209TIP3    H173118   0.184   4.358  12.578 -0.6111  0.9700  0.4869
17209TIP3    H273119   0.252   4.409  12.452 -1.0659 -0.9922 -0.5944
17210TIP3   OH273120   0.185   3.590   0.981  0.1634 -0.7873 -0.1903
17210TIP3    H173121   0.097   3.591   1.018 -0.1130  0.9134 -0.7933
17210TIP3    H273122   0.224   3.672   1.009  1.2823 -1.1549 -0.5970
17211TIP3   OH273123   3.438   2.096  13.890 -0.7513 -0.5852  0.3881
17211TIP3    H173124   3.343   2.099  13.900 -0.6414  0.2629  1.3375
17211TIP3    H273125   3.460   2.175  13.842 -0.4384 -0.1992  1.1418
17212TIP3   OH273126   2.356   0.543   2.059 -0.2964 -0.1282  0.4212
17212TIP3    H173127   2.436   0.516   2.104  1.1291 -0.1344 -1.9434
17212TIP3    H273128   2.386   0.569   1.972 -3.0424 -1.4040 -1.0208
17213TIP3   OH273129   2.170   2.301   3.514  0.2423  0.4429  0.0901
17213TIP3    H173130   2.153   2.335   3.601  1.2160 -0.0398  0.4881
17213TIP3    H273131   2.263   2.317   3.499 -0.1253  1.5252 -1.3272
17214TIP3   OH273132   5.967   5.312   3.618  0.1500 -0.5778 -0.6278
17214TIP3    H173133   6.022   5.243   3.579 -0.5043 -0.2892 -2.1279
17214TIP3    H273134   5.990   5.391   3.569  1.4468  0.5058  1.5721
17215TIP3   OH273135   0.557   4.813  12.954 -0.1401  0.2400 -0.3369
17215TIP3    H173136   0.552   4.721  12.926 -0.8280 -0.1530  0.9482
17215TIP3    H273137   0.613   4.810  13.032  0.1339  0.9793 -0.5025
17216TIP3   OH273138   0.170   4.578   4.358  0.1294  0.1669  0.7930
17216TIP3    H173139   0.179   4.647   4.292 -1.9348 -0.4042 -0.1705
17216TIP3    H273140   0.140   4.502   4.308 -0.3753 -0.6150  2.2402
17217TIP3   OH273141   3.125   4.253   2.906  0.0947 -0.3245 -0.5935
17217TIP3    H173142   3.063   4.326   2.912  0.5740  0.0948 -0.6726
17217TIP3    H273143   3.209   4.290   2.936  0.2062 -1.0132 -0.0344
17218TIP3   OH273144   2.896   3.050   2.878 -0.1550  0.0968  0.9555
17218TIP3    H173145   2.830   2.983   2.858 -0.0675  0.2864  0.0160
17218TIP3    H273146   2.975   3.019   2.834  0.3632 -0.0505  1.9528
17219TIP3   OH273147   3.034   1.917  15.034 -0.3147  0.1626  0.4896
17219TIP3    H173148   2.945   1.920  14.998 -0.0738  0.6491 -0.0754
17219TIP3    H273149   3.091   1.917  14.957  0.1766 -0.0241  0.8523
17220TIP3   OH273150   6.180   5.419   3.880 -0.2883  0.6249 -0.3370
17220TIP3    H173151   6.212   5.509   3.870 -0.4785  0.7024 -0.2486
17220TIP3    H273152   6.090   5.429   3.911  0.1925  0.3998  1.2079
17221TIP3   OH273153   0.198   4.376   0.566 -0.2616  0.3511  0.4231
17221TIP3    H173154   0.142   4.433   0.514 -1.0649  1.0378  1.9654
17221TIP3    H273155   0.239   4.435   0.630  1.0691 -0.3802  0.2861
17222TIP3   OH273156   0.888   4.691  16.375 -0.0570 -0.1962  0.2317
17222TIP3    H173157   0.913   4.778  16.345  0.1188  0.2953  1.7235
17222TIP3    H273158   0.920   4.687  16.466  0.1592 -1.9047  0.1044
17223TIP3   OH273159   4.707   1.655   1.795 -0.5164  0.6182  0.1355
17223TIP3    H173160   4.769   1.621   1.731 -0.2774  1.1191  0.1013
17223TIP3    H273161   4.710   1.750   1.784 -0.6134  0.6960  0.7590
17224TIP3   OH273162   5.303   3.933   3.608  0.3251 -0.0755  0.5033
17224TIP3    H173163   5.271   4.023   3.616  0.8019 -0.0201  2.1323
17224TIP3    H273164   5.359   3.934   3.530 -1.9523  0.2997 -1.2587
17225TIP3   OH273165   3.267   1.219  12.078 -0.2030 -0.3715  0.6482
17225TIP3    H173166   3.338   1.269  12.037  0.0414 -0.0779  1.4010
17225TIP3    H273167   3.297   1.206  12.168 -1.9348  1.4307  1.5559
17226TIP3   OH273168   1.001   5.541  13.498 -0.3365  0.4414  0.0441
17226TIP3    H173169   0.992   5.496  13.583 -1.5572  2.0206  0.8172
17226TIP3    H273170   0.911   5.543  13.463  0.1807 -0.3639 -1.4158
17227TIP3   OH273171   4.431   3.111  13.789  0.1808 -0.0165  0.4603
17227TIP3    H173172   4.456   3.107  13.697 -1.3939  0.7753 -0.0375
17227TIP3    H273173   4.505   3.156  13.832  0.3145  0.8817 -0.6621
17228TIP3   OH273174   3.148   3.221   3.015  0.1941  0.0983 -0.7633
17228TIP3    H173175   3.220   3.279   2.992 -0.3756  0.0223 -3.0903
17228TIP3    H273176   3.073   3.279   3.025  0.1924  0.0068 -0.2117
17229TIP3   OH273177   3.581   6.645   5.866  0.5306  0.0420  0.0952
17229TIP3    H173178   3.546   6.713   5.809  0.5286  0.5990  0.7590
17229TIP3    H273179   3.659   6.683   5.905  0.7854 -0.4974  0.1276
17230TIP3   OH273180   6.207   6.615   5.616  0.0457  0.1897 -0.6012
17230TIP3    H173181   6.122   6.593   5.654 -0.3475  0.7250 -1.1583
17230TIP3    H273182   6.264   6.541   5.638 -0.5177 -0.0903 -0.0817
17231TIP3   OH273183   0.706   1.839   3.889 -0.2925  0.0352 -0.2252
17231TIP3    H173184   0.651   1.778   3.938  0.3478 -0.2671  0.1270
17231TIP3    H273185   0.691   1.815   3.797 -0.6810 -0.0982 -0.1324
17232TIP3   OH273186   0.133   1.092  10.689  0.5667  0.1740  0.6385
17232TIP3    H173187   0.070   1.104  10.618  0.8430 -0.3480  0.2913
17232TIP3    H273188   0.218   1.101  10.646  0.7498 -1.0013  0.7301
17233TIP3   OH273189   4.566   6.214   1.326  0.2347 -0.0479  0.4506
17233TIP3    H173190   4.483   6.258   1.306  0.3553  0.0780  0.2262
17233TIP3    H273191   4.542   6.121   1.334  0.3264 -0.2359 -1.1744
17234TIP3   OH273192   6.173   4.892   1.245 -0.1820 -0.0648  0.0139
17234TIP3    H173193   6.159   4.802   1.276 -0.1167  0.0900  0.5000
17234TIP3    H273194   6.217   4.881   1.161 -2.6056 -0.5637 -1.3032
17235TIP3   OH273195   6.248   2.992  15.991 -0.0501  0.0747  0.3248
17235TIP3    H173196   6.272   2.986  16.084 -0.2206  0.1705  0.3742
17235TIP3    H273197   6.331   2.981  15.944  0.5375  2.9002  0.5350
17236TIP3   OH273198   4.124   3.772   5.713  0.3886 -0.4604  0.2471
17236TIP3    H173199   4.091   3.826   5.640 -1.0062 -3.2204 -1.3185
17236TIP3    H273200   4.214   3.803   5.726 -0.8913  3.5223  0.8533
17237TIP3   OH273201   3.945   0.557   3.331  0.3569 -0.4954 -0.2204
17237TIP3    H173202   3.924   0.491   3.397 -2.1216  1.0810  0.7071
17237TIP3    H273203   3.880   0.544   3.262  0.4487  0.3712 -0.4828
17238TIP3   OH273204   3.813   6.156   1.990 -0.4599 -0.2132 -0.3279
17238TIP3    H173205   3.858   6.225   2.038 -0.5088 -0.5562  0.2314
17238TIP3    H273206   3.837   6.170   1.899 -0.1389  0.2893 -0.1709
17239TIP3   OH273207   5.102   2.390  10.606 -0.3882  0.4856 -0.4597
17239TIP3    H173208   5.009   2.410  10.605 -1.0592 -2.1529  1.5113
17239TIP3    H273209   5.113   2.322  10.540 -0.4113 -1.0602  1.0612
17240TIP3   OH273210   4.810   4.165  10.403  0.1526  0.4223 -0.7550
17240TIP3    H173211   4.760   4.101  10.354 -0.2514 -0.3701  0.6383
17240TIP3    H273212   4.857   4.114  10.469 -3.7269  1.6906  3.5460
17241TIP3   OH273213   5.890   3.811  11.390 -0.1287 -0.5220  0.6969
17241TIP3    H173214   5.902   3.813  11.295  2.5915  1.7692  0.9560
17241TIP3    H273215   5.966   3.763  11.423 -0.6344 -0.6158  1.7892
17242TIP3   OH273216   1.117   3.054   4.079 -0.3012 -0.1501 -0.1463
17242TIP3    H173217   1.034   3.065   4.032 -0.0450  0.6629 -0.4231
17242TIP3    H273218   1.130   3.138   4.123  0.6843 -0.0605 -0.5932
17243TIP3   OH273219   2.562   0.410   0.570 -0.0156  0.0442 -0.2731
17243TIP3    H173220   2.509   0.477   0.525  0.2042  0.4137  0.0100
17243TIP3    H273221   2.498   0.355   0.614 -0.2816 -0.8100 -1.6885
17244TIP3   OH273222   5.820   0.183   1.997 -0.1245  0.5749  0.4518
17244TIP3    H173223   5.904   0.136   1.994 -0.5455 -0.1385 -0.6092
17244TIP3    H273224   5.834   0.252   2.061  1.6479  1.1823 -0.5306
17245TIP3   OH273225   6.016   2.825   3.405  0.0793  0.9401  0.3159
17245TIP3    H173226   6.101   2.780   3.409 -0.4852 -0.1100  0.8652
17245TIP3    H273227   6.038   2.918   3.416  1.3633  0.9484 -1.8724
17246TIP3   OH273228   1.482   4.182  13.376  0.2384 -0.4771  0.0955
17246TIP3    H173229   1.406   4.206  13.429 -0.4681  0.5357 -1.2890
17246TIP3    H273230   1.555   4.226  13.418 -0.0200 -1.0171  1.1404
17247TIP3   OH273231   4.689   0.025  14.578  0.2421  0.1099 -0.0405
17247TIP3    H173232   4.609   0.026  14.524  0.9804  1.3482 -1.1936
17247TIP3    H273233   4.716  -0.067  14.580 -0.7314 -0.1930 -0.3814
17248TIP3   OH273234   3.757   6.614   6.225 -0.6313  0.3527  0.0846
17248TIP3    H173235   3.789   6.531   6.262 -1.5409  0.4727  1.2395
17248TIP3    H273236   3.662   6.608   6.235 -1.0273  0.1083 -2.9807
17249TIP3   OH273237   3.566   1.770   5.280 -0.1050 -0.1240 -0.1704
17249TIP3    H173238   3.495   1.726   5.327  0.2148  0.3035  0.7461
17249TIP3    H273239   3.577   1.720   5.199  1.3445 -2.7957  1.5176
17250TIP3   OH273240   3.739   5.645   0.552 -0.8426  0.4156  0.1134
17250TIP3    H173241   3.683   5.674   0.624  1.6089 -0.5020  2.5836
17250TIP3    H273242   3.728   5.550   0.550 -0.7054  0.4096 -0.5990
17251TIP3   OH273243   5.400   5.288  12.502  0.1236 -0.1402 -0.1195
17251TIP3    H173244   5.407   5.213  12.561 -1.4090  0.9857  1.6237
17251TIP3    H273245   5.332   5.264  12.439  0.3051 -0.5811 -0.1452
17252TIP3   OH273246   1.229   0.227   1.770  0.2987 -0.4963 -0.1016
17252TIP3    H173247   1.167   0.298   1.785 -0.2529 -0.3977 -2.4666
17252TIP3    H273248   1.313   0.270   1.754  0.4551 -0.5105  0.6444
17253TIP3   OH273249   0.193   5.800  11.693  0.5652  0.1027  0.3221
17253TIP3    H173250   0.151   5.753  11.621  0.6434 -0.2803  0.5240
17253TIP3    H273251   0.159   5.758  11.772 -1.4502  2.1029  0.6157
17254TIP3   OH273252   2.998   1.290   3.091 -0.3400 -0.6376  0.3473
17254TIP3    H173253   3.082   1.336   3.105  1.3328 -3.4673  0.2998
17254TIP3    H273254   2.990   1.283   2.996 -0.3995 -0.7680  0.3617
17255TIP3   OH273255   2.311   1.061  10.547  0.1840  0.3063 -0.1679
17255TIP3    H173256   2.294   1.128  10.613 -0.1253 -0.6725  0.7765
17255TIP3    H273257   2.384   1.010  10.583 -0.4434 -0.6630 -0.2420
17256TIP3   OH273258   2.738   6.574  16.494 -0.4911  0.0574 -0.0814
17256TIP3    H173259   2.698   6.507  16.439 -1.0292 -0.6812  1.1524
17256TIP3    H273260   2.666   6.607  16.548 -0.2908  1.8344 -0.8236
17257TIP3   OH273261   2.415   2.290  13.882 -0.4372  0.5585 -0.8717
17257TIP3    H173262   2.376   2.203  13.872  0.3913  0.0275  0.3265
17257TIP3    H273263   2.396   2.334  13.799  0.7034 -1.4016 -2.2498
17258TIP3   OH273264   0.088   3.568   0.420 -0.2818 -0.5510  0.7831
17258TIP3    H173265  -0.000   3.577   0.386 -0.2920 -0.7151  0.7649
17258TIP3    H273266   0.111   3.476   0.405  0.3034 -0.2587 -0.2100
17259TIP3   OH273267   5.266   4.020   1.663 -0.5089 -0.4105  0.0339
17259TIP3    H173268   5.194   4.084   1.662 -0.8984 -0.8272  0.6784
17259TIP3    H273269   5.328   4.056   1.726 -0.3604 -0.2793 -0.1855
17260TIP3   OH273270   3.958   5.703  11.681  0.3554  0.1863  0.1438
17260TIP3    H173271   3.947   5.684  11.774 -1.0362 -0.0995 -0.0552
17260TIP3    H273272   4.038   5.657  11.657 -0.0127 -0.9013  0.9060
17261TIP3   OH273273   4.662   3.489  11.771 -0.2721  0.2211  0.1232
17261TIP3    H173274   4.707   3.416  11.729  0.1710  0.3529  0.3700
17261TIP3    H273275   4.571   3.480  11.742  0.2480  1.1241 -2.0753
17262TIP3   OH273276   6.185   3.102  14.892 -0.4384 -0.3186 -0.3205
17262TIP3    H173277   6.212   3.020  14.933 -0.9985  0.0723  0.8626
17262TIP3    H273278   6.265   3.137  14.853  0.1658 -0.5919  0.6406
17263TIP3   OH273279   6.167   5.270  14.024 -0.4242  0.0500 -0.1073
17263TIP3    H173280   6.139   5.354  14.062  1.2720  1.3411 -1.5596
17263TIP3    H273281   6.229   5.294  13.956  0.6037 -2.4555 -0.1423
17264TIP3   OH273282   3.906   2.786   2.892  0.7926  0.6067 -0.6867
17264TIP3    H173283   3.920   2.840   2.971 -1.8983  1.2363 -0.5378
17264TIP3    H273284   3.939   2.700   2.916 -3.2565 -0.3135  2.7121
17265TIP3   OH273285   4.944   0.656   0.411  0.2674 -0.1971 -0.0923
17265TIP3    H173286   4.898   0.615   0.337 -0.4318  0.2276  0.0933
17265TIP3    H273287   4.950   0.586   0.477 -0.1953 -0.2344 -0.0862
17266TIP3   OH273288   1.211   2.113  11.327  0.8226  0.3148  0.5104
17266TIP3    H173289   1.218   2.019  11.312  0.8636  0.6663 -2.0216
17266TIP3    H273290   1.294   2.149  11.296 -0.6842  1.5362 -2.4492
17267TIP3   OH273291   0.506   0.423  16.930 -0.0821 -0.0604 -0.2761
17267TIP3    H173292   0.431   0.475  16.899 -1.4940 -1.0597  1.2640
17267TIP3    H273293   0.540   0.473  17.005 -0.3354 -0.4785  0.1208
17268TIP3   OH273294   0.863   5.531  14.182 -0.0592  0.7429  0.1234
17268TIP3    H173295   0.947   5.574  14.196  1.7937 -2.5771  0.3224
17268TIP3    H273296   0.840   5.496  14.269 -0.4535 -0.2552 -0.3650
17269TIP3   OH273297   1.656   5.851  16.150 -0.3024 -0.4008  0.5377
17269TIP3    H173298   1.604   5.868  16.229 -0.3691 -0.2894  0.4688
17269TIP3    H273299   1.611   5.898  16.080 -0.1229 -0.3226  0.4735
17270TIP3   OH273300   1.147   0.359  15.713 -0.0207 -0.0013 -0.5122
17270TIP3    H173301   1.229   0.407  15.708  0.0816 -0.2296 -1.0482
17270TIP3    H273302   1.115   0.376  15.802  1.4848 -1.3604  0.3442
17271TIP3   OH273303   1.730   2.952   4.584 -0.2240  0.5292  0.7116
17271TIP3    H173304   1.725   2.908   4.669 -0.7920 -1.6239 -0.3636
17271TIP3    H273305   1.775   2.890   4.527  0.1479  1.9208 -0.5775
17272TIP3   OH273306   2.342   1.105  15.334  0.1089 -0.2706 -0.7792
17272TIP3    H173307   2.306   1.016  15.335  0.2368 -0.3440  0.8076
17272TIP3    H273308   2.305   1.146  15.413  0.5793  0.8666 -1.1283
17273TIP3   OH273309   3.737   1.844   3.827 -0.1587 -0.2810  0.2057
17273TIP3    H173310   3.770   1.842   3.738  1.2307 -0.3589  0.6979
17273TIP3    H273311   3.777   1.769   3.870  0.7413  0.8207  1.3874
17274TIP3   OH273312   0.599   2.015  12.346  0.1558 -0.1743  0.1294
17274TIP3    H173313   0.598   2.079  12.275 -1.5304 -0.8340 -0.4915
17274TIP3    H273314   0.507   2.001  12.368  0.5907 -0.7323  1.7843
17275TIP3   OH273315   3.710   4.869  15.708 -0.4582 -0.0475  0.1103
17275TIP3    H173316   3.770   4.816  15.657 -0.8778 -1.0457  0.6340
17275TIP3    H273317   3.741   4.959  15.696  0.5432 -0.4523 -0.4055
17276TIP3   OH273318   6.514   3.766  15.433 -0.1072  0.6230 -0.3096
17276TIP3    H173319   6.470   3.690  15.472  1.7615  0.2501  1.1672
17276TIP3    H273320   6.537   3.737  15.345  0.8060 -0.6421  0.3178
17277TIP3   OH273321   1.165   0.146  11.732 -0.5129 -0.3037  0.1988
17277TIP3    H173322   1.139   0.237  11.739 -1.0678 -0.5736  2.2070
17277TIP3    H273323   1.083   0.097  11.728 -0.2212 -0.7738 -0.3290
17278TIP3   OH273324   0.852   6.161  13.424 -0.1014 -0.5610 -0.4159
17278TIP3    H173325   0.771   6.110  13.416 -1.0827  0.4777  1.9064
17278TIP3    H273326   0.822   6.249  13.447  1.5227  1.2545 -4.3835
17279TIP3   OH273327   5.151   2.531   5.197 -0.0890  0.2089 -0.0304
17279TIP3    H173328   5.232   2.569   5.162 -1.3950  1.7087 -1.5795
17279TIP3    H273329   5.132   2.458   5.138  0.4618 -0.5688  0.7359
17280TIP3   OH273330   1.708   4.822   1.525 -0.1888  0.5302 -0.3164
17280TIP3    H173331   1.618   4.835   1.495 -0.0418 -0.0113 -1.0076
17280TIP3    H273332   1.726   4.898   1.580 -1.7049 -0.2476  1.3766
17281TIP3   OH273333   4.511   4.924   3.211  0.1924  0.3463  0.4263
17281TIP3    H173334   4.461   4.953   3.287  1.1334  0.4100  1.0330
17281TIP3    H273335   4.542   4.836   3.234  0.8207  0.5257  0.3001
17282TIP3   OH273336   0.607   1.991   5.170  0.5494  0.0456 -0.0395
17282TIP3    H173337   0.637   1.905   5.140  1.2497  0.3486 -0.2034
17282TIP3    H273338   0.602   2.044   5.091  0.7391  0.3415  0.1454
17283TIP3   OH273339   1.437   0.679  11.847 -0.0202  0.3732 -0.0824
17283TIP3    H173340   1.423   0.726  11.764 -0.3321  2.1873  0.9351
17283TIP3    H273341   1.448   0.588  11.821  0.9491  1.0248 -2.2131
17284TIP3   OH273342   6.475   0.134   4.628  0.4105 -0.3303  0.5817
17284TIP3    H173343   6.522   0.093   4.555 -2.4692 -1.1487 -0.9916
17284TIP3    H273344   6.493   0.078   4.703  1.7354 -0.6953  0.0299
17285TIP3   OH273345   1.922   3.559  12.891 -0.4512  0.3014  0.3133
17285TIP3    H173346   1.980   3.487  12.918  0.2165  0.5136 -0.4890
17285TIP3    H273347   1.858   3.518  12.833 -0.4091  0.2566  0.2988
17286TIP3   OH273348   5.861   4.369   0.352  0.1686 -0.5279  0.7132
17286TIP3    H173349   5.796   4.351   0.419  1.5602 -2.1462  1.7054
17286TIP3    H273350   5.938   4.318   0.378  0.9549 -0.7972 -1.7995
17287TIP3   OH273351   2.582   3.680  14.703 -0.2402  0.1730 -0.1283
17287TIP3    H173352   2.562   3.636  14.786 -3.3792 -1.0386 -1.3893
17287TIP3    H273353   2.534   3.763  14.708  0.9435  0.8834 -0.1216
17288TIP3   OH273354   4.705   4.051  14.273  0.0157  0.2525  0.2134
17288TIP3    H173355   4.617   4.039  14.237 -0.6922  1.0303  1.6057
17288TIP3    H273356   4.712   4.145  14.289  1.1614  0.2169 -0.0053
17289TIP3   OH273357   5.602   3.116  14.192 -0.2100 -0.1731 -0.1910
17289TIP3    H173358   5.602   3.175  14.117 -0.4981 -0.8365 -0.7211
17289TIP3    H273359   5.629   3.031  14.156 -2.7397 -1.1198 -0.0666
17290TIP3   OH273360   4.882   3.479  10.532  0.5483 -0.3710  0.0217
17290TIP3    H173361   4.959   3.434  10.496  1.7501  0.8036  1.0486
17290TIP3    H273362   4.912   3.568  10.550 -1.4580  0.5576 -0.8883
17291TIP3   OH273363   5.973   5.957  13.544  0.0961 -0.1556 -0.5007
17291TIP3    H173364   6.028   5.966  13.466 -1.2316 -0.6026 -1.5367
17291TIP3    H273365   5.890   5.999  13.520 -0.7500 -1.3382  0.2283
17292TIP3   OH273366   4.819   1.230  16.825  0.1590 -0.1586  0.6571
17292TIP3    H173367   4.903   1.242  16.869  0.2250  2.1500  0.0465
17292TIP3    H273368   4.806   1.311  16.775 -1.7738 -1.0340 -0.3928
17293TIP3   OH273369   1.981   6.606   2.840  0.6227 -0.0658  0.3828
17293TIP3    H173370   2.049   6.547   2.875 -0.2687 -0.7100  1.0927
17293TIP3    H273371   1.900   6.574   2.880  0.0053  1.1580  0.1340
17294TIP3   OH273372   2.599   3.156   0.390  0.3022  0.3354 -0.3490
17294TIP3    H173373   2.607   3.108   0.473 -1.7151  2.6109  1.3057
17294TIP3    H273374   2.689   3.166   0.360  1.3004  0.9363  2.5101
17295TIP3   OH273375   1.369   6.654  11.598  0.0806 -0.0648  0.7105
17295TIP3    H173376   1.284   6.610  11.587  1.3684 -3.2813  2.2637
17295TIP3    H273377   1.364   6.692  11.686  0.0474  0.2310  0.5798
17296TIP3   OH273378   5.951   2.442   5.103 -0.1570  0.0624 -0.0924
17296TIP3    H173379   6.039   2.405   5.098  0.2082  0.9068 -0.1369
17296TIP3    H273380   5.949   2.489   5.186 -0.2979  0.6844 -0.4379
17297TIP3   OH273381   3.826   0.314  16.744  0.1444  0.1261 -0.4687
17297TIP3    H173382   3.826   0.218  16.740 -0.3492  0.1630 -2.1894
17297TIP3    H273383   3.739   0.336  16.776 -0.1246 -0.0054 -1.0792
17298TIP3   OH273384   2.317   0.485   1.534  0.3019  1.3369  0.5269
17298TIP3    H173385   2.255   0.462   1.602  1.0800 -1.2064  0.4755
17298TIP3    H273386   2.272   0.465   1.452  1.5880 -2.0814  0.5106
17299TIP3   OH273387   0.305   2.404  12.389 -0.4921 -0.8721  0.6650
17299TIP3    H173388   0.272   2.484  12.429  0.1425 -0.4572  0.3766
17299TIP3    H273389   0.281   2.412  12.297  0.0031 -0.7817  0.5425
17300TIP3   OH273390   3.538   5.974   0.865  0.4809  0.2549 -0.3154
17300TIP3    H173391   3.530   5.892   0.915  1.5565  0.0503 -0.4471
17300TIP3    H273392   3.620   6.013   0.897 -0.4489  1.7446  0.3938
17301TIP3   OH273393   3.653   4.472  15.983 -0.1709 -0.2581 -0.4722
17301TIP3    H173394   3.692   4.543  15.932  0.7116 -0.2902  0.1391
17301TIP3    H273395   3.644   4.508  16.071  0.6365 -1.0141 -0.0628
17302TIP3   OH273396   3.784   2.520   0.842 -0.3768  0.4624 -0.1268
17302TIP3    H173397   3.775   2.549   0.933  2.1450 -1.0880  0.7323
17302TIP3    H273398   3.814   2.429   0.849 -0.0955  0.3089 -2.5272
17303TIP3   OH273399   5.061   0.597  15.361 -0.6075 -0.0736 -0.2463
17303TIP3    H173400   5.107   0.534  15.416  0.0760  1.3872  0.9406
17303TIP3    H273401   4.971   0.566  15.358 -0.0336 -1.7741 -0.7620
17304TIP3   OH273402   5.313   5.213  13.262 -0.4198 -0.6869 -0.0917
17304TIP3    H173403   5.358   5.130  13.246 -1.9607 -1.6860  0.6228
17304TIP3    H273404   5.364   5.255  13.331  1.3303 -0.2235 -1.5732
17305TIP3   OH273405   5.805   6.534   3.197  0.2484  0.4270  0.1249
17305TIP3    H173406   5.746   6.606   3.218 -0.4339 -0.5091  1.4942
17305TIP3    H273407   5.878   6.543   3.258  0.9127  0.8030 -0.6915
17306TIP3   OH273408   5.769   0.032  10.350 -0.2202 -0.4518  0.5396
17306TIP3    H173409   5.845  -0.020  10.376 -1.0964 -2.1284 -0.0944
17306TIP3    H273410   5.720  -0.025  10.290 -1.2203  1.1292 -0.2185
17307TIP3   OH273411   5.723   5.266   3.686 -0.3697  0.7752 -0.2679
17307TIP3    H173412   5.667   5.343   3.689  0.0982  1.1280 -0.5382
17307TIP3    H273413   5.807   5.298   3.653  0.2360  0.4082  0.8598
17308TIP3   OH273414   0.641   1.302   4.557  0.3322 -0.0488 -0.2317
17308TIP3    H173415   0.550   1.291   4.587  0.1143  1.6382 -0.1430
17308TIP3    H273416   0.694   1.285   4.635  0.1145 -1.2422 -0.3325
17309TIP3   OH273417   2.510   0.682  14.593  0.6630 -0.4643 -0.7522
17309TIP3    H173418   2.471   0.736  14.662  0.8095 -1.6071  0.2644
17309TIP3    H273419   2.599   0.665  14.623 -0.2128 -3.5944  0.4275
17310TIP3   OH273420   2.738   5.925  16.846  0.5410 -0.0256  0.6352
17310TIP3    H173421   2.820   5.951  16.888 -0.2005  1.5837  1.1865
17310TIP3    H273422   2.725   5.990  16.777  0.7392 -1.4836 -0.8305
17311TIP3   OH273423   2.536   2.017   5.373  0.1270 -0.1193  0.1086
17311TIP3    H173424   2.543   1.946   5.310  0.0614 -0.5510  0.5840
17311TIP3    H273425   2.528   1.974   5.458 -0.7793  0.4360  0.3278
17312TIP3   OH273426   0.043   0.442  10.299  0.1524  0.3204  0.6225
17312TIP3    H173427   0.119   0.496  10.276  1.2049 -1.1892  0.3788
17312TIP3    H273428   0.055   0.361  10.250 -2.3126  0.4991 -0.3949
17313TIP3   OH273429   4.552   0.528   0.384 -0.4254  0.2185 -0.0061
17313TIP3    H173430   4.622   0.484   0.432 -0.5834 -0.5347 -0.4463
17313TIP3    H273431   4.548   0.482   0.300 -1.7474 -0.0418  0.1835
17314TIP3   OH273432   5.224   6.110  13.223 -0.3891  0.2737  0.0449
17314TIP3    H173433   5.188   6.153  13.300  0.7237 -1.2134  1.4546
17314TIP3    H273434   5.313   6.086  13.248  0.1584  0.0927 -1.8565
17315TIP3   OH273435   0.154   3.309  15.821  0.0505  0.0410  0.1964
17315TIP3    H173436   0.100   3.319  15.743  0.5036 -1.7321 -0.3951
17315TIP3    H273437   0.121   3.375  15.883 -0.6505  1.1255 -1.2884
17316TIP3   OH273438   3.355   4.691  12.604 -0.2611 -0.1091 -0.1274
17316TIP3    H173439   3.438   4.645  12.593  0.2381  1.0996 -1.6766
17316TIP3    H273440   3.303   4.666  12.528 -0.9926 -0.1231  0.3620
17317TIP3   OH273441   5.893   1.208   6.038 -0.4257  0.3366  0.4333
17317TIP3    H173442   5.835   1.155   6.092 -2.2103  1.7879  0.0181
17317TIP3    H273443   5.914   1.152   5.963  0.0454 -0.7713  1.3583
17318TIP3   OH273444   3.390   3.218   1.490  0.1512  0.6641  0.5582
17318TIP3    H173445   3.413   3.125   1.480  0.0763  0.7359 -0.3503
17318TIP3    H273446   3.469   3.266   1.467  0.0906  0.8364  0.7045
17319TIP3   OH273447   1.767   6.300  11.200 -0.9892 -0.2456  0.0930
17319TIP3    H173448   1.802   6.212  11.218 -1.4223 -0.4967 -0.2807
17319TIP3    H273449   1.759   6.340  11.286 -0.7799 -0.5730  0.2682
17320TIP3   OH273450   2.607   5.292   0.858 -0.2633  0.4378  0.2534
17320TIP3    H173451   2.587   5.218   0.916 -4.2396  1.2483  0.2595
17320TIP3    H273452   2.553   5.276   0.780 -2.0968  3.6590  0.6777
17321TIP3   OH273453   5.886   4.251   6.129 -0.3966 -0.1935  0.3857
17321TIP3    H173454   5.882   4.321   6.064 -0.5034 -1.4609 -1.0260
17321TIP3    H273455   5.890   4.170   6.078 -0.2252 -1.2377  1.9596
17322TIP3   OH273456   1.654   6.299   1.451 -0.0477 -0.3089  0.7327
17322TIP3    H173457   1.643   6.318   1.544 -0.6552  0.3247  0.5460
17322TIP3    H273458   1.589   6.356   1.407 -0.3627 -1.2210 -0.0160
17323TIP3   OH273459   5.495   1.840  16.308 -0.5766 -0.2471 -0.4683
17323TIP3    H173460   5.464   1.877  16.226 -0.3930  0.1786 -0.3519
17323TIP3    H273461   5.426   1.780  16.336 -0.9522  0.1249 -0.5855
17324TIP3   OH273462   4.709   3.385  14.122 -0.1615 -0.1950  0.6861
17324TIP3    H173463   4.650   3.461  14.111 -1.1303 -0.7276  1.9295
17324TIP3    H273464   4.705   3.366  14.216  2.2645 -0.0828  0.8630
17325TIP3   OH273465   5.419   0.810   1.343 -0.6615  0.4780 -0.5906
17325TIP3    H173466   5.341   0.808   1.287 -0.9469 -0.4273 -0.1774
17325TIP3    H273467   5.387   0.843   1.427 -0.8561 -0.9364 -0.0760
17326TIP3   OH273468   4.628   4.286  13.973 -0.1351 -0.5858 -0.1582
17326TIP3    H173469   4.597   4.299  14.063  0.5468 -3.4134  0.5821
17326TIP3    H273470   4.598   4.198  13.950  2.0832 -1.0183 -1.6760
17327TIP3   OH273471   5.472   3.565  12.262 -0.4179 -0.2649 -0.1672
17327TIP3    H173472   5.392   3.524  12.229 -0.8319 -0.1294  0.6265
17327TIP3    H273473   5.440   3.633  12.322  0.2861  0.1975 -0.3118
17328TIP3   OH273474   2.014   2.553   2.797  0.3766  0.2704  0.6571
17328TIP3    H173475   2.040   2.572   2.887  0.1501  2.4298  0.3126
17328TIP3    H273476   2.094   2.567   2.745  0.1703  0.3783  0.3647
17329TIP3   OH273477   5.312   5.464  12.691 -0.4983  0.2052 -0.0708
17329TIP3    H173478   5.341   5.410  12.618 -1.4158 -0.6771  0.2039
17329TIP3    H273479   5.385   5.525  12.705  2.1187 -2.9793  1.7122
17330TIP3   OH273480   1.181   3.843   2.877 -0.2587 -0.5995  0.4017
17330TIP3    H173481   1.096   3.888   2.873  0.1863  0.2615  0.3222
17330TIP3    H273482   1.202   3.825   2.785  0.4804  0.8350  0.2648
17331TIP3   OH273483   6.709   2.031   6.477 -0.4037  0.0158  0.6947
17331TIP3    H173484   6.627   2.067   6.442  0.1554  0.8760  0.2335
17331TIP3    H273485   6.747   2.103   6.528  1.3904  0.6010 -1.3261
17332TIP3   OH273486   4.051   3.287  15.628 -0.3690  0.3740 -0.0173
17332TIP3    H173487   4.022   3.368  15.587  1.2948  0.6186 -0.8128
17332TIP3    H273488   4.110   3.315  15.698 -0.3008 -0.1267  0.1316
17333TIP3   OH273489   0.134   4.360  13.895  0.3422  0.0777  0.0707
17333TIP3    H173490   0.190   4.436  13.880 -2.5966  2.3442 -0.4123
17333TIP3    H273491   0.083   4.352  13.814 -1.2258 -0.7356  1.0888
17334TIP3   OH273492   6.739   0.968  13.189  0.2264 -0.4017 -0.4622
17334TIP3    H173493   6.735   0.965  13.284  0.2391 -1.5942 -0.4826
17334TIP3    H273494   6.695   0.888  13.161  0.2551 -0.0800 -1.4556
17335TIP3   OH273495   4.052   1.446  13.155  0.3442 -0.3154  0.0009
17335TIP3    H173496   3.960   1.449  13.127  0.4921  1.2582 -0.4230
17335TIP3    H273497   4.048   1.430  13.249 -0.4997  2.1553  0.4520
17336TIP3   OH273498   4.743   1.103  11.372 -0.5450 -0.0241 -0.1557
17336TIP3    H173499   4.681   1.142  11.433 -0.1548  0.6380 -0.1798
17336TIP3    H273500   4.724   1.009  11.376 -1.8301  0.1989 -0.4677
17337TIP3   OH273501   0.770   0.861   1.585 -0.3218  0.2981 -0.2519
17337TIP3    H173502   0.820   0.779   1.583 -0.9594 -0.1183  0.3786
17337TIP3    H273503   0.704   0.851   1.517  0.9039  1.1701 -1.6296
17338TIP3   OH273504   4.843   2.058   3.152  0.2020  0.5607  0.5579
17338TIP3    H173505   4.919   2.052   3.093  0.8452  1.2995  1.2879
17338TIP3    H273506   4.770   2.079   3.094  0.3610 -1.0243 -0.2827
17339TIP3   OH273507   2.438   0.534   5.665 -0.2154 -0.4407  0.0770
17339TIP3    H173508   2.421   0.493   5.750  0.6071 -2.5317 -0.6988
17339TIP3    H273509   2.461   0.624   5.686  0.9014 -1.1531  2.1628
17340TIP3   OH273510   3.481   1.743  14.614 -0.1328 -0.4678 -0.1654
17340TIP3    H173511   3.438   1.760  14.698 -1.8387 -0.6953 -0.9655
17340TIP3    H273512   3.453   1.656  14.589 -0.3703 -0.0593 -1.3956
17341TIP3   OH273513   1.747   3.017  16.810  0.2714 -0.4861 -0.0167
17341TIP3    H173514   1.758   3.093  16.754  0.1872 -0.5065 -0.0602
17341TIP3    H273515   1.762   2.942  16.753  4.2605 -0.5256  0.7683
17342TIP3   OH273516   2.837   2.845  12.530  0.3886  0.2059  0.3084
17342TIP3    H173517   2.843   2.937  12.508  0.6044 -0.3567 -2.3525
17342TIP3    H273518   2.927   2.817  12.545  0.4355  0.2136  0.0465
17343TIP3   OH273519   2.441   1.765   3.111 -0.2105 -0.5311  0.1661
17343TIP3    H173520   2.372   1.812   3.063  0.4440  0.5919  0.2988
17343TIP3    H273521   2.516   1.824   3.108  0.5363 -1.4515  0.6154
17344TIP3   OH273522   0.045   6.401   6.104 -0.3812  0.2396 -0.7453
17344TIP3    H173523   0.051   6.312   6.139  0.0243  0.8584  0.8544
17344TIP3    H273524  -0.036   6.436   6.140  0.3143  1.0721  0.0733
17345TIP3   OH273525   5.266   0.485  13.396  0.2880 -0.0985  0.3513
17345TIP3    H173526   5.236   0.567  13.435 -0.5885 -0.7732  1.1568
17345TIP3    H273527   5.352   0.470  13.435  0.7319  0.7367 -0.2767
17346TIP3   OH273528   2.001   5.781  13.308 -0.7545 -0.2332 -0.1046
17346TIP3    H173529   1.905   5.784  13.299 -0.7275  2.1991 -0.0887
17346TIP3    H273530   2.025   5.867  13.341  1.4890 -0.7193 -0.3105
17347TIP3   OH273531   3.407   2.888   3.178  0.5927  0.4379 -0.4231
17347TIP3    H173532   3.448   2.809   3.214  0.5369  0.3034 -0.6524
17347TIP3    H273533   3.471   2.957   3.192  0.7329  0.3076 -0.4199
17348TIP3   OH273534   5.292   4.916   1.518 -0.3514  0.0701  0.4455
17348TIP3    H173535   5.246   4.944   1.439  0.7785  1.0469  0.1110
17348TIP3    H273536   5.259   4.827   1.535 -0.8906 -0.0001 -0.8900
17349TIP3   OH273537   5.489   4.671  11.730 -0.2198  0.1682  0.0595
17349TIP3    H173538   5.426   4.604  11.754  0.1352  0.5654  2.2721
17349TIP3    H273539   5.523   4.703  11.813 -0.0528  2.8016 -0.9402
17350TIP3   OH273540   3.684   0.174   0.388  0.1857  0.4745  0.2574
17350TIP3    H173541   3.724   0.227   0.319  0.7461  0.4588  0.5612
17350TIP3    H273542   3.753   0.111   0.412 -1.1543 -1.8748 -1.6219
17351TIP3   OH273543   2.322   6.482   5.854 -0.3870  0.3421  0.2196
17351TIP3    H173544   2.363   6.425   5.919  0.2820  0.1845 -0.3338
17351TIP3    H273545   2.390   6.497   5.788 -0.6346  1.5449  0.1990
17352TIP3   OH273546   0.658   2.458  12.687  0.1850 -0.7107 -0.4459
17352TIP3    H173547   0.725   2.403  12.646  0.7472  0.3452 -0.9971
17352TIP3    H273548   0.676   2.452  12.780  1.6533  0.2534 -0.6254
17353TIP3   OH273549   3.671   2.525   6.035 -0.5155 -0.1860  0.3739
17353TIP3    H173550   3.740   2.463   6.012  0.3124  0.1124  1.9448
17353TIP3    H273551   3.717   2.597   6.078 -1.2755  2.1419 -2.3453
17354TIP3   OH273552   4.992   0.237   2.724  0.3158  0.2967  0.5225
17354TIP3    H173553   5.002   0.331   2.707 -1.7202  0.3828 -0.6451
17354TIP3    H273554   5.018   0.226   2.815  1.0918  1.9025  0.5389
17355TIP3   OH273555   2.749   0.574  12.816  0.4728 -0.9623  0.7750
17355TIP3    H173556   2.724   0.603  12.728  0.6306 -2.4008  0.2394
17355TIP3    H273557   2.672   0.594  12.869  1.4852  2.9354  1.0977
17356TIP3   OH273558   5.095   5.115   1.014  0.7260  0.2130  0.0756
17356TIP3    H173559   5.183   5.150   1.026 -0.1213  2.3095  0.6206
17356TIP3    H273560   5.050   5.180   0.960 -0.9499  0.0319  1.1636
17357TIP3   OH273561   5.769   6.061   6.401 -0.2595  0.0103  0.5017
17357TIP3    H173562   5.715   5.982   6.407  0.7445 -0.7191  0.0857
17357TIP3    H273563   5.712   6.125   6.358 -1.4020 -0.1770  1.6779
17358TIP3   OH273564   2.057   6.022   3.196 -0.4714 -0.1616 -0.0513
17358TIP3    H173565   2.010   5.941   3.217  0.4505 -0.1815  2.2806
17358TIP3    H273566   1.998   6.092   3.225  0.3380 -0.1602  1.7535
17359TIP3   OH273567   3.539   1.119   3.699  0.4202  0.0923 -0.0197
17359TIP3    H173568   3.563   1.082   3.614  2.5195 -0.3604  0.7054
17359TIP3    H273569   3.454   1.079   3.719  0.0895 -0.1238 -1.6769
17360TIP3   OH273570   4.218   5.603  13.999 -0.0225 -0.0343 -0.1581
17360TIP3    H173571   4.152   5.549  14.042 -0.0472  0.5206  0.5077
17360TIP3    H273572   4.174   5.638  13.922 -0.2404 -0.3429 -0.1757
17361TIP3   OH273573   3.827   1.487   1.539 -0.3655  0.6327  0.5077
17361TIP3    H173574   3.912   1.462   1.500 -0.4415 -3.2629  2.4250
17361TIP3    H273575   3.850   1.532   1.620 -0.0663 -0.4280  1.0304
17362TIP3   OH273576   1.723   6.741  12.359 -0.0257 -0.0138 -0.0292
17362TIP3    H173577   1.655   6.765  12.422  0.8692 -1.0039  1.3715
17362TIP3    H273578   1.736   6.820  12.307 -0.5099  0.9759  1.2961
17363TIP3   OH273579   3.895   4.782   4.035  0.1286 -0.1420 -0.3755
17363TIP3    H173580   3.888   4.834   3.955  0.9898  0.0400 -0.3406
17363TIP3    H273581   3.809   4.740   4.044 -0.6784  1.4435 -0.2676
17364TIP3   OH273582   2.566   0.759  11.758  0.2132  0.1453 -0.4242
17364TIP3    H173583   2.509   0.775  11.834 -0.3755 -1.9844 -0.3513
17364TIP3    H273584   2.507   0.726  11.691  1.2865 -1.8250 -0.4537
17365TIP3   OH273585   5.563   6.594  13.158 -0.4591 -0.4837  0.4047
17365TIP3    H173586   5.641   6.578  13.211 -0.3942 -1.2538  0.0940
17365TIP3    H273587   5.527   6.507  13.141 -0.4655 -0.2684 -0.8254
17366TIP3   OH273588   4.990   4.577  12.659  0.0000  0.1177  0.3920
17366TIP3    H173589   4.999   4.555  12.566  2.0054 -0.6531  0.7024
17366TIP3    H273590   4.942   4.503  12.697 -2.4021  1.2664 -0.2853
17367TIP3   OH273591   3.683   5.701   3.281  0.4052  0.7842  0.2608
17367TIP3    H173592   3.590   5.713   3.302  0.7897  1.0068  1.9456
17367TIP3    H273593   3.690   5.730   3.190 -1.0207  1.5577  0.3594
17368TIP3   OH273594   0.058   1.871  13.697 -0.4141  0.8757  0.3768
17368TIP3    H173595   0.026   1.859  13.786  0.8237  1.5692  0.9320
17368TIP3    H273596   0.050   1.785  13.657  1.0748 -0.0101  1.8623
17369TIP3   OH273597   6.721   4.106   5.675 -0.7416  0.8997  0.5215
17369TIP3    H173598   6.656   4.173   5.653 -1.7180  0.3853  1.7211
17369TIP3    H273599   6.689   4.067   5.756  0.4076 -0.2601  0.4542
17370TIP3   OH273600   0.783   3.109  16.401  0.0248  0.0250  0.2361
17370TIP3    H173601   0.801   3.032  16.347 -0.4535  0.8423 -1.1363
17370TIP3    H273602   0.804   3.184  16.345 -0.8512  0.9126  1.0443
17371TIP3   OH273603   3.777   0.375   0.553 -0.3774  0.2533 -0.0946
17371TIP3    H173604   3.723   0.319   0.496  0.6242 -0.9304  0.0682
17371TIP3    H273605   3.776   0.329   0.638  0.6576  0.3519 -0.0222
17372TIP3   OH273606   5.415   4.447   3.108  0.3166  0.0182  0.1833
17372TIP3    H173607   5.325   4.480   3.111  0.6512  0.8962  1.8041
17372TIP3    H273608   5.470   4.526   3.103  1.0108 -0.5341 -1.9813
17373TIP3   OH273609   2.142   6.819  14.685  0.1073  0.1685 -0.0590
17373TIP3    H173610   2.216   6.781  14.732 -0.2905  0.0116  0.4449
17373TIP3    H273611   2.181   6.864  14.610  1.0136  2.5714  1.7435
17374TIP3   OH273612   4.262   1.209  15.562 -0.3031 -0.4015  0.5523
17374TIP3    H173613   4.355   1.218  15.583 -0.1571 -0.7521  0.0923
17374TIP3    H273614   4.246   1.115  15.565 -0.1162 -0.5461 -1.4559
17375TIP3   OH273615   0.036   6.748  11.483  0.4212  0.4460  0.1527
17375TIP3    H173616   0.075   6.681  11.427  1.8324  1.1436  0.2420
17375TIP3    H273617  -0.058   6.735  11.475  0.6095 -0.0504 -1.6659
17376TIP3   OH273618   0.739   6.712   4.210 -0.6582 -0.7285  0.4007
17376TIP3    H173619   0.683   6.673   4.276 -1.3383  1.2424  1.0708
17376TIP3    H273620   0.697   6.691   4.127 -1.9877  0.0240  0.8496
17377TIP3   OH273621   0.209   6.690  15.307  0.2468  0.0714 -0.2206
17377TIP3    H173622   0.136   6.751  15.297  1.0787  1.3015  0.9131
17377TIP3    H273623   0.196   6.651  15.393  0.7600  0.0776 -0.1357
17378TIP3   OH273624   3.464   4.741  15.743  0.1341  0.2372  0.8621
17378TIP3    H173625   3.557   4.765  15.753  0.4651 -1.4354  2.1521
17378TIP3    H273626   3.451   4.738  15.648  2.1190 -1.9833  0.5734
17379TIP3   OH273627   2.330   4.140   4.656  0.0640 -0.1457 -0.2150
17379TIP3    H173628   2.319   4.122   4.562 -0.9234  0.4407 -0.2180
17379TIP3    H273629   2.356   4.232   4.660  1.6944 -0.5826  0.0098
17380TIP3   OH273630   6.331   5.652   2.976 -0.1173  0.6700 -0.4180
17380TIP3    H173631   6.341   5.586   3.045 -1.2998  0.0652 -0.8007
17380TIP3    H273632   6.256   5.623   2.925 -0.5615  2.2235 -0.7058
17381TIP3   OH273633   1.579   3.532  14.131  0.0125  0.4197  0.0555
17381TIP3    H173634   1.487   3.555  14.146 -0.2080  0.4660 -1.2562
17381TIP3    H273635   1.587   3.442  14.162 -0.4998  0.3783  0.0751
17382TIP3   OH273636   0.548   0.223   2.422 -0.1034  0.1475 -0.1579
17382TIP3    H173637   0.613   0.174   2.472 -0.0668  1.5133  1.2023
17382TIP3    H273638   0.597   0.256   2.346  0.6003  0.4575  0.4153
17383TIP3   OH273639   5.553   3.755   4.187 -0.1008 -0.8812  0.1246
17383TIP3    H173640   5.626   3.724   4.241 -1.4758 -0.9443  2.0133
17383TIP3    H273641   5.535   3.844   4.219  1.0692  0.3848 -2.4115
17384TIP3   OH273642   5.171   6.410  16.215 -0.5040 -0.1858 -1.0109
17384TIP3    H173643   5.256   6.446  16.238 -0.4488 -1.3181  0.7165
17384TIP3    H273644   5.122   6.484  16.180  0.4784  0.9566 -0.0510
17385TIP3   OH273645   4.419   0.776  15.996 -0.1507  0.3268  0.1340
17385TIP3    H173646   4.443   0.742  15.909 -1.1236  1.6120 -0.6664
17385TIP3    H273647   4.342   0.829  15.981  0.1015  1.1966  1.6844
17386TIP3   OH273648   1.500   2.916   2.438  0.1375 -0.4263  0.2703
17386TIP3    H173649   1.472   2.875   2.357 -0.2289 -1.3715  0.8544
17386TIP3    H273650   1.503   2.844   2.502  0.6783  0.2421  1.0291
17387TIP3   OH273651   5.202   5.747  15.952  0.1671  0.6454  0.2589
17387TIP3    H173652   5.170   5.674  16.006 -1.0741  2.4793  2.1915
17387TIP3    H273653   5.150   5.742  15.872 -0.1226 -0.4025  0.5023
17388TIP3   OH273654   2.514   5.795  16.925  0.1559 -0.2732 -0.4522
17388TIP3    H173655   2.566   5.837  16.857  0.5009  0.0919  0.0308
17388TIP3    H273656   2.434   5.768  16.880  0.1722  0.3871 -0.8986
17389TIP3   OH273657   1.299   0.563   3.521  0.4032 -0.2846  0.1150
17389TIP3    H173658   1.374   0.531   3.572  1.6679  1.4709 -0.5470
17389TIP3    H273659   1.302   0.658   3.531 -2.4476 -0.1719  0.9760
17390TIP3   OH273660   6.815   1.614  13.109  0.6615 -0.0702 -0.0332
17390TIP3    H173661   6.797   1.614  13.015  0.8119  0.5892 -0.0642
17390TIP3    H273662   6.907   1.637  13.116  0.2835  1.4063  0.3352
17391TIP3   OH273663   6.802   2.622   3.380 -0.4408 -0.6885 -0.1946
17391TIP3    H173664   6.896   2.634   3.366 -0.7007  0.3080 -1.1805
17391TIP3    H273665   6.787   2.529   3.365  0.3854 -0.8646  0.0296
17392TIP3   OH273666   0.903   4.673  14.177  0.2384 -0.3493  0.1717
17392TIP3    H173667   0.875   4.607  14.115 -1.3265 -0.0524  0.5332
17392TIP3    H273668   0.946   4.740  14.124  1.4879 -1.4306 -0.2362
17393TIP3   OH273669   6.388   3.660   3.932 -0.2509 -0.2566  0.4266
17393TIP3    H173670   6.476   3.624   3.940 -0.3390 -1.0021 -1.4488
17393TIP3    H273671   6.401   3.751   3.905 -0.0613 -0.1941  0.7258
17394TIP3   OH273672   5.535   4.286   3.516 -0.2640  0.7888  0.3210
17394TIP3    H173673   5.451   4.241   3.499 -0.0216  0.6479 -0.5467
17394TIP3    H273674   5.510   4.374   3.543 -0.7895 -0.0502  2.9021
17395TIP3   OH273675   2.977   3.798   5.533  0.2141 -0.2118 -0.6498
17395TIP3    H173676   2.986   3.843   5.616  0.2933 -1.1054 -0.1578
17395TIP3    H273677   2.885   3.809   5.509 -0.4017 -1.8432  0.7128
17396TIP3   OH273678   3.261   3.047   0.011 -0.1125  0.6461 -0.3265
17396TIP3    H173679   3.178   2.999   0.010 -0.0256  0.2019  3.0572
17396TIP3    H273680   3.263   3.092  -0.073 -3.8193  0.7166 -0.5509
17397TIP3   OH273681   4.191   3.961   4.016  0.6793 -0.2318  0.7052
17397TIP3    H173682   4.158   3.890   4.072 -0.0077  0.6362  1.4423
17397TIP3    H273683   4.215   3.918   3.934  0.3131 -1.3195  1.1477
17398TIP3   OH273684   3.392   1.537  11.608  0.4745 -0.3432 -0.1832
17398TIP3    H173685   3.472   1.498  11.574  0.4096 -2.2100  1.5548
17398TIP3    H273686   3.421   1.613  11.658  0.6273  1.9577 -3.4425
17399TIP3   OH273687   4.233   6.506   4.263  0.7075  0.6057 -0.0235
17399TIP3    H173688   4.294   6.482   4.332  2.8057  0.0152 -1.9393
17399TIP3    H273689   4.251   6.598   4.245  1.0477  0.4358 -0.5834
17400TIP3   OH273690   4.476   5.150   5.042  0.3286  0.4687  0.4443
17400TIP3    H173691   4.505   5.241   5.036  1.0775  0.2395  0.4800
17400TIP3    H273692   4.385   5.152   5.012  0.6068  1.0825 -0.3947
17401TIP3   OH273693   4.516   2.167  12.729  0.0171 -0.2028 -0.0132
17401TIP3    H173694   4.442   2.228  12.730  0.8473  0.8435  0.6148
17401TIP3    H273695   4.488   2.096  12.672 -0.8306  0.9679 -1.1087
17402TIP3   OH273696   2.710   5.205  17.128  0.3744 -0.4715  0.2316
17402TIP3    H173697   2.724   5.264  17.054 -1.0250 -1.7876 -1.1639
17402TIP3    H273698   2.781   5.225  17.188  1.3897  0.8771 -1.3143
17403TIP3   OH273699   1.975   3.968   3.074  0.2801 -0.0245 -0.1995
17403TIP3    H173700   2.025   3.886   3.081 -0.3295 -0.5117 -1.3297
17403TIP3    H273701   2.029   4.024   3.019  1.7833  1.2389  2.3608
17404TIP3   OH273702   0.936   0.564  10.721  0.5815  0.2933  0.0941
17404TIP3    H173703   0.958   0.474  10.742  2.3445  0.4706 -0.8206
17404TIP3    H273704   0.881   0.559  10.643 -0.8208 -0.0383  1.0594
17405TIP3   OH273705   1.755   3.795   0.235  0.0072 -0.4139  0.4401
17405TIP3    H173706   1.687   3.743   0.278  0.3855  0.7304  2.5627
17405TIP3    H273707   1.709   3.871   0.200 -0.0249 -0.4121  0.4861
17406TIP3   OH273708   4.239   1.044   3.133 -0.8148 -0.0992  0.1381
17406TIP3    H173709   4.173   1.095   3.086  0.1021  0.2697 -0.8000
17406TIP3    H273710   4.249   0.965   3.081  0.8497  0.7055 -0.8328
17407TIP3   OH273711   0.868   2.382  15.759 -0.6555  0.4214  0.1456
17407TIP3    H173712   0.818   2.322  15.703 -0.5083 -0.7461  1.2266
17407TIP3    H273713   0.946   2.403  15.708 -0.4734 -0.7003 -0.0574
17408TIP3   OH273714   1.595   2.406   3.602  0.9574 -0.4385  0.1832
17408TIP3    H173715   1.536   2.428   3.674 -0.0994 -0.8234 -0.5480
17408TIP3    H273716   1.643   2.487   3.585 -0.8032  0.5058 -0.5472
17409TIP3   OH273717   4.421   4.766   3.968  0.0761  0.0892 -0.4942
17409TIP3    H173718   4.332   4.745   3.995 -0.1944  1.2738 -0.4323
17409TIP3    H273719   4.470   4.684   3.981 -0.9121 -0.4634 -0.1842
17410TIP3   OH273720   3.157   4.137   0.040 -0.2525  0.0745 -0.1435
17410TIP3    H173721   3.102   4.119  -0.037 -2.7458  0.5789  1.3859
17410TIP3    H273722   3.158   4.233   0.046 -0.1016  0.0390  0.4638
17411TIP3   OH273723   1.697   6.577   3.441 -0.0627 -0.1568 -0.1674
17411TIP3    H173724   1.683   6.614   3.528 -0.6251 -0.9694  0.1015
17411TIP3    H273725   1.732   6.649   3.390  2.4670 -0.2289  1.2986
17412TIP3   OH273726   6.141   1.759  13.225  0.1099 -0.3580 -0.0841
17412TIP3    H173727   6.236   1.762  13.209 -0.0106 -0.7340 -0.9338
17412TIP3    H273728   6.131   1.790  13.315  0.9001  1.1689 -0.4877
17413TIP3   OH273729   3.396   1.064  13.760 -0.0903 -0.1880 -0.1983
17413TIP3    H173730   3.388   1.064  13.855  0.0345  0.1385 -0.1866
17413TIP3    H273731   3.305   1.061  13.729 -0.1181 -0.7800 -0.0739
17414TIP3   OH273732   5.548   4.972  15.043 -0.1615  0.2068 -0.4359
17414TIP3    H173733   5.642   4.978  15.024 -0.1480 -2.4309 -1.6055
17414TIP3    H273734   5.543   4.977  15.138  0.7291  3.8591 -0.4161
17415TIP3   OH273735   6.811   3.601  10.683  0.0669 -0.3320  0.0056
17415TIP3    H173736   6.735   3.560  10.643  0.9442  0.9367 -3.2403
17415TIP3    H273737   6.802   3.694  10.663  3.1702 -0.3077 -1.9524
17416TIP3   OH273738   3.212   3.360   0.026 -0.3265  0.1524  0.5713
17416TIP3    H173739   3.230   3.271   0.057  1.5386  0.3514  0.1799
17416TIP3    H273740   3.295   3.389  -0.014 -1.3115  1.5472 -0.5690
17417TIP3   OH273741   2.865   5.767   0.565  0.4241 -0.0040 -0.1285
17417TIP3    H173742   2.804   5.695   0.545  0.3416 -0.3200  1.2007
17417TIP3    H273743   2.949   5.723   0.578  0.3425  0.1107  0.8374
17418TIP3   OH273744   3.990   1.363   3.867 -0.0163 -0.1875 -0.5611
17418TIP3    H173745   4.082   1.380   3.888 -0.6075  0.7799  1.5071
17418TIP3    H273746   3.986   1.367   3.771  1.5155  3.2966 -0.6392
17419TIP3   OH273747   0.812   2.607  12.871  0.3886  0.3201 -0.2195
17419TIP3    H173748   0.892   2.633  12.918 -0.2838  0.5994  0.8137
17419TIP3    H273749   0.744   2.665  12.907 -1.0240 -2.3010  1.6419
17420TIP3   OH273750   4.612   6.711  15.334  0.0318 -0.1320  0.1397
17420TIP3    H173751   4.691   6.764  15.340 -0.1793  0.1118  0.9127
17420TIP3    H273752   4.541   6.774  15.327 -0.2279 -0.2859  1.1688
17421TIP3   OH273753   0.310   1.705  12.339 -0.6390  0.2577  0.6265
17421TIP3    H173754   0.326   1.614  12.313 -1.3532  0.1710  0.4923
17421TIP3    H273755   0.310   1.754  12.257 -0.2849  0.3839  0.6960
17422TIP3   OH273756   5.938   3.723  16.682 -0.1636 -0.5551  0.2112
17422TIP3    H173757   5.969   3.710  16.592  2.0893 -0.4332  0.8937
17422TIP3    H273758   6.018   3.739  16.733 -1.4177 -0.0220  2.1482
17423TIP3   OH273759   4.518   1.184   6.425 -0.3136 -0.4773 -0.1694
17423TIP3    H173760   4.441   1.129   6.434 -0.8323  0.1501 -0.6590
17423TIP3    H273761   4.551   1.195   6.514 -1.0006 -0.4505  0.0824
17424TIP3   OH273762   0.889   5.499  12.503 -0.4310  0.4132 -0.3164
17424TIP3    H173763   0.944   5.560  12.553 -0.2702  0.5933 -0.7036
17424TIP3    H273764   0.840   5.556  12.443 -1.1833  0.2689  0.1643
17425TIP3   OH273765   5.420   2.294  12.887 -0.1757  0.3679 -0.1809
17425TIP3    H173766   5.391   2.212  12.847 -1.8346  0.2516  1.1495
17425TIP3    H273767   5.512   2.303  12.859  0.8380 -3.1412  1.3999
17426TIP3   OH273768   4.985   2.636   0.554 -0.3473  0.2072 -0.1051
17426TIP3    H173769   5.014   2.596   0.636  1.0579  0.0171 -0.6802
17426TIP3    H273770   4.897   2.601   0.541 -0.5988  0.2369  1.3113
17427TIP3   OH273771   1.501   2.084  15.577 -0.4213 -0.5175  0.3455
17427TIP3    H173772   1.590   2.055  15.594 -0.4847 -1.0007 -0.1381
17427TIP3    H273773   1.469   2.115  15.662  0.0772 -0.6811  0.5933
17428TIP3   OH273774   4.011   6.272  14.474 -0.0521 -0.6228 -0.1839
17428TIP3    H173775   3.944   6.306  14.534  1.1405  2.9279 -0.6452
17428TIP3    H273776   3.972   6.283  14.387  0.4304 -0.1932 -0.3509
17429TIP3   OH273777   3.459   2.850   6.419 -0.1077 -0.0824  0.2224
17429TIP3    H173778   3.404   2.916   6.377 -1.4851 -1.0259  0.4989
17429TIP3    H273779   3.448   2.772   6.365  1.1566 -0.2392  0.1576
17430TIP3   OH273780   4.985   3.456  12.392 -0.1607 -0.5052 -0.1208
17430TIP3    H173781   4.997   3.384  12.453  1.7412  0.5347  0.8129
17430TIP3    H273782   4.921   3.514  12.435  1.3190  0.3247  1.0577
17431TIP3   OH273783   0.637   6.533  12.833  0.2450  0.4251  0.4114
17431TIP3    H173784   0.693   6.602  12.870 -0.4081  1.3770 -0.3462
17431TIP3    H273785   0.567   6.523  12.897  0.2117  0.6219  0.4047
17432TIP3   OH273786   5.699   2.753  16.686 -0.0886 -0.3544 -0.3744
17432TIP3    H173787   5.685   2.663  16.714 -0.8994  0.2326  1.2645
17432TIP3    H273788   5.733   2.797  16.763 -1.2530  1.0923 -0.6341
17433TIP3   OH273789   1.142   5.569   4.963 -0.1971 -0.4503  0.2885
17433TIP3    H173790   1.122   5.637   4.898 -2.8321 -1.0122  0.3961
17433TIP3    H273791   1.196   5.506   4.915  0.0087  0.3740 -0.6020
17434TIP3   OH273792   0.957   5.475   4.473 -0.1835  0.3738  0.1415
17434TIP3    H173793   0.939   5.565   4.446 -0.1666  0.8295  1.5315
17434TIP3    H273794   0.896   5.459   4.545 -0.2393 -0.7653 -0.1385
17435TIP3   OH273795   2.767   6.588   4.753 -0.1916  0.6637 -0.4731
17435TIP3    H173796   2.721   6.513   4.715  1.9506 -0.8172 -0.3196
17435TIP3    H273797   2.745   6.585   4.846  1.0207 -0.7275 -0.1927
17436TIP3   OH273798   6.331   2.231   3.566  0.7597 -0.4221  0.2125
17436TIP3    H173799   6.387   2.303   3.597 -0.3478  0.7985 -0.4893
17436TIP3    H273800   6.257   2.275   3.525 -0.4367 -1.9860  0.5867
17437TIP3   OH273801   2.393   4.053   0.613 -0.4845 -0.0684  0.5917
17437TIP3    H173802   2.369   3.978   0.668  0.3326 -0.4287  0.4649
17437TIP3    H273803   2.393   4.128   0.673  0.0888 -0.4050  1.0173
17438TIP3   OH273804   0.865   6.722   4.583 -0.0774  0.6060  0.0188
17438TIP3    H173805   0.933   6.731   4.650  0.8270  0.2320 -0.8168
17438TIP3    H273806   0.893   6.781   4.513  1.1333 -1.7930 -1.6846
17439TIP3   OH273807   4.370   0.321   2.219 -0.0381  0.9334 -0.1358
17439TIP3    H173808   4.464   0.339   2.220 -0.3269  2.9186 -1.3749
17439TIP3    H273809   4.330   0.403   2.250 -1.3912  0.8927 -1.6324
17440TIP3   OH273810   1.647   1.718  14.786 -0.1101  0.5254  0.0187
17440TIP3    H173811   1.637   1.662  14.709  1.7297 -0.1886  0.2408
17440TIP3    H273812   1.695   1.664  14.849  0.2128  1.7753  0.8817
17441TIP3   OH273813   3.672   5.784  14.000  0.8373 -0.1014  0.2305
17441TIP3    H173814   3.703   5.853  13.941 -1.2454 -0.0323 -0.9052
17441TIP3    H273815   3.695   5.702  13.957  1.1095 -0.0839  0.3409
17442TIP3   OH273816   6.701   3.955   1.762 -0.3214 -0.2923  0.1287
17442TIP3    H173817   6.621   3.903   1.756 -0.2503 -0.6467  1.7482
17442TIP3    H273818   6.702   4.007   1.682 -0.7269 -2.3035 -1.2436
17443TIP3   OH273819   2.250   4.969   5.370 -0.4148 -0.7426 -0.3184
17443TIP3    H173820   2.247   5.064   5.358  1.5211 -0.8714 -2.4588
17443TIP3    H273821   2.165   4.947   5.410 -0.6174  1.9281  0.9580
17444TIP3   OH273822   3.576   6.674   2.627 -0.5200 -0.0862 -0.4346
17444TIP3    H173823   3.608   6.763   2.638 -1.3101  0.2543 -0.8371
17444TIP3    H273824   3.603   6.650   2.538  1.7596 -1.1341  0.4450
17445TIP3   OH273825   4.076   0.086  12.223 -0.1445  0.0970  0.0419
17445TIP3    H173826   4.022   0.142  12.277 -1.3388 -0.7284 -0.2495
17445TIP3    H273827   4.134   0.041  12.285 -2.0817 -1.4932  0.8129
17446TIP3   OH273828   4.432   5.670   3.442 -0.1081 -0.2158  0.3519
17446TIP3    H173829   4.368   5.734   3.473 -0.0595  0.2674 -0.5196
17446TIP3    H273830   4.490   5.656   3.517 -1.1022 -0.5111  1.0834
17447TIP3   OH273831   0.968   0.003   2.564  0.3489 -0.2128 -0.0481
17447TIP3    H173832   0.976   0.033   2.474 -1.3024 -0.7620 -0.4143
17447TIP3    H273833   1.051   0.029   2.606  1.6768 -1.0437 -2.0062
17448TIP3   OH273834   2.902   1.753  13.206 -0.2894  0.2288 -0.5236
17448TIP3    H173835   2.867   1.821  13.149  0.1556 -1.2480 -2.6472
17448TIP3    H273836   2.826   1.702  13.233 -0.4030  0.4539 -0.4108
17449TIP3   OH273837   3.630   6.381   2.570  0.2607 -0.1637  0.5787
17449TIP3    H173838   3.681   6.454   2.536 -0.7691  0.7738  0.9873
17449TIP3    H273839   3.693   6.310   2.579  1.4385  0.8865  0.8496
17450TIP3   OH273840   4.139   2.803  13.436  0.1561  0.8712  0.3492
17450TIP3    H173841   4.118   2.711  13.422 -0.3092  1.3397 -2.8352
17450TIP3    H273842   4.205   2.803  13.505  0.7338 -1.9144 -0.0853
17451TIP3   OH273843   2.602   6.203  11.884 -0.1937 -0.2384  0.0519
17451TIP3    H173844   2.676   6.237  11.933 -1.0745  1.1025  0.5201
17451TIP3    H273845   2.549   6.156  11.948 -0.2118 -0.3940 -0.0764
17452TIP3   OH273846   3.631   1.653   1.995  0.5787 -0.1684 -0.2888
17452TIP3    H173847   3.602   1.583   1.937  1.3979 -0.9202  0.1872
17452TIP3    H273848   3.712   1.620   2.035 -0.3098  0.0322  1.7960
17453TIP3   OH273849   2.414   5.297   1.429 -0.3486  0.6568 -0.0519
17453TIP3    H173850   2.377   5.294   1.341  0.5702 -2.8616 -0.4889
17453TIP3    H273851   2.342   5.275   1.487  0.1466 -3.0617 -0.6163
17454TIP3   OH273852   2.235   5.995  12.887 -0.0971 -0.2233 -0.0875
17454TIP3    H173853   2.203   5.904  12.885  0.6399 -0.4953  0.0874
17454TIP3    H273854   2.167   6.043  12.935 -1.1702 -0.3977 -1.3744
17455TIP3   OH273855   2.401   6.454  14.874 -0.7454 -0.9652  0.0779
17455TIP3    H173856   2.452   6.450  14.955 -0.7570  0.5118  0.1836
17455TIP3    H273857   2.382   6.362  14.853  3.2793 -1.7998 -0.8371
17456TIP3   OH273858   4.498   3.131   2.797  0.2668 -0.1204 -0.3818
17456TIP3    H173859   4.577   3.169   2.837  0.3375 -0.4794 -0.1777
17456TIP3    H273860   4.505   3.154   2.704  0.1845  0.5823 -0.2203
17457TIP3   OH273861   1.858   5.145  13.131 -0.1961  0.3737  0.3829
17457TIP3    H173862   1.913   5.137  13.209  2.8549 -0.5439 -1.6561
17457TIP3    H273863   1.874   5.234  13.100  1.0662 -0.2223 -0.7757
17458TIP3   OH273864   5.932   2.565  16.746  0.0351  0.2089  0.1607
17458TIP3    H173865   6.008   2.512  16.768 -0.0351 -0.3751 -0.9243
17458TIP3    H273866   5.857   2.517  16.781  0.0763  0.2186  0.2604
17459TIP3   OH273867   1.437   5.076   1.737  0.5329 -0.1740  0.0809
17459TIP3    H173868   1.361   5.029   1.770  0.1064 -0.6771 -1.5280
17459TIP3    H273869   1.456   5.142   1.804 -3.0729  1.9171 -0.6563
17460TIP3   OH273870   2.698   3.546   3.881  0.1064 -0.0998  0.0471
17460TIP3    H173871   2.708   3.498   3.963  0.3117  0.4741  0.3582
17460TIP3    H273872   2.666   3.632   3.906 -0.1551 -0.0299 -0.5030
17461TIP3   OH273873   6.357   1.929   4.874  0.5384  0.6290  0.0746
17461TIP3    H173874   6.344   1.838   4.901 -1.6221  0.5862 -0.9011
17461TIP3    H273875   6.366   1.977   4.957  0.4809 -0.3226  0.6480
17462TIP3   OH273876   5.061   1.747   0.251 -0.1684  0.1266  0.2437
17462TIP3    H173877   5.018   1.675   0.298  0.8623  0.5196  1.8573
17462TIP3    H273878   4.990   1.808   0.231 -0.8658 -0.7766 -0.1033
17463TIP3   OH273879   4.776   3.753  16.440 -0.0325  0.5537 -0.2169
17463TIP3    H173880   4.745   3.752  16.349  1.5334 -1.2651 -0.7897
17463TIP3    H273881   4.819   3.838  16.449 -0.2113  0.7607 -1.1761
17464TIP3   OH273882   6.281   1.753  11.322 -0.1741 -0.2897  0.3240
17464TIP3    H173883   6.198   1.796  11.343 -0.0738  0.6648 -1.0441
17464TIP3    H273884   6.315   1.803  11.247 -0.1067 -2.8233 -1.4725
17465TIP3   OH273885   6.294   4.265   1.131  0.0921 -0.5250 -0.4602
17465TIP3    H173886   6.351   4.332   1.170  1.8804 -1.0223 -2.0899
17465TIP3    H273887   6.338   4.182   1.151 -0.6584 -1.0062 -0.7865
17466TIP3   OH273888   5.135   0.542  14.251  0.1524  0.4725  0.7430
17466TIP3    H173889   5.047   0.506  14.266  0.2734 -1.2738 -1.9599
17466TIP3    H273890   5.121   0.614  14.190  0.5688  0.3052  0.4467
17467TIP3   OH273891   5.496   5.996  16.208 -0.1207  0.0864  0.1515
17467TIP3    H173892   5.558   5.974  16.139 -1.3890 -1.8605 -0.4537
17467TIP3    H273893   5.513   5.932  16.277 -1.7410 -0.8169 -0.2385
17468TIP3   OH273894   1.223   2.561  11.692 -0.0372 -0.4055 -0.2518
17468TIP3    H173895   1.204   2.479  11.645  1.2828 -1.3536  0.7925
17468TIP3    H273896   1.287   2.606  11.637  0.4569 -0.8566 -0.0576
17469TIP3   OH273897   1.311   2.207  13.020  0.3474 -0.9269  0.4520
17469TIP3    H173898   1.318   2.299  13.046 -1.3354  0.3358 -2.9959
17469TIP3    H273899   1.227   2.178  13.056  0.2292 -0.6713  0.3856
17470TIP3   OH273900   5.228   1.902   2.806  0.3289 -0.0594 -0.0904
17470TIP3    H173901   5.256   1.975   2.752 -0.0480  0.1728  0.0226
17470TIP3    H273902   5.205   1.833   2.743  1.7610 -0.5003 -0.1738
17471TIP3   OH273903   4.457   3.201   5.085 -0.2883  0.1771 -0.6385
17471TIP3    H173904   4.495   3.282   5.117  0.4083 -0.7395  0.9932
17471TIP3    H273905   4.363   3.210   5.102 -0.0984  0.2855  0.4342
17472TIP3   OH273906   6.716   2.676  10.557  0.0671  0.1226  0.0520
17472TIP3    H173907   6.767   2.752  10.586  0.5807 -0.1900 -0.0115
17472TIP3    H273908   6.782   2.607  10.545 -0.2329  0.0230 -1.1028
17473TIP3   OH273909   6.329   5.842  11.469  0.0452  0.4110  0.0911
17473TIP3    H173910   6.247   5.890  11.452 -0.1752 -0.3266 -1.0694
17473TIP3    H273911   6.303   5.772  11.529  0.2048  1.2261  1.1437
17474TIP3   OH273912   0.649   3.682  15.796  0.2772 -0.6191 -0.1048
17474TIP3    H173913   0.611   3.740  15.729 -1.1931 -0.0166  1.1929
17474TIP3    H273914   0.575   3.658  15.851  1.0631 -2.8735  0.0462
17475TIP3   OH273915   0.174   5.208  14.044 -0.5892 -0.0438 -0.4723
17475TIP3    H173916   0.165   5.139  14.110  1.2994  0.2271  0.1574
17475TIP3    H273917   0.131   5.284  14.083 -0.6368 -0.2509 -0.1171
17476TIP3   OH273918   4.961   1.142  15.018  0.2349 -0.3744  0.4249
17476TIP3    H173919   4.914   1.131  14.935 -0.2645  1.7411  0.3550
17476TIP3    H273920   4.893   1.169  15.080  0.8912 -0.1640  1.0562
17477TIP3   OH273921   3.353   3.595   0.342 -0.1383  0.6558  0.6713
17477TIP3    H173922   3.398   3.518   0.377 -0.3179  1.2205  2.2655
17477TIP3    H273923   3.424   3.654   0.317 -0.0016  0.2029 -0.0302
17478TIP3   OH273924   4.905   5.337  17.031  0.3555  0.4571 -0.1534
17478TIP3    H173925   4.881   5.427  17.010  2.5206  1.3621  0.9606
17478TIP3    H273926   4.991   5.325  16.990  0.3282 -0.9261  0.1530
17479TIP3   OH273927   3.764   2.604  16.673  0.0391 -0.2420  0.2170
17479TIP3    H173928   3.748   2.522  16.625  1.7171 -0.4518 -0.0690
17479TIP3    H273929   3.850   2.591  16.713  1.2368  2.0764 -1.3912
17480TIP3   OH273930   5.365   6.021  15.080  0.1818 -0.0720  0.7800
17480TIP3    H173931   5.347   6.065  14.997 -0.9034  3.7288  2.7564
17480TIP3    H273932   5.459   6.032  15.093 -0.0348  1.6405  1.1283
17481TIP3   OH273933   2.200   1.838   6.155 -0.4225  0.1196  0.1326
17481TIP3    H173934   2.159   1.771   6.101 -1.7634 -0.0720  1.3558
17481TIP3    H273935   2.148   1.841   6.235  0.5667  1.5102  0.7709
17482TIP3   OH273936   4.757   5.751   3.698 -0.1899  0.3422 -0.0844
17482TIP3    H173937   4.790   5.693   3.628 -2.6769  1.8837 -2.7622
17482TIP3    H273938   4.718   5.691   3.761 -0.5313 -1.0696 -1.5446
17483TIP3   OH273939   1.614   4.870  16.334  0.5743 -0.0747 -0.3018
17483TIP3    H173940   1.611   4.903  16.423  1.7768 -0.4196 -0.1229
17483TIP3    H273941   1.524   4.877  16.303 -0.3718 -2.0865  1.7102
17484TIP3   OH273942   2.711   6.013   3.859  0.6638  0.1672  0.1309
17484TIP3    H173943   2.673   6.092   3.895 -2.8150 -0.3654 -1.9158
17484TIP3    H273944   2.734   6.036   3.769 -3.0314 -1.6205 -1.4713
17485TIP3   OH273945   5.088   4.205  16.163 -0.2249  0.0453  0.4967
17485TIP3    H173946   5.139   4.270  16.210  1.8173 -1.4899  0.5626
17485TIP3    H273947   5.150   4.168  16.099 -1.1884 -1.9915  0.6604
17486TIP3   OH273948   4.582   0.053  16.137  0.3530  0.3457 -0.4060
17486TIP3    H173949   4.538   0.137  16.151  0.2083  0.6303 -2.3670
17486TIP3    H273950   4.636   0.067  16.059  0.5433 -1.3025 -0.6062
17487TIP3   OH273951   0.193   5.237  17.083  0.1939 -0.3680 -0.2629
17487TIP3    H173952   0.218   5.164  17.027  0.1258 -0.0618 -0.7038
17487TIP3    H273953   0.270   5.255  17.136  0.6032 -0.0106 -0.9728
17488TIP3   OH273954   5.856   5.441   1.033 -0.3679 -0.3100  0.3445
17488TIP3    H173955   5.919   5.495   1.080  0.5575 -0.5366 -0.5993
17488TIP3    H273956   5.909   5.378   0.983 -1.3994 -2.3055  1.6106
17489TIP3   OH273957   1.870   5.026  13.572  0.0341 -0.7146 -0.0340
17489TIP3    H173958   1.891   4.958  13.508  0.0713  0.3604 -1.2059
17489TIP3    H273959   1.935   5.095  13.556 -0.1423 -0.3044  0.9715
17490TIP3   OH273960   5.935   0.203  15.119  0.7200  0.1352  0.1897
17490TIP3    H173961   5.946   0.298  15.107  0.9996  0.0854  0.0482
17490TIP3    H273962   6.013   0.165  15.080  0.4899 -0.1699  0.0256
17491TIP3   OH273963   2.372   0.923  14.002  0.0278  0.1327 -0.0044
17491TIP3    H173964   2.437   0.992  14.001  0.5007 -0.2640  1.4874
17491TIP3    H273965   2.291   0.966  14.028 -0.5843  0.8042 -2.7458
17492TIP3   OH273966   6.423   5.549   0.184 -0.1657  0.0235 -0.2115
17492TIP3    H173967   6.485   5.480   0.163  0.9998  0.6224  1.0646
17492TIP3    H273968   6.467   5.630   0.159 -0.4270  0.4604  0.6804
17493TIP3   OH273969   5.479   2.409   1.699  0.2651 -0.0709 -0.0151
17493TIP3    H173970   5.443   2.326   1.671 -0.2922 -0.0355  0.5652
17493TIP3    H273971   5.403   2.467   1.707  0.2777 -0.2731  2.1800
17494TIP3   OH273972   0.219   1.682   5.774  0.1364 -0.1412  0.1678
17494TIP3    H173973   0.253   1.721   5.693 -1.2495 -1.4239 -1.0906
17494TIP3    H273974   0.298   1.661   5.824  1.2358 -1.8968 -2.0970
17495TIP3   OH273975   0.702   0.012   2.561 -0.0385  0.3804  0.0813
17495TIP3    H173976   0.795  -0.010   2.575  0.1996  1.0829 -0.3399
17495TIP3    H273977   0.674  -0.050   2.494  0.3801  0.7623 -0.4532
17496TIP3   OH273978   3.787   4.215  15.548  0.4011  0.2502 -0.0406
17496TIP3    H173979   3.722   4.283  15.529  1.0348  0.8191 -0.2120
17496TIP3    H273980   3.754   4.171  15.626  0.1323  0.9512  0.2494
17497TIP3   OH273981   5.625   1.967  12.590 -0.0535 -0.4204  0.5752
17497TIP3    H173982   5.656   1.881  12.563 -2.8301 -1.1169 -0.7676
17497TIP3    H273983   5.617   1.962  12.685 -0.3854 -1.7520  0.4901
17498TIP3   OH273984   3.449   6.386  14.985 -0.1542 -0.4996 -0.2541
17498TIP3    H173985   3.497   6.304  14.991 -1.8861 -1.5512 -0.0586
17498TIP3    H273986   3.413   6.386  14.896  0.1829  0.2668 -0.3982
17499TIP3   OH273987   5.109   4.638  14.804 -0.3193  0.2715 -0.0486
17499TIP3    H173988   5.182   4.580  14.782  0.9869  1.8655 -0.1062
17499TIP3    H273989   5.072   4.601  14.884 -1.0334 -1.9212 -1.2934
17500TIP3   OH273990   5.840   0.865   1.996 -0.2733  0.1509  0.7277
17500TIP3    H173991   5.932   0.853   1.972 -0.7787 -0.2979 -1.2136
17500TIP3    H273992   5.809   0.777   2.018 -0.6340 -0.0048 -0.3204
17501TIP3   OH273993   5.494   5.326   3.376  0.2380  0.4714  0.0525
17501TIP3    H173994   5.458   5.265   3.312  1.9232 -1.2507  0.6534
17501TIP3    H273995   5.429   5.328   3.446  0.3872 -1.1573  0.2891
17502TIP3   OH273996   3.861   1.861  10.449  0.3126  0.1697 -0.0060
17502TIP3    H173997   3.884   1.936  10.504 -0.2316 -0.5396  1.2491
17502TIP3    H273998   3.889   1.785  10.501 -0.0595 -0.5188 -0.7946
17503TIP3   OH273999   5.967   3.210  13.651  0.3494 -0.0482  0.0171
17503TIP3    H174000   5.934   3.125  13.680  0.6259 -0.7145 -1.5329
17503TIP3    H274001   5.905   3.237  13.582  0.9929  0.3966 -0.3934
17504TIP3   OH274002   4.059   6.343  16.253  0.0149 -0.2513  0.3795
17504TIP3    H174003   4.147   6.313  16.231 -0.6198 -2.0415  0.1234
17504TIP3    H274004   4.020   6.368  16.169 -0.1415 -0.7002  0.3136
17505TIP3   OH274005   6.244   1.323  15.810  0.3550 -0.1333 -0.0200
17505TIP3    H174006   6.278   1.328  15.899  2.2125  0.3936 -0.7039
17505TIP3    H274007   6.173   1.260  15.815  0.2890  0.0193  1.8612
17506TIP3   OH274008   0.131   6.484   4.984 -0.6532  0.1712 -0.1431
17506TIP3    H174009   0.194   6.454   5.050  0.2981  0.7989 -0.7376
17506TIP3    H274010   0.056   6.514   5.035  0.0897  0.7134  0.6691
17507TIP3   OH274011   1.662   6.755  15.831  0.0336 -0.6664 -0.1404
17507TIP3    H174012   1.745   6.713  15.809  0.5082  0.0092  0.2977
17507TIP3    H274013   1.681   6.849  15.830 -0.7813 -0.4922 -0.2495
17508TIP3   OH274014   5.891   6.827   1.321 -0.0156  0.4229 -0.4392
17508TIP3    H174015   5.800   6.798   1.312  0.3033 -0.5609 -0.5617
17508TIP3    H274016   5.942   6.761   1.274  1.0519 -0.8262  2.2708
17509TIP3   OH274017   5.157   2.172   1.897  0.2384  0.3394 -0.5911
17509TIP3    H174018   5.188   2.261   1.913  0.1463  0.4795 -1.1763
17509TIP3    H274019   5.189   2.151   1.809  0.3251 -0.2343 -0.4290
17510TIP3   OH274020   2.303   3.917  11.789  0.2469 -0.1715  0.4814
17510TIP3    H174021   2.323   3.946  11.700 -2.0177 -0.5682 -0.2284
17510TIP3    H274022   2.217   3.953  11.807 -0.2439 -1.8329  1.7000
17511TIP3   OH274023   1.502   3.639   2.907  0.7544  1.0455 -0.3733
17511TIP3    H174024   1.417   3.601   2.886  0.5527  1.0499  0.3994
17511TIP3    H274025   1.566   3.573   2.882  0.6490  1.6925 -2.5223
17512TIP3   OH274026   4.069   0.603  12.648 -0.4211 -0.3478 -0.2410
17512TIP3    H174027   4.032   0.516  12.638 -1.6494 -0.0959  1.6185
17512TIP3    H274028   3.993   0.662  12.648  0.0156  0.3345  2.0724
17513TIP3   OH274029   1.506   5.013   0.731  0.0259  0.2599  0.9451
17513TIP3    H174030   1.554   5.032   0.812  1.0877 -1.9195  0.8914
17513TIP3    H274031   1.568   5.036   0.661  1.5773 -3.4497  0.8774
17514TIP3   OH274032   2.760   3.915  13.231  0.6683 -0.1903  0.2235
17514TIP3    H174033   2.827   3.906  13.163 -0.8568  2.7254 -1.8972
17514TIP3    H274034   2.678   3.894  13.187 -0.1554 -0.8611  1.9693
17515TIP3   OH274035   2.825   5.153  12.439  0.5386 -0.2431  0.4440
17515TIP3    H174036   2.831   5.151  12.344  3.3180 -0.2726  0.5204
17515TIP3    H274037   2.794   5.241  12.460  2.0444  0.5602 -0.4904
17516TIP3   OH274038   5.301   1.977   1.471  0.2264  0.4850  0.3530
17516TIP3    H174039   5.390   1.944   1.484  0.8504  1.0034 -2.1048
17516TIP3    H274040   5.295   1.993   1.377 -2.4702  0.5254  0.4514
17517TIP3   OH274041   5.887   1.439  15.782  0.0997 -0.4130 -0.9028
17517TIP3    H174042   5.813   1.499  15.791  0.0627 -0.2126 -2.3558
17517TIP3    H274043   5.937   1.472  15.708  2.2746  0.0691  0.6826
17518TIP3   OH274044   0.610   6.709   0.730 -0.3365 -0.0448  0.0284
17518TIP3    H174045   0.556   6.658   0.790 -1.8809  1.0876 -0.3217
17518TIP3    H274046   0.547   6.759   0.678  1.0349  0.6060 -1.0815
17519TIP3   OH274047   6.148   0.398  10.396 -0.0748 -0.3585  0.1701
17519TIP3    H174048   6.198   0.344  10.335 -0.8731 -1.5930  0.5670
17519TIP3    H274049   6.107   0.336  10.455  0.3642  0.7859  1.7569
17520TIP3   OH274050   5.552   3.429  16.830 -0.1970  0.5731  0.9180
17520TIP3    H174051   5.543   3.334  16.830  0.4378  0.5065  0.9050
17520TIP3    H274052   5.643   3.444  16.857 -0.1930  1.1608  0.5970
17521TIP3   OH274053   1.256   2.453  11.322  0.2149 -0.1813  0.1719
17521TIP3    H174054   1.324   2.408  11.272 -1.3307 -0.6176 -1.6812
17521TIP3    H274055   1.199   2.383  11.354  0.4681  0.1876  1.4859
17522TIP3   OH274056   5.111   1.026   2.239  0.3071  0.8533  0.2189
17522TIP3    H174057   5.036   1.046   2.183 -0.7368  0.9165  1.5665
17522TIP3    H274058   5.187   1.041   2.184 -0.6427  1.8044 -0.9026
17523TIP3   OH274059   1.524   1.285  15.640  0.0408 -0.2187  0.5523
17523TIP3    H174060   1.496   1.323  15.724  2.1926  0.1634  1.1546
17523TIP3    H274061   1.586   1.348  15.605 -1.2871 -0.0449 -1.7162
17524TIP3   OH274062   1.911   4.765   0.577 -0.4169 -0.1431 -0.0051
17524TIP3    H174063   1.963   4.830   0.625  1.0094  0.4933 -2.2650
17524TIP3    H274064   1.827   4.763   0.623  0.3129  1.5625  1.5409
17525TIP3   OH274065   0.649   6.373   4.276  0.5350  0.0772 -0.4523
17525TIP3    H174066   0.709   6.303   4.302 -0.9372 -1.3583 -0.7697
17525TIP3    H274067   0.647   6.432   4.352 -1.7798 -2.7300  1.9105
17526TIP3   OH274068   6.449   6.754  12.992 -0.3271 -0.2134  0.6297
17526TIP3    H174069   6.363   6.795  12.993  0.2063  0.9702 -0.1579
17526TIP3    H274070   6.448   6.695  13.068 -2.7923 -2.3149 -0.8502
17527TIP3   OH274071   6.753   0.829  13.430  0.0126  0.3582 -0.3434
17527TIP3    H174072   6.844   0.838  13.460 -0.3504  0.4267  0.7701
17527TIP3    H274073   6.703   0.810  13.509 -1.3620  3.0883 -0.4124
17528TIP3   OH274074   5.397   1.678   1.738  0.3061 -0.0895 -0.1307
17528TIP3    H174075   5.389   1.636   1.653 -1.0500  1.4721 -0.8338
17528TIP3    H274076   5.318   1.732   1.746  0.2582 -0.3826  2.2363
17529TIP3   OH274077   6.625   0.733   4.236 -0.6432  1.1027  0.3160
17529TIP3    H174078   6.616   0.691   4.321 -1.0872  0.9471  0.1980
17529TIP3    H274079   6.553   0.696   4.184  0.6398 -0.1347 -0.6667
17530TIP3   OH274080   1.437   1.452  14.587 -0.0156  0.7098  0.1610
17530TIP3    H174081   1.392   1.531  14.617  0.1503  1.1524 -0.7080
17530TIP3    H274082   1.425   1.453  14.492 -0.0662 -0.3499  0.1455
17531TIP3   OH274083   2.383   3.437  15.923 -0.0589 -0.0290  0.6854
17531TIP3    H174084   2.315   3.383  15.883 -1.0508 -0.8203  3.2569
17531TIP3    H274085   2.370   3.524  15.885 -1.5922 -0.4978  0.0646
17532TIP3   OH274086   1.956   0.835   3.021  0.1899  0.1667  0.0555
17532TIP3    H174087   1.932   0.882   3.101  0.9422  3.7825 -1.6334
17532TIP3    H274088   1.876   0.835   2.968  0.4199  0.2718 -0.2921
17533TIP3   OH274089   5.466   5.518   1.359 -0.8119  0.1870 -0.0184
17533TIP3    H174090   5.496   5.430   1.381 -2.6563 -0.7027 -0.8168
17533TIP3    H274091   5.545   5.564   1.331 -0.1106 -2.0038 -2.0189
17534TIP3   OH274092   3.090   5.562   5.189 -0.6153 -0.7237 -0.0952
17534TIP3    H174093   3.170   5.533   5.233 -1.0633  0.3046  1.4659
17534TIP3    H274094   3.112   5.649   5.154 -1.1940 -0.2119  0.7943
17535TIP3   OH274095   0.822   4.772   4.649 -0.1212  0.1606 -0.1327
17535TIP3    H174096   0.872   4.775   4.568 -0.0251 -0.2205 -0.0883
17535TIP3    H274097   0.835   4.684   4.683 -1.9107 -0.4172 -0.8110
17536TIP3   OH274098   4.844   0.198  11.016 -0.5236 -0.8279 -0.4613
17536TIP3    H174099   4.884   0.122  10.974 -2.1508 -1.1686 -1.4679
17536TIP3    H274100   4.779   0.230  10.953  0.2740  1.5774 -0.1842
17537TIP3   OH274101   5.229   3.439  12.247  0.3365  0.2282  0.3718
17537TIP3    H174102   5.157   3.445  12.310  0.0017 -1.1363  0.1502
17537TIP3    H274103   5.190   3.399  12.170  0.6301  2.2663 -0.9309
17538TIP3   OH274104   5.631   0.631  14.065 -0.9360  0.3057 -0.0943
17538TIP3    H174105   5.661   0.703  14.120 -2.5444  0.0475  1.2136
17538TIP3    H274106   5.660   0.552  14.112  0.2669  0.0675 -1.1891
17539TIP3   OH274107   4.786   0.762  16.278 -0.2352 -0.3719  0.1874
17539TIP3    H174108   4.768   0.773  16.372  0.5425 -1.6415  0.5029
17539TIP3    H274109   4.881   0.755  16.272 -0.3316 -1.2484 -0.5834
17540TIP3   OH274110   5.381   3.804  12.397 -0.1082  0.5045 -0.2470
17540TIP3    H174111   5.435   3.874  12.359 -1.1321  1.4586  0.0061
17540TIP3    H274112   5.418   3.790  12.483  1.5923 -0.9585 -1.1555
17541TIP3   OH274113   6.168   2.315   4.976 -0.1528  0.1555  0.1604
17541TIP3    H174114   6.240   2.363   5.016  1.3058 -2.3554  0.7603
17541TIP3    H274115   6.194   2.305   4.884 -0.3262  0.2660  0.0979
17542TIP3   OH274116   3.003   4.915  10.454  0.4929 -0.4353  0.0632
17542TIP3    H174117   3.078   4.880  10.405 -0.1740 -0.3359 -1.0638
17542TIP3    H274118   2.960   4.838  10.490  1.7367 -0.4328  1.6689
17543TIP3   OH274119   1.384   4.636  11.647 -0.1486  0.2597 -0.4606
17543TIP3    H174120   1.298   4.622  11.686 -0.8528 -0.5130 -2.2216
17543TIP3    H274121   1.444   4.636  11.722 -1.5401 -0.1918  0.7052
17544TIP3   OH274122   4.705   5.859  15.880 -0.1991 -0.5858  0.1723
17544TIP3    H174123   4.679   5.829  15.792 -1.9815 -0.0043  0.4633
17544TIP3    H274124   4.719   5.953  15.870 -0.3015 -0.5363  0.4782
17545TIP3   OH274125   4.298   5.034   2.625  0.4057 -0.6361 -0.0231
17545TIP3    H174126   4.390   5.057   2.612  0.7504 -1.4763  0.8627
17545TIP3    H274127   4.250   5.109   2.590  1.4746  1.1155  2.0204
17546TIP3   OH274128   3.136   0.347  16.397  0.2371 -0.5536 -0.3575
17546TIP3    H174129   3.072   0.284  16.430 -0.2867  0.2992  0.3205
17546TIP3    H274130   3.220   0.317  16.432  0.1102 -1.3050 -0.6913
17547TIP3   OH274131   4.172   6.663   5.566 -0.0331 -0.1122  0.7194
17547TIP3    H174132   4.212   6.579   5.545  0.8366  0.6765 -1.0078
17547TIP3    H274133   4.233   6.704   5.628  0.3609 -0.0999  0.3250
17548TIP3   OH274134   1.328   4.496   5.298 -0.2080 -0.4171  0.3698
17548TIP3    H174135   1.315   4.525   5.388  3.2862  2.3802  0.1876
17548TIP3    H274136   1.274   4.555   5.246 -0.9372 -0.9424  0.5189
17549TIP3   OH274137   0.388   5.786   2.840  0.1765  0.4133  0.5791
17549TIP3    H174138   0.305   5.740   2.852  1.5152 -2.5372 -0.4947
17549TIP3    H274139   0.438   5.768   2.920  0.9612 -0.6327 -0.1250
17550TIP3   OH274140   0.716   1.172   3.470  0.4255 -0.2883 -0.0378
17550TIP3    H174141   0.638   1.228   3.475  1.0166  0.6339 -0.8834
17550TIP3    H274142   0.789   1.233   3.459  1.2741 -1.1471  0.6836
17551TIP3   OH274143   6.318   0.673  14.311 -0.0238 -0.2552 -0.1583
17551TIP3    H174144   6.397   0.661  14.364  0.4409 -0.1338 -0.8153
17551TIP3    H274145   6.260   0.725  14.366  0.4262 -0.1891  0.2600
17552TIP3   OH274146   4.633   5.538   2.121 -0.4089 -0.1777  0.4028
17552TIP3    H174147   4.603   5.482   2.049 -1.4071 -1.0791  1.4684
17552TIP3    H274148   4.579   5.617   2.114 -1.6755 -0.9419  1.0882
17553TIP3   OH274149   5.558   6.154   2.227 -0.6903  0.1452  0.3143
17553TIP3    H174150   5.471   6.187   2.203 -1.3955 -0.5875  1.7314
17553TIP3    H274151   5.571   6.185   2.317  0.8666  0.8797 -0.1209
17554TIP3   OH274152   6.665   6.380  14.787  0.6241 -0.7869  0.2446
17554TIP3    H174153   6.680   6.465  14.827  0.7771 -0.2926 -0.8225
17554TIP3    H274154   6.570   6.369  14.789  0.5689 -0.3796 -0.0242
17555TIP3   OH274155   6.368   4.231  15.390  0.7828  0.3907  0.1726
17555TIP3    H174156   6.333   4.290  15.456  0.4629 -0.2709  0.6151
17555TIP3    H274157   6.335   4.264  15.307 -4.2956 -2.2348  0.6981
17556TIP3   OH274158   3.853   4.353   3.109 -0.4433  0.1619  0.2739
17556TIP3    H174159   3.849   4.438   3.066  0.7968 -0.6509 -1.5870
17556TIP3    H274160   3.767   4.315   3.096 -0.3492  0.2841 -0.7644
17557TIP3   OH274161   5.912   1.267  10.656  0.4471 -0.1085  0.2002
17557TIP3    H174162   5.961   1.199  10.610  1.0683  1.0645 -0.9003
17557TIP3    H274163   5.977   1.331  10.683 -0.4550  1.6850 -1.6319
17558TIP3   OH274164   2.086   3.004  12.258 -0.2776  0.4440  0.3584
17558TIP3    H174165   2.082   2.934  12.323 -1.4929  0.5650  0.4449
17558TIP3    H274166   2.099   3.084  12.309 -0.0889  0.4150  0.3565
17559TIP3   OH274167   2.584   0.004  11.071 -0.5626 -0.0860  0.4843
17559TIP3    H174168   2.496  -0.027  11.091 -1.4026  1.6855 -0.2508
17559TIP3    H274169   2.618   0.036  11.154 -2.0186  2.4466  0.1909
17560TIP3   OH274170   6.660   1.137   2.960 -0.0515  0.4022 -0.2164
17560TIP3    H174171   6.707   1.130   3.043  0.2829 -0.9874 -0.4829
17560TIP3    H274172   6.575   1.097   2.977  0.9850 -2.4848 -1.1718
17561TIP3   OH274173   3.756   0.117  13.723  0.1153  0.6042  0.2856
17561TIP3    H174174   3.743   0.075  13.638 -0.5174  1.7607 -0.2180
17561TIP3    H274175   3.702   0.066  13.784 -0.8816  0.8430 -0.3694
17562TIP3   OH274176   5.178   4.771   0.039 -0.1752  0.2398 -0.5464
17562TIP3    H174177   5.267   4.761   0.005 -1.0364 -1.6808 -2.5018
17562TIP3    H274178   5.171   4.864   0.061  1.9574  0.6541 -1.3300
17563TIP3   OH274179   1.460   4.253   2.054  0.0716  0.5223 -0.3014
17563TIP3    H174180   1.484   4.296   1.972 -0.4436 -1.3149 -1.4861
17563TIP3    H274181   1.416   4.172   2.026  0.2224 -0.3353  1.7955
17564TIP3   OH274182   3.804   6.528  14.266  0.4586  0.1297 -0.1132
17564TIP3    H174183   3.797   6.434  14.281  1.3875  0.3340  1.8624
17564TIP3    H274184   3.892   6.540  14.228  1.9675  0.4747  3.1292
17565TIP3   OH274185   6.047   4.146   0.609  0.0626 -0.2503 -0.0316
17565TIP3    H174186   6.035   4.134   0.703 -0.7998  1.1797  0.0778
17565TIP3    H274187   6.133   4.188   0.601 -0.4396  0.8571  0.2472
17566TIP3   OH274188   3.553   5.981   0.578  0.6405  0.2163  0.0009
17566TIP3    H174189   3.550   5.982   0.674 -1.2161 -0.4524 -0.0077
17566TIP3    H274190   3.507   5.900   0.553  0.2260  0.8659 -1.4637
17567TIP3   OH274191   2.815   0.423   5.829  0.1125 -0.1024  1.0698
17567TIP3    H174192   2.864   0.354   5.785 -0.3905 -0.2341  0.7133
17567TIP3    H274193   2.788   0.385   5.913 -0.5061 -0.4705  0.7021
17568TIP3   OH274194   2.626   3.789  16.927  0.0726 -0.3320 -0.4247
17568TIP3    H174195   2.629   3.871  16.877 -0.8782 -0.8914 -1.4586
17568TIP3    H274196   2.620   3.721  16.860 -2.4143 -1.0530  0.4148
17569TIP3   OH274197   0.858   1.572   3.698 -0.2756  0.7261 -0.4674
17569TIP3    H174198   0.889   1.528   3.619 -1.5111 -0.3370 -0.3940
17569TIP3    H274199   0.774   1.611   3.673 -0.5845  0.5526  0.2569
17570TIP3   OH274200   3.451   2.041   1.082 -0.2342  0.3353  0.1008
17570TIP3    H174201   3.367   2.064   1.042 -1.2816 -0.7354  1.5981
17570TIP3    H274202   3.429   1.986   1.156  1.8476 -0.5041  0.1782
17571TIP3   OH274203   0.699   6.049  13.167 -0.5688  0.2725 -0.4891
17571TIP3    H174204   0.664   6.057  13.256  0.7975  1.7715 -0.0274
17571TIP3    H274205   0.684   6.134  13.127  0.3061  0.1526 -1.1095
17572TIP3   OH274206   5.209   3.765   5.120 -0.5909  0.0734  0.0215
17572TIP3    H174207   5.117   3.745   5.136 -0.6187  0.0882 -0.1185
17572TIP3    H274208   5.255   3.684   5.142 -0.4318  0.6185  1.9057
17573TIP3   OH274209   2.466   3.836  10.709  0.5024 -0.8727 -0.1237
17573TIP3    H174210   2.462   3.902  10.639 -0.0862 -1.1325 -0.3469
17573TIP3    H274211   2.392   3.856  10.766  1.4580 -0.1597  0.9025
17574TIP3   OH274212   3.617   1.453  11.490  0.0182  0.3237  0.3686
17574TIP3    H174213   3.660   1.412  11.566  0.5713 -1.1665 -0.6903
17574TIP3    H274214   3.687   1.459  11.425 -0.4227  1.6990  0.0033
17575TIP3   OH274215   5.598   4.295  15.192  0.4412  0.1329  0.4140
17575TIP3    H174216   5.595   4.201  15.170 -0.7628  0.2940 -0.2076
17575TIP3    H274217   5.554   4.338  15.119  0.1813  1.1080  1.1255
17576TIP3   OH274218   5.692   2.168  12.416 -0.5112  0.6978 -0.1508
17576TIP3    H174219   5.662   2.117  12.491 -1.9620  0.6464 -0.7380
17576TIP3    H274220   5.668   2.258  12.437 -1.8018  0.5594 -0.9473
17577TIP3   OH274221   3.273   6.447  16.091 -0.4972  1.1564 -0.5177
17577TIP3    H174222   3.298   6.431  16.000  0.9086  1.2207 -0.1627
17577TIP3    H274223   3.309   6.533  16.111 -0.0387  0.7788  0.3375
17578TIP3   OH274224   5.038   4.917  13.786 -1.0900 -0.2204  0.3631
17578TIP3    H174225   5.092   4.990  13.756 -0.5943 -1.1429 -1.1067
17578TIP3    H274226   5.055   4.912  13.880  1.3554 -0.4286 -0.0266
17579TIP3   OH274227   2.143   5.947  12.573 -0.4947 -0.1554 -0.1174
17579TIP3    H174228   2.095   5.918  12.651 -0.6522  0.5107  0.0346
17579TIP3    H274229   2.207   6.010  12.606 -1.4273  1.1308 -0.6846
17580TIP3   OH274230   1.942   2.119   3.710 -0.2068  0.4585  0.4724
17580TIP3    H174231   1.965   2.124   3.803 -0.7221  0.2017  0.6168
17580TIP3    H274232   2.026   2.111   3.665  0.0570  0.7373  0.9040
17581TIP3   OH274233   3.170   5.159  11.996  0.2490  0.1584  0.2047
17581TIP3    H174234   3.160   5.064  12.003  0.7149  0.1946  1.9419
17581TIP3    H274235   3.249   5.178  12.046 -0.3595  1.5567  0.6768
17582TIP3   OH274236   0.076   6.470   5.599  0.3489 -0.4754 -0.0306
17582TIP3    H174237   0.095   6.416   5.676 -0.2485 -0.4088  0.1728
17582TIP3    H274238   0.127   6.430   5.528  0.1844 -1.1015  0.1963
17583TIP3   OH274239   6.195   2.939   0.797 -0.2011 -0.4722  0.3353
17583TIP3    H174240   6.248   2.957   0.720 -1.7438  0.8509 -0.4684
17583TIP3    H274241   6.194   2.843   0.804  0.2614 -0.5958 -1.0837
17584TIP3   OH274242   5.457   0.833  15.949 -0.0306 -0.2445 -0.2300
17584TIP3    H174243   5.373   0.871  15.975 -0.3015 -0.5917 -0.5700
17584TIP3    H274244   5.440   0.798  15.861 -0.1778 -2.3315  0.5793
17585TIP3   OH274245   3.097   4.359  14.001 -0.6916 -0.4372 -0.2562
17585TIP3    H174246   3.046   4.361  13.920 -0.8357 -1.3420 -0.1973
17585TIP3    H274247   3.035   4.327  14.067 -0.6458  0.5178  0.2745
17586TIP3   OH274248   3.375   6.355   4.723  0.3918  0.8746  0.1442
17586TIP3    H174249   3.407   6.299   4.794 -1.3752 -0.7076 -0.2343
17586TIP3    H274250   3.293   6.391   4.756 -0.3331  0.2983 -0.9786
17587TIP3   OH274251   4.767   6.098  14.716 -0.2723 -0.5746  0.7118
17587TIP3    H174252   4.677   6.128  14.720 -0.3695 -0.7587  0.1174
17587TIP3    H274253   4.802   6.111  14.804 -0.7007  0.0445  0.7937
17588TIP3   OH274254   2.787   5.553  11.930 -0.7685  0.3284 -0.3248
17588TIP3    H174255   2.711   5.497  11.940 -0.1930 -0.7296 -1.5074
17588TIP3    H274256   2.755   5.642  11.948 -2.0994 -0.1683 -0.1460
17589TIP3   OH274257   1.383   3.055   2.627 -0.1392  0.5721  0.0043
17589TIP3    H174258   1.454   3.050   2.691  0.8591  2.7292 -0.8376
17589TIP3    H274259   1.416   3.005   2.552  0.0276  0.6667  0.0137
17590TIP3   OH274260   2.114   2.553  14.374 -0.1459  0.5142 -0.2681
17590TIP3    H174261   2.093   2.464  14.346  0.8781  0.6816 -1.6573
17590TIP3    H274262   2.068   2.610  14.313  0.3014  0.9213 -0.2322
17591TIP3   OH274263   2.984   2.622  17.093 -0.0478 -0.0755 -0.1096
17591TIP3    H174264   2.966   2.665  17.010  2.5350  0.7871 -0.2918
17591TIP3    H274265   2.979   2.692  17.158 -1.5233 -0.6474  0.4544
17592TIP3   OH274266   3.120   3.572  15.005 -0.1527 -0.0435  0.6378
17592TIP3    H174267   3.168   3.569  14.923 -0.2494 -1.1261  0.5958
17592TIP3    H274268   3.172   3.517  15.065 -1.6001 -1.7731  0.4102
17593TIP3   OH274269   6.376   4.064  16.514  0.2358  0.1880  0.9858
17593TIP3    H174270   6.350   4.110  16.434  1.0741  1.6493  1.5255
17593TIP3    H274271   6.297   4.015  16.540 -0.3318  0.4315 -0.2142
17594TIP3   OH274272   1.076   3.265  14.833  0.4170 -0.6760  0.5206
17594TIP3    H174273   1.127   3.319  14.771  1.3398 -1.4474  0.5805
17594TIP3    H274274   0.989   3.261  14.795  0.9972 -1.2431 -0.8380
17595TIP3   OH274275   1.422   4.638  10.615  0.3958  0.2782  0.3284
17595TIP3    H174276   1.435   4.554  10.660  0.8181 -0.2718 -0.7964
17595TIP3    H274277   1.336   4.629  10.574  0.0246  0.7671  0.9922
17596TIP3   OH274278   1.749   3.028   3.393  0.1701 -0.0759  0.0527
17596TIP3    H174279   1.732   3.062   3.305 -1.6705  1.0347  0.7531
17596TIP3    H274280   1.706   3.092   3.451  1.1952 -0.8606  1.7448
17597TIP3   OH274281   3.626   5.933   1.278 -0.7344  0.1520  0.4194
17597TIP3    H174282   3.706   5.886   1.254  1.1995  2.7026  1.3393
17597TIP3    H274283   3.630   6.015   1.228 -0.6500  2.0782  3.3278
17598TIP3   OH274284   2.091   0.563   6.702 -0.0174 -0.0306 -0.5326
17598TIP3    H174285   2.036   0.566   6.780  0.1002  1.5304 -0.4733
17598TIP3    H274286   2.047   0.622   6.640  0.9105  0.2558 -0.9343
17599TIP3   OH274287   5.295   2.382   0.756 -0.3657 -0.3049 -0.7537
17599TIP3    H174288   5.236   2.453   0.729  0.7109  0.4174 -1.2991
17599TIP3    H274289   5.272   2.365   0.848 -0.2152  1.1976 -0.4157
17600TIP3   OH274290   3.661   1.146  13.881 -0.2990 -0.6227  0.3349
17600TIP3    H174291   3.576   1.108  13.861  0.5621 -0.9284 -3.6622
17600TIP3    H274292   3.724   1.081  13.849  1.2854  1.5469 -1.2621
17601TIP3   OH274293   5.463   3.441   4.921 -0.0508  0.3017 -0.1735
17601TIP3    H174294   5.369   3.422   4.920 -0.2797  1.1498  1.0768
17601TIP3    H274295   5.496   3.412   4.836 -1.2806 -0.8030 -0.2906
17602TIP3   OH274296   1.961   6.294   0.905  0.2753 -1.1991  0.2458
17602TIP3    H174297   1.902   6.322   0.975 -0.6115 -1.1787 -0.4831
17602TIP3    H274298   1.912   6.226   0.859  0.4883 -0.6182 -0.8745
17603TIP3   OH274299   5.599   4.968   0.298 -0.4210  0.1112 -0.0836
17603TIP3    H174300   5.609   5.047   0.352  1.3578 -1.2672  1.7565
17603TIP3    H274301   5.669   4.975   0.233  0.8691 -0.6817  1.1518
17604TIP3   OH274302   6.412   3.854  14.299 -0.3383  0.0640  1.1109
17604TIP3    H174303   6.504   3.844  14.321  0.1910 -0.0879 -0.9551
17604TIP3    H274304   6.396   3.949  14.304  0.8002  0.4785 -1.4143
17605TIP3   OH274305   4.402   4.557   5.879  0.4071 -0.0457 -0.7617
17605TIP3    H174306   4.497   4.548   5.881  0.5023  0.8625 -1.0193
17605TIP3    H274307   4.380   4.600   5.962  0.0811 -1.3410 -0.1353
17606TIP3   OH274308   6.544   3.579   2.418 -0.2795  0.4292 -0.9448
17606TIP3    H174309   6.489   3.543   2.348  0.3729 -1.4544 -0.5472
17606TIP3    H274310   6.627   3.533   2.409  0.0197  0.5957  0.7037
17607TIP3   OH274311   3.315   0.978  12.876 -0.2064 -0.3966  0.2603
17607TIP3    H174312   3.358   1.047  12.927  0.4742  0.5462 -1.4803
17607TIP3    H274313   3.307   1.015  12.788 -0.3049 -2.3513 -0.6045
17608TIP3   OH274314   4.600   6.714   1.743  0.2228  0.0831 -0.0200
17608TIP3    H174315   4.630   6.727   1.653  0.1925 -0.4723 -0.1170
17608TIP3    H274316   4.514   6.755   1.746  1.1636  2.1472  0.4001
17609TIP3   OH274317   2.852   5.460  16.629  0.1513 -0.3901  0.3757
17609TIP3    H174318   2.808   5.532  16.675  0.8932  0.0054  0.4833
17609TIP3    H274319   2.934   5.499  16.597 -0.3373 -0.6476 -1.2906
17610TIP3   OH274320   2.995   5.750   3.433  0.0060  0.1392  0.6610
17610TIP3    H174321   2.965   5.805   3.361  0.7245  0.9774  0.9893
17610TIP3    H274322   2.978   5.802   3.511  0.4919 -0.1983  0.9927
17611TIP3   OH274323   2.335   2.294  10.759  0.8749 -0.0018  0.3907
17611TIP3    H174324   2.406   2.350  10.787 -0.0049  1.4885 -0.2350
17611TIP3    H274325   2.347   2.284  10.665  1.2727 -1.2730  0.5500
17612TIP3   OH274326   2.657   6.204  16.040  0.6642 -0.1619  0.3535
17612TIP3    H174327   2.626   6.125  15.994  0.1972 -0.1673  0.6727
17612TIP3    H274328   2.736   6.175  16.086  0.2977 -0.5341  0.7528
17613TIP3   OH274329   5.345   5.828   4.379 -0.6410 -0.6465  0.2485
17613TIP3    H174330   5.408   5.756   4.368 -0.3526 -0.0655 -2.7728
17613TIP3    H274331   5.322   5.853   4.289 -2.6435  1.4017  1.2499
17614TIP3   OH274332   3.708   3.832  11.341  0.0359 -0.5738 -0.1581
17614TIP3    H174333   3.787   3.799  11.299 -0.7313 -1.9020 -0.6339
17614TIP3    H274334   3.733   3.847  11.432  1.4219  1.2465 -0.7796
17615TIP3   OH274335   4.164   5.398  12.334 -0.5544  0.5505 -1.0006
17615TIP3    H174336   4.079   5.354  12.326  0.2221 -0.8029 -2.4576
17615TIP3    H274337   4.216   5.339  12.389 -0.5975  1.4676  0.0478
17616TIP3   OH274338   3.338   1.110  14.017  0.2685  0.0543  0.6615
17616TIP3    H174339   3.255   1.116  14.065  0.5892 -0.0097  1.2363
17616TIP3    H274340   3.364   1.201  14.002  0.3285  0.0772  0.8980
17617TIP3   OH274341   5.668   3.341  12.426 -0.2027 -0.1150  0.1721
17617TIP3    H174342   5.693   3.372  12.339  0.3570  2.6114  1.2002
17617TIP3    H274343   5.734   3.378  12.484 -1.3081 -0.7816  1.9097
17618TIP3   OH274344   6.567   1.630  11.907 -0.2726 -0.6693  0.0156
17618TIP3    H174345   6.479   1.646  11.872  0.0662 -0.0042 -0.5452
17618TIP3    H274346   6.587   1.707  11.960 -0.6914 -1.5634  1.5681
17619TIP3   OH274347   6.671   1.363  17.019 -0.3370  0.2551  0.1809
17619TIP3    H174348   6.579   1.349  17.042 -0.2173  0.0523  0.5437
17619TIP3    H274349   6.668   1.405  16.933 -0.7396 -0.6565 -0.2646
17620TIP3   OH274350   1.285   6.124   5.303  0.1369 -0.2520  0.3137
17620TIP3    H174351   1.279   6.029   5.289  1.0583 -0.6680  2.3076
17620TIP3    H274352   1.364   6.135   5.356  0.1323  1.6673 -0.0147
17621TIP3   OH274353   1.353   4.967  11.263  0.0046  0.0860 -0.3347
17621TIP3    H174354   1.317   4.890  11.307 -0.1166 -0.1369 -0.8221
17621TIP3    H274355   1.441   4.976  11.301 -0.4035  0.4055  0.5699
17622TIP3   OH274356   3.206   0.492   4.269 -0.2834 -0.6605 -0.2259
17622TIP3    H174357   3.216   0.397   4.274  0.1279 -0.6946 -1.3313
17622TIP3    H274358   3.140   0.505   4.200  0.3620 -0.1257 -0.7474
17623TIP3   OH274359   5.720   3.829  10.277 -0.1554 -0.1864  0.0179
17623TIP3    H174360   5.651   3.792  10.223 -1.1537  1.9241 -0.2696
17623TIP3    H274361   5.696   3.807  10.367 -1.6980  1.1991 -0.0148
17624TIP3   OH274362   2.803   2.498  16.153  0.8348 -0.1496  0.4053
17624TIP3    H174363   2.825   2.408  16.131  0.5432 -0.1722  0.1988
17624TIP3    H274364   2.768   2.494  16.242 -2.9850 -0.8781 -0.9211
17625TIP3   OH274365   5.089   2.206  13.724  0.1149  0.3865 -0.0084
17625TIP3    H174366   5.110   2.299  13.709  2.6001 -0.1378 -0.1797
17625TIP3    H274367   5.162   2.159  13.685 -0.2415 -1.5965  1.5887
17626TIP3   OH274368   5.347   5.273  15.113 -0.5854 -0.2708  0.5017
17626TIP3    H174369   5.280   5.205  15.123 -0.1596 -0.5549  1.4683
17626TIP3    H274370   5.378   5.263  15.022 -1.0444 -0.8790  0.4108
17627TIP3   OH274371   1.958   3.391  12.269 -0.2859 -0.0026 -0.0827
17627TIP3    H174372   1.877   3.428  12.306 -0.2540 -1.2326  1.3177
17627TIP3    H274373   1.935   3.369  12.179 -0.4893  2.7412 -0.7999
17628TIP3   OH274374   3.413   1.243  11.703 -0.0989 -0.3101  0.0611
17628TIP3    H174375   3.371   1.313  11.654 -2.5608 -1.0689  0.9332
17628TIP3    H274376   3.433   1.282  11.788 -0.1763 -0.2721  0.0624
17629TIP3   OH274377   6.690   2.279   5.600  0.2378 -0.0658  0.0298
17629TIP3    H174378   6.701   2.374   5.599 -0.2575  0.0007 -1.4783
17629TIP3    H274379   6.610   2.264   5.550  0.8161 -1.3299 -0.5604
17630TIP3   OH274380   6.264   4.125  13.712  0.2168 -0.6782  0.1434
17630TIP3    H174381   6.346   4.148  13.667  1.7501 -1.6305  2.2744
17630TIP3    H274382   6.200   4.117  13.642  1.8746  0.3169 -1.6028
17631TIP3   OH274383   3.325   3.177   1.164 -0.5229  0.2651 -0.1067
17631TIP3    H174384   3.410   3.215   1.187  0.1483 -1.7120  0.9843
17631TIP3    H274385   3.267   3.202   1.236 -0.2081 -0.3275  0.3679
17632TIP3   OH274386   2.287   2.725   0.757 -0.8069 -0.1605 -0.7439
17632TIP3    H174387   2.320   2.699   0.670 -1.4146 -0.1295 -0.9843
17632TIP3    H274388   2.300   2.820   0.759 -1.1214 -0.1109 -0.9449
17633TIP3   OH274389   3.213   5.937   0.022  0.1147 -0.2001 -0.1904
17633TIP3    H174390   3.272   5.902  -0.045  1.0739  0.7743  0.1290
17633TIP3    H274391   3.265   6.003   0.068 -1.2954  0.8442 -0.0392
17634TIP3   OH274392   6.511   6.271   2.320  0.4520 -0.2790  0.1580
17634TIP3    H174393   6.466   6.354   2.337  0.3407 -0.3757  0.3385
17634TIP3    H274394   6.505   6.223   2.403  2.0328  0.2294  0.5952
17635TIP3   OH274395   6.573   4.469   5.063 -0.9584  0.3264 -0.0584
17635TIP3    H174396   6.598   4.491   4.974 -0.7154  0.6779  0.0941
17635TIP3    H274397   6.512   4.538   5.089 -1.2012  0.1016 -0.0313
17636TIP3   OH274398   2.882   5.764  15.465  0.1077 -0.0837  0.0056
17636TIP3    H174399   2.838   5.784  15.547  1.3910 -2.4803  1.3951
17636TIP3    H274400   2.814   5.727  15.409 -0.9690  2.3909 -0.4405
17637TIP3   OH274401   1.626   2.423  12.898 -0.0782  0.7436  0.5520
17637TIP3    H174402   1.570   2.456  12.829 -0.2442 -1.1271 -0.2872
17637TIP3    H274403   1.670   2.347  12.859  2.2887  1.5308  1.4858
17638TIP3   OH274404   4.926   6.265  13.720  0.0727  0.0856 -0.2788
17638TIP3    H174405   4.868   6.299  13.788  0.0884 -0.6089  0.0844
17638TIP3    H274406   4.995   6.330  13.712 -1.1177  1.2852 -1.2093
17639TIP3   OH274407   1.005   3.911   4.739  0.6288 -0.4774 -0.5642
17639TIP3    H174408   1.022   4.005   4.752 -1.0300 -0.4104  1.5118
17639TIP3    H274409   0.935   3.908   4.674  2.0318 -0.4029 -2.1366
17640TIP3   OH274410   0.003   5.353   3.885  0.2724 -0.0781 -0.6346
17640TIP3    H174411   0.058   5.337   3.808  0.1261  0.6280 -0.8844
17640TIP3    H274412  -0.063   5.284   3.882  0.5778 -0.3675 -0.8464
17641TIP3   OH274413   5.140   3.579   3.622  0.4777  0.4677  0.6292
17641TIP3    H174414   5.162   3.653   3.679  1.1896  0.6347  0.1434
17641TIP3    H274415   5.190   3.594   3.542 -0.6024  0.3016 -0.1052
17642TIP3   OH274416   1.044   5.356  10.844 -0.2875  0.0541 -0.4293
17642TIP3    H174417   1.116   5.417  10.862 -0.2723  0.4904 -1.8306
17642TIP3    H274418   0.986   5.405  10.785 -0.8659 -0.8862 -0.6650
17643TIP3   OH274419   0.324   0.212   1.420 -0.1922 -0.0184 -0.7921
17643TIP3    H174420   0.347   0.208   1.327  1.5258  1.6423 -0.4924
17643TIP3    H274421   0.271   0.291   1.428 -0.7178 -0.4013 -0.4111
17644TIP3   OH274422   0.126   1.394   5.434  0.0425 -0.3318 -0.1536
17644TIP3    H174423   0.109   1.301   5.440 -0.8853 -0.1966 -0.6258
17644TIP3    H274424   0.087   1.431   5.514  1.0357 -0.4254  0.3902
17645TIP3   OH274425   0.832   5.230   0.693 -0.2219 -0.0615  0.0722
17645TIP3    H174426   0.751   5.248   0.646 -1.2567  2.1710  2.4798
17645TIP3    H274427   0.833   5.135   0.703 -0.7974 -0.4632 -2.7911
17646TIP3   OH274428   2.681   2.980   0.591 -0.0426 -0.1123 -0.0992
17646TIP3    H174429   2.739   3.043   0.634 -0.2934 -0.9000  1.4289
17646TIP3    H274430   2.735   2.902   0.579 -0.6473 -0.7073  0.9500
17647TIP3   OH274431   1.195   2.134   1.091 -0.2842  0.0442 -0.1275
17647TIP3    H174432   1.206   2.073   1.164  2.9759 -1.2702 -1.5687
17647TIP3    H274433   1.270   2.193   1.098 -2.3846  2.9024  0.1414
17648TIP3   OH274434   4.651   4.899  16.402  0.0312  0.5401  0.0326
17648TIP3    H174435   4.616   4.895  16.491  0.5584  1.8743  0.3213
17648TIP3    H274436   4.611   4.824  16.357 -1.0108  0.4211  1.1116
17649TIP3   OH274437   4.407   5.871   1.782 -0.1891 -0.1524  0.0781
17649TIP3    H174438   4.460   5.926   1.840  1.4607 -0.5344 -1.0043
17649TIP3    H274439   4.328   5.922   1.767  0.2677  0.8708  0.9759
17650TIP3   OH274440   3.307   3.488  15.237  0.1177  0.0593  0.1045
17650TIP3    H174441   3.390   3.494  15.284 -0.1639  0.0500  0.6031
17650TIP3    H274442   3.318   3.412  15.179 -0.3252 -1.3191  1.7361
17651TIP3   OH274443   4.117   6.721  13.058  0.2573 -0.0856 -0.4563
17651TIP3    H174444   4.188   6.660  13.040  0.3246 -0.6573  1.5643
17651TIP3    H274445   4.044   6.666  13.086  0.6752  0.7280  2.5458
17652TIP3   OH274446   3.500   1.492   4.612 -0.0244 -0.3395 -0.2417
17652TIP3    H174447   3.451   1.516   4.534  0.9893 -1.0460 -1.1187
17652TIP3    H274448   3.513   1.574   4.660 -1.4039 -0.0325 -0.3520
17653TIP3   OH274449   2.638   6.510   5.886 -0.2982 -0.0691  0.4637
17653TIP3    H174450   2.686   6.544   5.811  0.8135 -0.6602  0.8892
17653TIP3    H274451   2.655   6.573   5.956  2.4755 -1.8205  1.5008
17654TIP3   OH274452   4.644   2.778   4.073  0.3354 -0.2625 -0.1124
17654TIP3    H174453   4.733   2.774   4.039  1.1530 -1.6202  1.9697
17654TIP3    H274454   4.591   2.733   4.007  1.3109 -0.1768 -0.9781
17655TIP3   OH274455   0.463   0.767   5.289  0.3764  0.4658  0.1275
17655TIP3    H174456   0.409   0.812   5.354 -0.7345  1.0483 -1.1638
17655TIP3    H274457   0.549   0.807   5.297 -0.5961  2.9833 -1.0446
17656TIP3   OH274458   5.019   2.737   1.309 -1.0009  0.2847 -0.2528
17656TIP3    H174459   4.955   2.808   1.300  0.3238  1.5330 -0.2220
17656TIP3    H274460   5.036   2.732   1.404  0.6222  1.5733 -0.4244
17657TIP3   OH274461   0.409   2.659   3.673 -0.1019 -0.1928 -0.1451
17657TIP3    H174462   0.384   2.572   3.643 -0.3498 -0.6688  1.3586
17657TIP3    H274463   0.504   2.656   3.681 -0.2235 -0.7781  1.2071
17658TIP3   OH274464   1.835   1.834   0.233 -0.0368  0.0256 -0.0898
17658TIP3    H174465   1.837   1.930   0.234 -1.3307  0.0804 -0.4446
17658TIP3    H274466   1.901   1.809   0.168 -0.0453  0.7045 -0.3707
17659TIP3   OH274467   5.844   0.311   5.514 -0.1941  1.2550 -0.0793
17659TIP3    H174468   5.819   0.354   5.595 -0.5098 -0.5387  0.8375
17659TIP3    H274469   5.765   0.265   5.486  0.3832  0.4753 -0.4726
17660TIP3   OH274470   5.765   2.420  13.305 -0.0611 -0.1400 -0.3276
17660TIP3    H174471   5.784   2.501  13.257 -0.4041  0.3821  0.4079
17660TIP3    H274472   5.812   2.430  13.388 -2.6031  0.7419  1.1340
17661TIP3   OH274473   6.482   2.104   6.314  0.0406  0.6681  0.1005
17661TIP3    H174474   6.402   2.111   6.365 -2.1385  0.0693 -2.9645
17661TIP3    H274475   6.457   2.055   6.236  3.5048  0.1650 -0.8681
17662TIP3   OH274476   0.649   0.097  16.199  0.2502 -0.4057 -0.0007
17662TIP3    H174477   0.733   0.056  16.179  0.6631  0.5188 -0.1980
17662TIP3    H274478   0.590   0.068  16.129  0.5695 -0.5402 -0.2141
17663TIP3   OH274479   2.199   6.129   0.546 -0.0715  0.2338 -0.1571
17663TIP3    H174480   2.145   6.058   0.581  0.6621  0.1117  0.7695
17663TIP3    H274481   2.164   6.208   0.586  1.4763 -0.0118  1.8767
17664TIP3   OH274482   3.628   2.441  13.910  0.3459  0.4067  0.1696
17664TIP3    H174483   3.556   2.467  13.967  1.4158  0.1500  1.7150
17664TIP3    H274484   3.690   2.514  13.915  1.0817 -0.2207  0.4972
17665TIP3   OH274485   3.922   5.320  12.945  0.7088 -0.1861  0.2778
17665TIP3    H174486   4.004   5.276  12.924  0.7141 -0.7189  1.3391
17665TIP3    H274487   3.895   5.281  13.029  0.4513  1.4826  1.0092
17666TIP3   OH274488   1.724   6.245   3.619  0.0041 -0.2208 -0.1555
17666TIP3    H174489   1.758   6.250   3.529 -0.9285 -1.6863 -0.6199
17666TIP3    H274490   1.803   6.240   3.674  0.5896  0.9247 -0.8566
17667TIP3   OH274491   4.707   5.326   0.115 -0.4640  0.3959  0.0580
17667TIP3    H174492   4.675   5.413   0.138 -0.8633 -0.1214  1.5629
17667TIP3    H274493   4.740   5.336   0.026  2.5004  2.9034  1.2533
17668TIP3   OH274494   1.811   3.943   3.283  0.1575 -0.1694 -0.2573
17668TIP3    H174495   1.856   3.942   3.198 -1.6581  0.8420 -1.3012
17668TIP3    H274496   1.766   4.027   3.285 -2.3152 -1.4168  0.3499
17669TIP3   OH274497   3.592   3.522   4.619  0.2685 -0.3377 -0.0335
17669TIP3    H174498   3.530   3.565   4.677  0.4851 -1.6075  1.1952
17669TIP3    H274499   3.675   3.525   4.666 -0.1307 -3.9748  1.1813
17670TIP3   OH274500   0.251   5.290   2.153 -1.0303  0.4271  0.5862
17670TIP3    H174501   0.265   5.382   2.173  2.4851  0.4499 -1.1485
17670TIP3    H274502   0.332   5.247   2.180 -2.8120 -2.3347  1.9552
17671TIP3   OH274503   3.948   4.202   2.808 -0.3136  0.2467 -0.3190
17671TIP3    H174504   3.933   4.185   2.902 -0.5758 -0.5130 -0.4932
17671TIP3    H274505   3.860   4.212   2.772 -0.1909  3.0092 -0.0734
17672TIP3   OH274506   3.352   3.212  15.539 -0.1241 -0.2666  0.0916
17672TIP3    H174507   3.298   3.283  15.505 -1.0679 -1.4426 -0.9261
17672TIP3    H274508   3.376   3.241  15.627 -0.4130  1.3415 -0.3246
17673TIP3   OH274509   2.650   1.411   4.868 -0.0373 -0.0074  0.4419
17673TIP3    H174510   2.561   1.416   4.903 -0.4247 -1.1732 -0.3356
17673TIP3    H274511   2.695   1.348   4.924  1.0580  2.2875  2.3193
17674TIP3   OH274512   3.765   5.634  15.057 -0.6963  0.2168  0.1451
17674TIP3    H174513   3.826   5.567  15.027  0.7011  1.8333 -0.8218
17674TIP3    H274514   3.759   5.621  15.151 -1.2256 -1.8386 -0.1421
17675TIP3   OH274515   6.375   6.377   3.213  0.5739 -0.1214  0.7926
17675TIP3    H174516   6.403   6.465   3.239  0.0257 -0.5105  2.8359
17675TIP3    H274517   6.402   6.320   3.285  1.3568 -1.7444 -0.7005
17676TIP3   OH274518   6.822   2.802  12.620 -0.2232 -0.1580  0.2278
17676TIP3    H174519   6.852   2.780  12.708  1.6572 -0.6897 -0.4927
17676TIP3    H274520   6.728   2.815  12.629 -0.3513 -1.8753  1.9980
17677TIP3   OH274521   4.719   3.975  15.766  0.3641 -0.3216 -0.2770
17677TIP3    H174522   4.729   4.052  15.710  2.6642  0.5523  1.2089
17677TIP3    H274523   4.785   3.986  15.835 -0.4178 -2.7668  0.9838
17678TIP3   OH274524   3.086   5.661   0.425 -0.4911 -0.3623  0.4355
17678TIP3    H174525   3.052   5.574   0.405  0.5113 -0.9444  1.1452
17678TIP3    H274526   3.102   5.702   0.340  1.0701 -1.7175  0.0161
17679TIP3   OH274527   1.762   4.084  13.361 -0.2166 -0.0865  0.1553
17679TIP3    H174528   1.828   4.015  13.367  0.0466  0.1829  0.3712
17679TIP3    H274529   1.728   4.077  13.272 -1.5938 -1.7866  0.7649
17680TIP3   OH274530   6.706   0.798  11.789 -0.2738  0.4344 -0.0407
17680TIP3    H174531   6.713   0.862  11.718 -1.0083  0.5663 -0.0050
17680TIP3    H274532   6.744   0.718  11.753  0.9473  0.9582  0.0222
17681TIP3   OH274533   3.967   0.428  16.505  0.4384 -0.6221 -0.1303
17681TIP3    H174534   3.892   0.421  16.564  0.8127  0.4464  0.5103
17681TIP3    H274535   4.022   0.352  16.528  0.4453 -0.3737  0.7350
17682TIP3   OH274536   5.486   6.548  15.418  0.2518  0.5350  0.4433
17682TIP3    H174537   5.503   6.613  15.349  1.4988 -1.6631 -1.4688
17682TIP3    H274538   5.564   6.548  15.472  0.2812  0.5674  0.3999
17683TIP3   OH274539   4.709   5.108  16.725 -0.1107  0.1630  0.3725
17683TIP3    H174540   4.700   5.203  16.737 -0.9963  0.0184  0.9558
17683TIP3    H274541   4.770   5.081  16.793 -1.4498  0.0330  1.5644
17684TIP3   OH274542   5.348   4.579  12.881  0.7687  0.1623  0.1287
17684TIP3    H174543   5.299   4.612  12.806 -2.2441 -0.2475  1.7728
17684TIP3    H274544   5.412   4.648  12.901 -1.8861  2.7483  0.3318
17685TIP3   OH274545   2.799   3.346  13.463  0.3752 -0.2515  0.0480
17685TIP3    H174546   2.807   3.261  13.506 -0.3690  0.0576  0.8322
17685TIP3    H274547   2.888   3.367  13.434  1.4128  0.4707  3.3181
17686TIP3   OH274548   5.283   1.458  16.163 -0.9395  0.0898 -0.2890
17686TIP3    H174549   5.318   1.506  16.239 -2.2892  0.5024  0.1086
17686TIP3    H274550   5.260   1.372  16.198  0.0360 -0.3366 -0.6526
17687TIP3   OH274551   1.456   5.305  11.826 -0.6212 -0.3143  0.3080
17687TIP3    H174552   1.489   5.258  11.749 -1.5101 -0.5702  0.0668
17687TIP3    H274553   1.365   5.276  11.835 -1.3047  1.5625 -0.0080
17688TIP3   OH274554   0.612   6.136   2.235  0.2217  0.2848 -0.0278
17688TIP3    H174555   0.532   6.114   2.188  0.9480 -2.2367 -0.2533
17688TIP3    H274556   0.630   6.227   2.213 -3.1575  1.3061  0.9557
17689TIP3   OH274557   3.759   0.787   5.407 -0.2223 -0.2349 -0.2071
17689TIP3    H174558   3.663   0.788   5.405 -0.2614 -0.9477  0.5951
17689TIP3    H274559   3.784   0.879   5.400 -0.9778 -0.0207 -0.2078
17690TIP3   OH274560   4.822   6.552   1.066  0.4112 -0.0710  0.3395
17690TIP3    H174561   4.787   6.488   1.127 -2.5134  0.5677 -0.5064
17690TIP3    H274562   4.821   6.634   1.115 -0.9713  0.2522 -0.1806
17691TIP3   OH274563   5.613   3.473  15.212 -0.1770 -0.3536  0.4326
17691TIP3    H174564   5.577   3.437  15.293  2.2677 -2.8001  0.6103
17691TIP3    H274565   5.652   3.556  15.238  0.7286 -1.1846  1.8768
17692TIP3   OH274566   4.892   5.356   1.731  0.4276 -0.2433  0.5585
17692TIP3    H174567   4.897   5.416   1.805 -0.3632  1.2531 -0.5425
17692TIP3    H274568   4.919   5.271   1.767  3.0880  1.0151  1.8159
17693TIP3   OH274569   2.986   3.301  16.312 -0.2989  0.1200 -0.1204
17693TIP3    H174570   3.034   3.307  16.229 -0.7194  1.3001 -0.2959
17693TIP3    H274571   2.894   3.310  16.287 -0.4697 -0.1073  0.4181
17694TIP3   OH274572   5.955   2.773   4.585 -0.2303  0.4864 -0.2052
17694TIP3    H174573   6.028   2.765   4.522  0.5458 -0.6063  0.7913
17694TIP3    H274574   5.899   2.698   4.565 -1.1027  1.3166 -0.9549
17695TIP3   OH274575   1.602   3.602  16.064  0.5822 -0.2094  0.2029
17695TIP3    H174576   1.510   3.580  16.052 -0.2977  3.4620 -1.3787
17695TIP3    H274577   1.608   3.632  16.155  0.1121 -0.0833  0.1936
17696TIP3   OH274578   2.066   1.618  11.054  0.3868  0.1512  0.2961
17696TIP3    H174579   2.118   1.630  10.975  1.5439 -0.6315  0.9066
17696TIP3    H274580   2.016   1.699  11.063  2.7169  1.6609  0.5773
17697TIP3   OH274581   4.293   0.376   3.897 -0.5025 -0.2421  0.6296
17697TIP3    H174582   4.255   0.362   3.810 -0.1924 -0.4376  0.5261
17697TIP3    H274583   4.335   0.293   3.918  0.8007  0.3157  0.2879
17698TIP3   OH274584   0.171   5.443  15.037  0.1607  0.6108  0.3087
17698TIP3    H174585   0.169   5.482  14.950  0.0826  2.7936  1.2270
17698TIP3    H274586   0.120   5.363  15.028 -2.6944  2.4205 -0.9396
17699TIP3   OH274587   6.205   2.678  16.225  0.0975  0.6202 -0.1379
17699TIP3    H174588   6.140   2.674  16.155 -0.5402 -1.8032  0.4806
17699TIP3    H274589   6.289   2.682  16.179 -0.2957 -1.0947 -1.0945
17700TIP3   OH274590   2.306   4.402  16.489  0.4868 -0.3638  0.6816
17700TIP3    H174591   2.294   4.368  16.401  0.8595  0.0675  0.4584
17700TIP3    H274592   2.401   4.404  16.501  0.4266 -1.0555  1.3457
17701TIP3   OH274593   5.924   5.496   5.188 -0.2882 -0.1826  0.0516
17701TIP3    H174594   5.884   5.426   5.240 -0.4496  0.2418  0.5055
17701TIP3    H274595   6.011   5.462   5.166 -0.3592 -0.5248  0.2814
17702TIP3   OH274596   4.994   6.774  17.036 -0.1899 -0.0331 -0.5705
17702TIP3    H174597   4.963   6.806  16.951  1.2513  0.3325 -0.9847
17702TIP3    H274598   4.979   6.847  17.096  0.9605  0.6183 -1.0346
17703TIP3   OH274599   2.863   1.327   1.644  0.4476  0.1813  0.2050
17703TIP3    H174600   2.839   1.284   1.562  0.5170  0.4916  0.0197
17703TIP3    H274601   2.956   1.306   1.655  0.7324  1.0936 -0.3925
17704TIP3   OH274602   2.004   1.905  13.118 -0.2473 -0.0685  0.3972
17704TIP3    H174603   1.998   1.859  13.034  0.9655 -1.6596  1.1327
17704TIP3    H274604   1.931   1.966  13.116  0.0034  0.2700 -2.0042
17705TIP3   OH274605   5.020   4.798   4.295  0.3919 -0.2625 -0.3227
17705TIP3    H174606   4.937   4.809   4.341 -0.1140  0.3924 -1.3562
17705TIP3    H274607   5.019   4.707   4.266 -0.1581 -0.1437 -0.6886
17706TIP3   OH274608   6.611   3.934  16.478  0.7807  0.5534  0.2735
17706TIP3    H174609   6.667   4.010  16.468 -0.6795  1.5389 -0.8530
17706TIP3    H274610   6.522   3.970  16.485  0.1125 -1.0043  0.3263
17707TIP3   OH274611   5.305   4.169   3.378 -0.5058 -1.3580  0.1261
17707TIP3    H174612   5.320   4.129   3.292 -0.8273  1.2536 -1.2255
17707TIP3    H274613   5.245   4.241   3.362 -0.9952 -1.0949  2.6665
17708TIP3   OH274614   0.772   3.747  14.222 -0.5296  0.0338  0.2950
17708TIP3    H174615   0.740   3.657  14.228  0.2282 -0.1685  1.8421
17708TIP3    H274616   0.766   3.781  14.311 -1.1574  1.6586 -0.3330
17709TIP3   OH274617   0.918   4.625   1.810 -0.1025 -0.2245  0.1138
17709TIP3    H174618   0.972   4.562   1.857  0.4311 -0.2496 -0.5173
17709TIP3    H274619   0.867   4.572   1.749  0.1004 -0.0757 -0.1845
17710TIP3   OH274620   1.671   5.706  12.891 -0.1103  0.3461 -0.2014
17710TIP3    H174621   1.582   5.692  12.923  0.0014 -2.6778 -0.8864
17710TIP3    H274622   1.664   5.784  12.836 -2.4214  0.0658 -0.4284
17711TIP3   OH274623   1.182   1.798   5.380 -0.5268  0.0124  0.4008
17711TIP3    H174624   1.151   1.888   5.374 -1.3032 -0.1958  1.0074
17711TIP3    H274625   1.229   1.783   5.298  1.3290  1.5704  1.1080
17712TIP3   OH274626   6.065   4.437  14.612  0.4546 -0.4445  0.1774
17712TIP3    H174627   6.078   4.421  14.706 -1.3617  0.2814  0.5994
17712TIP3    H274628   5.972   4.455  14.604  0.8297  0.9288 -1.5796
17713TIP3   OH274629   0.386   0.032   4.891  0.2167  0.1905  0.1662
17713TIP3    H174630   0.407   0.123   4.912  1.0663  0.1856 -0.5660
17713TIP3    H274631   0.457   0.005   4.832 -0.5234 -0.6533 -0.3619
17714TIP3   OH274632   1.192   1.999  14.526  0.3437 -0.4911  0.2040
17714TIP3    H174633   1.127   1.929  14.520  1.2070 -1.2512 -0.5449
17714TIP3    H274634   1.213   2.006  14.619  0.0896 -1.0738  0.3064
17715TIP3   OH274635   5.495   0.427  14.727 -0.1364  0.3788 -0.4080
17715TIP3    H174636   5.525   0.481  14.654  1.2225  0.8075  0.4393
17715TIP3    H274637   5.574   0.386  14.761 -0.0130  3.1435  3.1887
17716TIP3   OH274638   6.459   2.506   3.296 -0.6349 -0.4952  0.2557
17716TIP3    H174639   6.456   2.510   3.392 -0.5063 -1.6724  0.3233
17716TIP3    H274640   6.472   2.414   3.276  1.6967 -0.0012 -0.8564
17717TIP3   OH274641   5.521   0.106  14.007  0.2085 -0.4149  0.3530
17717TIP3    H174642   5.565   0.188  13.982 -0.6353  0.5151  1.7679
17717TIP3    H274643   5.433   0.114  13.971  0.3141 -1.0145 -0.0598
17718TIP3   OH274644   1.198   3.415  15.937 -0.2962  0.3632 -0.1261
17718TIP3    H174645   1.289   3.404  15.910  0.1889 -1.0699  1.8424
17718TIP3    H274646   1.186   3.510  15.945  1.0174  0.5730 -0.4287
17719TIP3   OH274647   6.174   0.936  11.347  0.2534 -0.1913 -0.2013
17719TIP3    H174648   6.156   0.935  11.253 -3.6072 -0.6895  0.3838
17719TIP3    H274649   6.202   0.847  11.367 -1.6441 -0.9181 -0.5482
17720TIP3   OH274650   3.332   6.474   2.671  0.3857 -0.9663  0.5896
17720TIP3    H174651   3.424   6.478   2.699  0.6551 -0.3307 -0.3289
17720TIP3    H274652   3.323   6.547   2.610 -0.8058 -0.8734  0.8537
17721TIP3   OH274653   5.600   5.025   3.184 -0.5756  0.6358 -0.7166
17721TIP3    H174654   5.609   5.083   3.108 -1.1177  0.6546 -0.7703
17721TIP3    H274655   5.680   5.040   3.235 -0.9449  1.8061 -0.4712
17722TIP3   OH274656   1.936   4.051   1.222 -0.1770 -0.3233  0.1815
17722TIP3    H174657   1.931   4.068   1.316 -0.3211 -0.2090  0.1535
17722TIP3    H274658   1.899   3.963   1.212 -2.2535  0.4958 -0.0180
17723TIP3   OH274659   3.321   2.512   1.218 -0.2570  0.2751 -0.7638
17723TIP3    H174660   3.254   2.472   1.162 -0.1844  0.2821 -0.8566
17723TIP3    H274661   3.390   2.539   1.157  0.2336 -0.5302 -0.5857
17724TIP3   OH274662   5.617   4.268   6.237  0.0885  0.4724 -0.3752
17724TIP3    H174663   5.629   4.205   6.308 -0.4518  1.2364  0.4181
17724TIP3    H274664   5.706   4.285   6.204  0.8030  2.4605  2.2254
17725TIP3   OH274665   4.235   0.493  15.867  0.3049 -0.5896  0.1956
17725TIP3    H174666   4.154   0.449  15.892  0.5806 -0.7547  0.8338
17725TIP3    H274667   4.285   0.499  15.949 -0.2105  1.9647  0.3984
17726TIP3   OH274668   4.260   0.318  15.195  0.1924 -0.1002  0.1064
17726TIP3    H174669   4.305   0.394  15.233  0.5130 -0.0655 -0.3374
17726TIP3    H274670   4.210   0.281  15.267 -1.0473  1.3293  0.0364
17727TIP3   OH274671   6.407   6.270  15.549 -0.7479  0.6008 -0.2625
17727TIP3    H174672   6.313   6.275  15.535 -0.7629 -0.0653 -0.4322
17727TIP3    H274673   6.440   6.222  15.473 -0.3102  0.5529 -0.0443
17728TIP3   OH274674   3.316   5.436   1.969 -0.2340 -0.2714  0.4821
17728TIP3    H174675   3.350   5.360   1.922 -4.3058 -1.7785 -0.4242
17728TIP3    H274676   3.343   5.422   2.060  4.4260  0.6751 -0.4910
17729TIP3   OH274677   2.247   4.214  12.809  0.1796  0.0589  0.5587
17729TIP3    H174678   2.226   4.134  12.857  2.7555  0.1692  2.0549
17729TIP3    H274679   2.253   4.281  12.876 -2.7839  1.8284 -0.7536
17730TIP3   OH274680   3.777   0.116   5.763 -0.4523 -0.3083 -0.0346
17730TIP3    H174681   3.854   0.060   5.767  1.5781  2.1671 -1.4313
17730TIP3    H274682   3.768   0.150   5.852 -0.1969 -0.9431  0.2403
17731TIP3   OH274683   5.827   6.002  15.647 -0.1049 -0.3828  0.0759
17731TIP3    H174684   5.873   5.957  15.576 -0.7301 -0.8383 -0.0497
17731TIP3    H274685   5.821   5.937  15.717 -1.7305 -0.7882 -0.4062
17732TIP3   OH274686   4.346   3.661  13.269  0.2957 -0.1145 -0.0033
17732TIP3    H174687   4.372   3.582  13.221  1.4788  0.1113  0.2169
17732TIP3    H274688   4.309   3.719  13.203  1.8791  0.1837 -0.6747
17733TIP3   OH274689   2.764   5.029  16.691 -0.0346  0.3039 -0.6568
17733TIP3    H174690   2.706   4.974  16.638 -0.1157  1.2243 -1.5602
17733TIP3    H274691   2.781   5.106  16.636 -0.6603  1.6312  0.9157
17734TIP3   OH274692   4.889   3.107   0.633  0.0625 -0.8025  0.1653
17734TIP3    H174693   4.911   3.159   0.711  1.3730  0.1310 -0.7837
17734TIP3    H274694   4.904   3.167   0.560 -2.3663 -1.2445 -0.7870
17735TIP3   OH274695   3.826   2.512  14.157  0.3953 -0.4220 -0.1811
17735TIP3    H174696   3.731   2.521  14.169  0.5903 -0.6285  1.9116
17735TIP3    H274697   3.842   2.549  14.070 -1.9664 -3.1600 -2.0183
17736TIP3   OH274698   2.668   5.586   0.519 -0.6378  0.2165  0.0018
17736TIP3    H174699   2.619   5.554   0.443 -0.9651 -0.8776  0.6516
17736TIP3    H274700   2.624   5.547   0.594  0.3517  0.3875  0.6898
17737TIP3   OH274701   1.375   2.865  15.759 -0.2212 -0.0193 -0.0569
17737TIP3    H174702   1.417   2.802  15.700 -0.7749 -0.2698 -0.1900
17737TIP3    H274703   1.445   2.927  15.782  0.0825 -0.1141 -0.7072
17738TIP3   OH274704   6.572   5.577   6.374 -0.5102  0.5004 -0.3135
17738TIP3    H174705   6.617   5.531   6.303 -2.6295 -0.1002 -1.3736
17738TIP3    H274706   6.590   5.524   6.452  1.7342  1.0936 -0.3621
17739TIP3   OH274707   4.896   2.093  14.718 -0.3516 -0.2977 -0.1505
17739TIP3    H174708   4.886   2.059  14.629 -0.9548 -3.1173  0.8843
17739TIP3    H274709   4.984   2.066  14.744 -0.9281 -1.3729  0.7812
17740TIP3   OH274710   6.454   3.886  13.232 -0.7392  0.5771  0.1113
17740TIP3    H174711   6.360   3.896  13.239 -0.8414 -0.1248 -0.1663
17740TIP3    H274712   6.484   3.870  13.322 -0.7971  1.4526  0.2907
17741TIP3   OH274713   5.278   5.595   2.176  0.7045  0.0362 -0.1848
17741TIP3    H174714   5.247   5.607   2.265  0.6006  0.4923 -0.2790
17741TIP3    H274715   5.257   5.677   2.132  0.9314 -0.1121 -0.5764
17742TIP3   OH274716   2.801   3.040  15.131 -0.0625 -0.7313  0.3825
17742TIP3    H174717   2.734   2.974  15.148 -0.8547 -0.3678 -1.1461
17742TIP3    H274718   2.755   3.124  15.143  0.7865 -0.4348  1.7614
17743TIP3   OH274719   5.626   3.857   1.994  1.0656  0.1676 -0.4067
17743TIP3    H174720   5.652   3.834   2.083 -0.1035 -0.4469 -0.1929
17743TIP3    H274721   5.542   3.902   2.005  0.2623 -1.0336 -1.2442
17744TIP3   OH274722   2.717   5.995  15.854 -0.0025 -0.3084  0.2027
17744TIP3    H174723   2.794   6.052  15.859 -0.9961  1.4252 -2.3950
17744TIP3    H274724   2.736   5.933  15.784 -1.2589  0.7187 -1.1022
17745TIP3   OH274725   4.971   2.942  11.448 -0.0558  0.5309  0.0829
17745TIP3    H174726   5.030   2.904  11.383 -0.3617 -0.0123  0.1173
17745TIP3    H274727   5.003   3.031  11.460  1.0617  0.0997  0.4500
17746TIP3   OH274728   3.701   0.580   1.214 -0.4098 -0.3580 -1.0324
17746TIP3    H174729   3.625   0.522   1.206  0.0106 -0.9521 -0.7760
17746TIP3    H274730   3.740   0.557   1.298 -1.5709  1.9171  0.2350
17747TIP3   OH274731   2.572   4.314   1.341 -0.4162 -0.3381  0.3245
17747TIP3    H174732   2.550   4.390   1.287 -2.1558 -1.3654 -0.5027
17747TIP3    H274733   2.629   4.349   1.410  0.8738  1.2427 -1.4309
17748TIP3   OH274734   4.052   6.220   5.026 -0.6792  0.1483  0.0498
17748TIP3    H174735   3.997   6.149   5.059 -0.4380  0.5168  1.3109
17748TIP3    H274736   4.036   6.292   5.086  1.1657  0.2676  0.4656
17749TIP3   OH274737   6.077   1.696   1.589  0.5419 -0.1261 -0.0859
17749TIP3    H174738   6.092   1.754   1.664 -2.1265  0.6947 -0.0777
17749TIP3    H274739   6.157   1.704   1.537  0.3278  3.7974 -0.1611
17750TIP3   OH274740   0.424   6.009  15.323 -0.1779  1.0262 -0.2197
17750TIP3    H174741   0.460   5.956  15.252 -1.1608 -2.2785  1.5290
17750TIP3    H274742   0.330   6.015  15.304 -0.2018  1.4702  0.0107
17751TIP3   OH274743   1.383   2.430   3.854  0.1877  0.4366 -0.4370
17751TIP3    H174744   1.440   2.446   3.929  0.2739  1.5019 -0.7161
17751TIP3    H274745   1.307   2.383   3.891  1.3249 -1.2489 -0.1152
17752TIP3   OH274746   2.008   0.789  13.335  0.0957  0.5850 -0.4239
17752TIP3    H174747   2.023   0.700  13.367 -0.4758 -0.0888 -1.9183
17752TIP3    H274748   2.069   0.843  13.385  1.8853 -0.9258 -0.8618
17753TIP3   OH274749   0.921   2.871  14.554  0.6142 -0.0472  0.3798
17753TIP3    H174750   0.885   2.856  14.642  2.4750  0.2368  1.2457
17753TIP3    H274751   0.872   2.945  14.520 -1.0615 -1.0089  0.5959
17754TIP3   OH274752   5.829   4.744  13.173  0.5102 -0.1569  0.0845
17754TIP3    H174753   5.821   4.717  13.082 -1.1541  0.4275  0.0258
17754TIP3    H274754   5.748   4.713  13.214  1.4018 -0.7541  1.4678
17755TIP3   OH274755   5.454   6.002   5.417 -0.2751 -0.1463 -0.1754
17755TIP3    H174756   5.430   5.911   5.399  0.8930 -0.5813  0.3275
17755TIP3    H274757   5.549   6.004   5.405 -0.3329  1.1068 -0.5539
17756TIP3   OH274758   0.240   3.368  10.564 -0.1057  0.0440  0.2432
17756TIP3    H174759   0.241   3.453  10.520  1.4116  0.2679  0.6310
17756TIP3    H274760   0.167   3.372  10.624 -0.3173  0.9100 -0.0597
17757TIP3   OH274761   4.132   6.159   2.118 -1.1292  0.4437 -0.0444
17757TIP3    H174762   4.202   6.109   2.159 -0.4527  1.6225  0.2757
17757TIP3    H274763   4.093   6.098   2.055 -1.4440 -1.0181  1.4974
17758TIP3   OH274764   1.933   0.264   0.128  0.1092 -0.3991 -0.3583
17758TIP3    H174765   1.856   0.241   0.077 -2.1081  1.2138  2.0021
17758TIP3    H274766   1.938   0.196   0.195  0.6358 -0.3795 -0.3747
17759TIP3   OH274767   2.367   0.261   1.786 -0.3286  0.2534 -0.7091
17759TIP3    H174768   2.400   0.228   1.870  1.6917  1.1250 -1.0989
17759TIP3    H274769   2.289   0.312   1.810 -1.4587 -1.8252  0.2783
17760TIP3   OH274770   1.980   6.008   4.293 -0.1797  0.4067  0.1203
17760TIP3    H174771   2.003   5.939   4.231 -0.0409 -0.8041  1.4663
17760TIP3    H274772   1.896   6.042   4.262 -0.8596 -1.2176  0.0829
17761TIP3   OH274773   2.332   4.644   5.295  0.0611  0.6664  0.0834
17761TIP3    H174774   2.340   4.689   5.380 -1.5519 -1.3065  1.3706
17761TIP3    H274775   2.419   4.653   5.256  1.9489 -1.0179  3.3799
17762TIP3   OH274776   4.223   3.091  11.260  0.1161 -0.3899  0.4220
17762TIP3    H174777   4.156   3.077  11.327 -1.6023  0.6054 -1.0147
17762TIP3    H274778   4.203   3.028  11.192  1.3830 -0.8727  0.4707
17763TIP3   OH274779   5.357   3.913  16.789  0.3579  0.0011  0.5128
17763TIP3    H174780   5.419   3.940  16.721  2.2218  0.8509  2.4093
17763TIP3    H274781   5.382   3.965  16.865 -1.1625 -1.4188  2.0611
17764TIP3   OH274782   2.693   5.929  16.146 -0.7208 -0.1269 -0.3286
17764TIP3    H174783   2.617   5.870  16.143 -1.6375  0.9068  1.2473
17764TIP3    H274784   2.723   5.933  16.055 -1.3913 -2.0155 -0.6867
17765TIP3   OH274785   2.862   5.527   5.313  0.4049 -0.3615 -0.2497
17765TIP3    H174786   2.852   5.609   5.361 -0.0889 -0.9924  0.7479
17765TIP3    H274787   2.941   5.540   5.260  1.4571  0.0491  1.3587
17766TIP3   OH274788   0.455   3.366  16.974 -0.2002 -0.0203 -0.5642
17766TIP3    H174789   0.448   3.342  16.881 -2.1366 -1.9271  0.0099
17766TIP3    H274790   0.544   3.401  16.982 -0.3140  1.1790 -3.3244
17767TIP3   OH274791   1.950   6.769   0.560 -0.2647  0.8918  0.2033
17767TIP3    H174792   2.040   6.737   0.565 -0.5615  0.1622  1.8236
17767TIP3    H274793   1.902   6.714   0.623 -2.2049  0.1046 -1.8211
17768TIP3   OH274794   4.758   0.309   4.985  0.1340 -0.2457 -0.2832
17768TIP3    H174795   4.847   0.341   4.970  0.3818 -0.7968  0.0059
17768TIP3    H274796   4.716   0.317   4.899  0.8992 -1.3454 -0.7795
17769TIP3   OH274797   1.381   4.905   4.971  0.0700 -0.0540 -0.1130
17769TIP3    H174798   1.289   4.924   4.953  0.0185 -1.0851 -1.0675
17769TIP3    H274799   1.404   4.962   5.044 -1.1659  0.6296 -0.2366
17770TIP3   OH274800   6.115   2.215   5.237  0.3636 -0.2609  0.0762
17770TIP3    H174801   6.039   2.156   5.239 -0.8120  1.1988  0.4214
17770TIP3    H274802   6.137   2.222   5.144 -1.4541  1.0957 -0.3136
17771TIP3   OH274803   1.772   5.893   0.648 -0.4693 -0.5694 -0.2018
17771TIP3    H174804   1.754   5.901   0.554 -1.0058 -2.6301 -0.3260
17771TIP3    H274805   1.708   5.829   0.679  1.0778 -1.5536  1.1101
17772TIP3   OH274806   1.446   5.050  14.493 -0.5470  0.1031 -0.4777
17772TIP3    H174807   1.535   5.021  14.510  0.4148  2.4318 -1.1891
17772TIP3    H274808   1.443   5.064  14.398 -2.4861 -2.2975 -0.8702
17773TIP3   OH274809   1.737   0.302  15.082 -0.1938  0.4235  0.3570
17773TIP3    H174810   1.760   0.209  15.078  1.8302  0.8969  0.1993
17773TIP3    H274811   1.678   0.309  15.157  0.1870 -0.8805  0.8062
17774TIP3   OH274812   6.451   1.594   1.528  0.0211 -0.1280  0.6467
17774TIP3    H174813   6.447   1.678   1.573 -3.1587  0.3305 -0.2148
17774TIP3    H274814   6.404   1.608   1.446  0.4111 -2.4503 -0.0608
17775TIP3   OH274815   2.393   0.316   6.103  0.6939 -0.5930 -0.2152
17775TIP3    H174816   2.422   0.369   6.177 -0.5631  0.6082 -0.5287
17775TIP3    H274817   2.310   0.279   6.133 -0.4154  0.8290 -1.3699
17776TIP3   OH274818   5.322   4.971   3.923  0.4230  0.0229  0.3265
17776TIP3    H174819   5.350   4.947   4.012 -0.0689 -0.1122  0.4480
17776TIP3    H274820   5.304   5.065   3.928  0.4932  0.0350  0.3468
17777TIP3   OH274821   2.121   4.311  15.200 -0.0193 -0.2937  0.4792
17777TIP3    H174822   2.075   4.277  15.277  0.9439 -0.5876  0.9483
17777TIP3    H274823   2.214   4.304  15.224  0.2404  1.2905 -0.0022
17778TIP3   OH274824   4.446   0.371   3.070 -0.2829 -0.5353 -0.6780
17778TIP3    H174825   4.362   0.348   3.030 -1.5183  1.2666  0.6797
17778TIP3    H274826   4.506   0.303   3.041 -2.2803 -2.0731 -1.4627
17779TIP3   OH274827   3.271   1.168  13.259 -0.1238  0.4504 -0.3735
17779TIP3    H174828   3.271   1.221  13.338  0.4955  0.4399 -0.3557
17779TIP3    H274829   3.204   1.102  13.273  2.0150 -1.5265  1.5033
17780TIP3   OH274830   6.439   0.570   4.064 -0.1678 -0.1827  1.0220
17780TIP3    H174831   6.353   0.573   4.106 -0.2786 -2.2686  1.0629
17780TIP3    H274832   6.422   0.588   3.972 -0.9405 -2.1165  0.7378
17781TIP3   OH274833   5.757   6.414  10.314  0.1938 -0.3575 -0.8150
17781TIP3    H174834   5.691   6.353  10.350 -0.4633  0.6820 -0.1917
17781TIP3    H274835   5.706   6.492  10.292  1.2491  0.5482 -0.1222
17782TIP3   OH274836   4.434   6.228   3.614  0.0457 -0.2239 -0.2551
17782TIP3    H174837   4.381   6.294   3.569  0.2626 -0.7660 -1.3108
17782TIP3    H274838   4.524   6.245   3.587  0.5442  0.9632  1.8614
17783TIP3   OH274839   0.051   3.420  13.795  0.5037  0.1494  0.3178
17783TIP3    H174840   0.122   3.465  13.750  0.1559  0.3219 -0.0625
17783TIP3    H274841   0.055   3.452  13.885  1.6427 -0.7140  0.5942
17784TIP3   OH274842   1.148   2.078   5.423  0.7417  0.1215  0.3226
17784TIP3    H174843   1.150   2.157   5.369  0.4403 -0.4333 -0.5137
17784TIP3    H274844   1.057   2.070   5.450  0.8241  0.2027  0.6312
17785TIP3   OH274845   2.185   1.681   3.645 -0.1634 -0.0297 -0.2507
17785TIP3    H174846   2.219   1.658   3.732  0.9669  2.5656  0.0803
17785TIP3    H274847   2.253   1.649   3.585  2.0046  3.1356  0.2720
17786TIP3   OH274848   6.316   3.390  15.841  0.2816  0.0399 -0.1608
17786TIP3    H174849   6.294   3.482  15.857  0.3509 -0.1245  1.0080
17786TIP3    H274850   6.262   3.365  15.766 -3.9905 -0.4425  2.7164
17787TIP3   OH274851   2.199   3.581   2.990 -0.3811 -0.2248 -0.4700
17787TIP3    H174852   2.192   3.498   3.037  1.2655 -0.1414 -0.0144
17787TIP3    H274853   2.153   3.644   3.045 -0.1299 -0.4982  0.0505
17788TIP3   OH274854   0.124   2.865  10.555 -0.1310  0.5144  0.6257
17788TIP3    H174855   0.083   2.951  10.558 -0.2419  0.4741  0.3329
17788TIP3    H274856   0.143   2.851  10.462  0.1452  0.3452  0.7072
17789TIP3   OH274857   2.260   6.438   3.531 -0.0840 -0.2558  0.0747
17789TIP3    H174858   2.306   6.514   3.566 -1.8515 -0.0053  2.1266
17789TIP3    H274859   2.235   6.464   3.443  2.1420  0.2258 -0.4763
17790TIP3   OH274860   5.135   3.067   2.979 -0.6491  0.4727 -0.8328
17790TIP3    H174861   5.134   3.017   2.898  0.7723 -0.1631 -0.4837
17790TIP3    H274862   5.227   3.079   3.000 -0.9782  0.8537  0.5606
17791TIP3   OH274863   3.567   3.313  14.907 -0.2880 -0.2130  0.1251
17791TIP3    H174864   3.577   3.230  14.860  1.6665  0.6638 -1.1313
17791TIP3    H274865   3.642   3.316  14.966  0.4276  1.1990 -0.7884
17792TIP3   OH274866   2.514   1.162  14.054  0.0682  0.6191 -0.3960
17792TIP3    H174867   2.435   1.216  14.049 -0.0775  0.6156  1.3571
17792TIP3    H274868   2.563   1.197  14.128  1.8910  0.7914 -1.6102
17793TIP3   OH274869   6.147   3.874  10.684 -0.4878 -0.5460 -0.2499
17793TIP3    H174870   6.208   3.857  10.613 -1.1299 -0.5403 -0.8077
17793TIP3    H274871   6.081   3.804  10.678 -1.1784  0.0979 -0.3794
17794TIP3   OH274872   1.025   3.224   0.180  0.3383  0.5669 -1.2311
17794TIP3    H174873   1.002   3.167   0.253  0.7574 -0.0738 -1.5918
17794TIP3    H274874   0.948   3.279   0.167  0.6339  1.4148  0.3668
17795TIP3   OH274875   4.154   4.411   2.734  0.1879 -0.2510  0.6788
17795TIP3    H174876   4.116   4.337   2.781 -0.3394 -0.0469  0.5861
17795TIP3    H274877   4.096   4.424   2.658  0.4925  0.0128  0.4903
17796TIP3   OH274878   0.348   1.726   2.313 -0.0877  0.1393  0.2261
17796TIP3    H174879   0.434   1.753   2.283 -0.0252  0.6603  0.8428
17796TIP3    H274880   0.358   1.713   2.407 -0.8742  1.0523  0.4524
17797TIP3   OH274881   0.059   1.257  17.096  0.6943  0.5956 -0.3615
17797TIP3    H174882  -0.017   1.299  17.057 -2.1906 -1.3197  2.7310
17797TIP3    H274883   0.064   1.291  17.185  1.6021 -1.4958  0.4630
17798TIP3   OH274884   1.962   5.039   0.690  0.0475  0.6546 -0.3296
17798TIP3    H174885   2.050   5.066   0.665  0.7125 -1.3753 -0.3518
17798TIP3    H274886   1.952   5.068   0.780  0.2430  1.9738 -0.7063
17799TIP3   OH274887   4.086   5.343  11.167 -0.2007 -0.3256 -0.0324
17799TIP3    H174888   4.150   5.274  11.152  0.2093  0.3105 -1.2895
17799TIP3    H274889   4.016   5.325  11.104 -0.4192  0.0107  0.1099
17800TIP3   OH274890   0.334   1.017   6.253 -0.2418  0.0987  0.0498
17800TIP3    H174891   0.332   1.089   6.315  1.3912  1.7680 -1.7216
17800TIP3    H274892   0.276   1.044   6.182  1.5010  0.3825 -1.3173
17801TIP3   OH274893   2.854   6.331   2.503 -0.4484 -0.8054 -0.3820
17801TIP3    H174894   2.925   6.271   2.479 -0.7242 -2.8148  3.1678
17801TIP3    H274895   2.898   6.416   2.512  1.0962 -1.5630 -0.3589
17802TIP3   OH274896   1.967   6.340  14.329  0.1121 -0.0366  0.3666
17802TIP3    H174897   1.887   6.289  14.320 -0.1076  0.4087 -0.2593
17802TIP3    H274898   1.946   6.406  14.395  0.7973 -1.4965  2.1451
17803TIP3   OH274899   2.938   4.085   3.290 -0.1192  0.0709  0.3013
17803TIP3    H174900   2.889   4.144   3.233  1.1614  0.0961 -0.8284
17803TIP3    H274901   2.927   3.998   3.250  1.3504  0.1893 -0.4404
17804TIP3   OH274902   4.668   0.960   4.265  0.2571  0.1203 -0.3369
17804TIP3    H174903   4.584   0.945   4.221  0.6551 -0.9403 -0.7476
17804TIP3    H274904   4.644   1.005   4.346 -0.6438  0.4704 -0.7826
17805TIP3   OH274905   0.092   1.681   3.695  0.6098 -0.1252 -0.4476
17805TIP3    H174906   0.101   1.738   3.772  1.2778 -0.8481  0.0353
17805TIP3    H274907   0.156   1.714   3.633  1.8723 -1.0613  0.3076
17806TIP3   OH274908   2.910   5.823  15.036  0.0452  0.1863 -0.4058
17806TIP3    H174909   2.943   5.913  15.045  0.1036  0.1327 -0.0824
17806TIP3    H274910   2.909   5.808  14.941 -2.4820  1.4645 -0.6566
17807TIP3   OH274911   2.949   3.134   1.173 -0.2569 -0.6006 -0.0018
17807TIP3    H174912   2.860   3.130   1.137 -1.2857  1.4998  2.0388
17807TIP3    H274913   2.937   3.162   1.264  2.3951 -2.4175  1.0310
17808TIP3   OH274914   1.579   1.862  14.468  0.1195 -0.5308  0.3325
17808TIP3    H174915   1.524   1.923  14.418 -0.7316 -0.7749  0.9444
17808TIP3    H274916   1.537   1.777  14.457  1.0926 -0.9453 -0.2070
17809TIP3   OH274917   2.229   1.988   2.698  0.3449 -0.5805 -0.3560
17809TIP3    H174918   2.235   2.046   2.774  1.5552 -1.4408  0.2415
17809TIP3    H274919   2.242   1.900   2.733 -1.7171 -1.2843 -1.2111
17810TIP3   OH274920   4.572   3.314   3.585  0.2477  0.0615 -0.8872
17810TIP3    H174921   4.613   3.374   3.522  1.7851 -2.0381 -2.0188
17810TIP3    H274922   4.631   3.316   3.661  0.4684 -0.2306 -1.0488
17811TIP3   OH274923   2.270   6.738   1.852 -0.0265  0.2975  0.4414
17811TIP3    H174924   2.353   6.785   1.845  0.2119 -0.2778 -0.9455
17811TIP3    H274925   2.214   6.797   1.903  2.0025 -0.4838  3.8366
17812TIP3   OH274926   5.588   4.753   0.538  0.8988  0.7476  0.6206
17812TIP3    H174927   5.610   4.738   0.446  1.1032  1.1278  0.6071
17812TIP3    H274928   5.527   4.827   0.536  2.5963  2.2313  0.9409
17813TIP3   OH274929   0.665   3.530   0.272 -0.2287 -0.0257 -0.4213
17813TIP3    H174930   0.649   3.489   0.357  1.2285  0.4954  0.1343
17813TIP3    H274931   0.580   3.529   0.228 -1.2103  0.5071  1.3911
17814TIP3   OH274932   6.417   3.502   1.778  0.0051 -0.3844 -0.3754
17814TIP3    H174933   6.458   3.485   1.862 -1.3919 -0.3960  0.3341
17814TIP3    H274934   6.484   3.546   1.727  0.7723 -0.0903  0.8533
17815TIP3   OH274935   3.211   4.769  14.030 -0.5492 -0.5832 -0.3044
17815TIP3    H174936   3.125   4.811  14.032 -1.3320 -2.1529  0.2334
17815TIP3    H274937   3.218   4.726  14.115 -0.0755 -2.1159 -1.0922
17816TIP3   OH274938   4.687   4.741   1.758 -0.7097  0.4017  0.0045
17816TIP3    H174939   4.651   4.829   1.754 -0.9028  0.3433  0.4433
17816TIP3    H274940   4.692   4.713   1.666 -2.3983  0.1626 -0.0487
17817TIP3   OH274941   4.151   0.645  11.409 -0.1115  0.0344 -0.2947
17817TIP3    H174942   4.230   0.651  11.463 -0.4949  1.8593  0.1212
17817TIP3    H274943   4.078   0.657  11.470 -0.5798  1.2024 -1.0428
17818TIP3   OH274944   3.046   0.026  16.795  0.1481 -0.1071 -0.4742
17818TIP3    H174945   2.993  -0.049  16.767 -0.3886 -0.0560  0.3900
17818TIP3    H274946   3.058   0.078  16.715 -1.4938  0.1236 -0.6050
17819TIP3   OH274947   0.784   4.591   6.101 -0.1915  0.3848 -0.5943
17819TIP3    H174948   0.867   4.617   6.141 -0.4766  1.0683 -0.4370
17819TIP3    H274949   0.725   4.577   6.175 -0.6301  1.3435 -0.7544
17820TIP3   OH274950   4.784   4.598   2.575  0.6611  0.7533 -0.5224
17820TIP3    H174951   4.761   4.687   2.602  0.2792  0.2448  0.9316
17820TIP3    H274952   4.861   4.576   2.628  0.9282  0.3179 -1.0819
17821TIP3   OH274953   4.397   0.007  15.108 -0.3351 -0.4046 -0.9516
17821TIP3    H174954   4.341   0.049  15.043 -1.8512  0.7431  0.9771
17821TIP3    H274955   4.421   0.078  15.168 -2.7712 -2.0493  2.3188
17822TIP3   OH274956   1.616   2.395  12.494 -0.0072 -0.9162 -0.2024
17822TIP3    H174957   1.703   2.385  12.534 -0.5099  1.9449  2.0418
17822TIP3    H274958   1.633   2.434  12.408  0.9783  0.0627  0.4057
17823TIP3   OH274959   0.626   5.636  12.502  0.0082  0.0873  0.4334
17823TIP3    H174960   0.672   5.633  12.586  0.7381  2.1850  0.1643
17823TIP3    H274961   0.582   5.721  12.502  0.1468  0.2003 -1.3747
17824TIP3   OH274962   6.658   2.231   0.366  0.3190 -0.4729  0.0631
17824TIP3    H174963   6.631   2.311   0.322  0.7992 -0.0574  0.5175
17824TIP3    H274964   6.576   2.186   0.386  0.0512 -0.1229 -0.2490
17825TIP3   OH274965   2.373   3.452   2.740  0.5145 -0.3826  0.5420
17825TIP3    H174966   2.331   3.487   2.661  0.2630 -0.0224  0.8321
17825TIP3    H274967   2.305   3.453   2.806  0.3686 -1.8433  0.4593
17826TIP3   OH274968   3.803   2.209   0.071 -0.0709  0.4906 -0.7549
17826TIP3    H174969   3.813   2.292   0.025 -0.3902  0.1203 -1.5212
17826TIP3    H274970   3.735   2.162   0.022 -2.9177  1.3852  1.9698
17827TIP3   OH274971   4.963   4.680   2.181  0.1723  0.0845  0.0729
17827TIP3    H174972   4.945   4.735   2.105 -2.0671 -0.9203 -0.2025
17827TIP3    H274973   5.048   4.640   2.162  0.2845  0.8823 -1.2433
17828TIP3   OH274974   6.595   4.684  16.328  0.4970  0.2579 -0.2683
17828TIP3    H174975   6.522   4.686  16.390  1.0088 -0.3113  0.3808
17828TIP3    H274976   6.615   4.776  16.311 -0.3352  0.4177 -0.4192
17829TIP3   OH274977   0.839   0.403   0.970 -0.3535  0.1213  0.7420
17829TIP3    H174978   0.842   0.499   0.968 -2.3929  0.2366  0.2095
17829TIP3    H274979   0.750   0.382   0.940 -1.1197 -1.8250  3.8700
17830TIP3   OH274980   6.419   3.712   4.853  0.3513 -0.2728  0.1256
17830TIP3    H174981   6.494   3.772   4.849  0.5771 -0.6066 -1.4559
17830TIP3    H274982   6.433   3.652   4.779 -1.0730 -0.8293  0.2840
17831TIP3   OH274983   4.954   0.898   6.271 -0.1289 -0.4549 -0.5449
17831TIP3    H174984   4.921   0.972   6.320 -0.8371 -0.9717 -0.2338
17831TIP3    H274985   5.026   0.864   6.324 -0.6950 -0.8250 -0.0030
17832TIP3   OH274986   6.534   3.251   2.074 -0.1066  0.1233 -0.3011
17832TIP3    H174987   6.444   3.234   2.047 -1.4485  0.5488  3.2790
17832TIP3    H274988   6.586   3.190   2.023 -2.9085 -2.9788  0.1802
17833TIP3   OH274989   5.703   6.833  16.037 -0.0387 -0.0450 -0.1005
17833TIP3    H174990   5.612   6.840  16.007 -0.2549  0.0300  0.5580
17833TIP3    H274991   5.698   6.777  16.114  0.5360 -0.3849 -0.3080
17834TIP3   OH274992   0.359   2.381   0.181  0.7698 -0.0086 -0.4305
17834TIP3    H174993   0.282   2.375   0.237  1.0393 -1.2277 -0.1564
17834TIP3    H274994   0.358   2.299   0.131  3.6653 -1.6818  1.9449
17835TIP3   OH274995   5.293   0.354   1.473 -0.3880 -0.4668 -0.1283
17835TIP3    H174996   5.237   0.370   1.397  0.5984 -1.3874 -1.0824
17835TIP3    H274997   5.356   0.288   1.443  2.5041  1.9109  0.2212
17836TIP3   OH274998   0.020   5.755   3.031  0.3230 -0.2613  0.4070
17836TIP3    H174999  -0.065   5.798   3.038 -0.8005 -1.7799 -2.1517
17836TIP3    H275000   0.044   5.732   3.121 -0.2688  3.1591  1.5742
17837TIP3   OH275001   4.026   0.758   0.973 -0.3281 -0.4765  0.1047
17837TIP3    H175002   4.091   0.777   1.040 -0.1158  1.7535 -0.6648
17837TIP3    H275003   3.944   0.794   1.008 -0.3152  0.2531 -0.5949
17838TIP3   OH275004   4.395   3.712   3.164 -0.5268  0.1143 -0.4559
17838TIP3    H175005   4.481   3.672   3.179 -1.8833 -2.2833  1.7918
17838TIP3    H275006   4.388   3.779   3.232 -0.0984  1.0252 -1.2801
17839TIP3   OH275007   6.024   1.054  16.315 -0.0315  0.2766 -0.3300
17839TIP3    H175008   6.067   1.137  16.335  1.1136 -0.0532 -1.3530
17839TIP3    H275009   6.053   0.994  16.384 -1.5328  0.9018  0.9119
17840TIP3   OH275010   4.631   1.690   6.493 -0.3859  0.1380  0.0340
17840TIP3    H175011   4.686   1.624   6.534  1.8636  1.1615 -1.1669
17840TIP3    H275012   4.624   1.759   6.559  0.5251  0.3794 -0.1099
17841TIP3   OH275013   2.293   4.932   3.641 -0.3629 -0.0168  0.4467
17841TIP3    H175014   2.259   4.842   3.640 -1.1853  0.2919 -0.6162
17841TIP3    H275015   2.385   4.922   3.665 -0.5878 -1.0914  0.9166
17842TIP3   OH275016   0.776   1.949  15.069 -0.1810  0.4238  0.6442
17842TIP3    H175017   0.827   1.888  15.122 -1.7579 -0.0009  1.7562
17842TIP3    H275018   0.791   2.034  15.108  1.0875  0.6170 -0.1832
17843TIP3   OH275019   5.588   3.384   0.425 -0.1575 -0.0580 -0.0834
17843TIP3    H175020   5.596   3.468   0.470 -0.6019  0.1243 -0.3362
17843TIP3    H275021   5.613   3.403   0.334 -0.0758 -0.2418 -0.0992
17844TIP3   OH275022   0.169   2.333  16.276  0.0569 -0.4601 -0.6092
17844TIP3    H175023   0.156   2.280  16.354 -2.6382 -0.0908 -0.6849
17844TIP3    H275024   0.257   2.368  16.285  0.9657 -2.8425  0.7079
17845TIP3   OH275025   5.676   1.127   6.225 -0.0605 -0.1676  0.0675
17845TIP3    H175026   5.664   1.102   6.317  0.9995 -1.3182 -0.0657
17845TIP3    H275027   5.672   1.044   6.177 -2.4969  0.5928 -1.1956
17846TIP3   OH275028   1.674   2.191  16.799  0.2814 -0.6365 -0.0176
17846TIP3    H175029   1.719   2.254  16.856  0.2379  0.7551 -1.4262
17846TIP3    H275030   1.581   2.210  16.811  0.2798 -0.1908 -0.6748
17847TIP3   OH275031   5.858   0.434   1.055 -0.0719  0.6182  0.1253
17847TIP3    H175032   5.883   0.379   0.981  0.6720  3.7671 -2.2107
17847TIP3    H275033   5.861   0.376   1.130  2.2519 -2.1167 -1.8411
17848TIP3   OH275034   3.568   4.752   0.442  0.0758 -0.1172 -0.3732
17848TIP3    H175035   3.611   4.682   0.393 -1.1103  0.4332 -2.3183
17848TIP3    H275036   3.481   4.717   0.462 -0.3125  0.5486 -0.8426
17849TIP3   OH275037   1.138   0.899  14.912 -0.5746 -0.4816 -0.4181
17849TIP3    H175038   1.060   0.936  14.872 -0.9148 -0.1403  0.5291
17849TIP3    H275039   1.131   0.805  14.897 -1.0816 -0.4322 -0.4911
17850TIP3   OH275040   1.310   1.216   5.441  0.1748 -0.2185 -1.0399
17850TIP3    H175041   1.277   1.212   5.531 -1.4405  1.3114 -1.4970
17850TIP3    H275042   1.365   1.138   5.432 -1.2911 -1.5359  0.6255
17851TIP3   OH275043   5.306   1.131   5.091  0.1458  0.1851 -0.7677
17851TIP3    H175044   5.284   1.147   4.999 -0.4915  0.9961 -0.4790
17851TIP3    H275045   5.389   1.083   5.087  0.5603  0.9493 -1.7366
17852TIP3   OH275046   4.923   3.573  15.817 -0.2294 -0.5549  0.0579
17852TIP3    H175047   4.989   3.641  15.813  0.7208 -1.4771 -0.6505
17852TIP3    H275048   4.840   3.617  15.798  0.4114  0.3362 -0.7122
17853TIP3   OH275049   3.177   5.920  12.159  0.3518 -0.6004  0.0500
17853TIP3    H175050   3.203   6.012  12.161 -1.1637 -0.1097 -1.0147
17853TIP3    H275051   3.200   5.887  12.246  0.5133  0.8931  0.6092
17854TIP3   OH275052   0.677   0.599  16.609  0.3169  0.3978 -0.0627
17854TIP3    H175053   0.592   0.614  16.566  0.0043  0.2330  0.4877
17854TIP3    H275054   0.683   0.667  16.675  0.5090  0.2637  0.0596
17855TIP3   OH275055   1.593   0.746  14.945 -0.3109  0.2280  0.0243
17855TIP3    H175056   1.671   0.693  14.928 -0.1489  0.0740  1.1611
17855TIP3    H275057   1.618   0.804  15.017 -1.7480 -1.0352  1.6288
17856TIP3   OH275058   2.436   2.144  13.078  0.3827  0.1072 -0.2003
17856TIP3    H175059   2.516   2.131  13.131  1.4860  1.1371 -1.5337
17856TIP3    H275060   2.366   2.152  13.143  1.5545  0.4882  1.0734
17857TIP3   OH275061   4.590   1.930   1.498 -0.2034  0.1302 -0.1860
17857TIP3    H175062   4.664   1.975   1.458 -0.4460  0.6557 -0.0491
17857TIP3    H275063   4.517   1.946   1.440 -0.4839  0.6331  0.2940
17858TIP3   OH275064   2.495   4.584   5.738  0.3923 -0.0923 -0.1268
17858TIP3    H175065   2.460   4.623   5.818 -1.0192 -3.8507  1.2983
17858TIP3    H275066   2.439   4.617   5.668 -1.3123 -0.2377  1.1133
17859TIP3   OH275067   1.578   1.809   2.722 -0.2256 -0.2874 -1.0682
17859TIP3    H175068   1.622   1.777   2.801 -0.6117  0.6513 -0.4637
17859TIP3    H275069   1.486   1.789   2.736 -0.4730  1.0852 -0.6744
17860TIP3   OH275070   4.154   6.281   3.295  0.1322 -0.7923  0.5657
17860TIP3    H175071   4.113   6.226   3.361 -0.9332  0.6518  1.1730
17860TIP3    H275072   4.090   6.284   3.223  0.3287 -0.6258  0.3966
17861TIP3   OH275073   0.667   6.242  15.597 -0.1596 -0.4398  0.1422
17861TIP3    H175074   0.664   6.150  15.570  0.2172 -0.2356 -0.6170
17861TIP3    H275075   0.577   6.263  15.621 -0.4874 -0.6531 -0.8970
17862TIP3   OH275076   5.446   6.838   0.618 -0.0195 -0.1866  0.2858
17862TIP3    H175077   5.353   6.848   0.640 -0.3775 -0.6179 -0.9540
17862TIP3    H275078   5.456   6.745   0.601  0.4846 -0.0369 -0.2449
17863TIP3   OH275079   4.742   5.945   1.142  0.1887 -0.1237  0.3538
17863TIP3    H175080   4.661   5.991   1.119  0.5111 -0.1046 -0.7962
17863TIP3    H275081   4.744   5.870   1.083 -0.2326 -1.5625  2.0565
17864TIP3   OH275082   2.479   6.518  12.069  0.6080 -0.1313  0.2500
17864TIP3    H175083   2.560   6.570  12.068  0.3349  0.3434  1.6505
17864TIP3    H275084   2.412   6.578  12.035  0.7422 -0.3657 -0.4415
17865TIP3   OH275085   5.414   3.873   0.127 -0.3596  0.2700  1.0536
17865TIP3    H175086   5.319   3.860   0.131 -0.4236  0.9213  2.0328
17865TIP3    H275087   5.435   3.922   0.206  0.7307  0.5771  0.6002
17866TIP3   OH275088   4.439   3.956  14.144 -0.1494 -0.4471 -0.8911
17866TIP3    H175089   4.441   3.866  14.177  0.4565  0.0163  0.4217
17866TIP3    H275090   4.352   3.987  14.166  0.3181 -0.0726  0.5709
17867TIP3   OH275091   4.019   4.849   3.542 -0.2655 -0.1914 -0.4597
17867TIP3    H175092   3.992   4.850   3.634 -0.8750 -0.0743 -0.6424
17867TIP3    H275093   3.958   4.789   3.500  0.8058 -1.2683 -0.5500
17868TIP3   OH275094   0.718   4.291  13.266  0.5320 -0.1058 -0.1729
17868TIP3    H175095   0.776   4.272  13.192 -0.0824 -0.3337 -0.5978
17868TIP3    H275096   0.765   4.359  13.315  1.2908 -0.4868 -0.3547
17869TIP3   OH275097   3.731   1.813  16.089  0.3383 -0.9907  0.5958
17869TIP3    H175098   3.814   1.764  16.090  0.5432 -0.6420  1.0209
17869TIP3    H275099   3.664   1.746  16.100  0.5846 -1.2441  0.5721
17870TIP3   OH275100   1.646   6.264  16.706 -0.4508 -0.4868  0.0100
17870TIP3    H175101   1.560   6.223  16.713 -1.5606  1.5047 -1.0335
17870TIP3    H275102   1.699   6.200  16.658 -2.1720 -0.6995 -1.7707
17871TIP3   OH275103   4.969   2.773  15.523 -0.4758  0.2136  0.4450
17871TIP3    H175104   4.976   2.838  15.594 -1.9928 -1.6504  2.4304
17871TIP3    H275105   4.976   2.689  15.568  0.9353 -1.0564 -1.9949
17872TIP3   OH275106   3.864   2.953  16.855 -0.1286 -0.5744  1.3169
17872TIP3    H175107   3.815   2.912  16.926  0.0878 -0.4265  1.5512
17872TIP3    H275108   3.807   2.943  16.779  0.4059 -2.3537  1.0957
17873TIP3   OH275109   0.471   1.427  10.534 -0.0791 -0.5806 -0.3375
17873TIP3    H175110   0.510   1.451  10.451  1.3139 -2.5476 -0.3189
17873TIP3    H275111   0.384   1.467  10.532  1.2727  2.6377 -1.0446
17874TIP3   OH275112   2.963   3.890  13.031 -0.1608 -0.2207 -0.0995
17874TIP3    H175113   2.998   3.815  12.984 -1.4801 -0.2015 -1.1771
17874TIP3    H275114   2.967   3.962  12.967 -1.3471 -0.0276  0.0224
17875TIP3   OH275115   3.409   1.058  15.197 -0.7125 -0.0615 -0.4067
17875TIP3    H175116   3.449   0.977  15.163 -0.8417 -0.7048  0.9316
17875TIP3    H275117   3.407   1.046  15.292 -0.7311  1.5293 -0.1849
17876TIP3   OH275118   0.592   6.125   6.770  0.5722  0.1952 -0.0844
17876TIP3    H175119   0.672   6.097   6.725  0.6930  1.3620 -0.6238
17876TIP3    H275120   0.623   6.164   6.852  0.5038  0.1155 -0.0195
17877TIP3   OH275121   2.598   4.661   0.877  0.0683  0.3839 -0.3490
17877TIP3    H175122   2.598   4.730   0.943  0.7802  0.3773 -0.3376
17877TIP3    H275123   2.683   4.669   0.834 -0.0850 -0.1058 -0.7467
17878TIP3   OH275124   2.596   3.776   3.969  0.2775 -0.2051  0.0597
17878TIP3    H175125   2.588   3.854   3.914  0.7666 -0.6355 -0.6455
17878TIP3    H275126   2.507   3.758   3.998 -0.4677 -1.3677 -2.6018
17879TIP3   OH275127   0.760   0.880   6.591 -0.5554 -0.0800  0.4050
17879TIP3    H175128   0.822   0.838   6.533  0.2394  0.4780  0.8307
17879TIP3    H275129   0.811   0.905   6.668 -0.3952  3.6540 -0.7094
17880TIP3   OH275130   3.926   3.678   1.306  0.5937  0.4403  0.0798
17880TIP3    H175131   3.989   3.694   1.236  0.7152  2.2390  0.5624
17880TIP3    H275132   3.979   3.661   1.383  0.4729  0.3782  0.1502
17881TIP3   OH275133   4.411   1.415  14.881 -0.5387  0.2578  0.0767
17881TIP3    H175134   4.400   1.507  14.902 -0.9323 -0.0006  1.0713
17881TIP3    H275135   4.338   1.394  14.823  0.7040  1.0455 -1.8774
17882TIP3   OH275136   3.246   2.846  13.303  0.4121 -0.5977 -0.0893
17882TIP3    H175137   3.317   2.822  13.243  0.4539 -0.0905 -0.2514
17882TIP3    H275138   3.191   2.768  13.307  0.4849 -0.6908 -0.6790
17883TIP3   OH275139   5.166   3.894  14.901 -0.3974 -0.0296  0.4618
17883TIP3    H175140   5.253   3.871  14.934 -0.5036 -0.2600  0.5879
17883TIP3    H275141   5.161   3.853  14.815 -0.4667 -0.2105  0.5516
17884TIP3   OH275142   3.449   4.243  15.212  0.2543  0.2450 -0.1282
17884TIP3    H175143   3.464   4.336  15.226  1.4021 -0.0018  0.4034
17884TIP3    H275144   3.354   4.234  15.204  0.0788  1.3430  0.6564
17885TIP3   OH275145   3.480   2.284  13.655  0.6292  0.3872 -0.6286
17885TIP3    H175146   3.541   2.270  13.583  0.4518 -1.6045 -0.4686
17885TIP3    H275147   3.529   2.336  13.719  1.9699 -0.6031 -0.7934
17886TIP3   OH275148   3.382   0.277  12.175  0.1045 -0.2932  0.1979
17886TIP3    H175149   3.424   0.361  12.189  1.7700 -0.7274 -1.7266
17886TIP3    H275150   3.349   0.282  12.085 -0.7232 -1.3246  0.4229
17887TIP3   OH275151   4.504   0.108   5.168  1.1168  0.2833 -0.0690
17887TIP3    H175152   4.524   0.027   5.215  0.5859 -0.7245 -1.5123
17887TIP3    H275153   4.514   0.085   5.076  0.6992  1.8009 -0.5193
17888TIP3   OH275154   0.375   4.770  12.092 -0.0868 -0.4722  0.4388
17888TIP3    H175155   0.382   4.820  12.173 -0.5612 -0.2355  0.3415
17888TIP3    H275156   0.371   4.679  12.120 -1.3913 -0.3377  0.7705
17889TIP3   OH275157   4.092   5.558   5.530 -0.3365 -0.4941  0.5802
17889TIP3    H175158   4.150   5.482   5.522 -0.9643 -1.0915  1.5301
17889TIP3    H275159   4.020   5.527   5.585 -0.0319  1.1158  1.9527
17890TIP3   OH275160   0.490   0.510  15.053 -0.0497 -0.3735  0.0357
17890TIP3    H175161   0.532   0.436  15.096 -1.0180  0.1272  1.9448
17890TIP3    H275162   0.398   0.483  15.043 -0.5497  0.7731  1.3176
17891TIP3   OH275163   5.999   6.767  16.482  0.0196  0.0553  0.7766
17891TIP3    H175164   6.033   6.856  16.479 -0.1958  0.1058 -1.4423
17891TIP3    H275165   5.907   6.777  16.506  0.2438  0.3105  1.5924
17892TIP3   OH275166   4.768   6.401  15.471  0.3963  0.1934  0.1942
17892TIP3    H175167   4.696   6.385  15.532  0.6236  1.4281  0.8180
17892TIP3    H275168   4.843   6.420  15.528  1.1107 -0.6165 -0.4511
17893TIP3   OH275169   2.730   4.030  12.179  0.0216  0.0447  0.1781
17893TIP3    H175170   2.698   4.092  12.113  0.3111 -1.4237 -1.4332
17893TIP3    H275171   2.659   3.967  12.189  0.9827 -1.2379 -0.7635
17894TIP3   OH275172   0.430   6.364   2.369  0.0393  0.3518 -0.6281
17894TIP3    H175173   0.502   6.404   2.418  0.0165 -1.2079  0.7353
17894TIP3    H275174   0.358   6.426   2.378  0.3901  0.6378  0.3276
17895TIP3   OH275175   5.678   5.980   0.659  0.0561 -0.2312  0.4144
17895TIP3    H175176   5.611   5.913   0.647  0.6152 -0.6727 -0.2981
17895TIP3    H275177   5.695   5.980   0.753 -1.6182  0.5718  0.7750
17896TIP3   OH275178   2.857   5.562  13.991  0.0596  0.0990 -0.4746
17896TIP3    H175179   2.902   5.480  13.970  1.1608  0.5503  0.0446
17896TIP3    H275180   2.911   5.602  14.059 -0.3086  1.3852 -0.9126
17897TIP3   OH275181   4.286   3.684  14.271  0.1170  0.4907  0.0754
17897TIP3    H175182   4.331   3.614  14.224  1.0692  0.0811  1.5309
17897TIP3    H275183   4.198   3.650  14.285 -0.3179  0.7818 -1.7038
17898TIP3   OH275184   0.012   3.727   5.943  0.0865 -0.1497  0.3597
17898TIP3    H175185  -0.061   3.671   5.918 -0.8783  1.2221 -0.0390
17898TIP3    H275186   0.064   3.674   6.004 -1.3346 -1.0992  0.7938
17899TIP3   OH275187   4.153   3.126   3.753 -0.5364  0.1417  0.1912
17899TIP3    H175188   4.071   3.151   3.795 -1.5272  1.7313 -2.4352
17899TIP3    H275189   4.202   3.208   3.743  0.3000 -0.4059 -0.3860
17900TIP3   OH275190   1.656   0.201  13.113  0.4196 -0.1989  0.0336
17900TIP3    H175191   1.714   0.165  13.181 -0.4486 -0.3046  0.7340
17900TIP3    H275192   1.647   0.293  13.136 -0.2881 -0.3492  0.3616
17901TIP3   OH275193   3.636   5.866  12.908  1.1457 -0.0916 -0.2648
17901TIP3    H175194   3.721   5.875  12.865  2.6630  0.8720  2.6804
17901TIP3    H275195   3.640   5.781  12.952  0.4353 -0.1812 -0.3562
17902TIP3   OH275196   6.427   4.983   0.735  0.5761 -0.4030  0.5203
17902TIP3    H175197   6.498   4.925   0.762  2.3501  0.8064 -1.2335
17902TIP3    H275198   6.454   5.069   0.768 -1.0368 -0.2189  1.4221
17903TIP3   OH275199   5.925   4.613  14.236  0.2583  0.1505  0.0900
17903TIP3    H175200   5.952   4.554  14.306  0.3134  1.0561  0.8506
17903TIP3    H275201   6.001   4.617  14.178 -0.0725 -1.2288 -0.4730
17904TIP3   OH275202   0.870   5.508   1.363  0.0201 -0.1342  0.2358
17904TIP3    H175203   0.828   5.586   1.399  1.0408  0.5912 -0.0946
17904TIP3    H275204   0.798   5.449   1.343 -0.6809  0.0542  2.0167
17905TIP3   OH275205   0.105   4.386  14.919 -0.0735 -0.5288  0.3128
17905TIP3    H175206   0.192   4.412  14.887 -0.1667  0.4392  0.8188
17905TIP3    H275207   0.099   4.293  14.897  1.5924 -0.9346  1.3469
17906TIP3   OH275208   5.660   1.398  14.293  0.0645 -0.0473  0.3997
17906TIP3    H175209   5.684   1.459  14.363 -0.3637  1.5060 -0.7322
17906TIP3    H275210   5.607   1.451  14.234  1.1010 -1.0686 -1.5277
17907TIP3   OH275211   0.403   2.026  12.627 -0.5502 -0.1796  0.3774
17907TIP3    H175212   0.327   1.970  12.646 -1.2166  0.3309 -0.7043
17907TIP3    H275213   0.380   2.071  12.546 -0.6821  2.8164  1.9495
17908TIP3   OH275214   6.416   4.898   2.474  0.5351 -0.5234  0.0916
17908TIP3    H175215   6.329   4.886   2.512 -0.0246 -1.3629 -1.3736
17908TIP3    H275216   6.466   4.822   2.505 -0.0563 -1.4547 -1.1786
17909TIP3   OH275217   2.442   2.695  15.046  0.1618  0.4228  0.1549
17909TIP3    H175218   2.403   2.623  14.997  2.4430 -1.2756  0.6542
17909TIP3    H275219   2.368   2.745  15.078 -1.5049 -1.2532 -0.8850
17910TIP3   OH275220   3.352   5.789   2.830  0.4898  0.2914 -0.2748
17910TIP3    H175221   3.431   5.775   2.882  1.7181  2.3585 -1.4483
17910TIP3    H275222   3.346   5.884   2.820 -2.2102  0.2151 -0.1879
17911TIP3   OH275223   2.974   4.671  13.281  0.1177 -0.2975  0.1087
17911TIP3    H175224   3.030   4.714  13.346  0.2482  0.3622 -0.4324
17911TIP3    H275225   3.035   4.633  13.218  0.0038 -1.2654  0.5565
17912TIP3   OH275226   2.696   3.438   1.913  0.0374 -0.4579  0.6442
17912TIP3    H175227   2.710   3.493   1.990 -1.2971  0.1034  0.5053
17912TIP3    H275228   2.783   3.402   1.893  0.3210 -1.1157  2.7690
17913TIP3   OH275229   1.351   2.466  13.269 -0.3906  0.0257  0.4431
17913TIP3    H175230   1.258   2.453  13.249 -0.5464 -0.7977  1.5990
17913TIP3    H275231   1.392   2.485  13.184 -1.9981  3.0241  0.1911
17914TIP3   OH275232   4.519   5.247  15.763  0.5166  0.3534 -0.0431
17914TIP3    H175233   4.614   5.248  15.766  0.4905  1.8528  0.7531
17914TIP3    H275234   4.492   5.219  15.851  0.2114 -0.5513 -0.4107
17915TIP3   OH275235   6.614   3.244  16.986 -0.2056  0.1720 -0.3189
17915TIP3    H175236   6.633   3.325  16.939  0.7462  1.0840  1.5088
17915TIP3    H275237   6.583   3.273  17.072 -0.3713 -1.4048  0.1867
17916TIP3   OH275238   3.030   1.733   2.740  0.2843  0.1050  0.1630
17916TIP3    H175239   3.109   1.729   2.793  0.3199 -0.3155  0.0840
17916TIP3    H275240   3.061   1.728   2.650  0.0936 -1.5398  0.1599
17917TIP3   OH275241   5.272   5.416  11.483  0.0485 -0.1836 -0.1496
17917TIP3    H175242   5.299   5.371  11.403  1.6643  0.1922  0.1442
17917TIP3    H275243   5.179   5.396  11.491 -0.3131  0.2286 -2.4252
17918TIP3   OH275244   1.939   6.763  13.885 -0.0953 -1.2404 -0.2907
17918TIP3    H175245   1.972   6.673  13.891  2.2193 -0.3501  2.6624
17918TIP3    H275246   2.018   6.817  13.877 -1.4714  0.6065 -4.3250
17919TIP3   OH275247   6.847   5.592  16.735  1.1906  0.0230  0.2881
17919TIP3    H175248   6.809   5.529  16.674  2.5520  0.3979 -0.9694
17919TIP3    H275249   6.780   5.600  16.804 -1.2306  0.9171 -1.9764
17920TIP3   OH275250   2.783   3.539  12.661  0.3589  0.2295  0.2907
17920TIP3    H175251   2.750   3.524  12.749 -0.9511 -0.2655 -0.2603
17920TIP3    H275252   2.714   3.507  12.603  2.1296 -1.7451 -0.9330
17921TIP3   OH275253   1.874   3.188  11.809 -0.3938 -0.1812 -0.1656
17921TIP3    H175254   1.779   3.194  11.799 -0.6692 -1.3008  1.3517
17921TIP3    H275255   1.886   3.154  11.898  1.4974  1.7908  0.4115
17922TIP3   OH275256   3.266   4.748   5.188  0.3369 -0.8992 -0.3744
17922TIP3    H175257   3.328   4.814   5.219 -1.1707  0.1839  0.4968
17922TIP3    H275258   3.190   4.799   5.159 -0.6325 -2.2283 -0.2259
17923TIP3   OH275259   5.405   5.021  15.757 -0.1766 -0.2049 -0.0922
17923TIP3    H175260   5.330   5.060  15.712  0.1988  1.4562  0.6466
17923TIP3    H275261   5.476   5.025  15.692 -0.3447 -0.4065 -0.2908
17924TIP3   OH275262   4.755   3.317  15.875 -0.2164  0.2633 -0.9774
17924TIP3    H175263   4.687   3.338  15.812 -0.8666 -0.3092 -0.4755
17924TIP3    H275264   4.806   3.398  15.884 -1.8623  1.2407 -0.0773
17925TIP3   OH275265   1.933   0.192  16.816  0.0231  0.5010 -0.1074
17925TIP3    H175266   2.006   0.142  16.850 -0.1291  1.0360  1.0413
17925TIP3    H275267   1.951   0.200  16.722 -0.6796 -2.9336 -0.6829
17926TIP3   OH275268   5.174   2.805  11.271  0.6310 -0.6337 -0.2177
17926TIP3    H175269   5.269   2.797  11.276  0.8230 -0.9236 -2.8726
17926TIP3    H275270   5.142   2.715  11.268  0.6434 -0.6268 -3.0845
17927TIP3   OH275271   6.179   4.831   2.569  0.0886 -0.0074  0.4609
17927TIP3    H175272   6.086   4.840   2.592  0.2451  0.1551  1.0441
17927TIP3    H275273   6.182   4.754   2.513 -0.2615 -0.6222  1.2679
17928TIP3   OH275274   2.229   2.869   3.562  0.4180  0.1566  0.8569
17928TIP3    H175275   2.176   2.830   3.494 -0.1312  0.7643  0.9241
17928TIP3    H275276   2.191   2.956   3.576  1.1095  0.4106  1.2640
17929TIP3   OH275277   3.836   2.367   3.207  0.3831 -0.2103  0.0763
17929TIP3    H175278   3.873   2.286   3.174 -2.0374 -1.6986  0.7296
17929TIP3    H275279   3.826   2.352   3.301  0.0670  0.9189  0.2420
17930TIP3   OH275280   4.155   0.594   0.270 -0.2934 -0.5028 -0.3663
17930TIP3    H175281   4.155   0.521   0.208  1.2604 -0.4876 -0.4335
17930TIP3    H275282   4.086   0.572   0.332  0.0925 -2.0227 -0.4250
17931TIP3   OH275283   0.920   0.912  10.547 -0.0319  0.1447 -0.2224
17931TIP3    H175284   0.903   0.818  10.551 -0.4060  0.2538  2.2171
17931TIP3    H275285   0.833   0.953  10.555  0.3783  0.6498  2.7990
17932TIP3   OH275286   0.938   4.856  13.733 -0.1193 -0.2964  0.1028
17932TIP3    H175287   0.987   4.901  13.665 -1.0480 -0.4542 -0.6949
17932TIP3    H275288   1.003   4.803  13.779  0.5143 -0.2358 -0.7083
17933TIP3   OH275289   0.124   3.584  16.569 -0.2600 -0.5346 -0.1590
17933TIP3    H175290   0.086   3.529  16.501  1.3900 -0.9969 -0.7528
17933TIP3    H275291   0.091   3.672  16.550 -0.4897 -0.8069 -1.0361
17934TIP3   OH275292   2.992   3.647   1.914 -0.2281 -0.4124  0.3601
17934TIP3    H175293   2.898   3.645   1.898 -0.1868 -1.7555  0.1254
17934TIP3    H275294   3.031   3.629   1.829  0.2130 -0.4481  0.5683
17935TIP3   OH275295   6.154   5.655   0.464  0.4378 -0.4252  0.4984
17935TIP3    H175296   6.088   5.715   0.497 -0.0163 -1.0823  0.7964
17935TIP3    H275297   6.130   5.641   0.372 -0.7443 -1.8500  0.9999
17936TIP3   OH275298   1.819   2.963  14.699  0.2164 -0.1128 -0.1431
17936TIP3    H175299   1.752   3.009  14.649 -2.6926 -1.4797  2.2105
17936TIP3    H275300   1.822   2.875  14.660 -0.7832 -0.6317  0.8948
17937TIP3   OH275301   2.388   4.910  13.027 -0.0481  0.3217  0.3778
17937TIP3    H175302   2.323   4.978  13.010 -1.1068 -0.7608  0.0404
17937TIP3    H275303   2.427   4.893  12.941 -0.4837 -0.1987  0.2822
17938TIP3   OH275304   3.179   4.835  15.508  0.4382 -0.4671 -0.3680
17938TIP3    H175305   3.172   4.739  15.504 -0.7903 -0.3662 -2.8556
17938TIP3    H275306   3.269   4.854  15.479  0.9642 -0.8557  0.9432
17939TIP3   OH275307   4.630   0.959   3.573 -0.7720 -0.4906 -0.1956
17939TIP3    H175308   4.575   1.037   3.570  2.0543  1.6411 -1.9892
17939TIP3    H275309   4.664   0.950   3.484  1.2331 -2.0132  0.6299
17940TIP3   OH275310   1.326   2.863  11.599 -0.2150  0.5963  0.7778
17940TIP3    H175311   1.360   2.781  11.562 -1.9304 -0.0562  0.5434
17940TIP3    H275312   1.376   2.932  11.555  0.0708 -0.2860 -0.3336
17941TIP3   OH275313   2.614   6.385   0.891 -0.6416  0.0286 -0.0844
17941TIP3    H175314   2.605   6.413   0.983  1.9656 -1.8809  0.8486
17941TIP3    H275315   2.554   6.311   0.883 -3.7877  2.4562 -1.1599
17942TIP3   OH275316   6.064   5.204   5.395  0.0827  0.2548  0.9568
17942TIP3    H175317   6.073   5.143   5.469  2.3359 -2.1544 -1.1397
17942TIP3    H275318   6.142   5.259   5.399 -1.4397  2.5184  2.2202
17943TIP3   OH275319   6.140   5.135   3.905  0.2970 -0.5188  1.2291
17943TIP3    H175320   6.145   5.230   3.913 -0.8607 -0.4794  1.7484
17943TIP3    H275321   6.128   5.120   3.811  2.4883 -0.2993  0.8577
17944TIP3   OH275322   1.540   4.013  11.373 -0.1259 -0.2827 -0.2153
17944TIP3    H175323   1.510   4.089  11.324  2.5270  1.3584  0.4770
17944TIP3    H275324   1.628   3.996  11.339 -0.3216 -2.5718  0.2324
17945TIP3   OH275325   1.729   5.486   5.231  0.2824 -0.2184 -0.0799
17945TIP3    H175326   1.793   5.553   5.255  0.0530 -0.2122  0.5049
17945TIP3    H275327   1.775   5.403   5.245  0.1577 -0.2140  0.3425
17946TIP3   OH275328   3.053   0.585   5.805 -0.0142 -0.3030  0.0529
17946TIP3    H175329   2.960   0.564   5.813 -0.4231 -0.0091 -2.8494
17946TIP3    H275330   3.058   0.643   5.729  2.5512 -0.2838  0.1478
17947TIP3   OH275331   6.252   5.419   4.223 -0.1848  0.1668 -0.0892
17947TIP3    H175332   6.342   5.442   4.203 -0.1713  0.4481  0.2703
17947TIP3    H275333   6.215   5.390   4.140  0.6596 -1.3996  0.0593
17948TIP3   OH275334   2.635   5.101  11.570  0.8283 -0.4653 -0.0345
17948TIP3    H175335   2.698   5.171  11.553  0.2036 -0.2959 -1.8550
17948TIP3    H275336   2.554   5.147  11.591  0.6550 -0.6472 -0.3063
17949TIP3   OH275337   0.604   0.479   1.452  0.4403 -1.0996 -0.2527
17949TIP3    H175338   0.519   0.503   1.488  1.0217  1.2732 -0.3048
17949TIP3    H275339   0.586   0.400   1.400 -1.7512 -0.6211 -0.3347
17950TIP3   OH275340   0.746   0.339   5.501  1.0207  0.3218 -0.3089
17950TIP3    H175341   0.653   0.362   5.505  0.2858 -2.1324 -1.1998
17950TIP3    H275342   0.788   0.417   5.465 -0.8251  1.1929 -0.7494
17951TIP3   OH275343   1.916   1.589  14.993 -0.3769 -0.6945  0.5881
17951TIP3    H175344   1.863   1.546  15.061  0.9689  0.2922  2.3475
17951TIP3    H275345   1.896   1.682  15.003  0.7278 -0.4278  0.4246
17952TIP3   OH275346   1.968   2.437  13.818  0.0842 -0.8013  0.1293
17952TIP3    H175347   2.019   2.398  13.889 -0.2411  0.5197  1.1285
17952TIP3    H275348   1.948   2.525  13.849 -0.8783 -0.5235 -1.2160
17953TIP3   OH275349   0.188   1.221  11.651 -0.0197 -0.2955  0.0090
17953TIP3    H175350   0.262   1.177  11.608 -0.5671 -1.9558  0.7131
17953TIP3    H275351   0.229   1.276  11.718  0.7062  0.7144 -1.2074
17954TIP3   OH275352   0.952   5.469  13.778  0.0713 -0.0697  0.1557
17954TIP3    H175353   0.953   5.373  13.775  1.0025 -0.1402  1.8096
17954TIP3    H275354   0.877   5.491  13.833  0.6284  0.0906  0.8645
17955TIP3   OH275355   1.277   4.228  15.164 -0.6992  0.5695 -0.8290
17955TIP3    H175356   1.241   4.180  15.089 -0.5235  1.8837 -1.7792
17955TIP3    H275357   1.234   4.188  15.240 -1.0334 -0.6548 -1.6257
17956TIP3   OH275358   3.263   6.676  12.165 -0.1348  0.3714 -0.2145
17956TIP3    H175359   3.253   6.764  12.200 -0.2722  0.7154 -1.0838
17956TIP3    H275360   3.229   6.682  12.075  0.4912 -0.3994 -0.5174
17957TIP3   OH275361   1.434   3.334  15.827 -0.0519  0.4238  0.2635
17957TIP3    H175362   1.399   3.250  15.797  1.5578  0.5360 -2.1939
17957TIP3    H275363   1.501   3.310  15.892 -0.4610 -0.1131  0.4975
17958TIP3   OH275364   3.762   0.831   1.640 -0.1291  0.2734 -0.1661
17958TIP3    H175365   3.808   0.773   1.701  0.3179  1.0136  0.2118
17958TIP3    H275366   3.831   0.871   1.587 -0.1280  2.4757  1.3452
17959TIP3   OH275367   4.420   0.166   1.657  0.6636 -0.0947  0.0564
17959TIP3    H175368   4.341   0.126   1.620  1.0478  1.1560 -2.3438
17959TIP3    H275369   4.393   0.198   1.743 -1.2817 -0.2882 -0.4380
17960TIP3   OH275370   6.137   3.866   1.388 -0.1373  0.0881  0.5227
17960TIP3    H175371   6.074   3.827   1.448  1.5799 -1.7040  1.3029
17960TIP3    H275372   6.217   3.814   1.400  1.1658  1.5322 -1.2051
17961TIP3   OH275373   4.718   6.302  15.051  0.0040  0.6773  0.4872
17961TIP3    H175374   4.758   6.384  15.081 -0.8404  1.3511 -0.1686
17961TIP3    H275375   4.626   6.325  15.035  0.0159 -0.0928 -0.8389
17962TIP3   OH275376   0.530   2.311  15.157 -0.3817 -0.1283 -0.1999
17962TIP3    H175377   0.497   2.305  15.247 -1.3687  1.3386 -0.4334
17962TIP3    H275378   0.465   2.363  15.111 -0.8988 -2.4188 -2.2771
17963TIP3   OH275379   0.868   1.093  16.036 -0.3451 -0.0550 -0.6502
17963TIP3    H175380   0.962   1.079  16.041 -0.4987 -0.8914  0.3324
17963TIP3    H275381   0.858   1.177  15.991  0.9887  1.5626  1.8306
17964TIP3   OH275382   0.990   3.357   6.025  0.3276  0.4960  0.2456
17964TIP3    H175383   0.991   3.408   5.944 -1.1532  1.7119  0.9199
17964TIP3    H275384   1.024   3.272   6.000  0.1894  0.9227 -1.5944
17965TIP3   OH275385   0.411   3.698   1.699  0.0673  0.4797  0.1653
17965TIP3    H175386   0.456   3.660   1.623  0.3008  0.7588  0.1650
17965TIP3    H275387   0.413   3.628   1.765  1.4976  0.8696  0.5679
17966TIP3   OH275388   6.597   5.552  16.091  0.3889  0.4269  0.0949
17966TIP3    H175389   6.579   5.621  16.155 -1.2301 -0.2922  0.4412
17966TIP3    H275390   6.692   5.544  16.091  0.5280  1.7794  0.9774
17967TIP3   OH275391   1.511   4.635   3.279 -0.2367  0.2513 -0.0507
17967TIP3    H175392   1.578   4.681   3.330  0.3092  1.9142 -2.1531
17967TIP3    H275393   1.428   4.674   3.309  0.1251  1.6837 -0.8556
17968TIP3   OH275394   1.765   3.056  13.762  0.1738 -0.2318 -0.0168
17968TIP3    H175395   1.861   3.056  13.764  0.2174  1.3618 -0.4616
17968TIP3    H275396   1.742   3.021  13.676  0.5561  3.4875 -1.8322
17969TIP3   OH275397   1.399   3.207   1.445 -0.2302  0.3506 -0.4017
17969TIP3    H175398   1.376   3.292   1.481 -0.7873  0.3735 -0.7990
17969TIP3    H275399   1.335   3.146   1.482  0.4538  0.0075  0.2586
17970TIP3   OH275400   4.820   2.450   5.420 -0.2262  0.1131  0.0699
17970TIP3    H175401   4.831   2.525   5.360  0.5069  0.3161  0.4411
17970TIP3    H275402   4.821   2.374   5.362 -3.2595  0.4398 -0.5777
17971TIP3   OH275403   0.918   1.902  12.270 -0.3622 -0.4113  0.0370
17971TIP3    H175404   0.925   1.979  12.327  1.9866 -1.1345  0.8801
17971TIP3    H275405   0.842   1.854  12.303 -0.6786  0.5653  0.7705
17972TIP3   OH275406   3.043   2.514   0.446 -0.1353 -0.2386  0.1038
17972TIP3    H175407   3.099   2.436   0.437  0.2605  0.0273  0.2532
17972TIP3    H275408   2.986   2.494   0.521 -0.1569 -0.4590  0.0287
17973TIP3   OH275409   2.051   4.774  12.093  0.8462  0.0709  0.0168
17973TIP3    H175410   2.016   4.687  12.073 -2.4348  1.7218 -2.5580
17973TIP3    H275411   1.995   4.806  12.164  0.6003  0.8242 -0.5049
17974TIP3   OH275412   3.426   3.521   4.376 -0.5522  0.4978  0.2588
17974TIP3    H175413   3.515   3.488   4.365 -1.1910 -2.0050  1.8070
17974TIP3    H275414   3.416   3.532   4.471 -1.4193  2.2881  0.0053
17975TIP3   OH275415   4.483   2.072  14.113 -0.5899  0.5908  0.3334
17975TIP3    H175416   4.483   2.044  14.022  0.3813 -0.1722  0.5560
17975TIP3    H275417   4.403   2.124  14.122 -0.7389  0.6051 -0.9235
17976TIP3   OH275418   6.497   2.636   5.628  0.0071 -0.3840 -0.0328
17976TIP3    H175419   6.577   2.639   5.575 -0.6400 -1.8413 -1.1981
17976TIP3    H275420   6.525   2.655   5.717  1.6901 -1.0952 -0.3835
17977TIP3   OH275421   1.116   3.647  16.957  0.1911  0.0271 -0.0605
17977TIP3    H175422   1.150   3.574  17.009  3.6624 -0.3727 -2.5459
17977TIP3    H275423   1.123   3.723  17.014 -0.6509 -1.0629  1.5709
17978TIP3   OH275424   3.847   4.704  15.888 -0.0549  0.3074  0.0711
17978TIP3    H175425   3.825   4.779  15.832 -0.1247  1.7231  1.8994
17978TIP3    H275426   3.861   4.742  15.975 -0.5588 -1.8695  1.1771
17979TIP3   OH275427   4.478   1.867   4.797  0.4066 -0.1563 -0.5648
17979TIP3    H175428   4.513   1.779   4.806 -0.9399 -0.6151  0.5567
17979TIP3    H275429   4.512   1.916   4.871 -2.4307 -1.0567  1.5128
17980TIP3   OH275430   1.407   1.402   5.200  0.2864  0.0360 -0.3738
17980TIP3    H175431   1.399   1.429   5.292  1.9594 -1.6762  0.3632
17980TIP3    H275432   1.406   1.306   5.204 -0.6744 -0.0666 -2.2886
17981TIP3   OH275433   1.447   2.221  16.969 -0.2034 -0.1868 -0.3004
17981TIP3    H175434   1.427   2.298  17.021  0.8351  0.8692 -1.4003
17981TIP3    H275435   1.391   2.152  17.005  0.4940  0.4582  2.2417
17982TIP3   OH275436   1.443   5.251   2.463  0.2630 -0.2313  0.1549
17982TIP3    H175437   1.522   5.209   2.496  1.3898  2.1392  0.7167
17982TIP3    H275438   1.463   5.273   2.372  0.3085  0.4997  0.3392
17983TIP3   OH275439   4.012   3.069   2.323  0.6020 -0.0701  0.0001
17983TIP3    H175440   3.966   3.011   2.385  1.2834  0.7795  1.3456
17983TIP3    H275441   3.942   3.117   2.279  0.1221  0.2966  1.1179
17984TIP3   OH275442   5.967   3.365  16.519  0.1284 -0.2328 -0.5030
17984TIP3    H175443   6.001   3.284  16.556  2.5435  1.0764  0.4406
17984TIP3    H275444   5.958   3.424  16.594 -2.2504  0.2081 -1.0652
17985TIP3   OH275445   5.425   5.675   3.949 -0.1642  0.0597 -0.0428
17985TIP3    H175446   5.399   5.655   3.859 -1.4995  0.7786  0.1677
17985TIP3    H275447   5.420   5.590   3.994 -3.0626  0.2390  0.1798
17986TIP3   OH275448   4.854   2.564   4.102  0.3234 -0.5679  0.4126
17986TIP3    H175449   4.929   2.624   4.097 -1.5043  1.8293  0.2432
17986TIP3    H275450   4.829   2.549   4.011 -0.8539  0.6176  0.5208
17987TIP3   OH275451   2.019   1.189   6.007 -0.6969  0.3706 -0.5311
17987TIP3    H175452   2.102   1.186   5.961 -1.1391  0.3053 -1.3382
17987TIP3    H275453   2.040   1.224   6.094  0.0843  0.8228 -0.9002
17988TIP3   OH275454   1.998   3.791   3.646  0.7477  0.0381  0.0927
17988TIP3    H175455   1.955   3.875   3.664 -0.8489 -0.0822 -2.5616
17988TIP3    H275456   2.092   3.810   3.654  0.3637  1.4619  1.7589
17989TIP3   OH275457   6.292   6.232  11.677  0.0591  0.2830  0.0490
17989TIP3    H175458   6.368   6.182  11.646 -1.1841 -2.4787  1.1485
17989TIP3    H275459   6.317   6.323  11.664  4.1694 -0.3978  1.5906
17990TIP3   OH275460   0.485   4.277   5.146  0.2509  0.3134  0.4384
17990TIP3    H175461   0.418   4.345   5.134  0.8810  1.0079  0.7526
17990TIP3    H275462   0.453   4.227   5.222 -0.6287 -0.2672 -0.2959
17991TIP3   OH275463   2.994   6.443   0.576 -0.0567 -0.0520  0.3489
17991TIP3    H175464   2.940   6.438   0.654 -0.5927  0.8102  0.0466
17991TIP3    H275465   3.073   6.489   0.605  0.5729 -1.3802  0.8079
17992TIP3   OH275466   3.932   4.713   2.593  0.1490  0.1976  0.6282
17992TIP3    H175467   3.873   4.674   2.528 -2.0070 -1.6446  3.4434
17992TIP3    H275468   4.018   4.676   2.574 -0.6467 -1.1497 -0.5272
17993TIP3   OH275469   3.696   5.623  16.551  0.2406 -0.6712 -0.1324
17993TIP3    H175470   3.741   5.586  16.628  0.4506 -0.7595 -0.2960
17993TIP3    H275471   3.739   5.707  16.536  0.4250 -0.8021 -0.3517
17994TIP3   OH275472   0.249   3.442  14.460 -0.0072 -0.3062  0.1474
17994TIP3    H175473   0.198   3.395  14.393  1.3844  0.4908 -1.5283
17994TIP3    H275474   0.213   3.531  14.460  1.2408  0.2332 -0.9714
17995TIP3   OH275475   3.831   6.319   0.053 -0.3963  0.1633  0.0366
17995TIP3    H175476   3.804   6.254  -0.012  1.5957 -0.3620 -0.3049
17995TIP3    H275477   3.757   6.380   0.057 -2.2888 -2.0312  0.2900
17996TIP3   OH275478   4.447   4.061   0.548 -0.8114  0.1383  0.1849
17996TIP3    H175479   4.417   4.151   0.538 -0.8957  0.0800 -0.1002
17996TIP3    H275480   4.498   4.061   0.629 -0.6537  0.4834  0.0863
17997TIP3   OH275481   0.097   6.447   4.240  0.1699 -0.7709  0.2405
17997TIP3    H175482   0.186   6.412   4.244 -0.3464 -2.3350 -1.0559
17997TIP3    H275483   0.106   6.529   4.191  0.8188 -1.2596 -0.4877
17998TIP3   OH275484   6.786   3.512  15.234 -0.1982  0.4635  0.5093
17998TIP3    H175485   6.835   3.433  15.254 -0.8478 -0.1030 -0.0962
17998TIP3    H275486   6.729   3.525  15.309 -0.1746  0.2916  0.5560
17999TIP3   OH275487   6.216   5.752   5.330  1.0073 -0.5348 -0.6985
17999TIP3    H175488   6.270   5.792   5.262 -0.3917  3.8811  0.4602
17999TIP3    H275489   6.224   5.810   5.405 -0.3478 -3.2279  1.7179
18000TIP3   OH275490   5.699   3.219   6.334 -0.3428 -0.0536 -0.1550
18000TIP3    H175491   5.735   3.185   6.416  1.7420 -1.7488 -1.6560
18000TIP3    H275492   5.776   3.234   6.279 -1.7123  0.4559 -2.0087
18001TIP3   OH275493   6.378   2.422  11.834 -0.2897  0.2507  0.6979
18001TIP3    H175494   6.406   2.330  11.839 -1.4395 -0.1111  0.7194
18001TIP3    H275495   6.435   2.467  11.896  0.2004 -0.4671  0.7885
18002TIP3   OH275496   3.348   2.446  15.807 -0.1496 -0.5652 -0.2158
18002TIP3    H175497   3.352   2.437  15.902 -0.5988  0.8648 -0.0424
18002TIP3    H275498   3.424   2.501  15.784 -0.5667 -0.1270 -0.5707
18003TIP3   OH275499   2.403   3.647   0.628  0.0162 -0.0399  0.1614
18003TIP3    H175500   2.495   3.628   0.646  0.1246  1.5044  1.4772
18003TIP3    H275501   2.405   3.701   0.549  0.2300 -0.0420  0.1644
18004TIP3   OH275502   6.293   5.351   4.496  0.3652  0.0014  0.2100
18004TIP3    H175503   6.280   5.411   4.423 -0.1520 -0.2180  0.1160
18004TIP3    H275504   6.236   5.384   4.565  2.0718  1.1700  1.1173
18005TIP3   OH275505   0.301   4.621  12.941  0.0082  0.8609 -0.1735
18005TIP3    H175506   0.382   4.610  12.990 -0.5683 -0.5616  0.5061
18005TIP3    H275507   0.239   4.656  13.004 -0.6126 -0.5497  0.0157
18006TIP3   OH275508   0.726   3.400  11.171  0.0813  0.6754  0.0391
18006TIP3    H175509   0.736   3.370  11.081  0.5332 -0.7541  0.5487
18006TIP3    H275510   0.792   3.469  11.181  1.2443 -0.3757 -0.2100
18007TIP3   OH275511   2.556   0.964  12.370 -0.3981 -0.3549  0.2849
18007TIP3    H175512   2.482   0.951  12.428 -1.2117  0.0516 -0.6406
18007TIP3    H275513   2.633   0.955  12.427 -1.1477 -0.5966  1.2852
18008TIP3   OH275514   0.122   5.209   2.425 -0.1705  0.5069  0.1358
18008TIP3    H175515   0.185   5.255   2.371  1.0393 -3.0918 -1.9053
18008TIP3    H275516   0.069   5.159   2.363 -1.8158 -0.3266  2.0796
18009TIP3   OH275517   3.187   2.401  11.758 -0.3655 -0.1377  0.0465
18009TIP3    H175518   3.203   2.324  11.813  1.6454  0.6076  0.5795
18009TIP3    H275519   3.222   2.377  11.672  1.3376  0.5099  0.5032
18010TIP3   OH275520   6.204   3.634  16.493  0.1805  0.3295  0.3525
18010TIP3    H175521   6.279   3.680  16.455 -0.1897  0.2569 -0.4697
18010TIP3    H275522   6.221   3.541  16.476  1.7817 -0.1040  3.4761
18011TIP3   OH275523   6.582   5.435  13.953  0.1133  0.4482 -0.5547
18011TIP3    H175524   6.573   5.383  14.033  0.7231  0.8143 -0.2416
18011TIP3    H275525   6.521   5.507  13.965 -0.9975 -0.3653 -1.1453
18012TIP3   OH275526   1.668   4.976  11.908  0.1362  0.1804 -0.1435
18012TIP3    H175527   1.741   4.946  11.963 -1.0528 -2.0902  0.3356
18012TIP3    H275528   1.606   5.015  11.970 -0.0738 -0.0487 -0.2061
18013TIP3   OH275529   1.901   3.359   4.840  0.5902  0.4039 -0.1731
18013TIP3    H175530   1.947   3.311   4.909  1.5258  1.6345  0.0910
18013TIP3    H275531   1.809   3.336   4.852  0.8122  0.0976  1.0853
18014TIP3   OH275532   5.264   2.797   0.808 -0.0816 -0.2030 -0.4173
18014TIP3    H175533   5.309   2.765   0.886 -0.6976  0.3931  0.2072
18014TIP3    H275534   5.331   2.800   0.741  0.8328  0.6969  0.5016
18015TIP3   OH275535   2.374   6.498  13.873 -0.1351 -0.5484  0.0954
18015TIP3    H175536   2.435   6.436  13.833  0.7793 -0.1574  0.8318
18015TIP3    H275537   2.307   6.443  13.913  0.6561 -1.0822  0.7219
18016TIP3   OH275538   5.537   1.305  15.117  0.1636  0.5899 -0.0990
18016TIP3    H175539   5.543   1.339  15.028 -0.1116  1.6002  0.2580
18016TIP3    H275540   5.592   1.363  15.169  3.8692 -2.4219 -0.2042
18017TIP3   OH275541   1.652   5.518   3.319 -0.0722  0.6652  0.6026
18017TIP3    H175542   1.684   5.607   3.307 -0.3214  0.6460 -0.2872
18017TIP3    H275543   1.650   5.505   3.414  2.8178  0.5450  0.7223
18018TIP3   OH275544   0.413   0.562   2.170  0.2944  0.1003 -0.0972
18018TIP3    H175545   0.325   0.543   2.138  0.2000  1.6280 -0.8137
18018TIP3    H275546   0.423   0.507   2.248 -1.6001  0.5019  0.4693
18019TIP3   OH275547   4.240   5.846   4.598 -0.1963 -0.1755 -0.1649
18019TIP3    H175548   4.166   5.902   4.621 -1.2271 -0.7320 -1.9451
18019TIP3    H275549   4.200   5.771   4.554  1.3382 -1.1827  0.0817
18020TIP3   OH275550   1.471   5.831  16.362 -0.0834 -0.2327 -0.4081
18020TIP3    H175551   1.403   5.892  16.390  1.0937  0.9650 -0.0378
18020TIP3    H275552   1.480   5.770  16.435  1.6217  1.7133  1.1522
18021TIP3   OH275553   4.167   0.794  15.050  0.1137  0.2061  0.2998
18021TIP3    H175554   4.145   0.796  15.143 -0.2929  0.4200  0.1995
18021TIP3    H275555   4.184   0.701  15.031  1.5410  0.3200  0.8905
18022TIP3   OH275556   6.809   5.986  11.643  0.0111 -0.0467  0.5272
18022TIP3    H175557   6.895   5.945  11.651 -0.6123 -1.9011 -1.3473
18022TIP3    H275558   6.762   5.930  11.581 -3.4491 -0.6617  3.3798
18023TIP3   OH275559   3.157   3.618   3.367 -0.2156  0.2617 -0.3154
18023TIP3    H175560   3.069   3.619   3.330  0.1243  1.3691 -1.1390
18023TIP3    H275561   3.144   3.634   3.460 -0.8212  1.5463 -0.6073
18024TIP3   OH275562   1.161   3.881   3.277  0.1035  0.3620 -0.7849
18024TIP3    H175563   1.245   3.927   3.286  1.4508 -2.0021 -0.1319
18024TIP3    H275564   1.166   3.840   3.190  0.9622 -2.0154  0.2808
18025TIP3   OH275565   4.297   2.588   5.412  0.0018 -0.5826 -0.2522
18025TIP3    H175566   4.332   2.515   5.361  0.6833  0.2148 -0.9651
18025TIP3    H275567   4.354   2.662   5.390 -1.7222  0.6121 -0.9507
18026TIP3   OH275568   2.700   4.080  11.143 -0.6672 -0.6610 -0.2798
18026TIP3    H175569   2.680   4.151  11.083  1.2278  0.1822  0.0184
18026TIP3    H275570   2.678   4.115  11.230  1.9602  0.3289  0.0677
18027TIP3   OH275571   2.197   5.991  12.263 -0.1501 -0.2398  0.0225
18027TIP3    H175572   2.173   6.080  12.237  0.4864 -0.3722 -1.0678
18027TIP3    H275573   2.206   5.996  12.358  1.3775  1.2640 -0.1543
18028TIP3   OH275574   0.944   2.143   5.709  0.3245 -0.1059  0.2479
18028TIP3    H175575   0.925   2.104   5.624  1.5976 -0.6914  0.2159
18028TIP3    H275576   1.037   2.165   5.705 -0.1061  2.0196  0.6366
18029TIP3   OH275577   1.376   2.657   0.704  0.1886  0.0222 -0.4918
18029TIP3    H175578   1.354   2.613   0.786  1.0054 -0.8971 -0.7402
18029TIP3    H275579   1.314   2.730   0.698  0.0834  0.0776  0.9098
18030TIP3   OH275580   6.162   3.611  14.642 -0.4470 -0.2273  0.2587
18030TIP3    H175581   6.198   3.679  14.585 -1.8731 -0.5277 -1.0818
18030TIP3    H275582   6.068   3.630  14.645 -0.8083 -1.8857  0.1736
18031TIP3   OH275583   5.451   2.325   5.350  0.0157  0.2097 -0.7512
18031TIP3    H175584   5.523   2.386   5.334  0.4757 -0.6005 -1.9480
18031TIP3    H275585   5.384   2.349   5.287  1.6185 -2.6580 -3.8938
18032TIP3   OH275586   2.298   0.225  11.454  0.1262  0.0880 -0.3049
18032TIP3    H175587   2.257   0.292  11.400 -1.4795  0.5147  1.3495
18032TIP3    H275588   2.228   0.163  11.472  1.5909 -2.1398 -1.8315
18033TIP3   OH275589   4.498   2.863   5.292 -0.0977 -0.0491  0.1151
18033TIP3    H175590   4.571   2.859   5.353  0.1667 -0.2961 -0.2154
18033TIP3    H275591   4.453   2.945   5.312  0.1605  0.0092  0.4423
18034TIP3   OH275592   1.017   2.279  16.887  0.4237 -0.4257 -0.0035
18034TIP3    H175593   1.010   2.303  16.980 -1.1988  2.4156 -0.7178
18034TIP3    H275594   0.945   2.217  16.873 -0.8450  0.9312  0.2256
18035TIP3   OH275595   3.092   6.773  13.791  0.2703 -0.3133 -0.2889
18035TIP3    H175596   3.111   6.746  13.701  1.8832 -1.2309  0.3026
18035TIP3    H275597   3.147   6.850  13.805 -1.6611  1.2466 -0.7816
18036TIP3   OH275598   1.718   5.877  13.595  0.2787 -0.3674  0.0867
18036TIP3    H175599   1.638   5.889  13.646  2.1231 -1.1632  3.4426
18036TIP3    H275600   1.742   5.966  13.568 -0.9218  0.0534  0.3385
18037TIP3   OH275601   0.394   4.033  11.068  0.3909 -0.1355 -0.0243
18037TIP3    H175602   0.395   3.941  11.042  0.4849  0.4382 -2.2355
18037TIP3    H275603   0.481   4.066  11.044  0.1599  0.6532  0.2014
18038TIP3   OH275604   3.433   5.534   1.624 -0.1785  0.0333  1.0968
18038TIP3    H175605   3.466   5.449   1.651  0.2922 -0.4698 -0.9650
18038TIP3    H275606   3.458   5.593   1.696  2.3882 -0.9418  1.1190
18039TIP3   OH275607   4.896   0.730  12.315  0.3955 -0.5718 -0.0476
18039TIP3    H175608   4.989   0.739  12.336 -0.0693  2.0793  1.3238
18039TIP3    H275609   4.860   0.678  12.386  0.4017  0.6832  0.8979
18040TIP3   OH275610   6.440   4.706   2.255  0.3276 -0.3909  0.1240
18040TIP3    H175611   6.442   4.622   2.209 -1.2171  0.5542 -1.8280
18040TIP3    H275612   6.347   4.724   2.269  0.4074  2.1017 -1.7962
18041TIP3   OH275613   6.631   4.065  14.035 -0.3215 -0.0900  0.0342
18041TIP3    H175614   6.551   4.115  14.018 -0.2298 -0.0547 -0.3023
18041TIP3    H275615   6.633   3.999  13.966  1.1585  1.3763 -1.4078
18042TIP3   OH275616   5.744   0.426   5.754 -0.0788  0.0323 -0.6610
18042TIP3    H175617   5.648   0.423   5.749 -0.1458  0.4354  0.1433
18042TIP3    H275618   5.762   0.473   5.836  0.8083 -1.1394 -0.1546
18043TIP3   OH275619   1.655   5.940  12.753 -0.2962 -0.0657 -0.6164
18043TIP3    H175620   1.584   5.969  12.695 -0.8261 -1.2227 -0.5678
18043TIP3    H275621   1.723   6.006  12.741 -1.0909  0.6830 -1.2083
18044TIP3   OH275622   1.907   1.400   3.511  0.3377  0.3308  0.2113
18044TIP3    H175623   1.998   1.386   3.486 -0.0742 -0.1749 -1.1005
18044TIP3    H275624   1.868   1.312   3.510 -0.1118  0.5106  1.0013
18045TIP3   OH275625   0.938   6.107  15.791  0.2264 -0.0530 -0.3915
18045TIP3    H175626   0.943   6.023  15.837 -2.7911  0.0491  0.3661
18045TIP3    H275627   0.936   6.082  15.698  1.1940 -0.6463 -0.2739
18046TIP3   OH275628   6.557   4.565   2.844 -0.4288 -0.3646 -0.1950
18046TIP3    H175629   6.584   4.572   2.936 -0.0091 -0.4899 -0.3065
18046TIP3    H275630   6.463   4.546   2.848 -0.3601 -0.6350  0.2120
18047TIP3   OH275631   1.322   2.625  14.907 -0.0361 -0.9311  0.8242
18047TIP3    H175632   1.371   2.552  14.946 -0.1802 -0.1311  2.5898
18047TIP3    H275633   1.351   2.627  14.816  1.5667 -1.8522  1.2737
18048TIP3   OH275634   2.669   6.317  15.719  0.5863  0.5159  0.8606
18048TIP3    H175635   2.645   6.355  15.803  0.2510  0.2225  0.9028
18048TIP3    H275636   2.624   6.371  15.654 -0.3769 -0.1472  0.9487
18049TIP3   OH275637   4.721   5.311  12.458 -0.1758 -0.0620 -0.1622
18049TIP3    H175638   4.776   5.381  12.494  1.3093 -2.3445  2.4238
18049TIP3    H275639   4.777   5.268  12.394 -0.3478 -0.1093 -0.2792
18050TIP3   OH275640   0.194   0.285  16.150 -0.7769  0.3199  0.1831
18050TIP3    H175641   0.236   0.353  16.202  1.6409  1.4520 -2.9435
18050TIP3    H275642   0.106   0.319  16.132  0.1374  2.3782 -0.7196
18051TIP3   OH275643   1.386   3.764  12.278 -0.1057 -0.0850 -0.1012
18051TIP3    H175644   1.365   3.756  12.371  0.1685  0.7377  0.0369
18051TIP3    H275645   1.481   3.753  12.274  0.0618  1.2791 -0.1065
18052TIP3   OH275646   5.086   3.382   2.168  0.8184 -0.1419 -0.4081
18052TIP3    H175647   5.016   3.318   2.179  0.5971  0.1996  0.2282
18052TIP3    H275648   5.083   3.405   2.076 -0.2705  0.2756 -0.2861
18053TIP3   OH275649   2.193   3.468  13.588  0.0877  0.4093 -0.3161
18053TIP3    H175650   2.261   3.524  13.625  0.8005 -0.5052 -0.2140
18053TIP3    H275651   2.234   3.427  13.512 -0.2819 -0.2987 -0.1445
18054TIP3   OH275652   1.900   0.252   2.437 -0.3049 -1.0316 -0.4222
18054TIP3    H175653   1.920   0.337   2.397  2.0637 -1.6809 -0.7969
18054TIP3    H275654   1.945   0.255   2.521  1.2820 -2.4821 -1.1622
18055TIP3   OH275655   2.843   5.590   3.742 -0.3796 -0.3623 -0.2233
18055TIP3    H175656   2.805   5.574   3.655 -0.5355 -1.6816  0.0576
18055TIP3    H275657   2.799   5.525   3.798  1.4272 -1.1389  0.3562
18056TIP3   OH275658   4.884   6.793  15.308 -0.3109  0.3979  0.0606
18056TIP3    H175659   4.858   6.884  15.292 -0.9427 -0.0723 -1.8113
18056TIP3    H275660   4.979   6.793  15.299 -0.2607  0.9481  0.5318
18057TIP3   OH275661   1.245   4.876  12.468  0.3633 -0.0857 -0.1137
18057TIP3    H175662   1.188   4.799  12.465  1.2551 -0.7621 -0.0572
18057TIP3    H275663   1.186   4.949  12.453 -0.5624 -0.7462  0.1668
18058TIP3   OH275664   3.550   3.792  10.733  0.4311 -0.4134 -0.1007
18058TIP3    H175665   3.576   3.869  10.682 -1.2832  1.1722  1.2828
18058TIP3    H275666   3.544   3.721  10.668  1.8457  0.6274 -1.4490
18059TIP3   OH275667   5.522   6.053   2.968 -0.3749 -0.3129  0.4717
18059TIP3    H175668   5.604   6.028   3.010 -0.1486 -0.3488  0.0074
18059TIP3    H275669   5.499   6.137   3.009  1.7744  1.5829 -1.9307
18060TIP3   OH275670   3.857   1.834   0.546  0.4972 -0.0445  0.1075
18060TIP3    H175671   3.814   1.755   0.512 -0.8160  0.6282  0.1548
18060TIP3    H275672   3.924   1.800   0.606  1.8082 -1.2002 -1.8810
18061TIP3   OH275673   1.994   3.664  11.103 -0.1976  0.4413 -0.3911
18061TIP3    H175674   1.980   3.608  11.027 -0.4641  1.8646 -1.4344
18061TIP3    H275675   1.911   3.710  11.115  0.0202  0.6483  0.4313
18062TIP3   OH275676   4.951   4.443  15.315  0.2281  0.1344 -0.8683
18062TIP3    H175677   4.955   4.347  15.311  0.5241 -0.1846  3.1628
18062TIP3    H275678   5.042   4.471  15.306  0.5560 -0.2686  0.7646
18063TIP3   OH275679   6.735   5.481  11.431  0.2174  0.1420 -0.4214
18063TIP3    H175680   6.742   5.501  11.337 -1.1324 -1.4690 -0.9068
18063TIP3    H275681   6.643   5.495  11.452 -0.4148 -3.2237 -0.3411
18064TIP3   OH275682   5.794   3.280  16.063  0.0523  0.5787 -0.2111
18064TIP3    H175683   5.881   3.262  16.027  0.3650  0.7028  0.4669
18064TIP3    H275684   5.807   3.356  16.119 -0.2904  0.0096  0.6640
18065TIP3   OH275685   5.597   6.631   1.077 -0.1344  0.0087  0.5986
18065TIP3    H175686   5.682   6.632   1.033 -0.2627 -2.8762  0.1485
18065TIP3    H275687   5.533   6.616   1.007 -0.7376 -0.5985  1.2638
18066TIP3   OH275688   2.334   0.607   4.975  0.5134  0.3257 -0.0444
18066TIP3    H175689   2.292   0.580   5.056 -1.1427 -0.3938 -1.0987
18066TIP3    H275690   2.414   0.652   5.003 -0.2242  0.4585  1.9791
18067TIP3   OH275691   1.073   3.334  12.706 -0.5989 -0.3239  0.7079
18067TIP3    H175692   1.029   3.260  12.748 -1.6885 -0.5100 -0.7018
18067TIP3    H275693   1.042   3.333  12.616 -0.9442  2.0711  0.7268
18068TIP3   OH275694   5.945   5.436   2.615  0.0487  0.3070 -0.4845
18068TIP3    H175695   5.902   5.445   2.530 -0.0054 -2.2814 -0.7907
18068TIP3    H275696   6.024   5.385   2.597  1.6027  2.1706  0.6142
18069TIP3   OH275697   5.575   4.748  11.972 -0.1622  0.2275 -0.6226
18069TIP3    H175698   5.618   4.665  11.994  0.8433  0.6674 -0.8658
18069TIP3    H275699   5.521   4.769  12.049  0.7105  0.0725  0.0407
18070TIP3   OH275700   4.222   0.960  15.938 -0.0607  0.0207  0.2581
18070TIP3    H175701   4.190   1.039  15.893  1.0407  1.0461  1.1848
18070TIP3    H275702   4.190   0.969  16.028  1.7144  0.4734  0.8915
18071TIP3   OH275703   5.198   1.570  12.113 -0.0736  0.0497 -0.0531
18071TIP3    H175704   5.221   1.624  12.038  0.1666 -0.6094 -0.4496
18071TIP3    H275705   5.277   1.570  12.168 -0.4813  1.1237  0.5664
18072TIP3   OH275706   1.707   3.518  12.683  0.6077  0.0185 -0.1413
18072TIP3    H175707   1.666   3.460  12.620 -0.1816  0.2669  0.1301
18072TIP3    H275708   1.634   3.555  12.733  1.2667 -2.8989  3.3889
18073TIP3   OH275709   3.743   0.814   1.090  0.5974  0.1041  0.1595
18073TIP3    H175710   3.787   0.872   1.152  1.2072 -0.0749 -0.0960
18073TIP3    H275711   3.752   0.727   1.127 -0.3709  0.1691  0.5723
18074TIP3   OH275712   2.297   2.504  12.691  0.5456  0.1996 -0.6897
18074TIP3    H175713   2.290   2.473  12.601 -3.7225 -1.1503 -0.1038
18074TIP3    H275714   2.296   2.599  12.685 -0.5978  0.1203 -2.0605
18075TIP3   OH275715   2.224   3.630  10.538  0.0960  0.2843  0.5128
18075TIP3    H175716   2.165   3.685  10.590 -0.0704 -0.1198  0.7565
18075TIP3    H275717   2.312   3.656  10.565  0.0167  0.4466  0.6130
18076TIP3   OH275718   6.118   1.606   2.020  0.4680  0.2354  0.2705
18076TIP3    H175719   6.202   1.573   2.050  1.7879 -0.2828 -3.4718
18076TIP3    H275720   6.054   1.540   2.049  1.6893 -0.6658  0.9947
18077TIP3   OH275721   6.729   3.000   3.321  0.1445  0.1598 -0.7768
18077TIP3    H175722   6.741   2.941   3.395  0.9518  1.6336  0.3121
18077TIP3    H275723   6.634   3.003   3.308  0.1243 -2.2610 -1.6553
18078TIP3   OH275724   6.627   6.131   3.714  0.9454 -0.2700  0.2185
18078TIP3    H175725   6.584   6.158   3.795  0.4300  0.5209 -0.3059
18078TIP3    H275726   6.589   6.046   3.694  0.8407 -0.3237  0.6386
18079TIP3   OH275727   3.937   4.074   6.913 -0.3552  0.2238  0.6530
18079TIP3    H175728   4.029   4.071   6.940 -0.6489 -0.4407  1.6499
18079TIP3    H275729   3.940   4.100   6.821  0.8994 -0.8080  0.3700
18080TIP3   OH275730   6.775   6.619  10.287 -0.4875 -0.9048  0.0899
18080TIP3    H175731   6.828   6.666  10.351 -1.7339 -1.6498  1.7587
18080TIP3    H275732   6.828   6.619  10.207  1.1170  0.0933  1.0871
18081TIP3   OH275733   5.063   1.540   0.526  0.2786  0.1125 -0.2656
18081TIP3    H175734   4.998   1.510   0.590 -0.1351  3.1019  0.8416
18081TIP3    H275735   5.123   1.594   0.577  2.2477 -0.5801 -1.7445
18082TIP3   OH275736   4.561   2.121  13.008 -0.2304 -0.4682  0.2698
18082TIP3    H175737   4.550   2.209  13.043 -1.2113 -0.5156  0.1023
18082TIP3    H275738   4.564   2.132  12.913  0.4874 -0.5417  0.2740
18083TIP3   OH275739   1.893   0.214  16.352 -0.1731 -0.4902  0.1400
18083TIP3    H175740   1.885   0.308  16.338  0.5225 -0.7155 -2.1928
18083TIP3    H275741   1.987   0.199  16.363 -0.2480 -0.9511  0.1603
18084TIP3   OH275742   2.646   2.635  14.056 -0.5941 -0.3994  0.7917
18084TIP3    H175743   2.637   2.540  14.057 -2.8035 -0.2783 -0.5962
18084TIP3    H275744   2.558   2.668  14.038  0.4875  1.7957 -1.1657
18085TIP3   OH275745   2.545   2.260   2.651  0.0772  0.6582  0.0494
18085TIP3    H175746   2.480   2.212   2.600  0.8762 -0.5515  0.1397
18085TIP3    H275747   2.550   2.214   2.734  2.6897 -0.7388 -0.7602
18086TIP3   OH275748   2.343   6.209  13.897 -0.1761 -0.2949  0.1235
18086TIP3    H175749   2.305   6.126  13.927  0.1798 -0.1298  1.0842
18086TIP3    H275750   2.425   6.184  13.855 -0.8717 -0.5687 -1.1115
18087TIP3   OH275751   4.547   5.136  12.342  0.0480  0.0515  0.2059
18087TIP3    H175752   4.570   5.124  12.250  1.5312 -1.2800  0.7213
18087TIP3    H275753   4.618   5.190  12.378  0.0847 -0.3960  0.8214
18088TIP3   OH275754   2.211   4.696   4.194  0.0799 -0.3749 -0.2660
18088TIP3    H175755   2.156   4.712   4.271 -1.7057  1.5712 -1.8199
18088TIP3    H275756   2.183   4.610   4.162  2.7375 -2.5341  2.6008
18089TIP3   OH275757   5.932   1.749   2.632  0.0988 -0.0413 -0.1754
18089TIP3    H175758   5.954   1.791   2.549  0.9828  0.3682  0.2570
18089TIP3    H275759   5.851   1.701   2.613 -0.0009  0.4702 -1.1277
18090TIP3   OH275760   6.069   1.558  15.970 -0.1032 -0.6644 -0.0617
18090TIP3    H175761   6.035   1.500  16.039 -0.9143 -0.3031 -0.1459
18090TIP3    H275762   6.058   1.507  15.889  1.6296 -1.4260  0.1467
18091TIP3   OH275763   3.465   1.913  11.783 -0.0767  0.2548  0.4422
18091TIP3    H175764   3.511   1.895  11.701  1.2957 -0.4549  1.3375
18091TIP3    H275765   3.515   1.866  11.850 -0.6155  1.5792  1.8308
18092TIP3   OH275766   3.245   0.733  15.324  0.4453  0.1272  0.2273
18092TIP3    H175767   3.217   0.756  15.235 -0.6946  0.4832  0.6595
18092TIP3    H275768   3.218   0.642  15.335 -1.9627  0.8994  1.1546
18093TIP3   OH275769   3.156   4.153   2.060  0.4476 -0.7674  0.3004
18093TIP3    H175770   3.073   4.188   2.093  0.9898  1.0797 -0.1755
18093TIP3    H275771   3.164   4.068   2.102 -0.3180  0.2183  2.6246
18094TIP3   OH275772   2.465   2.930  13.581  0.4731  0.0021 -0.1361
18094TIP3    H175773   2.487   2.982  13.504 -0.8370  1.5879  0.4809
18094TIP3    H275774   2.399   2.868  13.550  1.7435 -1.0749 -0.7873
18095TIP3   OH275775   5.145   6.443  12.996  0.3189 -0.8031 -0.0258
18095TIP3    H175776   5.089   6.439  12.919  1.2391  0.1958 -0.7643
18095TIP3    H275777   5.200   6.365  12.990  0.7671 -0.4450 -0.6881
18096TIP3   OH275778   3.561   3.078  12.094  0.3868 -0.4469 -0.3195
18096TIP3    H175779   3.549   3.172  12.078 -0.2248 -0.7360 -1.7285
18096TIP3    H275780   3.485   3.053  12.147 -0.2898 -0.4199 -1.2420
18097TIP3   OH275781   1.792   4.728   1.800  0.2986 -0.4419  0.5142
18097TIP3    H175782   1.705   4.689   1.796  0.1180  0.0611 -2.0906
18097TIP3    H275783   1.776   4.822   1.795  1.0008 -0.3939 -1.6770
18098TIP3   OH275784   2.762   2.658  15.670 -0.1702 -0.6143 -0.1798
18098TIP3    H175785   2.844   2.675  15.625 -0.0049 -0.1340  0.2914
18098TIP3    H275786   2.737   2.570  15.642 -0.6468  0.0755 -2.0786
18099TIP3   OH275787   1.092   1.803  11.979  0.5166  0.5313  0.1105
18099TIP3    H175788   1.084   1.895  12.003 -1.3993  0.6632 -0.8517
18099TIP3    H275789   1.089   1.756  12.063  2.0177  1.3108  0.6504
18100TIP3   OH275790   0.638   1.540   0.381  0.0135  0.4339 -0.3112
18100TIP3    H175791   0.576   1.467   0.384 -0.0006  0.4322 -0.5940
18100TIP3    H275792   0.646   1.561   0.288  0.8486  0.0854 -0.3309
18101TIP3   OH275793   2.912   2.767   3.361 -0.1367  0.0844 -1.1411
18101TIP3    H175794   2.910   2.793   3.453 -0.4334  0.8313 -1.3478
18101TIP3    H275795   2.876   2.843   3.314  0.5194 -0.0732 -1.9182
18102TIP3   OH275796   6.352   4.006  14.657  0.2735  0.2526 -0.3270
18102TIP3    H175797   6.317   3.951  14.727  2.4043  0.4995  1.0491
18102TIP3    H275798   6.280   4.062  14.631 -0.6201  0.0899  1.6411
18103TIP3   OH275799   3.841   0.218   0.016 -0.1370 -0.2303 -0.9749
18103TIP3    H175800   3.905   0.163  -0.030  0.2787 -0.3109 -0.3080
18103TIP3    H275801   3.761   0.165   0.017  0.5119 -1.2278  0.4691
18104TIP3   OH275802   4.609   3.909  11.733  0.0644  0.2387  0.5341
18104TIP3    H175803   4.623   3.887  11.641 -0.0308  0.4624  0.4671
18104TIP3    H275804   4.562   3.992  11.731 -0.1287  0.1344  0.7813
18105TIP3   OH275805   5.913   2.409   4.332 -0.1994  0.4639 -0.0565
18105TIP3    H175806   5.975   2.397   4.260  0.6742  0.0000  0.7466
18105TIP3    H275807   5.924   2.331   4.386 -0.5928  0.9599  0.7557
18106TIP3   OH275808   5.664   2.330   3.488 -0.0288  0.1502  0.4155
18106TIP3    H175809   5.620   2.410   3.516  2.2145  1.1581  1.3255
18106TIP3    H275810   5.749   2.359   3.454  0.0914 -1.6897 -1.0422
18107TIP3   OH275811   6.797   3.265  14.896 -0.1895 -0.0659  0.0505
18107TIP3    H175812   6.818   3.273  14.803  0.8280 -1.6490  0.1131
18107TIP3    H275813   6.844   3.337  14.937  0.5525 -0.2303 -0.4933
18108TIP3   OH275814   5.379   6.282  16.449 -0.1646  0.3039  0.1314
18108TIP3    H175815   5.342   6.329  16.374 -0.3473 -0.2398 -0.1220
18108TIP3    H275816   5.438   6.345  16.490  1.5763 -0.0579 -1.7086
18109TIP3   OH275817   2.170   0.989   3.120 -0.5294  0.4202 -0.1149
18109TIP3    H175818   2.093   0.963   3.071 -0.2891 -2.0519  0.6578
18109TIP3    H275819   2.137   1.010   3.208 -0.3762 -0.5559  0.1916
18110TIP3   OH275820   0.151   2.002  12.134 -0.1934  0.2965  0.5576
18110TIP3    H175821   0.172   1.910  12.120 -0.3893  0.4889 -1.2498
18110TIP3    H275822   0.159   2.042  12.047  1.3213  2.2881  1.5252
18111TIP3   OH275823   1.241   5.135  14.676  0.1196 -0.1514 -0.1172
18111TIP3    H175824   1.276   5.164  14.761 -0.3165  0.9431 -0.2879
18111TIP3    H275825   1.317   5.102  14.628  0.8380  1.5397 -0.2290
18112TIP3   OH275826   3.754   0.996   3.013  0.3775  0.4065  0.5701
18112TIP3    H175827   3.804   0.916   3.026 -1.9850 -1.6838 -1.9235
18112TIP3    H275828   3.791   1.034   2.933 -0.4059  0.1120  0.0495
18113TIP3   OH275829   5.709   6.381  11.508  0.2188  0.0684  0.2471
18113TIP3    H175830   5.669   6.305  11.549 -0.1935 -0.0231 -0.3095
18113TIP3    H275831   5.697   6.452  11.571  2.5682 -0.7610  1.7940
18114TIP3   OH275832   0.564   1.415   3.477 -0.3832 -0.1199  0.0505
18114TIP3    H175833   0.497   1.456   3.532  1.3646 -0.5372  2.6432
18114TIP3    H275834   0.621   1.488   3.451 -0.5351 -0.0967 -0.2223
18115TIP3   OH275835   0.062   3.780   4.521 -0.4389 -0.0319 -0.1655
18115TIP3    H175836   0.069   3.756   4.613 -1.2827  1.7661  0.4191
18115TIP3    H275837   0.145   3.824   4.501 -0.5115  0.1562 -0.0607
18116TIP3   OH275838   0.141   3.449   5.138 -0.4394  0.4792 -0.0930
18116TIP3    H175839   0.158   3.467   5.231 -1.2371 -2.0797  0.6443
18116TIP3    H275840   0.221   3.477   5.094  0.5686  0.4141  1.5718
18117TIP3   OH275841   3.573   1.329  13.697 -0.1778  0.3949 -0.2163
18117TIP3    H175842   3.569   1.256  13.760 -0.1886 -0.3729 -1.0799
18117TIP3    H275843   3.597   1.405  13.749 -1.1067 -0.0402  0.8773
18118TIP3   OH275844   0.565   6.792  13.384 -0.1391 -0.5945  0.3044
18118TIP3    H175845   0.534   6.706  13.413 -1.4190 -0.8848 -1.7359
18118TIP3    H275846   0.525   6.804  13.298  0.2400  1.9345  0.4132
18119TIP3   OH275847   2.856   1.952  12.990 -0.1369 -0.2134  0.1005
18119TIP3    H175848   2.934   2.006  12.975 -0.3008  0.1724  0.5879
18119TIP3    H275849   2.832   1.920  12.904 -0.6880  1.4178 -0.3888
18120TIP3   OH275850   4.453   4.268  14.202 -0.3888 -0.0660 -0.7754
18120TIP3    H175851   4.429   4.309  14.285 -1.4447  0.3025 -1.2352
18120TIP3    H275852   4.384   4.203  14.187 -1.1785  1.0043 -2.1353
18121TIP3   OH275853   1.342   2.212   5.578  0.4643  0.2720  0.3008
18121TIP3    H175854   1.290   2.215   5.658 -0.4176  1.0719 -0.2822
18121TIP3    H275855   1.294   2.153   5.520  0.6548  0.3599  0.0521
18122TIP3   OH275856   2.153   3.389   0.079  0.3978  0.2418  0.3628
18122TIP3    H175857   2.061   3.413   0.068  0.5221  1.0860  1.1227
18122TIP3    H275858   2.184   3.373  -0.011 -0.7568 -1.1445  0.1722
18123TIP3   OH275859   4.119   5.147   1.095  0.3711 -0.1938  0.1601
18123TIP3    H175860   4.175   5.224   1.104 -2.5282  1.9855  0.5873
18123TIP3    H275861   4.080   5.155   1.008  0.5126 -1.5832 -0.0640
18124TIP3   OH275862   5.170   5.933  16.237 -0.0543 -0.5889  0.0713
18124TIP3    H175863   5.208   5.953  16.323 -0.6094  2.0523 -0.2349
18124TIP3    H275864   5.245   5.933  16.177 -0.0913  1.7872 -0.0685
18125TIP3   OH275865   5.591   5.939   0.205  0.0153 -0.4413  0.0269
18125TIP3    H175866   5.593   5.844   0.216 -1.5272 -0.3572  1.5363
18125TIP3    H275867   5.634   5.955   0.121  0.5656 -2.4360 -0.1201
18126TIP3   OH275868   4.702   4.585   0.577 -0.0197 -0.5278 -0.5516
18126TIP3    H175869   4.609   4.607   0.573  0.2885  0.8862 -0.6304
18126TIP3    H275870   4.745   4.658   0.533  1.3151  0.3592  1.9927
18127TIP3   OH275871   1.131   2.598  14.535 -0.3374  0.0549 -0.1681
18127TIP3    H175872   1.058   2.656  14.555  0.7007  0.4890  2.8253
18127TIP3    H275873   1.095   2.510  14.543 -0.7248  0.2728  0.5818
18128TIP3   OH275874   4.043   0.428  13.708  0.0982  0.3472  0.0286
18128TIP3    H175875   4.055   0.507  13.761 -1.8623  0.6011  0.1517
18128TIP3    H275876   4.041   0.460  13.618 -0.9251  0.4824  0.0929
18129TIP3   OH275877   6.328   0.041  14.449 -0.1374 -0.1997 -1.0736
18129TIP3    H175878   6.402   0.102  14.443  0.3937 -0.5920  0.8064
18129TIP3    H275879   6.258   0.094  14.487  0.3291 -0.7061  0.5776
18130TIP3   OH275880   6.633   4.034   2.816  0.1684 -0.5098 -0.4558
18130TIP3    H175881   6.538   4.040   2.818  0.2063  0.2520 -0.3701
18130TIP3    H275882   6.654   3.958   2.871 -0.2824  0.9281  1.8776
18131TIP3   OH275883   3.410   5.212   3.665 -0.0645  0.1302 -0.2871
18131TIP3    H175884   3.317   5.198   3.683  0.4921  0.7466  4.0533
18131TIP3    H275885   3.415   5.302   3.633 -0.9293  0.0846 -0.5811
18132TIP3   OH275886   4.653   1.392  10.700  0.0722  0.7453  0.0772
18132TIP3    H175887   4.655   1.484  10.673  1.1752  0.3584 -1.2933
18132TIP3    H275888   4.745   1.366  10.701 -0.2271 -0.3408  0.4888
18133TIP3   OH275889   2.194   1.391   1.762 -0.0525  0.4016  0.4244
18133TIP3    H175890   2.165   1.394   1.853  1.8588  1.2431  1.0531
18133TIP3    H275891   2.189   1.482   1.732 -1.4577  0.0262 -0.6262
18134TIP3   OH275892   1.173   6.019   3.349  0.3829  0.3912  0.2345
18134TIP3    H175893   1.189   5.995   3.258 -2.0866 -1.1797  0.1182
18134TIP3    H275894   1.224   5.956   3.400  2.1070  1.5368  0.0062
18135TIP3   OH275895   3.702   4.434   4.705  0.0706  0.3619 -0.9979
18135TIP3    H175896   3.616   4.416   4.742  0.6068  0.0737  0.1514
18135TIP3    H275897   3.753   4.470   4.778  0.6295  1.4779 -1.9171
18136TIP3   OH275898   2.138   5.079   0.334 -0.6284 -0.2070 -0.1956
18136TIP3    H175899   2.131   5.128   0.416  1.8598  0.0325 -0.0528
18136TIP3    H275900   2.229   5.048   0.332 -1.7577 -3.9871 -0.7846
18137TIP3   OH275901   1.975   5.855  12.175  0.1069 -0.8099 -0.4611
18137TIP3    H175902   2.017   5.938  12.198 -0.3646 -0.8033  0.4276
18137TIP3    H275903   2.024   5.789  12.223 -0.5489 -0.8583  0.1580
18138TIP3   OH275904   5.740   4.142   2.332 -0.0871  0.4512 -0.2114
18138TIP3    H175905   5.785   4.060   2.352 -0.2758  0.5789  0.8059
18138TIP3    H275906   5.653   4.131   2.371 -1.2315 -0.0544 -2.6879
18139TIP3   OH275907   2.224   1.085  10.255  0.7332 -0.2242  0.5872
18139TIP3    H175908   2.293   1.094  10.322  1.4300 -0.1021 -0.1334
18139TIP3    H275909   2.211   0.991  10.247  0.2698 -0.2261  1.2633
18140TIP3   OH275910   6.516   2.319   2.486  0.4799 -0.2202  0.4718
18140TIP3    H175911   6.508   2.412   2.468 -0.1228 -0.3848 -0.1691
18140TIP3    H275912   6.512   2.278   2.399  0.3241 -0.8654  0.7789
18141TIP3   OH275913   6.477   4.546   4.745 -0.2708  0.1235  0.5193
18141TIP3    H175914   6.508   4.461   4.776 -1.5484 -0.7573 -0.4863
18141TIP3    H275915   6.539   4.570   4.676  0.6588  0.5077  1.4612
18142TIP3   OH275916   4.083   1.372  14.158  0.3685  0.0063 -0.6561
18142TIP3    H175917   4.144   1.306  14.123 -0.3024 -0.1829 -1.4868
18142TIP3    H275918   4.017   1.382  14.090 -0.5824  0.1584  0.2746
18143TIP3   OH275919   6.045   4.718   2.940 -0.0003  0.9381 -0.0425
18143TIP3    H175920   6.063   4.705   3.033 -0.9304 -0.0183  0.0324
18143TIP3    H275921   6.131   4.719   2.899  0.3997 -2.2799  0.4161
18144TIP3   OH275922   2.605   6.468   3.334 -0.2619  0.8833  0.3460
18144TIP3    H175923   2.693   6.430   3.341 -1.0022 -0.8022  0.7032
18144TIP3    H275924   2.564   6.420   3.262 -0.2421  3.0598 -1.2342
18145TIP3   OH275925   1.391   6.690  15.656 -0.3251  0.7549 -0.5360
18145TIP3    H175926   1.374   6.664  15.565 -1.9509 -1.4906  0.3015
18145TIP3    H275927   1.486   6.685  15.665 -0.2848 -1.7912 -1.4493
18146TIP3   OH275928   6.151   3.663  15.283  0.6116  0.3967 -0.0821
18146TIP3    H175929   6.233   3.638  15.241  0.6765 -2.5883  1.5342
18146TIP3    H275930   6.083   3.626  15.226  0.5505 -0.1137  0.3119
18147TIP3   OH275931   1.360   0.866  12.214 -0.6021 -0.3023 -0.2123
18147TIP3    H175932   1.400   0.783  12.188 -0.1221  0.1636 -0.9928
18147TIP3    H275933   1.389   0.929  12.148 -1.0128  0.4768  0.3284
18148TIP3   OH275934   1.751   1.245   4.430  0.5512  0.0680  0.1723
18148TIP3    H175935   1.837   1.248   4.390  0.8031 -1.0879  0.5887
18148TIP3    H275936   1.695   1.297   4.372  1.1200 -0.7234 -1.1174
18149TIP3   OH275937   2.866   1.002   0.953  0.9293  0.4122  0.7428
18149TIP3    H175938   2.803   0.951   0.902  2.8828 -2.0708  0.6476
18149TIP3    H275939   2.827   1.005   1.041 -0.3054  0.8100  0.2143
18150TIP3   OH275940   0.979   0.190  12.793  0.3164  0.2130 -0.0313
18150TIP3    H175941   0.931   0.264  12.758  0.8380  1.5539  1.9380
18150TIP3    H275942   0.979   0.203  12.888  2.1405 -1.2382  0.2333
18151TIP3   OH275943   1.856   1.988  16.831 -0.6802 -0.2661  0.2291
18151TIP3    H175944   1.800   2.061  16.804  0.8799  1.5356  1.6462
18151TIP3    H275945   1.863   1.996  16.926 -0.7613 -2.5426  0.5045
18152TIP3   OH275946   2.783   6.044   2.024 -0.1853  0.6451  0.3747
18152TIP3    H175947   2.791   6.109   1.954  2.9588 -0.2311 -0.2259
18152TIP3    H275948   2.758   5.963   1.978 -2.5153  0.9723  0.9254
18153TIP3   OH275949   0.382   6.721   2.410  0.0612  0.4466 -0.1397
18153TIP3    H175950   0.289   6.747   2.408 -0.7729 -2.2250 -0.4130
18153TIP3    H275951   0.402   6.711   2.503 -0.3353 -0.2418 -0.1240
18154TIP3   OH275952   4.255   1.453   5.191  0.0257 -0.5010  0.3341
18154TIP3    H175953   4.194   1.492   5.128 -1.5102 -1.1956  1.3455
18154TIP3    H275954   4.325   1.417   5.137 -2.1942 -2.8241 -1.2029
18155TIP3   OH275955   5.661   2.962  10.663  0.3236  0.1807  0.0075
18155TIP3    H175956   5.625   3.024  10.599 -0.6856 -1.0879 -0.7051
18155TIP3    H275957   5.680   2.883  10.612 -0.2074 -0.7604  1.2228
18156TIP3   OH275958   4.957   3.865  15.082  0.0717  0.0707 -0.3075
18156TIP3    H175959   5.036   3.871  15.028  0.7636  1.6543  0.8063
18156TIP3    H275960   4.984   3.897  15.168 -2.0042  1.6504 -0.1584
18157TIP3   OH275961   2.830   5.495   1.925  0.8089  0.0823 -0.1948
18157TIP3    H175962   2.913   5.511   1.969  0.4766 -0.5721  0.6811
18157TIP3    H275963   2.803   5.408   1.953 -1.4447  1.2548  1.6337
18158TIP3   OH275964   5.324   3.125   1.102 -0.1051  0.2342  0.2594
18158TIP3    H175965   5.349   3.033   1.101  1.8746  0.6769  2.3121
18158TIP3    H275966   5.356   3.158   1.186 -4.5117  1.8294  1.5870
18159TIP3   OH275967   1.598   3.369  16.295 -0.3957 -0.0110  0.0510
18159TIP3    H175968   1.578   3.459  16.320  0.1930  0.6311 -1.6116
18159TIP3    H275969   1.516   3.321  16.308 -0.7230  0.7669  0.9177
18160TIP3   OH275970   5.683   2.274  12.741 -0.3523  0.5984  0.4959
18160TIP3    H175971   5.767   2.275  12.694 -0.7409  0.2728 -0.2298
18160TIP3    H275972   5.680   2.188  12.782 -0.4003  0.5444  0.3814
18161TIP3   OH275973   2.025   2.323  11.893  0.3800  0.4985 -0.0034
18161TIP3    H175974   1.961   2.306  11.823 -0.2506 -1.0435  0.8974
18161TIP3    H275975   2.105   2.279  11.863 -0.1011 -0.7833  0.5441
18162TIP3   OH275976   4.220   1.432   1.669 -0.6850 -0.2917 -0.0221
18162TIP3    H175977   4.153   1.378   1.712 -0.1589 -0.5949  0.4189
18162TIP3    H275978   4.280   1.368   1.629  0.1724 -0.0465  0.8555
18163TIP3   OH275979   0.498   1.393   2.650  0.7002 -0.4386 -0.1319
18163TIP3    H175980   0.546   1.314   2.675 -0.0833 -1.0163 -0.4128
18163TIP3    H275981   0.414   1.385   2.695  0.8190  0.5154  0.2848
18164TIP3   OH275982   6.086   2.317  11.903 -0.8426 -0.0587  0.3849
18164TIP3    H175983   6.158   2.343  11.960  0.2932  0.9435 -1.4255
18164TIP3    H275984   6.018   2.285  11.963  0.3818  0.6992  2.2528
18165TIP3   OH275985   3.900   0.228  13.312 -0.3078 -0.5436 -0.1843
18165TIP3    H175986   3.854   0.146  13.331 -0.1600 -0.4729  0.4934
18165TIP3    H275987   3.841   0.274  13.252  0.0920 -1.5947 -1.4257
18166TIP3   OH275988   3.350   2.843   3.922  0.0929 -0.1843  0.0184
18166TIP3    H175989   3.332   2.889   3.841  0.5395 -0.8663 -0.4773
18166TIP3    H275990   3.440   2.812   3.913  0.0129 -0.6115  0.6045
18167TIP3   OH275991   0.706   0.792   4.701 -0.1581 -0.1232 -0.0898
18167TIP3    H175992   0.717   0.697   4.707  1.1423 -0.1454 -1.9911
18167TIP3    H275993   0.636   0.804   4.638  0.7876  0.1691 -1.1080
18168TIP3   OH275994   4.952   0.298  12.689 -0.0771 -0.2734  0.6701
18168TIP3    H175995   4.896   0.274  12.762 -0.3347  2.6026  1.5592
18168TIP3    H275996   4.911   0.258  12.612 -1.0073 -1.6020  1.8254
18169TIP3   OH275997   5.662   5.826   5.674 -0.5729 -0.0329  0.1371
18169TIP3    H175998   5.581   5.778   5.692  0.9251 -2.8799  0.0250
18169TIP3    H275999   5.662   5.838   5.579 -1.7223  1.7541  0.3355
18170TIP3   OH276000   0.165   1.816   6.175 -0.4733 -0.0060 -0.1704
18170TIP3    H176001   0.181   1.801   6.268 -0.7380  1.2049  0.0917
18170TIP3    H276002   0.124   1.736   6.144  0.4157 -0.7612  0.5550
18171TIP3   OH276003   1.828   2.682   0.310 -0.3156 -0.0024 -0.5272
18171TIP3    H176004   1.779   2.747   0.259 -0.4787 -1.3176 -2.1429
18171TIP3    H276005   1.761   2.628   0.351 -0.1998  1.5426  1.8846
18172TIP3   OH276006   1.458   4.839  12.732  0.0718  0.4338 -0.2851
18172TIP3    H176007   1.467   4.909  12.667  1.5086  0.6762  0.1372
18172TIP3    H276008   1.404   4.877  12.801 -0.8659  0.4180 -1.0019
18173TIP3   OH276009   2.077   5.821   0.305 -0.6637  0.5947  0.6832
18173TIP3    H176010   2.060   5.910   0.335  0.8828  0.8827  0.7952
18173TIP3    H276011   2.165   5.801   0.336 -0.1030 -0.1576 -1.1893
18174TIP3   OH276012   2.381   4.732   1.792  0.2184  0.2202 -0.0313
18174TIP3    H176013   2.302   4.734   1.847 -0.2075 -0.7717 -0.5738
18174TIP3    H276014   2.387   4.820   1.756  0.6052  0.9535  1.7135
18175TIP3   OH276015   5.762   1.304  16.204  0.2050  0.5001  0.4475
18175TIP3    H176016   5.702   1.230  16.203 -0.6190  1.1487  0.3892
18175TIP3    H276017   5.718   1.370  16.257  1.2487  0.6922  1.0957
18176TIP3   OH276018   6.736   1.184  15.436 -0.6976 -0.0239  0.9086
18176TIP3    H176019   6.686   1.105  15.457 -1.1427  0.1206  0.4030
18176TIP3    H276020   6.748   1.228  15.520  2.3225 -2.1752  1.7877
18177TIP3   OH276021   5.776   5.542  10.378 -0.3470  0.4441  0.1394
18177TIP3    H176022   5.713   5.605  10.413 -2.4527 -0.0197 -2.4738
18177TIP3    H276023   5.861   5.585  10.387 -1.4987  2.8540  0.1544
18178TIP3   OH276024   0.823   2.831   0.870 -0.3516  0.5179 -0.6105
18178TIP3    H176025   0.873   2.904   0.908  1.0649 -1.5349  1.7540
18178TIP3    H276026   0.872   2.806   0.792 -0.4658  1.5973 -1.0460
18179TIP3   OH276027   6.596   5.934  12.394 -0.4889 -0.7991 -0.4776
18179TIP3    H176028   6.653   5.928  12.471 -1.5067 -1.3683  0.2484
18179TIP3    H276029   6.620   5.857  12.341  0.3494 -0.3010 -0.8525
18180TIP3   OH276030   1.378   1.204   2.851 -0.0003  0.2209  0.1083
18180TIP3    H176031   1.328   1.282   2.874 -0.5118  0.1400 -0.6885
18180TIP3    H276032   1.312   1.141   2.824  0.5673  0.4358 -1.9291
18181TIP3   OH276033   1.615   2.009   0.466 -0.0215  0.0697 -0.0398
18181TIP3    H176034   1.546   1.986   0.529 -0.5606  1.1183 -0.2243
18181TIP3    H276035   1.610   1.940   0.400  0.6309 -1.1206  1.1034
18182TIP3   OH276036   6.153   4.611   1.304 -0.1706 -0.4027 -0.5169
18182TIP3    H176037   6.203   4.579   1.378 -0.1859 -0.1457 -0.3948
18182TIP3    H276038   6.068   4.567   1.312 -0.5807  0.5165  0.2843
18183TIP3   OH276039   1.741   0.395   4.234  0.6209  0.4440  0.1520
18183TIP3    H176040   1.681   0.331   4.195  0.3012  1.4167 -1.0168
18183TIP3    H276041   1.822   0.347   4.248  0.2366 -0.3361 -0.2589
18184TIP3   OH276042   2.790   3.428   5.726 -0.7138 -0.2636  0.0871
18184TIP3    H176043   2.770   3.488   5.797  1.2262  0.9957 -0.3830
18184TIP3    H276044   2.778   3.479   5.646  2.9699  0.3040 -0.2832
18185TIP3   OH276045   6.280   4.908  14.571 -0.3518  0.1610  0.5121
18185TIP3    H176046   6.289   4.824  14.527 -0.4933  0.6376 -0.4578
18185TIP3    H276047   6.341   4.903  14.645 -0.2209 -0.7145  0.3558
18186TIP3   OH276048   6.813   4.665  16.008 -0.9520 -0.1769  0.3486
18186TIP3    H176049   6.902   4.685  15.980 -0.5271 -1.9116  0.3384
18186TIP3    H276050   6.757   4.720  15.953  0.1209  1.9492  1.2831
18187TIP3   OH276051   0.273   3.502   4.030  0.4479  0.5244 -0.0287
18187TIP3    H176052   0.345   3.469   3.977 -0.5749 -2.6316  0.3709
18187TIP3    H276053   0.311   3.511   4.118  0.3812 -1.3409  0.2323
18188TIP3   OH276054   5.026   0.631  15.982 -0.0450 -0.9868  0.2856
18188TIP3    H176055   5.026   0.539  16.008  0.0941 -1.0513  0.0614
18188TIP3    H276056   4.936   0.648  15.953  0.5581 -1.8322 -2.3671
18189TIP3   OH276057   2.652   2.654   4.977  0.1323  0.1354 -0.3602
18189TIP3    H176058   2.626   2.578   5.030  2.0777 -0.3318 -0.0236
18189TIP3    H276059   2.705   2.617   4.906 -0.8522  0.9601 -1.5814
18190TIP3   OH276060   4.321   1.159   1.975  0.0121 -0.2632 -0.6610
18190TIP3    H176061   4.262   1.110   2.034  0.7590  0.5918  0.8683
18190TIP3    H276062   4.320   1.109   1.894 -0.2892 -2.0740  0.3908
18191TIP3   OH276063   5.743   6.609   2.404  0.7174 -0.5889  0.2478
18191TIP3    H176064   5.766   6.526   2.363  0.9360 -0.8968  0.9686
18191TIP3    H276065   5.826   6.646   2.434  0.5952 -0.2327  0.1540
18192TIP3   OH276066   4.645   0.434   4.047  0.6737 -0.0414 -0.2460
18192TIP3    H176067   4.668   0.343   4.027 -0.6004 -0.2329 -0.9322
18192TIP3    H276068   4.598   0.465   3.970 -0.0701  0.7723  0.5022
18193TIP3   OH276069   1.275   4.820  16.638 -0.2054 -0.4807  0.1333
18193TIP3    H176070   1.349   4.874  16.611 -1.4828  0.2036 -2.2196
18193TIP3    H276071   1.304   4.730  16.622  0.2229 -0.2320 -0.5292
18194TIP3   OH276072   2.906   4.728   4.281 -0.7741  0.6661 -0.4061
18194TIP3    H176073   2.970   4.657   4.281 -0.7563  0.6819 -0.4430
18194TIP3    H276074   2.867   4.725   4.368 -1.7108 -0.2142 -0.8357
18195TIP3   OH276075   0.542   3.178  12.748  0.0975 -0.6090  0.1210
18195TIP3    H176076   0.482   3.248  12.720 -0.6711 -1.6503 -0.9032
18195TIP3    H276077   0.616   3.225  12.787 -0.1011  0.8157 -1.1253
18196TIP3   OH276078   3.235   0.443   5.991  0.3088 -0.6093  0.3068
18196TIP3    H176079   3.173   0.425   6.062 -1.2285  2.4543 -0.0866
18196TIP3    H276080   3.179   0.460   5.915  1.7427  0.0108 -0.6462
18197TIP3   OH276081   1.396   2.630  11.476  0.1328 -0.1460  0.0738
18197TIP3    H176082   1.357   2.551  11.439  1.5075 -0.7200 -0.2224
18197TIP3    H276083   1.487   2.629  11.445  0.2395  1.4496  0.2211
18198TIP3   OH276084   3.059   4.250  12.616  0.3646  0.0138  0.5218
18198TIP3    H176085   3.130   4.308  12.589  0.8652 -0.3735  0.9865
18198TIP3    H276086   3.072   4.171  12.563 -0.5062  0.4268 -0.3436
18199TIP3   OH276087   0.916   0.804  12.261  0.4542 -0.6286 -0.0599
18199TIP3    H176088   0.886   0.787  12.172 -0.4326 -0.4778  0.2016
18199TIP3    H276089   0.848   0.859  12.299  1.7292  0.8990  0.1233
18200TIP3   OH276090   2.126   2.454   4.277  0.4350  0.2945 -0.2414
18200TIP3    H176091   2.167   2.510   4.211  0.7048  0.4715  0.0719
18200TIP3    H276092   2.081   2.386   4.227  1.8205 -0.3992 -0.5894
18201TIP3   OH276093   5.014   5.708  15.748 -0.3292  0.5571  0.1736
18201TIP3    H176094   4.940   5.729  15.692 -3.4328 -0.8590  3.3638
18201TIP3    H276095   5.053   5.630  15.708 -0.7415  1.1036 -1.3556
18202TIP3   OH276096   6.601   5.346  10.670  0.3327 -0.7682  0.5021
18202TIP3    H176097   6.599   5.431  10.626 -2.5385 -0.5695  0.8405
18202TIP3    H276098   6.618   5.283  10.600 -0.1072 -0.1191 -0.2024
18203TIP3   OH276099   6.663   0.532  14.210  0.1064  0.5594  0.3265
18203TIP3    H176100   6.600   0.499  14.274  0.6725 -1.6364 -0.1718
18203TIP3    H276101   6.610   0.549  14.132 -0.0909 -0.0786  0.3087
18204TIP3   OH276102   6.115   5.122   0.556  0.6375  0.5169  0.3748
18204TIP3    H176103   6.135   5.212   0.582  0.3421  1.4036 -2.1291
18204TIP3    H276104   6.024   5.125   0.528  0.4883 -0.6956  0.6849
18205TIP3   OH276105   0.313   5.666  10.413 -0.2181 -0.6457  0.4658
18205TIP3    H176106   0.237   5.673  10.470 -0.4926 -2.2582  0.3537
18205TIP3    H276107   0.320   5.752  10.371 -1.4569 -0.2054  1.1093
18206TIP3   OH276108   6.310   0.221   6.547 -0.5351 -0.3624 -0.2166
18206TIP3    H176109   6.400   0.201   6.520 -0.5074 -0.0983 -0.3228
18206TIP3    H276110   6.261   0.141   6.528 -0.3771 -0.4135 -0.4200
18207TIP3   OH276111   1.487   3.959  13.209  0.1458 -0.0665 -0.7753
18207TIP3    H176112   1.467   3.996  13.122 -0.7935 -0.0431 -0.5664
18207TIP3    H276113   1.500   4.036  13.265 -1.8773  0.0094 -0.3254
18208TIP3   OH276114   4.064   6.088  12.219  0.1971  0.2228 -0.3210
18208TIP3    H176115   4.081   6.024  12.150 -1.0534 -0.5160  0.0163
18208TIP3    H276116   3.968   6.087  12.230  0.3273  0.6061  1.1262
18209TIP3   OH276117   6.405   2.662  14.293 -0.1467 -0.4210  0.2279
18209TIP3    H176118   6.441   2.574  14.305 -0.0997 -0.5251 -0.6205
18209TIP3    H276119   6.313   2.648  14.274 -0.0378 -0.3232 -0.3967
18210TIP3   OH276120   5.195   4.892   3.607  0.0128  0.0392  0.2662
18210TIP3    H176121   5.274   4.899   3.553 -0.4491  0.1747 -0.4098
18210TIP3    H276122   5.126   4.930   3.553 -0.2425  1.3525  1.4585
18211TIP3   OH276123   6.556   3.242  15.744  0.9471  0.7741  0.8514
18211TIP3    H176124   6.511   3.161  15.719  0.5026  1.3403 -0.2471
18211TIP3    H276125   6.486   3.298  15.778  1.0415  1.1657  0.4065
18212TIP3   OH276126   0.385   5.433  10.630 -0.3425 -0.4879  0.3506
18212TIP3    H176127   0.290   5.445  10.633 -0.3300  0.2627 -1.3173
18212TIP3    H276128   0.416   5.462  10.716 -1.2882  2.5909 -0.2236
18213TIP3   OH276129   3.194   6.189  13.239 -0.3328  0.6384 -0.4832
18213TIP3    H176130   3.160   6.102  13.260  0.1867  0.7719  1.1351
18213TIP3    H276131   3.117   6.244  13.231 -0.7190 -0.1137 -2.4283
18214TIP3   OH276132   2.652   3.959   0.490  0.0753  0.2120  0.9795
18214TIP3    H176133   2.662   3.994   0.578 -0.3674 -1.5228  1.7503
18214TIP3    H276134   2.684   3.869   0.496 -1.6212 -0.5107 -0.1813
18215TIP3   OH276135   6.768   2.744  11.595  0.3196  0.2748 -0.0862
18215TIP3    H176136   6.846   2.746  11.540  1.0473  2.5739  0.9250
18215TIP3    H276137   6.801   2.728  11.683 -0.6161 -1.0678  0.0580
18216TIP3   OH276138   2.685   3.133   1.051  0.1055  0.2607  0.3543
18216TIP3    H176139   2.659   3.129   0.959  2.8051 -0.9030 -0.4792
18216TIP3    H276140   2.729   3.218   1.060  0.4180  0.0983  0.3789
18217TIP3   OH276141   4.102   2.445  16.465  0.0191 -0.1383  0.3039
18217TIP3    H176142   4.147   2.367  16.434 -0.2736 -0.2118  0.0650
18217TIP3    H276143   4.018   2.414  16.499  0.0934  0.0143  0.6329
18218TIP3   OH276144   4.097   0.178   5.977 -0.0385 -0.2267 -0.6563
18218TIP3    H176145   4.166   0.206   6.038  0.8120  0.2143 -1.7815
18218TIP3    H276146   4.017   0.178   6.030  1.1803 -3.5715  1.5152
18219TIP3   OH276147   4.538   6.651  16.805 -0.7462  0.3462 -0.1849
18219TIP3    H176148   4.584   6.573  16.773  0.2523 -0.1449  2.1914
18219TIP3    H276149   4.594   6.724  16.779 -1.4570  0.2709 -2.0347
18220TIP3   OH276150   2.879   3.168  12.781 -0.3789  0.1869  0.4647
18220TIP3    H176151   2.900   3.175  12.874 -1.0317 -0.7630  0.6976
18220TIP3    H276152   2.961   3.190  12.736  0.1134  0.0511  1.2749
18221TIP3   OH276153   4.992   0.602   2.273  0.1830  0.1985  0.2155
18221TIP3    H176154   4.922   0.601   2.339 -0.6815 -0.0985 -0.6790
18221TIP3    H276155   4.967   0.534   2.211  1.6528 -0.3921  0.2325
18222TIP3   OH276156   3.340   4.983  14.604  0.9560 -0.8229 -0.2061
18222TIP3    H176157   3.429   5.019  14.601  0.0182  1.6553 -0.3827
18222TIP3    H276158   3.326   4.947  14.517  0.5755  2.0708 -1.4411
18223TIP3   OH276159   1.230   1.171  13.552  0.6756 -0.0827  0.4803
18223TIP3    H176160   1.315   1.196  13.588  1.0728  1.0365 -1.1416
18223TIP3    H276161   1.227   1.076  13.560  1.8285 -0.0838  1.0591
18224TIP3   OH276162   3.803   6.183   2.640 -0.1301  0.4329 -0.4505
18224TIP3    H176163   3.890   6.144   2.637 -0.2725  0.1521 -1.1748
18224TIP3    H276164   3.783   6.191   2.733  1.4327  2.2190 -0.2024
18225TIP3   OH276165   5.868   1.033  11.602 -0.0470 -0.3772  0.1259
18225TIP3    H176166   5.956   1.049  11.638  1.0897 -1.9567 -1.7578
18225TIP3    H276167   5.839   0.953  11.646  0.1289 -0.7236 -0.3867
18226TIP3   OH276168   2.670   4.166  13.330  0.2126  0.5710  0.4947
18226TIP3    H176169   2.673   4.229  13.258  0.5408  0.0853  0.0760
18226TIP3    H276170   2.697   4.083  13.290 -3.2265 -0.5799  0.2308
18227TIP3   OH276171   6.698   4.122   0.075  0.3517  0.3514  0.1746
18227TIP3    H176172   6.682   4.216   0.063  1.7013  0.4817 -0.9665
18227TIP3    H276173   6.787   4.118   0.111 -0.0541 -0.4708  1.1204
18228TIP3   OH276174   3.712   2.601  14.533  0.0718 -0.5319 -0.0942
18228TIP3    H176175   3.697   2.549  14.454  1.3120 -0.8352 -0.1619
18228TIP3    H276176   3.654   2.563  14.599 -0.1656 -0.9996 -0.5670
18229TIP3   OH276177   6.687   5.314  12.928  0.0110  0.0708 -0.0414
18229TIP3    H176178   6.697   5.273  12.842  0.5961 -0.6146  0.3395
18229TIP3    H276179   6.649   5.400  12.910  1.7461  0.6536 -1.1345
18230TIP3   OH276180   1.736   2.436   1.260 -0.0023  0.1872 -0.0849
18230TIP3    H176181   1.804   2.464   1.321 -0.8379  1.2356  0.4050
18230TIP3    H276182   1.741   2.499   1.188 -1.1708  0.9632  0.4893
18231TIP3   OH276183   5.043   2.374   4.939  0.2086 -0.2381 -0.5143
18231TIP3    H176184   4.975   2.369   4.872 -0.2873  2.4905 -0.3143
18231TIP3    H276185   5.119   2.331   4.899 -0.5450 -0.0607 -2.2132
18232TIP3   OH276186   4.856   4.093  14.998 -0.3043  0.2763  0.1466
18232TIP3    H176187   4.891   4.004  15.009  0.5018  0.0303 -3.3209
18232TIP3    H276188   4.764   4.079  14.974 -0.5639  0.4771  1.0055
18233TIP3   OH276189   5.774   1.286  13.841  0.6065 -0.3856 -0.0440
18233TIP3    H176190   5.688   1.324  13.821  1.0691  1.1942  0.8328
18233TIP3    H276191   5.754   1.209  13.895 -0.2659 -0.1431 -0.0045
18234TIP3   OH276192   0.773   5.774   4.971  0.1171 -0.0531  0.1417
18234TIP3    H176193   0.813   5.729   4.897 -0.9057 -0.4878 -0.1616
18234TIP3    H276194   0.705   5.714   5.001  0.2243  0.3140  1.1573
18235TIP3   OH276195   2.292   2.763   1.872  0.4583  0.1431 -0.0739
18235TIP3    H176196   2.251   2.780   1.957 -1.1651  0.9362 -0.9556
18235TIP3    H276197   2.313   2.670   1.873  2.0729  0.4689  1.8291
18236TIP3   OH276198   6.002   4.328  14.904 -0.5014  0.3105 -0.1269
18236TIP3    H176199   6.027   4.253  14.959 -0.2509  1.0539  0.7973
18236TIP3    H276200   5.906   4.327  14.905 -0.5050  0.5635  0.6974
18237TIP3   OH276201   0.391   6.382   1.347  0.2569 -0.0256 -0.1456
18237TIP3    H176202   0.353   6.443   1.410 -0.3447 -1.7422  1.2410
18237TIP3    H276203   0.473   6.354   1.387  1.1440  0.7607 -1.3445
18238TIP3   OH276204   6.537   6.254   1.831  0.2026  0.5594 -0.4000
18238TIP3    H176205   6.457   6.244   1.779  0.4574  0.9349 -0.8677
18238TIP3    H276206   6.509   6.303   1.908 -0.3687 -0.7875  0.2918
18239TIP3   OH276207   5.153   6.594   2.720  0.2063 -0.3263  0.6444
18239TIP3    H176208   5.101   6.526   2.676  0.2293  0.8452 -1.3046
18239TIP3    H276209   5.088   6.653   2.757  0.1763 -1.7519  3.0327
18240TIP3   OH276210   1.228   1.670   0.827  0.5044  0.3274  0.4755
18240TIP3    H176211   1.143   1.629   0.808  0.4056  0.8132 -0.1829
18240TIP3    H276212   1.284   1.645   0.754 -0.0463  2.6973 -0.9008
18241TIP3   OH276213   5.104   3.946  15.327 -0.0608 -0.6674 -0.1723
18241TIP3    H176214   5.046   3.891  15.379  0.7323 -1.2376  0.1349
18241TIP3    H276215   5.189   3.939  15.371  0.1967  0.3103 -0.4943
18242TIP3   OH276216   6.420   3.469   5.366 -0.7114  0.1028  0.3640
18242TIP3    H176217   6.447   3.494   5.278 -0.7170  0.0203  0.3390
18242TIP3    H276218   6.501   3.441   5.409 -1.1578 -3.1263 -0.6816
18243TIP3   OH276219   6.128   3.538  16.033 -0.5129 -0.1732 -0.0734
18243TIP3    H176220   6.164   3.591  15.961 -0.3180  1.0439  0.9022
18243TIP3    H276221   6.136   3.448  16.001  0.3649  0.2809 -1.2308
18244TIP3   OH276222   3.106   2.834   2.331  0.0406  0.0072 -0.0859
18244TIP3    H176223   3.139   2.798   2.249 -1.0659 -2.5581  0.5124
18244TIP3    H276224   3.030   2.886   2.305 -0.1669 -0.5977 -0.7180
18245TIP3   OH276225   4.515   6.832   0.232 -0.0253 -0.3601 -0.4129
18245TIP3    H176226   4.549   6.749   0.198  0.2239 -0.6311  0.4692
18245TIP3    H276227   4.476   6.874   0.156  3.0747  0.4072 -1.7379
18246TIP3   OH276228   4.867   4.508   5.476  0.7114 -0.0659  0.1063
18246TIP3    H176229   4.828   4.534   5.393  0.8713 -1.4954 -0.4525
18246TIP3    H276230   4.857   4.413   5.478 -0.8992  0.0746  2.5454
18247TIP3   OH276231   0.777   4.376  14.818 -0.4779 -0.0393 -0.3137
18247TIP3    H176232   0.844   4.431  14.860 -0.7061 -1.3349  1.9058
18247TIP3    H276233   0.821   4.292  14.803 -1.0967 -0.3232 -0.5509
18248TIP3   OH276234   1.361   3.755  11.556 -0.3592  0.3911  0.0252
18248TIP3    H176235   1.398   3.814  11.621 -1.1372  1.8783 -0.8265
18248TIP3    H276236   1.430   3.746  11.491  0.2522 -0.7374  0.8025
18249TIP3   OH276237   5.118   5.982   3.456  0.0333 -0.1267  0.2482
18249TIP3    H176238   5.174   6.008   3.382  1.0693 -0.7179  0.7958
18249TIP3    H276239   5.066   6.060   3.476  1.4899  0.8318  0.4587
18250TIP3   OH276240   5.646   6.045  15.069  0.5921  0.7172 -0.2640
18250TIP3    H176241   5.638   6.100  14.992  0.2854  0.5637 -0.3427
18250TIP3    H276242   5.739   6.021  15.072  0.1682 -1.6742 -2.2711
18251TIP3   OH276243   4.354   4.300   2.386  0.0147 -0.1823 -0.5897
18251TIP3    H176244   4.425   4.365   2.382  0.2312 -0.4721 -1.9808
18251TIP3    H276245   4.395   4.221   2.421  0.1497 -0.0599 -0.4715
18252TIP3   OH276246   5.889   4.880   1.140  0.5327  0.1105  0.1320
18252TIP3    H176247   5.961   4.826   1.172  1.1361 -0.5739 -2.1846
18252TIP3    H276248   5.932   4.949   1.089 -0.3514  1.5185  1.1969
18253TIP3   OH276249   3.344   2.797  15.314  0.7915 -0.0944 -0.1291
18253TIP3    H176250   3.315   2.881  15.280  3.0112  1.0671  0.6108
18253TIP3    H276251   3.410   2.767  15.251 -0.6530 -1.8273 -0.9169
18254TIP3   OH276252   3.855   6.148   4.018  0.0210  0.1294  1.0627
18254TIP3    H176253   3.832   6.164   4.110 -2.6383 -0.3395  0.5487
18254TIP3    H276254   3.773   6.121   3.977  1.1613  0.2328 -1.4567
18255TIP3   OH276255   2.060   6.837   3.389  0.2132  0.1230  0.5815
18255TIP3    H176256   1.982   6.828   3.334 -0.2172 -0.3165  1.2416
18255TIP3    H276257   2.028   6.823   3.478  0.9652  0.4297  0.9087
18256TIP3   OH276258   5.919   2.127  12.282 -0.2772  0.2129  0.0538
18256TIP3    H176259   5.845   2.153  12.337 -0.0551  0.5457  0.2038
18256TIP3    H276260   5.993   2.175  12.319 -0.0814  0.2553 -0.3912
18257TIP3   OH276261   4.606   0.871  10.815  0.2448 -0.3109  0.0079
18257TIP3    H176262   4.532   0.870  10.753  0.1563 -1.5558  0.1188
18257TIP3    H276263   4.680   0.901  10.762 -0.4498  1.5949  0.0508
18258TIP3   OH276264   2.507   3.830   2.519 -0.3306 -0.3426 -0.2180
18258TIP3    H176265   2.462   3.763   2.468  0.6245 -0.8868 -0.3684
18258TIP3    H276266   2.596   3.796   2.530  0.4025  1.2626 -0.9776
18259TIP3   OH276267   2.494   0.944  12.876 -0.3633 -0.1901  0.0820
18259TIP3    H176268   2.453   1.003  12.939 -0.1676 -2.1693  2.2355
18259TIP3    H276269   2.556   0.998  12.828 -0.3917  1.4032  1.7272
18260TIP3   OH276270   0.069   5.003  16.074 -0.4209 -0.3142 -0.3927
18260TIP3    H176271   0.032   5.025  15.989 -0.5628 -0.8876 -0.4879
18260TIP3    H276272   0.118   4.922  16.058  1.8195  0.9795 -0.5102
18261TIP3   OH276273   5.326   3.155   0.817 -0.1168  0.0178  0.0801
18261TIP3    H176274   5.384   3.079   0.812  2.3266  1.8047 -0.6620
18261TIP3    H276275   5.314   3.169   0.911  0.2435 -0.6582  0.2366
18262TIP3   OH276276   3.510   0.844  15.986 -0.3605 -0.0101 -0.0523
18262TIP3    H176277   3.427   0.802  15.964 -0.6990  0.8465 -0.4548
18262TIP3    H276278   3.532   0.810  16.073  0.4121 -2.5362 -1.1492
18263TIP3   OH276279   5.460   1.056  13.498 -0.7487  0.0002 -0.1677
18263TIP3    H176280   5.501   1.081  13.416  0.0610 -2.8677 -0.7498
18263TIP3    H276281   5.528   1.070  13.564  0.4585 -2.3838 -0.7847
18264TIP3   OH276282   4.965   0.354  16.945  0.4687  0.2098 -0.2332
18264TIP3    H176283   4.961   0.444  16.915 -1.9457  0.4393  0.5256
18264TIP3    H276284   4.874   0.333  16.969  1.4633 -1.2993  2.7742
18265TIP3   OH276285   1.991   3.104   1.503  0.1471 -0.0685  0.4152
18265TIP3    H176286   1.953   3.093   1.590 -3.0926  0.0182 -0.8369
18265TIP3    H276287   1.937   3.172   1.461  1.3474 -0.3588 -1.7971
18266TIP3   OH276288   0.415   1.905   4.886  0.1791 -0.4888 -0.2893
18266TIP3    H176289   0.322   1.909   4.864  0.6747 -0.4474 -2.6918
18266TIP3    H276290   0.447   1.994   4.870  1.2784 -1.2839 -3.1407
18267TIP3   OH276291   2.786   2.034  16.568  0.4179  0.1979  0.1271
18267TIP3    H176292   2.718   1.986  16.616 -0.0218 -0.4753 -1.1344
18267TIP3    H276293   2.779   2.002  16.478  1.5218  1.1102 -0.3030
18268TIP3   OH276294   4.055   2.283   5.394 -0.7105  0.5673 -1.2464
18268TIP3    H176295   4.066   2.231   5.474 -2.3324 -0.4802 -1.6504
18268TIP3    H276296   4.135   2.267   5.343  0.5928  1.6781  0.3446
18269TIP3   OH276297   1.259   0.478   5.019 -0.2136  0.3322  0.1243
18269TIP3    H176298   1.350   0.451   5.007 -0.1236  0.6025  0.2056
18269TIP3    H276299   1.243   0.541   4.949 -0.7664 -0.7651 -0.7760
18270TIP3   OH276300   5.333   5.244   3.680  0.6591 -0.6374 -0.2563
18270TIP3    H176301   5.252   5.285   3.649  1.4903 -0.2759 -2.0774
18270TIP3    H276302   5.335   5.158   3.638  1.6570 -0.2652 -1.0249
18271TIP3   OH276303   4.916   0.313   2.234  0.4742 -0.1598  0.3430
18271TIP3    H176304   4.986   0.249   2.217 -0.5854 -1.1589 -0.4203
18271TIP3    H276305   4.926   0.334   2.327  0.4711 -1.9730  0.8086
18272TIP3   OH276306   6.830   0.449  11.088 -0.2617 -0.6544 -0.0720
18272TIP3    H176307   6.741   0.479  11.071 -0.0182  0.0785 -0.0681
18272TIP3    H276308   6.884   0.495  11.024  0.4676  0.9735  1.6148
18273TIP3   OH276309   3.745   3.565   1.625 -0.5316  0.3873 -0.3997
18273TIP3    H176310   3.668   3.606   1.665 -2.6749 -1.1777 -2.6335
18273TIP3    H276311   3.781   3.508   1.694 -2.2091  0.1285  0.2991
18274TIP3   OH276312   6.819   5.652   4.874  0.5171 -0.2716  0.6023
18274TIP3    H176313   6.815   5.746   4.854  1.3161 -0.2130  0.6747
18274TIP3    H276314   6.750   5.639   4.939  1.8257  0.7264  2.2885
18275TIP3   OH276315   2.417   6.458   3.844 -0.2076  0.4295 -0.8614
18275TIP3    H176316   2.416   6.550   3.817 -0.0087  0.1682 -1.7753
18275TIP3    H276317   2.509   6.440   3.864 -0.0358  0.0770 -1.9354
18276TIP3   OH276318   1.593   1.638   2.086 -0.6730 -0.1149 -0.6461
18276TIP3    H176319   1.573   1.633   2.180  0.2532  0.4553 -0.4017
18276TIP3    H276320   1.615   1.730   2.072 -2.0321  0.0770 -1.6953
18277TIP3   OH276321   4.363   6.391   4.492  0.6869  0.1203  0.0766
18277TIP3    H176322   4.406   6.306   4.501  1.8141  0.7127  0.4940
18277TIP3    H276323   4.283   6.382   4.543  0.1538 -1.0863 -0.9160
18278TIP3   OH276324   2.093   0.021  12.674  0.3666 -0.1889  0.1517
18278TIP3    H176325   2.181   0.041  12.642 -0.2938  1.7883 -0.5748
18278TIP3    H276326   2.043   0.101  12.658 -1.0138 -0.4809  2.5881
18279TIP3   OH276327   3.528   2.013  13.056 -0.2591 -0.0632  0.1328
18279TIP3    H176328   3.569   1.926  13.048  0.9222  0.6034 -1.6571
18279TIP3    H276329   3.602   2.072  13.071 -0.4902  1.1420 -2.8542
18280TIP3   OH276330   2.369   4.367  14.045 -0.0387  0.7228 -0.0372
18280TIP3    H176331   2.325   4.414  14.117 -0.3667  0.3900 -0.0208
18280TIP3    H276332   2.378   4.277  14.077  0.4411  0.7308 -0.1389
18281TIP3   OH276333   3.406   6.048  14.927  0.2169  0.2768 -0.0923
18281TIP3    H176334   3.436   6.038  14.837 -0.2818 -0.0101 -0.2324
18281TIP3    H276335   3.321   6.004  14.929  0.6160 -0.5009  0.7290
18282TIP3   OH276336   6.402   5.385   5.314 -0.4608  0.0465  0.8184
18282TIP3    H176337   6.478   5.413   5.366  0.5778 -1.6530  0.2905
18282TIP3    H276338   6.436   5.378   5.224 -1.0883 -1.2732  0.6685
18283TIP3   OH276339   0.709   0.713   3.727 -0.5230 -0.1867  0.0458
18283TIP3    H176340   0.749   0.783   3.676  1.0763 -0.7387  0.4684
18283TIP3    H276341   0.762   0.708   3.807 -0.4465 -1.9831 -0.0671
18284TIP3   OH276342   1.589   5.388  13.666  0.4539  0.1043  0.3399
18284TIP3    H176343   1.637   5.448  13.609  0.4162 -1.2531 -1.2271
18284TIP3    H276344   1.503   5.380  13.624  0.2878 -0.6230  0.8104
18285TIP3   OH276345   5.859   0.124  14.698  0.0864 -0.0681 -0.4778
18285TIP3    H176346   5.793   0.162  14.640  0.3619  0.5312 -0.4111
18285TIP3    H276347   5.827   0.036  14.717 -1.0500  0.4509  0.1242
18286TIP3   OH276348   6.383   4.640  12.703 -0.0117  0.2588 -0.4661
18286TIP3    H176349   6.379   4.619  12.610 -1.2879 -0.6910 -0.2214
18286TIP3    H276350   6.292   4.658  12.728  0.0300 -1.2977  0.9657
18287TIP3   OH276351   0.460   3.025   1.953  0.0056 -0.3876 -1.3228
18287TIP3    H176352   0.377   3.050   1.912 -0.6065  3.6566  1.7571
18287TIP3    H276353   0.434   2.982   2.035  0.9505  0.0430 -0.7855
18288TIP3   OH276354   5.165   0.729   1.562  0.3763  0.7208 -0.0319
18288TIP3    H176355   5.151   0.765   1.474 -0.1384 -0.0131 -0.2595
18288TIP3    H276356   5.083   0.747   1.608 -0.0021 -0.3982 -0.2402
18289TIP3   OH276357   0.845   6.728  13.876  0.7605 -0.6458  0.1845
18289TIP3    H176358   0.935   6.697  13.865  0.9389 -0.4672  1.0922
18289TIP3    H276359   0.848   6.785  13.953 -0.6689 -3.0525  2.2244
18290TIP3   OH276360   0.478   5.847  11.972 -0.0841 -0.3225 -0.3863
18290TIP3    H176361   0.391   5.873  12.002 -0.2114 -1.3040  0.1362
18290TIP3    H276362   0.536   5.867  12.045  0.2250  0.7324 -0.8902
18291TIP3   OH276363   1.205   1.544   1.868 -0.5905  0.5249  0.1016
18291TIP3    H176364   1.299   1.525   1.872 -0.4619  1.2728  2.3438
18291TIP3    H276365   1.165   1.458   1.854  0.3524 -0.2506  1.6998
18292TIP3   OH276366   1.989   1.598  15.306  0.4369 -0.0358  0.5866
18292TIP3    H176367   2.033   1.521  15.342  1.2895  0.1454 -0.0476
18292TIP3    H276368   2.004   1.593  15.212 -2.0320 -0.6645  0.1544
18293TIP3   OH276369   0.427   0.029  16.009 -0.4013 -0.3274 -0.1724
18293TIP3    H176370   0.339   0.058  15.985 -0.6751 -0.4458  0.6436
18293TIP3    H276371   0.475   0.024  15.926 -0.9051  0.5886 -0.5278
18294TIP3   OH276372   3.807   5.057   2.905  0.5866 -0.0733  0.0031
18294TIP3    H176373   3.872   4.992   2.878  0.1633 -0.5049  0.0000
18294TIP3    H276374   3.843   5.141   2.877  1.2053 -0.2918  0.1225
18295TIP3   OH276375   0.905   1.923   3.495 -0.1941 -0.1502  0.0872
18295TIP3    H176376   0.970   1.977   3.541 -0.2277 -0.9705  1.1448
18295TIP3    H276377   0.946   1.837   3.489 -0.1142 -0.0255 -1.6405
18296TIP3   OH276378   3.211   1.066   4.796 -0.2180 -0.5078 -0.1453
18296TIP3    H176379   3.268   1.143   4.804 -0.1311 -0.6174  0.3684
18296TIP3    H276380   3.141   1.082   4.860 -1.1080 -0.0889 -1.1929
18297TIP3   OH276381   2.008   1.490  11.628 -0.2844  0.3504 -0.3086
18297TIP3    H176382   2.097   1.473  11.599 -0.9378  0.1247 -2.3449
18297TIP3    H276383   1.967   1.404  11.631 -0.8861  0.6025 -1.0370
18298TIP3   OH276384   1.156   6.570  16.934 -0.5271  0.3170 -0.6417
18298TIP3    H176385   1.147   6.562  17.028 -0.2741 -0.4079 -0.6751
18298TIP3    H276386   1.186   6.660  16.920  0.0770  0.2195  0.0124
18299TIP3   OH276387   6.575   5.485   0.730  0.5139 -0.0396  0.3504
18299TIP3    H176388   6.658   5.528   0.749  0.0809  1.8421 -1.6382
18299TIP3    H276389   6.580   5.465   0.636 -1.8709  1.5965 -0.1989
18300TIP3   OH276390   3.964   4.684   1.379 -0.2048  0.3587 -0.0419
18300TIP3    H176391   3.901   4.718   1.315 -2.1536 -0.5019  1.2825
18300TIP3    H276392   3.955   4.743   1.454  1.5322  0.9529 -0.2758
18301TIP3   OH276393   6.596   5.951  13.502 -0.5027 -0.0121 -0.1628
18301TIP3    H176394   6.533   5.883  13.527 -3.4439  2.2726 -0.7452
18301TIP3    H276395   6.675   5.931  13.552 -1.2320 -3.6867 -0.1979
18302TIP3   OH276396   4.476   3.552  13.539 -0.1215 -0.7319  0.6716
18302TIP3    H176397   4.499   3.496  13.465 -1.0595 -1.2632  0.7625
18302TIP3    H276398   4.535   3.524  13.609 -1.3823 -2.4983  1.0918
18303TIP3   OH276399   2.776   1.607   3.047 -0.4202 -0.3561 -0.7914
18303TIP3    H176400   2.757   1.613   2.953  1.1378 -0.3625 -1.1268
18303TIP3    H276401   2.692   1.583   3.087 -1.6397  1.7705 -1.9101
18304TIP3   OH276402   0.145   2.833   0.287  0.1961  0.0859  0.2343
18304TIP3    H176403   0.072   2.776   0.263  1.0341 -0.9726  0.1153
18304TIP3    H276404   0.124   2.864   0.375 -0.9206  0.7057 -0.2226
18305TIP3   OH276405   3.278   4.681  11.702 -0.5086 -0.1235 -0.2765
18305TIP3    H176406   3.298   4.631  11.781  0.1007 -0.8776 -0.9061
18305TIP3    H276407   3.358   4.679  11.650 -0.8699  0.4532 -0.8821
18306TIP3   OH276408   3.562   2.454  14.741  0.0340 -0.2872  0.0266
18306TIP3    H176409   3.542   2.374  14.790  1.1041  1.5254  3.8524
18306TIP3    H276410   3.502   2.519  14.777  1.4562  1.3775 -0.4903
18307TIP3   OH276411   4.492   3.649   1.509  0.3577  0.1599  0.4885
18307TIP3    H176412   4.582   3.678   1.526  0.3495 -0.3924  1.5191
18307TIP3    H276413   4.501   3.556   1.488 -0.0556 -0.0861  1.3889
18308TIP3   OH276414   2.655   1.879   6.067  0.4121  0.1147  0.4521
18308TIP3    H176415   2.645   1.959   6.015 -0.6963 -1.2253 -1.5103
18308TIP3    H276416   2.617   1.901   6.152 -0.6752  1.4285 -0.3244
18309TIP3   OH276417   6.341   3.351  14.839 -0.2686 -0.3736 -0.2528
18309TIP3    H176418   6.427   3.362  14.797  0.2923 -0.4303  0.8522
18309TIP3    H276419   6.361   3.331  14.930 -1.4538 -1.0909 -0.1316
18310TIP3   OH276420   1.653   5.373   3.056 -0.1480  0.3120 -0.0483
18310TIP3    H176421   1.665   5.278   3.054  0.1767  0.3604 -0.8880
18310TIP3    H276422   1.646   5.394   3.149 -0.0757 -0.5148  0.1561
18311TIP3   OH276423   6.068   4.068   1.579  0.4392 -0.0536  0.0951
18311TIP3    H176424   6.024   3.991   1.543  0.8724 -0.5466  0.6069
18311TIP3    H276425   6.116   4.104   1.504  0.7847 -0.6744  0.0108
18312TIP3   OH276426   4.650   1.800   4.436  0.2776  0.2524  0.4813
18312TIP3    H176427   4.638   1.884   4.479  1.0616  0.9482 -0.6134
18312TIP3    H276428   4.639   1.819   4.343  3.1762 -0.2969 -0.0472
18313TIP3   OH276429   3.504   3.343  13.902  0.3223 -0.2710 -0.0873
18313TIP3    H176430   3.492   3.248  13.911  0.1297 -0.3949 -1.4003
18313TIP3    H276431   3.415   3.377  13.891  0.4249 -0.0097 -0.1167
18314TIP3   OH276432   5.760   6.773   4.364  0.3640  0.4969 -0.2658
18314TIP3    H176433   5.761   6.864   4.395 -0.3402 -0.4279  2.7821
18314TIP3    H276434   5.808   6.724   4.430 -0.1594 -1.5366 -1.3072
18315TIP3   OH276435   4.840   4.044  13.783  0.4580 -0.1117  0.2610
18315TIP3    H176436   4.823   4.079  13.871 -0.5145 -0.7105  0.3226
18315TIP3    H276437   4.870   3.955  13.798 -0.7270 -0.5724 -0.0505
18316TIP3   OH276438   1.079   6.350  16.620  0.2623 -0.2763  0.3072
18316TIP3    H176439   1.100   6.287  16.550 -0.4311 -0.8958  0.6473
18316TIP3    H276440   1.137   6.326  16.692  1.9360  1.2057 -0.4855
18317TIP3   OH276441   3.129   0.671  10.595  0.4548  0.0436  0.0843
18317TIP3    H176442   3.131   0.579  10.570 -1.7711 -0.9841  3.0290
18317TIP3    H276443   3.215   0.688  10.633  1.0303 -0.6722 -0.8597
18318TIP3   OH276444   1.827   0.673   4.455 -0.1017 -0.8054  0.5184
18318TIP3    H176445   1.917   0.659   4.426 -0.0869 -1.4856  0.8638
18318TIP3    H276446   1.827   0.761   4.492 -0.2221  0.2514 -1.8598
18319TIP3   OH276447   2.205   3.365  16.183 -0.3126 -0.0288 -0.0807
18319TIP3    H176448   2.174   3.446  16.142 -0.1850 -0.5520 -1.2562
18319TIP3    H276449   2.150   3.296  16.146  1.0073 -0.7385 -0.7868
18320TIP3   OH276450   1.880   4.253  16.917  0.3110 -0.1702  0.5529
18320TIP3    H176451   1.787   4.272  16.904  0.6051  1.3427  0.4977
18320TIP3    H276452   1.903   4.195  16.844 -0.1360  1.0344 -0.5779
18321TIP3   OH276453   4.190   1.912  10.959 -0.2694 -0.5910 -0.3317
18321TIP3    H176454   4.190   1.997  10.915 -2.0660  0.2074  1.0683
18321TIP3    H276455   4.143   1.854  10.898 -0.8095 -0.0550 -0.4403
18322TIP3   OH276456   3.991   2.656  17.043  0.2747 -0.2423  0.1087
18322TIP3    H176457   4.042   2.688  16.969  1.0708 -2.8162 -0.5807
18322TIP3    H276458   3.989   2.729  17.105  0.6151  1.5695 -1.9155
18323TIP3   OH276459   0.508   6.113   0.321 -0.5177  0.3482 -0.6397
18323TIP3    H176460   0.527   6.058   0.245  0.6788  1.0202 -0.8496
18323TIP3    H276461   0.446   6.061   0.373 -2.2050  0.3255 -2.5745
18324TIP3   OH276462   0.746   4.535   3.802 -0.4113 -0.4509  0.0381
18324TIP3    H176463   0.705   4.617   3.773  0.6165  0.1512  0.2532
18324TIP3    H276464   0.727   4.472   3.732 -0.7849  0.0975 -0.3625
18325TIP3   OH276465   0.952   0.097   2.003 -0.3681 -0.4051  0.1166
18325TIP3    H176466   1.005   0.176   2.007 -2.0232  0.7877 -0.4142
18325TIP3    H276467   0.890   0.106   2.075 -0.1570 -1.5739  0.4689
18326TIP3   OH276468   0.236   0.596   0.312 -0.4537  0.2461  0.6605
18326TIP3    H176469   0.267   0.524   0.256  0.1689  1.0549 -0.0567
18326TIP3    H276470   0.249   0.564   0.401 -0.2791 -0.5748  0.3510
18327TIP3   OH276471   4.728   4.103   1.049 -0.0921 -0.2754  0.3589
18327TIP3    H176472   4.770   4.080   1.132 -1.7746  2.4930  2.1189
18327TIP3    H276473   4.648   4.050   1.047 -0.2649 -0.0335  0.7371
18328TIP3   OH276474   6.763   3.621   1.041  0.2400 -0.2718  0.0398
18328TIP3    H176475   6.719   3.702   1.066 -0.3989 -1.3401  2.6679
18328TIP3    H276476   6.704   3.551   1.069  1.2993 -1.6999 -1.0957
18329TIP3   OH276477   4.458   6.019  15.568  0.4719  0.1228 -0.1810
18329TIP3    H176478   4.371   5.978  15.564  1.8435 -2.9844 -1.4136
18329TIP3    H276479   4.481   6.036  15.477  1.2193  0.8268  0.1242
18330TIP3   OH276480   2.419   0.916   2.641  0.3001 -0.2843 -0.7557
18330TIP3    H176481   2.414   1.011   2.650 -0.6778 -0.2577 -1.4579
18330TIP3    H276482   2.502   0.892   2.683  0.3736  0.8296 -0.2323
18331TIP3   OH276483   1.622   6.823   1.283  0.7282  0.0441 -0.5066
18331TIP3    H176484   1.533   6.857   1.287  0.8095  0.1641  0.5648
18331TIP3    H276485   1.650   6.839   1.193 -0.5333 -0.5306 -1.0269
18332TIP3   OH276486   6.831   5.676   3.307 -0.3879 -0.1598  0.6639
18332TIP3    H176487   6.858   5.618   3.378 -0.3944 -1.0759 -0.0744
18332TIP3    H276488   6.782   5.620   3.247 -0.5825  0.6551  0.0461
18333TIP3   OH276489   6.314   4.251   6.025 -0.4493  0.8631  0.1824
18333TIP3    H176490   6.270   4.194   5.962  1.2895 -2.8272  1.9927
18333TIP3    H276491   6.318   4.199   6.105  0.1168  4.1587  2.4723
18334TIP3   OH276492   4.466   2.078  15.403 -0.3818 -0.1089  0.0647
18334TIP3    H176493   4.390   2.080  15.461  0.2142  0.5558  0.8479
18334TIP3    H276494   4.537   2.045  15.458  0.0956  0.1016 -0.4208
18335TIP3   OH276495   4.408   2.656  16.392 -0.3686 -0.6270  0.5154
18335TIP3    H176496   4.380   2.578  16.343  0.1633 -1.0796  0.9210
18335TIP3    H276497   4.497   2.673  16.361 -1.1128  0.9539 -0.9495
18336TIP3   OH276498   2.641   3.569  13.317 -0.7338 -0.2410 -0.6400
18336TIP3    H176499   2.722   3.615  13.296 -1.2157  0.6166 -0.6792
18336TIP3    H276500   2.665   3.506  13.384 -0.1291  0.3571 -0.2821
18337TIP3   OH276501   4.125   5.091   5.585  0.3824 -0.2974 -0.0997
18337TIP3    H176502   4.145   5.066   5.675 -1.8150 -1.4245  0.1474
18337TIP3    H276503   4.119   5.009   5.538 -0.6750  0.1354 -0.7585
18338TIP3   OH276504   1.268   3.852  14.513  0.6408  0.5602 -0.0984
18338TIP3    H176505   1.204   3.819  14.449  0.5776  0.0724  0.2057
18338TIP3    H276506   1.300   3.934  14.475  0.8479  0.1163 -0.9193
18339TIP3   OH276507   2.022   4.713  13.956  0.0077 -0.3729 -0.3801
18339TIP3    H176508   2.009   4.621  13.976  0.1715 -0.5669 -1.1393
18339TIP3    H276509   1.938   4.743  13.922 -0.7120  0.3184  1.8434
18340TIP3   OH276510   2.642   2.455  14.490 -0.0210  0.2583 -0.4394
18340TIP3    H176511   2.667   2.423  14.576 -1.6156 -0.3302 -0.1511
18340TIP3    H276512   2.714   2.431  14.433  1.1173  0.7718  0.7433
18341TIP3   OH276513   6.284   1.753  12.680  0.1519  0.3578 -0.9049
18341TIP3    H176514   6.215   1.770  12.745  1.3311 -0.2896  0.5845
18341TIP3    H276515   6.270   1.819  12.613 -0.3974  1.8583  0.6115
18342TIP3   OH276516   2.923   1.586   5.734  0.3382  0.4777 -0.3661
18342TIP3    H176517   2.893   1.615   5.820  1.0249  0.0201  0.0377
18342TIP3    H276518   2.843   1.569   5.685 -0.0905 -0.9359  0.7628
18343TIP3   OH276519   2.227   3.506  11.682  0.0105  0.1221 -0.2002
18343TIP3    H176520   2.173   3.577  11.647  0.6109 -0.1444 -1.7675
18343TIP3    H276521   2.276   3.546  11.754 -1.3053  0.6949  0.4009
18344TIP3   OH276522   2.732   1.184  13.078  0.4520 -0.0516  0.1410
18344TIP3    H176523   2.753   1.276  13.091  0.7531 -0.0408 -0.3932
18344TIP3    H276524   2.636   1.181  13.074  0.4613  0.3148 -0.3877
18345TIP3   OH276525   4.125   1.087   2.601  0.3580  0.4584  0.5403
18345TIP3    H176526   4.072   1.036   2.662  2.3057  1.0325  2.8857
18345TIP3    H276527   4.074   1.167   2.586 -0.5504 -0.0764  0.7162
18346TIP3   OH276528   0.656   2.757   1.146  0.2279 -0.2726  0.4286
18346TIP3    H176529   0.670   2.851   1.143  0.3220 -0.2874  0.3876
18346TIP3    H276530   0.606   2.742   1.226  1.3814 -0.3274  1.1578
18347TIP3   OH276531   1.951   4.189   0.128  0.1903  0.1301  0.0257
18347TIP3    H176532   1.921   4.104   0.096  1.4996 -0.9056  1.3670
18347TIP3    H276533   1.918   4.193   0.218  1.9533  0.0175  0.7128
18348TIP3   OH276534   1.765   6.276  11.527  0.5772  0.0311 -0.1823
18348TIP3    H176535   1.697   6.221  11.564  1.1704 -1.6061 -1.4052
18348TIP3    H276536   1.837   6.216  11.508  2.1604  1.6146  0.5335
18349TIP3   OH276537   6.837   3.504   3.638 -0.5199 -0.2768 -0.2714
18349TIP3    H176538   6.807   3.548   3.559 -1.4049 -0.0659  0.1715
18349TIP3    H276539   6.828   3.570   3.707  0.0203 -0.5325  0.0517
18350TIP3   OH276540   1.486   2.870   1.312 -0.0712 -0.0980  0.4056
18350TIP3    H176541   1.549   2.921   1.362  1.8087 -0.7530 -1.2036
18350TIP3    H276542   1.401   2.912   1.332  0.7189  0.4457  3.0549
18351TIP3   OH276543   0.560   1.501  16.202 -0.4016  0.5455  0.2838
18351TIP3    H176544   0.511   1.420  16.214  0.2815 -0.0006 -0.4541
18351TIP3    H276545   0.518   1.543  16.127 -2.5259  2.2947  2.2802
18352TIP3   OH276546   5.807   0.908   1.529  0.0141 -0.9646  0.1920
18352TIP3    H176547   5.759   0.857   1.595  0.3178 -1.0861  0.3188
18352TIP3    H276548   5.851   0.842   1.475 -0.9134 -0.9079 -0.6618
18353TIP3   OH276549   4.708   0.542   3.156  0.6176 -0.0752 -0.5748
18353TIP3    H176550   4.722   0.475   3.090 -1.0628 -0.1786 -0.8672
18353TIP3    H276551   4.739   0.502   3.238 -0.8551 -1.4610 -0.6403
18354TIP3   OH276552   6.399   3.837   2.439  0.2493 -0.2903 -0.9108
18354TIP3    H176553   6.441   3.750   2.441  1.7224  0.4050  0.1944
18354TIP3    H276554   6.472   3.899   2.443 -0.8036  0.9941  2.4727
18355TIP3   OH276555   6.144   5.476  12.445  0.1342 -0.7151  0.2464
18355TIP3    H176556   6.117   5.441  12.359  1.9095  0.6689 -0.9327
18355TIP3    H276557   6.147   5.398  12.501  0.0207 -1.8436 -1.2223
18356TIP3   OH276558   2.590   5.204  14.414 -0.2484 -0.6351 -0.2333
18356TIP3    H176559   2.527   5.214  14.485  0.9807 -0.3208  0.8571
18356TIP3    H276560   2.634   5.121  14.433 -0.1575 -0.7287 -0.8391
18357TIP3   OH276561   1.996   4.212   3.216  0.1830  0.3821 -0.1016
18357TIP3    H176562   1.985   4.132   3.165  0.5865  0.0149  0.3722
18357TIP3    H276563   2.085   4.206   3.251 -1.0517 -0.8934  3.1952
18358TIP3   OH276564   1.362   0.702  16.320  0.4608 -0.3710  0.0849
18358TIP3    H176565   1.367   0.790  16.282  1.6364 -0.9432 -1.1566
18358TIP3    H276566   1.348   0.644  16.245  0.5150 -1.3296  0.7947
18359TIP3   OH276567   1.581   0.947   0.117 -0.7231 -0.7568 -0.0185
18359TIP3    H176568   1.542   1.016   0.171  0.5221 -1.1372  1.4426
18359TIP3    H276569   1.545   0.961   0.030 -0.1288  2.0764  0.0970
18360TIP3   OH276570   3.525   4.741  15.072  0.3180 -0.8112  0.4059
18360TIP3    H176571   3.590   4.763  15.006 -0.2416  0.8356  0.3594
18360TIP3    H276572   3.462   4.685  15.026  1.4045 -2.0207  0.3311
18361TIP3   OH276573   3.977   2.465   2.298  0.0706 -0.2800 -0.1960
18361TIP3    H176574   4.029   2.471   2.218 -0.8571 -1.6506 -0.9521
18361TIP3    H276575   4.039   2.438   2.366  0.9463  1.2945 -0.3352
18362TIP3   OH276576   5.680   2.681  14.954  0.6312 -0.0779 -0.4605
18362TIP3    H176577   5.758   2.737  14.962  0.6636 -0.2757  0.8026
18362TIP3    H276578   5.701   2.622  14.882  0.8115  1.1687 -1.4825
18363TIP3   OH276579   1.613   5.906  15.343 -0.1376 -0.2122  0.0775
18363TIP3    H176580   1.635   5.870  15.429 -0.5720 -0.7364 -0.0200
18363TIP3    H276581   1.689   5.957  15.317  1.6856 -3.1995 -0.9625
18364TIP3   OH276582   6.625   0.805  14.174 -0.1106  0.0077  0.0936
18364TIP3    H176583   6.675   0.726  14.195 -0.3948  0.2848  2.0158
18364TIP3    H276584   6.573   0.781  14.097 -0.4574 -1.8204  0.8422
18365TIP3   OH276585   2.975   2.351   2.911  0.0526  0.2355  0.0195
18365TIP3    H176586   2.975   2.445   2.896  1.4411  0.2176 -0.1435
18365TIP3    H276587   2.931   2.314   2.834  0.0491  0.6963 -0.2002
18366TIP3   OH276588   5.554   1.619   4.999  0.7571 -0.1069  0.7925
18366TIP3    H176589   5.491   1.628   5.071 -0.0215 -3.5762  0.7211
18366TIP3    H276590   5.501   1.624   4.920  0.7789 -1.5168  0.6776
18367TIP3   OH276591   3.312   3.320   2.798  0.6745 -0.2576  0.4201
18367TIP3    H176592   3.369   3.363   2.733  1.2909 -4.2634 -2.0473
18367TIP3    H276593   3.372   3.268   2.852 -0.2702 -0.8976  0.8830
18368TIP3   OH276594   2.597   6.015  11.242  0.2297 -0.0806  0.4695
18368TIP3    H176595   2.584   5.955  11.315 -1.9051 -1.1195 -0.6908
18368TIP3    H276596   2.626   5.959  11.170  0.9409  0.7293  0.1047
18369TIP3   OH276597   0.330   3.219  13.798 -0.0001  0.8462 -0.0394
18369TIP3    H176598   0.266   3.174  13.743  0.7290  0.1537 -0.3376
18369TIP3    H276599   0.390   3.260  13.735  1.1050 -0.3272  0.2227
18370TIP3   OH276600   2.020   4.210   4.199  0.0093  0.2085  0.0522
18370TIP3    H176601   2.016   4.147   4.270 -3.8227 -2.0785 -1.8740
18370TIP3    H276602   2.073   4.168   4.132  1.0400  1.0091  0.3388
18371TIP3   OH276603   4.036   3.065  11.921  0.9175 -0.3181  0.7623
18371TIP3    H176604   4.072   2.990  11.874  0.4987 -0.4290  0.6072
18371TIP3    H276605   3.975   3.105  11.859 -0.4065 -1.0508  1.5275
18372TIP3   OH276606   1.727   6.329   5.859  0.1346  0.1803 -0.6281
18372TIP3    H176607   1.736   6.280   5.940  0.3534 -0.6723 -1.1514
18372TIP3    H276608   1.667   6.277   5.805 -0.3906  0.9734 -0.8413
18373TIP3   OH276609   6.828   3.631  13.440  0.2051  0.6710  0.0371
18373TIP3    H176610   6.747   3.637  13.492 -0.3523 -0.3307 -0.6664
18373TIP3    H276611   6.898   3.628  13.505 -0.5701 -2.2926  0.8904
18374TIP3   OH276612   0.323   6.023  13.805 -0.0612 -0.2321 -0.4221
18374TIP3    H176613   0.340   5.985  13.892 -0.4581 -1.2608 -0.7839
18374TIP3    H276614   0.267   6.099  13.823  2.4207  1.5409  0.5247
18375TIP3   OH276615   3.634   0.748  12.816 -0.0697  0.1681 -0.0460
18375TIP3    H176616   3.636   0.829  12.866 -1.8588 -0.8187  1.7620
18375TIP3    H276617   3.695   0.690  12.863 -0.7124 -0.3230  0.1993
18376TIP3   OH276618   0.317   1.697   4.634 -0.3082  0.0341  0.0213
18376TIP3    H176619   0.372   1.670   4.708 -0.9098 -2.4676 -0.3468
18376TIP3    H276620   0.376   1.747   4.578  0.9578 -0.5674  0.7673
18377TIP3   OH276621   2.145   2.938  16.621  0.0719  0.3050 -0.4238
18377TIP3    H176622   2.201   2.880  16.673 -0.3305 -0.9095 -1.3091
18377TIP3    H276623   2.205   2.984  16.562  0.3677  0.6503  0.1362
18378TIP3   OH276624   6.452   0.813  13.329  0.3047  0.1703 -0.0226
18378TIP3    H176625   6.472   0.728  13.290 -2.8498 -1.5191  1.6039
18378TIP3    H276626   6.502   0.815  13.411  0.4782 -0.0615 -0.1237
18379TIP3   OH276627   6.161   2.218   3.113 -0.3358  0.2019 -0.0491
18379TIP3    H176628   6.135   2.157   3.182  0.7588 -0.1617  0.0687
18379TIP3    H276629   6.219   2.167   3.057 -0.4615  0.7670 -0.7072
18380TIP3   OH276630   2.594   4.529   1.177  0.0141  0.0345 -0.3572
18380TIP3    H176631   2.662   4.597   1.174 -1.8993  2.0475 -0.4684
18380TIP3    H276632   2.539   4.548   1.101 -2.1478  0.0960  1.1597
18381TIP3   OH276633   1.707   6.222  14.987  0.1152  0.1071 -0.5295
18381TIP3    H176634   1.612   6.228  15.001  0.2641 -0.1860  0.7546
18381TIP3    H276635   1.740   6.309  15.008  0.2143 -0.0184 -0.1535
18382TIP3   OH276636   3.891   1.349  13.632  0.4573  0.1403  0.5063
18382TIP3    H176637   3.798   1.355  13.654 -0.3832  0.4740 -2.6169
18382TIP3    H276638   3.933   1.416  13.686 -1.5304  1.6346  0.3273
18383TIP3   OH276639   3.100   2.558  12.395 -0.6605  0.2879  0.1509
18383TIP3    H176640   3.186   2.518  12.405 -0.4615  0.7437  0.2843
18383TIP3    H276641   3.079   2.594  12.481 -0.3862  1.3544 -0.2132
18384TIP3   OH276642   6.647   2.584  15.959  0.4659 -0.2044 -0.2710
18384TIP3    H176643   6.614   2.584  15.869 -1.7322  0.6873  0.4626
18384TIP3    H276644   6.729   2.536  15.955  0.6834  0.2689 -2.8437
18385TIP3   OH276645   2.487   0.364   5.396  1.1303  0.6993  0.1458
18385TIP3    H176646   2.481   0.407   5.481 -0.1526 -0.3942  0.6474
18385TIP3    H276647   2.560   0.303   5.404 -1.4271 -2.4541  2.0143
18386TIP3   OH276648   1.615   6.592   0.884  0.3001 -0.0155 -0.3856
18386TIP3    H176649   1.555   6.590   0.809  0.3119 -3.3174 -0.4449
18386TIP3    H276650   1.574   6.535   0.949  1.9609  0.0189  0.7558
18387TIP3   OH276651   4.317   2.000   0.930 -0.2281 -0.4476  0.0382
18387TIP3    H176652   4.288   1.927   0.984 -0.5125 -0.1030  0.3511
18387TIP3    H276653   4.412   1.991   0.927 -0.0516  0.4125  1.8663
18388TIP3   OH276654   2.695   5.837   1.852 -0.3414  0.5738 -0.1909
18388TIP3    H176655   2.703   5.743   1.868  1.9783  1.0135  1.8986
18388TIP3    H276656   2.660   5.844   1.763 -0.8091 -2.2295 -0.3138
18389TIP3   OH276657   4.532   6.281  15.600  0.4198  0.1421  0.0507
18389TIP3    H176658   4.485   6.364  15.595 -0.9342 -0.5792  0.3107
18389TIP3    H276659   4.463   6.215  15.611  1.5295 -0.8882  1.1220
18390TIP3   OH276660   6.204   0.371  15.568  0.3587  0.3247  0.7004
18390TIP3    H176661   6.144   0.308  15.608 -1.1638  0.5705 -1.0187
18390TIP3    H276662   6.247   0.413  15.641 -0.0357 -1.3355  1.9525
18391TIP3   OH276663   0.187   0.567   3.973 -0.7608  0.2169  0.6833
18391TIP3    H176664   0.273   0.526   3.989 -0.6441  0.2693  0.2096
18391TIP3    H276665   0.202   0.625   3.899 -1.1947  0.2772  0.6420
18392TIP3   OH276666   4.414   6.040   5.138  0.3678  0.9388  0.1002
18392TIP3    H176667   4.477   6.091   5.087  0.2504  0.4690 -0.5344
18392TIP3    H276668   4.430   5.950   5.110 -1.4114  0.9286 -1.0055
18393TIP3   OH276669   3.975   1.502   5.774 -0.2681 -0.0592  0.5584
18393TIP3    H176670   4.026   1.554   5.836 -0.9045 -0.6401  1.5974
18393TIP3    H276671   3.932   1.436   5.828 -0.6539 -0.7319 -0.5419
18394TIP3   OH276672   1.930   6.800  17.090 -0.0346  0.0695 -0.2144
18394TIP3    H176673   1.922   6.748  17.170 -2.5355 -1.1938 -1.1862
18394TIP3    H276674   1.879   6.879  17.108  0.0510  0.1430 -0.2954
18395TIP3   OH276675   0.135   0.695   4.416  0.1441  0.0602  0.0896
18395TIP3    H176676   0.139   0.782   4.375 -1.6621 -0.0326 -0.3814
18395TIP3    H276677   0.225   0.676   4.442  0.6826  1.7898 -0.3940
18396TIP3   OH276678   3.414   4.199   0.244 -0.2825 -0.2387 -0.0367
18396TIP3    H176679   3.402   4.276   0.299  1.6894  0.6376 -0.7290
18396TIP3    H276680   3.351   4.209   0.173  0.1701  0.9214 -0.2899
18397TIP3   OH276681   1.622   0.330   5.510 -0.5962 -0.1522  0.1885
18397TIP3    H176682   1.589   0.417   5.532 -0.1349 -0.3299  1.6550
18397TIP3    H276683   1.614   0.325   5.414 -0.8604  1.3966  0.1066
18398TIP3   OH276684   1.547   1.805   6.471  0.5037  0.6086  0.6327
18398TIP3    H176685   1.551   1.731   6.533  1.1515 -0.3174 -0.4625
18398TIP3    H276686   1.621   1.860   6.496 -0.2427  1.1322  1.7359
18399TIP3   OH276687   0.072   4.434   4.579  0.2084 -0.3587  0.5296
18399TIP3    H176688   0.093   4.502   4.514  0.4448  0.4970  1.4713
18399TIP3    H276689   0.155   4.387   4.591 -0.0505 -1.0671 -0.4003
18400TIP3   OH276690   4.138   2.498  11.564  0.1419  0.3648  0.0458
18400TIP3    H176691   4.225   2.502  11.524  0.5691 -0.0089  0.9035
18400TIP3    H276692   4.079   2.533  11.497  0.8525 -0.0583 -0.8327
18401TIP3   OH276693   1.273   3.126   5.168  0.1521  0.1675 -0.4159
18401TIP3    H176694   1.318   3.162   5.244  2.9807 -1.4897 -1.1224
18401TIP3    H276695   1.265   3.033   5.186 -3.7395  0.4008 -0.1307
18402TIP3   OH276696   6.661   2.840   4.163  0.0440  0.2318 -0.0509
18402TIP3    H176697   6.737   2.872   4.212  0.9282 -3.0614  1.0033
18402TIP3    H276698   6.599   2.912   4.165  2.2847  2.2828  0.9494
18403TIP3   OH276699   5.020   4.521   4.209  0.3170  0.1398 -0.6073
18403TIP3    H176700   4.928   4.493   4.206 -0.7478  3.1122  0.8707
18403TIP3    H276701   5.061   4.461   4.271 -1.3148  0.3857  0.7919
18404TIP3   OH276702   5.731   1.151  12.102  0.0071  0.2396  0.7587
18404TIP3    H176703   5.648   1.110  12.077  0.0245 -0.5273  1.8777
18404TIP3    H276704   5.795   1.115  12.040  0.1199 -1.9075  2.0340
18405TIP3   OH276705   1.605   4.700  14.777  0.2893 -0.6385  0.2558
18405TIP3    H176706   1.553   4.649  14.839 -0.5452  0.5570  0.5776
18405TIP3    H276707   1.550   4.776  14.756  0.6986 -0.8151 -1.6666
18406TIP3   OH276708   0.357   2.409   3.606 -1.0821  0.6936  0.2687
18406TIP3    H176709   0.264   2.398   3.588 -1.1199  1.0515  0.2414
18406TIP3    H276710   0.400   2.373   3.528 -1.1482 -0.7051  0.8481
18407TIP3   OH276711   6.460   4.507   0.690 -0.2154  0.8452  0.5759
18407TIP3    H176712   6.389   4.568   0.675  0.2866  1.0116 -1.4658
18407TIP3    H276713   6.422   4.420   0.675 -0.1234  0.9114 -0.1054
18408TIP3   OH276714   0.786   5.202   0.046 -0.0995  0.2379  0.0996
18408TIP3    H176715   0.761   5.111   0.034 -0.9847  0.4827  0.0503
18408TIP3    H276716   0.872   5.197   0.089  0.0990 -0.6101 -0.3671
18409TIP3   OH276717   2.480   5.270  13.226  0.6725  0.2574  0.8132
18409TIP3    H176718   2.545   5.331  13.260 -0.3112  0.6784  2.0131
18409TIP3    H276719   2.523   5.229  13.150  1.9803  1.1688  1.0233
18410TIP3   OH276720   4.551   2.625   4.504  0.0648  0.4087 -0.2184
18410TIP3    H176721   4.562   2.603   4.411  0.5307 -0.3378  0.0045
18410TIP3    H276722   4.619   2.575   4.549 -2.0177 -1.7247  0.8440
18411TIP3   OH276723   3.052   0.102  15.227 -0.1842  0.4240 -0.2993
18411TIP3    H176724   3.119   0.041  15.196  0.6447 -0.0732  2.2483
18411TIP3    H276725   2.991   0.108  15.155  0.6333 -2.0572 -1.3252
18412TIP3   OH276726   3.080   2.437   0.118  0.2437 -1.0713 -0.0185
18412TIP3    H176727   3.022   2.498   0.073 -0.0760  0.1776  1.9386
18412TIP3    H276728   3.048   2.435   0.208  1.5011 -2.5940  0.4584
18413TIP3   OH276729   4.157   1.772  15.502  0.0408 -0.1849 -0.4102
18413TIP3    H176730   4.209   1.749  15.425  1.0955 -3.1693  0.9953
18413TIP3    H276731   4.085   1.709  15.501 -0.4934  0.4055  0.4748
18414TIP3   OH276732   5.314   2.048  10.199 -0.4685 -0.4764 -0.1031
18414TIP3    H176733   5.287   2.129  10.155 -1.9370 -2.0630 -2.3834
18414TIP3    H276734   5.256   1.981  10.162  1.0517 -2.6728  1.2700
18415TIP3   OH276735   1.616   2.417   4.390  0.1108 -0.8438  0.3164
18415TIP3    H176736   1.577   2.330   4.387  2.8243 -2.1239 -0.5599
18415TIP3    H276737   1.549   2.475   4.353 -1.4779 -2.6474  0.2480
18416TIP3   OH276738   5.057   4.589   4.574 -0.2019  0.4087  0.1107
18416TIP3    H176739   5.119   4.517   4.580  0.2922  0.9061  1.3050
18416TIP3    H276740   5.094   4.647   4.507 -0.3966 -0.2330 -0.5644
18417TIP3   OH276741   5.046   5.361   0.563  0.3473 -0.0830 -0.5785
18417TIP3    H176742   5.136   5.375   0.590 -0.1650  1.6829  0.3940
18417TIP3    H276743   5.026   5.434   0.505 -0.6294 -0.0700 -0.2536
18418TIP3   OH276744   5.228   5.970   2.393 -0.1309  0.2525  0.2324
18418TIP3    H176745   5.154   5.913   2.416  0.3879 -0.8464 -0.6896
18418TIP3    H276746   5.292   5.955   2.462 -0.5147  0.7182  0.6915
18419TIP3   OH276747   3.583   5.004   1.317 -0.1654 -0.1461 -0.6527
18419TIP3    H176748   3.582   5.008   1.222 -1.3862  1.0364 -0.6291
18419TIP3    H276749   3.502   4.957   1.339 -1.6903  2.4606 -0.1937
18420TIP3   OH276750   5.515   2.464   3.226  0.0236 -0.1042 -0.0855
18420TIP3    H176751   5.433   2.441   3.183  0.6173  0.9298 -1.8732
18420TIP3    H276752   5.489   2.524   3.296 -0.9628 -1.8178  1.1051
18421TIP3   OH276753   0.318   1.396  13.734  0.0747  0.7669 -0.6203
18421TIP3    H176754   0.320   1.398  13.830  1.8263  0.4109 -0.6212
18421TIP3    H276755   0.391   1.340  13.710  0.9023  2.4191 -2.2104
18422TIP3   OH276756   0.110   0.955   4.354  0.1424 -0.1318  0.5101
18422TIP3    H176757   0.144   1.027   4.301 -0.5447 -0.0288  0.2065
18422TIP3    H276758   0.060   0.998   4.423 -0.3998 -0.3226  0.2376
18423TIP3   OH276759   1.298   4.465  16.896 -0.0236  0.1330 -0.2684
18423TIP3    H176760   1.285   4.401  16.966 -2.4119  0.2907 -0.4964
18423TIP3    H276761   1.370   4.519  16.927  0.6346 -1.3327  0.9064
18424TIP3   OH276762   3.673   0.716  15.510 -0.4389 -0.2068  0.2040
18424TIP3    H176763   3.582   0.740  15.495 -0.7611 -0.5420  1.5006
18424TIP3    H276764   3.675   0.686  15.601  0.9713 -0.1766  0.2009
18425TIP3   OH276765   3.438   6.552   4.545  0.4968 -0.2356  0.4437
18425TIP3    H176766   3.517   6.510   4.512 -0.9771 -1.3519 -1.9121
18425TIP3    H276767   3.397   6.486   4.601  0.7376 -0.0198  0.8768
18426TIP3   OH276768   0.803   5.029   3.563  0.3321  0.1325  0.0381
18426TIP3    H176769   0.781   4.940   3.590 -2.9552  1.1810  1.4192
18426TIP3    H276770   0.894   5.041   3.590  0.7273 -2.5971  0.2184
18427TIP3   OH276771   1.237   2.302  16.707 -0.5134 -0.2900 -0.1705
18427TIP3    H176772   1.181   2.289  16.784 -3.5048  0.3277 -2.0545
18427TIP3    H276773   1.194   2.373  16.658  1.1301 -0.8041 -2.5261
18428TIP3   OH276774   4.235   5.263   5.928  0.0207 -0.3239  0.1964
18428TIP3    H176775   4.325   5.297   5.928  0.1700 -0.6513  1.5535
18428TIP3    H276776   4.239   5.184   5.875 -0.1214  1.1675 -2.1830
18429TIP3   OH276777   4.764   6.103  17.029 -0.6980 -0.1120  0.1594
18429TIP3    H176778   4.855   6.131  17.039  0.4345 -2.4879 -2.2707
18429TIP3    H276779   4.740   6.133  16.941 -1.6474 -1.0768  0.0754
18430TIP3   OH276780   2.040   0.730   4.774 -0.0259 -0.9413 -0.6195
18430TIP3    H176781   2.096   0.750   4.699  1.2820 -3.1011 -0.3183
18430TIP3    H276782   2.101   0.700   4.841 -1.1894  0.6186  1.2435
18431TIP3   OH276783   5.675   3.190   4.161 -0.3559  0.1967  0.0286
18431TIP3    H176784   5.597   3.239   4.135 -0.0949  0.1953 -0.7998
18431TIP3    H276785   5.642   3.107   4.195 -0.6741 -0.5717 -2.0320
18432TIP3   OH276786   1.636   1.559   3.341 -0.6727  0.7734 -0.1719
18432TIP3    H176787   1.701   1.583   3.275  0.9451 -0.2602  0.9503
18432TIP3    H276788   1.645   1.465   3.351 -2.1806  0.6432  0.2386
18433TIP3   OH276789   1.508   6.563   5.759  0.2635 -0.5026  0.0229
18433TIP3    H176790   1.503   6.467   5.762  0.9916 -0.5273  0.9442
18433TIP3    H276791   1.552   6.587   5.840 -0.0070  0.6304 -0.1503
18434TIP3   OH276792   3.221   1.161  16.101 -0.1152  0.1100 -0.2372
18434TIP3    H176793   3.220   1.094  16.033  0.9592 -1.4022  1.1505
18434TIP3    H276794   3.172   1.123  16.174 -0.0839  1.1262  0.3447
18435TIP3   OH276795   4.859   1.380  14.057  0.2318 -0.1554 -0.5315
18435TIP3    H176796   4.831   1.456  14.005 -0.6654  0.5417  0.8911
18435TIP3    H276797   4.874   1.416  14.145  1.3204 -1.3632 -0.1986
18436TIP3   OH276798   0.829   2.157  16.320  0.5783 -0.4938 -0.2822
18436TIP3    H176799   0.803   2.100  16.392 -0.6234  1.8231  1.2432
18436TIP3    H276800   0.917   2.187  16.344  1.5994 -2.2751 -1.5375
18437TIP3   OH276801   5.176   3.769   2.245  0.0174 -0.3959 -0.1898
18437TIP3    H176802   5.234   3.704   2.206 -0.3828 -0.9593  0.1410
18437TIP3    H276803   5.117   3.794   2.173 -2.1849 -3.0822  0.4993
18438TIP3   OH276804   6.380   5.529  13.304  0.4879 -0.1084 -0.2042
18438TIP3    H176805   6.378   5.486  13.389 -1.2579  0.5418  0.1178
18438TIP3    H276806   6.433   5.608  13.319  1.7809 -0.9302 -0.2388
18439TIP3   OH276807   6.827   4.880   6.122 -0.0276  0.3598  0.3524
18439TIP3    H176808   6.903   4.847   6.169 -0.0806 -1.3356 -0.6521
18439TIP3    H276809   6.843   4.973   6.111  1.1481  0.3146  1.5244
18440TIP3   OH276810   0.720   0.522   4.771 -0.6060 -0.0953  0.2153
18440TIP3    H176811   0.656   0.488   4.708  0.3087 -2.9757  0.7135
18440TIP3    H276812   0.687   0.494   4.856  0.0240  0.6327  0.7076
18441TIP3   OH276813   3.439   5.370   5.159 -0.5777  0.2222 -0.0259
18441TIP3    H176814   3.487   5.451   5.142 -0.5599  0.2377  0.1009
18441TIP3    H276815   3.395   5.385   5.242  0.4808 -0.3891  0.6661
18442TIP3   OH276816   0.023   4.977  11.811  0.1174 -0.0764  0.4483
18442TIP3    H176817  -0.043   4.919  11.774  1.6289 -0.6811 -1.4882
18442TIP3    H276818   0.086   4.918  11.854  0.2629  0.3502  0.8284
18443TIP3   OH276819   5.193   0.058  12.304  0.0250 -0.0314 -0.0733
18443TIP3    H176820   5.177   0.085  12.214 -1.9182 -0.8898 -0.0376
18443TIP3    H276821   5.228   0.135  12.347 -0.7569  0.9402 -1.1332
18444TIP3   OH276822   6.673   0.316   1.545 -0.7049 -0.3102 -0.3560
18444TIP3    H176823   6.623   0.243   1.508 -0.1620 -1.4923  1.1591
18444TIP3    H276824   6.672   0.300   1.640  3.1571 -0.8326 -0.2525
18445TIP3   OH276825   6.555   3.577  15.994 -0.7572 -0.2836  0.0903
18445TIP3    H176826   6.502   3.637  16.047 -1.1715 -1.6375  1.2640
18445TIP3    H276827   6.533   3.490  16.027 -0.0758 -1.0978 -1.4807
18446TIP3   OH276828   0.364   2.533  15.091  0.0868  0.0282 -0.0141
18446TIP3    H176829   0.320   2.594  15.150 -1.6135  0.7142 -1.8695
18446TIP3    H276830   0.292   2.491  15.042  1.4058 -0.4968 -1.5816
18447TIP3   OH276831   2.168   3.027   5.776  0.4185  0.1655  0.4965
18447TIP3    H176832   2.215   2.944   5.768  1.2712  0.5805  1.0943
18447TIP3    H276833   2.078   3.006   5.750  0.4594 -1.1115  1.2935
18448TIP3   OH276834   6.178   1.964   5.911  0.1550 -0.7231  0.2273
18448TIP3    H176835   6.135   1.988   5.993  2.1453 -0.6329  1.3164
18448TIP3    H276836   6.113   1.980   5.843 -0.4682  2.4713  1.4325
18449TIP3   OH276837   6.574   3.486   0.518 -0.7959 -0.2154 -0.7280
18449TIP3    H176838   6.481   3.462   0.519 -1.2734  1.5054 -0.3705
18449TIP3    H276839   6.606   3.463   0.605 -1.1503  0.1090 -0.5117
18450TIP3   OH276840   2.853   6.112  13.329 -0.5978 -0.1429 -0.2514
18450TIP3    H176841   2.776   6.057  13.315 -1.1799  1.0177 -1.8478
18450TIP3    H276842   2.926   6.050  13.336 -1.1366 -1.1493 -2.6031
18451TIP3   OH276843   3.374   6.478  12.404 -0.4111 -0.0358  0.2611
18451TIP3    H176844   3.289   6.433  12.408 -0.8529  0.7514 -0.0254
18451TIP3    H276845   3.361   6.547  12.339 -0.1553  1.3511  1.6529
18452TIP3   OH276846   3.253   6.082   5.640 -0.2790  0.1981  0.0258
18452TIP3    H176847   3.346   6.065   5.625 -0.2202  1.4667 -1.2574
18452TIP3    H276848   3.243   6.176   5.626 -1.8173  0.0189 -0.2456
18453TIP3   OH276849   6.775   2.604   2.545 -0.4684  0.0354  0.0592
18453TIP3    H176850   6.713   2.637   2.480 -0.4289  0.6786  0.3478
18453TIP3    H276851   6.723   2.546   2.601 -0.3479 -1.1185 -0.9832
18454TIP3   OH276852   2.585   2.328  15.854 -0.1061  0.4234 -0.0244
18454TIP3    H176853   2.585   2.423  15.866  1.7173  0.4743 -0.1504
18454TIP3    H276854   2.654   2.312  15.789  0.7187 -1.0984  1.1523
18455TIP3   OH276855   4.184   0.972   0.825 -0.0811  0.1752  0.2205
18455TIP3    H176856   4.092   0.947   0.829 -0.0295 -0.0868 -0.1339
18455TIP3    H276857   4.196   1.034   0.897 -0.2390 -0.7361  1.0447
18456TIP3   OH276858   4.346   2.366   1.191 -0.1027  0.2883  0.1367
18456TIP3    H176859   4.404   2.402   1.124 -1.2392  0.5978 -0.7138
18456TIP3    H276860   4.262   2.354   1.146  0.3277 -4.3079  0.0457
18457TIP3   OH276861   2.741   3.129  15.539  0.4269 -0.3564 -0.0162
18457TIP3    H176862   2.678   3.182  15.490 -0.6661 -1.7877 -0.1899
18457TIP3    H276863   2.790   3.193  15.591 -0.8201  0.8316 -0.2570
18458TIP3   OH276864   2.070   6.662  11.341  0.1793 -0.4530 -0.7585
18458TIP3    H176865   1.981   6.695  11.352  0.7021  0.4147  1.4337
18458TIP3    H276866   2.063   6.569  11.364 -0.1018 -0.3026 -0.2094
18459TIP3   OH276867   1.453   6.394   6.138 -0.0519  0.1263  0.3264
18459TIP3    H176868   1.436   6.342   6.059 -1.0890  1.4133 -0.3439
18459TIP3    H276869   1.548   6.406   6.138 -0.0753  0.5680 -1.0668
18460TIP3   OH276870   5.458   2.999  12.148 -0.0634  0.2610  0.0282
18460TIP3    H176871   5.406   3.078  12.154  0.5682  0.6875 -0.0280
18460TIP3    H276872   5.528   3.020  12.086 -0.5113 -0.6974 -0.8553
18461TIP3   OH276873   2.528   5.571  11.684  0.2327 -0.1764  0.0025
18461TIP3    H176874   2.600   5.585  11.622  2.9133  0.7114  3.0487
18461TIP3    H276875   2.499   5.659  11.708 -0.0706 -0.4669  0.7348
18462TIP3   OH276876   1.875   4.562  12.672  0.3772  0.8378 -0.0947
18462TIP3    H176877   1.794   4.526  12.636 -0.1767  2.3919 -0.4860
18462TIP3    H276878   1.919   4.487  12.711 -0.4691 -0.3416 -1.3113
18463TIP3   OH276879   6.595   0.299   2.478  0.2098 -0.5484 -0.1669
18463TIP3    H176880   6.587   0.393   2.494 -1.0801 -0.7314  0.4056
18463TIP3    H276881   6.575   0.289   2.384 -1.3484 -0.4076  0.1252
18464TIP3   OH276882   4.907   1.140  12.842 -0.0545  0.3483 -0.6092
18464TIP3    H176883   4.824   1.093  12.841  0.3512 -0.5009  0.8417
18464TIP3    H276884   4.893   1.212  12.904  0.7345 -0.7947  0.9739
18465TIP3   OH276885   6.501   2.301  12.350  0.3824 -0.1614 -0.6516
18465TIP3    H176886   6.435   2.289  12.282  0.3900 -1.4521 -0.4576
18465TIP3    H276887   6.583   2.271  12.311  0.8692  1.3378 -0.8572
18466TIP3   OH276888   6.239   2.341  15.947  0.0301  0.4194  0.0757
18466TIP3    H176889   6.180   2.411  15.921 -0.7470 -0.1234  0.3269
18466TIP3    H276890   6.190   2.291  16.012  0.3718 -0.6255 -0.4391
18467TIP3   OH276891   3.412   4.699  13.590  0.5136  0.5964 -0.3835
18467TIP3    H176892   3.471   4.623  13.588 -0.6639 -0.3460 -1.4652
18467TIP3    H276893   3.386   4.707  13.682  1.2298  0.1467 -0.1344
18468TIP3   OH276894   1.554   2.579   0.089 -0.0309  0.3578  0.1471
18468TIP3    H176895   1.570   2.671   0.068  1.5595  0.5880  2.0864
18468TIP3    H276896   1.640   2.538   0.088  0.0262  0.0111  3.9374
18469TIP3   OH276897   5.142   0.677  12.760  0.3165 -0.2638 -0.4475
18469TIP3    H176898   5.229   0.644  12.739  0.4088 -0.1860 -0.1818
18469TIP3    H276899   5.090   0.657  12.682 -0.1583 -2.8611  0.4319
18470TIP3   OH276900   2.099   6.520   2.539  0.0059 -0.3631 -0.2241
18470TIP3    H176901   2.104   6.606   2.580 -1.5844 -0.3956  0.1195
18470TIP3    H276902   2.153   6.463   2.595 -0.7767 -0.0490  0.9069
18471TIP3   OH276903   5.615   2.777   4.635 -0.1519  0.3005  0.0753
18471TIP3    H176904   5.521   2.771   4.618  0.1530 -1.1159 -1.3472
18471TIP3    H276905   5.648   2.688   4.620  1.2264  0.4162  1.9816
18472TIP3   OH276906   3.818   0.838  11.807  0.0172  0.2339 -0.4140
18472TIP3    H176907   3.736   0.810  11.766  0.9458 -0.5713 -1.7931
18472TIP3    H276908   3.844   0.764  11.861  0.4002  0.0373 -0.8630
18473TIP3   OH276909   2.508   6.376  15.125  0.2059 -0.0965  0.3238
18473TIP3    H176910   2.455   6.298  15.109 -0.0376  0.2407 -0.6210
18473TIP3    H276911   2.519   6.380  15.220 -1.7051 -0.0398  0.5815
18474TIP3   OH276912   1.511   0.968   6.616  0.5415  0.7125 -0.5488
18474TIP3    H176913   1.435   0.971   6.674  0.8488  3.8626 -0.1626
18474TIP3    H276914   1.480   1.004   6.533  1.3637  1.0453 -0.7209
18475TIP3   OH276915   0.872   2.454   0.665 -0.6600  0.2835  0.3052
18475TIP3    H176916   0.921   2.392   0.718  2.9615  1.1319 -1.7030
18475TIP3    H276917   0.866   2.413   0.579 -1.2483  1.2822 -0.1501
18476TIP3   OH276918   6.054   3.550  11.289 -0.1791 -0.5747 -0.2759
18476TIP3    H176919   6.040   3.594  11.206 -0.1837 -1.4091 -0.7246
18476TIP3    H276920   6.033   3.458  11.272  2.5015 -1.3213 -0.1403
18477TIP3   OH276921   1.675   5.971   2.716 -0.0503  0.3735  0.5818
18477TIP3    H176922   1.662   6.041   2.781 -0.7502  1.7711 -0.9723
18477TIP3    H276923   1.768   5.948   2.724  0.1063  1.2297  1.4127
18478TIP3   OH276924   0.677   2.119   0.413 -0.0486  0.0860  0.2375
18478TIP3    H176925   0.748   2.146   0.355 -0.6734  1.1299 -0.0559
18478TIP3    H276926   0.717   2.054   0.470  1.2343  0.8910  0.2929
18479TIP3   OH276927   6.536   5.336   5.075 -0.3536  0.2019 -0.5233
18479TIP3    H176928   6.567   5.254   5.037  0.2695  0.7209 -1.1554
18479TIP3    H276929   6.535   5.398   5.002 -0.0640  0.9629  0.1050
18480TIP3   OH276930   2.913   1.685   6.303 -0.0316  0.0959  0.3137
18480TIP3    H176931   2.834   1.635   6.286  0.3292 -0.2638 -0.3387
18480TIP3    H276932   2.975   1.620   6.337  1.1535 -0.4090 -2.5413
18481TIP3   OH276933   5.369   3.562   2.694  0.4316 -0.1500  0.4320
18481TIP3    H176934   5.348   3.469   2.705 -1.1465 -0.0748 -1.5032
18481TIP3    H276935   5.307   3.607   2.753 -0.0966 -0.2483 -0.0439
18482TIP3   OH276936   0.572   4.139   4.562  0.2969 -0.3756  0.5114
18482TIP3    H176937   0.625   4.110   4.488 -0.0603  0.6994 -0.1799
18482TIP3    H276938   0.571   4.234   4.556  0.0251 -0.2812  1.7431
18483TIP3   OH276939   1.467   4.999   6.561  0.3697 -0.4521 -0.6152
18483TIP3    H176940   1.455   5.063   6.490  1.5872  0.1650 -0.2872
18483TIP3    H276941   1.378   4.980   6.590 -0.1456 -0.5900 -2.1842
18484TIP3   OH276942   6.291   5.610  13.685 -0.4368 -0.3711 -0.5680
18484TIP3    H176943   6.251   5.532  13.646 -0.4921 -0.4159 -0.4260
18484TIP3    H276944   6.223   5.677  13.682 -0.2745 -0.2245 -1.0053
18485TIP3   OH276945   6.559   0.217  10.991 -0.0059 -0.0875 -0.0112
18485TIP3    H176946   6.614   0.290  10.964  0.7754 -0.4597  0.5026
18485TIP3    H276947   6.510   0.250  11.067 -2.3163  1.0044 -1.8600
18486TIP3   OH276948   6.210   6.417  16.858 -0.1882 -0.2365  0.4345
18486TIP3    H176949   6.291   6.467  16.847 -1.1719  1.1086 -1.2414
18486TIP3    H276950   6.213   6.352  16.788 -1.8770  1.8137 -1.6986
18487TIP3   OH276951   0.155   0.963  16.097 -0.5970  0.2256 -0.1679
18487TIP3    H176952   0.081   1.017  16.066 -0.1252  0.4390 -0.9511
18487TIP3    H276953   0.136   0.876  16.063  0.3270  0.6232 -1.8464
18488TIP3   OH276954   6.737   0.849   0.337 -0.3215  0.3340 -0.3506
18488TIP3    H176955   6.727   0.939   0.307  2.2858  0.6069 -0.5483
18488TIP3    H276956   6.792   0.807   0.271  1.4712 -0.3791  1.4951
18489TIP3   OH276957   0.710   4.219   4.994  0.0303 -0.4877  0.6176
18489TIP3    H176958   0.630   4.247   5.039  0.1910  0.5185  0.3008
18489TIP3    H276959   0.681   4.150   4.934 -0.4527 -0.7190  1.1116
18490TIP3   OH276960   6.378   0.742  12.770 -0.3750  0.3771 -0.0843
18490TIP3    H176961   6.375   0.815  12.831 -1.0897  0.2958 -0.0131
18490TIP3    H276962   6.404   0.781  12.687 -1.1401  0.7957 -0.1427
18491TIP3   OH276963   4.133   4.918  11.961 -0.1593  0.2519 -0.2032
18491TIP3    H176964   4.130   4.996  11.906  1.6104  2.2479  2.2701
18491TIP3    H276965   4.183   4.855  11.909 -0.2461  1.3104 -1.6580
18492TIP3   OH276966   0.008   1.298  16.242 -0.4498  0.3634  0.1535
18492TIP3    H176967   0.036   1.390  16.235  0.4256  0.4379  3.1472
18492TIP3    H276968  -0.052   1.297  16.317 -2.9309 -1.0579 -1.7259
18493TIP3   OH276969   0.019   0.507  14.742  0.8006 -0.1943 -0.2890
18493TIP3    H176970  -0.023   0.503  14.656 -1.7245  0.5487  0.8110
18493TIP3    H276971   0.108   0.539  14.724  1.0851 -2.1244 -2.7732
18494TIP3   OH276972   0.128   0.353  13.055  0.0945 -0.3391 -0.6544
18494TIP3    H176973   0.101   0.290  12.989 -0.0663  0.0058 -0.9191
18494TIP3    H276974   0.203   0.312  13.098 -0.8173 -1.2931  0.0680
18495TIP3   OH276975   0.478   1.518   1.338  0.3810 -0.4895 -0.3513
18495TIP3    H176976   0.502   1.602   1.300  0.0167 -0.2594 -0.0754
18495TIP3    H276977   0.384   1.524   1.353  0.4375 -0.7503  0.1508
18496TIP3   OH276978   6.565   1.355   1.255 -0.4370 -0.2608 -0.1638
18496TIP3    H176979   6.554   1.269   1.214 -1.6191 -1.3721  2.2437
18496TIP3    H276980   6.476   1.382   1.279  0.0991  0.7046  0.8554
18497TIP3   OH276981   5.439   0.748   0.967  0.0518  0.0336 -0.1215
18497TIP3    H176982   5.350   0.716   0.975  0.5500 -0.9621  2.3420
18497TIP3    H276983   5.494   0.672   0.986  1.3867  0.9690 -0.0847
18498TIP3   OH276984   1.643   5.075  17.112 -0.1682 -0.3891 -1.0291
18498TIP3    H176985   1.584   5.049  17.183  0.0798  0.0100 -0.6784
18498TIP3    H276986   1.700   4.999  17.100  0.6311  0.0177  0.0758
18499TIP3   OH276987   1.510   0.944  16.685 -0.0224  0.0712  0.1113
18499TIP3    H176988   1.438   0.885  16.664  1.4780 -1.0736 -2.2516
18499TIP3    H276989   1.574   0.888  16.731  0.4356  0.4275 -0.0838
18500TIP3   OH276990   1.662   5.913  14.196  0.0990  0.3005  0.5772
18500TIP3    H176991   1.578   5.918  14.148  0.9619  1.1807 -0.9279
18500TIP3    H276992   1.715   5.852  14.144  0.1757 -0.8225  1.9264
18501TIP3   OH276993   4.120   1.730   6.244 -0.3879 -0.6331 -0.1860
18501TIP3    H176994   4.032   1.757   6.271  0.2577 -0.5368  1.9879
18501TIP3    H276995   4.179   1.779   6.300  1.0324 -1.7504 -0.6333
18502TIP3   OH276996   4.719   6.145   5.681  0.2960 -0.4569 -0.0134
18502TIP3    H176997   4.680   6.124   5.596 -0.7012 -0.4486  0.4288
18502TIP3    H276998   4.803   6.185   5.659  0.2526 -0.8614 -0.9810
18503TIP3   OH276999   0.058   5.910   0.303  0.4303 -0.2459 -0.2104
18503TIP3    H177000   0.042   5.817   0.319  1.9597 -0.6159 -0.6716
18503TIP3    H277001   0.045   5.952   0.388  1.4692 -1.1554  0.4287
18504TIP3   OH277002   6.271   0.360   5.125  0.3356 -0.3845 -0.6727
18504TIP3    H177003   6.321   0.363   5.044  0.1295 -1.1173 -0.8321
18504TIP3    H277004   6.189   0.317   5.102  0.5872 -1.3041  0.0803
18505TIP3   OH277005   4.086   5.020   0.452 -0.2546  0.0428  0.1753
18505TIP3    H177006   4.170   5.016   0.405  1.0645  1.4892  2.2243
18505TIP3    H277007   4.096   4.958   0.524 -1.0558 -0.0009  0.2540
18506TIP3   OH277008   6.579   5.169   5.421 -0.3686 -0.1106 -0.1438
18506TIP3    H177009   6.654   5.195   5.366 -0.4448  0.6426  0.0859
18506TIP3    H277010   6.506   5.219   5.386 -0.9643 -1.4768 -0.8967
18507TIP3   OH277011   5.163   1.248   3.892  0.4320 -0.4432 -0.0496
18507TIP3    H177012   5.107   1.323   3.869 -0.1983 -1.2170 -1.1417
18507TIP3    H277013   5.167   1.196   3.812  0.2158 -1.9798  0.9060
18508TIP3   OH277014   4.695   2.437   1.884 -0.3255 -0.1423  0.0699
18508TIP3    H177015   4.626   2.372   1.869 -0.3480 -0.1260  0.1005
18508TIP3    H277016   4.650   2.521   1.883 -0.0870 -0.0051 -1.4177
18509TIP3   OH277017   3.154   0.472   3.980  0.1931  0.0629 -0.4341
18509TIP3    H177018   3.224   0.535   3.969 -0.0264  0.1949 -1.1512
18509TIP3    H277019   3.151   0.424   3.897 -0.9473  0.4614 -0.6429
18510TIP3   OH277020   5.529   3.105   5.038  0.0091 -0.6505  0.3525
18510TIP3    H177021   5.527   3.012   5.061  0.4121 -0.4171  1.3685
18510TIP3    H277022   5.571   3.108   4.952 -0.2855 -1.4328  0.1760
18511TIP3   OH277023   6.183   4.050  16.813  0.0955 -0.5468 -0.1368
18511TIP3    H177024   6.236   4.128  16.796  2.1586 -1.6635  0.8225
18511TIP3    H277025   6.146   4.028  16.727  0.6838  0.6227 -0.7204
18512TIP3   OH277026   2.114   6.767  16.704 -0.4923  0.2069  0.4140
18512TIP3    H177027   2.166   6.834  16.748 -0.1578  1.6669 -2.0338
18512TIP3    H277028   2.030   6.810  16.686 -1.2762 -0.9507  1.1765
18513TIP3   OH277029   5.305   2.456  14.921 -0.0505 -0.5682 -0.1263
18513TIP3    H177030   5.335   2.512  14.850 -2.2757  0.2590 -0.4928
18513TIP3    H277031   5.382   2.445  14.977  1.3231  0.0903 -1.7923
18514TIP3   OH277032   6.253   2.835  14.074  0.2044  0.3309 -0.2699
18514TIP3    H177033   6.226   2.777  14.003 -0.1401  1.6253 -1.2545
18514TIP3    H277034   6.266   2.920  14.031  0.2054  1.0981  1.1854
18515TIP3   OH277035   2.648   0.520  15.906  0.6986  0.3141 -0.4010
18515TIP3    H177036   2.597   0.601  15.915 -0.3483 -0.5308  1.9143
18515TIP3    H277037   2.612   0.478  15.828 -0.8014  0.6935  0.0576
18516TIP3   OH277038   2.215   5.288   1.587  0.1281  0.0023 -0.7888
18516TIP3    H177039   2.249   5.299   1.676  0.5825 -2.1494 -0.6342
18516TIP3    H277040   2.156   5.213   1.593 -0.2328  0.1476 -2.2033
18517TIP3   OH277041   6.031   1.012   0.813 -0.2403  0.3026  0.4028
18517TIP3    H177042   6.028   1.045   0.724 -2.1749 -1.7044 -0.3891
18517TIP3    H277043   5.959   1.057   0.857 -0.4765 -0.0767  0.4056
18518TIP3   OH277044   1.587   3.772  15.825  0.1794 -0.7377  0.3405
18518TIP3    H177045   1.566   3.708  15.757 -2.1808 -1.7792  1.9100
18518TIP3    H277046   1.597   3.720  15.905  1.0993  0.6128  1.1475
18519TIP3   OH277047   4.626   5.478  12.763  0.1197  0.1040 -0.0092
18519TIP3    H177048   4.670   5.519  12.688  1.4167  0.3082  0.8333
18519TIP3    H277049   4.540   5.454  12.729 -0.8066  3.6007 -0.5736
18520TIP3   OH277050   2.558   3.644  11.288  0.5363  0.5489  0.1627
18520TIP3    H177051   2.464   3.650  11.305  0.8911  0.0710  2.7398
18520TIP3    H277052   2.570   3.560  11.244  0.0118 -0.9907  2.7347
18521TIP3   OH277053   4.567   3.320  14.827 -0.4984 -0.1973  0.1068
18521TIP3    H177054   4.576   3.384  14.757 -1.6203  0.6141  0.6718
18521TIP3    H277055   4.474   3.298  14.827 -0.3546 -0.8398  0.7925
18522TIP3   OH277056   0.763   4.580  16.798  0.4320  0.1184  0.5434
18522TIP3    H177057   0.679   4.541  16.773  1.1725 -1.2531  0.1124
18522TIP3    H277058   0.787   4.636  16.724 -1.2055  2.4859  1.6515
18523TIP3   OH277059   5.489   6.327   0.719 -0.7886  0.3448  0.4115
18523TIP3    H177060   5.476   6.418   0.748 -1.0236  0.6162 -0.4958
18523TIP3    H277061   5.427   6.316   0.647 -2.2701 -1.2170  1.8576
18524TIP3   OH277062   5.327   2.206  16.117 -0.0415  0.0801  0.3709
18524TIP3    H177063   5.420   2.224  16.100 -0.0293 -0.1746  0.1503
18524TIP3    H277064   5.312   2.240  16.205 -0.4677  2.7526 -0.6599
18525TIP3   OH277065   5.866   6.703  14.300 -0.2061  0.0053 -0.8430
18525TIP3    H177066   5.783   6.743  14.275  0.2719  0.4671 -1.7577
18525TIP3    H277067   5.931   6.772  14.286  0.4456 -0.6244 -0.9876
18526TIP3   OH277068   6.090   2.238  11.381 -0.2247 -0.8829 -0.0199
18526TIP3    H177069   6.160   2.181  11.350 -0.0583 -1.4237  1.2822
18526TIP3    H277070   6.134   2.298  11.442 -0.4812  0.3504 -1.0180
18527TIP3   OH277071   1.275   0.811  10.315 -0.5871  0.3026 -0.2955
18527TIP3    H177072   1.365   0.833  10.292 -0.6976 -0.5964 -1.7077
18527TIP3    H277073   1.223   0.882  10.277 -0.4774  1.0090  0.8226
18528TIP3   OH277074   5.476   0.190   1.285 -0.4194 -0.0816 -0.0005
18528TIP3    H177075   5.506   0.101   1.301  0.6932  0.1388 -0.7593
18528TIP3    H277076   5.486   0.202   1.190 -2.6165  0.1235 -0.2676
18529TIP3   OH277077   4.906   1.922   2.255  0.0696  0.1593  0.3227
18529TIP3    H177078   4.831   1.974   2.284  0.6597  0.4649  1.3306
18529TIP3    H277079   4.934   1.965   2.174 -0.6199  0.2456  0.1159
18530TIP3   OH277080   3.772   2.458  12.287 -0.1842 -0.5959 -0.0744
18530TIP3    H177081   3.818   2.393  12.340  1.9260  0.8288 -0.0162
18530TIP3    H277082   3.756   2.414  12.203  0.6130 -1.4169  0.1859
18531TIP3   OH277083   3.433   2.050   5.100 -0.2689  0.1720 -0.1045
18531TIP3    H177084   3.400   2.070   5.187 -1.7887  0.1577 -0.6583
18531TIP3    H277085   3.358   2.062   5.042  0.2449 -1.5065 -1.1877
18532TIP3   OH277086   6.169   0.437   6.452  0.0336  0.0577 -0.2957
18532TIP3    H177087   6.219   0.383   6.513 -0.8536  1.4489  1.7969
18532TIP3    H277088   6.077   0.414   6.469 -0.2347  0.5095 -1.0617
18533TIP3   OH277089   0.210   0.678  11.533 -0.2055 -0.0176  0.2078
18533TIP3    H177090   0.164   0.628  11.466 -0.2163  0.7666 -0.3714
18533TIP3    H277091   0.302   0.653  11.523 -0.4833 -1.7610  1.5167
18534TIP3   OH277092   0.042   1.688  13.468  0.3755  0.1439 -0.2212
18534TIP3    H177093   0.078   1.600  13.478  0.9988  0.4251  0.0785
18534TIP3    H277094   0.074   1.717  13.382  1.7033  0.7662  0.4640
18535TIP3   OH277095   1.305   4.407   4.254  0.1665  0.3387 -0.6981
18535TIP3    H177096   1.322   4.396   4.348 -0.4010 -1.7528 -0.7884
18535TIP3    H277097   1.379   4.459   4.222  0.6639  0.6039  0.7963
18536TIP3   OH277098   2.820   5.380  14.909 -0.1399 -0.3767 -0.7149
18536TIP3    H177099   2.893   5.417  14.958 -0.0787 -0.3486 -0.8267
18536TIP3    H277100   2.777   5.456  14.870 -0.2793 -0.3865 -0.5808
18537TIP3   OH277101   1.765   2.292  14.111  0.2484 -0.6679 -0.1437
18537TIP3    H177102   1.831   2.224  14.098  0.4780 -0.4450 -0.1437
18537TIP3    H277103   1.812   2.375  14.099  0.1453 -0.4884  0.6303
18538TIP3   OH277104   2.879   1.317  12.753  0.4776 -0.3881  0.3689
18538TIP3    H177105   2.925   1.397  12.728 -0.4540 -0.3367 -1.3498
18538TIP3    H277106   2.948   1.252  12.767  1.2190  0.5968  1.4257
18539TIP3   OH277107   2.214   0.609   3.750  0.0388  0.0937  0.0597
18539TIP3    H177108   2.281   0.590   3.684 -0.2245 -2.0884  0.3431
18539TIP3    H277109   2.160   0.530   3.753 -1.5289  1.1292  1.0722
18540TIP3   OH277110   3.154   5.842   5.079  0.4021 -0.1205  0.3438
18540TIP3    H177111   3.080   5.853   5.019  0.2664 -1.0407  0.3358
18540TIP3    H277112   3.231   5.846   5.023  0.3474  0.5326  0.3104
18541TIP3   OH277113   2.932   6.545  15.429 -0.5133 -0.5621 -0.2902
18541TIP3    H177114   2.958   6.531  15.338  0.2936 -0.2058 -0.1273
18541TIP3    H277115   2.948   6.461  15.472 -3.7107 -1.7132 -1.0542
18542TIP3   OH277116   0.456   4.776  10.900 -0.0837 -0.3284 -0.0743
18542TIP3    H177117   0.429   4.866  10.917 -0.7908 -0.3774 -0.9011
18542TIP3    H277118   0.483   4.776  10.809 -1.5225 -1.2810 -0.5273
18543TIP3   OH277119   0.831   6.692  16.855 -0.0378  0.2083  0.0520
18543TIP3    H177120   0.760   6.686  16.792  0.3604  0.1711 -0.4024
18543TIP3    H277121   0.911   6.691  16.802  0.3131 -0.0097  0.5668
18544TIP3   OH277122   2.179   2.252  16.578  0.2084  0.1813  0.0999
18544TIP3    H177123   2.121   2.238  16.503 -1.9851 -3.0151  2.1492
18544TIP3    H277124   2.268   2.248  16.541 -0.7431  1.5834 -2.6243
18545TIP3   OH277125   3.007   1.506  13.492  0.3612  0.3240  0.2002
18545TIP3    H177126   3.002   1.493  13.397 -0.0345  2.4445 -0.1246
18545TIP3    H277127   3.086   1.559  13.504 -0.2258  1.0466  0.9195
18546TIP3   OH277128   5.936   0.541  14.318 -0.2875  0.4225 -0.9001
18546TIP3    H177129   6.002   0.588  14.267 -0.3041  0.9108 -0.4790
18546TIP3    H277130   5.952   0.448  14.299  1.1790  0.4660 -0.0244
18547TIP3   OH277131   3.826   5.985   0.869  0.6260  0.2593 -0.0695
18547TIP3    H177132   3.870   6.064   0.900  0.4859  0.7623 -1.1269
18547TIP3    H277133   3.881   5.953   0.797  0.4070 -0.3196  0.0146
18548TIP3   OH277134   1.242   1.353  14.873  0.2578  0.7315  0.8894
18548TIP3    H177135   1.280   1.266  14.864 -1.0006  0.3574 -1.8708
18548TIP3    H277136   1.157   1.346  14.829  0.5640  3.5776 -0.3690
18549TIP3   OH277137   4.266   0.083  13.742  0.4906 -0.2454 -0.5423
18549TIP3    H177138   4.229  -0.004  13.757  1.2345 -0.1894  2.1522
18549TIP3    H277139   4.351   0.067  13.701 -0.3283 -0.6043 -2.2032
18550TIP3   OH277140   4.758   1.151  13.165 -0.9386 -0.0935  0.0344
18550TIP3    H177141   4.722   1.187  13.246  1.3141 -0.0496  1.0920
18550TIP3    H277142   4.819   1.218  13.134  1.2732 -1.7772  0.5522
18551TIP3   OH277143   4.843   0.098   4.390  0.2256  0.4006 -0.0611
18551TIP3    H177144   4.849   0.177   4.444 -0.4960  1.1031 -0.9568
18551TIP3    H277145   4.881   0.029   4.443  0.8904  1.3608  0.7458
18552TIP3   OH277146   5.259   6.041   3.199  0.3737 -0.1022  0.2956
18552TIP3    H177147   5.331   5.988   3.164  1.1364  2.3158 -2.1829
18552TIP3    H277148   5.187   6.027   3.138 -0.4330 -0.5850  1.3432
18553TIP3   OH277149   3.018   5.190   2.019  0.6901  0.2172 -0.5873
18553TIP3    H177150   3.006   5.186   2.113 -0.4652  0.7873 -0.7041
18553TIP3    H277151   3.088   5.127   2.002  0.5181 -0.3169  0.5778
18554TIP3   OH277152   2.274   0.100  12.933  0.3204  0.1459 -0.1741
18554TIP3    H177153   2.188   0.133  12.958  0.0584 -0.3388 -0.4226
18554TIP3    H277154   2.284   0.127  12.842 -0.6768 -1.9844 -0.9701
18555TIP3   OH277155   5.178   0.601   5.223  0.2666 -0.6235  0.4146
18555TIP3    H177156   5.201   0.537   5.156  0.7098 -0.6341  0.5741
18555TIP3    H277157   5.191   0.686   5.180 -0.7237 -0.6328  0.0689
18556TIP3   OH277158   5.349   3.637  13.553 -0.5478  0.4764 -0.2050
18556TIP3    H177159   5.284   3.583  13.509 -1.4429  1.5652 -0.2799
18556TIP3    H277160   5.301   3.716  13.578  0.9747  1.7750 -1.1767
18557TIP3   OH277161   3.095   3.147   0.527  0.2140  0.1752 -0.0996
18557TIP3    H177162   3.139   3.226   0.558 -1.6683  0.4152  2.3155
18557TIP3    H277163   3.087   3.092   0.606 -2.6315 -0.3407 -0.6543
18558TIP3   OH277164   4.628   0.021   0.682 -0.0501 -0.2636 -0.4915
18558TIP3    H177165   4.550   0.068   0.652 -0.7467 -1.9077 -1.3633
18558TIP3    H277166   4.600  -0.070   0.692  0.8779 -0.3269  2.5837
18559TIP3   OH277167   4.276   2.849  12.703 -0.4975 -0.2175 -0.0062
18559TIP3    H177168   4.186   2.880  12.712 -0.0233  0.9074  1.2142
18559TIP3    H277169   4.316   2.865  12.788  0.8897 -0.6019 -0.5461
18560TIP3   OH277170   0.091   1.447   3.825 -0.1732  0.2313  0.3635
18560TIP3    H177171   0.161   1.478   3.883 -0.3345 -0.0578  0.7108
18560TIP3    H277172   0.070   1.523   3.771 -2.4090  1.6398  2.9681
18561TIP3   OH277173   3.400   4.922  16.647 -0.2090 -0.2195 -0.2195
18561TIP3    H177174   3.424   5.003  16.602 -0.1530 -0.2945 -0.3256
18561TIP3    H277175   3.417   4.940  16.739 -2.5905  0.7557  0.0899
18562TIP3   OH277176   0.428   2.208  13.743 -0.2012  0.4415 -0.3391
18562TIP3    H177177   0.422   2.165  13.828 -0.5805 -1.3156 -1.2149
18562TIP3    H277178   0.520   2.231  13.735 -0.0981  0.3272  0.4045
18563TIP3   OH277179   5.572   4.133  14.802 -0.5641  0.0169  0.2392
18563TIP3    H177180   5.525   4.094  14.875  0.1973  0.3991  0.9468
18563TIP3    H277181   5.603   4.058  14.751 -2.1466 -0.2448 -0.4101
18564TIP3   OH277182   5.997   6.019   4.264  0.1139 -0.4068  0.6340
18564TIP3    H177183   6.044   6.098   4.293 -0.2409 -0.3811  1.1515
18564TIP3    H277184   5.907   6.048   4.253  0.3850 -0.2078 -1.3631
18565TIP3   OH277185   0.629   1.536  10.335  0.3157  0.5589  0.1190
18565TIP3    H177186   0.666   1.588  10.406  0.4340  0.8685 -0.1642
18565TIP3    H277187   0.542   1.575  10.319  0.1232  0.2307  0.3659
18566TIP3   OH277188   3.830   4.005   0.937 -0.1323  0.3392 -0.4712
18566TIP3    H177189   3.826   4.076   0.872  0.6969  0.1015 -0.7969
18566TIP3    H277190   3.852   3.928   0.886  0.3692  0.1155  0.0777
18567TIP3   OH277191   0.315   6.143   2.200  0.4151 -0.0904 -0.6195
18567TIP3    H177192   0.347   6.231   2.220  0.8150 -0.5910  1.1227
18567TIP3    H277193   0.305   6.101   2.285 -0.6200 -1.4583 -1.3666
18568TIP3   OH277194   0.453   5.343   1.725  0.4678  0.8102 -0.4043
18568TIP3    H177195   0.365   5.322   1.756  0.8140  1.3137  0.9996
18568TIP3    H277196   0.506   5.268   1.750  0.4803  0.5853 -1.0902
18569TIP3   OH277197   0.550   5.277   0.661 -0.0198  0.5122 -0.1691
18569TIP3    H177198   0.567   5.184   0.670  3.2239  0.8562 -1.3210
18569TIP3    H277199   0.460   5.282   0.628 -0.5881 -2.1035  0.7633
18570TIP3   OH277200   0.092   0.207  10.138 -0.0772  0.3355  0.4296
18570TIP3    H177201   0.036   0.144  10.093 -0.1611  1.1627 -0.6414
18570TIP3    H277202   0.144   0.153  10.198  1.1492 -1.0653 -1.7229
18571TIP3   OH277203   3.962   4.090  14.140  0.0923 -1.1109 -0.2978
18571TIP3    H177204   3.902   4.020  14.166 -0.3999 -0.4782  0.2879
18571TIP3    H277205   3.972   4.078  14.045  0.1515 -2.0697 -0.1810
18572TIP3   OH277206   2.324   4.320   1.201  0.4630  0.4604  0.5993
18572TIP3    H177207   2.317   4.278   1.115 -0.6287 -1.2386  1.4482
18572TIP3    H277208   2.413   4.300   1.230  0.5075  0.1527  0.2598
18573TIP3   OH277209   2.444   0.277  15.734  0.0896 -0.1960  0.0482
18573TIP3    H177210   2.430   0.219  15.808 -1.1791  0.6476  0.4969
18573TIP3    H277211   2.431   0.223  15.656 -1.2408 -0.4741  0.4580
18574TIP3   OH277212   1.750   0.677  14.133 -1.0563  0.6389 -0.0409
18574TIP3    H177213   1.735   0.715  14.046 -0.2777 -0.9727 -0.9240
18574TIP3    H277214   1.771   0.585  14.116 -0.8198  0.2984  1.8600
18575TIP3   OH277215   6.249   5.989   5.521  0.1077  0.3439 -0.2001
18575TIP3    H177216   6.262   6.065   5.578  0.6011  0.7224 -0.7983
18575TIP3    H277217   6.226   5.918   5.581  0.2253  0.8236  0.4299
18576TIP3   OH277218   2.589   2.251  12.383 -0.0316  0.0784 -0.3767
18576TIP3    H177219   2.565   2.290  12.299 -0.7847  0.2343 -0.0895
18576TIP3    H277220   2.608   2.326  12.440  0.8895 -0.0314 -0.5112
18577TIP3   OH277221   3.791   6.690   0.284  0.1581 -0.8467  0.0253
18577TIP3    H177222   3.808   6.731   0.368  1.1687 -0.4523 -0.3595
18577TIP3    H277223   3.852   6.616   0.280  2.1639  0.7898 -1.5187
18578TIP3   OH277224   6.232   5.871   2.066 -0.2686  0.6175 -0.3089
18578TIP3    H177225   6.168   5.801   2.067 -1.2493  1.4914 -0.1676
18578TIP3    H277226   6.288   5.853   1.990 -0.3538 -0.4332 -0.1259
18579TIP3   OH277227   6.591   3.556   1.326 -0.3126 -0.5381 -0.5690
18579TIP3    H177228   6.684   3.537   1.337 -0.3451 -0.8193 -0.7610
18579TIP3    H277229   6.555   3.475   1.289 -0.7788 -0.7273  0.2749
18580TIP3   OH277230   5.040   4.851   5.563 -0.1367  0.2692 -0.5360
18580TIP3    H177231   5.055   4.831   5.471  0.0769  1.2337 -0.7180
18580TIP3    H277232   4.963   4.798   5.587 -0.0076 -0.2155 -1.1770
18581TIP3   OH277233   0.039   6.693  12.700 -0.2423 -0.7436  0.1663
18581TIP3    H177234  -0.019   6.715  12.773 -1.2968  0.0636 -0.8682
18581TIP3    H277235   0.123   6.730  12.724 -1.3305  2.3691 -0.3799
18582TIP3   OH277236   1.335   6.821  15.892  0.6955  0.0423 -0.0475
18582TIP3    H177237   1.352   6.754  15.826  1.0994 -0.1989  0.2983
18582TIP3    H277238   1.401   6.888  15.875  2.1963 -0.9863  1.4210
18583TIP3   OH277239   5.841   2.434   3.083 -0.0911  0.3299 -0.3060
18583TIP3    H177240   5.747   2.443   3.070  0.2502  0.9892 -2.9213
18583TIP3    H277241   5.863   2.349   3.046  0.6667  1.3638 -2.3888
18584TIP3   OH277242   1.881   6.266  16.866  0.6113 -0.9207 -0.0324
18584TIP3    H177243   1.811   6.289  16.805 -0.6209  2.6118  2.4490
18584TIP3    H277244   1.845   6.193  16.917 -0.5803 -0.2581  0.1034
18585TIP3   OH277245   5.072   4.559  10.640 -0.2354 -0.0485 -0.1978
18585TIP3    H177246   5.055   4.483  10.584 -2.3260 -0.3256  0.7310
18585TIP3    H277247   5.021   4.630  10.600  0.5811  0.5179 -0.2586
18586TIP3   OH277248   0.441   1.666  13.800  0.2353 -0.3248 -0.5304
18586TIP3    H177249   0.527   1.625  13.795  0.1831 -0.8639  1.8814
18586TIP3    H277250   0.398   1.623  13.874 -0.7965  2.2583  0.4846
18587TIP3   OH277251   2.729   1.834   1.259  0.4321  0.6476  0.3569
18587TIP3    H177252   2.715   1.831   1.164  0.2141 -0.0050  0.4058
18587TIP3    H277253   2.666   1.771   1.294  0.6976  0.6929  0.9170
18588TIP3   OH277254   0.535   0.295   0.390 -0.2842  0.3048  0.1577
18588TIP3    H177255   0.500   0.291   0.301 -0.2879 -0.2854  0.1836
18588TIP3    H277256   0.621   0.253   0.384  0.2013  1.2470  0.2096
18589TIP3   OH277257   6.583   1.024   4.800  0.0991 -0.0464  0.3078
18589TIP3    H177258   6.510   0.975   4.762  1.2806 -0.5863 -1.3953
18589TIP3    H277259   6.626   0.961   4.858 -0.2383 -0.0012  0.6155
18590TIP3   OH277260   5.357   3.097  11.828  0.0518 -0.5223  0.3094
18590TIP3    H177261   5.361   3.190  11.850 -0.1696 -0.6454  0.8966
18590TIP3    H277262   5.448   3.068  11.829  0.3122  0.0931 -1.7525
18591TIP3   OH277263   5.637   4.958  16.657 -0.1360 -0.1771  0.7633
18591TIP3    H177264   5.688   5.009  16.720 -0.0665  2.3125 -1.1677
18591TIP3    H277265   5.557   5.009  16.644 -1.0749 -1.6974  0.3428
18592TIP3   OH277266   2.212   5.472  12.944  0.2127  0.0340  0.6990
18592TIP3    H177267   2.198   5.463  13.038  2.2149  0.4329  1.0823
18592TIP3    H277268   2.303   5.500  12.936 -0.3076  1.3831 -1.2938
18593TIP3   OH277269   1.932   3.589  11.432 -0.4632 -0.2762  0.1586
18593TIP3    H177270   1.894   3.502  11.444  1.3414 -1.0291  0.7094
18593TIP3    H277271   1.942   3.598  11.338 -4.1215  0.9503 -0.2540
18594TIP3   OH277272   2.412   6.799  11.682 -0.0085 -0.2010 -0.5613
18594TIP3    H177273   2.335   6.855  11.695  1.5663  1.8911  0.2695
18594TIP3    H277274   2.395   6.755  11.598 -2.1764  0.0312 -0.3115
18595TIP3   OH277275   4.228   6.230  15.531  0.5729  0.7046  0.2634
18595TIP3    H177276   4.167   6.156  15.532  1.8221 -0.3643 -0.1040
18595TIP3    H277277   4.232   6.259  15.622  2.4227 -1.7426  1.0967
18596TIP3   OH277278   5.534   3.478   4.602 -0.0857  0.4979 -0.2837
18596TIP3    H177279   5.528   3.573   4.615  1.1264  0.4746  0.5802
18596TIP3    H277280   5.583   3.469   4.520  0.3375  0.6255 -0.0486
18597TIP3   OH277281   0.577   2.796   0.695  0.5013 -0.4024 -0.4398
18597TIP3    H177282   0.579   2.881   0.652  2.2677 -0.7857 -1.2056
18597TIP3    H277283   0.580   2.732   0.623  0.0621 -1.1064  0.1451
18598TIP3   OH277284   2.335   1.744  16.903  0.1094  0.0898  0.0091
18598TIP3    H177285   2.404   1.699  16.953  0.5849 -0.4887 -1.1368
18598TIP3    H277286   2.332   1.832  16.941 -0.6847 -0.7758  2.1570
18599TIP3   OH277287   2.155   4.567   5.584 -0.5649 -0.2035  0.5061
18599TIP3    H177288   2.154   4.515   5.664 -0.4135 -0.1466  0.5449
18599TIP3    H277289   2.190   4.652   5.611  1.6138 -0.8571 -0.0258
18600TIP3   OH277290   4.220   5.230   2.446 -0.2910  0.3891 -0.4975
18600TIP3    H177291   4.183   5.168   2.383 -0.5938 -0.6477  0.6564
18600TIP3    H277292   4.269   5.292   2.393  1.7019 -1.9611 -1.6048
18601TIP3   OH277293   0.062   5.748  14.840 -0.2454  0.5878 -0.5695
18601TIP3    H177294  -0.016   5.768  14.892  0.5297 -0.0430  0.8935
18601TIP3    H277295   0.099   5.833  14.817 -1.0649  0.8838 -0.8317
18602TIP3   OH277296   6.132   5.497   1.709 -0.3055 -0.3471  0.0551
18602TIP3    H177297   6.054   5.508   1.763 -0.8960 -1.1634 -0.6072
18602TIP3    H277298   6.099   5.482   1.621  0.6418  0.6255 -0.4941
18603TIP3   OH277299   0.875   6.193   0.845 -0.1478 -0.9162 -0.6188
18603TIP3    H177300   0.925   6.159   0.920 -0.7456  0.3284  0.3875
18603TIP3    H277301   0.858   6.117   0.790  0.4197 -1.8407  0.4556
18604TIP3   OH277302   3.526   3.762   4.261 -0.4411  0.2815 -0.5643
18604TIP3    H177303   3.491   3.673   4.261 -0.1631  0.1741 -0.3033
18604TIP3    H277304   3.575   3.769   4.343 -1.4870  1.0682  0.0231
18605TIP3   OH277305   3.709   6.023   0.098  0.0720 -0.0718 -0.1903
18605TIP3    H177306   3.670   6.047   0.182  1.1277 -0.2074  0.3552
18605TIP3    H277307   3.677   5.934   0.081 -0.0295 -0.0984  0.1375
18606TIP3   OH277308   5.064   2.910   0.326 -0.2702  0.0324  0.1289
18606TIP3    H177309   5.117   2.954   0.393  2.1685 -0.0328 -1.6124
18606TIP3    H277310   4.981   2.958   0.325  1.3313  3.0062  0.0514
18607TIP3   OH277311   5.125   3.038  15.155 -0.0140  0.4610  0.5625
18607TIP3    H177312   5.159   3.010  15.240  1.7397 -2.9871 -1.0562
18607TIP3    H277313   5.054   2.977  15.135  0.1488  0.6684 -0.7834
18608TIP3   OH277314   4.041   1.021  15.283  0.1017  0.0856  0.4220
18608TIP3    H177315   3.975   1.030  15.351  2.1470  1.9109  2.3417
18608TIP3    H277316   4.109   1.084  15.307  0.9342  0.9065 -3.3747
18609TIP3   OH277317   1.673   3.655  12.310 -0.0764  0.1681  0.1662
18609TIP3    H177318   1.721   3.701  12.242  2.1265 -0.9028  0.8969
18609TIP3    H277319   1.736   3.647  12.382 -1.5858 -0.7420  1.4494
18610TIP3   OH277320   4.662   4.692  13.579  0.3424  0.1886  0.5258
18610TIP3    H177321   4.666   4.641  13.660  0.1640  0.9241  1.0042
18610TIP3    H277322   4.735   4.754  13.585  1.3207 -0.7906 -0.6105
18611TIP3   OH277323   4.897   5.934   0.514  0.4487 -0.4567 -0.6595
18611TIP3    H177324   4.835   5.900   0.450 -0.8768 -0.9327  0.8009
18611TIP3    H277325   4.845   5.945   0.594  1.7136  1.4233 -0.0229
18612TIP3   OH277326   0.082   4.587  11.845  0.3720  0.0131 -0.1811
18612TIP3    H177327   0.046   4.511  11.800  2.0487 -0.2205 -1.2242
18612TIP3    H277328   0.166   4.604  11.801  1.2949  0.8316  1.7547
18613TIP3   OH277329   0.342   5.169   4.863  0.1345 -0.1422  0.0912
18613TIP3    H177330   0.379   5.256   4.849  1.0431 -0.6928 -1.2402
18613TIP3    H277331   0.327   5.135   4.774 -2.9616 -0.2474  0.5635
18614TIP3   OH277332   6.793   3.918  15.264  0.0361 -0.4160 -0.5626
18614TIP3    H177333   6.835   3.852  15.319 -0.4263 -1.0361 -0.9409
18614TIP3    H277334   6.719   3.873  15.225  1.2108 -0.4582 -2.9039
18615TIP3   OH277335   5.612   3.501   1.859 -0.0895  0.7797 -0.1578
18615TIP3    H177336   5.586   3.414   1.889  2.4960 -0.5775 -1.4600
18615TIP3    H277337   5.644   3.545   1.937  1.8269 -0.8130  0.0366
18616TIP3   OH277338   4.276   2.713  11.071  0.0169 -0.1192 -0.2461
18616TIP3    H177339   4.290   2.808  11.065 -0.4406 -0.0693 -0.5438
18616TIP3    H277340   4.215   2.693  11.001  0.0104 -0.6192 -0.1015
18617TIP3   OH277341   5.767   5.985   0.942  0.4507 -0.0112  0.4875
18617TIP3    H177342   5.762   6.050   1.012  1.9933  1.0657 -0.3559
18617TIP3    H277343   5.819   5.914   0.978  1.7616  0.8120  0.2665
18618TIP3   OH277344   5.434   3.465  17.093 -0.4745 -0.4819 -0.1537
18618TIP3    H177345   5.432   3.561  17.097 -2.0274 -0.5402  1.5002
18618TIP3    H277346   5.449   3.446  17.001  1.1461  1.3408 -0.3362
18619TIP3   OH277347   1.898   6.105  12.743  0.2369 -0.4281  0.5341
18619TIP3    H177348   1.942   6.158  12.677 -0.0036 -0.9858 -0.0884
18619TIP3    H277349   1.834   6.164  12.782 -2.2443 -0.9768 -2.2955
18620TIP3   OH277350   1.497   6.835  14.045  0.0880  0.0799  0.0410
18620TIP3    H177351   1.586   6.816  14.075 -0.1390  0.5753  1.0757
18620TIP3    H277352   1.508   6.876  13.960  0.7868 -0.9165 -0.3573
18621TIP3   OH277353   5.140   6.510  16.990  0.4892  0.0733  0.4685
18621TIP3    H177354   5.098   6.596  16.984 -0.4827 -0.2550  1.9486
18621TIP3    H277355   5.216   6.516  16.933 -0.6593  1.2479 -1.0184
18622TIP3   OH277356   4.227   2.856   0.627  0.1169  0.2297  0.7291
18622TIP3    H177357   4.165   2.828   0.559 -0.0009 -0.4765  1.1191
18622TIP3    H277358   4.305   2.803   0.612  0.6581  1.1676  0.1986
18623TIP3   OH277359   5.963   4.075  12.912 -0.0878  0.2726 -0.2693
18623TIP3    H177360   5.940   4.146  12.972  1.8756  0.4159  0.3808
18623TIP3    H277361   6.036   4.030  12.955 -2.1237 -3.0712  0.0710
18624TIP3   OH277362   0.407   3.699  15.391  0.2644 -0.3634 -0.3570
18624TIP3    H177363   0.365   3.712  15.306  0.4222  0.3075 -0.3377
18624TIP3    H277364   0.501   3.694  15.371  0.3055 -0.1593 -0.2212
18625TIP3   OH277365   3.480   0.237   0.080 -0.7444  0.6529 -0.0947
18625TIP3    H177366   3.496   0.272   0.168  0.9726  0.1222 -0.1555
18625TIP3    H277367   3.504   0.145   0.087 -1.6681  0.3447 -0.8558
18626TIP3   OH277368   4.099   4.628   3.237  0.0247  0.9163  0.3216
18626TIP3    H177369   4.116   4.712   3.195  0.2840  1.9912  2.4157
18626TIP3    H277370   4.182   4.579   3.228  0.5675  1.7172  0.8430
18627TIP3   OH277371   3.006   2.074  12.051  0.0681  0.5071  0.1828
18627TIP3    H177372   3.073   2.110  12.110  1.2825 -3.1408  1.2885
18627TIP3    H277373   3.050   2.067  11.966  1.5834 -2.5579  1.0646
18628TIP3   OH277374   2.043   2.782  11.102  0.7533  0.4095 -0.2058
18628TIP3    H177375   2.048   2.719  11.029 -1.3452  0.8476 -0.7861
18628TIP3    H277376   1.993   2.736  11.170 -0.5429  1.3030 -0.5238
18629TIP3   OH277377   6.552   0.142  13.214  0.4041 -1.0027 -0.3775
18629TIP3    H177378   6.639   0.164  13.249  0.1683  0.0710 -0.4274
18629TIP3    H277379   6.569   0.123  13.121  0.7036 -1.6184 -0.2003
18630TIP3   OH277380   2.123   2.994   4.087 -0.0675 -0.3418  0.4774
18630TIP3    H177381   2.120   3.066   4.025 -2.4407 -1.3800 -0.7820
18630TIP3    H277382   2.172   3.027   4.162 -1.5145  2.7644  0.1956
18631TIP3   OH277383   2.205   4.678  15.589 -0.4300  0.2515 -0.3794
18631TIP3    H177384   2.155   4.677  15.507 -3.9230  0.4373  1.5151
18631TIP3    H277385   2.151   4.626  15.649  0.6868  2.1128  2.4416
18632TIP3   OH277386   3.578   0.679   3.248  0.0337  0.2597 -0.4513
18632TIP3    H177387   3.547   0.707   3.334 -0.8911 -3.2832  0.5634
18632TIP3    H277388   3.499   0.666   3.196  0.3371 -0.8243 -0.6738
18633TIP3   OH277389   0.833   6.238   4.395 -0.3394 -0.1777 -0.3155
18633TIP3    H177390   0.838   6.152   4.353 -0.4054  0.0616 -0.8202
18633TIP3    H277391   0.786   6.222   4.477  0.9845 -0.8918  0.3321
18634TIP3   OH277392   6.797   3.447  17.144 -0.0168  0.7738  0.0745
18634TIP3    H177393   6.884   3.467  17.109  0.9940  1.6386  2.7875
18634TIP3    H277394   6.750   3.531  17.140 -0.3032  0.5956 -0.2957
18635TIP3   OH277395   6.689   1.357  15.671 -0.2050 -0.2224  0.3049
18635TIP3    H177396   6.697   1.449  15.699 -1.6994  0.1913 -0.5137
18635TIP3    H277397   6.746   1.309  15.731  2.0357  1.4106 -0.3415
18636TIP3   OH277398   4.980   0.447   5.752 -0.1824  0.2234  0.4912
18636TIP3    H177399   4.994   0.352   5.743 -2.3184 -0.0198 -1.0955
18636TIP3    H277400   5.066   0.486   5.734 -0.2383 -1.2311 -4.2231
18637TIP3   OH277401   6.097   0.410   2.046  0.6168  0.0257  0.0760
18637TIP3    H177402   6.186   0.445   2.048  0.7174 -0.0113 -2.0098
18637TIP3    H277403   6.087   0.374   1.958 -2.4864  2.8558 -0.9663
18638TIP3   OH277404   2.427   4.369  10.632  0.2288  0.4774  0.6830
18638TIP3    H177405   2.429   4.464  10.637 -0.7770  0.7196 -1.8799
18638TIP3    H277406   2.504   4.346  10.580  0.3593 -0.1256  1.1231
18639TIP3   OH277407   4.362   1.446   0.480  0.1302 -0.7543 -0.1844
18639TIP3    H177408   4.376   1.375   0.542  2.4989  0.2779  0.6201
18639TIP3    H277409   4.291   1.498   0.518 -0.1643 -1.5162  0.3252
18640TIP3   OH277410   4.818   1.064  17.039  0.5671  0.3636 -0.4821
18640TIP3    H177411   4.898   1.043  16.991  1.8962  1.9555  0.9212
18640TIP3    H277412   4.774   1.129  16.983  1.1869  0.8403 -0.4355
18641TIP3   OH277413   0.303   0.376   0.026 -0.2054 -0.7109  0.5488
18641TIP3    H177414   0.322   0.468   0.008  1.6499 -1.2162 -0.3456
18641TIP3    H277415   0.286   0.338  -0.060 -0.5205 -1.2929  0.8609
18642TIP3   OH277416   3.504   4.281   6.947  0.2279  0.0946 -0.1862
18642TIP3    H177417   3.412   4.258   6.953  0.4259 -1.2965 -1.7952
18642TIP3    H277418   3.551   4.200   6.966  1.0007 -0.2961 -3.2410
18643TIP3   OH277419   4.807   6.490  15.222  0.1993 -0.4193 -0.1506
18643TIP3    H177420   4.850   6.575  15.227  0.0063 -0.3542  0.5030
18643TIP3    H277421   4.800   6.462  15.313 -2.7188  0.3754 -0.0412
18644TIP3   OH277422   6.093   6.388   1.470  0.3967 -0.0639 -0.1919
18644TIP3    H177423   6.040   6.324   1.421  1.2058 -2.0545  1.3876
18644TIP3    H277424   6.083   6.362   1.561 -0.0849  2.8090  0.6480
18645TIP3   OH277425   1.074   5.347   6.172 -0.1564  0.1597 -0.1363
18645TIP3    H177426   1.088   5.368   6.264 -0.8296  0.4505 -0.0956
18645TIP3    H277427   0.979   5.330   6.165  0.0601 -1.0121 -0.5396
18646TIP3   OH277428   3.228   2.833   1.280 -0.3351 -0.4093  0.2842
18646TIP3    H177429   3.270   2.916   1.305  0.9260 -0.7651 -0.5637
18646TIP3    H277430   3.262   2.769   1.342  0.6002 -0.7444 -0.5517
18647TIP3   OH277431   2.034   4.753  16.789  0.5463 -0.4572  0.5010
18647TIP3    H177432   2.060   4.668  16.754 -1.0299 -0.2407 -1.3521
18647TIP3    H277433   1.974   4.732  16.860  1.0677 -0.8827  0.8265
18648TIP3   OH277434   0.477   0.430   5.491 -0.1825  0.0883 -0.1123
18648TIP3    H177435   0.431   0.430   5.407 -0.6011  0.1566  0.1130
18648TIP3    H277436   0.421   0.377   5.548 -1.1504  1.9858  0.7959
18649TIP3   OH277437   1.459   0.250   4.624 -0.0204  0.3949  0.3170
18649TIP3    H177438   1.405   0.328   4.632 -0.1841  0.3076  0.0474
18649TIP3    H277439   1.434   0.211   4.541  0.6615  0.5108  0.0501
18650TIP3   OH277440   1.139   4.999   0.963  0.1069 -0.8156  0.2632
18650TIP3    H177441   1.054   5.025   1.001  0.3635 -0.5077  0.6386
18650TIP3    H277442   1.171   5.079   0.921 -0.8633 -1.5198 -1.9629
18651TIP3   OH277443   4.289   6.490  15.267 -0.1979 -0.2815  0.3700
18651TIP3    H177444   4.243   6.406  15.261 -1.1823  0.1607  1.4316
18651TIP3    H277445   4.380   6.468  15.248 -0.4421 -1.5821  0.5569
18652TIP3   OH277446   4.260   4.205   3.324 -0.0189  0.0659  0.2311
18652TIP3    H177447   4.321   4.135   3.347 -0.7263  0.3984  3.5730
18652TIP3    H277448   4.182   4.160   3.292  0.0125 -0.6214  1.1031
18653TIP3   OH277449   3.349   3.313  13.053 -0.3856 -0.3534 -0.1028
18653TIP3    H177450   3.286   3.346  12.989  0.6088  0.9463 -0.4690
18653TIP3    H277451   3.333   3.367  13.131  0.5554  0.3420 -0.3594
18654TIP3   OH277452   6.467   0.196   1.339 -0.1979 -0.2357 -0.1275
18654TIP3    H177453   6.445   0.282   1.373  0.6823  0.0696 -0.3059
18654TIP3    H277454   6.384   0.149   1.336 -1.0088  1.2050 -1.7839
18655TIP3   OH277455   2.958   4.570   3.387 -0.5987 -0.1618 -0.6640
18655TIP3    H177456   2.928   4.641   3.331  0.7268  1.5852  0.7129
18655TIP3    H277457   3.000   4.508   3.328  0.6225  1.5420 -1.6572
18656TIP3   OH277458   1.518   0.367   2.752  0.1992  1.1415 -0.5135
18656TIP3    H177459   1.486   0.277   2.759 -0.1204  1.2316 -0.7979
18656TIP3    H277460   1.472   0.413   2.822  1.2214  0.8491  0.3850
18657TIP3   OH277461   0.024   5.933  12.167 -0.1738 -0.5036  0.2498
18657TIP3    H177462   0.025   5.891  12.252 -0.5907  1.0286  1.0580
18657TIP3    H277463   0.110   5.975  12.160 -1.0689  1.6428  1.1735
18658TIP3   OH277464   4.757   2.028  16.731 -0.3752 -0.4602  0.3971
18658TIP3    H177465   4.847   2.010  16.703 -0.6076  0.1180 -0.7678
18658TIP3    H277466   4.732   1.951  16.782  1.3053  0.0216  2.0785
18659TIP3   OH277467   0.292   3.225   2.224  1.2354  0.0919  0.6230
18659TIP3    H177468   0.239   3.264   2.293  1.4242  0.8143  0.3718
18659TIP3    H277469   0.374   3.201   2.267 -0.1006 -3.3469  1.6205
18660TIP3   OH277470   0.258   5.558  14.786  0.5416  0.1152  0.4040
18660TIP3    H177471   0.199   5.633  14.788 -0.3984 -0.6083  2.4074
18660TIP3    H277472   0.344   5.595  14.807  0.3002  0.7931  0.2102
18661TIP3   OH277473   6.181   3.708  12.847 -0.9063 -0.1023 -0.7482
18661TIP3    H177474   6.273   3.729  12.862 -0.3545 -0.3409 -3.4081
18661TIP3    H277475   6.133   3.778  12.892  0.5547  0.4015  0.0934
18662TIP3   OH277476   1.373   1.471  16.362 -0.9843 -0.4892  0.8318
18662TIP3    H177477   1.446   1.438  16.414 -0.8600 -2.0861 -0.2882
18662TIP3    H277478   1.385   1.566  16.363  1.6838 -0.7178 -0.0824
18663TIP3   OH277479   4.773   4.676  11.031  0.2158  0.0118 -0.0237
18663TIP3    H177480   4.712   4.620  10.982 -1.1153  0.1723  1.3678
18663TIP3    H277481   4.742   4.765  11.014  0.1576  0.1038  0.5549
18664TIP3   OH277482   1.907   0.746   4.007  0.1555  0.6116 -0.0819
18664TIP3    H177483   1.850   0.820   3.985 -1.2160 -0.0522  1.0367
18664TIP3    H277484   1.927   0.758   4.100  1.0675  0.3062 -0.2309
18665TIP3   OH277485   3.889   1.295  11.587  0.1641 -0.8496  0.4857
18665TIP3    H177486   3.973   1.320  11.550 -0.9038 -0.6369 -2.0501
18665TIP3    H277487   3.900   1.203  11.613  1.5612 -0.3898  1.6373
18666TIP3   OH277488   5.494   3.788   3.136 -0.1244  0.1399 -0.1700
18666TIP3    H177489   5.480   3.707   3.087 -1.6201  1.0305 -1.2837
18666TIP3    H277490   5.588   3.805   3.127 -0.0720 -0.6225 -1.2819
18667TIP3   OH277491   3.154   2.358   1.888 -0.1191  0.3276  0.2800
18667TIP3    H177492   3.247   2.374   1.868 -0.0241 -1.0690 -0.5244
18667TIP3    H277493   3.137   2.411   1.966  0.9144  1.8836 -0.4928
18668TIP3   OH277494   5.105   3.579  12.976  0.1235  0.1905 -0.6250
18668TIP3    H177495   5.135   3.624  13.055  1.6457 -1.9933  0.1199
18668TIP3    H277496   5.119   3.643  12.906 -0.8985  2.0330  0.7413
18669TIP3   OH277497   1.961   1.972  11.338 -0.8563 -0.3270  0.0501
18669TIP3    H177498   1.941   2.045  11.397 -1.5283 -0.6048  0.1783
18669TIP3    H277499   2.050   1.945  11.362 -1.0641 -0.3397  0.8416
18670TIP3   OH277500   6.672   2.845  16.299  0.3234  0.5742 -0.0809
18670TIP3    H177501   6.679   2.897  16.379 -0.6754 -0.3155  0.6218
18670TIP3    H277502   6.653   2.756  16.330 -1.5026  0.4748 -1.3236
18671TIP3   OH277503   6.649   0.696  14.591  0.0269  0.6051  0.0031
18671TIP3    H177504   6.620   0.764  14.530  1.5107  1.1951 -0.1072
18671TIP3    H277505   6.734   0.667  14.556  1.1211  1.2397  1.9582
18672TIP3   OH277506   5.707   2.916  12.335  0.1402  0.4018  0.0137
18672TIP3    H177507   5.760   2.992  12.359 -1.9466  0.9189  3.7375
18672TIP3    H277508   5.617   2.942  12.353 -0.8129 -2.4186 -0.1140
18673TIP3   OH277509   0.988   5.211  10.360 -0.2856  0.0417  0.2323
18673TIP3    H177510   1.012   5.200  10.452 -0.0988 -0.8174  0.0938
18673TIP3    H277511   1.071   5.218  10.314 -0.3567 -0.3125  0.0460
18674TIP3   OH277512   3.091   6.618  10.588  0.2607  0.0502  0.4198
18674TIP3    H177513   3.128   6.683  10.648  1.7627 -0.1292 -0.2673
18674TIP3    H277514   3.080   6.540  10.641  1.0855  0.0495  0.6050
18675TIP3   OH277515   6.058   6.678   1.662  0.2161 -0.4080 -0.1849
18675TIP3    H177516   5.984   6.679   1.723  1.1666 -0.1276  1.0095
18675TIP3    H277517   6.051   6.595   1.616 -1.1577 -0.1384 -0.4968
18676TIP3   OH277518   5.864   2.616   3.931 -0.7783 -0.3363  0.3199
18676TIP3    H177519   5.921   2.659   3.867 -1.3919 -0.7417 -0.5204
18676TIP3    H277520   5.903   2.637   4.016  1.7143 -2.0928 -0.2594
18677TIP3   OH277521   4.333   5.505   3.763  0.1663  0.2172 -0.6215
18677TIP3    H177522   4.399   5.446   3.800 -0.5777 -0.0619  0.3029
18677TIP3    H277523   4.301   5.460   3.685  0.1601 -0.2339 -0.3615
18678TIP3   OH277524   3.481   4.758   3.592 -0.1800 -0.6308 -0.0435
18678TIP3    H177525   3.474   4.824   3.660 -0.6724  0.0078 -0.7037
18678TIP3    H277526   3.404   4.771   3.537  0.0956 -1.2774 -0.6037
18679TIP3   OH277527   1.680   1.288  15.928 -0.2729  0.0313  0.0643
18679TIP3    H177528   1.589   1.287  15.896 -0.0985  1.4550 -0.5714
18679TIP3    H277529   1.706   1.380  15.921  2.3393 -0.7769 -3.0170
18680TIP3   OH277530   4.213   4.593   1.317 -0.5446  0.2714  0.2243
18680TIP3    H177531   4.129   4.639   1.319 -1.1982 -0.7770 -1.3458
18680TIP3    H277532   4.270   4.649   1.266 -0.5652  0.5435  0.4973
18681TIP3   OH277533   4.327   1.659   5.364  0.3626  0.0313 -0.1567
18681TIP3    H177534   4.307   1.580   5.313  0.6291  0.1680 -0.4775
18681TIP3    H277535   4.244   1.683   5.405  0.4707 -0.9645  0.7162
18682TIP3   OH277536   2.490   5.259  13.673  0.1416 -0.6705 -0.0309
18682TIP3    H177537   2.497   5.190  13.739  2.3023 -0.6723 -0.1907
18682TIP3    H277538   2.563   5.318  13.692 -0.3993  0.4292 -1.1975
18683TIP3   OH277539   5.600   2.305  12.149  0.1607  0.1492  0.5550
18683TIP3    H177540   5.533   2.360  12.107 -1.0434 -2.3585 -1.0269
18683TIP3    H277541   5.576   2.305  12.241 -0.2278  1.6360  0.4889
18684TIP3   OH277542   0.191   0.005   3.509  0.2545  0.0975  0.3478
18684TIP3    H177543   0.206  -0.053   3.584 -1.5955 -1.1803 -0.1875
18684TIP3    H277544   0.152  -0.052   3.443  0.3847  1.5306 -1.0162
18685TIP3   OH277545   1.381   0.802   5.168  0.3413  0.0704  0.3953
18685TIP3    H177546   1.410   0.868   5.105  1.0761  0.9920  1.6406
18685TIP3    H277547   1.288   0.789   5.149  0.4432  0.6787 -0.5607
18686TIP3   OH277548   4.802   2.434   1.092  0.7363  0.3048  0.1192
18686TIP3    H177549   4.792   2.339   1.085 -1.3152  0.3878  1.3006
18686TIP3    H277550   4.866   2.447   1.162  0.2469 -0.2184  0.6701
18687TIP3   OH277551   2.378   3.607  16.909  0.2348  0.3583  0.6912
18687TIP3    H177552   2.429   3.682  16.940  0.3353 -0.2470  2.0535
18687TIP3    H277553   2.397   3.602  16.815  4.3591 -1.0255  1.3680
18688TIP3   OH277554   6.184   3.501  16.763  0.4713 -0.1608 -0.8774
18688TIP3    H177555   6.233   3.481  16.684  0.5224  0.2228 -0.9450
18688TIP3    H277556   6.194   3.595  16.775  3.2075 -0.6161  1.4225
18689TIP3   OH277557   6.221   0.516  13.346 -0.2329  0.4655 -0.3496
18689TIP3    H177558   6.237   0.602  13.308  0.2441  0.9667  0.9394
18689TIP3    H277559   6.271   0.456  13.290  2.0584  1.4057  0.5750
18690TIP3   OH277560   2.276   2.005  16.989 -0.2547 -0.1077  0.3622
18690TIP3    H177561   2.240   1.998  16.901  1.6988 -0.8070 -0.4416
18690TIP3    H277562   2.201   1.992  17.047 -1.7472  1.3042 -1.1624
18691TIP3   OH277563   4.176   3.352   5.417  0.1416 -0.2841 -0.1988
18691TIP3    H177564   4.261   3.391   5.434 -0.5897  0.7957  1.1666
18691TIP3    H277565   4.153   3.307   5.499 -1.0856  0.4022 -0.1400
18692TIP3   OH277566   1.243   3.005  13.213  0.6428  0.4114 -0.4302
18692TIP3    H177567   1.231   3.032  13.122 -1.6577  0.3222 -0.2069
18692TIP3    H277568   1.171   3.046  13.260  1.9064  0.6263  1.4362
18693TIP3   OH277569   2.412   5.472   4.805  0.5031  0.5273 -0.0980
18693TIP3    H177570   2.426   5.379   4.784  0.5153  0.4992  0.0344
18693TIP3    H277571   2.400   5.473   4.900 -1.0412  0.4564 -0.2600
18694TIP3   OH277572   0.940   0.492   5.392  0.3674  0.8278 -0.4581
18694TIP3    H177573   0.956   0.510   5.299 -0.3804 -0.7599 -0.9336
18694TIP3    H277574   1.011   0.435   5.419 -0.9535 -1.1160 -0.8897
18695TIP3   OH277575   1.041   4.469  16.789 -0.1847  0.5155 -0.7528
18695TIP3    H177576   1.034   4.563  16.770  1.5550  1.2948  1.7685
18695TIP3    H277577   1.129   4.460  16.825 -1.1941 -1.5883  1.4401
18696TIP3   OH277578   2.410   0.873  14.846  0.2857  0.3746  0.2929
18696TIP3    H177579   2.366   0.935  14.789  0.5885 -1.0303 -1.5708
18696TIP3    H277580   2.499   0.907  14.857  0.4256  0.3243 -0.6501
18697TIP3   OH277581   4.579   1.144  12.951  0.8338 -0.6804 -0.4342
18697TIP3    H177582   4.552   1.233  12.928 -2.2210 -0.7635  2.1419
18697TIP3    H277583   4.627   1.155  13.033  0.2159 -1.4081  0.0317
18698TIP3   OH277584   0.381   6.622  13.736  0.1673 -0.2403  0.4943
18698TIP3    H177585   0.337   6.630  13.652  1.8567 -0.8984 -0.4947
18698TIP3    H277586   0.474   6.631  13.716  0.6057 -0.3430  2.2992
18699TIP3   OH277587   1.769   5.154   0.251 -0.1577  0.0521 -0.1469
18699TIP3    H177588   1.850   5.108   0.228  1.7824  2.3931  1.4395
18699TIP3    H277589   1.767   5.230   0.193 -1.0669  0.1681  0.0235
18700TIP3   OH277590   4.858   6.682   3.883  0.1113  0.3243 -0.9613
18700TIP3    H177591   4.876   6.589   3.869 -0.7346  0.0012 -0.1009
18700TIP3    H277592   4.898   6.701   3.968  1.4682  1.1131 -1.7566
18701TIP3   OH277593   0.638   2.443  13.510  0.1148  0.4843 -0.5900
18701TIP3    H177594   0.637   2.393  13.591  1.1422  1.9873  0.3981
18701TIP3    H277595   0.572   2.511  13.523  1.7458  2.0454 -0.0932
18702TIP3   OH277596   2.925   1.530  15.093 -0.8366 -0.3457  0.1873
18702TIP3    H177597   2.968   1.591  15.034 -0.7904 -0.9441 -0.4090
18702TIP3    H277598   2.997   1.478  15.130 -1.0224 -1.4323 -0.9054
18703TIP3   OH277599   5.224   6.772  10.325  0.0636  0.4195 -0.3330
18703TIP3    H177600   5.230   6.820  10.408  1.3898  1.0733 -0.7723
18703TIP3    H277601   5.263   6.687  10.345 -2.1430 -0.4797  0.4038
18704TIP3   OH277602   0.380   6.258  16.875  0.2827 -0.7019  0.6137
18704TIP3    H177603   0.300   6.281  16.922 -0.6227  0.8519 -1.5111
18704TIP3    H277604   0.384   6.319  16.801  2.3524 -2.0598 -0.5429
18705TIP3   OH277605   1.379   0.418  13.025  0.5517 -0.1606 -0.1992
18705TIP3    H177606   1.301   0.444  13.076  0.4632  1.4201 -1.0782
18705TIP3    H277607   1.452   0.428  13.086  0.4143  1.4510 -0.2539
18706TIP3   OH277608   5.577   1.587   6.326  0.1419  0.2211  0.2240
18706TIP3    H177609   5.501   1.614   6.274 -1.2084 -1.3797  1.2918
18706TIP3    H277610   5.629   1.534   6.266 -0.6421 -0.3807  0.0593
18707TIP3   OH277611   6.673   0.256  13.517 -0.1395 -0.2776 -0.4472
18707TIP3    H177612   6.613   0.324  13.486 -0.9834 -0.3914  0.8571
18707TIP3    H277613   6.760   0.286  13.490 -0.5628  1.0094 -0.4270
18708TIP3   OH277614   2.502   5.104   5.647  0.2166 -0.1873 -0.5610
18708TIP3    H177615   2.514   5.042   5.719 -1.3646 -1.3135 -1.2101
18708TIP3    H277616   2.439   5.168   5.681 -0.4542 -0.6624 -0.9002
18709TIP3   OH277617   5.492   5.383  16.396 -0.2367 -0.5023  0.5872
18709TIP3    H177618   5.586   5.368  16.387  0.2152  1.0462  2.1442
18709TIP3    H277619   5.454   5.344  16.317  1.5586 -2.2151  0.5032
18710TIP3   OH277620   2.444   4.834   1.066  0.9235  0.3506 -0.1264
18710TIP3    H177621   2.364   4.807   1.021  2.4188 -2.3769 -1.3985
18710TIP3    H277622   2.417   4.854   1.155 -1.2968  0.5118 -0.7888
18711TIP3   OH277623   4.409   0.360  13.483 -0.2328 -0.1915  0.1964
18711TIP3    H177624   4.451   0.351  13.568  0.6709  0.5896 -0.1447
18711TIP3    H277625   4.352   0.284  13.476 -1.1746  0.2856  1.9643
18712TIP3   OH277626   5.386   3.387   3.752 -0.3270 -0.2103  0.4888
18712TIP3    H177627   5.326   3.385   3.827  0.7889  0.9003  1.4751
18712TIP3    H277628   5.395   3.480   3.732 -0.1143 -0.4674 -0.6287
18713TIP3   OH277629   5.745   5.666   5.090  0.1378  0.2725  0.1639
18713TIP3    H177630   5.802   5.591   5.108 -0.8695 -0.5553 -0.0031
18713TIP3    H277631   5.777   5.735   5.149  0.3773 -0.6463  1.1426
18714TIP3   OH277632   4.032   3.904   2.889  0.3340 -0.6034 -0.2164
18714TIP3    H177633   4.012   3.822   2.933  1.0203 -0.1000  1.0998
18714TIP3    H277634   3.992   3.971   2.945 -0.5430 -0.0388 -1.4622
18715TIP3   OH277635   4.559   4.872  16.658  0.0484 -0.3857  0.3135
18715TIP3    H177636   4.501   4.845  16.730  1.3264 -1.4426  0.9949
18715TIP3    H277637   4.626   4.926  16.701  0.4530 -0.4793 -0.2005
18716TIP3   OH277638   0.181   4.959   1.775  0.3039 -0.1128  0.3158
18716TIP3    H177639   0.170   4.996   1.863  0.2224 -0.0247  0.2685
18716TIP3    H277640   0.091   4.952   1.741  0.2205 -1.3550  0.7403
18717TIP3   OH277641   6.182   2.556  17.115 -0.4269 -0.1613  0.8495
18717TIP3    H177642   6.105   2.593  17.158 -0.1908  0.5619  0.6761
18717TIP3    H277643   6.149   2.524  17.031 -0.4577  0.6352  0.5438
18718TIP3   OH277644   1.142   2.211   2.829  0.2340  0.1322 -0.9191
18718TIP3    H177645   1.220   2.162   2.803 -0.7259 -1.6488 -0.6181
18718TIP3    H277646   1.176   2.285   2.879  1.7021 -1.2403  0.2247
18719TIP3   OH277647   0.262   5.648   6.446 -0.2688 -0.2170  0.0721
18719TIP3    H177648   0.349   5.664   6.411 -0.4950 -1.4657 -1.1339
18719TIP3    H277649   0.216   5.599   6.377 -2.2433  1.2244  0.2732
18720TIP3   OH277650   6.570   5.437  12.312 -0.5656  0.2696 -0.0157
18720TIP3    H177651   6.545   5.512  12.259 -0.5885 -0.5539 -1.2204
18720TIP3    H277652   6.573   5.364  12.250 -1.2385 -0.8693  1.2367
18721TIP3   OH277653   2.005   4.962   2.662 -0.3938  0.6419 -0.6256
18721TIP3    H177654   1.935   4.905   2.693  0.9218 -0.6354  0.1658
18721TIP3    H277655   1.976   4.992   2.576 -0.9646 -1.6275 -1.3049
18722TIP3   OH277656   1.705   6.614   4.324  0.7099  0.3486  0.0438
18722TIP3    H177657   1.646   6.663   4.382 -0.5615  0.4425 -1.2651
18722TIP3    H277658   1.662   6.616   4.239  3.7182  2.3540 -1.5927
18723TIP3   OH277659   6.608   5.356  16.809  0.5867 -0.0906  0.1505
18723TIP3    H177660   6.628   5.345  16.716 -0.0707  0.9988 -0.1365
18723TIP3    H277661   6.689   5.331  16.854  0.7713 -1.0479 -0.6830
18724TIP3   OH277662   1.419   3.970  14.135  0.3195  0.6449 -0.0135
18724TIP3    H177663   1.376   3.971  14.049  1.5779  0.1862 -0.6722
18724TIP3    H277664   1.429   3.878  14.156 -0.0703  0.7557  0.6932
18725TIP3   OH277665   0.272   4.881   4.253 -0.0202  0.9157 -0.0918
18725TIP3    H177666   0.281   4.826   4.175  0.7846 -0.1591  0.7142
18725TIP3    H277667   0.186   4.857   4.289  0.0526  0.6431 -0.0942
18726TIP3   OH277668   1.659   2.542  12.238 -0.4468  0.3225 -0.5320
18726TIP3    H177669   1.735   2.491  12.210 -0.6060 -0.4937  0.4443
18726TIP3    H277670   1.624   2.580  12.158  2.0256  2.2213 -0.8289
18727TIP3   OH277671   0.466   0.924   4.527 -0.3018  0.2127  0.0755
18727TIP3    H177672   0.426   1.009   4.508  0.9651  0.6760 -0.7032
18727TIP3    H277673   0.394   0.869   4.556 -1.2759  1.3497 -0.1097
18728TIP3   OH277674   2.780   0.434   3.006 -0.6150  0.2306  0.1415
18728TIP3    H177675   2.724   0.409   3.079 -0.1407  2.2738  1.2733
18728TIP3    H277676   2.736   0.508   2.966 -0.9019 -0.9071 -1.7586
18729TIP3   OH277677   6.130   4.965  12.562 -0.2122  0.1454 -0.1336
18729TIP3    H177678   6.111   4.986  12.470 -0.6183 -2.3605 -0.6786
18729TIP3    H277679   6.220   4.931  12.561  0.1917  1.1475  0.6051
18730TIP3   OH277680   5.682   3.319  13.689 -0.5600  0.1957  0.0251
18730TIP3    H177681   5.658   3.229  13.667  0.8761  0.0412 -1.0714
18730TIP3    H277682   5.637   3.372  13.623 -0.1176  0.1435 -0.3195
18731TIP3   OH277683   2.527   0.586  16.670  0.1612 -0.0934  0.3719
18731TIP3    H177684   2.487   0.630  16.595  1.0008 -0.8734 -0.5486
18731TIP3    H277685   2.455   0.575  16.732 -1.0975 -1.4244 -1.2278
18732TIP3   OH277686   0.902   2.256  11.694 -0.0782 -0.2425 -0.0013
18732TIP3    H177687   0.852   2.177  11.714 -1.9206  0.9699  0.5094
18732TIP3    H277688   0.969   2.260  11.762 -1.9211  0.2001  1.9058
18733TIP3   OH277689   3.610   3.413   2.022  0.0656  0.1506  0.1711
18733TIP3    H177690   3.575   3.432   2.110 -0.3506  2.5912 -0.4479
18733TIP3    H277691   3.533   3.394   1.969  0.0092  1.4842 -0.2665
18734TIP3   OH277692   3.189   4.552  15.688 -0.7084 -0.4361  0.1390
18734TIP3    H177693   3.107   4.514  15.721 -1.0856 -0.3815 -0.7046
18734TIP3    H277694   3.229   4.593  15.765 -1.5550 -0.3125  0.5262
18735TIP3   OH277695   1.338   4.018   5.786  0.4731  0.3958 -0.5553
18735TIP3    H177696   1.349   4.081   5.714 -2.9056 -0.1678 -1.7625
18735TIP3    H277697   1.295   4.067   5.855  1.0364  0.2108 -0.0604
18736TIP3   OH277698   6.404   2.911  11.813 -0.1567 -0.2793 -0.4553
18736TIP3    H177699   6.474   2.975  11.802  0.0800 -0.7616 -2.2005
18736TIP3    H277700   6.326   2.954  11.776 -0.2566 -0.5584 -0.5755
18737TIP3   OH277701   4.878   3.331   4.021 -0.3504  0.5961 -0.2037
18737TIP3    H177702   4.875   3.247   4.066 -0.7341  0.8050  0.1663
18737TIP3    H277703   4.814   3.323   3.950 -1.0183  0.8749  0.3614
18738TIP3   OH277704   2.919   3.057  14.035 -0.0583  0.1190  0.2841
18738TIP3    H177705   2.865   2.981  14.057  1.0090 -0.2202  1.8790
18738TIP3    H277706   2.904   3.118  14.107  1.7778 -0.0554  0.8612
18739TIP3   OH277707   6.196   6.511  13.603  0.0208 -0.1472 -0.5034
18739TIP3    H177708   6.213   6.590  13.654  2.9993 -1.0105  0.0786
18739TIP3    H277709   6.204   6.439  13.667 -0.7675 -1.0135 -1.3504
18740TIP3   OH277710   2.110   6.005  17.020  0.1637 -0.3378 -0.1446
18740TIP3    H177711   2.186   5.962  17.059  0.1576 -0.3912 -0.1923
18740TIP3    H277712   2.139   6.029  16.932 -0.0627 -0.8868 -0.3770
18741TIP3   OH277713   1.068   6.567  15.917 -0.8771  0.9587 -0.0789
18741TIP3    H177714   1.107   6.614  15.990 -0.6450  1.6806 -0.6497
18741TIP3    H277715   1.065   6.476  15.945  0.5744  0.9914  0.2620
18742TIP3   OH277716   1.420   2.707   2.593  0.1756 -0.3671  0.4268
18742TIP3    H177717   1.443   2.703   2.685 -1.3657 -3.9583  0.8559
18742TIP3    H277718   1.329   2.737   2.592  0.5080  0.6948 -0.0769
18743TIP3   OH277719   0.296   0.235   2.768  0.2385  0.3541  0.2587
18743TIP3    H177720   0.391   0.220   2.769  0.4044  1.1818 -0.7776
18743TIP3    H277721   0.281   0.293   2.843  0.2845 -1.0883  1.4196
18744TIP3   OH277722   2.650   1.419  14.210 -0.2373  0.5550 -0.2601
18744TIP3    H177723   2.629   1.470  14.132  0.0730  2.6958  0.9795
18744TIP3    H277724   2.745   1.405  14.205 -0.2526  0.5002 -0.3836
18745TIP3   OH277725   1.322   2.215   4.570 -0.9061  0.4164  0.0205
18745TIP3    H177726   1.395   2.224   4.509  0.5928  1.1643  1.8151
18745TIP3    H277727   1.327   2.124   4.601  0.4652  0.9385  1.4770
18746TIP3   OH277728   2.916   0.031   5.960  0.4011 -0.1482  0.3453
18746TIP3    H177729   2.834   0.030   6.009  0.5035  2.0614  0.6602
18746TIP3    H277730   2.983   0.054   6.025  1.1007 -0.7139 -0.1500
18747TIP3   OH277731   6.696   6.533  13.832  0.4526  0.0765 -0.3538
18747TIP3    H177732   6.779   6.511  13.791 -0.6267 -0.7703 -2.1718
18747TIP3    H277733   6.629   6.495  13.775 -1.2576  2.0365  0.2073
18748TIP3   OH277734   3.688   3.008   1.767  0.3306 -0.1630  0.5209
18748TIP3    H177735   3.622   3.055   1.715  0.4297 -0.3498  0.2205
18748TIP3    H277736   3.657   3.014   1.857 -0.0271 -0.1338  0.3963
18749TIP3   OH277737   6.012   0.165  11.249 -0.9093  0.0676  0.3885
18749TIP3    H177738   5.940   0.228  11.259 -0.3895  0.7823 -0.2755
18749TIP3    H277739   6.046   0.153  11.338 -0.7831  1.0054  0.4769
18750TIP3   OH277740   0.294   5.055   4.585  0.5377 -0.2682  0.2265
18750TIP3    H177741   0.211   5.014   4.608  1.1786 -0.3626  2.5991
18750TIP3    H277742   0.358   4.984   4.583  0.6678 -0.1495 -1.2493
18751TIP3   OH277743   1.732   5.804  13.235 -0.5643 -0.1230 -0.5178
18751TIP3    H177744   1.656   5.855  13.263  0.1045  1.3231 -1.2260
18751TIP3    H277745   1.733   5.813  13.140  2.3604  2.7948 -0.3727
18752TIP3   OH277746   0.830   4.029  11.111  0.5287  0.1512  0.4983
18752TIP3    H177747   0.786   3.945  11.126 -0.4106  0.7629  1.3172
18752TIP3    H277748   0.763   4.084  11.070  1.0422  0.6027  0.2467
18753TIP3   OH277749   4.364   1.675   4.596 -0.2031 -0.1085 -0.3913
18753TIP3    H177750   4.328   1.703   4.680 -0.0947 -0.0390 -0.3682
18753TIP3    H277751   4.459   1.682   4.607 -0.1724 -0.5193 -0.3726
18754TIP3   OH277752   4.718   2.909   4.646  0.3776  0.2183  0.6785
18754TIP3    H177753   4.773   2.854   4.590  0.1143 -0.9385  1.4988
18754TIP3    H277754   4.761   2.994   4.646  2.5529 -0.7930  1.7571
18755TIP3   OH277755   4.702   6.689   4.606  0.6982 -0.4652 -0.4678
18755TIP3    H177756   4.780   6.743   4.619  0.8418 -0.7880  0.0406
18755TIP3    H277757   4.733   6.612   4.559  0.8463 -0.9605  0.4057
18756TIP3   OH277758   3.918   2.104   4.233  0.1717 -0.4695 -0.4323
18756TIP3    H177759   3.845   2.062   4.278  0.6489  0.4356  1.2778
18756TIP3    H277760   3.989   2.106   4.298  0.6445  1.5551 -0.9365
18757TIP3   OH277761   6.828   0.463   4.332 -0.6387  0.3543 -0.3133
18757TIP3    H177762   6.847   0.394   4.395 -1.4862 -0.3437 -0.7926
18757TIP3    H277763   6.875   0.539   4.365  0.1401 -0.3852  0.3483
18758TIP3   OH277764   6.448   4.620  15.102  0.4414  0.1129 -0.6715
18758TIP3    H177765   6.433   4.649  15.192 -0.9957 -1.9042 -0.1913
18758TIP3    H277766   6.531   4.573  15.104  0.6310  0.4576 -0.4985
18759TIP3   OH277767   4.287   1.396  12.272  0.2958  0.0067 -0.0280
18759TIP3    H177768   4.357   1.334  12.290 -0.1408 -0.7158 -0.7544
18759TIP3    H277769   4.328   1.482  12.279  0.9079 -0.3636  0.9744
18760TIP3   OH277770   2.955   6.772  15.617 -0.1670 -0.4727 -0.0412
18760TIP3    H177771   2.932   6.737  15.531  1.6531 -0.6146 -0.5190
18760TIP3    H277772   2.970   6.695  15.672 -1.0771 -0.3835  0.3561
18761TIP3   OH277773   2.341   3.996  15.497  0.3282 -0.4536  0.1502
18761TIP3    H177774   2.353   4.052  15.574 -3.6045 -0.7853  1.2082
18761TIP3    H277775   2.274   3.933  15.523  0.2926 -1.8848 -2.9331
18762TIP3   OH277776   2.463   1.538  14.998 -0.2188 -0.0890  0.1916
18762TIP3    H177777   2.553   1.557  15.026  0.3193 -0.1262 -1.3632
18762TIP3    H277778   2.447   1.448  15.026  0.3133 -0.1454  0.3201
18763TIP3   OH277779   6.449   5.675  14.547 -0.4276 -0.2751 -0.0323
18763TIP3    H177780   6.508   5.738  14.504  0.4713 -0.8248  0.3577
18763TIP3    H277781   6.450   5.599  14.490  1.0710 -1.1535  1.0948
18764TIP3   OH277782   3.505   5.324  10.953 -0.1431  0.1520 -0.3900
18764TIP3    H177783   3.500   5.237  10.913  0.2095 -0.2826  0.4796
18764TIP3    H277784   3.429   5.371  10.920 -0.4078 -0.5334 -0.7651
18765TIP3   OH277785   5.495   0.565  12.758 -0.1899  0.2734  0.1102
18765TIP3    H177786   5.468   0.564  12.666 -0.9979  0.4962  0.3369
18765TIP3    H277787   5.570   0.507  12.762  0.3020  0.8262 -0.8283
18766TIP3   OH277788   4.355   6.027   2.230 -0.8381 -0.1247 -0.8378
18766TIP3    H177789   4.447   6.031   2.205 -0.3693 -1.2185  0.6091
18766TIP3    H277790   4.352   6.066   2.317 -1.1211 -3.0264  0.5768
18767TIP3   OH277791   1.031   3.502  11.118  0.2475  0.0027 -0.5894
18767TIP3    H177792   1.094   3.539  11.179 -0.2369  3.2977 -1.8723
18767TIP3    H277793   1.067   3.416  11.095  0.6940 -1.1767  3.7531
18768TIP3   OH277794   4.750   2.629  13.782  0.3109  0.1972  0.8548
18768TIP3    H177795   4.801   2.676  13.848  3.3907 -1.7902  0.1170
18768TIP3    H277796   4.689   2.575  13.832  1.7279 -0.3422  2.0683
18769TIP3   OH277797   4.200   1.415   2.730  0.4325  0.6434 -0.6541
18769TIP3    H177798   4.127   1.411   2.668 -1.5010  1.0201  1.4549
18769TIP3    H277799   4.259   1.344   2.703 -0.7561  0.2699 -2.3902
18770TIP3   OH277800   5.131   2.867   2.061  0.0332 -0.1605  0.1169
18770TIP3    H177801   5.104   2.853   2.152  1.2551  0.2101  0.5575
18770TIP3    H277802   5.068   2.930   2.027  0.8475  1.4250  1.4166
18771TIP3   OH277803   5.185   0.620   2.949 -0.3542 -0.4437  0.2028
18771TIP3    H177804   5.112   0.604   2.889  0.9161 -1.8304 -1.0497
18771TIP3    H277805   5.166   0.566   3.025 -1.4349  0.4832  0.6178
18772TIP3   OH277806   6.040   3.301   3.533 -0.1385 -0.3407 -0.0105
18772TIP3    H177807   6.080   3.268   3.613  0.0259  2.5774  1.2044
18772TIP3    H277808   6.094   3.375   3.506 -1.6560  0.3568 -1.3634
18773TIP3   OH277809   1.065   2.003  14.869  0.6626 -0.0775 -0.3867
18773TIP3    H177810   1.011   1.926  14.883 -1.1594  1.3167  0.6537
18773TIP3    H277811   1.155   1.973  14.887 -0.0563 -1.7882  0.5863
18774TIP3   OH277812   5.762   5.540  15.725  0.5769  0.2745  0.1699
18774TIP3    H177813   5.818   5.617  15.718  0.4156  0.4063  0.3219
18774TIP3    H277814   5.702   5.547  15.651 -0.1240  0.8552  0.7753
18775TIP3   OH277815   4.608   1.099   4.516  0.2086 -0.2091  0.2290
18775TIP3    H177816   4.665   1.170   4.543 -1.1623  0.9253  0.2472
18775TIP3    H277817   4.520   1.129   4.538 -0.5226 -1.3563 -0.9687
18776TIP3   OH277818   1.017   0.191  10.985  0.6362  0.0141 -0.2212
18776TIP3    H177819   1.083   0.240  10.937  0.4390  0.5542  0.0401
18776TIP3    H277820   0.934   0.219  10.946  0.6082 -1.6345 -1.4279
18777TIP3   OH277821   2.407   2.318  12.170  0.3978 -0.0976 -0.0652
18777TIP3    H177822   2.387   2.225  12.182 -0.6710  0.3255  1.9252
18777TIP3    H277823   2.346   2.347  12.102  2.3573 -1.3025 -2.4517
18778TIP3   OH277824   4.410   0.106   0.001  0.0212 -0.1202 -0.0546
18778TIP3    H177825   4.363   0.057  -0.066  0.5798 -1.6178  0.5959
18778TIP3    H277826   4.494   0.129  -0.040 -0.1950  0.1933 -0.3246
18779TIP3   OH277827   2.975   1.916   0.247 -0.2113  0.4787  0.0931
18779TIP3    H177828   2.918   1.839   0.252 -2.0708  1.8100  0.4552
18779TIP3    H277829   3.028   1.911   0.327  1.2820 -1.5423 -0.9480
18780TIP3   OH277830   4.997   4.479  10.882  0.1130 -0.8109 -0.2506
18780TIP3    H177831   5.010   4.511  10.792 -1.2372 -0.4431 -0.3408
18780TIP3    H277832   4.905   4.499  10.901  0.2284 -1.4057  1.0132
18781TIP3   OH277833   5.225   4.187  16.965  0.2652  0.4178 -0.7895
18781TIP3    H177834   5.215   4.104  17.013 -0.7700  0.9187 -0.1045
18781TIP3    H277835   5.318   4.190  16.941  0.2950 -1.0054 -0.9585
18782TIP3   OH277836   3.512   1.589  16.701  0.2319  0.5485 -0.3654
18782TIP3    H177837   3.536   1.682  16.701 -0.1504  0.6880 -2.0467
18782TIP3    H277838   3.570   1.550  16.636  0.6821 -0.5029  0.6377
18783TIP3   OH277839   2.994   4.395  13.460 -0.1949 -0.2073 -0.7512
18783TIP3    H177840   2.984   4.342  13.381  0.7980 -0.4248 -0.7471
18783TIP3    H277841   3.080   4.436  13.450 -0.0097 -0.3293  0.2733
18784TIP3   OH277842   3.476   2.737   5.679  0.1174 -0.6763  0.1084
18784TIP3    H177843   3.441   2.689   5.604 -1.9999  0.1632  0.5029
18784TIP3    H277844   3.446   2.688   5.755 -1.7759  0.9915  0.5050
18785TIP3   OH277845   3.778   5.985   3.682 -0.4519  0.2054 -0.0945
18785TIP3    H177846   3.767   6.035   3.601  0.1332  0.0204 -0.2964
18785TIP3    H277847   3.730   6.035   3.748 -1.1928  0.1963 -0.6184
18786TIP3   OH277848   3.431   6.572  16.715 -0.1606  0.4237 -0.1246
18786TIP3    H177849   3.439   6.667  16.726 -0.1236  0.3486  0.5285
18786TIP3    H277850   3.519   6.544  16.689 -0.5255  0.7504 -1.7979
18787TIP3   OH277851   2.764   3.280   2.940  0.4081  0.1779 -0.1784
18787TIP3    H177852   2.785   3.295   3.032 -0.1265  1.3209 -0.2328
18787TIP3    H277853   2.813   3.201   2.918  1.4248  0.5003  0.7851
18788TIP3   OH277854   6.415   5.075   1.604  0.3564  0.0083  0.1370
18788TIP3    H177855   6.450   4.997   1.647 -2.0546 -0.1944  1.9538
18788TIP3    H277856   6.440   5.147   1.662  0.0530  0.1981  0.0336
18789TIP3   OH277857   0.683   4.405  12.720 -0.3013 -0.0654  0.0634
18789TIP3    H177858   0.620   4.462  12.676 -1.1891 -0.3467  0.9224
18789TIP3    H277859   0.656   4.316  12.697 -0.3865 -0.1945  0.6462
18790TIP3   OH277860   1.647   6.011  12.051  0.2791  0.4104 -0.4607
18790TIP3    H177861   1.609   5.938  12.100  0.0791  0.9001  0.1255
18790TIP3    H277862   1.680   5.971  11.970 -1.2056 -0.0858 -0.8545
18791TIP3   OH277863   1.562   3.918   3.932  0.3893 -0.1429 -0.3243
18791TIP3    H177864   1.498   3.989   3.928  0.1252 -0.3432  0.3236
18791TIP3    H277865   1.608   3.923   3.848 -0.4193  0.0539 -0.7650
18792TIP3   OH277866   3.094   3.615   0.309 -0.7033 -0.4367  0.0725
18792TIP3    H177867   3.189   3.626   0.314 -0.4272 -2.1230 -0.6797
18792TIP3    H277868   3.077   3.535   0.359 -2.0804  1.1191  2.2912
18793TIP3   OH277869   1.928   5.288   1.780  0.6311  0.0264 -0.5561
18793TIP3    H177870   1.922   5.380   1.754  1.9436  0.6932  1.3236
18793TIP3    H277871   2.013   5.280   1.822 -0.1730 -1.6445  0.8735
18794TIP3   OH277872   1.996   6.554   1.360  0.6051 -0.0537 -0.0062
18794TIP3    H177873   1.997   6.472   1.409  1.0554 -0.6915 -1.0579
18794TIP3    H277874   1.910   6.555   1.317  0.9757 -0.4498 -0.7668
18795TIP3   OH277875   4.772   6.715  12.401 -0.2360 -0.6777 -0.2146
18795TIP3    H177876   4.808   6.698  12.488 -2.6443 -0.4310  0.9004
18795TIP3    H277877   4.814   6.796  12.373  0.6213 -0.7961  0.6710
18796TIP3   OH277878   3.177   2.797  12.011  0.3084 -0.4318  0.6071
18796TIP3    H177879   3.122   2.872  11.987  1.1319 -0.4753 -1.6201
18796TIP3    H277880   3.127   2.721  11.981  1.4667 -0.4762 -1.3416
18797TIP3   OH277881   2.634   4.141  14.825  0.3674 -0.1919 -0.3593
18797TIP3    H177882   2.710   4.095  14.861  0.3140 -0.2681 -0.3440
18797TIP3    H277883   2.611   4.092  14.746  0.8069  0.2832 -0.7887
18798TIP3   OH277884   5.600   6.663  15.215 -0.3988  0.0825 -0.3798
18798TIP3    H177885   5.672   6.685  15.275  0.0679 -1.6128 -0.2568
18798TIP3    H277886   5.612   6.723  15.141 -0.2898  1.4220  0.6747
18799TIP3   OH277887   0.576   4.954  14.628  0.2315 -0.1262 -0.4264
18799TIP3    H177888   0.483   4.974  14.616  0.5260  1.1297 -0.7683
18799TIP3    H277889   0.577   4.865  14.664 -1.0301 -0.7951 -1.9195
18800TIP3   OH277890   0.526   4.184  12.632 -0.6236  0.2521 -0.5243
18800TIP3    H177891   0.514   4.094  12.663  1.0122 -0.1139 -0.9078
18800TIP3    H277892   0.439   4.224  12.643 -0.9648 -0.8472  1.2843
18801TIP3   OH277893   1.631   1.583   6.605  0.0806  0.6452  0.4369
18801TIP3    H177894   1.641   1.539   6.689 -0.3726  2.2683  1.3930
18801TIP3    H277895   1.679   1.665   6.615  1.9804 -0.0994 -1.7346
18802TIP3   OH277896   5.725   6.211  16.274 -0.2266  0.4190  0.8744
18802TIP3    H177897   5.654   6.274  16.281 -0.2569  0.7611 -1.5143
18802TIP3    H277898   5.693   6.146  16.212  1.0566 -0.1310  0.7511
18803TIP3   OH277899   2.497   5.211  15.901  0.2825 -0.4051  0.2363
18803TIP3    H177900   2.510   5.292  15.853 -2.2592  2.6508  4.0872
18803TIP3    H277901   2.425   5.167  15.855  0.3361  0.5233 -0.7661
18804TIP3   OH277902   6.667   5.756   1.797 -0.2524  0.3932 -0.3914
18804TIP3    H177903   6.668   5.806   1.715 -0.1193 -0.9184 -1.2238
18804TIP3    H277904   6.698   5.817   1.864  1.3950  0.9713 -1.6264
18805TIP3   OH277905   5.669   3.414  11.645 -0.0486  0.1511 -0.1819
18805TIP3    H177906   5.618   3.333  11.641  1.3003 -0.8055  1.0119
18805TIP3    H277907   5.699   3.427  11.555  0.9458 -1.5494 -0.1588
18806TIP3   OH277908   3.320   1.859  13.211 -0.0980  0.0215 -0.2572
18806TIP3    H177909   3.282   1.784  13.166 -1.3248  0.0844  0.6148
18806TIP3    H277910   3.283   1.935  13.166 -1.9892  0.0947  1.2708
18807TIP3   OH277911   2.472   5.384   4.361  0.0979  0.0316  0.2439
18807TIP3    H177912   2.380   5.360   4.352  0.3350 -0.9869  0.3935
18807TIP3    H277913   2.516   5.302   4.382  1.3464  0.0803 -1.9036
18808TIP3   OH277914   0.169   1.001   0.047 -0.2388  0.3519  0.8795
18808TIP3    H177915   0.220   0.954  -0.018  0.1351  0.0773  1.3644
18808TIP3    H277916   0.157   1.089   0.010 -2.0517 -0.4552 -0.6378
18809TIP3   OH277917   5.437   2.870  10.254 -0.0777 -0.2171  0.4456
18809TIP3    H177918   5.406   2.916  10.332  0.0696 -1.5922  1.3452
18809TIP3    H277919   5.423   2.932  10.182 -0.8271  0.8285  1.4642
18810TIP3   OH277920   3.805   1.694   4.546 -0.5754 -0.3403  0.3967
18810TIP3    H177921   3.774   1.735   4.627  0.9372  0.6141  0.5381
18810TIP3    H277922   3.888   1.738   4.528 -1.4741  0.4016 -2.3770
18811TIP3   OH277923   4.925   2.061   2.016 -0.2126 -0.1740  0.2004
18811TIP3    H177924   4.992   2.074   1.949 -0.0597 -1.5706  0.0493
18811TIP3    H277925   4.897   2.149   2.040  0.9916  0.3983 -0.4270
18812TIP3   OH277926   0.537   2.882   1.711 -0.0939  0.5137 -0.2357
18812TIP3    H177927   0.462   2.824   1.725 -0.4579  1.2697  1.1854
18812TIP3    H277928   0.517   2.960   1.763  1.9239  0.5074  0.6394
18813TIP3   OH277929   0.849   2.330   3.455  0.2805  0.1314 -0.3190
18813TIP3    H177930   0.798   2.394   3.405  1.3103  0.7354 -0.6138
18813TIP3    H277931   0.824   2.246   3.418 -0.0240  0.4669 -0.9018
18814TIP3   OH277932   3.022   0.950   4.576  0.1614  0.1284 -0.8864
18814TIP3    H177933   3.094   0.995   4.621  0.5811 -1.7436  0.4320
18814TIP3    H277934   3.059   0.926   4.490  1.7959 -2.2751  0.3766
18815TIP3   OH277935   3.723   4.744   1.311  0.2412  0.4792  0.1084
18815TIP3    H177936   3.701   4.695   1.390 -0.7703 -1.9035 -1.4980
18815TIP3    H277937   3.672   4.824   1.317 -0.6143 -0.1254  1.3857
18816TIP3   OH277938   5.085   3.754   1.765 -0.0862  0.4597 -0.0203
18816TIP3    H177939   5.111   3.846   1.764  0.3366  0.3324 -1.1760
18816TIP3    H277940   5.166   3.706   1.780 -0.3685  0.2760  1.0254
18817TIP3   OH277941   2.022   6.100  14.173  0.2295  0.4444 -0.8212
18817TIP3    H177942   1.927   6.100  14.183  0.3553 -0.8764  0.8310
18817TIP3    H277943   2.036   6.093  14.079 -1.3492 -1.3229 -0.9775
18818TIP3   OH277944   6.675   3.940   0.488  0.4225  0.1290  0.0057
18818TIP3    H177945   6.757   3.902   0.520 -0.1473 -1.5490 -0.4389
18818TIP3    H277946   6.615   3.935   0.563  0.0558 -0.8091 -0.3313
18819TIP3   OH277947   2.643   1.057  11.852  0.1043 -0.7556 -0.4836
18819TIP3    H177948   2.635   0.962  11.841  1.5490 -1.3437  2.5113
18819TIP3    H277949   2.580   1.079  11.920  1.8860 -0.1776  1.0670
18820TIP3   OH277950   0.741   3.190   0.862 -0.1489  0.1270  0.4423
18820TIP3    H177951   0.746   3.272   0.912  0.2591 -0.8632  2.1288
18820TIP3    H277952   0.733   3.123   0.930 -0.7923 -1.2069 -0.9185
18821TIP3   OH277953   0.924   6.540   1.064 -0.2238  0.9101 -0.1387
18821TIP3    H177954   1.019   6.531   1.072 -0.0782  1.8875 -0.6916
18821TIP3    H277955   0.912   6.610   1.000 -1.3284 -1.1574 -2.3636
18822TIP3   OH277956   4.202   6.052   5.294  0.3572  0.6709  0.2706
18822TIP3    H177957   4.168   5.967   5.266  0.0448  1.5860 -2.5047
18822TIP3    H277958   4.287   6.060   5.251  0.4035  1.7273  0.5226
18823TIP3   OH277959   1.858   2.023   1.781 -0.4009 -0.6080 -0.6518
18823TIP3    H177960   1.812   1.942   1.757  1.7554 -1.7496 -1.1720
18823TIP3    H277961   1.927   2.032   1.715  1.7473 -0.3999  1.4756
18824TIP3   OH277962   5.412   6.589   0.522  0.0778  0.4955  0.1935
18824TIP3    H177963   5.339   6.528   0.520  1.8844 -1.7760  0.0310
18824TIP3    H277964   5.416   6.626   0.433 -1.3211  1.2892  0.4324
18825TIP3   OH277965   4.516   4.973  15.607 -0.5087 -0.2696  0.2689
18825TIP3    H177966   4.434   4.937  15.642 -0.6474  0.8352  1.1282
18825TIP3    H277967   4.523   5.060  15.646  1.7965 -0.8811  1.3821
18826TIP3   OH277968   1.663   4.711  13.463  0.5219  0.3196 -0.2679
18826TIP3    H177969   1.620   4.650  13.403  1.3464 -0.6759  0.1178
18826TIP3    H277970   1.727   4.657  13.510  0.7935  1.3469  0.5814
18827TIP3   OH277971   5.854   6.162  14.491  0.0747  0.1640 -0.5271
18827TIP3    H177972   5.905   6.241  14.477  1.9403 -0.8092  0.3664
18827TIP3    H277973   5.879   6.133  14.579  0.6915 -2.2477 -1.4184
18828TIP3   OH277974   0.057   4.597   5.021  0.3294  0.3437 -0.2630
18828TIP3    H177975   0.122   4.528   5.014  1.1903  1.2830 -2.4990
18828TIP3    H277976   0.095   4.661   5.082  0.9657  0.3114 -0.6223
18829TIP3   OH277977   0.433   3.306  10.764  0.0336 -0.1070  0.6029
18829TIP3    H177978   0.469   3.239  10.705  1.6620  0.5707  0.7782
18829TIP3    H277979   0.360   3.343  10.715  1.9183  1.0924 -1.4811
18830TIP3   OH277980   3.447   0.892  14.946  0.2755 -0.5086  0.1607
18830TIP3    H177981   3.362   0.932  14.962  0.3230 -0.3132 -0.0729
18830TIP3    H277982   3.454   0.887  14.851  1.6635  1.9420  0.0515
18831TIP3   OH277983   5.562   5.152  11.983  0.4277  0.5116  0.1826
18831TIP3    H177984   5.472   5.154  12.016  0.2680  1.4431 -0.2794
18831TIP3    H277985   5.615   5.132  12.061 -0.2822 -1.7744  0.1589
18832TIP3   OH277986   6.481   4.258   5.593 -0.7693 -0.2299 -0.3838
18832TIP3    H177987   6.393   4.225   5.574 -0.1549 -1.8663 -0.5199
18832TIP3    H277988   6.466   4.329   5.655 -2.1436 -1.1148  0.3638
18833TIP3   OH277989   4.280   0.434   0.474  0.2125 -0.6453 -0.7086
18833TIP3    H177990   4.201   0.482   0.449  0.2176 -1.1968 -1.8221
18833TIP3    H277991   4.351   0.476   0.426  0.7316  0.2208  0.7249
18834TIP3   OH277992   5.313   3.266   5.147  0.4335  0.1133  0.2452
18834TIP3    H177993   5.379   3.250   5.079  1.6200  0.8449  1.1774
18834TIP3    H277994   5.270   3.182   5.159 -1.2801  0.3717 -2.8267
18835TIP3   OH277995   3.493   1.096   5.486 -0.4546  0.2362 -0.6328
18835TIP3    H177996   3.465   1.179   5.447  0.6247  0.4818 -0.9200
18835TIP3    H277997   3.510   1.038   5.412  0.9860  0.5018 -0.5375
18836TIP3   OH277998   2.317   2.180  12.593 -0.1017  0.0877  0.3964
18836TIP3    H177999   2.306   2.269  12.625  0.7933  0.2125  0.3934
18836TIP3    H278000   2.320   2.188  12.498  2.1694  0.3658  0.4367
18837TIP3   OH278001   5.564   4.530   1.703 -0.5654  0.4492  0.0139
18837TIP3    H178002   5.549   4.599   1.767  1.1283  2.4357 -1.5734
18837TIP3    H278003   5.659   4.518   1.703 -0.6685 -0.5857 -1.0853
18838TIP3   OH278004   4.254   6.706  14.212 -0.3160  0.6103 -0.1878
18838TIP3    H178005   4.336   6.749  14.187  0.3654 -0.8974 -0.6700
18838TIP3    H278006   4.185   6.767  14.187  0.6702  2.1759  0.7624
18839TIP3   OH278007   3.054   0.243  11.724 -0.4366  0.0043  0.1940
18839TIP3    H178008   3.148   0.252  11.712 -0.3662 -1.4827 -0.5821
18839TIP3    H278009   3.044   0.162  11.774 -1.3398 -0.7199 -1.0890
18840TIP3   OH278010   1.668   4.159   4.244  0.0801  0.2559 -0.3009
18840TIP3    H178011   1.680   4.066   4.262  0.4015  0.4702  0.6621
18840TIP3    H278012   1.689   4.203   4.327 -0.8604  1.1311 -0.4993
18841TIP3   OH278013   4.927   1.653  15.981  0.2974  0.0351  0.9071
18841TIP3    H178014   4.908   1.741  15.949 -0.3931 -0.8546 -1.2395
18841TIP3    H278015   5.013   1.632  15.944 -0.2016 -0.7510  0.1756
18842TIP3   OH278016   1.101   1.455  11.310  0.0169 -0.3824  0.4349
18842TIP3    H178017   1.159   1.471  11.236 -0.5927 -0.7673 -0.1343
18842TIP3    H278018   1.143   1.385  11.360 -0.8540 -2.0122 -1.0046
18843TIP3   OH278019   5.581   5.737  16.800 -0.3779  0.3043  0.0100
18843TIP3    H178020   5.670   5.762  16.777  0.2020 -2.2095 -0.7160
18843TIP3    H278021   5.536   5.727  16.717 -0.6018 -0.9073  0.2663
18844TIP3   OH278022   0.489   5.903   0.137  0.2442 -0.0511 -0.5460
18844TIP3    H178023   0.408   5.942   0.103  0.3865  0.1411 -0.6663
18844TIP3    H278024   0.549   5.903   0.062  0.7384  0.8635 -0.1668
18845TIP3   OH278025   3.739   0.327  12.175 -0.4834  0.0293  0.0468
18845TIP3    H178026   3.708   0.417  12.184 -0.0453  0.0891  1.1631
18845TIP3    H278027   3.833   0.336  12.158 -0.6576 -0.1996 -1.1019
18846TIP3   OH278028   2.917   2.806  14.282 -0.2823 -0.0824 -0.2898
18846TIP3    H178029   2.957   2.855  14.353 -0.2563  1.3938 -1.2888
18846TIP3    H278030   2.849   2.864  14.248 -2.2353 -1.8677  0.3063
18847TIP3   OH278031   0.265   0.702   5.948  0.2725  0.3784 -0.4362
18847TIP3    H178032   0.355   0.696   5.981  0.2489  0.4475 -0.3586
18847TIP3    H278033   0.274   0.732   5.858  0.3161  0.6180 -0.3537
18848TIP3   OH278034   2.693   2.513  14.878  0.2642  0.5250  0.2344
18848TIP3    H178035   2.718   2.425  14.849 -0.4310  0.1535  0.7244
18848TIP3    H278036   2.767   2.544  14.929  0.3617  0.0677  0.3708
18849TIP3   OH278037   2.332   2.690  12.306 -0.2276 -0.3777 -0.3966
18849TIP3    H178038   2.425   2.706  12.317  0.1735 -0.9000 -2.4957
18849TIP3    H278039   2.308   2.741  12.228 -1.2892 -1.5747 -0.8916
18850TIP3   OH278040   6.366   1.063   3.690 -0.1146 -0.1041  0.1425
18850TIP3    H178041   6.412   1.133   3.644  0.3405 -0.1245  0.5553
18850TIP3    H278042   6.306   1.108   3.750 -0.6023 -0.0772 -0.3620
18851TIP3   OH278043   2.756   4.850   4.763  0.5093 -0.2622 -0.2928
18851TIP3    H178044   2.827   4.913   4.766 -0.0855  0.5350 -1.8337
18851TIP3    H278045   2.706   4.866   4.843  1.0546  0.3819 -0.0773
18852TIP3   OH278046   4.123   3.814   1.686  0.0221 -0.5054 -0.1499
18852TIP3    H178047   4.100   3.799   1.778  0.5478  0.0382  0.0798
18852TIP3    H278048   4.069   3.753   1.637 -0.2494 -0.8146  0.5273
18853TIP3   OH278049   2.677   2.610   3.635  0.3667 -0.8538  0.6590
18853TIP3    H178050   2.687   2.670   3.709 -0.2007 -1.8896  1.6246
18853TIP3    H278051   2.740   2.639   3.570  0.0248  0.8389  1.0481
18854TIP3   OH278052   5.566   6.591  15.925  0.7790 -0.0892  0.0523
18854TIP3    H178053   5.538   6.625  16.010  0.3526  0.2296 -0.2129
18854TIP3    H278054   5.500   6.622  15.863 -0.3442 -2.4323 -0.0254
18855TIP3   OH278055   1.719   1.766   2.967  0.2738  0.1174 -0.9822
18855TIP3    H178056   1.792   1.793   3.023  0.4489  1.1116 -1.6691
18855TIP3    H278057   1.692   1.681   3.003 -0.3647  1.1999  1.3265
18856TIP3   OH278058   5.968   2.479  15.832 -0.0962 -0.4826 -0.2548
18856TIP3    H178059   5.911   2.488  15.909 -0.3182 -2.4564 -0.1445
18856TIP3    H278060   6.014   2.563  15.827 -0.3325 -0.1657  1.8318
18857TIP3   OH278061   1.439   6.845  16.303  0.4960  0.0089 -0.1969
18857TIP3    H178062   1.482   6.792  16.236  1.8734  0.6381  0.1643
18857TIP3    H278063   1.413   6.782  16.370  1.3402 -0.3307 -0.1743
18858TIP3   OH278064   0.061   1.189   3.896 -0.3870  0.3697 -0.0049
18858TIP3    H178065   0.023   1.162   3.813 -0.3523  1.3262 -0.3490
18858TIP3    H278066   0.073   1.284   3.887  2.6519  0.0556 -0.1729
18859TIP3   OH278067   6.630   1.262  16.750  0.2934 -0.1962 -0.2165
18859TIP3    H178068   6.721   1.237  16.762  0.2405  0.0071  0.6498
18859TIP3    H278069   6.596   1.274  16.838 -0.4636  0.1234 -0.5402
18860TIP3   OH278070   5.280   1.247  12.142 -0.0703  0.2073 -0.6382
18860TIP3    H178071   5.194   1.207  12.154 -0.9514  1.7413 -1.6055
18860TIP3    H278072   5.262   1.332  12.101  1.7902  1.2157  0.5070
18861TIP3   OH278073   0.954   4.434   3.598  0.4587 -0.4636  0.0383
18861TIP3    H178074   0.870   4.471   3.568  0.6871  0.1943  0.1962
18861TIP3    H278075   0.934   4.342   3.615  0.0673 -0.6074 -1.1093
18862TIP3   OH278076   5.315   0.610   3.820  0.2408  0.1375 -0.4383
18862TIP3    H178077   5.277   0.572   3.740 -0.9312  1.2047 -0.4207
18862TIP3    H278078   5.322   0.704   3.801  0.2419  0.3599  0.6040
18863TIP3   OH278079   0.545   6.387  14.817 -0.1897 -0.9368 -0.1527
18863TIP3    H178080   0.519   6.329  14.889  2.7409 -0.7635  1.2099
18863TIP3    H278081   0.545   6.330  14.739  0.1551 -2.1279  0.6890
18864TIP3   OH278082   5.302   5.081  13.742  0.4166  0.6690 -0.0992
18864TIP3    H178083   5.312   5.092  13.837 -0.5208 -2.0811  0.4161
18864TIP3    H278084   5.389   5.053  13.712  0.9317  2.3080 -0.2548
18865TIP3   OH278085   4.817   4.648   6.433 -0.2790  0.1613  0.4814
18865TIP3    H178086   4.745   4.633   6.373 -1.1166 -0.1545  1.5385
18865TIP3    H278087   4.777   4.690   6.509  1.1333  2.8570 -0.1382
18866TIP3   OH278088   3.738   3.132   0.008 -0.3024  0.1236 -0.5463
18866TIP3    H178089   3.708   3.164   0.093  0.8003 -0.3025  0.0212
18866TIP3    H278090   3.832   3.149   0.008 -0.1825 -0.4750 -1.4138
18867TIP3   OH278091   2.999   3.368   0.259  0.4530  0.0380 -0.4746
18867TIP3    H178092   2.971   3.278   0.247  2.3587 -0.6582 -0.0136
18867TIP3    H278093   3.070   3.380   0.196  0.6129  1.0380 -0.1297
18868TIP3   OH278094   1.147   5.817   0.043  0.1544 -0.5058 -0.1711
18868TIP3    H178095   1.202   5.817   0.122  0.7072 -0.5932 -0.5526
18868TIP3    H278096   1.068   5.769   0.069  0.2648 -0.3990  0.3773
18869TIP3   OH278097   2.459   1.382   0.773 -0.0598  0.2020  0.2754
18869TIP3    H178098   2.482   1.473   0.756  0.1117  0.4099  1.4980
18869TIP3    H278099   2.492   1.365   0.861 -2.5913 -0.1580  1.2521
18870TIP3   OH278100   2.629   5.281  10.661  0.4701 -0.5865  0.3413
18870TIP3    H178101   2.653   5.189  10.645 -0.2786 -0.7574  0.1715
18870TIP3    H278102   2.542   5.289  10.624 -0.5513 -0.4768  2.6128
18871TIP3   OH278103   5.088   0.531   1.838 -0.4441  0.1188  1.0561
18871TIP3    H178104   5.062   0.461   1.778 -2.3364  0.2498  1.6854
18871TIP3    H278105   5.183   0.519   1.849 -0.1977 -0.4281 -1.2498
18872TIP3   OH278106   6.379   2.928   2.665 -0.3542 -0.4653 -0.0465
18872TIP3    H178107   6.362   2.891   2.751  0.6687  0.5957  0.6421
18872TIP3    H278108   6.469   2.902   2.645 -0.4733 -0.4239 -0.6569
18873TIP3   OH278109   5.945   2.990   0.608 -0.2835  0.3620  0.2020
18873TIP3    H178110   5.888   2.918   0.633  0.1921  0.8095  2.8310
18873TIP3    H278111   5.890   3.045   0.552 -1.9141 -0.0804  1.2916
18874TIP3   OH278112   4.522   3.862  12.551  0.1373 -0.2799  0.0729
18874TIP3    H178113   4.558   3.879  12.463 -1.2519  3.4676  0.0317
18874TIP3    H278114   4.589   3.896  12.610 -0.3147  0.2360  0.2932
18875TIP3   OH278115   2.801   0.669   4.306  0.5020  0.0815 -0.0135
18875TIP3    H178116   2.858   0.646   4.379  0.9123  2.1501  0.3835
18875TIP3    H278117   2.835   0.619   4.232  0.8656 -1.0826  0.9116
18876TIP3   OH278118   6.134   4.925  12.866 -0.4517 -0.1351 -0.2538
18876TIP3    H178119   6.140   4.922  12.771  1.8519  0.8110 -0.2094
18876TIP3    H278120   6.223   4.909  12.896 -1.1558 -0.5918  1.7779
18877TIP3   OH278121   3.132   5.794   1.343 -0.4348 -0.6006  0.1260
18877TIP3    H178122   3.191   5.770   1.271 -0.4053  0.3681 -0.1934
18877TIP3    H278123   3.060   5.731   1.337  0.0354 -1.1235 -0.1520
18878TIP3   OH278124   0.558   4.717  13.798 -0.2784 -0.1257 -0.0993
18878TIP3    H178125   0.493   4.768  13.846  1.0594  1.9154 -0.3161
18878TIP3    H278126   0.545   4.744  13.707 -0.4384 -1.2590 -0.4254
18879TIP3   OH278127   3.747   2.017  12.574  0.2428  0.2692  0.3116
18879TIP3    H178128   3.725   2.098  12.529  1.0048  0.0989 -0.3970
18879TIP3    H278129   3.831   1.990  12.535 -0.0065 -0.8588  0.5224
18880TIP3   OH278130   1.468   1.644  16.650 -0.3575  0.0841 -0.4742
18880TIP3    H178131   1.482   1.676  16.561 -0.8313  1.0806 -0.2108
18880TIP3    H278132   1.381   1.603  16.647 -0.5996  0.5791 -0.3584
18881TIP3   OH278133   5.859   6.592  15.948  0.1050 -0.1296 -0.0981
18881TIP3    H178134   5.810   6.510  15.938 -1.7802  1.1425 -2.7570
18881TIP3    H278135   5.796   6.653  15.988  1.3388  0.1914  1.4646
18882TIP3   OH278136   1.142   4.601  14.814 -0.4959 -0.4385 -0.2713
18882TIP3    H178137   1.094   4.662  14.757 -2.3834 -1.1423  0.4725
18882TIP3    H278138   1.168   4.654  14.889 -1.3077 -0.3163 -0.0629
18883TIP3   OH278139   4.457   3.483   1.206 -0.2009 -0.0009  0.0385
18883TIP3    H178140   4.432   3.429   1.281  0.7669 -0.6966 -0.1269
18883TIP3    H278141   4.410   3.443   1.132  2.1473 -2.0415 -0.4880
18884TIP3   OH278142   0.869   2.382   2.864  0.2458  0.1212 -0.3723
18884TIP3    H178143   0.921   2.450   2.908 -1.7911  0.9615  0.8545
18884TIP3    H278144   0.899   2.384   2.773  1.6364  1.2303  0.0691
18885TIP3   OH278145   4.847   2.846  14.378  0.5230 -0.1941  0.2055
18885TIP3    H178146   4.845   2.913  14.446  1.1235  1.2142 -1.1065
18885TIP3    H278147   4.938   2.816  14.376  0.4319 -0.4771  0.2520
18886TIP3   OH278148   4.802   5.139  14.427  0.3581 -0.1447  0.1349
18886TIP3    H178149   4.746   5.216  14.431 -2.9164 -2.0956 -2.5454
18886TIP3    H278150   4.826   5.132  14.335  3.3933 -0.5973  0.8613
18887TIP3   OH278151   3.940   0.972   4.263  0.0490  0.3315 -0.1851
18887TIP3    H178152   3.966   1.007   4.348 -0.3155 -1.4014  0.6881
18887TIP3    H278153   3.990   1.023   4.199  0.8688  1.1796  1.0959
18888TIP3   OH278154   0.583   0.976   2.549 -0.4810 -0.8133 -0.0963
18888TIP3    H178155   0.576   1.045   2.482  1.1653 -2.0390 -1.6266
18888TIP3    H278156   0.504   0.923   2.537 -0.4776 -0.6938 -0.6986
18889TIP3   OH278157   3.605   6.010   4.948 -0.4416  0.0253 -0.0733
18889TIP3    H178158   3.675   5.987   4.887 -0.3186  0.4888 -0.1056
18889TIP3    H278159   3.651   6.044   5.025 -0.6667  1.9584 -0.7503
18890TIP3   OH278160   5.671   1.676  13.668  0.2262 -0.0812 -0.3102
18890TIP3    H178161   5.747   1.662  13.611 -0.0149 -0.0910 -0.6354
18890TIP3    H278162   5.682   1.766  13.699  1.1215 -0.5500  0.7935
18891TIP3   OH278163   3.437   2.550  12.148 -0.9088 -0.6800  0.5039
18891TIP3    H178164   3.410   2.624  12.202 -0.1485 -0.1360  0.1641
18891TIP3    H278165   3.493   2.589  12.081  0.4437 -1.6968  0.9957
18892TIP3   OH278166   3.027   4.365   1.057 -0.2240 -0.4343 -0.8655
18892TIP3    H178167   2.990   4.420   0.988 -0.8660 -2.0304 -1.8556
18892TIP3    H278168   3.048   4.283   1.013  1.5940 -0.6687  0.3741
18893TIP3   OH278169   5.544   1.355   2.618 -0.2763  0.2051 -0.6506
18893TIP3    H178170   5.476   1.347   2.684  0.0321 -1.6026 -0.4777
18893TIP3    H278171   5.607   1.287   2.641  1.6508  1.8723 -0.7617
18894TIP3   OH278172   0.202   1.789   3.946 -0.5547  0.0766  0.1934
18894TIP3    H178173   0.284   1.812   3.903  0.2350 -2.9726 -0.1792
18894TIP3    H278174   0.214   1.698   3.973 -4.5776 -1.3338 -1.9066
18895TIP3   OH278175   5.284   5.261  14.616  0.2620  0.6936 -0.1974
18895TIP3    H178176   5.378   5.243  14.614  0.2970  0.6314  1.1318
18895TIP3    H278177   5.249   5.211  14.542  0.9798 -1.1750  0.6556
18896TIP3   OH278178   4.396   6.274  15.001  0.2732  0.1024  0.6445
18896TIP3    H178179   4.361   6.241  15.083 -0.5760  1.3213  0.8069
18896TIP3    H278180   4.387   6.369  15.008  2.1101  0.3667 -0.0061
18897TIP3   OH278181   1.689   4.440   3.474  0.8893  0.6511  0.1590
18897TIP3    H178182   1.718   4.531   3.463 -0.8179  1.2989  0.6332
18897TIP3    H278183   1.666   4.433   3.567 -0.7369  0.3131 -0.2406
18898TIP3   OH278184   4.835   0.179  12.484 -0.8766 -0.9958  0.4015
18898TIP3    H178185   4.742   0.157  12.490 -0.9140 -1.4535 -1.2770
18898TIP3    H278186   4.857   0.166  12.392  0.8642 -0.9104  0.7605
18899TIP3   OH278187   5.432   0.499  11.834  0.2286  0.4202 -0.2405
18899TIP3    H178188   5.478   0.419  11.859  2.6564  1.4942 -0.9384
18899TIP3    H278189   5.447   0.559  11.907 -0.8889  0.5146 -0.0762
18900TIP3   OH278190   0.053   3.131   1.463  0.4934 -0.1805  0.3675
18900TIP3    H178191   0.019   3.075   1.394 -0.1913 -1.9971  2.0778
18900TIP3    H278192   0.119   3.078   1.507  0.7591  0.8374  1.2536
18901TIP3   OH278193   1.225   2.840  16.013 -0.3865 -0.1358  0.1082
18901TIP3    H178194   1.207   2.766  15.954  1.7854 -0.6408  0.0204
18901TIP3    H278195   1.247   2.913  15.955  2.9449 -0.9426  0.1588
18902TIP3   OH278196   2.038   4.370  14.272 -0.6464  0.4285 -0.6765
18902TIP3    H178197   2.070   4.397  14.186  1.3377 -0.6067 -0.3343
18902TIP3    H278198   2.118   4.352  14.323 -1.7682  0.2254  1.1199
18903TIP3   OH278199   5.398   1.905  15.039 -0.4210  0.4656  1.1192
18903TIP3    H178200   5.479   1.889  15.087 -0.0266  0.3353  0.4183
18903TIP3    H278201   5.357   1.977  15.086  1.1652  2.0279  0.2312
18904TIP3   OH278202   3.091   6.428   4.278 -0.0200  0.0459  0.3644
18904TIP3    H178203   3.028   6.453   4.210  0.3349 -1.0476 -0.3834
18904TIP3    H278204   3.070   6.337   4.299  0.8407 -0.0997  0.6356
18905TIP3   OH278205   3.083   5.658   4.694 -0.1379  0.2946  0.0428
18905TIP3    H178206   3.173   5.627   4.681  0.6200  1.8154  1.3509
18905TIP3    H278207   3.093   5.750   4.720 -2.0568  0.3856  0.5954
18906TIP3   OH278208   4.568   0.328   1.250 -0.1081 -0.1739  1.2065
18906TIP3    H178209   4.592   0.421   1.260 -0.7350  0.3351 -1.3516
18906TIP3    H278210   4.648   0.280   1.270  0.5124  0.9857  1.5821
18907TIP3   OH278211   3.415   3.266   0.814 -0.5820  0.1491  0.4287
18907TIP3    H178212   3.369   3.339   0.857  0.1864 -0.0131  1.5811
18907TIP3    H278213   3.498   3.305   0.786 -0.2616 -0.2222  0.8534
18908TIP3   OH278214   2.766   2.547   3.154 -0.3621 -0.4781 -0.4229
18908TIP3    H178215   2.727   2.490   3.087 -1.6756 -0.4407  0.2763
18908TIP3    H278216   2.726   2.633   3.137  2.1968  0.5234 -1.9878
18909TIP3   OH278217   2.810   1.115   5.371 -0.1020  0.3332 -0.7819
18909TIP3    H178218   2.841   1.064   5.296 -1.5062 -0.0282 -1.1378
18909TIP3    H278219   2.720   1.087   5.384  0.6805 -1.1768  2.3873
18910TIP3   OH278220   0.956   5.705  15.222 -0.4008  0.2671 -0.2115
18910TIP3    H178221   0.871   5.691  15.265 -1.6707  1.1358 -2.2505
18910TIP3    H278222   0.976   5.621  15.180  0.8867 -0.6096  2.0289
18911TIP3   OH278223   6.723   1.757  16.429  0.7744 -0.4260  0.0319
18911TIP3    H178224   6.815   1.779  16.423  0.6293  0.8543  1.8027
18911TIP3    H278225   6.693   1.799  16.510 -1.4229 -0.5614 -0.6420
18912TIP3   OH278226   1.139   0.649   0.933  0.3239  0.2028  0.5730
18912TIP3    H178227   1.090   0.720   0.892  0.7413 -0.0547 -0.4058
18912TIP3    H278228   1.168   0.594   0.860 -0.5411 -1.3524  1.3302
18913TIP3   OH278229   3.917   5.389  16.196 -0.2106  0.6823  0.2696
18913TIP3    H178230   3.947   5.346  16.276 -1.4109 -1.3799 -0.3125
18913TIP3    H278231   3.983   5.456  16.179  1.8417 -0.9730  1.2325
18914TIP3   OH278232   1.761   1.121   0.316  0.0421  0.1480 -0.0581
18914TIP3    H178233   1.798   1.209   0.309 -0.8209  0.5177 -0.1453
18914TIP3    H278234   1.670   1.131   0.289  0.1775 -0.9586 -0.9875
18915TIP3   OH278235   3.955   3.344  16.064 -0.5326  0.1786  0.0657
18915TIP3    H178236   4.027   3.344  16.001  0.3243  1.9825  0.9512
18915TIP3    H278237   3.986   3.400  16.135 -3.2041  1.9434 -0.0083
18916TIP3   OH278238   3.095   3.270   5.443  0.1332 -0.2479  0.0794
18916TIP3    H178239   3.098   3.197   5.382 -0.5389 -1.3835  1.3500
18916TIP3    H278240   3.155   3.245   5.513 -0.8048 -0.0344  0.9886
18917TIP3   OH278241   1.689   3.208  12.254  0.0019 -0.0469 -0.2464
18917TIP3    H178242   1.637   3.134  12.284  0.2236  0.1143  0.5600
18917TIP3    H278243   1.763   3.168  12.208 -0.6233 -0.2822 -1.0765
18918TIP3   OH278244   1.545   5.906   0.135 -0.5476  0.2851  0.2918
18918TIP3    H178245   1.625   5.930   0.181 -0.4594  1.0700 -0.2561
18918TIP3    H278246   1.575   5.873   0.050 -0.7289 -0.8048  0.6373
18919TIP3   OH278247   0.847   6.158  11.523  0.2750  0.3370  0.0826
18919TIP3    H178248   0.923   6.113  11.487 -0.7931  1.3594 -3.8916
18919TIP3    H278249   0.875   6.250  11.531 -0.3104  0.5987 -0.7718
18920TIP3   OH278250   0.315   2.684   2.339  0.4111  0.2111  0.2821
18920TIP3    H178251   0.307   2.592   2.316  0.9468 -0.3042  2.0087
18920TIP3    H278252   0.382   2.686   2.408 -0.4711  1.7232  1.1485
18921TIP3   OH278253   5.801   2.393  14.087  0.0075  0.0415  0.3963
18921TIP3    H178254   5.786   2.303  14.115  0.5945  0.2486  1.4286
18921TIP3    H278255   5.774   2.447  14.161  2.6961  0.5449  1.1199
18922TIP3   OH278256   4.783   3.945   0.142  0.0067 -0.2888  0.0969
18922TIP3    H178257   4.869   3.923   0.178  0.1782 -0.1574 -0.2328
18922TIP3    H278258   4.747   3.862   0.112 -0.1103 -0.3910  0.5056
18923TIP3   OH278259   4.399   3.168  10.328  0.1393 -0.0704  0.4895
18923TIP3    H178260   4.425   3.096  10.271 -0.4425 -0.0216  0.1623
18923TIP3    H278261   4.480   3.193  10.373  0.2603 -1.2236  0.9524
18924TIP3   OH278262   2.158   6.223   4.219 -0.3281 -0.3574 -0.3473
18924TIP3    H178263   2.096   6.152   4.233  0.5514 -1.1383 -0.3123
18924TIP3    H278264   2.110   6.287   4.167 -0.8095 -1.4618 -1.3027
18925TIP3   OH278265   4.745   1.099  12.552  0.3224  0.2726  0.1785
18925TIP3    H178266   4.791   1.177  12.581 -0.0822  0.6870 -0.2631
18925TIP3    H278267   4.784   1.028  12.602  1.4830  0.5934 -0.2356
18926TIP3   OH278268   1.208   4.824   4.466 -0.1633 -0.0166 -0.1039
18926TIP3    H178269   1.128   4.876   4.464 -0.3536 -0.2643  0.5822
18926TIP3    H278270   1.249   4.846   4.550  0.5811  0.2427 -0.5295
18927TIP3   OH278271   1.307   4.869  14.794  0.1159 -0.0388  0.2761
18927TIP3    H178272   1.327   4.963  14.785 -0.9535  0.1500 -0.3099
18927TIP3    H278273   1.262   4.846  14.713  3.3796 -1.9268 -1.1640
18928TIP3   OH278274   5.343   4.825  15.451  0.2428  0.0296 -0.2456
18928TIP3    H178275   5.306   4.801  15.536 -2.9542  0.2086 -1.4422
18928TIP3    H278276   5.378   4.743  15.416  0.4088 -0.3065  0.6814
18929TIP3   OH278277   3.579   6.741  11.688  0.7949 -0.0212 -0.1606
18929TIP3    H178278   3.490   6.707  11.694  1.3047 -1.3108  0.3386
18929TIP3    H278279   3.577   6.802  11.614 -0.5267  0.0666 -0.0663
18930TIP3   OH278280   3.776   0.053  11.462  0.2575 -0.2652 -0.6470
18930TIP3    H178281   3.794  -0.008  11.391  0.7411 -0.0363 -0.7243
18930TIP3    H278282   3.862   0.088  11.486  0.3937 -1.7005  1.2840
18931TIP3   OH278283   6.487   5.514  11.532  0.4701  0.0017  0.6761
18931TIP3    H178284   6.481   5.450  11.602  2.1680 -0.6486  0.2779
18931TIP3    H278285   6.435   5.477  11.461 -0.3322  0.1255  1.1897
18932TIP3   OH278286   5.262   4.112  14.277 -0.0707  0.3213  0.5126
18932TIP3    H178287   5.227   4.025  14.297  0.9898 -0.2512 -0.0516
18932TIP3    H278288   5.243   4.125  14.184 -3.1700  2.1274  1.2280
18933TIP3   OH278289   3.730   0.846   2.365  0.0146  0.2887 -0.7542
18933TIP3    H178290   3.752   0.938   2.379  2.7818 -0.4846  0.7860
18933TIP3    H278291   3.769   0.824   2.281  0.2871  0.2954 -0.6318
18934TIP3   OH278292   2.485   0.282  13.142  0.8176  0.2138  0.2302
18934TIP3    H178293   2.452   0.301  13.054  0.0100  0.5077  0.5887
18934TIP3    H278294   2.414   0.233  13.184  0.6586  1.2167  1.1604
18935TIP3   OH278295   4.450   6.520  14.564 -0.6892  0.5510  0.5189
18935TIP3    H178296   4.450   6.538  14.470 -0.0813  0.1256  0.4270
18935TIP3    H278297   4.405   6.436  14.572 -0.4058  0.4013  0.5630
18936TIP3   OH278298   4.224   0.732  13.613 -0.1045  0.3581 -0.7050
18936TIP3    H178299   4.235   0.827  13.618 -1.5705  0.5091  0.0278
18936TIP3    H278300   4.141   0.720  13.566  0.8141 -0.6111 -2.1541
18937TIP3   OH278301   0.317   5.589  15.539 -0.0718 -0.5901 -0.4180
18937TIP3    H178302   0.223   5.579  15.550  0.0441 -1.6534 -0.2585
18937TIP3    H278303   0.328   5.628  15.452 -0.6914  0.6006  0.0175
18938TIP3   OH278304   2.530   2.396   0.187 -0.0888 -0.9778 -0.1349
18938TIP3    H178305   2.598   2.455   0.153 -0.3203 -1.1272 -0.8757
18938TIP3    H278306   2.475   2.377   0.111 -2.0420  0.5906  0.7847
18939TIP3   OH278307   0.761   3.714   2.686 -0.0432 -0.1357 -0.3740
18939TIP3    H178308   0.817   3.667   2.623 -1.2089  0.7484 -2.1347
18939TIP3    H278309   0.757   3.655   2.762  1.2110 -1.3607 -1.2000
18940TIP3   OH278310   3.732   2.330  12.019  0.0863  0.3695 -0.4173
18940TIP3    H178311   3.788   2.273  11.966  1.5215  0.8875  0.4864
18940TIP3    H278312   3.740   2.416  11.978 -1.8989  0.0462 -1.6436
18941TIP3   OH278313   2.484   5.955   2.119 -0.1982 -0.5271 -0.1500
18941TIP3    H178314   2.545   5.999   2.060  0.5498 -0.5460  0.5942
18941TIP3    H278315   2.426   5.906   2.061  1.8894 -2.3307 -0.8223
18942TIP3   OH278316   5.780   3.870  12.629  0.0313 -0.1748  0.3898
18942TIP3    H178317   5.853   3.809  12.623 -0.2480 -0.4148 -0.7906
18942TIP3    H278318   5.703   3.819  12.604 -0.0639  0.8653 -1.7394
18943TIP3   OH278319   5.197   2.698  12.818 -0.8590  0.1099 -0.6008
18943TIP3    H178320   5.273   2.740  12.859 -0.8274 -0.5994  0.0754
18943TIP3    H278321   5.218   2.698  12.724 -0.5351  0.9377 -0.5385
18944TIP3   OH278322   6.371   4.330  16.585  0.0902 -0.3213 -0.2484
18944TIP3    H178323   6.299   4.277  16.549  0.5895 -1.5159  0.4408
18944TIP3    H278324   6.416   4.270  16.645 -0.3670  1.3927  1.9276
18945TIP3   OH278325   1.177   0.034  14.727  0.1860 -0.1760  0.0805
18945TIP3    H178326   1.270   0.051  14.714  0.4657 -1.4214  0.3319
18945TIP3    H278327   1.143   0.014  14.639  0.6670 -1.9800  0.2590
18946TIP3   OH278328   0.870   3.210   3.271 -0.4958  0.0104 -0.0897
18946TIP3    H178329   0.882   3.117   3.252  0.0138  0.2434 -0.9457
18946TIP3    H278330   0.957   3.248   3.262 -1.0038  0.8972 -1.6507
18947TIP3   OH278331   3.661   1.081  11.733 -0.3729 -0.6850 -0.1258
18947TIP3    H178332   3.589   1.136  11.764  0.5206  0.8787 -0.7106
18947TIP3    H278333   3.699   1.043  11.812 -0.1545  0.6555  0.4386
18948TIP3   OH278334   3.554   3.260  16.611 -0.3012  0.1428  0.4954
18948TIP3    H178335   3.621   3.228  16.550 -1.1874 -1.2341  0.1884
18948TIP3    H278336   3.589   3.239  16.698 -0.0571 -0.0231  0.3590
18949TIP3   OH278337   0.920   3.238   1.753  0.1597  0.0993  0.1424
18949TIP3    H178338   0.893   3.176   1.821 -1.0724  0.7586  0.2777
18949TIP3    H278339   0.865   3.315   1.767 -0.7605 -0.0730 -2.1476
18950TIP3   OH278340   3.656   1.444   2.529 -0.0202  0.4109 -0.0097
18950TIP3    H178341   3.694   1.527   2.500 -0.0658 -0.0128 -1.3370
18950TIP3    H278342   3.730   1.383   2.528 -0.2759  0.0981 -0.4924
18951TIP3   OH278343   6.158   5.278  10.857 -0.3300 -0.1970  0.0134
18951TIP3    H178344   6.073   5.312  10.886 -2.2650 -2.6235 -2.3127
18951TIP3    H278345   6.144   5.184  10.848  2.7806 -0.7410 -0.1151
18952TIP3   OH278346   2.309   5.431   5.084  0.1147 -0.1199 -0.3058
18952TIP3    H178347   2.294   5.337   5.080 -1.2579  0.0933 -0.8021
18952TIP3    H278348   2.261   5.460   5.161 -0.0822  0.2729 -0.5700
18953TIP3   OH278349   3.517   3.609  14.911 -0.1967  0.4114 -0.1182
18953TIP3    H178350   3.442   3.613  14.851 -0.6383  0.6927  0.4487
18953TIP3    H278351   3.533   3.515  14.922 -0.2168  0.3561 -0.5442
18954TIP3   OH278352   3.071   5.841  15.998 -0.3843  0.0169  0.0276
18954TIP3    H178353   2.978   5.819  15.997 -0.1786 -1.1039 -2.9624
18954TIP3    H278354   3.110   5.786  15.931  2.4319  0.6820  0.9750
18955TIP3   OH278355   1.897   6.824  16.572  0.7459 -0.7680 -0.0261
18955TIP3    H178356   1.814   6.798  16.611  2.0373 -1.9639  2.1373
18955TIP3    H278357   1.875   6.894  16.511 -1.5399  0.7131  2.3373
18956TIP3   OH278358   1.518   3.540   1.945  0.4956 -0.5439  0.1269
18956TIP3    H178359   1.545   3.480   2.014 -0.0476  1.2136  1.9784
18956TIP3    H278360   1.591   3.603   1.939  0.4872 -0.6091 -0.8453
18957TIP3   OH278361   4.779   1.386   4.934 -0.0801 -0.5509 -0.3937
18957TIP3    H178362   4.757   1.316   4.996 -3.3710 -1.6459 -2.5160
18957TIP3    H278363   4.864   1.362   4.899 -1.5994 -4.4137 -1.9909
18958TIP3   OH278364   3.663   5.669  11.145 -0.2137 -0.8121  0.4902
18958TIP3    H178365   3.736   5.619  11.181  0.1855  0.0768  0.9385
18958TIP3    H278366   3.664   5.752  11.193 -0.1147  0.1240 -1.0574
18959TIP3   OH278367   4.351   5.914  14.650 -0.1722 -0.0712 -0.2018
18959TIP3    H178368   4.445   5.931  14.650 -0.0713 -0.5932  0.3689
18959TIP3    H278369   4.342   5.826  14.612 -0.5720  0.6360 -1.8252
18960TIP3   OH278370   1.548   5.257   6.039  0.5257  0.0496  0.6599
18960TIP3    H178371   1.517   5.181   6.089 -0.8069  1.0527  1.4261
18960TIP3    H278372   1.509   5.332   6.083  1.6779  1.1884 -0.1836
18961TIP3   OH278373   1.994   0.115  12.937  0.3843 -0.0664 -0.4312
18961TIP3    H178374   1.902   0.092  12.940  0.5945 -0.8257  0.8270
18961TIP3    H278375   2.025   0.081  12.853 -0.1000 -1.3510 -0.1130
18962TIP3   OH278376   0.827   2.985   1.260  0.8054 -0.0294  0.2803
18962TIP3    H178377   0.864   2.900   1.235 -0.8046 -0.6299 -0.1881
18962TIP3    H278378   0.841   2.990   1.354  0.4195 -1.1102  0.4183
18963TIP3   OH278379   3.245   3.827  16.409  0.2701  0.3349  0.6205
18963TIP3    H178380   3.228   3.919  16.428 -2.6671  0.1098 -0.3396
18963TIP3    H278381   3.248   3.784  16.494  0.4438  1.1619  1.0309
18964TIP3   OH278382   5.694   2.799   0.924  0.2758  0.2838 -0.5023
18964TIP3    H178383   5.649   2.721   0.956 -0.2735  0.4521 -0.8425
18964TIP3    H278384   5.714   2.850   1.003 -0.6377  0.4689 -0.3788
18965TIP3   OH278385   3.643   2.021  15.915  0.1033 -0.6159 -0.4292
18965TIP3    H178386   3.678   1.965  15.985 -0.2199 -0.5582 -0.2164
18965TIP3    H278387   3.569   1.971  15.880 -1.1230  0.2875  0.7474
18966TIP3   OH278388   1.578   4.598   4.803 -0.5417 -0.2506  0.0173
18966TIP3    H178389   1.637   4.626   4.872 -0.7118  0.2177 -0.0288
18966TIP3    H278390   1.635   4.555   4.739 -0.3603 -0.5124  0.3492
18967TIP3   OH278391   1.690   6.685   5.980 -0.1332 -0.1508  0.2059
18967TIP3    H178392   1.662   6.630   6.053  0.4780  0.1562  0.6741
18967TIP3    H278393   1.782   6.704   5.997 -0.3023  0.9418 -0.0017
18968TIP3   OH278394   1.224   5.590  13.357 -0.3839  0.4267  0.9544
18968TIP3    H178395   1.265   5.668  13.394 -0.7202 -0.1161  2.5239
18968TIP3    H278396   1.141   5.581  13.403 -0.1523 -1.0985  1.1390
18969TIP3   OH278397   3.524   6.282   3.029 -0.5523  0.1527  0.7862
18969TIP3    H178398   3.509   6.373   3.005 -0.6305 -0.4174 -1.7077
18969TIP3    H278399   3.447   6.235   2.996  1.2168 -1.2692 -1.7914
18970TIP3   OH278400   2.818   5.033   1.029  0.0124  0.6725  0.4021
18970TIP3    H178401   2.890   4.976   1.001 -0.9900 -0.7642  0.6410
18970TIP3    H278402   2.854   5.081   1.104  0.6702 -0.1602  0.6369
18971TIP3   OH278403   1.788   3.434   5.721  0.2401  0.3057 -0.0213
18971TIP3    H178404   1.842   3.385   5.658  0.6076  0.6128  0.0494
18971TIP3    H278405   1.712   3.461   5.671 -0.8716 -1.8507  0.3689
18972TIP3   OH278406   2.057   0.937   3.395  0.1410  0.1382 -0.2355
18972TIP3    H178407   2.139   0.895   3.421  0.2994 -1.0985 -2.5016
18972TIP3    H278408   2.000   0.864   3.372 -1.2193  1.0421  0.1752
18973TIP3   OH278409   5.567   4.463   2.826 -0.4144  0.1810 -0.3336
18973TIP3    H178410   5.661   4.479   2.819 -0.3554 -0.7984 -3.2353
18973TIP3    H278411   5.533   4.539   2.873  1.6196  1.3527 -0.6361
18974TIP3   OH278412   4.701   0.641   0.132  0.3777 -0.3813 -0.1794
18974TIP3    H178413   4.610   0.621   0.109  0.1631 -0.4858  0.7160
18974TIP3    H278414   4.742   0.555   0.144 -0.4450 -0.4390  3.2923
18975TIP3   OH278415   4.443   5.830  11.928  0.1014 -0.2833 -0.3416
18975TIP3    H178416   4.415   5.782  12.005  1.9099 -1.0217 -0.0824
18975TIP3    H278417   4.509   5.892  11.960 -1.7240  2.0249 -0.7623
18976TIP3   OH278418   1.741   6.270  12.881  0.1020  0.5498 -0.2172
18976TIP3    H178419   1.781   6.336  12.938 -0.8399  1.7736 -0.9352
18976TIP3    H278420   1.650   6.298  12.871 -0.6832 -1.5449  0.4378
18977TIP3   OH278421   5.418   5.869   1.379  0.3494 -0.4691 -0.0820
18977TIP3    H178422   5.331   5.831   1.391 -1.1527  2.4911 -0.6516
18977TIP3    H278423   5.455   5.822   1.305 -1.3166 -0.9225 -0.6699
18978TIP3   OH278424   5.574   6.723   1.707  0.7445  0.4518  1.0498
18978TIP3    H178425   5.527   6.701   1.626  0.6520 -1.3870  1.5502
18978TIP3    H278426   5.522   6.793   1.747 -0.3415 -0.0145  0.5046
18979TIP3   OH278427   1.912   6.017  11.337 -0.0212 -0.4770 -0.0137
18979TIP3    H178428   1.927   6.014  11.242  1.7321  0.3197  0.2007
18979TIP3    H278429   1.950   5.936  11.370  0.7217 -0.0717  0.1510
18980TIP3   OH278430   5.106   0.982   1.720  0.4019 -0.0192 -0.0963
18980TIP3    H178431   5.016   0.951   1.708  0.2162 -0.1044  1.3231
18980TIP3    H278432   5.137   1.002   1.631 -0.9474 -0.1663 -0.6221
18981TIP3   OH278433   4.453   3.674   4.470 -0.4408  0.3482  0.3755
18981TIP3    H178434   4.396   3.691   4.545  0.4576 -0.7964  1.3515
18981TIP3    H278435   4.506   3.599   4.496 -0.3380 -0.3113 -1.5459
18982TIP3   OH278436   6.626   4.193   3.659  0.2869 -0.0118  0.2759
18982TIP3    H178437   6.584   4.126   3.605  0.4315 -0.2105  0.4089
18982TIP3    H278438   6.610   4.275   3.613 -0.3659 -0.0693  0.3976
18983TIP3   OH278439   1.125   1.072   4.887 -0.6204 -0.0181 -0.0862
18983TIP3    H178440   1.085   1.026   4.814 -0.0211 -0.3457 -0.2215
18983TIP3    H278441   1.061   1.065   4.958 -1.0669  0.0261 -0.4842
18984TIP3   OH278442   3.086   5.856  15.328 -0.2397 -0.5252  0.5001
18984TIP3    H178443   3.102   5.786  15.264 -2.3173 -1.1272  0.5944
18984TIP3    H278444   3.026   5.819  15.391 -0.3628  0.9477  1.3062
18985TIP3   OH278445   0.215   4.804   2.466 -0.8598  0.0537 -0.5554
18985TIP3    H178446   0.284   4.746   2.434 -1.3215  0.3869 -2.2520
18985TIP3    H278447   0.260   4.866   2.523  0.1398 -0.1215 -1.1359
18986TIP3   OH278448   2.802   0.814  17.138  0.2543  0.3938  0.3130
18986TIP3    H178449   2.714   0.817  17.176  0.8443  0.0893  1.7462
18986TIP3    H278450   2.823   0.721  17.134  1.2889  0.5255  1.8881
18987TIP3   OH278451   0.454   2.851  15.312 -0.7734 -0.1767 -0.2766
18987TIP3    H178452   0.384   2.786  15.319 -1.1465  0.1084 -1.1594
18987TIP3    H278453   0.533   2.804  15.340 -1.2581 -0.5947  0.4347
18988TIP3   OH278454   4.779   5.048   5.383  0.6624 -0.2198  0.0925
18988TIP3    H178455   4.834   5.054   5.461 -0.4041 -0.0825  0.8636
18988TIP3    H278456   4.705   5.107   5.402 -0.3362 -1.2801 -0.4072
18989TIP3   OH278457   3.445   3.760  14.527 -0.3284  0.3070 -0.1990
18989TIP3    H178458   3.436   3.693  14.459  1.3835  1.0495 -1.2073
18989TIP3    H278459   3.504   3.825  14.490  1.5169  0.2447  2.3606
18990TIP3   OH278460   6.223   5.041  11.499 -0.0414 -0.2765  0.2670
18990TIP3    H178461   6.207   4.961  11.550  1.6338 -1.0026 -0.2734
18990TIP3    H278462   6.268   5.099  11.559 -1.4798  0.3926  0.7358
18991TIP3   OH278463   3.331   4.317  16.451  0.3391 -0.1893  1.1861
18991TIP3    H178464   3.362   4.375  16.521  1.5898  0.7226 -0.0608
18991TIP3    H278465   3.388   4.337  16.377 -0.7747 -1.3198 -0.0207
18992TIP3   OH278466   3.247   0.156   3.359 -0.1785  0.6694  0.1991
18992TIP3    H178467   3.307   0.195   3.423 -0.8504 -0.5068  1.6022
18992TIP3    H278468   3.194   0.230   3.329  1.0147  1.4709  0.0003
18993TIP3   OH278469   1.902   2.496   3.441  0.1534 -0.8106 -0.2319
18993TIP3    H178470   1.906   2.491   3.536  1.3672  0.4651 -0.1839
18993TIP3    H278471   1.823   2.447   3.417 -0.7084 -0.3287  1.4960
18994TIP3   OH278472   1.813   4.194   5.313 -0.0720 -0.0022  0.8478
18994TIP3    H178473   1.775   4.121   5.362  1.0056 -1.4836 -0.4317
18994TIP3    H278474   1.740   4.230   5.263 -0.1445 -1.9130 -0.5106
18995TIP3   OH278475   5.825   3.618  13.595 -0.7563 -0.4530  0.3155
18995TIP3    H178476   5.804   3.687  13.658  0.2405 -1.4194  1.7762
18995TIP3    H278477   5.740   3.581  13.571 -1.2953  1.1506 -0.3905
18996TIP3   OH278478   0.693   5.811  11.378 -0.1809 -0.0122  1.0308
18996TIP3    H178479   0.682   5.872  11.305  0.0453 -0.1226  0.9021
18996TIP3    H278480   0.608   5.809  11.421  0.2219  1.5753  1.9665
18997TIP3   OH278481   4.158   3.621  15.391 -0.1080 -0.4858 -0.1981
18997TIP3    H178482   4.188   3.545  15.440  1.5965  1.1086  1.4494
18997TIP3    H278483   4.236   3.652  15.345  0.0729  1.8459  1.4812
18998TIP3   OH278484   5.859   1.484   1.050 -0.2823 -0.0845 -0.0448
18998TIP3    H178485   5.796   1.550   1.078 -0.9992 -0.7436 -0.0877
18998TIP3    H278486   5.806   1.411   1.018  0.4993 -0.3779 -0.7339
18999TIP3   OH278487   6.644   0.568  15.733  0.5791  0.1132 -0.2746
18999TIP3    H178488   6.696   0.508  15.679  0.4043 -0.0369 -0.2747
18999TIP3    H278489   6.699   0.585  15.809  0.7190  0.1210 -0.3770
19000TIP3   OH278490   2.525   3.562   1.359 -0.0990  0.9780  0.0666
19000TIP3    H178491   2.452   3.510   1.324  0.5842  0.0919 -0.1107
19000TIP3    H278492   2.498   3.653   1.348 -1.6120  0.6682  0.9714
19001TIP3   OH278493   0.706   0.402  13.031  0.1771  0.3233 -0.1693
19001TIP3    H178494   0.784   0.358  13.064 -1.2543 -2.7493 -0.4988
19001TIP3    H278495   0.660   0.431  13.110 -0.5465 -2.1109  0.4119
19002TIP3   OH278496   0.961   6.744  13.536 -0.7359 -0.4114 -0.6403
19002TIP3    H178497   1.048   6.780  13.516  0.3036 -2.4813 -0.1560
19002TIP3    H278498   0.976   6.685  13.609 -2.2338 -2.1523 -1.6570
19003TIP3   OH278499   0.727   4.565  15.145  0.0801 -0.0795  0.0094
19003TIP3    H178500   0.674   4.584  15.068  1.4439  0.1779 -0.8971
19003TIP3    H278501   0.817   4.566  15.113  0.5962 -1.4498  1.3008
19004TIP3   OH278502   5.968   4.007  14.035  0.5471  0.1641 -0.1865
19004TIP3    H178503   5.970   4.002  14.131  0.4197  0.2267 -0.1810
19004TIP3    H278504   5.885   4.050  14.015 -0.0488 -1.0462 -0.3872
19005TIP3   OH278505   0.645   6.481  14.461  0.0011  0.1382 -0.4807
19005TIP3    H178506   0.711   6.509  14.525  0.5416 -0.9340 -0.5360
19005TIP3    H278507   0.664   6.388  14.447 -2.1425 -0.4499  0.2172
19006TIP3   OH278508   4.263   2.262  14.186  0.4329  0.3191 -0.5203
19006TIP3    H178509   4.186   2.289  14.135  0.1411  1.9630  0.6942
19006TIP3    H278510   4.319   2.339  14.188  1.1822 -0.2248  0.2861
19007TIP3   OH278511   3.613   2.205   4.942 -0.6189  0.0254 -0.7243
19007TIP3    H178512   3.576   2.289   4.917  0.9196 -0.6832 -7.1168
19007TIP3    H278513   3.560   2.176   5.016 -3.5188  4.9325 -0.4937
19008TIP3   OH278514   1.414   2.578   1.171  0.4490 -0.1265  0.4938
19008TIP3    H178515   1.378   2.591   1.259  3.1907 -1.0571  1.8708
19008TIP3    H278516   1.482   2.645   1.163 -0.2191  0.4099 -1.2652
19009TIP3   OH278517   5.595   2.752   2.324 -0.4947  0.2655  0.2617
19009TIP3    H178518   5.618   2.767   2.232  1.7827 -1.5179  0.4371
19009TIP3    H278519   5.524   2.689   2.321  0.4873 -0.8631 -0.3298
19010TIP3   OH278520   1.964   3.140  16.653 -0.7323 -0.0541 -0.0499
19010TIP3    H178521   2.012   3.060  16.632 -0.3095  0.0843  0.3585
19010TIP3    H278522   1.966   3.144  16.749 -2.0201 -0.3188  0.0103
19011TIP3   OH278523   2.038   5.895   4.040 -0.1958 -0.0969  0.7689
19011TIP3    H178524   2.085   5.929   3.963  0.1665  0.9220  1.4185
19011TIP3    H278525   1.948   5.884   4.010  0.0612 -0.2790  0.0300
19012TIP3   OH278526   6.763   6.305   3.526  0.0220 -0.1819  0.5150
19012TIP3    H178527   6.858   6.302   3.541  0.4845  0.3443 -1.9355
19012TIP3    H278528   6.730   6.226   3.567  1.3277  0.2186  2.4653
19013TIP3   OH278529   2.560   6.650  17.024  0.7367 -0.3042  0.0605
19013TIP3    H178530   2.600   6.720  17.076 -0.4557  0.4400  0.0067
19013TIP3    H278531   2.518   6.593  17.088 -0.3786  0.3878 -0.0224
19014TIP3   OH278532   1.430   3.676  13.827  0.3893 -0.0531 -0.0427
19014TIP3    H178533   1.454   3.583  13.825 -0.4598 -0.3443  1.5586
19014TIP3    H278534   1.405   3.696  13.737  0.9552 -1.2733 -0.4937
19015TIP3   OH278535   3.845   1.887  12.201 -0.2383  0.3016  0.1228
19015TIP3    H178536   3.780   1.824  12.234  0.6080 -0.5046  0.2936
19015TIP3    H278537   3.804   1.926  12.124  0.3168 -2.5869 -1.7670
19016TIP3   OH278538   0.274   3.769   5.601 -0.0376  0.2457  1.0213
19016TIP3    H178539   0.268   3.786   5.507  1.0956 -1.2733  0.6468
19016TIP3    H278540   0.236   3.682   5.613  0.3150  0.2012  1.8897
19017TIP3   OH278541   5.389   3.171  16.156 -0.4620  0.0053  0.1325
19017TIP3    H178542   5.387   3.236  16.226  0.7547  1.3242 -1.0022
19017TIP3    H278543   5.466   3.117  16.175  0.4184  0.9557 -0.6766
19018TIP3   OH278544   0.019   4.686   3.716 -0.0855 -0.0143  0.2766
19018TIP3    H178545   0.010   4.781   3.708 -0.6688 -0.0566  0.3610
19018TIP3    H278546  -0.071   4.654   3.726  0.0094 -0.6652 -0.7172
19019TIP3   OH278547   4.815   1.508  16.908  0.4135  0.2738 -0.1498
19019TIP3    H178548   4.892   1.565  16.902  0.6556 -0.1134 -0.7866
19019TIP3    H278549   4.824   1.465  16.993  1.1272 -0.0879 -0.3983
19020TIP3   OH278550   3.322   4.151   5.241 -0.3547  0.5236 -0.0333
19020TIP3    H178551   3.264   4.082   5.271  0.9037 -0.0736  1.1367
19020TIP3    H278552   3.360   4.187   5.321  1.3615  0.4499 -0.7685
19021TIP3   OH278553   4.191   1.000  13.641  0.8507  0.3278 -0.5586
19021TIP3    H178554   4.221   1.081  13.599 -2.2542  2.3510  0.7702
19021TIP3    H278555   4.105   0.984  13.604  0.0697 -0.5363  1.4670
19022TIP3   OH278556   0.988   6.229  13.104  0.4160  0.0820 -0.3116
19022TIP3    H178557   0.935   6.307  13.118 -1.0392 -0.7401 -1.0490
19022TIP3    H278558   0.954   6.164  13.166  1.0858 -0.2120 -0.2424
19023TIP3   OH278559   3.919   5.056  14.778  0.6085  0.7442  0.4400
19023TIP3    H178560   3.877   5.133  14.740 -1.0528 -1.1332 -1.8509
19023TIP3    H278561   3.998   5.043  14.725  0.5260  0.5116  0.3699
19024TIP3   OH278562   1.120   2.661  15.819 -0.6874 -0.1793  0.6776
19024TIP3    H178563   1.100   2.737  15.764  0.4954 -0.3673 -0.0585
19024TIP3    H278564   1.149   2.594  15.757  0.0305 -0.6160  1.4644
19025TIP3   OH278565   0.761   2.695  13.445 -0.7490 -0.3900 -0.1987
19025TIP3    H178566   0.796   2.728  13.528  1.8477 -0.5945 -1.0990
19025TIP3    H278567   0.741   2.603  13.462  0.0595 -0.5128  0.1438
19026TIP3   OH278568   3.932   3.481  17.099 -0.6246  0.5030 -0.0984
19026TIP3    H178569   4.009   3.538  17.098  0.3642 -0.8071 -0.3690
19026TIP3    H278570   3.915   3.463  17.006 -0.9619  0.3761 -0.0124
19027TIP3   OH278571   0.006   4.040  13.071 -0.0700  0.7648  0.6092
19027TIP3    H178572  -0.081   4.080  13.069  0.3035  1.5406 -1.6556
19027TIP3    H278573  -0.006   3.963  13.128 -1.8719  1.5884  1.4490
19028TIP3   OH278574   0.633   4.577  10.996 -0.1262 -0.0176  0.0929
19028TIP3    H178575   0.719   4.590  10.958  0.3631 -1.3466  0.6913
19028TIP3    H278576   0.580   4.648  10.960  0.6247 -0.4715 -2.0278
19029TIP3   OH278577   0.075   0.941  15.728  0.7595 -0.5540 -0.3763
19029TIP3    H178578   0.011   0.918  15.795  0.2844 -0.6029 -0.8376
19029TIP3    H278579   0.126   0.861  15.715  0.7490 -0.5907 -0.1866
19030TIP3   OH278580   3.646   1.952   0.269  0.0848 -0.3798  0.1911
19030TIP3    H178581   3.592   2.028   0.290  1.6171  0.5024  1.1437
19030TIP3    H278582   3.736   1.985   0.273  0.7213 -1.7834 -1.3617
19031TIP3   OH278583   3.334   1.904  13.706  0.1545 -0.4238  0.1838
19031TIP3    H178584   3.328   1.808  13.701 -1.0473 -0.3606  0.0335
19031TIP3    H278585   3.400   1.920  13.773 -0.6641 -1.3846  1.2800
19032TIP3   OH278586   2.782   6.506  16.076 -0.1675 -0.5547 -0.2450
19032TIP3    H178587   2.838   6.430  16.093  1.3484  0.1218 -1.9926
19032TIP3    H278588   2.812   6.572  16.139 -0.1155 -0.7225 -0.0906
19033TIP3   OH278589   2.198   0.173  16.079 -0.7567 -0.3372  0.1619
19033TIP3    H178590   2.213   0.127  16.162  0.3524 -1.3444 -0.5727
19033TIP3    H278591   2.199   0.266  16.103 -0.5811 -0.6164  1.2953
19034TIP3   OH278592   1.560   0.401  16.048  0.4005  0.0427 -0.3978
19034TIP3    H178593   1.650   0.427  16.069  0.2339  0.4871 -0.2162
19034TIP3    H278594   1.546   0.322  16.101  0.6676 -0.0070 -0.3965
19035TIP3   OH278595   4.300   4.019   3.758 -0.6889  0.4092 -0.0551
19035TIP3    H178596   4.370   4.017   3.693 -1.1493 -0.2825 -0.5422
19035TIP3    H278597   4.345   4.034   3.841 -0.1620  2.0282 -0.6084
19036TIP3   OH278598   5.372   0.068   0.248  0.8218  0.0437  0.3764
19036TIP3    H178599   5.331   0.052   0.163 -0.8374  1.2235  0.9141
19036TIP3    H278600   5.429  -0.008   0.261  0.7942 -0.3657 -1.5877
19037TIP3   OH278601   3.670   2.060   5.694 -0.1712 -0.2504 -0.6345
19037TIP3    H178602   3.736   2.126   5.716  0.0310 -0.2850 -1.1071
19037TIP3    H278603   3.601   2.071   5.759  0.9511 -1.1584  0.7501
19038TIP3   OH278604   0.559   6.737  16.398  0.0039  0.2993 -0.0452
19038TIP3    H178605   0.622   6.690  16.343 -2.1051 -0.1238 -2.2910
19038TIP3    H278606   0.581   6.829  16.388  0.6856  0.1216 -0.2157
19039TIP3   OH278607   2.839   2.495   5.751 -0.6758 -0.0158 -0.3669
19039TIP3    H178608   2.753   2.494   5.708 -0.3444  2.0937 -1.1884
19039TIP3    H278609   2.824   2.542   5.833 -0.6337 -1.1567  0.3093
19040TIP3   OH278610   5.820   6.553   0.158  0.0061 -0.5311  0.0179
19040TIP3    H178611   5.851   6.634   0.116  2.6518 -1.0550  0.7770
19040TIP3    H278612   5.799   6.580   0.248 -0.1131 -0.5073 -0.0164
19041TIP3   OH278613   2.737   1.071  13.945 -0.0052  0.1876  0.4019
19041TIP3    H178614   2.749   1.011  14.018 -1.0236  0.2157  0.6057
19041TIP3    H278615   2.656   1.118  13.965  0.0763  0.6934 -0.3978
19042TIP3   OH278616   2.588   0.269   4.410 -0.4840  0.0915 -0.1918
19042TIP3    H178617   2.547   0.247   4.494  1.6775 -1.7950  0.4625
19042TIP3    H278618   2.590   0.187   4.362 -0.7797  0.9349 -1.7169
19043TIP3   OH278619   6.438   3.119  13.326 -0.0200 -0.0338 -0.0043
19043TIP3    H178620   6.388   3.087  13.251  1.6244  0.0395 -1.1936
19043TIP3    H278621   6.441   3.044  13.386  0.4835 -0.8395 -1.0061
19044TIP3   OH278622   2.239   3.219   4.934  0.2823  0.0141  0.0764
19044TIP3    H178623   2.271   3.138   4.975 -1.1041  0.8387  3.0979
19044TIP3    H278624   2.173   3.252   4.995 -0.2192  2.7177 -1.7488
19045TIP3   OH278625   1.006   0.199   5.256  0.2225 -0.1222 -0.0196
19045TIP3    H178626   0.953   0.154   5.322  0.3954  0.5438  0.5829
19045TIP3    H278627   1.087   0.221   5.300 -0.0689  1.2720 -0.1179
19046TIP3   OH278628   6.337   1.623  14.999 -0.3102  0.5234 -0.2336
19046TIP3    H178629   6.384   1.682  15.057  2.7331 -0.3804 -1.6086
19046TIP3    H278630   6.273   1.579  15.055  2.1028  0.0676  2.3385
19047TIP3   OH278631   5.686   6.237   3.865  0.1980 -0.1348 -1.2179
19047TIP3    H178632   5.602   6.269   3.897 -0.1269 -1.5605 -0.5359
19047TIP3    H278633   5.739   6.316   3.851  0.1767  0.6804  2.3232
19048TIP3   OH278634   6.010   3.336   5.486  0.0244  0.6339 -0.1190
19048TIP3    H178635   6.021   3.418   5.438 -2.2118  1.4359  0.5964
19048TIP3    H278636   6.039   3.356   5.575 -0.2681  0.5749 -0.0094
19049TIP3   OH278637   3.234   6.287   3.001  0.1170 -0.0215  0.5154
19049TIP3    H178638   3.230   6.234   3.080 -0.6669  0.8390  1.0788
19049TIP3    H278639   3.266   6.372   3.030  0.4095  0.1230 -0.1955
19050TIP3   OH278640   3.412   3.990  16.779  0.3639 -0.0498  0.0305
19050TIP3    H178641   3.322   3.959  16.780 -0.2040  1.4740  1.7546
19050TIP3    H278642   3.459   3.930  16.837  1.1106 -2.3614 -2.7613
19051TIP3   OH278643   4.309   6.770   2.950  0.1077  0.9151 -0.0022
19051TIP3    H178644   4.228   6.777   3.001  0.6670  0.9507  0.8996
19051TIP3    H278645   4.360   6.703   2.994  1.2056  1.9409  0.3343
19052TIP3   OH278646   3.196   1.903  12.154  0.3399  0.8180  0.0069
19052TIP3    H178647   3.115   1.950  12.172 -0.3540  1.0281 -3.1030
19052TIP3    H278648   3.180   1.814  12.187 -1.1045  0.8869 -0.4562
19053TIP3   OH278649   1.063   1.638  12.210 -0.1832  0.5946  0.1609
19053TIP3    H178650   1.008   1.707  12.248  1.3497  2.2251 -0.4581
19053TIP3    H278651   1.108   1.599  12.285  0.3846  1.5862  0.3401
19054TIP3   OH278652   3.801   6.168   1.383 -0.4155 -0.1781  0.3921
19054TIP3    H178653   3.811   6.237   1.449 -0.0492 -0.6362  0.8179
19054TIP3    H278654   3.737   6.204   1.321  1.5945  1.6441 -0.7983
19055TIP3   OH278655   4.686   1.715   0.040 -0.1258 -0.0298 -0.0149
19055TIP3    H178656   4.747   1.789   0.042  0.9222 -0.8703  0.7805
19055TIP3    H278657   4.622   1.735   0.109  0.2653  0.0499  0.3273
19056TIP3   OH278658   2.853   1.739   1.723  0.0263  0.5517 -0.1530
19056TIP3    H178659   2.793   1.674   1.761 -1.0709  0.9746 -1.0843
19056TIP3    H278660   2.806   1.772   1.647  0.1404  3.0911  0.7873
19057TIP3   OH278661   1.314   5.669  11.549  0.0293 -0.6789 -0.0786
19057TIP3    H178662   1.279   5.706  11.467 -0.6135  0.5018  0.7009
19057TIP3    H278663   1.347   5.745  11.597  1.7549 -1.5296  0.1447
19058TIP3   OH278664   2.178   1.840  12.588 -0.2874  0.0924  0.6148
19058TIP3    H178665   2.085   1.864  12.597 -0.0206  1.2950  0.3775
19058TIP3    H278666   2.206   1.884  12.508  0.3893 -0.6011  0.4635
19059TIP3   OH278667   2.877   3.085   0.387  0.2112 -0.4111 -0.1406
19059TIP3    H178668   2.857   2.995   0.414 -0.4917 -0.3174 -0.3088
19059TIP3    H278669   2.940   3.117   0.451  1.1662 -1.3242 -0.5973
19060TIP3   OH278670   4.306   6.436   3.478 -0.0875  0.0042  0.1441
19060TIP3    H178671   4.252   6.397   3.409 -1.1715 -0.2428  1.1100
19060TIP3    H278672   4.267   6.522   3.492 -0.0444 -0.0607  0.6488
19061TIP3   OH278673   5.192   1.254  14.471  0.0467 -0.1335  0.2505
19061TIP3    H178674   5.111   1.268  14.423  0.5201  0.0339 -0.5146
19061TIP3    H278675   5.173   1.283  14.561 -0.8057 -0.3362  0.1406
19062TIP3   OH278676   4.091   0.984  14.453  0.1557 -0.1908  0.2527
19062TIP3    H178677   4.067   1.041  14.527 -2.5730 -0.6563 -0.1472
19062TIP3    H278678   4.049   1.026  14.378 -0.8011 -1.9852 -0.2637
19063TIP3   OH278679   6.635   0.321   4.158 -0.4285  0.1416 -0.0518
19063TIP3    H178680   6.679   0.364   4.232  3.4366  0.1934 -2.1379
19063TIP3    H278681   6.546   0.357   4.160  0.2472  2.0668  3.0173
19064TIP3   OH278682   1.483   1.058   5.827 -0.3110 -0.4825 -0.0095
19064TIP3    H178683   1.549   1.126   5.836 -1.0720  0.4648 -1.3095
19064TIP3    H278684   1.459   1.035   5.917  2.3231 -1.4440  0.5398
19065TIP3   OH278685   0.435   4.797  11.828 -0.2419  0.3157 -0.6226
19065TIP3    H178686   0.414   4.798  11.921 -2.2704  0.6374 -1.0295
19065TIP3    H278687   0.384   4.869  11.791  1.1253  0.6929 -1.8934
19066TIP3   OH278688   5.906   6.696  11.316  0.0405 -0.4170  0.3421
19066TIP3    H178689   5.915   6.606  11.347 -0.2765 -0.4653  0.3035
19066TIP3    H278690   5.903   6.749  11.396  2.2244 -0.2246  0.3409
19067TIP3   OH278691   5.044   3.614  14.059  0.3199  0.0142  0.5902
19067TIP3    H178692   4.998   3.530  14.062 -0.8109  0.6380  1.5134
19067TIP3    H278693   5.127   3.594  14.015 -1.6659 -0.7419 -3.1737
19068TIP3   OH278694   5.057   2.804   5.015  0.0135 -0.3402  0.0822
19068TIP3    H178695   4.967   2.835   5.010 -0.1583 -0.1928  2.5937
19068TIP3    H278696   5.058   2.722   4.965 -1.3150  0.0312 -0.5793
19069TIP3   OH278697   0.277   2.930   3.735  0.4115  0.1105 -0.3539
19069TIP3    H178698   0.197   2.894   3.774  0.8370  0.3068  0.7471
19069TIP3    H278699   0.312   2.859   3.681  0.0118 -0.3146 -0.0567
19070TIP3   OH278700   1.109   4.530   0.031  0.2067  0.2042  0.2235
19070TIP3    H178701   1.024   4.486   0.022 -0.5658  1.5119  0.7209
19070TIP3    H278702   1.135   4.514   0.121 -0.7080  1.7509  0.8138
19071TIP3   OH278703   0.924   3.580  12.560  0.3393  0.3759 -0.2257
19071TIP3    H178704   0.933   3.650  12.496  0.3171  1.8593  1.3377
19071TIP3    H278705   0.957   3.617  12.642  2.8590 -2.2946  0.1337
19072TIP3   OH278706   1.036   5.783  10.995  0.2057  0.9174  0.3387
19072TIP3    H178707   0.997   5.791  10.908  0.1725 -0.0629  0.2514
19072TIP3    H278708   1.081   5.698  10.994  1.5525  1.5882  0.7541
19073TIP3   OH278709   6.435   1.998   3.763  0.5085  0.2021  0.3424
19073TIP3    H178710   6.530   1.992   3.763  0.5508 -0.1045  2.4609
19073TIP3    H278711   6.414   2.056   3.690  2.2953  0.0731 -0.3162
19074TIP3   OH278712   3.436   1.615   1.676 -0.3748  0.1541 -0.7956
19074TIP3    H178713   3.445   1.529   1.718 -1.7511 -0.2061 -1.1988
19074TIP3    H278714   3.479   1.604   1.591  1.1641  0.4647 -0.0874
19075TIP3   OH278715   0.974   2.187  11.204  0.0991 -0.2512  0.0575
19075TIP3    H178716   0.963   2.282  11.202 -0.8318 -0.3556 -0.4142
19075TIP3    H278717   1.064   2.174  11.233  0.1042  0.7645  0.5490
19076TIP3   OH278718   6.264   0.553  15.988  0.4226  0.2024 -0.1455
19076TIP3    H178719   6.297   0.525  15.902 -1.6942  0.0198 -0.9612
19076TIP3    H278720   6.169   0.546  15.980  0.1973 -1.1157  2.6930
19077TIP3   OH278721   1.877   1.722   2.087  0.4399 -0.0566  0.0266
19077TIP3    H178722   1.920   1.772   2.156 -0.2995  0.0096  0.4452
19077TIP3    H278723   1.799   1.773   2.064 -0.1289 -0.8139  0.2059
19078TIP3   OH278724   1.704   2.237  13.409 -0.6899 -0.1559  0.3571
19078TIP3    H178725   1.719   2.238  13.503 -2.3686  1.3405  0.6713
19078TIP3    H278726   1.609   2.232  13.400 -0.5012 -2.6759 -1.3298
19079TIP3   OH278727   3.792   5.821   1.069  0.5036 -0.6159 -0.1527
19079TIP3    H178728   3.704   5.785   1.072  0.0144  0.4365 -1.0838
19079TIP3    H278729   3.796   5.869   0.987  1.6860  0.0068  0.2389
19080TIP3   OH278730   2.334   2.741   4.604  0.0295 -0.0023 -0.0491
19080TIP3    H178731   2.428   2.757   4.608  0.5571 -2.5334 -0.2195
19080TIP3    H278732   2.310   2.762   4.514  0.3926  0.7936  0.0317
19081TIP3   OH278733   2.011   0.329   4.242 -0.1069 -0.2450 -0.0738
19081TIP3    H178734   2.059   0.386   4.302 -1.1801  0.6256 -0.0025
19081TIP3    H278735   2.011   0.377   4.159 -0.1801 -0.5881 -0.2726
19082TIP3   OH278736   3.504   0.464   2.830 -0.1863 -0.0519 -0.2489
19082TIP3    H178737   3.438   0.438   2.894  0.7551 -1.0968  0.3401
19082TIP3    H278738   3.554   0.384   2.813  0.5584  0.5673 -1.1234
19083TIP3   OH278739   5.480   1.290   3.553 -0.2460  0.3927  0.1975
19083TIP3    H178740   5.517   1.315   3.638 -1.4750  2.1567  0.2848
19083TIP3    H278741   5.407   1.351   3.541 -2.9236 -2.6027 -0.1174
19084TIP3   OH278742   4.736   0.849   1.430 -0.1394 -0.2281  0.2982
19084TIP3    H178743   4.770   0.787   1.494 -1.8326  0.0759  1.5638
19084TIP3    H278744   4.717   0.795   1.353  1.1304 -0.7492  0.3280
19085TIP3   OH278745   0.432   2.204  16.490  0.4910  0.3294 -0.2751
19085TIP3    H178746   0.458   2.287  16.530  0.2122  0.2455  0.0753
19085TIP3    H278747   0.343   2.188  16.522  1.1253 -0.9260  0.9687
19086TIP3   OH278748   1.600   3.311   4.318  0.5715 -0.0354 -0.3722
19086TIP3    H178749   1.530   3.376   4.332  0.2061 -0.7834  1.5855
19086TIP3    H278750   1.669   3.360   4.273 -0.2537  1.3442 -0.2096
19087TIP3   OH278751   4.780   3.609  11.355 -0.0859 -0.0148  1.2048
19087TIP3    H178752   4.762   3.662  11.277 -0.9258  0.6361  1.8215
19087TIP3    H278753   4.810   3.525  11.320 -2.0878 -0.3518  0.1342
19088TIP3   OH278754   4.517   0.217  10.901  0.4963  0.2616 -0.0010
19088TIP3    H178755   4.599   0.190  10.858 -1.1530 -0.8170 -2.7164
19088TIP3    H278756   4.498   0.147  10.963  1.2117  0.1051  0.0499
19089TIP3   OH278757   5.326   5.637   3.673  0.1308  0.0481 -0.0704
19089TIP3    H178758   5.375   5.586   3.608 -0.4170  0.7893 -1.1113
19089TIP3    H278759   5.340   5.728   3.647 -1.0708  0.3081  0.1292
19090TIP3   OH278760   6.359   1.700  11.747 -0.3841  0.3459  0.0833
19090TIP3    H178761   6.293   1.632  11.766 -3.2362  3.2883  1.7234
19090TIP3    H278762   6.354   1.712  11.652  1.0134 -2.3331 -0.4474
19091TIP3   OH278763   5.931   3.114   5.341 -0.2167  0.6343  0.4502
19091TIP3    H178764   5.867   3.066   5.395  0.4622 -0.7810  0.0523
19091TIP3    H278765   5.967   3.180   5.399  0.4773 -0.8398  1.7806
19092TIP3   OH278766   4.579   4.198  16.479  0.1546 -0.1986 -0.1678
19092TIP3    H178767   4.630   4.178  16.401  0.4376 -1.0276  0.2249
19092TIP3    H278768   4.531   4.278  16.456 -0.0794 -0.6555 -1.3264
19093TIP3   OH278769   5.985   1.113   0.242 -0.2394 -0.2876  0.8920
19093TIP3    H178770   5.942   1.039   0.200  0.8704  0.3365 -1.4875
19093TIP3    H278771   5.913   1.173   0.263 -0.8207 -0.3304 -0.7926
19094TIP3   OH278772   5.736   3.322   2.091 -0.1991 -0.3603 -0.4892
19094TIP3    H178773   5.823   3.308   2.054 -0.8048 -1.0119 -1.7203
19094TIP3    H278774   5.678   3.270   2.036 -1.2718 -0.5979  0.8221
19095TIP3   OH278775   6.435   3.734   5.565  0.6039 -0.3401 -0.4543
19095TIP3    H178776   6.449   3.647   5.528  1.3764 -0.0148 -0.9448
19095TIP3    H278777   6.512   3.785   5.539  0.4737  0.3140  0.3614
19096TIP3   OH278778   3.440   5.712  15.573  0.1481  0.3806 -0.1439
19096TIP3    H178779   3.431   5.674  15.660  0.4786  0.7576  0.0548
19096TIP3    H278780   3.424   5.638  15.513 -0.0493  0.1167  0.2317
19097TIP3   OH278781   6.162   1.314   5.029  0.6711 -0.8277 -0.1680
19097TIP3    H178782   6.135   1.263   5.105  0.7222  0.0111  0.4268
19097TIP3    H278783   6.203   1.392   5.066  1.2847 -0.7165 -1.0596
19098TIP3   OH278784   0.351   0.094  12.959 -0.5002 -0.1100  0.1729
19098TIP3    H178785   0.413   0.150  12.913 -1.0589  2.5308  2.4022
19098TIP3    H278786   0.266   0.115  12.919 -0.3127 -2.4438 -1.6858
19099TIP3   OH278787   1.234   3.075  12.416  0.4623  0.7053  0.1772
19099TIP3    H178788   1.250   3.016  12.342  1.4777 -1.4535  2.0109
19099TIP3    H278789   1.256   3.162  12.382  4.7008 -0.6109 -1.0908
19100TIP3   OH278790   0.402   0.934  15.282 -0.2080 -0.1291  0.0724
19100TIP3    H178791   0.312   0.920  15.314 -0.1571  1.2472  0.9290
19100TIP3    H278792   0.391   0.976  15.197 -0.4106  0.5846  0.4359
19101TIP3   OH278793   4.972   1.726   1.891 -0.4120 -0.0022  0.1414
19101TIP3    H178794   4.949   1.670   1.965 -1.2593 -1.4935 -1.1995
19101TIP3    H278795   4.891   1.769   1.866 -0.3488 -0.2504 -0.5160
19102TIP3   OH278796   2.603   4.857  12.844  0.0362 -0.0659 -0.2192
19102TIP3    H178797   2.668   4.791  12.868 -2.2944 -2.1644  0.7905
19102TIP3    H278798   2.585   4.840  12.752  1.6817  1.3307 -0.8599
19103TIP3   OH278799   4.331   4.478   3.269  0.0399  0.1289  0.0749
19103TIP3    H178800   4.375   4.513   3.192  1.5558 -0.4566  0.6426
19103TIP3    H278801   4.347   4.384   3.266 -0.3052  0.0365  0.8479
19104TIP3   OH278802   0.750   0.745  14.386  0.7884  0.5139 -0.5269
19104TIP3    H178803   0.757   0.833  14.423 -0.6446  0.8038 -0.9054
19104TIP3    H278804   0.826   0.698  14.422  1.4824  1.8402 -0.1917
19105TIP3   OH278805   4.936   4.208   6.776 -0.5151  0.0896  0.4688
19105TIP3    H178806   4.934   4.299   6.804  1.2896  0.5452 -0.7540
19105TIP3    H278807   4.878   4.205   6.701 -1.4218 -0.0330  1.1566
19106TIP3   OH278808   1.807   5.511  10.393  0.7625 -0.8398  0.2983
19106TIP3    H178809   1.757   5.429  10.391  0.1443 -0.4690  0.0807
19106TIP3    H278810   1.740   5.580  10.392  1.2410 -0.3255  1.4643
19107TIP3   OH278811   1.890   5.652  11.973  0.5463 -0.7726 -0.1662
19107TIP3    H178812   1.873   5.743  11.996  1.1297 -0.3289 -1.3738
19107TIP3    H278813   1.917   5.610  12.055 -0.8316 -0.1613  0.6392
19108TIP3   OH278814   4.083   1.420   5.370 -0.1489  0.3650 -0.1448
19108TIP3    H178815   4.109   1.491   5.428  0.1103  0.2307 -0.0933
19108TIP3    H278816   4.138   1.431   5.292 -1.7709  1.6619 -1.1847
19109TIP3   OH278817   2.786   6.595  12.753 -0.3592 -0.6968 -0.3409
19109TIP3    H178818   2.754   6.532  12.689 -1.7625 -0.1582 -0.2027
19109TIP3    H278819   2.812   6.671  12.701  0.1785 -0.9219 -0.4062
19110TIP3   OH278820   6.135   4.033  14.923  0.2237 -0.7763 -0.2051
19110TIP3    H178821   6.212   4.080  14.954 -0.2945 -1.6334  2.7696
19110TIP3    H278822   6.170   3.953  14.883  0.9344  0.1280 -1.4414
19111TIP3   OH278823   5.188   2.849  11.814  0.2069 -0.0312 -0.3703
19111TIP3    H178824   5.228   2.935  11.800 -1.3378  0.5157 -1.8408
19111TIP3    H278825   5.246   2.805  11.876  1.3726  1.8323 -0.0530
19112TIP3   OH278826   2.154   2.390   3.846  0.0853 -0.1556 -0.2125
19112TIP3    H178827   2.087   2.436   3.795 -0.8786 -1.9413 -0.6551
19112TIP3    H278828   2.104   2.341   3.911  1.1939  0.7347  1.3661
19113TIP3   OH278829   0.721   5.435  13.928 -0.3793 -0.3558 -0.0244
19113TIP3    H178830   0.715   5.473  14.015  0.8586 -1.1793  0.4439
19113TIP3    H278831   0.749   5.344  13.942 -1.0536 -0.7778 -1.2261
19114TIP3   OH278832   3.051   4.659  14.642  0.4683 -0.0953  0.0281
19114TIP3    H178833   3.092   4.719  14.705 -0.0950 -0.3869  0.6800
19114TIP3    H278834   3.124   4.623  14.593  1.1485 -1.4164  1.8830
19115TIP3   OH278835   0.167   2.675   3.002 -0.5756  0.6208  0.0581
19115TIP3    H178836   0.207   2.714   2.924  0.6495 -0.6891 -0.0046
19115TIP3    H278837   0.128   2.749   3.048  0.7164  1.7735 -0.6102
19116TIP3   OH278838   3.152   2.552  15.230 -0.4470 -0.0061  1.1042
19116TIP3    H178839   3.079   2.614  15.225  0.7262  1.3272 -0.9164
19116TIP3    H278840   3.216   2.595  15.286  0.5818  0.9249 -0.7090
19117TIP3   OH278841   4.689   5.747   0.606 -0.4621  0.6781  0.2279
19117TIP3    H178842   4.633   5.670   0.593  2.4573 -1.6576  0.2474
19117TIP3    H278843   4.748   5.722   0.677  0.3296  3.1538  0.5283
19118TIP3   OH278844   1.130   0.424  11.804  0.0254  0.0068  0.1749
19118TIP3    H178845   1.077   0.500  11.827 -0.3056  0.0185 -0.5907
19118TIP3    H278846   1.202   0.424  11.868 -0.7954  0.0814  1.1350
19119TIP3   OH278847   0.079   2.753   5.747  0.8316  0.0049  0.1481
19119TIP3    H178848  -0.015   2.749   5.734  0.5851  1.0377  1.3915
19119TIP3    H278849   0.109   2.663   5.735  0.0221 -0.0089 -2.3053
19120TIP3   OH278850   1.892   4.119  14.289  0.0180  0.1789 -0.6849
19120TIP3    H178851   1.940   4.200  14.270  0.3144 -0.2555 -1.9033
19120TIP3    H278852   1.812   4.126  14.237 -1.5050  1.0625  1.6165
19121TIP3   OH278853   5.476   0.218  17.004  0.4252  0.0441  0.0763
19121TIP3    H178854   5.381   0.217  17.016  0.5285 -1.1193  0.9269
19121TIP3    H278855   5.510   0.260  17.083  0.6527  0.1682 -0.0831
19122TIP3   OH278856   3.663   4.769   4.750 -0.3162 -0.2153 -0.0480
19122TIP3    H178857   3.726   4.722   4.803 -2.5767 -0.9993  2.1621
19122TIP3    H278858   3.578   4.750   4.790 -1.9848  0.9273 -2.7032
19123TIP3   OH278859   3.076   5.726  17.007  0.6774  0.0209  0.0066
19123TIP3    H178860   3.067   5.631  16.994  1.5417  0.0265 -0.7153
19123TIP3    H278861   3.061   5.738  17.101 -0.0619 -0.7466  0.0072
19124TIP3   OH278862   0.405   0.539   1.631 -0.2553 -0.3547 -0.0882
19124TIP3    H178863   0.479   0.528   1.691  0.9100  2.7138 -0.7707
19124TIP3    H278864   0.345   0.598   1.676 -0.6244 -0.0928 -0.8971
19125TIP3   OH278865   6.755   5.612   4.251  0.5624  0.0403  0.3866
19125TIP3    H178866   6.775   5.619   4.158 -0.1320 -1.5715  0.0920
19125TIP3    H278867   6.698   5.688   4.268 -2.7497 -1.7722 -1.5167
19126TIP3   OH278868   2.705   5.315  11.365 -0.1000  0.1793 -0.3792
19126TIP3    H178869   2.738   5.228  11.345  0.3033  0.1685  0.3420
19126TIP3    H278870   2.749   5.372  11.301 -0.2704 -0.1189 -0.7699
19127TIP3   OH278871   4.207   5.517  11.743  0.2461 -0.2740  0.4120
19127TIP3    H178872   4.210   5.584  11.811 -0.4649  0.3439 -0.1446
19127TIP3    H278873   4.231   5.436  11.788  4.0271  0.7377  0.5101
19128TIP3   OH278874   4.908   0.110  14.006  0.3276  0.8883  0.7527
19128TIP3    H178875   4.942   0.176  13.946 -0.6220  0.1233 -0.6731
19128TIP3    H278876   4.814   0.127  14.012 -0.2285 -1.1874 -0.8662
19129TIP3   OH278877   5.376   2.849   4.277 -0.0117 -0.4278 -0.5991
19129TIP3    H178878   5.396   2.882   4.190 -1.0659  1.0203 -0.3391
19129TIP3    H278879   5.342   2.761   4.262 -0.4606 -0.0864 -1.6898
19130TIP3   OH278880   2.402   4.794  15.103  0.1061  0.2551  0.2082
19130TIP3    H178881   2.329   4.807  15.042  0.4676  0.1679 -0.2493
19130TIP3    H278882   2.365   4.812  15.189 -0.3815  0.5058 -0.0504
19131TIP3   OH278883   4.916   6.359   1.820 -0.6087  0.3032  0.1639
19131TIP3    H178884   4.923   6.452   1.798  0.4041  0.5711  1.5402
19131TIP3    H278885   5.006   6.329   1.829 -0.8249 -1.3261 -2.0890
19132TIP3   OH278886   3.141   5.514   3.414 -0.1913  0.1642 -0.3981
19132TIP3    H178887   3.065   5.466   3.448  0.6280  1.1277  3.1934
19132TIP3    H278888   3.119   5.606   3.428  1.2985  0.4815 -0.0070
19133TIP3   OH278889   4.946   3.201  12.562  0.2269 -0.3331  0.5135
19133TIP3    H178890   4.931   3.126  12.504 -0.6129 -0.4033  0.8147
19133TIP3    H278891   4.869   3.256  12.550  1.7519  1.6248 -1.3865
19134TIP3   OH278892   5.788   4.612  14.726  0.0600  0.2301  0.0322
19134TIP3    H178893   5.706   4.639  14.768  0.8448  1.3608  0.9129
19134TIP3    H278894   5.840   4.576  14.798  0.2404 -0.7521 -0.5721
19135TIP3   OH278895   1.348   0.206  17.121 -0.2451  0.0508  0.1274
19135TIP3    H178896   1.370   0.224  17.029  0.6505  0.0128  0.3247
19135TIP3    H278897   1.430   0.220  17.168 -0.8690  0.7966  1.0307
19136TIP3   OH278898   5.210   1.105   3.674 -0.0816  0.1460 -0.0219
19136TIP3    H178899   5.252   1.019   3.675 -0.7605 -0.1976 -0.3066
19136TIP3    H278900   5.202   1.126   3.582 -2.2350 -0.6688 -0.0884
19137TIP3   OH278901   5.798   2.507  15.626 -0.3509 -0.4534  0.0502
19137TIP3    H178902   5.772   2.415  15.621  3.5701 -1.7177 -0.6364
19137TIP3    H278903   5.856   2.512  15.702 -0.3723  1.4513  0.0031
19138TIP3   OH278904   2.230   0.838  13.059  0.4314 -0.4894  0.0613
19138TIP3    H178905   2.279   0.883  12.990  0.5609 -0.9920 -0.1773
19138TIP3    H278906   2.250   0.887  13.139 -2.3488  2.2093 -0.7011
19139TIP3   OH278907   5.635   6.428  17.123 -0.2368 -0.3942  0.4343
19139TIP3    H178908   5.706   6.461  17.179 -0.8682  2.1444 -0.1166
19139TIP3    H278909   5.562   6.413  17.182 -1.0362  2.6763  0.3909
19140TIP3   OH278910   1.632   4.940  11.594  0.8544 -0.2245 -0.2495
19140TIP3    H178911   1.604   5.031  11.601 -1.8331 -0.9535 -0.1821
19140TIP3    H278912   1.676   4.922  11.677  1.5423  1.0264 -0.3191
19141TIP3   OH278913   5.534   5.860  16.442  0.4714  0.3143  0.0165
19141TIP3    H178914   5.622   5.825  16.458  0.7329  0.3090 -1.2943
19141TIP3    H278915   5.475   5.787  16.460  0.9155 -0.4176 -1.3049
19142TIP3   OH278916   5.922   3.304  10.940 -0.3147 -0.1440 -0.2386
19142TIP3    H178917   5.870   3.342  10.870  0.2976 -0.9974 -1.1868
19142TIP3    H278918   5.904   3.210  10.936  0.1892 -0.2790  0.3589
19143TIP3   OH278919   0.884   1.162   2.935 -0.0996  0.3053  0.3191
19143TIP3    H178920   0.869   1.255   2.920  1.3231  0.2894 -1.6191
19143TIP3    H278921   0.849   1.119   2.857  0.7421 -0.6116  0.4212
19144TIP3   OH278922   0.521   2.760  14.420  0.1734  0.2400  0.0829
19144TIP3    H178923   0.525   2.673  14.458 -1.1866  0.8187  1.6531
19144TIP3    H278924   0.444   2.759  14.364  0.4083  0.3119 -0.2469
19145TIP3   OH278925   2.934   0.342   1.221 -0.3384  0.1851 -0.2992
19145TIP3    H178926   2.965   0.399   1.291 -0.2572 -0.0362 -0.1549
19145TIP3    H278927   2.891   0.269   1.266  0.7566 -0.5738 -0.4238
19146TIP3   OH278928   5.475   4.779   3.244  0.7005  0.0533  0.1924
19146TIP3    H178929   5.507   4.865   3.217  2.2437 -0.6873 -0.4151
19146TIP3    H278930   5.553   4.732   3.274  0.4224 -2.1624 -2.2499
19147TIP3   OH278931   6.371   0.231   2.657 -0.7725 -0.4011  0.2688
19147TIP3    H178932   6.401   0.219   2.567  0.3740  2.0216  0.2352
19147TIP3    H278933   6.383   0.325   2.673 -3.8370 -0.1632  1.9416
19148TIP3   OH278934   3.898   1.686  11.455 -0.3322  0.1411  0.2340
19148TIP3    H178935   3.908   1.664  11.548  0.2260  0.8084  0.3399
19148TIP3    H278936   3.978   1.733  11.433 -0.5574  0.1747 -0.5383
19149TIP3   OH278937   4.488   6.010   1.044  0.1454 -0.1001 -0.0651
19149TIP3    H178938   4.444   5.949   0.985 -1.8986 -0.4299  1.6713
19149TIP3    H278939   4.474   5.973   1.131  0.8166  1.6845  0.8480
19150TIP3   OH278940   2.162   1.125   1.391  0.0679  0.0696  0.4033
19150TIP3    H178941   2.218   1.151   1.464  0.0563 -0.8585  0.7523
19150TIP3    H278942   2.177   1.031   1.381  0.8799  0.3477 -1.4729
19151TIP3   OH278943   6.425   2.806  15.347 -0.3436 -0.6446 -0.0751
19151TIP3    H178944   6.505   2.759  15.370  0.5031  1.2581  1.0337
19151TIP3    H278945   6.454   2.882  15.296 -1.2227  0.9864  1.7295
19152TIP3   OH278946   4.938   5.804  10.892 -0.1730 -0.5107 -0.2698
19152TIP3    H178947   4.946   5.726  10.947  0.4071 -1.7017 -1.9658
19152TIP3    H278948   5.025   5.843  10.894 -0.5652  0.3573  0.8994
19153TIP3   OH278949   6.427   4.496  12.204  0.1553 -0.5383 -0.4289
19153TIP3    H178950   6.338   4.514  12.175  0.1135 -0.4108 -0.2246
19153TIP3    H278951   6.419   4.422  12.265  0.1835 -0.5041 -0.3829
19154TIP3   OH278952   2.411   6.830  15.119  0.0765 -0.1061 -0.0629
19154TIP3    H178953   2.497   6.791  15.136  0.1754 -0.1913 -0.7345
19154TIP3    H278954   2.428   6.899  15.055 -0.6754 -1.6302 -1.9732
19155TIP3   OH278955   3.294   6.311   1.746 -0.0980 -0.2170 -0.7681
19155TIP3    H178956   3.204   6.310   1.713  0.0735 -0.2656 -1.2507
19155TIP3    H278957   3.348   6.306   1.667  0.3452  1.4690 -0.6042
19156TIP3   OH278958   1.229   0.688   6.837  0.2476  0.2850 -0.5104
19156TIP3    H178959   1.152   0.678   6.893  1.3689  2.3006  1.5728
19156TIP3    H278960   1.253   0.598   6.813  0.3065 -0.8388  3.1801
19157TIP3   OH278961   4.962   6.400   4.179  0.0275  0.1265 -0.0356
19157TIP3    H178962   4.908   6.465   4.224  0.0445 -0.2419  0.5375
19157TIP3    H278963   4.931   6.402   4.088  0.7716  1.6948 -0.2847
19158TIP3   OH278964   3.164   5.292  10.827  0.0468  0.0769 -0.0668
19158TIP3    H178965   3.198   5.379  10.849 -0.7200  0.3159  0.2248
19158TIP3    H278966   3.142   5.298  10.734 -3.5131  1.4741  0.7033
19159TIP3   OH278967   2.969   3.898   2.527  0.1333 -0.1282 -0.3491
19159TIP3    H178968   2.979   3.803   2.538  2.6556  0.0314 -0.6751
19159TIP3    H278969   2.987   3.934   2.614 -2.7347  0.0445  0.2765
19160TIP3   OH278970   2.392   2.287   4.116  0.5129  0.2820  0.1942
19160TIP3    H178971   2.464   2.315   4.060  1.7338 -0.0740  1.5242
19160TIP3    H278972   2.322   2.350   4.098  1.9387  2.0416  0.4963
19161TIP3   OH278973   5.243   4.642  13.643  0.6962  0.5477  0.0705
19161TIP3    H178974   5.258   4.570  13.582  0.3952  0.0741  0.5333
19161TIP3    H278975   5.191   4.706  13.594  1.7132  0.8582 -0.6175
19162TIP3   OH278976   4.354   3.723  12.276 -0.3449  1.0005  0.2464
19162TIP3    H178977   4.365   3.818  12.268  0.1416  1.0259  1.0697
19162TIP3    H278978   4.343   3.693  12.186 -2.2295  2.0187  0.0816
19163TIP3   OH278979   1.265   4.683   3.365 -0.4521 -0.5354  0.1776
19163TIP3    H178980   1.263   4.722   3.453  1.2289 -0.2260  0.1220
19163TIP3    H278981   1.272   4.589   3.381 -0.8170 -0.5330  0.3619
19164TIP3   OH278982   5.316   6.478  13.932  0.1197 -0.0810 -0.7233
19164TIP3    H178983   5.353   6.566  13.931  0.6818 -0.2683  0.8575
19164TIP3    H278984   5.265   6.474  14.013 -0.4726 -0.9802 -1.1241
19165TIP3   OH278985   1.093   0.500   3.352 -0.5270 -0.4159 -0.1289
19165TIP3    H178986   1.021   0.556   3.380 -0.5285  0.3107 -1.5142
19165TIP3    H278987   1.160   0.510   3.420 -0.2778  1.7766 -0.6296
19166TIP3   OH278988   5.634   4.521  15.566 -0.3725  0.0378  0.1632
19166TIP3    H178989   5.609   4.485  15.651 -0.4039  0.8657  0.5144
19166TIP3    H278990   5.675   4.448  15.520  0.0551 -0.3052  1.0687
19167TIP3   OH278991   6.125   2.393  13.292 -0.2901  0.2414  0.0790
19167TIP3    H178992   6.037   2.410  13.257  0.3703  0.4631 -1.5832
19167TIP3    H278993   6.127   2.298  13.307 -0.7395  0.2023 -0.0996
19168TIP3   OH278994   4.879   2.148   3.503  0.1402  0.0098  0.5106
19168TIP3    H178995   4.898   2.163   3.595  0.1172 -2.0129  0.8876
19168TIP3    H278996   4.961   2.168   3.457  0.4018  0.2000  1.0606
19169TIP3   OH278997   5.260   0.694  16.443 -0.2381  0.1623 -0.3640
19169TIP3    H178998   5.193   0.745  16.398  0.8012  0.9333 -1.1044
19169TIP3    H278999   5.279   0.622  16.383  1.9705  1.8233 -1.8222
19170TIP3   OH279000   5.144   5.795  13.192 -0.0560  0.1719  0.0406
19170TIP3    H179001   5.214   5.730  13.185  0.5805  0.6430  1.6895
19170TIP3    H279002   5.174   5.868  13.138  0.5097  0.1798  0.3573
19171TIP3   OH279003   0.061   2.283   4.966  0.5156  0.3037 -0.2001
19171TIP3    H179004   0.027   2.298   5.054  1.5042 -2.4709  0.7626
19171TIP3    H279005  -0.002   2.222   4.926  1.6032 -0.8005 -0.2797
19172TIP3   OH279006   5.679   5.890  11.162 -0.2435  0.4543  0.0851
19172TIP3    H179007   5.593   5.874  11.201  0.2286  0.7650  1.2971
19172TIP3    H279008   5.714   5.964  11.210  1.4111 -0.7246  0.7988
19173TIP3   OH279009   0.357   1.090  15.066 -0.6337  0.5866  0.0216
19173TIP3    H179010   0.409   1.170  15.058  0.3879 -0.1306 -0.7759
19173TIP3    H279011   0.279   1.108  15.014  0.2030  0.6068 -1.2778
19174TIP3   OH279012   3.301   1.360  12.331  0.5889  0.0062  0.0740
19174TIP3    H179013   3.376   1.309  12.299  1.6371  0.9851  0.8673
19174TIP3    H279014   3.239   1.294  12.361  0.2318 -0.9051 -2.4072
19175TIP3   OH279015   3.837   2.837  15.718  0.1393  0.3365 -0.3624
19175TIP3    H179016   3.814   2.901  15.650 -0.9176 -1.8111 -2.1312
19175TIP3    H279017   3.754   2.815  15.759 -0.3443 -3.0080 -2.7317
19176TIP3   OH279018   0.874   1.120   4.482  0.4667  0.1228 -0.0532
19176TIP3    H179019   0.943   1.185   4.488  0.6157 -0.0879  0.4897
19176TIP3    H279020   0.797   1.170   4.454  1.2294  0.0914 -2.5169
19177TIP3   OH279021   0.693   3.676  16.125  0.1304 -0.3386 -0.0046
19177TIP3    H179022   0.632   3.657  16.053 -0.4113 -1.5460  0.7376
19177TIP3    H279023   0.778   3.649  16.092  0.1909  0.8139 -0.8416
19178TIP3   OH279024   1.826   3.633   0.028 -0.0379  0.0213 -0.0601
19178TIP3    H179025   1.910   3.675   0.009 -0.6059  0.9152 -0.6429
19178TIP3    H279026   1.789   3.684   0.099 -0.6282  0.3915 -0.6187
19179TIP3   OH279027   4.012   5.936  14.147 -0.0196  0.2948 -0.2094
19179TIP3    H179028   4.022   5.845  14.175 -0.7413 -0.0473 -1.0323
19179TIP3    H279029   4.061   5.986  14.212  0.8559 -0.7198 -0.0502
19180TIP3   OH279030   0.740   5.314  11.219  0.4180 -0.0429  0.3293
19180TIP3    H179031   0.676   5.381  11.197 -0.0883 -0.4224  0.6199
19180TIP3    H279032   0.822   5.347  11.184  0.6337  1.7280  2.2781
19181TIP3   OH279033   5.691   2.750  13.600  0.1400  0.8677 -0.5112
19181TIP3    H179034   5.716   2.821  13.541 -0.0934  1.1243 -0.3059
19181TIP3    H279035   5.726   2.671  13.559  2.6352  1.3432  0.5084
19182TIP3   OH279036   5.631   0.412  11.349 -0.0260  0.3666 -0.5962
19182TIP3    H179037   5.585   0.405  11.433  2.4154  1.2892  0.9306
19182TIP3    H279038   5.650   0.321  11.325  0.5984  0.1232  0.7030
19183TIP3   OH279039   4.003   1.995  13.639 -0.5220  0.1740  0.0676
19183TIP3    H179040   3.994   1.901  13.652 -1.0248 -0.0858 -1.8310
19183TIP3    H279041   3.956   2.013  13.557  1.1832  1.7330 -0.6630
19184TIP3   OH279042   5.608   4.039   6.011  0.0763 -0.8113 -0.3626
19184TIP3    H179043   5.564   3.955   6.022 -0.7382 -0.8458 -3.2264
19184TIP3    H279044   5.700   4.017   6.000  0.0530 -1.1936  0.1427
19185TIP3   OH279045   5.788   3.951   4.134  0.2653 -0.5085  0.0535
19185TIP3    H179046   5.811   3.875   4.081 -0.1880 -0.4382 -0.2477
19185TIP3    H279047   5.799   3.921   4.224  1.5341 -0.4693 -0.0824
19186TIP3   OH279048   6.637   2.613   0.806  0.2474 -0.3063  0.1888
19186TIP3    H179049   6.628   2.707   0.788  0.1127 -0.1779  0.9067
19186TIP3    H279050   6.730   2.602   0.826 -0.0392  0.0076  1.8655
19187TIP3   OH279051   3.383   3.991   1.596  0.2093  0.3135 -0.0101
19187TIP3    H179052   3.403   4.085   1.598  0.0466  0.3707 -0.6445
19187TIP3    H279053   3.439   3.957   1.527  0.3526 -0.0791  0.2997
19188TIP3   OH279054   5.800   5.908   0.007 -0.3385 -0.0981 -0.7369
19188TIP3    H179055   5.794   5.994  -0.035  0.4500  0.1033 -0.4539
19188TIP3    H279056   5.845   5.853  -0.057 -0.5754 -0.2180 -0.8002
19189TIP3   OH279057   4.915   3.010   1.323  0.2183  0.1438  0.5678
19189TIP3    H179058   4.865   3.067   1.264  1.6477  0.3259 -0.5091
19189TIP3    H279059   5.003   3.048   1.325  0.9121 -1.3920  0.6961
19190TIP3   OH279060   3.466   3.738  15.714  0.0841  0.2612 -0.3029
19190TIP3    H179061   3.409   3.744  15.637  0.6284 -0.3931 -0.7732
19190TIP3    H279062   3.531   3.671  15.690 -0.9369 -1.4757  1.4796
19191TIP3   OH279063   6.182   6.538   5.999  0.2094  0.3793 -0.1586
19191TIP3    H179064   6.160   6.602   5.931  1.0687  0.9049  0.0475
19191TIP3    H279065   6.106   6.538   6.058  0.2098  1.2049 -0.1570
19192TIP3   OH279066   3.960   3.691   4.761 -0.1558 -0.1635 -0.6227
19192TIP3    H179067   3.930   3.601   4.752  0.0704 -0.4019  0.7344
19192TIP3    H279068   4.009   3.692   4.843 -0.7612  1.3507 -0.2391
19193TIP3   OH279069   6.570   4.860  15.015 -0.4455 -0.2015 -0.0888
19193TIP3    H179070   6.530   4.773  15.013  2.1854 -1.5264 -0.2166
19193TIP3    H279071   6.590   4.875  15.107 -0.1177 -0.1640 -0.1612
19194TIP3   OH279072   1.543   4.049   5.016  0.1931  0.0599 -0.1227
19194TIP3    H179073   1.564   3.957   5.001 -1.4823 -0.5137  0.8020
19194TIP3    H279074   1.448   4.052   5.015  0.0362  1.0537  3.7693
19195TIP3   OH279075   5.895   0.357   6.602  0.0560  0.4113 -0.1813
19195TIP3    H179076   5.800   0.352   6.596  0.0817  0.9739 -1.4559
19195TIP3    H279077   5.924   0.266   6.607 -0.6041  0.2618  2.2389
19196TIP3   OH279078   4.260   1.029  12.989 -0.0036  0.8655 -0.1475
19196TIP3    H179079   4.165   1.038  12.984 -0.4185 -2.1256  0.4528
19196TIP3    H279080   4.291   1.051  12.901 -1.5871 -0.6217 -1.1587
19197TIP3   OH279081   1.914   1.195  12.623 -0.6573  0.2835  0.1013
19197TIP3    H179082   2.003   1.174  12.650 -0.5733  0.6787  0.1335
19197TIP3    H279083   1.874   1.237  12.699  0.1207  2.9962 -0.8597
19198TIP3   OH279084   6.029   1.564  16.357  0.5952 -0.2455  0.7111
19198TIP3    H179085   5.968   1.537  16.426 -0.8624 -3.1987 -1.5121
19198TIP3    H279086   5.973   1.594  16.286  1.8116 -0.9528 -0.5899
19199TIP3   OH279087   0.702   5.437   3.413 -0.5533  0.2384  1.1510
19199TIP3    H179088   0.693   5.453   3.507 -0.1844 -0.8745  1.3891
19199TIP3    H279089   0.793   5.458   3.393 -1.3366  3.5411  0.3660
19200TIP3   OH279090   0.743   1.998  12.069  0.2417 -0.0801  0.1846
19200TIP3    H179091   0.762   2.088  12.043  2.6273 -0.9419 -1.3795
19200TIP3    H279092   0.810   1.977  12.134 -0.6069 -0.5989  0.9196
19201TIP3   OH279093   1.407   2.850  12.228  0.0235  0.7767 -0.5941
19201TIP3    H179094   1.456   2.906  12.289  0.3042  2.1445 -2.0003
19201TIP3    H279095   1.473   2.815  12.169 -0.2509 -0.5068 -0.1775
19202TIP3   OH279096   1.666   6.069  11.030  0.5429  0.1709  0.0900
19202TIP3    H179097   1.646   5.977  11.011 -0.0904  0.6521 -1.8479
19202TIP3    H279098   1.662   6.112  10.945 -0.2211  2.2063  1.0897
19203TIP3   OH279099   5.560   2.653  15.645 -0.0900 -0.3394  0.0230
19203TIP3    H179100   5.576   2.733  15.595  0.5624  0.1996  1.0723
19203TIP3    H279101   5.643   2.605  15.641  0.2104  0.0593  1.1953
19204TIP3   OH279102   2.092   4.888  14.541 -0.1775  0.1160  0.0508
19204TIP3    H179103   2.152   4.823  14.579 -2.1566 -1.8431  0.0080
19204TIP3    H279104   2.029   4.906  14.611 -0.8083  0.4911 -0.6011
19205TIP3   OH279105   6.012   1.224   2.634  0.0206  0.1341  0.1988
19205TIP3    H179106   6.099   1.247   2.600 -0.8964  1.3060 -1.4670
19205TIP3    H279107   5.982   1.302   2.680  0.0335 -0.4427  1.2138
19206TIP3   OH279108   1.158   0.733   2.947  0.1211  0.1029  0.5668
19206TIP3    H179109   1.242   0.713   2.907 -0.1084  0.9064 -0.3534
19206TIP3    H279110   1.157   0.829   2.955 -2.0854  0.5042 -2.6735
19207TIP3   OH279111   2.867   2.087   3.053  0.0266  0.0613 -0.4214
19207TIP3    H179112   2.921   2.048   3.121  0.5492  0.4659 -0.5977
19207TIP3    H279113   2.927   2.143   3.003 -0.9417  2.3022  0.7609
19208TIP3   OH279114   5.193   4.474   2.184  0.1100  0.4566  0.0737
19208TIP3    H179115   5.198   4.408   2.253 -1.5026  0.9633  0.7494
19208TIP3    H279116   5.279   4.516   2.183  1.4879 -2.2166 -1.0157
19209TIP3   OH279117   0.315   4.655  15.156  0.2337  0.2268  0.0457
19209TIP3    H179118   0.321   4.583  15.217 -0.7085  0.7809  0.8253
19209TIP3    H279119   0.225   4.650  15.122 -0.1437  1.5324  0.7828
19210TIP3   OH279120   5.139   0.928  15.291  0.2291  0.1303 -0.0966
19210TIP3    H179121   5.044   0.922  15.304  0.4144  0.1942  1.5592
19210TIP3    H279122   5.150   0.972  15.207 -1.1902 -1.9655 -1.4822
19211TIP3   OH279123   5.222   4.725  12.694 -0.5651  0.2502 -0.0749
19211TIP3    H179124   5.220   4.751  12.786  3.2815 -0.6314  0.4193
19211TIP3    H279125   5.153   4.659  12.687 -1.5566  0.9834  1.9196
19212TIP3   OH279126   2.135   4.221  13.242  0.3028  0.0141 -0.8973
19212TIP3    H179127   2.193   4.198  13.314  1.0822  0.5198 -1.3509
19212TIP3    H279128   2.194   4.241  13.169 -0.4370  0.6082 -1.3457
19213TIP3   OH279129   2.477   6.317  14.556 -0.0247 -0.4259 -0.3494
19213TIP3    H179130   2.459   6.408  14.580 -0.1016 -1.0208  2.1046
19213TIP3    H279131   2.572   6.315  14.541  0.0227  0.0039 -0.1263
19214TIP3   OH279132   0.860   1.446   4.290  0.1133  0.2548  0.0086
19214TIP3    H179133   0.853   1.363   4.244  3.0019 -0.2092  0.2433
19214TIP3    H279134   0.836   1.512   4.225  0.9234 -0.5870 -1.1774
19215TIP3   OH279135   4.810   0.125   3.179  0.1576 -0.0485 -0.1265
19215TIP3    H179136   4.720   0.156   3.192 -0.5872 -1.9945 -0.3872
19215TIP3    H279137   4.853   0.142   3.263 -0.1547  1.7178 -0.2766
19216TIP3   OH279138   1.055   3.724  12.035  0.1012  0.0934  0.5050
19216TIP3    H179139   1.046   3.698  11.944  0.0419 -1.5318  0.9479
19216TIP3    H279140   0.984   3.787  12.050  1.4359  2.1166 -1.1219
19217TIP3   OH279141   3.003   2.647  11.153  0.1205  0.3370  0.7310
19217TIP3    H179142   3.034   2.561  11.182 -2.4341 -1.2135 -0.7260
19217TIP3    H279143   3.070   2.677  11.091  1.0003 -0.6565  1.1744
19218TIP3   OH279144   3.603   2.230  13.327 -0.1553  0.8724  0.6822
19218TIP3    H179145   3.663   2.211  13.255 -1.2960  1.0203 -0.3469
19218TIP3    H279146   3.568   2.145  13.352 -1.7709  1.0538 -0.7881
19219TIP3   OH279147   2.625   4.379   5.930  0.5873 -0.1076 -0.2086
19219TIP3    H179148   2.570   4.439   5.881 -0.2616 -1.7397 -1.3440
19219TIP3    H279149   2.621   4.410   6.020 -0.7463  0.8477 -0.5753
19220TIP3   OH279150   1.540   4.156   0.310  0.1213 -0.3798 -0.1256
19220TIP3    H179151   1.448   4.141   0.287  0.7302 -2.4214 -1.5246
19220TIP3    H279152   1.588   4.091   0.258  2.2825  0.0228  1.2674
19221TIP3   OH279153   0.902   0.768   5.397  0.3974 -0.2054 -0.0836
19221TIP3    H179154   0.924   0.678   5.424 -3.3172 -1.0494  0.7231
19221TIP3    H279155   0.862   0.807   5.475 -0.4720  1.2061 -1.1825
19222TIP3   OH279156   1.283   2.243   1.808  0.1898 -0.4570  0.6691
19222TIP3    H179157   1.201   2.229   1.854 -0.2277 -0.3841 -0.0370
19222TIP3    H279158   1.277   2.333   1.776 -0.1650 -0.9569 -0.7509
19223TIP3   OH279159   1.956   0.056  15.684 -0.0384  0.1515 -0.4545
19223TIP3    H179160   1.870   0.085  15.654  0.8985  0.9283 -2.5693
19223TIP3    H279161   2.008   0.136  15.688  1.1081 -0.5464 -1.0921
19224TIP3   OH279162   5.506   2.431  13.126  0.1422  0.6465 -0.6122
19224TIP3    H179163   5.542   2.376  13.196  2.6321  1.3325 -1.2550
19224TIP3    H279164   5.472   2.368  13.062  0.7155 -0.0803 -0.2232
19225TIP3   OH279165   2.080   6.285  13.829 -0.7182 -0.7923  0.3797
19225TIP3    H179166   2.019   6.298  13.902 -1.5043  0.3369 -0.4323
19225TIP3    H279167   2.159   6.250  13.869 -0.0493  2.4904  2.2726
19226TIP3   OH279168   3.146   6.790  15.892  0.0381  0.0213  0.1338
19226TIP3    H179169   3.224   6.740  15.868  0.4105  0.1931  0.9670
19226TIP3    H279170   3.073   6.734  15.866  0.3933  0.3001 -1.6332
19227TIP3   OH279171   2.934   0.938  11.722  0.0990  0.4099 -0.3815
19227TIP3    H179172   2.997   1.003  11.691 -0.5119  1.1803 -0.0102
19227TIP3    H279173   2.911   0.967  11.810 -2.4798  1.4223 -1.3084
19228TIP3   OH279174   2.625   3.318   2.202  0.7977 -0.0869  0.5292
19228TIP3    H179175   2.555   3.307   2.267  0.8845 -1.8063  0.3739
19228TIP3    H279176   2.590   3.279   2.122  1.3702  0.4219  0.0207
19229TIP3   OH279177   1.656   2.524  14.571  0.0311  0.4441  0.3234
19229TIP3    H179178   1.581   2.568  14.611  1.1102  2.1704  0.5332
19229TIP3    H279179   1.710   2.497  14.646  0.2357  0.3458  0.1409
19230TIP3   OH279180   5.208   0.286  12.713 -0.3021  0.5262  0.2067
19230TIP3    H179181   5.232   0.369  12.673 -0.6232  0.3601 -0.3440
19230TIP3    H279182   5.113   0.289  12.720 -0.2605  0.4872  0.8166
19231TIP3   OH279183   0.357   1.918  16.057 -0.4146 -0.1746 -0.1268
19231TIP3    H179184   0.346   1.934  15.963  0.4088  2.2634  0.1492
19231TIP3    H279185   0.287   1.968  16.098  1.2192  1.5419  0.6988
19232TIP3   OH279186   5.812   4.375  10.272  0.3396 -0.6949  0.3722
19232TIP3    H179187   5.814   4.282  10.251  1.4264 -0.3705 -1.1591
19232TIP3    H279188   5.842   4.380  10.363  0.9773 -1.8017  0.2408
19233TIP3   OH279189   0.311   3.769  11.246 -0.0919  0.2883 -0.7241
19233TIP3    H179190   0.267   3.685  11.234  0.7336 -0.3549  0.5148
19233TIP3    H279191   0.380   3.770  11.180  0.6280 -0.5362  0.0000
19234TIP3   OH279192   5.901   1.718   4.223 -0.0800 -0.0882  0.4219
19234TIP3    H179193   5.981   1.668   4.235 -0.1718 -0.5464 -0.7513
19234TIP3    H279194   5.926   1.808   4.244  1.0491 -0.0351 -0.9987
19235TIP3   OH279195   4.481   4.933  14.330 -0.5395  0.0596 -0.5549
19235TIP3    H179196   4.500   4.966  14.243  1.7217 -1.9642 -0.9493
19235TIP3    H279197   4.562   4.888  14.356 -1.4063 -0.0257  2.2876
19236TIP3   OH279198   2.257   3.324  15.526  0.0669  0.1024 -0.7046
19236TIP3    H179199   2.232   3.233  15.512 -1.7853  0.8058 -2.4783
19236TIP3    H279200   2.232   3.369  15.445  2.8550  1.8600 -0.7575
19237TIP3   OH279201   2.799   6.178  12.116 -0.1381  0.2821 -0.5417
19237TIP3    H179202   2.754   6.100  12.147  1.7835 -0.8761 -0.4726
19237TIP3    H279203   2.877   6.144  12.071 -0.1522  2.1046 -2.0546
19238TIP3   OH279204   0.898   3.012  13.067 -0.1110  0.2882 -0.4889
19238TIP3    H179205   0.882   3.015  12.973 -0.0935  1.0053 -0.4799
19238TIP3    H279206   0.826   2.960  13.102 -0.5389  0.6431 -0.8224
19239TIP3   OH279207   2.993   3.973   5.112  0.3960  0.2763  0.5906
19239TIP3    H179208   2.904   3.984   5.144  0.3526 -0.5589  0.7762
19239TIP3    H279209   2.985   3.980   5.017 -0.1802 -1.6618  0.4582
19240TIP3   OH279210   3.268   1.507   3.512 -0.0160 -0.2300  0.2534
19240TIP3    H179211   3.225   1.565   3.574 -2.1887 -0.8587 -0.5717
19240TIP3    H279212   3.250   1.419   3.544 -1.8594 -0.6043 -1.5735
19241TIP3   OH279213   1.397   0.204  16.543  0.3181 -0.5214  0.1536
19241TIP3    H179214   1.438   0.118  16.557  0.6918 -0.2537  0.6975
19241TIP3    H279215   1.413   0.222  16.450 -0.0433 -1.1841 -0.0449
19242TIP3   OH279216   6.506   1.343  11.403  0.6635 -0.1173  0.5311
19242TIP3    H179217   6.490   1.340  11.497 -1.1074 -0.5904  0.2613
19242TIP3    H279218   6.440   1.284  11.366  1.9433 -0.6860 -0.9472
19243TIP3   OH279219   6.070   6.415  15.274 -0.7134  0.6173 -0.7155
19243TIP3    H179220   6.036   6.484  15.217 -1.2240  1.6644  0.7991
19243TIP3    H279221   6.013   6.340  15.257 -1.2278  1.0898 -1.1347
19244TIP3   OH279222   6.386   3.187  13.792  0.2196  0.6580 -0.2579
19244TIP3    H179223   6.466   3.210  13.745 -0.8538  1.2201 -1.8676
19244TIP3    H279224   6.322   3.169  13.724 -0.9878 -0.0319  0.9995
19245TIP3   OH279225   6.719   5.398   4.415  0.5460  0.1615 -0.2242
19245TIP3    H179226   6.629   5.413   4.444  0.6366 -1.2892  0.9169
19245TIP3    H279227   6.734   5.465   4.349 -1.3648  0.4474 -0.4268
19246TIP3   OH279228   6.760   1.219   0.548 -0.2818  0.1056 -0.2222
19246TIP3    H179229   6.666   1.230   0.562 -0.3337 -1.8263  1.2266
19246TIP3    H279230   6.800   1.284   0.605 -0.6596  2.6108 -2.5707
19247TIP3   OH279231   2.360   0.785   5.350 -0.7764 -0.4264 -0.8419
19247TIP3    H179232   2.305   0.731   5.406  1.4172  0.3116  2.3344
19247TIP3    H279233   2.307   0.863   5.333 -1.6174 -0.7780  0.0551
19248TIP3   OH279234   3.642   6.726   1.188  0.1429 -0.2154  0.2025
19248TIP3    H179235   3.682   6.769   1.113  0.4750 -1.2349 -0.2176
19248TIP3    H279236   3.586   6.793   1.227 -0.3530  0.2117 -1.1870
19249TIP3   OH279237   5.918   0.484  16.212 -0.0171  0.6119  0.0613
19249TIP3    H179238   5.941   0.514  16.300 -1.2518 -1.2200  1.0863
19249TIP3    H279239   5.823   0.474  16.215  0.2019 -2.4683 -0.4260
19250TIP3   OH279240   1.145   4.921   3.837 -0.7212  0.2671  0.1082
19250TIP3    H179241   1.097   4.999   3.808 -0.1621  0.9705  1.0387
19250TIP3    H279242   1.226   4.955   3.876 -0.1371 -0.8209 -0.0959
19251TIP3   OH279243   4.521   2.336   4.431  0.2035  0.0791 -0.2079
19251TIP3    H179244   4.515   2.284   4.350 -0.3169 -0.0012 -0.1204
19251TIP3    H279245   4.505   2.426   4.402  0.7970  0.1533 -0.3125
19252TIP3   OH279246   0.980   4.686  11.666  0.7040 -0.5292 -0.4496
19252TIP3    H179247   0.971   4.705  11.759  2.1857 -0.0109 -0.3924
19252TIP3    H279248   1.004   4.770  11.626  0.6865 -0.8718 -1.2120
19253TIP3   OH279249   6.442   3.024   3.217  0.2742  0.0296 -0.4244
19253TIP3    H179250   6.360   2.979   3.199  0.1581  0.5524 -1.2846
19253TIP3    H279251   6.473   3.054   3.131  2.3865 -1.8326 -0.4083
19254TIP3   OH279252   5.252   0.017  12.682  0.4437  0.4385 -0.4757
19254TIP3    H179253   5.246   0.013  12.778  1.1504  1.8840 -0.3410
19254TIP3    H279254   5.253   0.111  12.662  1.1050  0.1702 -1.8404
19255TIP3   OH279255   5.634   0.180   5.401  0.9144  0.1679  0.5437
19255TIP3    H179256   5.539   0.191   5.402  0.8751  0.2713 -0.9744
19255TIP3    H279257   5.649   0.091   5.431  0.3466  0.1893  0.9012
19256TIP3   OH279258   3.052   4.331  16.521 -0.1544  0.9234  0.5253
19256TIP3    H179259   3.144   4.308  16.505  0.0680  2.0349  0.1079
19256TIP3    H279260   3.056   4.401  16.586 -0.7760  0.3409  1.2143
19257TIP3   OH279261   6.071   2.989   0.358 -0.8805 -0.3068 -0.0551
19257TIP3    H179262   6.000   3.029   0.307 -1.0616 -0.3535  0.1605
19257TIP3    H279263   6.043   2.998   0.449  0.7806  2.4663  0.2827
19258TIP3   OH279264   1.625   4.672  13.973  0.2860 -0.6254 -0.4688
19258TIP3    H179265   1.633   4.615  14.049  1.0627 -1.5013 -1.1778
19258TIP3    H279266   1.691   4.639  13.911  0.3343  0.6666 -1.1415
19259TIP3   OH279267   6.300   0.967   2.396 -0.3768  0.4445  0.3389
19259TIP3    H179268   6.205   0.971   2.407 -0.3515  1.0277  0.4264
19259TIP3    H279269   6.330   1.052   2.429  0.0989  0.5658 -0.3811
19260TIP3   OH279270   0.364   0.597   4.525  0.2511  0.4135  0.4507
19260TIP3    H179271   0.366   0.505   4.550 -0.4314 -0.3086 -1.8892
19260TIP3    H279272   0.445   0.610   4.476  0.7388  1.3042  1.4627
19261TIP3   OH279273   1.808   3.537  13.989  0.7504 -0.2745 -0.2197
19261TIP3    H179274   1.776   3.575  13.907  1.0901  0.5770  0.0282
19261TIP3    H279275   1.729   3.520  14.040  0.5828  0.0662 -0.3579
19262TIP3   OH279276   4.267   3.896   3.316  0.6486  0.3955 -0.4748
19262TIP3    H179277   4.197   3.942   3.269  0.3008  0.2191 -0.1325
19262TIP3    H279278   4.222   3.844   3.382  1.0052 -0.8357 -1.1844
19263TIP3   OH279279   3.280   5.844  11.517 -0.0832  0.1145  0.0235
19263TIP3    H179280   3.340   5.790  11.569 -0.6133  1.0635  1.6791
19263TIP3    H279281   3.226   5.780  11.469  0.8596 -0.7721  0.1059
19264TIP3   OH279282   2.115   3.309  14.233 -0.0170  0.4542 -0.6656
19264TIP3    H179283   2.100   3.283  14.142  2.6323 -0.0620 -1.0250
19264TIP3    H279284   2.167   3.237  14.269 -1.9248  0.1089  1.6341
19265TIP3   OH279285   3.574   4.595   6.536  0.0836 -0.0123  0.0265
19265TIP3    H179286   3.631   4.527   6.501 -2.3613 -2.5075  0.5292
19265TIP3    H279287   3.507   4.608   6.469 -0.8223  0.1095  0.9232
19266TIP3   OH279288   3.239   3.293   3.629 -0.2430  0.1528 -0.7182
19266TIP3    H179289   3.268   3.384   3.643  0.2160 -0.1521  0.4399
19266TIP3    H279290   3.225   3.259   3.717 -0.6870 -0.8237 -1.1570
19267TIP3   OH279291   3.735   5.617  13.023 -0.0051 -0.0291  0.1892
19267TIP3    H179292   3.669   5.547  13.028 -2.0260  1.8049  0.4664
19267TIP3    H279293   3.796   5.597  13.094 -1.4144 -0.6714  1.2724
19268TIP3   OH279294   6.230   6.354  15.018  0.1181 -0.0107  0.1481
19268TIP3    H179295   6.150   6.402  14.998  0.0114 -0.1102  0.3350
19268TIP3    H279296   6.277   6.410  15.079 -0.0756 -0.2087  0.4820
19269TIP3   OH279297   6.370   3.749  14.047 -0.0570 -0.6306  0.2417
19269TIP3    H179298   6.333   3.824  14.000  0.5310 -0.1219  0.5764
19269TIP3    H279299   6.360   3.772  14.140 -0.9669 -1.5077  0.3777
19270TIP3   OH279300   5.290   2.807  12.072  0.1681 -0.1561 -0.5405
19270TIP3    H179301   5.336   2.890  12.084  0.8794 -0.4383 -1.1919
19270TIP3    H279302   5.352   2.741  12.105  0.4606 -0.5876 -1.8977
19271TIP3   OH279303   1.473   0.926   4.764  0.0380 -0.1390  0.2138
19271TIP3    H179304   1.564   0.927   4.792  0.3356 -0.2496 -0.7057
19271TIP3    H279305   1.474   0.966   4.677 -0.5474 -1.5234 -0.4574
19272TIP3   OH279306   4.554   6.517   1.957 -0.0342  0.1934  0.1960
19272TIP3    H179307   4.630   6.509   2.016  1.3005  0.8735 -1.3669
19272TIP3    H279308   4.573   6.594   1.903 -0.5260 -1.1654 -2.0459
19273TIP3   OH279309   0.116   4.337  15.701  0.2387 -0.1431  0.9003
19273TIP3    H179310   0.102   4.410  15.641 -1.7076  0.3418  1.8783
19273TIP3    H279311   0.120   4.260  15.643 -0.7831  0.4027  0.0697
19274TIP3   OH279312   5.808   1.684   1.616  0.0928 -0.1504  0.4507
19274TIP3    H179313   5.782   1.593   1.631  0.2151 -0.0615  1.2516
19274TIP3    H279314   5.904   1.682   1.611  0.3344  0.2702  3.2552
19275TIP3   OH279315   1.888   0.235   4.544 -0.1188  0.7925  0.4709
19275TIP3    H179316   1.873   0.192   4.461 -1.0438  1.0085  0.5119
19275TIP3    H279317   1.983   0.239   4.553  0.0296 -2.0233  0.8907
19276TIP3   OH279318   5.106   2.404   2.496  0.0497 -0.2247  0.5809
19276TIP3    H179319   5.023   2.383   2.453  0.5759  0.7135 -1.0136
19276TIP3    H279320   5.171   2.354   2.447  0.5483 -0.0614  1.0734
19277TIP3   OH279321   3.440   4.028  12.798  0.1205  0.2869  0.8220
19277TIP3    H179322   3.408   4.115  12.822  0.9444  0.2908  2.0222
19277TIP3    H279323   3.364   3.971  12.805 -0.1936  0.7346  1.0905
19278TIP3   OH279324   0.322   4.429  16.977 -0.2704  0.1581 -0.4671
19278TIP3    H179325   0.359   4.347  16.945  0.0739 -0.1738  0.7304
19278TIP3    H279326   0.291   4.409  17.065 -0.5132  1.2233 -0.2907
19279TIP3   OH279327   4.763   4.127   4.929  0.7597  0.4531  0.7679
19279TIP3    H179328   4.794   4.099   4.843 -1.0357  0.2310  0.1418
19279TIP3    H279329   4.782   4.054   4.987  1.0188  0.1684  0.3264
19280TIP3   OH279330   2.637   5.653   2.714 -0.0821  0.4569  0.1907
19280TIP3    H179331   2.732   5.665   2.720 -0.1747  0.9452  0.7697
19280TIP3    H279332   2.617   5.587   2.779 -0.1683  0.5156  0.2236
19281TIP3   OH279333   6.210   0.354   1.808 -0.1131  0.2298  0.1231
19281TIP3    H179334   6.231   0.425   1.747  2.3010  0.7051  1.3291
19281TIP3    H279335   6.199   0.277   1.754  0.8239  0.8533 -0.9967
19282TIP3   OH279336   4.552   5.247   1.992 -0.2016 -0.4734 -0.3704
19282TIP3    H179337   4.618   5.178   1.994  0.0149 -0.2745 -0.5590
19282TIP3    H279338   4.502   5.230   1.912  0.2773 -0.0227 -0.7713
19283TIP3   OH279339   3.482   0.997   4.431 -0.1264 -0.4065  0.2054
19283TIP3    H179340   3.387   1.008   4.432 -0.1255 -0.4164  1.1435
19283TIP3    H279341   3.517   1.083   4.454  0.1319 -0.1571 -1.0350
19284TIP3   OH279342   3.009   1.193   3.399 -0.1698 -0.3715 -0.3144
19284TIP3    H179343   2.940   1.128   3.380 -0.8640  0.5748 -1.1448
19284TIP3    H279344   3.055   1.204   3.316  2.3249 -2.4306  0.6710
19285TIP3   OH279345   6.437   6.011   6.168 -0.0046 -0.2741  0.0260
19285TIP3    H179346   6.497   5.974   6.232 -1.1167 -0.7293  0.8506
19285TIP3    H279347   6.392   5.935   6.131 -0.2125  0.0648 -0.4198
19286TIP3   OH279348   6.125   4.487  13.671 -0.0079 -0.5475  0.0334
19286TIP3    H179349   6.107   4.532  13.589 -0.0787  1.4999  1.0975
19286TIP3    H279350   6.219   4.500  13.685  0.5794 -3.1481 -0.9362
19287TIP3   OH279351   0.569   5.674   3.960 -0.3169  0.0812  0.1127
19287TIP3    H179352   0.509   5.699   3.890 -0.1073 -0.4231 -0.2518
19287TIP3    H279353   0.517   5.682   4.040 -0.1782  1.9804  0.0670
19288TIP3   OH279354   2.846   0.307   3.930 -0.2107 -0.2201  0.1746
19288TIP3    H179355   2.861   0.243   3.861  1.1378 -0.2612  0.4702
19288TIP3    H279356   2.848   0.256   4.011  1.0038  0.1695  0.4206
19289TIP3   OH279357   0.293   0.912  14.079  0.3485 -0.0262 -0.1215
19289TIP3    H179358   0.328   0.955  14.157  0.9445 -1.2851  0.3387
19289TIP3    H279359   0.199   0.929  14.083  0.4770  0.6251  0.4096
19290TIP3   OH279360   5.782   5.608   0.146 -0.2365  0.0583  0.1172
19290TIP3    H179361   5.727   5.624   0.068 -0.3174  0.4827  0.2577
19290TIP3    H279362   5.869   5.639   0.121  0.1631 -1.3836 -0.4020
19291TIP3   OH279363   3.524   6.058   5.634  0.3617 -0.1309  0.3462
19291TIP3    H179364   3.517   6.125   5.702  0.1739 -0.0423  0.2408
19291TIP3    H279365   3.547   6.106   5.554 -0.9277 -0.0339  0.0087
19292TIP3   OH279366   2.709   6.535  11.707 -0.0994 -0.3303 -0.7093
19292TIP3    H179367   2.758   6.454  11.721  3.5297  1.8434  0.4503
19292TIP3    H279368   2.724   6.557  11.615  0.4327 -0.0774 -0.5627
19293TIP3   OH279369   4.317   1.670   2.699 -0.5976  0.6928  0.2196
19293TIP3    H179370   4.275   1.586   2.679 -3.4175  2.4419 -2.0068
19293TIP3    H279371   4.401   1.667   2.652 -0.5628 -0.9086  0.3383
19294TIP3   OH279372   6.799   2.087  10.382  0.3672  0.3996 -0.5877
19294TIP3    H179373   6.805   2.040  10.466 -0.5589  0.7737 -0.3014
19294TIP3    H279374   6.795   2.179  10.407  2.1641  0.6685 -1.1475
19295TIP3   OH279375   1.247   5.218   2.822  0.0219  0.0336  0.5488
19295TIP3    H179376   1.340   5.205   2.803 -0.0267 -0.5194  0.6768
19295TIP3    H279377   1.209   5.242   2.737 -0.0012 -1.3673  0.1403
19296TIP3   OH279378   1.409   2.921  15.088  0.0403 -0.6424  0.5589
19296TIP3    H179379   1.485   2.908  15.031  1.1892 -0.3923  1.9636
19296TIP3    H279380   1.363   2.996  15.050  1.1227 -0.0956  0.2794
19297TIP3   OH279381   0.270   1.014  12.681 -0.4048 -0.1025 -0.6684
19297TIP3    H179382   0.193   1.037  12.733 -0.1927 -0.0932 -0.3551
19297TIP3    H279383   0.342   1.060  12.723 -0.0894 -0.7857 -0.4426
19298TIP3   OH279384   0.696   1.184   0.163  0.3346  0.6363 -0.2043
19298TIP3    H179385   0.741   1.228   0.236  0.3660  3.3555 -1.7289
19298TIP3    H279386   0.765   1.136   0.118  0.5417 -0.0425  0.7905
19299TIP3   OH279387   3.997   6.564   2.775 -0.0252 -0.2158 -0.3663
19299TIP3    H179388   4.031   6.651   2.753  2.0568 -0.2405  2.2741
19299TIP3    H279389   4.046   6.504   2.720  0.0756  0.1442 -0.6705
19300TIP3   OH279390   0.636   3.416  11.631 -0.5409 -0.3099 -0.2249
19300TIP3    H179391   0.706   3.471  11.595 -1.3713  1.4671  0.7155
19300TIP3    H279392   0.567   3.421  11.565 -0.4147 -0.6713 -0.3839
19301TIP3   OH279393   5.451   5.677   0.837 -0.7145 -0.3875  0.4273
19301TIP3    H179394   5.542   5.647   0.847  0.4009  1.5554 -2.4529
19301TIP3    H279395   5.450   5.764   0.876 -1.2885 -0.3082  0.2454
19302TIP3   OH279396   0.193   6.380   3.608 -0.1591  0.2890  1.0419
19302TIP3    H179397   0.252   6.377   3.683 -0.1254  0.1120  1.0072
19302TIP3    H279398   0.241   6.336   3.538 -0.7569 -0.7932  1.3002
19303TIP3   OH279399   6.293   3.500   0.599 -0.0599  0.1479  0.6583
19303TIP3    H179400   6.243   3.422   0.626 -0.4471  0.0417 -0.3468
19303TIP3    H279401   6.267   3.515   0.508  1.3667  0.3855  0.2678
19304TIP3   OH279402   2.365   1.147   1.833 -0.4425 -0.5629  0.3240
19304TIP3    H179403   2.388   1.057   1.855 -0.2289 -0.2249  1.6270
19304TIP3    H279404   2.304   1.173   1.903  0.6400  0.7596  0.8237
19305TIP3   OH279405   2.162   5.259   3.479  0.3629  0.4135 -0.1850
19305TIP3    H179406   2.194   5.323   3.542  0.0644  0.5419 -0.1638
19305TIP3    H279407   2.108   5.310   3.419  1.0695  0.3929 -0.8598
19306TIP3   OH279408   5.526   1.047   2.915 -0.0844 -0.3268 -0.2738
19306TIP3    H179409   5.479   1.127   2.891  1.0330  0.4718  0.0980
19306TIP3    H279410   5.507   0.985   2.844 -0.0650  0.6503 -1.1564
19307TIP3   OH279411   2.827   2.863   6.349  0.0485 -0.4048  0.1481
19307TIP3    H179412   2.835   2.772   6.378 -0.0211 -0.4121  0.1443
19307TIP3    H279413   2.784   2.908   6.422  1.9290  0.0701  1.0315
19308TIP3   OH279414   1.388   2.416  15.711 -0.0786  0.4513 -0.8854
19308TIP3    H179415   1.451   2.455  15.772 -1.8528  2.1255 -0.0134
19308TIP3    H279416   1.376   2.326  15.743  1.0171  0.4530 -0.4247
19309TIP3   OH279417   2.406   4.901   2.686 -0.2146 -0.0190 -0.0862
19309TIP3    H179418   2.442   4.851   2.614  1.3046 -0.9520  1.2506
19309TIP3    H279419   2.481   4.917   2.744 -1.1604  1.6308  0.7657
19310TIP3   OH279420   5.186   5.852   2.107  0.1380 -0.2157 -0.3373
19310TIP3    H179421   5.243   5.903   2.165 -0.4616  0.8921 -0.7097
19310TIP3    H279422   5.110   5.908   2.092 -1.1651 -1.7112  0.2800
19311TIP3   OH279423   0.641   1.907  15.722  0.3112 -0.0185 -0.2659
19311TIP3    H179424   0.599   1.822  15.709 -0.9690  0.6797 -0.9384
19311TIP3    H279425   0.729   1.896  15.688 -0.0672 -0.8833 -0.9956
19312TIP3   OH279426   2.945   1.024   3.139 -0.5943 -0.6708  0.0736
19312TIP3    H179427   2.962   1.114   3.112  0.7462 -1.0639 -0.5150
19312TIP3    H279428   3.032   0.989   3.159 -0.9537 -2.1765 -0.8480
19313TIP3   OH279429   6.295   3.438  11.186 -0.4050  0.1174  0.4215
19313TIP3    H179430   6.224   3.489  11.223 -1.1464 -0.6735  0.1213
19313TIP3    H279431   6.258   3.398  11.107  1.2113  2.0630 -1.4728
19314TIP3   OH279432   1.221   6.826  13.476 -0.1533  0.0182  0.1604
19314TIP3    H179433   1.211   6.797  13.385 -1.0911  1.9375 -0.3990
19314TIP3    H279434   1.295   6.886  13.473 -1.1533  1.3185  0.2890
19315TIP3   OH279435   1.778   4.235  11.397 -0.0170  0.1811  0.3460
19315TIP3    H179436   1.745   4.325  11.397 -2.1962 -0.5485  0.7706
19315TIP3    H279437   1.823   4.226  11.313  0.3601  1.6913  0.3527
19316TIP3   OH279438   0.903   4.706  14.455  0.9870  0.2410  0.2647
19316TIP3    H179439   0.835   4.641  14.473  1.5216 -0.4700 -0.2571
19316TIP3    H279440   0.899   4.719  14.360 -0.7167  2.7624  0.5697
19317TIP3   OH279441   1.587   0.587   4.315 -0.3240  0.4749  0.2420
19317TIP3    H179442   1.645   0.516   4.288 -0.9726  0.0321 -0.0255
19317TIP3    H279443   1.610   0.604   4.406  2.0683  2.1592 -0.6088
19318TIP3   OH279444   2.413   5.985   0.683  0.2310 -0.2145 -0.5258
19318TIP3    H179445   2.380   5.897   0.702 -0.0484 -0.1348 -0.6316
19318TIP3    H279446   2.343   6.026   0.631  0.3127  0.1068 -0.3843
19319TIP3   OH279447   0.370   6.594  16.183 -0.0053  0.1613 -0.3710
19319TIP3    H179448   0.353   6.622  16.273  0.5611 -1.8361  0.3880
19319TIP3    H279449   0.395   6.675  16.137 -0.5402  1.2480  1.1721
19320TIP3   OH279450   3.755   5.764  15.589 -0.1400  0.5091  0.4058
19320TIP3    H179451   3.671   5.782  15.632  0.3577  0.7872  1.2770
19320TIP3    H279452   3.821   5.792  15.652  0.6156  0.4828 -0.3556
19321TIP3   OH279453   3.188   2.904   0.410 -0.4960  0.3039 -0.2605
19321TIP3    H179454   3.166   2.997   0.406  0.7209  0.6032 -0.3267
19321TIP3    H279455   3.118   2.865   0.463 -1.5667  1.0665 -1.0753
19322TIP3   OH279456   6.695   2.479   4.154 -0.0853 -0.5384  0.0715
19322TIP3    H179457   6.684   2.534   4.076  0.6514  0.5311  0.6985
19322TIP3    H279458   6.765   2.418   4.129  0.6110  0.2248  0.0991
19323TIP3   OH279459   0.879   0.593   0.216  0.3166  0.4128 -0.5090
19323TIP3    H179460   0.877   0.500   0.196 -2.3883  0.7478 -2.2776
19323TIP3    H279461   0.876   0.636   0.131 -1.3085  2.0645  0.3068
19324TIP3   OH279462   6.615   5.044   3.260 -0.4940  0.5711 -0.2310
19324TIP3    H179463   6.668   5.118   3.229  0.3299 -0.1109 -0.5026
19324TIP3    H279464   6.620   5.050   3.356  0.8047  0.0543 -0.2327
19325TIP3   OH279465   0.611   0.816  12.076 -0.0928  0.6420  0.0585
19325TIP3    H179466   0.519   0.821  12.049 -0.2467 -0.6918  0.2574
19325TIP3    H279467   0.609   0.830  12.171 -0.4128 -1.6947  0.4635
19326TIP3   OH279468   5.947   0.205  15.392  0.1491 -0.3857  0.1698
19326TIP3    H179469   5.986   0.127  15.431  1.6972  0.2351 -0.0281
19326TIP3    H279470   5.913   0.176  15.308  0.0222 -1.0054  0.4321
19327TIP3   OH279471   6.828   5.605   1.447  0.0750  0.6513 -0.0619
19327TIP3    H179472   6.751   5.652   1.480  1.4145  2.3331  0.8204
19327TIP3    H279473   6.891   5.610   1.518  0.6913 -1.5854 -0.3870
19328TIP3   OH279474   2.057   1.624   2.568 -0.5098 -0.1786  0.0890
19328TIP3    H179475   2.057   1.616   2.663 -0.0689 -0.3941  0.0737
19328TIP3    H279476   2.001   1.552   2.538 -0.6629 -0.0993  0.1845
19329TIP3   OH279477   4.538   6.124   4.158  0.7723  0.4450 -0.5878
19329TIP3    H179478   4.609   6.168   4.205 -1.4054  1.4098  2.1333
19329TIP3    H279479   4.462   6.181   4.172 -1.0351 -1.6288 -1.4236
19330TIP3   OH279480   0.495   5.008   4.162 -0.1695 -0.5428  0.2471
19330TIP3    H179481   0.419   4.951   4.151  0.1000 -0.5928 -1.6188
19330TIP3    H279482   0.486   5.074   4.093  0.5395  0.5305  1.1507
19331TIP3   OH279483   5.203   1.979   0.013  0.4364  0.3503 -0.0155
19331TIP3    H179484   5.159   1.986  -0.072 -0.4523 -0.3455  0.3667
19331TIP3    H279485   5.177   1.893   0.046 -0.3360  1.1399  1.5653
19332TIP3   OH279486   4.290   6.722   2.588  0.0534  0.3697  0.3461
19332TIP3    H179487   4.232   6.770   2.647 -0.3293  0.5180 -0.1398
19332TIP3    H279488   4.352   6.787   2.557  2.5525 -0.3916  3.2996
19333TIP3   OH279489   4.551   3.813   3.966  0.5526  0.0702  0.2008
19333TIP3    H179490   4.597   3.739   4.007 -0.5115 -1.4056 -1.1611
19333TIP3    H279491   4.610   3.844   3.898  0.9155  0.3690  0.6436
19334TIP3   OH279492   3.558   3.544  12.731  0.1528 -0.3414  0.2320
19334TIP3    H179493   3.522   3.566  12.817  0.8751 -0.3922  0.5545
19334TIP3    H279494   3.483   3.515  12.681 -0.3105 -0.1323  0.7906
19335TIP3   OH279495   6.165   5.338  13.154 -0.1019 -0.2084  0.0515
19335TIP3    H179496   6.101   5.381  13.098  2.5069  2.1734 -1.3898
19335TIP3    H279497   6.139   5.362  13.243 -1.6383 -0.0559 -0.4119
19336TIP3   OH279498   5.159   1.120  12.427 -0.2541  0.2687  0.0982
19336TIP3    H179499   5.087   1.056  12.429  0.0698 -0.1026  1.5667
19336TIP3    H279500   5.238   1.067  12.438  0.0263  0.8840  1.2527
19337TIP3   OH279501   6.334   1.905   3.451  0.0868  0.1948  0.0515
19337TIP3    H179502   6.426   1.880   3.450  0.4238  1.3665 -0.0539
19337TIP3    H279503   6.327   1.973   3.384 -1.5616 -2.1327 -2.3328
19338TIP3   OH279504   1.190   4.100   3.686  0.1936  0.2084 -0.4579
19338TIP3    H179505   1.270   4.150   3.669  0.0913  0.6002  0.1987
19338TIP3    H279506   1.147   4.147   3.757  0.1060 -0.8269  0.1962
19339TIP3   OH279507   0.013   0.015   0.963  0.4623 -0.1001 -0.3727
19339TIP3    H179508  -0.005   0.090   0.907  0.5437 -0.4048 -0.8071
19339TIP3    H279509  -0.018   0.043   1.050 -0.0035  0.2309 -0.6390
19340TIP3   OH279510   4.804   5.718  16.569  0.2444  0.4290  0.7132
19340TIP3    H179511   4.877   5.781  16.572  2.7459 -2.1799 -0.4063
19340TIP3    H279512   4.765   5.731  16.483  0.8364  0.4159  0.4336
19341TIP3   OH279513   2.887   2.048   4.588 -0.1740 -0.1952  0.4060
19341TIP3    H179514   2.874   1.971   4.532 -1.6292  0.7065 -0.5704
19341TIP3    H279515   2.805   2.097   4.580  0.4247  1.0581  1.6399
19342TIP3   OH279516   5.193   6.307  16.711  0.1058  0.0505  0.3127
19342TIP3    H179517   5.228   6.242  16.651 -2.0846 -0.6158 -0.3670
19342TIP3    H279518   5.244   6.297  16.791  2.3564  0.1876 -1.0269
19343TIP3   OH279519   1.734   6.526  13.579  0.2890  0.1191 -0.3076
19343TIP3    H179520   1.737   6.456  13.514  0.3157 -1.2203  1.0905
19343TIP3    H279521   1.675   6.494  13.648 -1.0263  2.1632 -0.3656
19344TIP3   OH279522   3.399   2.360  14.368  0.1850  0.1777 -0.1152
19344TIP3    H179523   3.354   2.282  14.401  0.1909 -0.6419 -1.8954
19344TIP3    H279524   3.341   2.432  14.392  0.5142 -0.2345  2.1861
19345TIP3   OH279525   0.883   0.561  13.952 -0.1379  0.2968  0.3552
19345TIP3    H179526   0.851   0.544  14.040  0.1914 -0.2490  0.3727
19345TIP3    H279527   0.922   0.648  13.956 -1.5401  0.9454  0.3508
19346TIP3   OH279528   1.965   4.422  14.004 -0.5609  0.5491  0.2626
19346TIP3    H179529   1.962   4.338  13.959 -1.4396  1.2218 -1.0250
19346TIP3    H279530   1.875   4.437  14.033 -0.6918  1.5643 -0.5884
19347TIP3   OH279531   3.515   3.142   6.647  0.5455 -0.1908 -0.7605
19347TIP3    H179532   3.461   3.178   6.577 -0.2095 -1.4171 -0.8243
19347TIP3    H279533   3.585   3.094   6.602 -0.0664 -1.1649 -0.6833
19348TIP3   OH279534   3.362   0.258   5.289  0.4047  0.0653  0.5999
19348TIP3    H179535   3.417   0.298   5.356  2.8341 -0.3521 -1.0303
19348TIP3    H279536   3.423   0.217   5.229 -1.7444 -0.8632 -1.0899
19349TIP3   OH279537   0.969   3.409  14.221  0.5223  0.0988  0.6772
19349TIP3    H179538   0.973   3.328  14.272 -0.8001 -0.9969 -0.8468
19349TIP3    H279539   0.925   3.472  14.278 -1.5106 -1.2802  0.7478
19350TIP3   OH279540   1.417   3.692   1.576 -0.1845  0.2680  0.5758
19350TIP3    H179541   1.424   3.782   1.609 -1.1632  0.8729 -0.7552
19350TIP3    H279542   1.370   3.701   1.493  1.4121 -1.2375 -0.5785
19351TIP3   OH279543   5.297   0.960  11.465 -0.3180  0.4105 -0.1042
19351TIP3    H179544   5.392   0.964  11.463 -0.2098 -1.2909  0.4243
19351TIP3    H279545   5.269   1.014  11.391  0.9748  2.2453  0.6727
19352TIP3   OH279546   5.934   2.621   4.898  0.7726  0.8117 -0.8739
19352TIP3    H179547   5.929   2.572   4.980 -0.5675  0.6391 -1.0380
19352TIP3    H279548   5.961   2.555   4.833 -1.5169  0.1036 -1.1912
19353TIP3   OH279549   3.397   4.810   5.742  0.3248 -0.3317 -0.1568
19353TIP3    H179550   3.326   4.820   5.678 -1.6432 -0.4181  1.8782
19353TIP3    H279551   3.410   4.898   5.777 -1.5565 -0.8995  2.1867
19354TIP3   OH279552   4.574   4.821  12.357 -0.1098 -0.2611  0.2203
19354TIP3    H179553   4.563   4.916  12.346  1.2591 -0.0450  0.4889
19354TIP3    H279554   4.485   4.786  12.356 -0.5785  0.8977 -0.9855
19355TIP3   OH279555   4.828   4.956   0.997 -0.4784  0.0331 -0.4163
19355TIP3    H179556   4.827   4.918   0.909  1.2861 -4.1775  1.1340
19355TIP3    H279557   4.920   4.957   1.022 -0.6961  3.1569  0.7610
19356TIP3   OH279558   5.580   3.712  15.777  0.0149  0.0411  0.4435
19356TIP3    H179559   5.575   3.785  15.839 -0.5401  1.5723 -1.3117
19356TIP3    H279560   5.658   3.730  15.724  0.8787 -1.6113  1.0983
19357TIP3   OH279561   1.899   4.271   2.614  0.1076  0.1245 -0.1203
19357TIP3    H179562   1.937   4.221   2.542  1.6124  1.2264 -0.1377
19357TIP3    H279563   1.828   4.321   2.573  0.0156 -0.3424 -0.5344
19358TIP3   OH279564   3.823   2.669  15.496 -0.0635  0.4458 -0.5914
19358TIP3    H179565   3.882   2.715  15.556 -0.6595 -0.2522  0.5471
19358TIP3    H279566   3.738   2.669  15.540  0.3257 -3.6613  0.6150
19359TIP3   OH279567   5.780   2.059   4.149 -0.7396  0.0123  0.0628
19359TIP3    H179568   5.826   2.004   4.213 -1.2545  0.0449  0.4617
19359TIP3    H279569   5.792   2.013   4.066 -1.0186 -0.6222  0.3632
19360TIP3   OH279570   0.798   6.681  16.059 -0.6373  0.1943  0.1181
19360TIP3    H179571   0.819   6.677  15.966 -2.7323  0.5942 -0.4263
19360TIP3    H279572   0.749   6.601  16.077 -1.8428  0.9686  0.4091
19361TIP3   OH279573   3.929   2.999   0.644 -0.6122  0.7599 -0.1347
19361TIP3    H179574   3.989   2.975   0.573 -0.8550  1.7796 -0.7022
19361TIP3    H279575   3.848   2.951   0.624 -0.7006  1.0947 -0.5952
19362TIP3   OH279576   0.020   2.246  14.888  0.1651  0.3276  0.4522
19362TIP3    H179577   0.019   2.181  14.958 -2.3191 -0.3238 -0.0657
19362TIP3    H279578   0.072   2.318  14.922  2.9255 -1.7961  1.1106
19363TIP3   OH279579   0.326   5.020  16.685 -0.2547 -0.7412 -0.3289
19363TIP3    H179580   0.326   4.991  16.594  0.2227 -0.1447 -0.5285
19363TIP3    H279581   0.418   5.014  16.712 -0.2903 -0.3148 -0.0897
19364TIP3   OH279582   6.624   3.009   1.913  0.1481  0.0615 -0.1318
19364TIP3    H179583   6.656   2.949   1.980  2.0218 -0.7885 -1.6694
19364TIP3    H279584   6.531   2.987   1.904  0.0056 -0.2478  1.6788
19365TIP3   OH279585   0.671   0.051  12.710  0.1896 -0.3236 -0.8817
19365TIP3    H179586   0.643  -0.004  12.637 -2.1166 -1.5687  0.8151
19365TIP3    H279587   0.701  -0.011  12.776 -0.8011  0.5345  0.4126
19366TIP3   OH279588   3.425   2.159  16.234  0.2283  0.0750 -0.0041
19366TIP3    H179589   3.361   2.126  16.170  0.0820  3.0950 -1.5836
19366TIP3    H279590   3.510   2.142  16.194  0.2530 -0.3067  0.2055
19367TIP3   OH279591   3.116   1.306   1.720  0.3166  0.5699 -0.0669
19367TIP3    H179592   3.131   1.220   1.758 -0.0508 -0.1887 -1.5668
19367TIP3    H279593   3.142   1.368   1.788 -0.1143 -0.7178  1.3010
19368TIP3   OH279594   2.287   4.353  13.059  0.2050  0.9110 -0.5207
19368TIP3    H179595   2.353   4.404  13.012 -0.5745 -0.2150 -2.9880
19368TIP3    H279596   2.223   4.419  13.088  1.2208  1.7482 -0.1149
19369TIP3   OH279597   0.283   3.198  14.276  0.1095 -0.0728  0.6641
19369TIP3    H179598   0.321   3.201  14.364  0.9105  0.8977  0.3044
19369TIP3    H279599   0.358   3.191  14.217 -0.4835 -2.5191  0.0885
19370TIP3   OH279600   3.379   0.535  11.214 -0.1145 -0.0377 -0.3109
19370TIP3    H179601   3.405   0.552  11.123 -1.2615 -0.6783 -0.7803
19370TIP3    H279602   3.381   0.620  11.256 -1.9682  0.7057 -1.5942
19371TIP3   OH279603   3.607   1.908   4.952 -0.3664  0.2438  0.2957
19371TIP3    H179604   3.687   1.961   4.955 -0.2357  0.1358 -0.8411
19371TIP3    H279605   3.544   1.958   5.004  0.1013  0.9207  0.2283
19372TIP3   OH279606   2.294   2.767   4.335  0.4251 -0.3179  0.6874
19372TIP3    H179607   2.356   2.695   4.320 -0.1704 -0.7968  0.4854
19372TIP3    H279608   2.212   2.737   4.295  0.2663  0.6288  0.2828
19373TIP3   OH279609   6.665   3.622   3.901 -0.5801  0.0851  0.3369
19373TIP3    H179610   6.736   3.657   3.955 -0.1122  0.1319 -0.2980
19373TIP3    H279611   6.650   3.534   3.936  1.8171 -1.1014 -1.3590
19374TIP3   OH279612   5.748   2.476   2.051  0.0742 -0.4782  0.4597
19374TIP3    H179613   5.744   2.566   2.083 -0.6289 -0.4861  0.4147
19374TIP3    H279614   5.678   2.431   2.100 -0.6811 -0.6124 -0.7143
19375TIP3   OH279615   2.947   1.269   2.810  0.4652  0.2756 -0.9710
19375TIP3    H179616   2.895   1.190   2.798  1.5437 -0.5730 -0.2143
19375TIP3    H279617   2.959   1.303   2.721 -1.1525  0.3807 -1.1921
19376TIP3   OH279618   0.894   0.615  13.043 -0.4135  0.4850 -0.0313
19376TIP3    H179619   0.945   0.559  12.986  0.5364  0.8664  0.4174
19376TIP3    H279620   0.803   0.594  13.023 -0.0820 -0.5113 -0.5499
19377TIP3   OH279621   6.827   4.223  14.129  0.5907 -0.6146 -0.6871
19377TIP3    H179622   6.875   4.233  14.047 -0.9436  1.1645 -1.4285
19377TIP3    H279623   6.750   4.172  14.106  0.4644 -0.6377 -0.2252
19378TIP3   OH279624   4.900   2.311  12.932  0.3101  0.1367  0.1796
19378TIP3    H179625   4.975   2.363  12.961  1.1617 -0.8827 -0.0937
19378TIP3    H279626   4.834   2.324  13.000  0.7972  0.9322  0.5139
19379TIP3   OH279627   4.082   1.818   4.616  0.9224 -0.2448 -0.3717
19379TIP3    H179628   4.078   1.723   4.606  1.3560 -0.3325  0.2728
19379TIP3    H279629   4.173   1.841   4.600  0.8979  0.0199 -0.1511
19380TIP3   OH279630   3.420   4.393  15.796  0.2214  0.1284  0.7399
19380TIP3    H179631   3.487   4.425  15.856 -0.0540 -0.0139  1.1273
19380TIP3    H279632   3.339   4.435  15.826 -0.1784 -1.0102  1.3434
19381TIP3   OH279633   6.758   3.790   2.263  0.2289  0.0332 -1.1935
19381TIP3    H179634   6.837   3.824   2.304 -0.5244  1.7015 -1.0142
19381TIP3    H279635   6.699   3.771   2.336 -0.3784  1.0731 -1.3908
19382TIP3   OH279636   6.007   2.792  15.746 -0.2925  0.1575 -0.2472
19382TIP3    H179637   5.932   2.848  15.728  0.1528  0.9216  0.1990
19382TIP3    H279638   6.011   2.732  15.672 -2.0129 -0.6560  0.2716
19383TIP3   OH279639   0.787   5.611   4.742  0.3058  0.5579 -0.1539
19383TIP3    H179640   0.704   5.608   4.694  0.6332  0.9034 -0.7472
19383TIP3    H279641   0.815   5.519   4.746 -1.0141  0.1679  1.6958
19384TIP3   OH279642   1.647   4.673  12.112 -0.3014 -0.9022  0.5016
19384TIP3    H179643   1.625   4.652  12.022  0.1107 -0.7648  0.3652
19384TIP3    H279644   1.664   4.767  12.111 -0.8910 -0.7847  0.8481
19385TIP3   OH279645   4.844   1.324  11.997  0.4031  0.1617 -0.1937
19385TIP3    H179646   4.767   1.381  12.004 -1.2426 -1.8831 -0.7876
19385TIP3    H279647   4.856   1.290  12.086  0.7178  0.5421 -0.0827
19386TIP3   OH279648   1.162   3.163  11.671 -0.0227 -0.1321  0.9671
19386TIP3    H179649   1.235   3.134  11.726  0.5323 -1.4769 -0.3796
19386TIP3    H279650   1.095   3.095  11.683  0.8696 -1.5607 -1.4194
19387TIP3   OH279651   0.566   1.549   5.249  0.8338  0.1675 -0.4342
19387TIP3    H179652   0.521   1.487   5.306  0.3515  2.2080  1.5762
19387TIP3    H279653   0.525   1.537   5.163 -0.2788 -1.2426  0.2482
19388TIP3   OH279654   0.427   1.745   4.352 -0.1660  0.4017  0.0591
19388TIP3    H179655   0.474   1.826   4.333 -1.3277  1.0521 -0.1303
19388TIP3    H279656   0.496   1.681   4.368  0.8391  0.7484 -2.4202
19389TIP3   OH279657   3.923   4.888  13.310 -0.0224 -0.0146  0.0415
19389TIP3    H179658   4.010   4.930  13.305  0.3630 -0.9421 -1.9793
19389TIP3    H279659   3.942   4.797  13.332 -0.6264  0.0684  0.9769
19390TIP3   OH279660   4.004   1.123  10.246  0.1007  0.5053  0.1899
19390TIP3    H179661   4.098   1.120  10.229  0.3490 -0.1291  1.5262
19390TIP3    H279662   3.968   1.177  10.176  1.2500 -0.4934 -1.2283
19391TIP3   OH279663   2.373   0.367  14.716 -0.2918 -0.5579  0.0750
19391TIP3    H179664   2.410   0.440  14.765 -1.1106 -1.1426  1.6621
19391TIP3    H279665   2.440   0.343  14.653  1.8095 -1.1382  2.3731
19392TIP3   OH279666   4.337   3.748  16.806 -0.9394  0.7710 -0.6619
19392TIP3    H179667   4.312   3.743  16.714 -0.0699  0.2131 -0.8836
19392TIP3    H279668   4.286   3.679  16.849  0.1155 -0.3046 -1.0932
19393TIP3   OH279669   4.287   6.266  14.562  0.1376  0.4737 -0.7616
19393TIP3    H179670   4.204   6.228  14.588  1.8278 -2.7764  0.5372
19393TIP3    H279671   4.278   6.281  14.467 -2.1985  1.2157 -0.4794
19394TIP3   OH279672   1.012   5.732   2.917 -0.5184 -0.3635 -0.7897
19394TIP3    H179673   1.060   5.678   2.854 -0.9251 -1.6813 -0.0127
19394TIP3    H279674   0.936   5.764   2.868  0.3706  0.5515 -1.6127
19395TIP3   OH279675   0.799   5.927  16.599  0.1703  0.1214 -0.7495
19395TIP3    H179676   0.860   5.944  16.527  1.4838 -0.3554  0.2160
19395TIP3    H279677   0.773   5.836  16.587  1.4517 -0.3974  0.0930
19396TIP3   OH279678   3.545   2.023  14.567 -0.1450  0.1179 -0.3198
19396TIP3    H179679   3.532   1.929  14.550 -1.0101  0.4155 -1.4369
19396TIP3    H279680   3.633   2.029  14.604  0.3366 -1.0162 -1.2259
19397TIP3   OH279681   0.322   3.265  11.079  0.1513 -0.5350  0.4964
19397TIP3    H179682   0.241   3.314  11.084  0.5016  0.0700  0.3226
19397TIP3    H279683   0.349   3.271  10.987 -0.2263 -1.7545  0.2859
19398TIP3   OH279684   0.574   1.989  13.276  0.3410 -0.0321 -0.4343
19398TIP3    H179685   0.556   2.029  13.361  0.2857  0.0889 -0.5028
19398TIP3    H279686   0.498   1.932  13.260 -0.1405  0.7122 -0.8649
19399TIP3   OH279687   2.900   5.362  10.615 -0.6386  0.1838  0.6332
19399TIP3    H179688   2.811   5.326  10.611 -0.9825  0.8974  1.4338
19399TIP3    H279689   2.957   5.286  10.602 -1.3577 -0.3861  0.7122
19400TIP3   OH279690   3.034   2.646   2.540 -0.0469 -0.2250  0.5685
19400TIP3    H179691   2.957   2.608   2.497 -0.5104  0.1975  0.9956
19400TIP3    H279692   3.063   2.715   2.481  0.7072 -1.1201 -0.1379
19401TIP3   OH279693   6.535   3.017  11.296 -0.4948 -0.1975 -0.0226
19401TIP3    H179694   6.525   2.943  11.356 -1.2319  1.0541  1.4823
19401TIP3    H279695   6.489   2.991  11.216 -1.4578 -1.0426  0.7896
19402TIP3   OH279696   5.210   6.579   5.928 -0.3420  0.1230  0.5543
19402TIP3    H179697   5.277   6.536   5.981  0.3533 -0.4807 -0.7609
19402TIP3    H279698   5.157   6.507   5.893  0.3364  0.3223 -1.0142
19403TIP3   OH279699   0.427   5.962  16.512  0.3752  0.1183  0.2312
19403TIP3    H179700   0.356   5.964  16.576  1.3046  0.9200  1.2704
19403TIP3    H279701   0.462   6.051  16.511  0.2391  0.1933 -1.5986
19404TIP3   OH279702   6.037   1.952   6.147  0.0865 -0.3436  0.2152
19404TIP3    H179703   6.114   1.918   6.193 -0.3557 -0.7248  0.6670
19404TIP3    H279704   5.963   1.932   6.204 -0.2009  1.3038  0.4671
19405TIP3   OH279705   4.543   1.605   5.847 -0.3807 -0.1758 -0.1414
19405TIP3    H179706   4.486   1.673   5.884 -0.2788 -1.2057  2.1201
19405TIP3    H279707   4.579   1.561   5.924 -1.6917 -3.8458 -1.4216
19406TIP3   OH279708   1.332   4.570   1.154 -0.7312 -0.2067 -0.4337
19406TIP3    H179709   1.283   4.652   1.156  0.0125  0.2395 -0.0795
19406TIP3    H279710   1.295   4.521   1.081 -2.0315 -0.0955  0.1219
19407TIP3   OH279711   0.601   1.609   0.103 -0.5136  0.4151 -0.6965
19407TIP3    H179712   0.545   1.636   0.031  0.3151 -0.2985 -1.6356
19407TIP3    H279713   0.688   1.598   0.063 -0.0459 -0.0214  0.3961
19408TIP3   OH279714   4.447   3.983   3.512 -0.0444  0.0022 -0.1826
19408TIP3    H179715   4.514   4.043   3.480  0.3271  0.3165  1.1212
19408TIP3    H279716   4.396   3.960   3.435  0.8620  0.6596 -0.9942
19409TIP3   OH279717   1.943   2.788  13.979 -0.6372  0.0920  0.0893
19409TIP3    H179718   1.995   2.829  13.910 -1.4371  0.8233 -0.0910
19409TIP3    H279719   1.855   2.825  13.969 -0.7445  0.3080  1.5756
19410TIP3   OH279720   5.547   2.363   1.342 -0.0470 -0.2807  1.0390
19410TIP3    H179721   5.520   2.307   1.269 -0.8565  1.0844  0.2620
19410TIP3    H279722   5.466   2.396   1.379  0.4095  1.9177  0.2311
19411TIP3   OH279723   4.099   6.290   5.421  0.0810 -0.1984  0.1428
19411TIP3    H179724   4.116   6.207   5.376 -1.5281 -0.6420  0.3139
19411TIP3    H279725   4.092   6.354   5.350  0.8430 -0.2759 -0.0163
19412TIP3   OH279726   5.263   5.581   2.727 -0.2136  0.0279  0.4794
19412TIP3    H179727   5.276   5.502   2.781 -1.1193  0.0625  0.7685
19412TIP3    H279728   5.327   5.644   2.761  0.1054 -0.3803  0.6502
19413TIP3   OH279729   6.688   6.476   0.607  0.4990 -0.1504  0.1293
19413TIP3    H179730   6.723   6.516   0.687  0.8035 -1.1531  0.5138
19413TIP3    H279731   6.710   6.383   0.615 -1.0629 -0.5917 -0.2485
19414TIP3   OH279732   0.119   1.841   4.913 -0.1573 -0.1960  0.5657
19414TIP3    H179733   0.121   1.745   4.905 -0.6585 -0.2002  0.4629
19414TIP3    H279734   0.103   1.872   4.824  0.6445  0.0149  0.4881
19415TIP3   OH279735   3.727   0.097   4.932  0.1605  0.1403 -0.0078
19415TIP3    H179736   3.807   0.048   4.913  1.1448  0.7620  2.2400
19415TIP3    H279737   3.757   0.185   4.954 -1.1560  0.4606  0.6038
19416TIP3   OH279738   3.342   0.298   6.567  0.2390  0.0693  0.0253
19416TIP3    H179739   3.329   0.229   6.502  0.4528 -0.0875  0.1455
19416TIP3    H279740   3.316   0.379   6.522  0.2719 -0.0523 -0.2163
19417TIP3   OH279741   0.080   1.812  15.757  0.4725  0.1337 -0.9759
19417TIP3    H179742   0.043   1.898  15.775  0.9319 -0.0180  0.8639
19417TIP3    H279743   0.034   1.782  15.679 -0.0669  1.8117 -1.3432
19418TIP3   OH279744   4.043   2.988   5.853  0.0364  0.4718  0.2048
19418TIP3    H179745   3.952   2.966   5.831  0.2960 -2.1280  1.3314
19418TIP3    H279746   4.095   2.920   5.810  1.0986 -0.2791  2.5338
19419TIP3   OH279747   3.573   6.360  11.172 -0.1300  0.7472  0.7619
19419TIP3    H179748   3.543   6.305  11.099  0.0948  2.2738 -0.5342
19419TIP3    H279749   3.495   6.404  11.204  0.0745  1.6265  0.0774
19420TIP3   OH279750   5.485   4.040  15.193  0.4221 -0.7268 -0.0231
19420TIP3    H179751   5.444   3.989  15.263 -0.3883 -1.2989 -0.8909
19420TIP3    H279752   5.571   4.002  15.183  2.0813  1.6939  3.1243
19421TIP3   OH279753   5.701   4.295  16.793 -0.0149 -0.0878 -0.0786
19421TIP3    H179754   5.774   4.357  16.797  0.7140 -0.9813  1.6585
19421TIP3    H279755   5.742   4.210  16.780 -0.7691 -0.5511  0.4564
19422TIP3   OH279756   5.994   5.464   1.477  0.0504 -0.5418 -0.6041
19422TIP3    H179757   5.916   5.424   1.438 -0.9947  1.1313 -0.2933
19422TIP3    H279758   6.002   5.549   1.434  0.2411  0.3619  1.1349
19423TIP3   OH279759   2.468   0.479  13.397  0.4334  0.1187 -0.4462
19423TIP3    H179760   2.558   0.483  13.431  0.1679 -1.5560  0.5367
19423TIP3    H279761   2.469   0.408  13.334 -0.2237  0.0481 -0.3835
19424TIP3   OH279762   1.393   2.318  14.197 -0.6847  0.1406  0.3181
19424TIP3    H179763   1.327   2.387  14.207  1.2369  2.1799 -0.2118
19424TIP3    H279764   1.435   2.312  14.282  1.1940  1.9296 -0.3986
19425TIP3   OH279765   5.543   6.719   5.282 -0.2096  0.0798  1.0199
19425TIP3    H179766   5.554   6.711   5.377 -0.6441  0.9062  1.1461
19425TIP3    H279767   5.456   6.683   5.266  0.0796 -0.5626  0.8553
19426TIP3   OH279768   6.833   1.147  13.676  0.2703  0.4517  0.1957
19426TIP3    H179769   6.880   1.163  13.758  1.3821  0.9212 -0.5123
19426TIP3    H279770   6.741   1.140  13.703  0.6140  0.5585  1.4865
19427TIP3   OH279771   6.190   6.143   4.710 -0.5434 -0.6832 -0.4593
19427TIP3    H179772   6.185   6.050   4.690  0.7875 -1.0007  0.4978
19427TIP3    H279773   6.109   6.163   4.756  0.3697 -2.1113  1.9741
19428TIP3   OH279774   4.322   0.228   6.168 -0.7174  0.2196  0.5228
19428TIP3    H179775   4.386   0.273   6.222 -0.0407 -1.9058  1.5820
19428TIP3    H279776   4.363   0.145   6.145 -2.2525 -0.2722 -0.6266
19429TIP3   OH279777   4.631   5.914   1.631 -0.2042 -0.8320 -0.2222
19429TIP3    H179778   4.659   5.997   1.670 -2.5859  0.5408 -1.2228
19429TIP3    H279779   4.692   5.901   1.558  0.9438 -0.6226  0.6732
19430TIP3   OH279780   6.605   1.264   1.859 -0.2739 -0.2611  0.1093
19430TIP3    H179781   6.554   1.322   1.802  0.7677 -0.8099 -1.4436
19430TIP3    H279782   6.691   1.306   1.866 -0.0079 -0.8239  0.2808
19431TIP3   OH279783   1.738   0.236   5.095 -0.0709  0.2867 -0.7729
19431TIP3    H179784   1.695   0.152   5.079 -1.5464  0.7079  0.7296
19431TIP3    H279785   1.736   0.280   5.009 -0.4640 -0.6851 -1.2783
19432TIP3   OH279786   1.951   4.785  15.118  0.4386  0.3582 -0.0296
19432TIP3    H179787   1.924   4.739  15.039  0.8476  0.4121 -0.2024
19432TIP3    H279788   2.044   4.765  15.127  0.2743 -0.0938  0.7400
19433TIP3   OH279789   5.793   2.850   1.485  0.1950 -0.4023  0.0274
19433TIP3    H179790   5.753   2.771   1.520  0.4355  0.3202  2.0721
19433TIP3    H279791   5.733   2.921   1.512  1.7612  0.4730  1.3527
19434TIP3   OH279792   1.191   5.567   5.246  0.5245 -0.1662  0.5298
19434TIP3    H179793   1.141   5.501   5.295 -1.5523 -0.9449 -2.3704
19434TIP3    H279794   1.162   5.557   5.156  1.9027  3.1981 -0.4430
19435TIP3   OH279795   6.344   5.107  10.398  0.2498 -0.3771  0.6579
19435TIP3    H179796   6.275   5.056  10.356  1.4267 -0.4617 -1.3280
19435TIP3    H279797   6.407   5.043  10.428  0.9809 -0.2134 -0.4491
19436TIP3   OH279798   2.521   4.783  12.275  0.0522 -0.6354  0.4083
19436TIP3    H179799   2.545   4.820  12.360 -0.1126 -0.5410  0.4141
19436TIP3    H279800   2.432   4.751  12.287 -0.9286  1.6184 -0.4269
19437TIP3   OH279801   2.463   1.862  15.283  0.6575  0.1185 -0.0006
19437TIP3    H179802   2.540   1.843  15.229  1.2606  1.0630  0.5159
19437TIP3    H279803   2.452   1.957  15.277 -0.2758  0.0337  0.1976
19438TIP3   OH279804   4.817   0.277   1.791 -0.2289  0.1643  0.1907
19438TIP3    H179805   4.730   0.286   1.752  0.6014  0.5130 -1.6436
19438TIP3    H279806   4.878   0.290   1.719  1.3741  0.1225  1.4764
19439TIP3   OH279807   6.504   0.930  11.953 -0.7051 -0.6634  0.1708
19439TIP3    H179808   6.585   0.883  11.931 -1.0041 -0.3664 -1.7601
19439TIP3    H279809   6.463   0.877  12.021  0.4927 -1.5043  0.2661
19440TIP3   OH279810   5.651   6.395   0.397  0.5249 -0.0676  0.3022
19440TIP3    H179811   5.707   6.472   0.408  1.6696 -0.8558  0.2344
19440TIP3    H279812   5.571   6.415   0.447  1.7031  0.2858  2.1622
19441TIP3   OH279813   5.711   1.274   0.171  0.3127 -0.8191 -0.0038
19441TIP3    H179814   5.647   1.205   0.155 -1.5185  0.9525 -0.8412
19441TIP3    H279815   5.744   1.296   0.084 -0.9615  0.9461 -0.0992
19442TIP3   OH279816   5.623   2.635  12.766  0.4118 -0.2805 -0.0484
19442TIP3    H179817   5.612   2.730  12.763  1.1668 -0.1691  0.3047
19442TIP3    H279818   5.641   2.616  12.858  1.6232 -0.5908 -0.3313
19443TIP3   OH279819   3.102   1.711  13.839  0.1324 -0.1654 -0.3125
19443TIP3    H179820   3.092   1.633  13.784 -1.1463  0.0920 -0.4793
19443TIP3    H279821   3.088   1.785  13.779  2.4932  0.2974 -0.4206
19444TIP3   OH279822   0.092   3.042   2.938 -0.3994 -0.0660  0.5419
19444TIP3    H179823   0.090   2.985   2.861 -0.8107  0.7104 -0.0454
19444TIP3    H279824   0.125   3.126   2.904 -1.3532  0.5312  1.0216
19445TIP3   OH279825   3.232   6.519  13.366 -0.1309  0.9183 -0.4598
19445TIP3    H179826   3.298   6.454  13.344 -0.7832 -0.1578  0.6303
19445TIP3    H279827   3.151   6.485  13.328 -0.2907  1.6652 -0.8200
19446TIP3   OH279828   2.805   6.276   1.894  0.5257 -0.1244 -0.6661
19446TIP3    H179829   2.774   6.265   1.804  2.1986  2.4592 -1.6884
19446TIP3    H279830   2.810   6.371   1.906  0.0524 -0.3799  2.3116
19447TIP3   OH279831   5.183   0.249  13.663  0.6688 -0.4079  0.0799
19447TIP3    H179832   5.102   0.266  13.615  0.7119  2.0100  0.7303
19447TIP3    H279833   5.253   0.281  13.606  0.7108  2.6399  1.5909
19448TIP3   OH279834   1.485   5.480   0.412  0.4614  0.7006 -0.1224
19448TIP3    H179835   1.579   5.480   0.393  0.4977  0.4643  0.0440
19448TIP3    H279836   1.473   5.555   0.470  0.8552 -0.2502  1.2602
19449TIP3   OH279837   4.525   0.717  11.808  0.2660  0.2908 -0.4394
19449TIP3    H179838   4.569   0.719  11.893  0.7084 -1.4836 -0.5914
19449TIP3    H279839   4.595   0.700  11.745 -0.1513  0.9426 -1.1013
19450TIP3   OH279840   0.651   5.093   2.528  0.3559 -0.8160  0.2057
19450TIP3    H179841   0.727   5.043   2.559 -0.5138 -1.4588  1.4032
19450TIP3    H279842   0.640   5.162   2.594  1.3751  0.8638 -1.2859
19451TIP3   OH279843   5.748   4.893   2.434  0.0137 -0.1282 -0.0641
19451TIP3    H179844   5.735   4.967   2.493 -0.5012 -0.0090 -0.3196
19451TIP3    H279845   5.704   4.820   2.477 -0.1456 -0.1005 -0.1777
19452TIP3   OH279846   1.977   0.700   0.228 -0.5238 -1.1842  0.1236
19452TIP3    H179847   1.918   0.741   0.165  0.7724  1.9180  0.7091
19452TIP3    H279848   1.924   0.692   0.308 -0.7675 -0.3455  0.0620
19453TIP3   OH279849   4.508   5.237  16.380  0.2125  0.0072 -0.2099
19453TIP3    H179850   4.417   5.237  16.411  1.1023 -0.6193  2.7306
19453TIP3    H279851   4.544   5.156  16.415  2.2337  0.8519 -0.2297
19454TIP3   OH279852   5.455   3.155   6.232 -0.2662 -0.0817 -0.2928
19454TIP3    H179853   5.483   3.078   6.182 -0.1256  0.0881 -0.4742
19454TIP3    H279854   5.532   3.177   6.285  0.8188  1.7922 -2.4661
19455TIP3   OH279855   4.296   0.813  11.974  0.1379 -0.2959 -0.4938
19455TIP3    H179856   4.319   0.854  12.058  1.0370  0.0990 -0.9264
19455TIP3    H279857   4.357   0.740  11.966  1.5783  0.9627 -1.8104
19456TIP3   OH279858   1.635   2.917   0.462 -0.2157 -0.0782 -0.0354
19456TIP3    H179859   1.669   2.858   0.529  0.0832 -0.4497 -0.4967
19456TIP3    H279860   1.541   2.897   0.457 -0.1551 -0.3676 -0.0375
19457TIP3   OH279861   6.699   6.476  12.892 -0.4293  0.2321 -0.3308
19457TIP3    H179862   6.638   6.469  12.965  1.9547 -1.0558  1.7172
19457TIP3    H279863   6.734   6.565  12.898  0.6821 -0.2656  0.9644
19458TIP3   OH279864   6.500   1.502  10.908 -0.1900  0.1968  0.1144
19458TIP3    H179865   6.532   1.450  10.834 -2.2596  1.7898 -2.0427
19458TIP3    H279866   6.405   1.499  10.900 -0.5761 -0.4227  3.4269
19459TIP3   OH279867   3.777   4.840   5.411  0.2027 -0.0016  0.4239
19459TIP3    H179868   3.846   4.774   5.402  1.7102  1.2252  2.3145
19459TIP3    H279869   3.766   4.850   5.506 -1.1532  1.3033  0.1578
19460TIP3   OH279870   2.620   5.137  13.037 -0.2924  0.1186 -0.5429
19460TIP3    H179871   2.684   5.160  12.970 -2.2788  1.4846 -2.0724
19460TIP3    H279872   2.578   5.057  13.004  0.6933 -0.9241  0.5808
19461TIP3   OH279873   2.584   2.984   4.370 -0.5417 -0.3039  0.0751
19461TIP3    H179874   2.665   3.034   4.363  0.1061 -1.2790  0.4129
19461TIP3    H279875   2.595   2.932   4.449 -1.2610 -0.8710 -0.1933
19462TIP3   OH279876   0.649   3.472   1.636 -0.1290 -0.4816  0.4858
19462TIP3    H179877   0.668   3.543   1.575  1.4441  0.6955  2.2527
19462TIP3    H279878   0.576   3.425   1.596  0.3095  0.7037 -1.8821
19463TIP3   OH279879   5.528   2.968   0.825 -0.2175 -0.1114  0.1772
19463TIP3    H179880   5.502   2.934   0.739 -1.6233 -0.0200  0.5415
19463TIP3    H279881   5.606   2.917   0.848  1.3184  1.1125 -1.9430
19464TIP3   OH279882   6.515   6.083   2.525  0.4189 -0.0496  0.3319
19464TIP3    H179883   6.457   6.021   2.482  1.3783 -0.1800 -0.8099
19464TIP3    H279884   6.525   6.049   2.614 -0.8396 -0.2856  0.4043
19465TIP3   OH279885   3.287   6.285  14.119  0.1822  0.4580  0.0004
19465TIP3    H179886   3.200   6.286  14.160  0.4030 -0.4433  0.5286
19465TIP3    H279887   3.271   6.262  14.028 -0.0267 -1.3078  0.4507
19466TIP3   OH279888   2.677   3.517   3.225 -0.0126  0.1272  0.1422
19466TIP3    H179889   2.748   3.580   3.236 -0.9775  1.1188  0.9410
19466TIP3    H279890   2.698   3.446   3.286  0.5426  0.1664  0.0013
19467TIP3   OH279891   2.184   6.580  15.018 -0.3522  0.0506 -0.1717
19467TIP3    H179892   2.231   6.522  14.957 -0.5995 -0.2798 -0.0523
19467TIP3    H279893   2.203   6.544  15.104 -0.9341 -0.1754 -0.1309
19468TIP3   OH279894   3.924   4.757  11.472 -0.0560 -0.3088 -0.7093
19468TIP3    H179895   3.868   4.785  11.401  0.2894 -0.1369 -0.9179
19468TIP3    H279896   3.895   4.668  11.492 -1.6147  0.4072  0.4258
19469TIP3   OH279897   1.464   6.815   3.888  0.2766  0.4404  0.4638
19469TIP3    H179898   1.431   6.728   3.866 -0.4166  1.0080 -0.9302
19469TIP3    H279899   1.396   6.875   3.857  0.9921  1.4982  0.8622
19470TIP3   OH279900   1.170   4.463   4.914  0.4365  0.3069  0.0843
19470TIP3    H179901   1.147   4.411   4.991  0.6349  0.5455  0.3043
19470TIP3    H279902   1.259   4.435   4.892  0.4100  0.2963 -0.0098
19471TIP3   OH279903   1.124   0.998  10.942  0.1219  0.0577  0.3762
19471TIP3    H179904   1.037   1.029  10.916  0.5837  0.1015 -1.2019
19471TIP3    H279905   1.114   0.903  10.950  0.4001 -0.2198 -1.9545
19472TIP3   OH279906   3.854   3.109   5.604  0.0254 -0.1367  0.0817
19472TIP3    H179907   3.816   3.065   5.679  0.9247  2.2351  2.0606
19472TIP3    H279908   3.929   3.054   5.578 -1.5509 -2.0935 -0.5439
19473TIP3   OH279909   4.193   0.226  10.393 -0.4503  0.0303  0.4135
19473TIP3    H179910   4.287   0.210  10.387 -0.4972 -0.2862  0.5024
19473TIP3    H279911   4.168   0.255  10.305 -0.4294 -0.7902  0.1228
19474TIP3   OH279912   5.159   2.964  15.404  0.4925  0.1866 -0.2340
19474TIP3    H179913   5.141   2.884  15.454 -0.7179 -0.1673 -1.2023
19474TIP3    H279914   5.123   3.035  15.458 -1.1651 -0.2316 -0.7663
19475TIP3   OH279915   2.444   0.404   3.894  0.1787 -0.3735 -0.4137
19475TIP3    H179916   2.453   0.315   3.929  1.1833 -0.5315 -1.0296
19475TIP3    H279917   2.473   0.396   3.803  0.7211  0.6873 -0.3388
19476TIP3   OH279918   5.945   5.402  12.980  0.7281  0.5699  0.2961
19476TIP3    H179919   5.892   5.432  12.907  0.7089 -1.1712 -0.4498
19476TIP3    H279920   5.907   5.444  13.057 -0.2848  1.1221 -0.4938
19477TIP3   OH279921   0.629   4.037  15.011  0.4950  0.0728  0.4467
19477TIP3    H179922   0.654   4.129  15.018  2.0069 -0.3702  1.2825
19477TIP3    H279923   0.580   4.032  14.929 -2.4324  2.1873  1.8869
19478TIP3   OH279924   4.908   1.782   6.124  0.3569 -0.6758  0.2259
19478TIP3    H179925   4.958   1.745   6.197 -1.5429 -1.8871  0.9923
19478TIP3    H279926   4.818   1.785   6.157 -0.1245  1.2932 -1.1433
19479TIP3   OH279927   6.032   2.031   5.690  0.0946  0.4620 -0.3501
19479TIP3    H179928   5.941   2.002   5.694 -0.4452  2.1769  1.8720
19479TIP3    H279929   6.031   2.107   5.632  0.0173  0.7446  0.0189
19480TIP3   OH279930   1.614   0.761  16.902 -0.4145  0.2380 -0.2414
19480TIP3    H179931   1.709   0.761  16.907 -0.4118  0.5645 -0.2849
19480TIP3    H279932   1.591   0.669  16.885 -0.0861  0.2279 -0.6587
19481TIP3   OH279933   1.961   5.947  11.059 -0.1515  0.1896  0.1282
19481TIP3    H179934   2.009   5.926  10.979 -1.8197 -2.6217 -0.2501
19481TIP3    H279935   1.868   5.940  11.033 -1.0710  5.6684  0.7229
19482TIP3   OH279936   4.680   1.268   6.627  0.0467  0.2670  0.6925
19482TIP3    H179937   4.756   1.224   6.667 -0.9112 -0.3885  1.8568
19482TIP3    H279938   4.717   1.344   6.583  1.4574 -0.3621  0.7321
19483TIP3   OH279939   0.020   1.817  16.709 -0.0095 -0.3558  0.6336
19483TIP3    H179940  -0.064   1.857  16.688  0.8626  1.7807  0.9983
19483TIP3    H279941   0.000   1.723  16.716 -2.5149  0.1575  1.5823
19484TIP3   OH279942   2.095   3.734  11.593 -0.4269 -0.2633  0.0521
19484TIP3    H179943   2.043   3.813  11.612  0.0605  0.7823 -2.5303
19484TIP3    H279944   2.051   3.695  11.517  0.5712 -1.3234 -0.0011
19485TIP3   OH279945   3.153   0.947  13.394 -0.1497  0.5129  0.0129
19485TIP3    H179946   3.137   0.973  13.485 -0.8450  0.8151 -0.1853
19485TIP3    H279947   3.113   0.861  13.387 -0.7480  0.8018 -0.1949
19486TIP3   OH279948   6.685   2.108  12.274  0.0677  0.1973  0.3285
19486TIP3    H179949   6.757   2.109  12.337 -0.3353  1.2203  0.7878
19486TIP3    H279950   6.648   2.020  12.282  1.3998 -0.4299 -0.0979
19487TIP3   OH279951   5.889   0.932  15.754  0.2690  0.0643  0.0856
19487TIP3    H179952   5.818   0.873  15.730  0.7363 -0.7010  0.5656
19487TIP3    H279953   5.865   1.015  15.713 -1.0774 -0.0825  0.5376
19488TIP3   OH279954   0.515   2.741  14.028  0.0002 -0.0379  0.2291
19488TIP3    H179955   0.547   2.798  14.099  0.7900  2.6774 -2.0804
19488TIP3    H279956   0.450   2.794  13.982  1.9138 -0.1791 -3.0250
19489TIP3   OH279957   1.116   4.313  16.547  0.0783  0.5551  0.4049
19489TIP3    H179958   1.078   4.362  16.619  0.3210  1.0041  0.2304
19489TIP3    H279959   1.044   4.299  16.486  0.0731  0.9562  0.3155
19490TIP3   OH279960   6.621   1.581  14.382 -0.2671 -0.1396 -0.4048
19490TIP3    H179961   6.690   1.606  14.443 -0.1987  1.9209 -1.2369
19490TIP3    H279962   6.553   1.647  14.395 -1.5470 -1.3990 -0.4939
19491TIP3   OH279963   3.313   5.595   0.772 -0.1277  0.2081  0.1688
19491TIP3    H179964   3.372   5.601   0.848  0.1095  0.3109 -0.0206
19491TIP3    H279965   3.288   5.503   0.768 -1.1094  0.4123  1.0937
19492TIP3   OH279966   6.716   2.396  13.149 -0.0855 -0.3065  0.2063
19492TIP3    H179967   6.730   2.342  13.071  0.9277  1.0148 -0.5557
19492TIP3    H279968   6.686   2.480  13.115  2.6228  1.0971  1.0357
19493TIP3   OH279969   3.132   1.447   1.492 -0.1621 -0.6315  0.5876
19493TIP3    H179970   3.187   1.409   1.424 -1.6051 -0.8721 -0.4890
19493TIP3    H279971   3.140   1.387   1.566 -1.3220 -2.3352 -0.6139
19494TIP3   OH279972   1.296   3.156  15.663 -0.1166 -0.0825  0.4353
19494TIP3    H179973   1.220   3.146  15.605 -1.8275  1.3772  2.2620
19494TIP3    H279974   1.318   3.067  15.689 -1.6799 -0.5341  0.3627
19495TIP3   OH279975   2.862   6.517  13.026  0.4017 -0.1484  0.2424
19495TIP3    H179976   2.872   6.564  12.943  0.8883 -0.6312  0.0165
19495TIP3    H279977   2.852   6.425  13.000 -0.4068 -0.1875  0.6828
19496TIP3   OH279978   1.944   2.185   2.177  0.4624 -0.3874  0.5976
19496TIP3    H179979   2.032   2.163   2.147  0.9174 -0.1493  1.6961
19496TIP3    H279980   1.894   2.202   2.097  1.0811 -1.7128 -0.0845
19497TIP3   OH279981   3.999   4.859   1.981  0.0174  0.2368  0.1569
19497TIP3    H179982   4.045   4.935   1.945 -1.3607  0.9813 -0.1032
19497TIP3    H279983   4.054   4.785   1.960  0.0187  0.8277 -2.1164
19498TIP3   OH279984   4.733   5.378  16.712  1.0691  0.3921 -0.0446
19498TIP3    H179985   4.767   5.435  16.781  0.1791  0.3424  0.4505
19498TIP3    H279986   4.673   5.434  16.662  0.2312 -0.0700  0.4102
19499TIP3   OH279987   6.203   0.605   0.607 -0.4153 -0.1678  0.3208
19499TIP3    H179988   6.197   0.690   0.652  2.0212 -0.0176  0.4700
19499TIP3    H279989   6.295   0.580   0.614 -0.8350 -2.2663 -0.7948
19500TIP3   OH279990   4.899   1.989   2.602  0.2995 -0.0086 -0.4745
19500TIP3    H179991   4.856   1.913   2.640 -1.0382  0.7324 -0.4235
19500TIP3    H279992   4.871   1.991   2.511 -1.5112  1.6037  0.0413
19501TIP3   OH279993   3.887   1.062  14.256 -0.4095  0.2215 -0.0772
19501TIP3    H179994   3.859   1.140  14.207 -1.8895 -0.4606 -0.3651
19501TIP3    H279995   3.903   0.996  14.189 -1.1270 -0.3227  0.2864
19502TIP3   OH279996   2.402   1.681  11.997 -0.1076 -0.5786  0.4836
19502TIP3    H179997   2.418   1.587  12.004  1.1839 -0.3181  1.2888
19502TIP3    H279998   2.486   1.721  12.017 -0.6242  0.7525  0.0577
19503TIP3   OH279999   5.895   3.161  17.083 -0.3261 -0.3359 -0.2432
19503TIP3    H180000   5.936   3.237  17.041  0.9150 -0.0175  1.4382
19503TIP3    H280001   5.954   3.088  17.062  0.1454 -0.2279  0.6389
19504TIP3   OH280002   4.936   5.031   2.541  0.5764 -0.1171 -0.2786
19504TIP3    H180003   4.995   5.020   2.466  3.2111  0.0620  1.6343
19504TIP3    H280004   4.910   5.123   2.538 -1.3838 -0.6517 -2.2855
19505TIP3   OH280005   0.461   3.873  15.921 -1.1636  0.0462  0.2868
19505TIP3    H180006   0.462   3.969  15.916  2.2862  0.0873 -0.9309
19505TIP3    H280007   0.527   3.852  15.987  0.3156 -1.4709 -1.5837
19506TIP3   OH280008   1.907   3.441   4.521 -0.1220  0.4257 -0.1675
19506TIP3    H180009   2.000   3.423   4.510  0.1782  1.1232  1.0504
19506TIP3    H280010   1.864   3.356   4.506  0.8183 -0.1903  0.5383
19507TIP3   OH280011   0.943   2.666   2.929 -0.6204 -0.2982  0.2154
19507TIP3    H180012   0.863   2.661   2.982 -1.1791  1.1533 -0.4161
19507TIP3    H280013   0.988   2.744   2.960 -0.1194 -0.3567 -0.3421
19508TIP3   OH280014   0.005   3.451   2.639 -0.3369 -0.5059 -0.0260
19508TIP3    H180015   0.052   3.428   2.719 -0.6083 -1.8211 -0.2184
19508TIP3    H280016   0.005   3.547   2.638  1.1797 -0.4704  0.6348
19509TIP3   OH280017   1.197   3.550  12.190 -0.2298 -0.2194 -0.3909
19509TIP3    H180018   1.257   3.596  12.249 -0.4245 -1.9095  1.2392
19509TIP3    H280019   1.157   3.619  12.137  1.2437  1.1987  0.2757
19510TIP3   OH280020   3.358   3.998   2.704 -0.5478 -0.1759  0.0156
19510TIP3    H180021   3.431   4.059   2.718 -0.3639 -0.4051  0.0586
19510TIP3    H280022   3.355   3.986   2.609  1.8252 -2.9905  0.1621
19511TIP3   OH280023   4.459   6.552  10.581  0.1927  0.1859  0.0680
19511TIP3    H180024   4.453   6.457  10.568  0.8830  0.3290 -1.5177
19511TIP3    H280025   4.532   6.579  10.526 -0.2757  1.7121  0.1572
19512TIP3   OH280026   0.784   4.622   2.823 -0.2631 -0.8864  0.1482
19512TIP3    H180027   0.781   4.572   2.741  0.3116 -0.4163 -0.1643
19512TIP3    H280028   0.769   4.556   2.891 -0.3471 -1.3486 -0.3058
19513TIP3   OH280029   4.245   2.327  17.016 -0.1174  0.5969  0.9838
19513TIP3    H180030   4.314   2.380  16.977 -0.3048  0.9554  1.1365
19513TIP3    H280031   4.209   2.382  17.086 -0.7611  0.5293  0.7095
19514TIP3   OH280032   4.104   3.555  11.817 -0.4140  0.0106 -0.4072
19514TIP3    H180033   4.044   3.630  11.820 -1.1673 -0.5047 -1.5668
19514TIP3    H280034   4.137   3.556  11.727  2.3865  1.0526  0.5408
19515TIP3   OH280035   5.963   0.233  10.754 -0.3786 -0.1430 -0.3057
19515TIP3    H180036   5.895   0.295  10.729  0.0883  0.3577 -0.3530
19515TIP3    H280037   5.994   0.196  10.671  1.5963  1.9670 -0.6002
19516TIP3   OH280038   1.793   6.153   0.756 -0.3639  0.5452 -0.5099
19516TIP3    H180039   1.747   6.073   0.731 -0.1431  0.2653 -0.0266
19516TIP3    H280040   1.751   6.221   0.704 -2.0883  0.4963  0.7290
19517TIP3   OH280041   4.917   6.138  11.539 -0.3110 -0.2314 -0.1960
19517TIP3    H180042   4.875   6.052  11.541 -1.8502  0.5029  0.1341
19517TIP3    H280043   5.010   6.119  11.526 -0.7119 -1.9140 -0.8192
19518TIP3   OH280044   5.336   3.588  14.296 -0.4567  0.1109  0.0895
19518TIP3    H180045   5.417   3.563  14.253 -0.6198  0.3483 -0.3580
19518TIP3    H280046   5.271   3.525  14.264 -0.4898  0.0411  0.2946
19519TIP3   OH280047   5.548   3.692   2.243 -0.3784  0.2993  0.3570
19519TIP3    H180048   5.544   3.702   2.339 -1.4874  0.0635  0.3498
19519TIP3    H280049   5.468   3.734   2.212  0.4093  1.1652 -0.5528
19520TIP3   OH280050   3.309   3.806   1.170  0.3698 -0.2950  0.6144
19520TIP3    H180051   3.348   3.890   1.195  0.6082 -0.2221  0.0236
19520TIP3    H280052   3.232   3.831   1.118  0.9206 -0.4312 -0.2913
19521TIP3   OH280053   2.666   1.522  15.202 -0.2175  0.2601 -0.2800
19521TIP3    H180054   2.674   1.449  15.264 -0.6260  1.3712  1.1488
19521TIP3    H280055   2.755   1.534  15.168  0.3905  0.6400  1.3356
19522TIP3   OH280056   5.913   2.606   2.297  0.0494 -0.0350  0.0907
19522TIP3    H180057   5.911   2.689   2.344  0.8653 -0.0915  0.2418
19522TIP3    H280058   5.893   2.540   2.364 -0.9958  0.0582 -0.1096
19523TIP3   OH280059   0.538   1.486   4.386  0.6293 -0.0193  0.1736
19523TIP3    H180060   0.526   1.444   4.301  1.7750 -0.7852  0.3775
19523TIP3    H280061   0.547   1.413   4.448  1.9564  0.5208  0.6306
19524TIP3   OH280062   4.334   6.311  11.368 -0.0553  0.6876 -1.0102
19524TIP3    H180063   4.409   6.339  11.421  1.3370 -0.0217 -2.4962
19524TIP3    H280064   4.323   6.219  11.391  0.4194  0.4349 -1.7554
19525TIP3   OH280065   3.688   4.078  12.620 -0.5582 -0.3328 -0.3406
19525TIP3    H180066   3.687   4.082  12.525 -1.6248 -1.5198 -0.4032
19525TIP3    H280067   3.600   4.047  12.644 -1.0400  1.8741  1.1326
19526TIP3   OH280068   6.244   4.598  16.687  0.6002 -0.1156  0.3943
19526TIP3    H180069   6.264   4.598  16.781  1.3473 -0.1758  0.2443
19526TIP3    H280070   6.282   4.517  16.654  3.5900  1.4949 -0.5710
19527TIP3   OH280071   1.621   4.490  15.118  0.2198 -0.3729  0.7199
19527TIP3    H180072   1.555   4.559  15.123  0.3263 -0.3519  2.0222
19527TIP3    H280073   1.702   4.535  15.093 -0.1910 -0.3742 -0.7127
19528TIP3   OH280074   3.737   5.136   0.739  0.1175 -0.5248 -0.1674
19528TIP3    H180075   3.820   5.179   0.721  0.5461 -1.0246  0.5698
19528TIP3    H280076   3.738   5.058   0.683  0.2326 -0.6369 -0.0090
19529TIP3   OH280077   1.697   3.847  15.470 -0.1568 -0.5785  0.5406
19529TIP3    H180078   1.754   3.857  15.547  0.3246  2.0268 -0.0807
19529TIP3    H280079   1.609   3.861  15.504 -0.0216 -0.2251  0.7502
19530TIP3   OH280080   3.014   2.231  16.403 -0.0008 -0.0643 -0.2270
19530TIP3    H180081   2.938   2.209  16.457 -0.2612  0.1374 -0.5045
19530TIP3    H280082   3.089   2.220  16.461 -0.2259 -0.4504 -0.0054
19531TIP3   OH280083   0.844   4.581   3.386  0.4131  0.1235 -0.3140
19531TIP3    H180084   0.908   4.612   3.322 -0.6722  1.6210 -0.7186
19531TIP3    H280085   0.791   4.518   3.337  0.5364  0.1235 -0.4510
19532TIP3   OH280086   1.737   1.438  11.956  0.2109 -0.0274 -1.1951
19532TIP3    H180087   1.725   1.481  11.871  0.8096  2.6966  0.0241
19532TIP3    H280088   1.681   1.486  12.016  1.1108 -0.7918  0.3212
19533TIP3   OH280089   0.849   5.726   2.194 -0.0601 -0.6368  0.3245
19533TIP3    H180090   0.925   5.760   2.242 -0.0824  2.6817 -1.6746
19533TIP3    H280091   0.884   5.700   2.109 -0.5771 -3.0818  0.8080
19534TIP3   OH280092   0.809   0.438  16.948  0.8613  1.0017 -0.0312
19534TIP3    H180093   0.894   0.440  16.992  0.0551  0.9979  1.6158
19534TIP3    H280094   0.796   0.528  16.917  0.4266  1.6595  1.8951
19535TIP3   OH280095   4.679   6.569  10.417  0.6091  0.1059 -0.8167
19535TIP3    H180096   4.719   6.637  10.472 -1.9940  0.5945  0.6631
19535TIP3    H280097   4.734   6.565  10.339  3.8600  0.1503  1.3165
19536TIP3   OH280098   2.391   2.028  14.946  0.2895  0.3137  0.1088
19536TIP3    H180099   2.317   2.089  14.940  0.4932  0.5051 -0.6168
19536TIP3    H280100   2.468   2.084  14.946  0.4397  0.1179  0.9492
19537TIP3   OH280101   5.969   5.832   1.056 -0.4731 -0.6212  0.7672
19537TIP3    H180102   6.034   5.887   1.099  0.0413 -1.0305  0.5204
19537TIP3    H280103   5.983   5.745   1.094  1.6202 -1.5788 -1.9204
19538TIP3   OH280104   5.713   4.497  16.353  0.6692  0.2382 -0.0549
19538TIP3    H180105   5.761   4.493  16.270 -0.3658  1.7302 -0.7707
19538TIP3    H280106   5.624   4.472  16.330  0.7622 -1.1901  1.0058
19539TIP3   OH280107   2.227   3.186   2.134  0.0258 -0.0728 -0.2085
19539TIP3    H180108   2.232   3.172   2.039 -0.7754  0.1832 -0.2921
19539TIP3    H280109   2.156   3.130   2.163 -0.3664  0.5761  0.0935
19540TIP3   OH280110   5.859   0.600   2.069  0.0987 -0.2483 -0.0480
19540TIP3    H180111   5.792   0.554   2.119  0.6771 -0.5723  0.4472
19540TIP3    H280112   5.928   0.535   2.056 -0.1043 -0.2213 -1.4305
19541TIP3   OH280113   0.763   1.916   4.742 -0.0933  0.2102  0.6519
19541TIP3    H180114   0.739   1.956   4.658  0.2971  0.7646  0.7984
19541TIP3    H280115   0.691   1.938   4.800  0.4884  1.4120  0.9472
19542TIP3   OH280116   2.295   3.551  13.953 -0.3863  0.6350 -0.2960
19542TIP3    H180117   2.256   3.638  13.959 -2.4129 -0.1772 -0.9617
19542TIP3    H280118   2.227   3.492  13.983  1.4169 -0.6722  1.4742
19543TIP3   OH280119   2.365   3.867  16.733  0.2469 -0.7314  0.3660
19543TIP3    H180120   2.401   3.795  16.681 -0.4257 -0.4062 -0.5922
19543TIP3    H280121   2.284   3.890  16.687  1.2449  1.7263 -0.3330
19544TIP3   OH280122   3.899   5.549  12.812 -0.1537 -0.1905  0.5611
19544TIP3    H180123   3.849   5.610  12.867 -0.6942  0.5487 -0.6986
19544TIP3    H280124   3.907   5.470  12.865 -1.1963  0.2803  1.4596
19545TIP3   OH280125   5.702   1.354  13.503 -0.6302 -0.0875 -0.2002
19545TIP3    H180126   5.655   1.337  13.584 -0.6551  1.0368  0.0327
19545TIP3    H280127   5.765   1.423  13.525  0.5580 -0.9602 -0.7191
19546TIP3   OH280128   5.255   0.318  15.112 -0.3127  0.0890  0.6841
19546TIP3    H180129   5.291   0.340  15.198 -0.4072  0.4777  0.6236
19546TIP3    H280130   5.275   0.394  15.057  0.4250 -0.4674  0.1564
19547TIP3   OH280131   5.593   2.607  13.883  0.2775  0.1773 -0.2581
19547TIP3    H180132   5.582   2.702  13.877 -1.1803 -0.0810 -3.0912
19547TIP3    H280133   5.558   2.585  13.970  0.0912  2.1396  0.2265
19548TIP3   OH280134   1.011   3.801   3.776 -0.2598 -0.6504 -0.5705
19548TIP3    H180135   1.027   3.818   3.683  0.0723 -0.5662 -0.4986
19548TIP3    H280136   1.005   3.887   3.816 -1.4600 -0.6665 -0.6832
19549TIP3   OH280137   5.969   4.465  10.519  0.0859  0.4027 -0.2486
19549TIP3    H180138   5.951   4.549  10.560  2.1879  0.8608 -0.1497
19549TIP3    H280139   6.059   4.473  10.486  0.7873 -2.1781  0.7709
19550TIP3   OH280140   4.424   2.407   2.288 -0.1487  0.0975  0.9363
19550TIP3    H180141   4.374   2.487   2.274  1.0032  0.7932  0.6647
19550TIP3    H280142   4.405   2.354   2.210 -0.0774  0.5569  0.6007
19551TIP3   OH280143   4.953   6.821  15.016  0.1874  0.5035  0.2983
19551TIP3    H180144   5.028   6.762  15.006  0.8857  1.4342 -0.1121
19551TIP3    H280145   4.884   6.766  15.053  1.1737 -0.2991  0.9967
19552TIP3   OH280146   1.473   4.484  15.554 -0.0972 -0.3496  0.4817
19552TIP3    H180147   1.425   4.501  15.472 -0.0112  1.0934  0.7102
19552TIP3    H280148   1.543   4.424  15.528  0.6947  1.0438 -0.8016
19553TIP3   OH280149   4.357   5.797  15.422 -0.5977  0.1935  0.4764
19553TIP3    H180150   4.303   5.719  15.407  0.6204 -0.3772 -1.3827
19553TIP3    H280151   4.422   5.768  15.486 -0.7899  0.0124  0.5935
19554TIP3   OH280152   3.067   2.382   3.157 -0.4479 -0.4249  0.6383
19554TIP3    H180153   3.023   2.380   3.072  2.4519  0.2598 -1.0266
19554TIP3    H280154   3.102   2.294   3.167 -0.8593 -0.5281  1.1792
19555TIP3   OH280155   3.178   0.366  14.892  0.2396  0.0616 -0.6814
19555TIP3    H180156   3.158   0.356  14.985  1.3792  0.1986 -0.4063
19555TIP3    H280157   3.142   0.452  14.869  1.2744  0.6948  0.0177
19556TIP3   OH280158   0.631   3.058  12.134  0.4692 -0.3452 -0.0775
19556TIP3    H180159   0.613   3.076  12.042  1.6496  1.9833  0.0774
19556TIP3    H280160   0.573   3.117  12.183  1.3429 -0.0301  0.6107
19557TIP3   OH280161   6.267   4.811  12.010  0.1556  0.8625 -0.7408
19557TIP3    H180162   6.200   4.743  11.999  0.6659  0.7181 -3.9939
19557TIP3    H280163   6.218   4.892  12.024 -0.5704  0.3880 -0.4648
19558TIP3   OH280164   4.752   3.305   3.217  0.1954 -0.1279 -0.5720
19558TIP3    H180165   4.734   3.362   3.292  0.7250 -0.4028 -0.2304
19558TIP3    H280166   4.672   3.308   3.165 -1.4196 -2.3811  1.5514
19559TIP3   OH280167   0.183   6.306   2.868 -0.4093  0.1008  0.2814
19559TIP3    H180168   0.093   6.296   2.838 -0.8020  0.9641  1.1094
19559TIP3    H280169   0.228   6.229   2.836 -1.4980 -0.4552  0.0466
19560TIP3   OH280170   4.150   3.103  12.173  0.1851  0.2557 -0.3381
19560TIP3    H180171   4.234   3.148  12.164 -0.4640  1.8623  1.1192
19560TIP3    H280172   4.108   3.114  12.087  1.4134 -0.5045 -1.0554
19561TIP3   OH280173   3.707   4.914  16.760  0.3342 -0.2946  0.2206
19561TIP3    H180174   3.696   5.005  16.731 -0.3959 -0.5438 -0.3153
19561TIP3    H280175   3.802   4.902  16.765  0.4453  0.7298  1.0611
19562TIP3   OH280176   4.980   1.557  14.983 -0.2646 -1.0475  0.0298
19562TIP3    H180177   5.074   1.573  14.984 -0.3714 -0.3146 -0.4943
19562TIP3    H280178   4.968   1.490  14.916 -0.1562 -0.8042 -0.2382
19563TIP3   OH280179   3.148   3.814  16.715 -0.1779 -0.1469 -0.0825
19563TIP3    H180180   3.088   3.769  16.775  0.6604 -0.7446  0.3250
19563TIP3    H280181   3.224   3.756  16.710  0.6854  0.9525 -0.0110
19564TIP3   OH280182   4.705   6.457   0.773 -0.0042 -0.2415  0.0333
19564TIP3    H180183   4.713   6.443   0.867 -1.8597  1.2201  0.4747
19564TIP3    H280184   4.729   6.373   0.734 -0.6686 -1.3628  1.8934
19565TIP3   OH280185   2.552   0.658  15.143 -0.2734  0.1027  0.0749
19565TIP3    H180186   2.565   0.628  15.053 -0.8013  0.6615 -0.1985
19565TIP3    H280187   2.615   0.729  15.155  0.8784 -0.9740  0.6762
19566TIP3   OH280188   6.689   3.039  14.989  0.4656 -0.0408  0.4978
19566TIP3    H180189   6.744   3.115  14.971  1.0586 -0.4192  0.6819
19566TIP3    H280190   6.744   2.963  14.967 -0.1126 -0.4146  0.3286
19567TIP3   OH280191   3.551   2.881   4.872 -0.3326 -0.4058  0.2027
19567TIP3    H180192   3.582   2.944   4.937  1.9598 -1.0448 -0.1746
19567TIP3    H280193   3.581   2.917   4.788 -2.9749  0.2520 -0.5630
19568TIP3   OH280194   3.530   6.681   0.895 -0.3630 -0.6833 -0.5971
19568TIP3    H180195   3.508   6.599   0.850 -1.2153 -2.4531  2.7206
19568TIP3    H280196   3.622   6.696   0.873 -0.3999 -2.0544 -1.9014
19569TIP3   OH280197   0.509   1.670  15.721 -0.0356  0.3171  1.0350
19569TIP3    H180198   0.582   1.612  15.699 -1.4491 -1.5777  1.0139
19569TIP3    H280199   0.451   1.615  15.774 -1.8742  1.4501  0.2908
19570TIP3   OH280200   6.447   6.779   0.559 -0.5582  0.2903 -0.6615
19570TIP3    H180201   6.407   6.745   0.639 -1.5378 -0.1378 -1.3184
19570TIP3    H280202   6.530   6.816   0.588 -0.1565 -1.2682  0.3345
19571TIP3   OH280203   4.107   4.820   4.976 -0.1207 -0.4400 -0.2321
19571TIP3    H180204   4.098   4.792   5.067  0.0959  2.7152  0.8625
19571TIP3    H280205   4.195   4.791   4.950  1.2073  1.4919  1.7677
19572TIP3   OH280206   1.403   2.395  16.459 -0.1373  0.2323  0.1020
19572TIP3    H180207   1.473   2.349  16.505  0.3751  0.8096 -0.0925
19572TIP3    H280208   1.322   2.361  16.499  0.2955  0.9001  1.6216
19573TIP3   OH280209   5.739   2.788  10.927  0.2163 -0.2873  0.6502
19573TIP3    H180210   5.645   2.781  10.945 -0.4907 -0.9893 -2.5956
19573TIP3    H280211   5.744   2.858  10.861  1.8405 -0.8158  0.1787
19574TIP3   OH280212   1.819   1.135  11.354 -0.3285 -0.1656  0.5217
19574TIP3    H180213   1.829   1.200  11.284 -0.0116  0.0943  0.8027
19574TIP3    H280214   1.727   1.141  11.379 -0.2995  0.1955  0.5588
19575TIP3   OH280215   3.507   0.085   5.111  0.3483 -0.2618 -0.2791
19575TIP3    H180216   3.497  -0.004   5.146  1.0372 -0.0757  0.4221
19575TIP3    H280217   3.589   0.082   5.062  0.8887  0.2336  0.5756
19576TIP3   OH280218   5.168   0.647   4.659  0.2608 -0.3473  0.0725
19576TIP3    H180219   5.209   0.727   4.693  0.5215  0.0600 -1.1516
19576TIP3    H280220   5.155   0.664   4.566  3.0096 -2.7614 -0.9191
19577TIP3   OH280221   2.488   6.153   0.897 -0.6346  0.6062  0.0713
19577TIP3    H180222   2.473   6.080   0.957 -1.3414 -0.1040 -0.9430
19577TIP3    H280223   2.480   6.115   0.810  4.3373  0.7004 -0.6712
19578TIP3   OH280224   5.210   6.177  12.943 -0.3054 -0.2796  0.4391
19578TIP3    H180225   5.144   6.128  12.894  0.9885 -1.4301 -0.2136
19578TIP3    H280226   5.201   6.146  13.033 -3.3861  2.5728  1.3595
19579TIP3   OH280227   3.944   5.005  15.436 -0.5947  0.7814 -0.0002
19579TIP3    H180228   3.978   4.938  15.496  0.5204  0.8680 -0.5084
19579TIP3    H280229   3.985   5.086  15.464 -1.3627  1.1306  0.1433
19580TIP3   OH280230   3.581   2.524  14.260 -0.3642 -0.6322 -0.3516
19580TIP3    H180231   3.521   2.599  14.264 -0.3507 -0.5119 -2.0397
19580TIP3    H280232   3.525   2.448  14.275 -0.8533 -0.4757 -1.3404
19581TIP3   OH280233   1.968   2.029  14.381 -0.2372  0.4592  0.4086
19581TIP3    H180234   1.881   2.061  14.357 -0.7585 -1.2416 -0.1211
19581TIP3    H280235   1.956   1.986  14.465 -0.3910 -1.5095 -0.5569
19582TIP3   OH280236   4.815   1.914  15.519  0.7225  0.1785 -0.2206
19582TIP3    H180237   4.850   1.926  15.431  0.6161  1.2714 -0.1265
19582TIP3    H280238   4.765   1.833  15.514  2.4975 -0.9539 -0.5851
19583TIP3   OH280239   6.585   1.913   4.282  0.0270 -0.9954  0.2494
19583TIP3    H180240   6.523   1.909   4.210 -0.7712  1.3707  0.7129
19583TIP3    H280241   6.561   1.840   4.339 -1.5785 -0.8154 -0.1616
19584TIP3   OH280242   0.956   0.156  15.420  0.7362 -0.2197  0.0274
19584TIP3    H180243   0.912   0.072  15.434 -0.8699  0.4561 -0.7233
19584TIP3    H280244   0.932   0.209  15.496  1.9270 -0.4901  0.6093
19585TIP3   OH280245   3.592   6.244   5.451  0.4432  0.0315 -0.4296
19585TIP3    H180246   3.589   6.306   5.378 -0.1429 -0.3920 -0.7801
19585TIP3    H280247   3.663   6.274   5.506  2.4504 -0.9028 -2.3415
19586TIP3   OH280248   4.615   5.317  11.454 -0.0286 -0.2619 -0.1820
19586TIP3    H180249   4.580   5.368  11.527 -0.9101 -0.7547 -0.2492
19586TIP3    H280250   4.569   5.233  11.459 -0.7363  0.0099 -1.8200
19587TIP3   OH280251   1.343   3.441  14.461 -0.4808  0.6187 -0.2531
19587TIP3    H180252   1.352   3.412  14.371  1.3502 -1.2829  0.4612
19587TIP3    H280253   1.267   3.393  14.494 -0.3520  0.2892 -0.4292
19588TIP3   OH280254   3.694   3.721  13.933  0.2817  0.1020  0.3471
19588TIP3    H180255   3.725   3.632  13.913  0.6598  0.3003  0.0383
19588TIP3    H280256   3.773   3.770  13.955 -0.0176  0.1458  1.3913
19589TIP3   OH280257   5.147   4.802  15.265  0.5681  0.7432 -0.5464
19589TIP3    H180258   5.186   4.823  15.180 -0.0323  1.8022 -0.5684
19589TIP3    H280259   5.220   4.809  15.327  1.2746 -1.1590 -1.0973
19590TIP3   OH280260   1.067   1.652   1.660 -0.1834  0.3985 -0.2456
19590TIP3    H180261   0.997   1.587   1.658  0.5260 -0.3736 -0.9575
19590TIP3    H280262   1.128   1.618   1.726 -0.4988  1.0950  0.4118
19591TIP3   OH280263   6.300   4.071  17.067 -0.4722 -0.4359 -0.0613
19591TIP3    H180264   6.237   4.116  17.123  0.9501  0.5572  0.8080
19591TIP3    H280265   6.249   4.046  16.990 -1.9816  0.0927  0.7145
19592TIP3   OH280266   2.245   2.995   0.894  0.3074 -0.8564  0.3378
19592TIP3    H180267   2.311   3.031   0.954 -0.3093  2.4406 -0.7319
19592TIP3    H280268   2.292   2.986   0.811  0.1718 -1.5189  0.3322
19593TIP3   OH280269   5.442   1.363   0.032 -0.0675 -0.0027  0.3916
19593TIP3    H180270   5.359   1.325   0.061 -0.3979  0.1298 -0.3486
19593TIP3    H280271   5.472   1.414   0.107 -0.7660  0.1246  0.5998
19594TIP3   OH280272   4.955   5.470   5.208 -0.0789 -0.7988 -0.9461
19594TIP3    H180273   4.937   5.386   5.165 -1.3352 -0.9717 -0.1533
19594TIP3    H280274   5.050   5.481   5.202  0.0674 -2.1196 -1.3319
19595TIP3   OH280275   2.123   5.587   1.797  0.0778  0.3491  0.0210
19595TIP3    H180276   2.170   5.511   1.832  0.5817  1.1872  1.2492
19595TIP3    H280277   2.174   5.614   1.721  0.2485 -0.1652 -0.0485
19596TIP3   OH280278   5.792   0.896  13.560  0.2272  0.2521 -0.0269
19596TIP3    H180279   5.816   0.972  13.613  0.8191 -1.0129  1.6060
19596TIP3    H280280   5.742   0.840  13.619 -0.2953 -0.5814 -1.2201
19597TIP3   OH280281   4.361   1.794   6.408 -0.2682  0.8836  0.2562
19597TIP3    H180282   4.427   1.753   6.464 -0.8629 -0.7345 -0.1594
19597TIP3    H280283   4.386   1.886   6.404 -0.8624  1.3917  4.1662
19598TIP3   OH280284   2.491   5.173  16.379 -0.9160  0.1980  0.6749
19598TIP3    H180285   2.581   5.184  16.408 -0.6507 -1.7303  0.7243
19598TIP3    H280286   2.451   5.259  16.392  1.7365  2.1517 -2.4759
19599TIP3   OH280287   1.583   0.433   3.499 -0.3076  0.1194  0.2364
19599TIP3    H180288   1.503   0.405   3.455 -1.7245  1.2000  1.9793
19599TIP3    H280289   1.580   0.389   3.584  1.9096 -1.2287 -0.2807
19600TIP3   OH280290   3.523   3.960  11.188 -0.3170 -0.2663  0.1273
19600TIP3    H180291   3.590   3.908  11.231 -0.3526 -1.3597 -1.0886
19600TIP3    H280292   3.555   3.973  11.099 -1.6887 -0.8230 -0.4860
19601TIP3   OH280293   6.494   4.662  14.068 -0.4914  0.0376 -0.6575
19601TIP3    H180294   6.584   4.633  14.087 -1.4632 -2.3175  0.7808
19601TIP3    H280295   6.453   4.587  14.026 -1.9776  0.8660 -0.7455
19602TIP3   OH280296   2.412   6.105  12.052 -0.3949  0.1984  0.3086
19602TIP3    H180297   2.380   6.048  12.121  0.0705  0.7260  0.9773
19602TIP3    H280298   2.340   6.167  12.036 -0.8663 -0.5040 -0.3581
19603TIP3   OH280299   6.686   3.392   4.809 -0.2770  0.2055 -0.4126
19603TIP3    H180300   6.738   3.344   4.873 -3.0323 -2.1667  0.2984
19603TIP3    H280301   6.621   3.440   4.861 -1.0567  0.1645 -1.3091
19604TIP3   OH280302   1.928   5.867   4.527  0.6887  0.1348 -0.3733
19604TIP3    H180303   1.960   5.920   4.454 -0.6188  1.8969  0.2643
19604TIP3    H280304   1.854   5.819   4.492  2.5274 -2.2637 -1.2555
19605TIP3   OH280305   1.862   5.658   4.999  0.1344 -0.1868  0.1053
19605TIP3    H180306   1.827   5.704   4.923 -2.0000 -0.1138  1.0441
19605TIP3    H280307   1.915   5.587   4.963  0.4130  0.7506 -1.3990
19606TIP3   OH280308   6.660   4.862  12.123  0.2412  0.2569 -0.3750
19606TIP3    H180309   6.584   4.902  12.165 -0.0340 -0.5997 -0.0171
19606TIP3    H280310   6.736   4.905  12.162 -0.0583  0.9651 -0.5750
19607TIP3   OH280311   3.361   3.472   6.511  0.4012 -0.1764  0.1033
19607TIP3    H180312   3.440   3.451   6.560  0.4539 -0.4595 -0.1008
19607TIP3    H280313   3.320   3.388   6.492  0.3520 -0.0682 -0.2875
19608TIP3   OH280314   2.389   2.995   4.987  0.2386 -0.4262 -0.4735
19608TIP3    H180315   2.481   2.995   5.012  1.1915 -0.6881 -3.5975
19608TIP3    H280316   2.359   2.906   5.004  1.3610 -1.1099 -1.9275
19609TIP3   OH280317   0.984   4.222  10.602 -0.7954  0.9709  0.1623
19609TIP3    H180318   0.965   4.293  10.662  1.9623  1.3185  0.7109
19609TIP3    H280319   0.984   4.143  10.657  0.1551  1.0834  0.3290
19610TIP3   OH280320   6.186   2.200  14.892 -0.0440 -0.1365 -0.5797
19610TIP3    H180321   6.245   2.256  14.840 -1.3750 -0.3043 -2.3728
19610TIP3    H280322   6.231   2.116  14.896  0.1274 -0.0966 -1.4175
19611TIP3   OH280323   5.746   6.435   4.971 -0.3893 -0.2718 -0.0604
19611TIP3    H180324   5.756   6.414   5.064  0.0974 -2.6846 -0.5782
19611TIP3    H280325   5.653   6.422   4.954 -0.2478 -1.1943 -0.1768
19612TIP3   OH280326   6.052   2.435   3.610 -0.2279 -0.4142  0.2228
19612TIP3    H180327   6.033   2.352   3.655 -0.6330  0.3323  1.4713
19612TIP3    H280328   5.969   2.462   3.572  0.0089 -0.8023 -0.5890
19613TIP3   OH280329   2.531   5.650   6.425  0.4605 -0.3718 -0.4500
19613TIP3    H180330   2.555   5.581   6.487  0.6683  0.0285 -0.0735
19613TIP3    H280331   2.515   5.604   6.343  3.3128 -0.6270 -0.9623
19614TIP3   OH280332   1.841   4.765   2.745  0.5806 -0.1808  0.0624
19614TIP3    H180333   1.877   4.766   2.833 -0.0824 -2.1561  0.4122
19614TIP3    H280334   1.876   4.686   2.705 -0.5656 -0.2930 -0.7984
19615TIP3   OH280335   2.847   2.326  16.710 -0.1304 -0.5501  0.1853
19615TIP3    H180336   2.816   2.362  16.792 -0.5521 -0.1869 -0.1313
19615TIP3    H280337   2.805   2.240  16.704  0.7766 -1.0689  0.8751
19616TIP3   OH280338   0.412   3.531  12.154  0.0810  0.3597 -0.2787
19616TIP3    H180339   0.362   3.605  12.120 -0.1049 -0.4364 -1.8430
19616TIP3    H280340   0.496   3.536  12.109  0.2276 -0.1372 -0.0704
19617TIP3   OH280341   4.954   5.337   2.398  0.1396  0.3872 -0.2975
19617TIP3    H180342   4.927   5.373   2.314  0.6951 -0.3803 -0.8217
19617TIP3    H280343   5.047   5.315   2.386  0.1226 -0.1059  0.3785
19618TIP3   OH280344   4.078   2.755   1.026  0.0975  0.1759 -0.5974
19618TIP3    H180345   4.162   2.778   1.066 -0.3559  0.0630  0.4436
19618TIP3    H280346   4.058   2.828   0.968  0.5643  0.5457 -0.2961
19619TIP3   OH280347   1.576   6.122  13.965 -0.0679 -0.0485  0.2439
19619TIP3    H180348   1.602   6.213  13.952 -1.9640  0.4564 -0.4429
19619TIP3    H280349   1.653   6.071  13.940  0.0440  1.2929 -2.6343
19620TIP3   OH280350   0.717   2.634  11.444  0.0287 -0.9558  0.9537
19620TIP3    H180351   0.808   2.622  11.470  0.1816 -0.4070  0.6979
19620TIP3    H280352   0.722   2.693  11.368 -0.3936 -2.5392 -0.3593
19621TIP3   OH280353   5.541   1.735   0.714 -0.0855  0.4757 -0.1758
19621TIP3    H180354   5.541   1.814   0.768 -0.5292  1.1418 -1.1265
19621TIP3    H280355   5.452   1.701   0.722 -0.0465  0.3734 -0.1885
19622TIP3   OH280356   3.084   4.566   5.556 -0.3296  0.4676  0.0298
19622TIP3    H180357   3.135   4.644   5.574 -1.2803  0.9738  0.5994
19622TIP3    H280358   3.138   4.515   5.496  0.3195  1.5370 -0.3129
19623TIP3   OH280359   1.582   3.433   4.833 -0.0163 -0.8545  0.6387
19623TIP3    H180360   1.585   3.509   4.892  0.7115 -2.2585  2.5148
19623TIP3    H280361   1.491   3.430   4.803  0.1403  1.2620 -0.2458
19624TIP3   OH280362   0.595   6.038   0.992 -0.0167 -0.1671  0.2107
19624TIP3    H180363   0.588   6.015   1.085  3.6390 -1.3072  0.3854
19624TIP3    H280364   0.607   5.954   0.947  1.7225  0.5320 -0.7640
19625TIP3   OH280365   1.010   1.022   5.833  0.5599  0.0607 -0.3063
19625TIP3    H180366   1.070   1.096   5.827 -2.1192  2.3713 -0.6768
19625TIP3    H280367   0.988   1.017   5.926 -1.1935  1.4958 -0.5909
19626TIP3   OH280368   1.033   4.604   1.115  0.8159 -0.1730 -0.2781
19626TIP3    H180369   1.068   4.689   1.140  1.3751 -0.3880 -0.3210
19626TIP3    H280370   0.954   4.625   1.063  0.3114  0.2884  0.6558
19627TIP3   OH280371   5.055   6.012  16.853  0.4053 -0.2952  0.1633
19627TIP3    H180372   5.023   6.101  16.862 -1.6263 -1.1212  2.2134
19627TIP3    H280373   5.115   6.000  16.927  0.7136 -0.6201 -0.1344
19628TIP3   OH280374   6.844   5.845   2.128  0.2015  0.1916 -0.2471
19628TIP3    H180375   6.826   5.929   2.169 -0.5153 -0.4827  0.9080
19628TIP3    H280376   6.865   5.787   2.201  0.5028 -0.6728 -1.0004
19629TIP3   OH280377   1.549   2.980   3.069 -0.0449  0.3767  0.5203
19629TIP3    H180378   1.623   3.039   3.053 -0.0406 -0.1767 -2.0556
19629TIP3    H280379   1.590   2.896   3.091  0.0435  0.5496  1.0145
19630TIP3   OH280380   4.094   0.730   4.929 -0.2063 -0.6607 -0.2063
19630TIP3    H180381   4.179   0.724   4.887 -0.3835 -1.1546 -0.5010
19630TIP3    H280382   4.050   0.648   4.907 -1.1770  0.0259 -0.9775
19631TIP3   OH280383   0.313   3.071  11.961 -0.3049 -0.2090  0.4582
19631TIP3    H180384   0.300   3.154  12.007 -0.3408 -0.3200  0.6478
19631TIP3    H280385   0.403   3.076  11.928 -0.2482 -0.1690  0.6194
19632TIP3   OH280386   4.025   0.391   2.085 -0.1690  0.4449 -0.3117
19632TIP3    H180387   4.053   0.375   1.995 -0.1968 -2.1377  0.0589
19632TIP3    H280388   3.933   0.415   2.078 -0.0594  0.6848 -0.9797
19633TIP3   OH280389   5.408   6.804   6.542  0.0890  0.1480  0.0808
19633TIP3    H180390   5.473   6.808   6.612  0.3073  3.8095 -0.1372
19633TIP3    H280391   5.452   6.844   6.466 -1.3248 -0.4087 -1.0910
19634TIP3   OH280392   0.965   1.738   4.694  0.7694  0.5015  0.1548
19634TIP3    H180393   0.893   1.797   4.717  1.6035  1.1478  1.2463
19634TIP3    H280394   1.024   1.793   4.642  1.5310  0.6581  1.1445
19635TIP3   OH280395   2.843   4.337  10.697 -0.2391  0.2733  0.2476
19635TIP3    H180396   2.916   4.354  10.756 -1.1726 -0.5340  1.6950
19635TIP3    H280397   2.806   4.424  10.678  0.8047  0.6448 -0.1622
19636TIP3   OH280398   0.378   2.435   0.504 -0.2882  0.3176  0.8283
19636TIP3    H180399   0.375   2.344   0.534 -0.6321  0.3983  1.0452
19636TIP3    H280400   0.297   2.447   0.455  0.8108 -0.1749 -1.2362
19637TIP3   OH280401   6.789   4.043   4.666 -0.3323 -0.1616  0.1722
19637TIP3    H180402   6.742   4.091   4.598  0.5301 -0.6232 -0.7808
19637TIP3    H280403   6.865   4.006   4.621 -0.0743 -1.0041  1.2559
19638TIP3   OH280404   1.390   5.374   2.227 -0.2250 -0.4362  0.6224
19638TIP3    H180405   1.367   5.351   2.137 -0.4219  0.4795  0.4266
19638TIP3    H280406   1.316   5.428   2.257  1.0008  1.3876  0.4707
19639TIP3   OH280407   5.754   4.734   4.174 -0.5865 -0.0742  0.4218
19639TIP3    H180408   5.734   4.654   4.223  2.9609 -1.7605 -0.5485
19639TIP3    H280409   5.752   4.707   4.082 -1.2024  1.4921 -0.0616
19640TIP3   OH280410   2.402   2.638  17.138 -0.2691  0.0119 -0.0637
19640TIP3    H180411   2.369   2.715  17.184  0.0332  0.5495 -0.7359
19640TIP3    H280412   2.464   2.673  17.074 -1.1081 -0.6768 -1.2729
19641TIP3   OH280413   4.197   2.526   3.088 -0.3221 -0.2979 -0.0950
19641TIP3    H180414   4.269   2.576   3.049 -0.4111 -0.4947 -0.5236
19641TIP3    H280415   4.229   2.436   3.089 -0.9778 -0.5779 -1.3461
19642TIP3   OH280416   4.109   1.348   2.290  0.6366  0.2289  0.2485
19642TIP3    H180417   4.114   1.443   2.282  0.0989  0.2107 -0.4289
19642TIP3    H280418   4.054   1.333   2.366 -0.4669  0.4816 -0.4749
19643TIP3   OH280419   3.619   4.873  16.090  0.1868 -0.1426 -0.2704
19643TIP3    H180420   3.574   4.953  16.061 -0.5880 -0.7052 -0.6607
19643TIP3    H280421   3.711   4.897  16.091 -0.1210  1.1322  0.8345
19644TIP3   OH280422   1.856   0.787  14.689  0.7389 -0.5397  0.1034
19644TIP3    H180423   1.767   0.823  14.690  1.0947  0.4070 -0.9796
19644TIP3    H280424   1.888   0.804  14.601  3.4873  2.8165  1.4979
19645TIP3   OH280425   2.590   4.403  11.527  0.2516 -0.1484  0.6428
19645TIP3    H180426   2.597   4.428  11.619 -1.6260  2.0488  0.2898
19645TIP3    H280427   2.596   4.486  11.480  0.6429 -1.1778 -1.1950
19646TIP3   OH280428   4.191   4.966  17.106  0.3542 -0.3854  0.3025
19646TIP3    H180429   4.206   4.973  17.012  2.8215 -0.0730  0.6563
19646TIP3    H280430   4.218   4.876  17.127 -1.6616 -0.9821  0.5204
19647TIP3   OH280431   1.323   0.210   4.375 -0.3923  0.4405  0.4806
19647TIP3    H180432   1.251   0.270   4.394 -1.0980 -1.0329  2.8126
19647TIP3    H280433   1.282   0.138   4.328  0.0332  0.6943 -0.2959
19648TIP3   OH280434   4.382   1.176   3.875 -0.1391 -0.0944 -0.5327
19648TIP3    H180435   4.417   1.108   3.932  0.5254  0.6960  0.0138
19648TIP3    H280436   4.414   1.152   3.788 -0.1815 -0.6576 -0.3979
19649TIP3   OH280437   2.758   1.707   5.002 -0.4278 -0.3980 -0.0261
19649TIP3    H180438   2.753   1.618   4.968  0.5864  0.2079 -1.9550
19649TIP3    H280439   2.824   1.703   5.071 -1.9641 -1.5184  1.4487
19650TIP3   OH280440   5.406   0.148  11.808  0.0178 -0.4482 -0.2824
19650TIP3    H180441   5.440   0.171  11.722  0.9215 -0.3885  0.0786
19650TIP3    H280442   5.481   0.111  11.854 -0.4820 -0.5756  0.4456
19651TIP3   OH280443   1.544   0.319  10.975 -0.1401  0.2908 -0.3831
19651TIP3    H180444   1.475   0.280  10.921 -0.1557 -0.1074 -0.0847
19651TIP3    H280445   1.611   0.346  10.913 -0.1667 -0.1428 -0.6043
19652TIP3   OH280446   3.254   1.469   3.884 -0.1494  0.3503  0.1651
19652TIP3    H180447   3.231   1.534   3.818  1.3145  0.7992  0.0514
19652TIP3    H280448   3.295   1.398   3.835  0.3205  0.3782  0.5089
19653TIP3   OH280449   2.451   0.516  11.429 -0.5578  0.2001  0.3887
19653TIP3    H180450   2.364   0.546  11.404 -0.6789  0.6062  1.2788
19653TIP3    H280451   2.438   0.463  11.507 -0.1111 -0.5226 -0.0203
19654TIP3   OH280452   5.374   4.719  16.942  0.0656  0.1278  0.1728
19654TIP3    H180453   5.364   4.722  16.847  2.8353 -0.9862 -0.2583
19654TIP3    H280454   5.442   4.783  16.961 -0.0918 -0.0293  1.3343
19655TIP3   OH280455   4.888   2.984  16.251 -0.4077  0.3143 -0.5207
19655TIP3    H180456   4.952   2.914  16.241 -1.5184 -0.7736 -0.2395
19655TIP3    H280457   4.869   3.012  16.161 -0.0397  0.1875 -0.6396
19656TIP3   OH280458   3.849   3.249  12.146  0.0359 -0.5994 -0.6224
19656TIP3    H180459   3.824   3.270  12.056 -0.1339  1.2947 -0.1938
19656TIP3    H280460   3.932   3.295  12.159  0.3242 -1.2889  0.0287
19657TIP3   OH280461   3.570   5.714   5.358 -0.3142  0.1000 -0.2090
19657TIP3    H180462   3.595   5.656   5.430  0.8484  0.8838  0.0408
19657TIP3    H280463   3.477   5.732   5.373 -0.2788 -0.3633  0.6491
19658TIP3   OH280464   1.388   2.159   4.103 -0.2158 -0.1501 -0.4129
19658TIP3    H180465   1.312   2.215   4.087  0.1665  0.4970 -0.0038
19658TIP3    H280466   1.429   2.149   4.017  0.2160  0.9349 -0.3386
19659TIP3   OH280467   0.976   6.144   0.382  0.1285 -0.7711  0.0818
19659TIP3    H180468   1.042   6.134   0.313  1.0700 -1.1416  1.0125
19659TIP3    H280469   0.941   6.056   0.394  0.4497 -0.8410  0.5326
19660TIP3   OH280470   6.041   3.226   2.316  0.2682  0.5206 -0.7251
19660TIP3    H180471   6.028   3.185   2.401 -0.7419  0.2771 -0.9841
19660TIP3    H280472   6.130   3.199   2.290  0.0435 -0.6080 -0.3937
19661TIP3   OH280473   5.657   2.503  16.795  0.0447 -0.0040  0.0923
19661TIP3    H180474   5.642   2.477  16.886 -0.1353 -0.1525  0.0219
19661TIP3    H280475   5.571   2.495  16.754  0.3731 -1.2375 -0.4107
19662TIP3   OH280476   6.010   6.468  11.380 -0.0861 -0.4732  0.6218
19662TIP3    H180477   5.945   6.409  11.343 -0.0382 -0.5473  0.6552
19662TIP3    H280478   6.069   6.411  11.430 -0.9416 -0.2256  1.9671
19663TIP3   OH280479   3.275   0.162  13.500  0.7818 -0.1377  0.5615
19663TIP3    H180480   3.246   0.180  13.411  1.1914  0.3647  0.5288
19663TIP3    H280481   3.231   0.080  13.523 -1.8156  1.2697  1.0191
19664TIP3   OH280482   1.613   2.054  11.020 -0.0943  0.3038 -0.1349
19664TIP3    H180483   1.636   2.129  11.076 -4.3597  2.6995 -1.1513
19664TIP3    H280484   1.680   2.054  10.952  0.9370  2.1902  0.7972
19665TIP3   OH280485   4.875   0.432   3.367  0.4735  0.0055  1.1085
19665TIP3    H180486   4.881   0.502   3.432  0.4710 -0.7699  1.9630
19665TIP3    H280487   4.869   0.352   3.419  0.0804 -0.6009  0.1497
19666TIP3   OH280488   3.955   3.410   2.755  0.5764  0.7874  0.1099
19666TIP3    H180489   4.020   3.356   2.709 -1.1229 -4.2182  2.8565
19666TIP3    H280490   4.000   3.438   2.835  0.7415  1.5627 -0.2423
19667TIP3   OH280491   1.501   2.131   3.862 -0.6876  0.7830  0.4363
19667TIP3    H180492   1.471   2.197   3.800  1.9873  2.3967  0.6730
19667TIP3    H280493   1.507   2.050   3.811  1.1705  1.9923 -1.4581
19668TIP3   OH280494   5.582   4.893   1.511  1.0811  0.4012 -0.2163
19668TIP3    H180495   5.610   4.984   1.522  0.4177  0.6996 -0.9012
19668TIP3    H280496   5.487   4.895   1.528  0.6663  0.2357 -2.2466
19669TIP3   OH280497   1.211   5.628   3.734  0.0737 -0.2330  0.6239
19669TIP3    H180498   1.249   5.566   3.672  1.0263 -0.3722  1.3399
19669TIP3    H280499   1.131   5.659   3.690  0.3695 -0.8375 -0.3746
19670TIP3   OH280500   4.484   4.376   4.288  0.8520 -0.3452 -1.0764
19670TIP3    H180501   4.468   4.291   4.329  1.8843 -0.2184 -0.3668
19670TIP3    H280502   4.470   4.439   4.359  1.9456 -0.0683 -1.0805
19671TIP3   OH280503   3.516   2.553   1.018  0.6336  0.0453  0.3705
19671TIP3    H180504   3.530   2.481   0.956 -1.2794 -0.3933  0.4066
19671TIP3    H280505   3.604   2.586   1.035  1.3062 -0.4022 -1.8658
19672TIP3   OH280506   2.983   2.444   4.984  0.2674 -0.1944 -0.6302
19672TIP3    H180507   2.951   2.385   4.915  0.6521  0.7302 -1.6220
19672TIP3    H280508   2.990   2.388   5.062 -0.4414 -1.1957 -1.2640
19673TIP3   OH280509   1.339   5.563  16.005 -0.2871 -0.2410  0.3376
19673TIP3    H180510   1.313   5.644  16.049  1.9789  0.7135  0.1078
19673TIP3    H280511   1.382   5.512  16.074  0.1509 -0.3023  0.0222
19674TIP3   OH280512   5.961   4.228   3.027  0.5037  0.4746 -0.1742
19674TIP3    H180513   5.923   4.284   3.094 -0.1630  0.8768 -0.8788
19674TIP3    H280514   5.977   4.145   3.072 -2.7717 -0.2911 -0.2048
19675TIP3   OH280515   2.668   5.509   1.337  0.0814 -0.0655 -0.7211
19675TIP3    H180516   2.664   5.450   1.413  1.0755 -0.7836 -1.2022
19675TIP3    H280517   2.596   5.482   1.281  0.0777 -0.3384 -0.5869
19676TIP3   OH280518   1.847   6.808  16.259 -0.1083 -0.3320 -0.4932
19676TIP3    H180519   1.855   6.901  16.283  2.0863  0.3872 -3.4714
19676TIP3    H280520   1.928   6.768  16.290 -0.6613 -1.1053  0.0014
19677TIP3   OH280521   5.374   4.636  16.368 -0.1954 -0.0280  0.2542
19677TIP3    H180522   5.440   4.641  16.437 -1.1047  1.9103  1.0565
19677TIP3    H280523   5.302   4.585  16.406  0.5679 -1.7064 -0.4426
19678TIP3   OH280524   0.153   3.575  11.107  0.0003 -0.0526  0.4324
19678TIP3    H180525   0.089   3.556  11.176 -0.1172 -3.1694 -0.3925
19678TIP3    H280526   0.105   3.629  11.044 -1.8162 -2.0416 -0.0120
19679TIP3   OH280527   3.022   0.923   1.312 -0.1101  0.1730 -0.0088
19679TIP3    H180528   3.036   0.962   1.226  0.7776 -1.4028 -0.6359
19679TIP3    H280529   3.078   0.972   1.371  0.8067  0.0064 -0.7280
19680TIP3   OH280530   0.009   5.624  17.122  0.2771  0.0861 -0.2966
19680TIP3    H180531   0.086   5.655  17.074  0.2483  0.7743  0.1004
19680TIP3    H280532  -0.064   5.640  17.062  0.5254 -1.3863 -1.0435
19681TIP3   OH280533   0.342   5.171  11.984  0.8211  0.3505  0.3961
19681TIP3    H180534   0.295   5.251  11.963  1.6270  1.6684  3.1013
19681TIP3    H280535   0.320   5.110  11.914  1.6321  3.4440 -2.8186
19682TIP3   OH280536   0.889   2.224  12.102  0.4441 -0.3290 -0.1314
19682TIP3    H180537   0.946   2.297  12.079  2.1150 -1.3538  0.5634
19682TIP3    H280538   0.821   2.263  12.157  1.8566  0.5832  1.0292
19683TIP3   OH280539   5.256   1.251   1.207 -0.3685  0.5457 -0.3991
19683TIP3    H180540   5.244   1.341   1.239  0.5581  1.2303 -1.8803
19683TIP3    H280541   5.343   1.226   1.238  0.0161  0.7529 -1.2816
19684TIP3   OH280542   6.768   1.431  14.169  0.8118 -0.0710 -0.1704
19684TIP3    H180543   6.717   1.465  14.243 -1.5422 -2.2867 -0.6104
19684TIP3    H280544   6.783   1.506  14.113  1.2552  1.3570  1.7424
19685TIP3   OH280545   1.633   4.937   4.891 -0.0555 -0.4332  0.0124
19685TIP3    H180546   1.539   4.929   4.906 -0.1524 -0.7880 -0.7218
19685TIP3    H280547   1.656   4.860   4.839  0.9276 -1.1487  1.4294
19686TIP3   OH280548   4.024   5.684   4.774 -0.3166 -0.4787  0.0504
19686TIP3    H180549   4.107   5.637   4.782  0.3829  0.6335 -0.4773
19686TIP3    H280550   4.014   5.698   4.680 -1.1686 -0.6934  0.0989
19687TIP3   OH280551   3.387   1.041   5.117 -0.1947 -0.3200  0.0553
19687TIP3    H180552   3.452   1.064   5.051  0.7557 -0.3958  0.9243
19687TIP3    H280553   3.352   1.125   5.146 -0.5510 -0.2827 -0.4838
19688TIP3   OH280554   4.341   5.453  14.602 -0.0113  0.0589  0.0025
19688TIP3    H180555   4.357   5.382  14.539  0.5793  0.6804 -0.5578
19688TIP3    H280556   4.293   5.411  14.673  1.2844 -1.1643  0.1998
19689TIP3   OH280557   2.175   6.661   5.505 -0.0286  0.1758  0.3383
19689TIP3    H180558   2.140   6.705   5.428 -0.4247 -1.3634 -0.3956
19689TIP3    H280559   2.172   6.728   5.574  0.0931  1.5011 -0.8912
19690TIP3   OH280560   5.457   3.275  15.071 -0.5110 -0.0916  0.1274
19690TIP3    H180561   5.526   3.329  15.110  0.1765  0.5945 -1.8704
19690TIP3    H280562   5.503   3.216  15.011 -1.6315  0.5808 -1.4801
19691TIP3   OH280563   2.999   1.788   3.931 -0.4935 -0.0211  0.4769
19691TIP3    H180564   2.976   1.861   3.988 -1.3697 -0.5339  0.7926
19691TIP3    H280565   2.922   1.732   3.931  0.4395 -1.3409  0.8443
19692TIP3   OH280566   6.712   5.079  11.433 -0.6202  0.2007 -0.5885
19692TIP3    H180567   6.753   5.000  11.469 -0.5016  1.1870  1.5994
19692TIP3    H280568   6.634   5.046  11.388 -0.6899 -1.1797  0.4477
19693TIP3   OH280569   6.207   4.766   4.918 -0.0764 -0.5886 -0.6214
19693TIP3    H180570   6.178   4.701   4.983 -1.0183 -0.5567 -0.9868
19693TIP3    H280571   6.215   4.716   4.837  1.7921 -0.7765 -0.3624
19694TIP3   OH280572   2.174   0.086   4.142  1.0664  0.0691  0.1220
19694TIP3    H180573   2.119   0.032   4.085  0.5112 -1.4794  1.9948
19694TIP3    H280574   2.225   0.140   4.082 -1.5540  0.6603 -1.7475
19695TIP3   OH280575   4.268   5.152  12.136  0.8597  0.0702 -0.0461
19695TIP3    H180576   4.303   5.192  12.216  1.5498  1.3383 -0.9709
19695TIP3    H280577   4.334   5.087  12.111  0.8782  0.0213  0.1249
19696TIP3   OH280578   5.782   1.891   3.889 -0.6883 -0.4797 -0.4509
19696TIP3    H180579   5.871   1.857   3.877 -0.3489 -0.2824  1.2056
19696TIP3    H280580   5.738   1.873   3.806  0.9903 -0.2891 -1.4389
19697TIP3   OH280581   2.011   1.371  16.814 -0.1314  0.6842  0.3653
19697TIP3    H180582   2.016   1.452  16.865 -1.3407 -0.2427  2.0898
19697TIP3    H280583   2.061   1.308  16.865 -0.8438 -0.1232  0.0903
19698TIP3   OH280584   3.340   5.965   2.031 -0.3425  0.2501  0.0859
19698TIP3    H180585   3.308   5.875   2.024 -0.8944  0.4139  0.4689
19698TIP3    H280586   3.363   5.975   2.124 -0.8809  0.7021  0.1728
19699TIP3   OH280587   4.352   1.897  14.381  0.1349  0.2871  1.0142
19699TIP3    H180588   4.351   1.905  14.286 -0.9136 -1.1048  0.8898
19699TIP3    H280589   4.300   1.972  14.412 -0.7086 -0.0398  0.4188
19700TIP3   OH280590   3.235   1.244   3.554 -0.3432 -0.4128 -0.3042
19700TIP3    H180591   3.154   1.223   3.508 -0.5788 -1.4098  0.5185
19700TIP3    H280592   3.266   1.160   3.588  0.6668  0.0583 -0.0077
19701TIP3   OH280593   4.313   3.229  14.882 -0.5449  0.2617 -0.3722
19701TIP3    H180594   4.249   3.295  14.906 -1.7962 -1.0105 -0.1135
19701TIP3    H280595   4.275   3.146  14.911  1.0588 -0.5691 -0.5202
19702TIP3   OH280596   4.528   6.739  12.235  0.2354 -0.0610 -0.4870
19702TIP3    H180597   4.552   6.737  12.328 -0.4907  0.8369 -0.2724
19702TIP3    H280598   4.522   6.831  12.213 -1.1486 -0.2525 -1.0153
19703TIP3   OH280599   6.628   5.147  12.380 -0.1932 -0.7983 -0.2149
19703TIP3    H180600   6.574   5.076  12.345 -1.5703  0.4239 -0.6805
19703TIP3    H280601   6.600   5.157  12.471  0.7989 -1.5760  0.1853
19704TIP3   OH280602   5.618   1.159  13.294 -0.4782  0.4071 -0.4409
19704TIP3    H180603   5.643   1.202  13.376  0.1917 -1.2539  0.2627
19704TIP3    H280604   5.698   1.160  13.241 -0.3931 -0.1718 -0.3274
19705TIP3   OH280605   1.333   3.440   3.077  0.1343  0.7240 -0.2284
19705TIP3    H180606   1.295   3.397   3.001 -0.9299  0.5109  0.4133
19705TIP3    H280607   1.379   3.369   3.124 -0.7360  0.4830  0.2751
19706TIP3   OH280608   3.780   5.715   3.590  0.3860  0.1571 -0.0257
19706TIP3    H180609   3.741   5.741   3.506 -1.0136  1.0361  0.8473
19706TIP3    H280610   3.782   5.796   3.641 -0.0626 -0.6126  1.2610
19707TIP3   OH280611   0.257   2.590   1.935  0.0423 -0.8147  0.7224
19707TIP3    H180612   0.282   2.528   2.004 -0.0122 -0.1048  1.3912
19707TIP3    H280613   0.164   2.574   1.921  0.5710 -2.6943 -0.9824
19708TIP3   OH280614   1.248   4.336   1.344  0.2510  0.1470  0.3900
19708TIP3    H180615   1.241   4.344   1.439 -2.8048  0.8745  0.2053
19708TIP3    H280616   1.279   4.422   1.315  1.5158 -0.1817  0.7083
19709TIP3   OH280617   1.280   6.350  16.811 -0.5387 -0.4051  0.2917
19709TIP3    H180618   1.290   6.294  16.888 -0.7936 -0.0703  0.5677
19709TIP3    H280619   1.279   6.439  16.845 -0.7323 -0.2572 -0.0896
19710TIP3   OH280620   3.375   2.977   4.427 -0.2946  0.1341 -0.5725
19710TIP3    H180621   3.370   2.951   4.335  1.9099  0.3528 -0.8045
19710TIP3    H280622   3.370   3.073   4.425  0.5323  0.1789 -0.5386
19711TIP3   OH280623   6.295   6.162   1.683  0.6743 -0.1445  0.0579
19711TIP3    H180624   6.345   6.151   1.603 -1.0731  1.9219 -1.4116
19711TIP3    H280625   6.238   6.085   1.686 -0.2493  0.4428 -1.4847
19712TIP3   OH280626   3.569   1.211   1.692  0.2332 -0.2191 -0.1305
19712TIP3    H180627   3.651   1.207   1.644 -0.4370 -0.6431 -1.2650
19712TIP3    H280628   3.511   1.150   1.647 -0.6526 -0.0693  0.7663
19713TIP3   OH280629   5.696   1.456  14.564  0.4459 -0.3024  0.1223
19713TIP3    H180630   5.603   1.455  14.543  0.5082  0.3919 -0.2329
19713TIP3    H280631   5.723   1.365  14.561 -0.2442 -0.5219  0.3345
19714TIP3   OH280632   4.796   5.381   3.339  0.1610  0.2959  0.4615
19714TIP3    H180633   4.793   5.405   3.432 -1.5427  3.0875 -0.1828
19714TIP3    H280634   4.740   5.304   3.332  2.4357 -1.6368  2.0651
19715TIP3   OH280635   1.984   3.524   3.599 -0.1094 -0.0837 -0.3640
19715TIP3    H180636   1.983   3.616   3.626 -0.9139 -0.4324  0.8505
19715TIP3    H280637   2.070   3.492   3.626 -0.5891 -0.2084  1.0842
19716TIP3   OH280638   4.225   4.964   1.340 -0.2484  0.6855  0.2616
19716TIP3    H180639   4.136   4.979   1.307 -0.7439  0.1733  1.2825
19716TIP3    H280640   4.211   4.935   1.431  1.0299  1.8139  0.8381
19717TIP3   OH280641   5.845   4.773  15.080 -0.5631 -0.2069 -0.3841
19717TIP3    H180642   5.914   4.732  15.027 -0.5542 -0.1756 -0.3970
19717TIP3    H280643   5.787   4.701  15.104 -0.3839 -0.2753 -0.1557
19718TIP3   OH280644   3.520   1.144  14.626  0.5460 -0.8896 -0.6002
19718TIP3    H180645   3.614   1.127  14.621  0.6863 -0.4125  0.2100
19718TIP3    H280646   3.490   1.139  14.536  1.6654  0.6321 -1.0990
19719TIP3   OH280647   3.851   3.894   3.627  0.4190 -0.2056  0.2042
19719TIP3    H180648   3.790   3.922   3.696  0.7249  1.3325 -0.1176
19719TIP3    H280649   3.796   3.847   3.564 -0.3548  0.6985  0.1811
19720TIP3   OH280650   3.660   3.700   0.958  0.1576 -0.0386 -0.3933
19720TIP3    H180651   3.667   3.709   1.053 -0.5389  0.7257 -0.3975
19720TIP3    H280652   3.568   3.675   0.943  0.2841 -0.2358 -0.8591
19721TIP3   OH280653   5.250   4.701   5.652  0.4068  0.4681 -0.4687
19721TIP3    H180654   5.265   4.783   5.700 -0.7027  1.0247 -1.0418
19721TIP3    H280655   5.182   4.722   5.589  1.4829 -0.3705 -1.9831
19722TIP3   OH280656   3.035   4.172  13.255  0.4733  0.1281 -0.6210
19722TIP3    H180657   3.105   4.117  13.289  0.2791  0.1002 -0.2655
19722TIP3    H280658   2.986   4.114  13.197 -0.1225 -0.2689  0.2596
19723TIP3   OH280659   4.473   6.176   0.589  0.6845  0.4841  0.6524
19723TIP3    H180660   4.381   6.160   0.608  1.1353 -1.3376  1.5341
19723TIP3    H280661   4.503   6.096   0.545  1.6007  1.4862 -0.6406
19724TIP3   OH280662   0.763   1.917   5.583  0.3381  0.2141  0.4050
19724TIP3    H180663   0.794   1.889   5.669  2.3710  1.1436  0.0333
19724TIP3    H280664   0.702   1.848   5.556  0.6908 -0.7715  2.0115
19725TIP3   OH280665   5.553   1.440  13.827 -0.4447  0.1880  0.0221
19725TIP3    H180666   5.582   1.528  13.804 -1.2767  1.1273  2.1908
19725TIP3    H280667   5.471   1.428  13.778  0.8227 -0.3788 -2.0705
19726TIP3   OH280668   4.264   3.597   3.532  0.1736 -0.2263  0.7705
19726TIP3    H180669   4.347   3.640   3.551  0.8537 -0.7800 -0.8061
19726TIP3    H280670   4.198   3.652   3.574  1.2281  0.9138  0.9848
19727TIP3   OH280671   5.318   4.148   3.088 -0.2549 -0.1181  0.3950
19727TIP3    H180672   5.271   4.146   3.005  2.9890 -1.8934 -1.6133
19727TIP3    H280673   5.364   4.231   3.088  0.6257 -0.5918 -0.1807
19728TIP3   OH280674   1.938   4.304   6.448 -0.4520 -0.2000  0.0634
19728TIP3    H180675   1.869   4.238   6.455  0.6048 -1.2879  0.5871
19728TIP3    H280676   1.925   4.360   6.525  0.1527 -1.3175  1.0052
19729TIP3   OH280677   5.346   5.884   1.666 -0.6186  0.5921  0.4787
19729TIP3    H180678   5.317   5.818   1.603  0.1441  0.6949  0.0036
19729TIP3    H280679   5.302   5.964   1.638  0.1755  0.7711 -0.3026
19730TIP3   OH280680   0.746   1.505   5.777  0.3220 -0.2756  0.6032
19730TIP3    H180681   0.830   1.461   5.769 -0.3121 -1.6067  0.9192
19730TIP3    H280682   0.720   1.524   5.687  0.7490 -0.2769  0.4774
19731TIP3   OH280683   2.055   0.393   3.743  0.1573 -0.2510 -0.1238
19731TIP3    H180684   2.057   0.298   3.728  3.9361 -0.3617  0.0857
19731TIP3    H280685   2.019   0.403   3.831 -1.1162 -1.3559 -0.4809
19732TIP3   OH280686   3.071   5.429   3.920 -0.3551  0.3503 -0.7187
19732TIP3    H180687   3.113   5.427   4.006 -0.0738 -0.3375 -0.8674
19732TIP3    H280688   2.982   5.399   3.936 -0.8003  1.7583 -0.4123
19733TIP3   OH280689   3.822   2.076  14.649 -0.4486 -0.3125 -0.2949
19733TIP3    H180690   3.867   2.139  14.706  0.7405 -1.8179  0.4916
19733TIP3    H280691   3.833   1.992  14.692 -0.1372 -1.4132 -2.3863
19734TIP3   OH280692   2.314   2.419  12.418 -0.1684 -0.8553 -0.0495
19734TIP3    H180693   2.354   2.364  12.351  1.4440  0.0794  0.0930
19734TIP3    H280694   2.342   2.508  12.396  0.2912 -0.5050  1.7680
19735TIP3   OH280695   5.597   1.067  14.980  0.3905  0.2418  0.4130
19735TIP3    H180696   5.565   1.133  15.040  2.9635  0.8967  1.1828
19735TIP3    H280697   5.661   1.017  15.030  1.2108 -0.4427 -1.2242
19736TIP3   OH280698   0.283   5.955   0.797 -0.1593  0.0958  0.2793
19736TIP3    H180699   0.378   5.943   0.806 -0.3110  0.1448  2.6829
19736TIP3    H280700   0.257   5.999   0.878 -2.2719 -0.0508 -0.2642
19737TIP3   OH280701   4.368   0.773  11.030  0.7529 -0.3948  0.4370
19737TIP3    H180702   4.303   0.794  10.962  2.2977  0.7829 -0.7544
19737TIP3    H280703   4.329   0.807  11.111  0.7177  2.2386 -0.5718
19738TIP3   OH280704   0.408   0.976   1.800 -0.3498  0.5088 -0.0966
19738TIP3    H180705   0.406   1.039   1.872  2.6840 -0.4922  1.0012
19738TIP3    H280706   0.440   0.895   1.840 -1.1829 -0.8679 -2.0780
19739TIP3   OH280707   4.102   5.645   4.476  0.0513 -0.2638 -0.0007
19739TIP3    H180708   4.097   5.550   4.485  0.8151 -0.3059  0.0081
19739TIP3    H280709   4.066   5.662   4.389 -0.5465 -0.5090  0.1897
19740TIP3   OH280710   2.252   3.557   5.329 -0.6264  0.5124 -0.1094
19740TIP3    H180711   2.162   3.547   5.358 -0.6904  0.2569 -0.3889
19740TIP3    H280712   2.302   3.499   5.386 -0.9055 -0.9184 -1.2541
19741TIP3   OH280713   2.471   1.385   0.346 -0.0772  0.1602 -0.1920
19741TIP3    H180714   2.431   1.299   0.359  0.0175  0.2377  0.6690
19741TIP3    H280715   2.450   1.408   0.255 -2.8724  0.6601  0.4795
19742TIP3   OH280716   6.213   1.358  13.453 -0.0136  0.6186 -0.2148
19742TIP3    H180717   6.260   1.397  13.380 -1.2459  0.0370 -1.3734
19742TIP3    H280718   6.278   1.348  13.522  2.0734 -1.8470 -2.3186
19743TIP3   OH280719   4.624   2.258  14.456  0.5373  0.2048  0.3990
19743TIP3    H180720   4.693   2.303  14.504  1.2584  0.0563 -0.4687
19743TIP3    H280721   4.661   2.243  14.369 -0.0007 -1.2874  0.3904
19744TIP3   OH280722   1.564   2.983  12.396 -0.2767 -0.2996  0.4317
19744TIP3    H180723   1.604   2.899  12.419 -2.0713 -0.9276  1.4620
19744TIP3    H280724   1.517   3.010  12.475 -2.1024  0.2244 -0.7491
19745TIP3   OH280725   2.181   5.488   6.312 -0.5632 -0.0875  0.0347
19745TIP3    H180726   2.151   5.422   6.375 -0.8082  0.8417  0.9135
19745TIP3    H280727   2.230   5.551   6.365  1.2337 -0.4864 -1.0664
19746TIP3   OH280728   0.317   6.826  16.469 -0.1712 -0.4164  0.4300
19746TIP3    H180729   0.398   6.776  16.462 -1.5115 -2.8277  0.6228
19746TIP3    H280730   0.313   6.853  16.561 -0.8606 -2.8489  1.2076
19747TIP3   OH280731   4.717   2.241  14.877 -0.7728 -0.2296 -0.3171
19747TIP3    H180732   4.778   2.186  14.829 -0.3640  0.7774 -0.9978
19747TIP3    H280733   4.773   2.297  14.931 -1.1227  0.2235 -0.4204
19748TIP3   OH280734   2.340   6.761  16.318  0.1236 -0.1618 -0.5750
19748TIP3    H180735   2.353   6.684  16.263  0.1069 -0.4168 -0.2218
19748TIP3    H280736   2.410   6.821  16.291  0.4770 -0.5217 -0.4624
19749TIP3   OH280737   1.964   3.070  15.753  0.3094 -0.4392  0.7090
19749TIP3    H180738   2.060   3.073  15.746  0.3114 -0.8395  0.4819
19749TIP3    H280739   1.939   3.156  15.785  0.7922 -0.5275  1.3287
19750TIP3   OH280740   0.962   3.041   1.003 -0.1288 -0.6454  0.2438
19750TIP3    H180741   0.958   3.050   1.098  0.7147  0.3516  0.1945
19750TIP3    H280742   0.963   3.131   0.970  1.9771 -0.9182 -0.5953
19751TIP3   OH280743   3.477   5.913  14.443  0.4564  0.4159 -0.2007
19751TIP3    H180744   3.430   5.832  14.461  2.1507 -0.0784  2.6236
19751TIP3    H280745   3.542   5.890  14.377 -0.2090 -0.0389 -0.7116
19752TIP3   OH280746   5.296   2.401   3.090  0.5238 -0.1647 -0.1227
19752TIP3    H180747   5.213   2.447   3.077  0.2251 -0.1424  1.5348
19752TIP3    H280748   5.272   2.309   3.091  1.0152 -0.3736 -2.7201
19753TIP3   OH280749   1.190   4.344   3.876  0.2019 -0.1456  0.1921
19753TIP3    H180750   1.135   4.339   3.954  1.0978  0.0940  0.8535
19753TIP3    H280751   1.174   4.433   3.842  0.8687  0.2645  0.9156
19754TIP3   OH280752   0.715   3.427  17.045 -0.2171 -0.4328  0.3288
19754TIP3    H180753   0.801   3.420  17.085 -0.0170 -1.2300 -0.2046
19754TIP3    H280754   0.695   3.521  17.046  1.3799 -0.0237 -1.0331
19755TIP3   OH280755   5.002   6.064  16.013 -0.2345  1.0839  0.3462
19755TIP3    H180756   5.051   6.004  16.069  1.0845  2.5204  0.8103
19755TIP3    H280757   4.968   6.009  15.942  0.1490 -0.3382  1.2308
19756TIP3   OH280758   0.828   2.166   0.898 -0.1694 -0.7403 -0.0973
19756TIP3    H180759   0.917   2.197   0.882 -0.2921  0.2664  1.0310
19756TIP3    H280760   0.826   2.078   0.860  0.3423  0.3845 -2.9586
19757TIP3   OH280761   6.067   0.326  14.713  0.0733 -0.1027  0.4118
19757TIP3    H180762   6.009   0.257  14.681 -0.6146  1.6236 -2.4500
19757TIP3    H280763   6.010   0.403  14.722  1.6456  1.4756 -1.8782
19758TIP3   OH280764   5.557   2.145  13.976 -0.2248  0.7449 -0.2842
19758TIP3    H180765   5.519   2.057  13.986  0.1069  0.4670 -1.3393
19758TIP3    H280766   5.652   2.130  13.975 -0.1007  1.2970  1.0642
19759TIP3   OH280767   4.309   1.842   1.798  0.3666 -0.0391 -0.2483
19759TIP3    H180768   4.326   1.754   1.830 -0.2290  0.6079  1.9909
19759TIP3    H280769   4.231   1.832   1.743 -0.7182 -0.6836  1.3394
19760TIP3   OH280770   3.024   4.981   4.720  0.2621 -0.1722  0.4078
19760TIP3    H180771   2.957   5.037   4.758  0.1645  0.6639 -0.9687
19760TIP3    H280772   3.106   5.015   4.755  0.1818  0.6664 -0.1904
19761TIP3   OH280773   6.290   4.690   3.233  0.1670  0.3876 -0.1814
19761TIP3    H180774   6.327   4.659   3.150  0.7337  0.9871 -0.1556
19761TIP3    H280775   6.305   4.784   3.232 -0.2884  0.4698  0.3773
19762TIP3   OH280776   3.208   5.449  14.172  0.2811 -0.5203 -0.1632
19762TIP3    H180777   3.292   5.403  14.169  0.6793 -0.0441  2.0537
19762TIP3    H280778   3.220   5.523  14.113  1.1883 -0.8452 -0.4097
19763TIP3   OH280779   3.305   4.535  16.277  0.1329  0.6136  0.4345
19763TIP3    H180780   3.332   4.618  16.315  0.0893 -0.2373  2.4813
19763TIP3    H280781   3.255   4.492  16.347 -0.9270 -0.5899 -1.0075
19764TIP3   OH280782   2.156   2.458   1.627 -0.6270  0.3520  0.6427
19764TIP3    H180783   2.224   2.477   1.562  0.0486 -0.7673  0.9942
19764TIP3    H280784   2.204   2.448   1.709 -1.2261 -0.3283  0.9172
19765TIP3   OH280785   6.636   6.016  15.758 -0.2841  0.1756 -0.6067
19765TIP3    H180786   6.629   5.933  15.806 -0.7288  0.1138 -0.7739
19765TIP3    H280787   6.587   6.001  15.677 -1.2063  0.9131 -0.2051
19766TIP3   OH280788   4.260   4.070  15.847  0.2751  0.1294 -0.3739
19766TIP3    H180789   4.317   4.137  15.811 -1.3475  1.3330 -0.8146
19766TIP3    H280790   4.171   4.106  15.839 -0.9855 -3.0238 -2.9165
19767TIP3   OH280791   2.437   5.208  12.621  0.6059 -0.0324  0.4855
19767TIP3    H180792   2.479   5.288  12.652 -0.0058  1.2580 -1.8235
19767TIP3    H280793   2.344   5.221  12.637  0.4503 -0.0180 -0.3608
19768TIP3   OH280794   1.673   6.565   3.904 -0.6618  0.1420  0.0869
19768TIP3    H180795   1.615   6.503   3.949  0.5668 -0.1936  1.2671
19768TIP3    H280796   1.713   6.513   3.834 -0.4573 -0.1028  0.3837
19769TIP3   OH280797   1.039   6.585   2.501 -0.5086 -0.2317 -0.1916
19769TIP3    H180798   0.959   6.552   2.461  0.0979 -3.5120  1.0393
19769TIP3    H280799   1.012   6.666   2.545 -2.4648  0.2284 -2.0600
19770TIP3   OH280800   6.073   5.538   3.097  0.3402  0.2522  0.5056
19770TIP3    H180801   5.987   5.550   3.058 -0.8765  0.1074  2.9757
19770TIP3    H280802   6.102   5.453   3.066  0.3473  0.9655 -1.5893
19771TIP3   OH280803   0.410   4.978   0.175  0.2478  0.1396 -0.7405
19771TIP3    H180804   0.445   4.984   0.086  1.2197  1.1120 -0.3071
19771TIP3    H280805   0.436   5.060   0.216  1.3712 -1.0225  0.9903
19772TIP3   OH280806   1.630   2.082   1.561 -0.3132 -0.0590 -0.1197
19772TIP3    H180807   1.565   2.151   1.549  1.9151  2.4404  1.2094
19772TIP3    H280808   1.656   2.057   1.472 -0.3365  1.6930 -0.6446
19773TIP3   OH280809   1.019   0.786   2.290  0.2027 -0.0427 -0.2394
19773TIP3    H180810   0.972   0.758   2.369  0.4574  1.4440  0.4775
19773TIP3    H280811   0.994   0.877   2.278  1.4586  0.2357 -0.9195
19774TIP3   OH280812   5.330   3.704  16.384 -0.2200 -0.6857 -0.5559
19774TIP3    H180813   5.248   3.746  16.409 -0.2393 -0.6869 -0.6166
19774TIP3    H280814   5.380   3.699  16.465  0.4307  0.8732 -0.8370
19775TIP3   OH280815   0.975   5.484  15.452 -0.1717 -0.3617  0.3999
19775TIP3    H180816   1.010   5.469  15.364 -1.5167 -2.5398  0.1463
19775TIP3    H280817   0.894   5.532  15.438  0.1174  0.1707  0.5415
19776TIP3   OH280818   1.648   0.860  13.928  0.1472  0.2679 -0.2997
19776TIP3    H180819   1.612   0.918  13.995 -0.7999 -0.9308  0.2657
19776TIP3    H280820   1.743   0.869  13.936  0.0281  1.4435  0.0119
19777TIP3   OH280821   1.368   3.116   6.178  0.5671 -0.5221 -0.7700
19777TIP3    H180822   1.313   3.044   6.209  0.8982 -0.4349  0.0485
19777TIP3    H280823   1.322   3.195   6.205  0.4760 -0.4308 -1.1846
19778TIP3   OH280824   2.845   2.874   2.619  0.0189 -0.1802 -0.2944
19778TIP3    H180825   2.819   2.821   2.544 -1.1715 -0.6437  0.4064
19778TIP3    H280826   2.922   2.922   2.590  0.0740 -0.9822 -1.5252
19779TIP3   OH280827   5.528   0.149  13.430  0.6021 -0.8204  0.6198
19779TIP3    H180828   5.598   0.209  13.402 -0.0639  0.4660  1.5967
19779TIP3    H280829   5.476   0.134  13.351  0.3714  0.4828  0.5026
19780TIP3   OH280830   0.518   0.817  13.937  0.6975  0.2549  0.5673
19780TIP3    H180831   0.431   0.844  13.965 -0.1756 -1.6658 -0.1115
19780TIP3    H280832   0.544   0.749  14.000  1.3496  0.2477  0.3000
19781TIP3   OH280833   5.756   5.208   5.652 -0.1322  0.0914  0.0674
19781TIP3    H180834   5.822   5.264   5.693 -1.1145  0.2708  1.4932
19781TIP3    H280835   5.760   5.126   5.701  0.1892 -0.5294 -0.9630
19782TIP3   OH280836   1.721   6.685  15.195  0.1731  0.4147  0.0547
19782TIP3    H180837   1.748   6.627  15.266 -1.7317  0.7427  1.1153
19782TIP3    H280838   1.647   6.641  15.155  1.5905 -0.0592 -2.2098
19783TIP3   OH280839   5.102   4.525  11.522  0.0808 -0.3086  0.0318
19783TIP3    H180840   5.055   4.488  11.447 -0.0809 -0.7087  0.3238
19783TIP3    H280841   5.106   4.453  11.585  1.6630 -0.4879 -0.2438
19784TIP3   OH280842   4.184   6.732   0.883 -0.3910  0.0703 -0.4065
19784TIP3    H180843   4.113   6.669   0.869 -1.3147  1.1107 -0.4815
19784TIP3    H280844   4.239   6.691   0.950 -0.6681 -1.0651 -0.8525
19785TIP3   OH280845   6.657   5.504   3.198 -0.1069  0.4521  0.2779
19785TIP3    H180846   6.635   5.535   3.110  0.9697  0.8408  0.1247
19785TIP3    H280847   6.573   5.489   3.241 -0.7023 -1.7503 -1.4900
19786TIP3   OH280848   6.017   0.935   2.480 -0.6614 -0.3661  0.0480
19786TIP3    H180849   6.033   0.931   2.574 -0.7733  0.7931  0.1344
19786TIP3    H280850   5.929   0.971   2.472  0.0734  1.4138 -0.4962
19787TIP3   OH280851   4.128   4.809  16.609 -0.5272 -0.4965  0.0470
19787TIP3    H180852   4.183   4.750  16.661 -1.5288 -1.2816  0.2420
19787TIP3    H280853   4.078   4.858  16.674 -1.3826 -1.0882 -0.1573
19788TIP3   OH280854   0.561   5.175  11.680 -0.0950 -0.2869 -1.0281
19788TIP3    H180855   0.601   5.092  11.707 -1.8965 -1.2412 -1.1811
19788TIP3    H280856   0.633   5.238  11.684  1.2858 -1.8073 -0.7387
19789TIP3   OH280857   4.800   4.725  16.971  0.0542  0.2648  0.0247
19789TIP3    H180858   4.838   4.675  17.043  0.8492 -0.2259 -0.7122
19789TIP3    H280859   4.722   4.675  16.946  0.6753 -0.4655 -0.5066
19790TIP3   OH280860   5.617   5.597  17.044 -0.1329  0.3772  0.3330
19790TIP3    H180861   5.537   5.552  17.017 -0.0078 -0.1863  0.8572
19790TIP3    H280862   5.623   5.673  16.987 -0.4079 -0.2275 -0.5234
19791TIP3   OH280863   0.096   3.945   4.203  0.3871  0.0692 -0.8947
19791TIP3    H180864   0.096   4.013   4.271 -0.6547  0.2639 -1.0752
19791TIP3    H280865   0.040   3.876   4.238  2.3505 -1.2568 -0.2069
19792TIP3   OH280866   4.624   5.470  13.238  0.0691 -0.2050  0.5255
19792TIP3    H180867   4.705   5.419  13.237  0.5813  0.5273  2.1160
19792TIP3    H280868   4.605   5.485  13.145  2.0160  0.0074  0.1084
19793TIP3   OH280869   1.455   1.475  12.243  0.3221 -0.1865  0.1189
19793TIP3    H180870   1.413   1.447  12.162  0.5141 -0.8826  0.2604
19793TIP3    H280871   1.383   1.487  12.305 -0.1803  2.9937 -0.8539
19794TIP3   OH280872   0.875   0.168   3.582 -0.8397 -0.0200 -0.1930
19794TIP3    H180873   0.901   0.076   3.573  2.0094  0.7881 -1.5374
19794TIP3    H280874   0.799   0.178   3.525  0.0102 -1.1622 -1.5919
19795TIP3   OH280875   0.549   1.877  11.308 -0.2614 -0.6027 -0.0845
19795TIP3    H180876   0.558   1.920  11.222 -1.1933  0.8652  0.5088
19795TIP3    H280877   0.557   1.784  11.289 -2.2319 -0.4539 -2.0685
19796TIP3   OH280878   1.455   4.329  11.330 -0.1530  0.2775  0.1654
19796TIP3    H180879   1.480   4.357  11.419  0.3181  2.5216 -0.5938
19796TIP3    H280880   1.373   4.376  11.313 -2.2676 -2.8986  0.6411
19797TIP3   OH280881   0.674   4.894  11.713  0.5191  0.5777 -0.2936
19797TIP3    H180882   0.672   4.878  11.619 -1.5596  1.8649 -0.5335
19797TIP3    H280883   0.607   4.835  11.749 -0.2205  1.6212  0.0761
19798TIP3   OH280884   3.213   6.128  12.653  0.3990  0.5122  0.3661
19798TIP3    H180885   3.294   6.077  12.643  0.5937  1.0175 -0.8576
19798TIP3    H280886   3.237   6.200  12.712  0.3967 -0.2043  1.2710
19799TIP3   OH280887   3.922   2.061   3.541 -0.9285 -0.1771  0.2445
19799TIP3    H180888   4.016   2.057   3.525 -0.6348 -1.2660  2.0264
19799TIP3    H280889   3.882   2.024   3.462  0.1400 -0.2480 -0.2773
19800TIP3   OH280890   0.619   6.132  10.972  0.1566 -0.2526 -0.0739
19800TIP3    H180891   0.670   6.155  10.894 -1.0047 -0.7931 -1.0388
19800TIP3    H280892   0.682   6.132  11.044  1.0984  1.1079 -0.8629
19801TIP3   OH280893   0.293   0.127   1.058  0.2874 -0.5888  0.4234
19801TIP3    H180894   0.385   0.104   1.068  0.2180 -0.5109  1.2596
19801TIP3    H280895   0.250   0.045   1.035  0.6354 -0.5285 -0.4856
19802TIP3   OH280896   6.027   1.262   2.947 -0.8107  0.0973 -0.3856
19802TIP3    H180897   5.974   1.328   2.903 -0.3232  0.6016 -0.2415
19802TIP3    H280898   5.986   1.178   2.926 -0.4389  0.2994 -2.0147
19803TIP3   OH280899   0.158   4.138  13.301 -0.2604 -0.4715 -0.2899
19803TIP3    H180900   0.092   4.091  13.250 -0.1179 -1.9123  0.7851
19803TIP3    H280901   0.109   4.181  13.371 -0.8709  3.8755 -2.9930
19804TIP3   OH280902   3.677   3.952   2.429 -0.3913 -0.7315  0.2498
19804TIP3    H180903   3.744   3.913   2.372  0.9215  1.0799  0.4395
19804TIP3    H280904   3.707   3.933   2.518 -1.4068 -1.8839  0.3761
19805TIP3   OH280905   4.155   2.006  13.242  0.0750  0.4703  0.2714
19805TIP3    H180906   4.179   1.989  13.333 -0.5746  0.8403  0.5254
19805TIP3    H280907   4.236   1.997  13.193  0.7023  1.5354  1.0701
19806TIP3   OH280908   0.298   0.505  13.838  0.3113 -0.6513  0.1890
19806TIP3    H180909   0.295   0.543  13.926  0.0420  0.0733 -0.1206
19806TIP3    H280910   0.351   0.568  13.787  0.8707 -1.3070 -0.0549
19807TIP3   OH280911   3.642   3.064   6.186  0.6572  0.0820 -0.8321
19807TIP3    H180912   3.727   3.042   6.149  0.6653 -1.1347 -0.1510
19807TIP3    H280913   3.652   3.154   6.219  1.5274  0.1097 -1.1612
19808TIP3   OH280914   4.251   0.570  14.938 -0.2343  0.1047 -0.0827
19808TIP3    H180915   4.260   0.544  14.846 -0.8568  1.1116 -0.4483
19808TIP3    H280916   4.338   0.559  14.975  0.2078  0.4272 -1.0056
19809TIP3   OH280917   5.514   2.837   3.217 -0.1611 -0.2474  0.5356
19809TIP3    H180918   5.557   2.919   3.189 -0.6480 -0.7852 -2.1093
19809TIP3    H280919   5.586   2.781   3.246  0.5020  0.1801 -0.2301
19810TIP3   OH280920   5.922   3.056  14.025  0.1609 -0.0198  0.4238
19810TIP3    H180921   5.893   3.139  13.989  0.1519 -1.2013 -2.6532
19810TIP3    H280922   6.018   3.060  14.020  0.1395 -0.5226 -0.6981
19811TIP3   OH280923   3.180   3.550  16.991  0.4970 -0.0636  0.2368
19811TIP3    H180924   3.214   3.619  17.048  1.9468 -0.8162  0.3235
19811TIP3    H280925   3.178   3.472  17.046  2.3988 -0.9260 -0.8043
19812TIP3   OH280926   3.472   2.306   3.207 -0.6654  0.0683 -0.2514
19812TIP3    H180927   3.558   2.346   3.215  0.2422 -1.5338 -1.5238
19812TIP3    H280928   3.411   2.378   3.225  0.8839  2.0451 -2.3150
19813TIP3   OH280929   5.363   1.812  10.534 -0.2319 -0.3721 -0.2043
19813TIP3    H180930   5.297   1.779  10.472  0.7764 -2.7339 -0.1344
19813TIP3    H280931   5.423   1.864  10.480 -0.9050 -0.0717 -0.6768
19814TIP3   OH280932   2.986   4.910   2.686  0.3090 -1.0645  0.0965
19814TIP3    H180933   2.988   4.832   2.630  2.6605 -0.5113 -0.7037
19814TIP3    H280934   3.026   4.979   2.633  1.0240 -0.0662  1.8405
19815TIP3   OH280935   0.076   2.860   0.578  0.3613 -0.0794  0.3396
19815TIP3    H180936   0.157   2.910   0.583  1.1613 -0.6100 -3.5964
19815TIP3    H280937   0.105   2.769   0.572 -0.6564 -0.4437  0.7449
19816TIP3   OH280938   2.292   1.312   1.222  0.2476  0.6297  0.3970
19816TIP3    H180939   2.229   1.261   1.273  0.5989  0.8974  1.1038
19816TIP3    H280940   2.241   1.385   1.187 -0.0906  0.2073 -0.0036
19817TIP3   OH280941   3.267   0.277   4.978  0.2190 -0.1894 -0.0097
19817TIP3    H180942   3.272   0.334   5.055  2.6810 -0.8818  0.4337
19817TIP3    H280943   3.342   0.303   4.924 -0.7945 -0.5036 -1.6500
19818TIP3   OH280944   6.284   5.647   1.887 -0.3034  0.0655 -0.0615
19818TIP3    H180945   6.299   5.715   1.822 -0.2024 -0.9301 -1.1125
19818TIP3    H280946   6.231   5.581   1.841  2.9846 -2.5438 -0.4870
19819TIP3   OH280947   6.026   4.954   0.258 -0.3649 -0.2042 -0.6715
19819TIP3    H180948   6.069   4.957   0.172 -0.1097  0.0247 -0.5359
19819TIP3    H280949   6.056   4.873   0.297 -0.1081 -0.0773 -0.6048
19820TIP3   OH280950   2.810   1.330   6.033  0.5552 -0.0391 -0.4506
19820TIP3    H180951   2.747   1.400   6.052  0.8890  0.0630  0.3630
19820TIP3    H280952   2.893   1.365   6.065  0.6809 -0.8986  0.1810
19821TIP3   OH280953   6.385   2.219   1.128  0.1800  0.1241 -0.0744
19821TIP3    H180954   6.371   2.281   1.200  1.7147  1.0217 -0.4867
19821TIP3    H280955   6.450   2.263   1.072  1.2136 -1.7964 -0.4589
19822TIP3   OH280956   0.004   5.395  13.856 -0.0794  0.3843  0.2282
19822TIP3    H180957  -0.012   5.304  13.881 -1.0851 -0.1746 -2.1467
19822TIP3    H280958  -0.082   5.437  13.863 -0.5527  0.0648 -2.4897
19823TIP3   OH280959   0.314   4.398   4.732 -0.0501 -0.0648 -0.5554
19823TIP3    H180960   0.409   4.407   4.725  0.2825 -1.5328  1.3550
19823TIP3    H280961   0.284   4.482   4.766  0.6106  0.2298 -0.6740
19824TIP3   OH280962   2.568   2.972  16.995 -0.0223 -0.3225 -0.0664
19824TIP3    H180963   2.635   2.974  17.063 -1.1923  1.9406  1.1537
19824TIP3    H280964   2.491   3.010  17.037 -0.6325  1.7928 -2.8015
19825TIP3   OH280965   2.119   1.306   2.585 -0.2885 -0.2331 -0.1361
19825TIP3    H180966   2.027   1.301   2.613 -0.0832 -0.6274  0.4907
19825TIP3    H280967   2.169   1.306   2.666  0.3154 -1.1225 -0.4886
19826TIP3   OH280968   5.919   2.179   6.021 -0.1211 -0.4252  0.3658
19826TIP3    H180969   5.964   2.101   6.054  1.3466  0.7072  1.1874
19826TIP3    H280970   5.844   2.145   5.973  1.2270 -2.3964 -0.4883
19827TIP3   OH280971   5.839   4.792   5.585  0.3589  0.1023  0.6569
19827TIP3    H180972   5.775   4.851   5.625  0.5384  2.8372 -2.6350
19827TIP3    H280973   5.924   4.828   5.611  0.5389 -1.0583  1.7160
19828TIP3   OH280974   2.729   2.318   6.134  0.3029 -0.6356  0.1409
19828TIP3    H180975   2.733   2.242   6.192 -0.2133 -0.9214 -0.1839
19828TIP3    H280976   2.820   2.348   6.127  0.3304 -0.3794  1.3656
19829TIP3   OH280977   1.126   3.137   2.686  0.0316 -0.6120  0.1749
19829TIP3    H180978   1.063   3.114   2.618  0.0094 -0.6166  0.1970
19829TIP3    H280979   1.210   3.109   2.651  0.1003 -0.0426 -0.1246
19830TIP3   OH280980   1.819   0.751   2.421  0.0152  0.1285 -0.0875
19830TIP3    H180981   1.832   0.781   2.332  0.0647 -0.3997 -0.2645
19830TIP3    H280982   1.908   0.735   2.454  0.0886  1.6611  0.5446
19831TIP3   OH280983   4.447   1.733  13.973  0.2773  0.6040 -0.0174
19831TIP3    H180984   4.444   1.641  14.001 -0.2354  0.7999  0.5997
19831TIP3    H280985   4.356   1.763  13.980  0.5129  1.2770  0.1913
19832TIP3   OH280986   1.293   5.533  15.132 -0.2929  0.5123  0.3419
19832TIP3    H180987   1.324   5.613  15.174 -1.1455  0.6245  0.7789
19832TIP3    H280988   1.372   5.482  15.116  0.0741  0.5453  1.9199
19833TIP3   OH280989   4.438   1.812   0.650 -0.0424  0.1622  0.2061
19833TIP3    H180990   4.460   1.745   0.585 -0.2625 -2.3424  2.5364
19833TIP3    H280991   4.342   1.819   0.645 -0.7203 -3.5838  3.2079
19834TIP3   OH280992   0.675   0.077   5.950 -0.4166 -0.1341 -0.2191
19834TIP3    H180993   0.692  -0.017   5.940 -0.6300 -0.0670 -1.3531
19834TIP3    H280994   0.657   0.088   6.043  0.6641 -1.0433  0.1314
19835TIP3   OH280995   1.830   1.301   6.789 -0.7325 -0.0225 -0.0167
19835TIP3    H180996   1.759   1.357   6.819 -0.5183  0.6021 -0.6449
19835TIP3    H280997   1.802   1.271   6.702  0.2631  1.1853 -0.7940
19836TIP3   OH280998   0.886   1.109   5.356  0.3848  0.4358  0.1218
19836TIP3    H180999   0.961   1.055   5.382  1.2989  1.3218 -0.5409
19836TIP3    H281000   0.830   1.051   5.305  0.2334 -0.4397  1.2543
19837TIP3   OH281001   3.975   3.867  13.747  0.1354 -0.0070 -0.6416
19837TIP3    H181002   3.984   3.902  13.659 -0.7752 -1.6586 -1.4506
19837TIP3    H281003   4.030   3.788  13.748 -0.4113 -0.3986  0.0126
19838TIP3   OH281004   3.604   2.047  16.494  0.1853  0.0711  0.1949
19838TIP3    H181005   3.629   2.068  16.583  0.8681  0.0802  0.0057
19838TIP3    H281006   3.519   2.089  16.482  0.2309  0.3208  0.7392
19839TIP3   OH281007   1.112   5.319   4.143  0.2855  0.2282 -0.4122
19839TIP3    H181008   1.153   5.234   4.159 -1.1699 -0.6189 -1.0293
19839TIP3    H281009   1.182   5.372   4.103  1.2795 -0.5688  0.2191
19840TIP3   OH281010   5.279   3.275  13.012  0.3171 -0.2557 -0.4936
19840TIP3    H181011   5.263   3.343  12.947 -2.2631 -1.2633 -1.0074
19840TIP3    H281012   5.267   3.319  13.096  1.0617  0.4290 -0.7252
19841TIP3   OH281013   1.027   6.645  14.712 -0.2782  0.4689  0.0623
19841TIP3    H181014   1.106   6.699  14.706 -1.0538  1.9389  2.0372
19841TIP3    H281015   1.037   6.598  14.795 -1.0599 -0.0033 -0.1087
19842TIP3   OH281016   0.176   1.894  12.679  0.2621 -0.2451 -0.4688
19842TIP3    H181017   0.134   1.880  12.594  0.0528 -2.6460 -0.0412
19842TIP3    H281018   0.104   1.916  12.737 -0.1955 -2.1829 -0.2106
19843TIP3   OH281019   2.057   3.382   1.188 -0.5699 -0.1379 -1.0101
19843TIP3    H181020   2.092   3.293   1.196 -0.3880 -0.3234 -3.2694
19843TIP3    H281021   1.980   3.373   1.132 -1.0835  1.0258 -0.5195
19844TIP3   OH281022   1.433   6.073   0.713  0.2650  0.0217  0.3394
19844TIP3    H181023   1.491   6.074   0.636  0.1037  1.9892  0.1940
19844TIP3    H281024   1.346   6.058   0.677  0.3616 -0.4943  0.3077
19845TIP3   OH281025   6.149   5.786  14.205  0.3394 -0.3970 -0.3036
19845TIP3    H181026   6.125   5.730  14.279  0.7738  0.2585  0.3388
19845TIP3    H281027   6.070   5.836  14.186  0.3294 -0.3117 -0.0482
19846TIP3   OH281028   2.466   1.831  16.364  0.2026  0.2321  0.0152
19846TIP3    H181029   2.422   1.855  16.446  0.5748 -0.3503  0.3958
19846TIP3    H281030   2.416   1.876  16.296  0.9891  2.2378  0.7020
19847TIP3   OH281031   2.878   2.949   2.195 -0.2062  0.5158 -0.1237
19847TIP3    H181032   2.912   2.943   2.106  2.6006  1.3625  0.7826
19847TIP3    H281033   2.875   3.043   2.213 -0.8979  0.3554  0.6440
19848TIP3   OH281034   4.801   6.147  15.278 -0.3910  0.8500 -0.3680
19848TIP3    H181035   4.762   6.200  15.208 -0.7041  1.3091  0.1437
19848TIP3    H281036   4.797   6.204  15.355  2.6897  1.5610 -0.5984
19849TIP3   OH281037   0.469   1.705  10.691  0.1185 -0.2578 -0.0056
19849TIP3    H181038   0.501   1.643  10.625 -1.5365 -0.7213 -0.4037
19849TIP3    H281039   0.524   1.688  10.768 -0.1489 -2.0841 -0.1718
19850TIP3   OH281040   5.346   4.452  14.394  0.3283 -0.2049 -0.7198
19850TIP3    H181041   5.278   4.449  14.327 -1.7772  0.5027  1.2522
19850TIP3    H281042   5.310   4.401  14.467  2.3669 -0.6389  0.0601
19851TIP3   OH281043   3.358   1.523   4.368 -0.2108 -0.0384  0.0038
19851TIP3    H181044   3.304   1.583   4.315  0.9956 -0.8514 -2.3109
19851TIP3    H281045   3.444   1.526   4.326  0.4195 -1.8531  1.0804
19852TIP3   OH281046   2.537   1.485  15.802 -0.3261  0.0034  0.0501
19852TIP3    H181047   2.553   1.398  15.839 -0.9170 -0.3753 -0.5590
19852TIP3    H281048   2.464   1.520  15.854 -1.1329 -0.5144 -0.7039
19853TIP3   OH281049   6.419   6.340   2.060 -0.0080  0.4852  0.3169
19853TIP3    H181050   6.361   6.416   2.065 -0.6727 -0.0348  0.7680
19853TIP3    H281051   6.441   6.321   2.151 -1.0432 -0.7482  0.3365
19854TIP3   OH281052   1.626   2.581   0.513  0.3219  0.3065  0.0685
19854TIP3    H181053   1.693   2.590   0.580  0.1616 -0.0783  0.2804
19854TIP3    H281054   1.661   2.514   0.453  0.2042  0.2306  0.0850
19855TIP3   OH281055   3.589   0.451  11.875 -0.2306  0.0809 -0.0748
19855TIP3    H181056   3.651   0.408  11.817 -1.9835 -0.8895 -1.3157
19855TIP3    H281057   3.591   0.399  11.955 -1.2731 -1.5434 -1.0463
19856TIP3   OH281058   3.287   4.542  14.550 -0.1063 -0.0761  0.0520
19856TIP3    H181059   3.382   4.530  14.553  0.0196  0.5354 -1.0574
19856TIP3    H281060   3.263   4.525  14.459 -0.9002  0.9359  0.0496
19857TIP3   OH281061   2.384   3.057  14.926 -0.6119  0.8486  0.0556
19857TIP3    H181062   2.385   2.989  14.859 -0.0516  0.4554  0.4460
19857TIP3    H281063   2.292   3.074  14.942 -0.7871 -0.4882  0.6132
19858TIP3   OH281064   4.486   3.176   2.130  0.3275  0.5158 -0.5265
19858TIP3    H181065   4.531   3.149   2.210 -1.2478 -0.8529 -0.0462
19858TIP3    H281066   4.400   3.206   2.160 -0.6447 -0.9038 -1.7250
19859TIP3   OH281067   0.890   3.794   0.002 -0.5012  0.5529  0.3662
19859TIP3    H181068   0.821   3.756  -0.052  0.1043 -0.1575  0.0571
19859TIP3    H281069   0.858   3.788   0.091 -0.8437  0.2367  0.2214
19860TIP3   OH281070   2.430   2.284  14.712  0.4341 -0.4158 -0.5073
19860TIP3    H181071   2.391   2.358  14.664  1.1348 -1.0849 -2.1692
19860TIP3    H281072   2.389   2.289  14.799 -0.4780  1.1676 -0.9694
19861TIP3   OH281073   2.465   3.069  13.327 -0.6893  0.3370  0.6837
19861TIP3    H181074   2.538   3.129  13.312 -1.9344  1.4926 -1.1712
19861TIP3    H281075   2.458   3.019  13.245 -2.8876  1.3575  0.1650
19862TIP3   OH281076   4.568   2.955  12.266 -0.1917  0.2612  0.0081
19862TIP3    H181077   4.599   2.875  12.223  1.4771  0.0875  1.4655
19862TIP3    H281078   4.627   3.023  12.235 -0.8042  0.7147 -0.1993
19863TIP3   OH281079   1.981   3.794  15.361  0.1948  0.5403 -0.0779
19863TIP3    H181080   2.027   3.750  15.433  0.1222  2.5207  1.2792
19863TIP3    H281081   1.898   3.748  15.354  0.4138 -0.0126  0.7990
19864TIP3   OH281082   2.550   1.968   0.417 -0.3219 -0.8485  0.6892
19864TIP3    H181083   2.600   1.971   0.498 -0.7422  1.2464  0.9335
19864TIP3    H281084   2.585   2.041   0.365  0.6054 -2.7071 -1.4552
19865TIP3   OH281085   0.298   5.962  13.040  0.3433  0.6163 -0.0081
19865TIP3    H181086   0.355   5.968  12.964  0.9513  1.3683  0.4800
19865TIP3    H281087   0.306   5.871  13.069  1.6449  0.7940  0.2868
19866TIP3   OH281088   1.149   5.604  14.190 -0.3128 -0.3256 -0.7297
19866TIP3    H181089   1.219   5.552  14.151  2.4360  1.8172  0.9979
19866TIP3    H281090   1.150   5.687  14.143 -0.4982  0.3693  0.4408
19867TIP3   OH281091   5.643   5.901   4.288 -0.1264 -0.1573  0.2618
19867TIP3    H181092   5.596   5.938   4.213  0.4708  1.7689  0.7720
19867TIP3    H281093   5.709   5.844   4.250 -0.0717  0.5078 -0.6763
19868TIP3   OH281094   1.753   3.641  15.249  0.0104  0.7221 -0.2844
19868TIP3    H181095   1.681   3.583  15.225 -0.2741  0.7997  0.3630
19868TIP3    H281096   1.715   3.701  15.313  0.8255  0.3124  0.6154
19869TIP3   OH281097   3.321   4.024   2.436  0.2913  0.3292  0.2318
19869TIP3    H181098   3.340   3.941   2.393  1.6523  0.3123  0.8070
19869TIP3    H281099   3.242   4.056   2.392 -1.1161 -1.9077  0.9463
19870TIP3   OH281100   5.814   6.579   1.820 -0.1096 -0.0321  0.4642
19870TIP3    H181101   5.750   6.584   1.749  0.4727 -1.4422 -0.1924
19870TIP3    H281102   5.761   6.567   1.899 -0.7069 -0.0110  0.0739
19871TIP3   OH281103   4.132   0.509   1.346  0.7282 -0.0176 -0.2635
19871TIP3    H181104   4.171   0.516   1.433  0.1988 -0.9321  0.0559
19871TIP3    H281105   4.177   0.435   1.306  1.5508  0.8998 -1.0947
19872TIP3   OH281106   1.596   2.486  15.864  0.3567 -0.3371 -0.3919
19872TIP3    H181107   1.686   2.453  15.868  1.0406  1.3185 -0.9727
19872TIP3    H281108   1.590   2.548  15.937  1.1071  2.6256 -2.6245
19873TIP3   OH281109   4.022   1.614   2.422 -0.8590 -0.8058 -0.1020
19873TIP3    H181110   4.018   1.688   2.482 -1.6993 -0.5565 -0.4432
19873TIP3    H281111   3.962   1.550   2.458 -0.6949 -1.0183 -0.2026
19874TIP3   OH281112   3.313   5.408   1.349  0.3255 -0.3050 -0.3932
19874TIP3    H181113   3.228   5.423   1.391 -0.4468 -1.0539 -1.6344
19874TIP3    H281114   3.370   5.475   1.387 -0.6852 -0.0691  0.7971
19875TIP3   OH281115   2.552   4.451   4.433  0.7544 -0.1867 -0.1595
19875TIP3    H181116   2.570   4.446   4.339  0.3173 -0.8636 -0.2127
19875TIP3    H281117   2.571   4.362   4.466  1.1381  0.1068  0.4362
19876TIP3   OH281118   2.962   6.572   3.274 -0.0554 -0.0620  0.5422
19876TIP3    H181119   2.925   6.493   3.234  2.1233 -0.2853 -1.2515
19876TIP3    H281120   3.035   6.539   3.326 -0.3111  0.6335  1.3512
19877TIP3   OH281121   5.410   4.952   3.459 -0.0948  0.4925 -0.2725
19877TIP3    H181122   5.420   4.868   3.415  1.2491  0.5472 -0.1062
19877TIP3    H281123   5.394   5.014   3.388  0.6441  0.3594 -0.5655
19878TIP3   OH281124   4.905   3.140  10.537 -0.0092 -0.5152 -0.5342
19878TIP3    H181125   4.887   3.067  10.596 -1.4959 -0.2417 -0.6105
19878TIP3    H281126   4.818   3.170  10.509  0.6379  0.0895 -1.9612
19879TIP3   OH281127   4.315   4.644  13.829  0.1976  0.3053 -0.3357
19879TIP3    H181128   4.362   4.708  13.775 -0.6395  0.0596 -1.3887
19879TIP3    H281129   4.225   4.677  13.833  0.0698 -0.0946  0.2652
19880TIP3   OH281130   2.144   1.265  13.071 -0.4242  0.5505 -0.4661
19880TIP3    H181131   2.219   1.321  13.054 -0.2171  0.2114 -0.6650
19880TIP3    H281132   2.077   1.294  13.009  0.0759 -0.1897 -1.3676
19881TIP3   OH281133   3.186   0.450   3.706  0.3601 -0.3496 -0.1190
19881TIP3    H181134   3.104   0.465   3.659 -0.2898 -1.0282  0.7653
19881TIP3    H281135   3.236   0.392   3.648  0.0754 -0.2133 -0.5095
19882TIP3   OH281136   2.535   0.002   1.953  0.4367 -0.1326 -0.1465
19882TIP3    H181137   2.510   0.063   2.023 -1.5387 -0.7505 -0.2459
19882TIP3    H281138   2.566  -0.076   1.999 -1.8153 -0.9290  0.1316
19883TIP3   OH281139   2.738   1.794  15.177  0.1083 -0.7426  0.1545
19883TIP3    H181140   2.676   1.736  15.221 -0.7064  1.2127  1.7363
19883TIP3    H281141   2.816   1.793  15.232 -0.5377  0.9118  1.1856
19884TIP3   OH281142   6.735   5.472  14.730 -0.3333 -0.3037  0.4351
19884TIP3    H181143   6.828   5.496  14.726 -0.4453 -0.0244 -0.7644
19884TIP3    H281144   6.714   5.444  14.642 -1.1796 -1.2183  0.9121
19885TIP3   OH281145   1.715   5.765   1.397 -0.1567  0.6385  0.2101
19885TIP3    H181146   1.712   5.691   1.337  1.2664  0.2111  0.6295
19885TIP3    H281147   1.689   5.728   1.482 -0.4996  0.8677  0.2087
19886TIP3   OH281148   5.213   0.353   1.149  0.6786 -0.0962  0.4111
19886TIP3    H181149   5.271   0.430   1.150  1.5483 -0.6851 -1.4041
19886TIP3    H281150   5.140   0.379   1.093  0.0161  0.0242  1.2979
19887TIP3   OH281151   6.678   0.337  14.830  0.2012 -0.1329  0.4533
19887TIP3    H181152   6.750   0.276  14.847  1.6616  1.4670  0.2253
19887TIP3    H281153   6.720   0.422  14.821 -1.5263  0.5846 -1.5805
19888TIP3   OH281154   2.488   3.973   5.022 -0.2166  0.0282  0.2853
19888TIP3    H181155   2.494   4.058   5.067 -3.0690  1.0506 -1.0136
19888TIP3    H281156   2.438   3.918   5.083 -0.2684 -0.0175  0.2013
19889TIP3   OH281157   2.057   2.130  12.658 -0.0293  0.5386 -0.0862
19889TIP3    H181158   2.148   2.134  12.628 -0.5161  0.6495 -1.6283
19889TIP3    H281159   2.053   2.196  12.728  1.5848 -1.0226  1.5756
19890TIP3   OH281160   2.882   1.697   6.004 -0.1599 -0.7349  0.1585
19890TIP3    H181161   2.833   1.776   6.026  1.1192  0.1829 -0.1426
19890TIP3    H281162   2.930   1.675   6.084  0.3604 -0.5371 -0.0957
19891TIP3   OH281163   0.938   4.104  14.954 -0.6771  0.2616 -0.5926
19891TIP3    H181164   0.994   4.172  14.918 -2.0315  2.1444  0.6864
19891TIP3    H281165   0.887   4.073  14.879 -0.6577  1.2851 -1.0463
19892TIP3   OH281166   3.120   3.993   5.388  0.3385 -0.1968 -0.6214
19892TIP3    H181167   3.081   3.920   5.435  0.4646  1.2080  1.8025
19892TIP3    H281168   3.076   3.993   5.303 -1.6449 -1.4007  0.3346
19893TIP3   OH281169   1.448   1.706  12.936 -0.2166 -0.1942  0.5317
19893TIP3    H181170   1.450   1.659  13.019  1.8618 -0.5861  0.3173
19893TIP3    H281171   1.486   1.792  12.956 -2.8061  1.0286  0.6450
19894TIP3   OH281172   6.092   5.689   6.214 -0.1685 -0.2522 -0.1154
19894TIP3    H181173   6.018   5.628   6.218 -1.0134  0.7312 -0.3573
19894TIP3    H281174   6.075   5.750   6.285  1.6056 -1.2884  1.2800
19895TIP3   OH281175   3.839   3.680   3.970  0.1322  0.6480  0.3687
19895TIP3    H181176   3.750   3.648   3.979 -0.4930  0.7317 -3.6446
19895TIP3    H281177   3.834   3.773   3.993 -1.0792  0.8828 -0.7514
19896TIP3   OH281178   2.129   6.487  16.687 -0.3477 -0.1061  0.7132
19896TIP3    H181179   2.202   6.476  16.747  0.4644  0.4543 -0.1401
19896TIP3    H281180   2.113   6.581  16.685  0.5556  0.0454 -0.9749
19897TIP3   OH281181   5.534   0.091  15.617 -0.2654 -0.2882  0.2303
19897TIP3    H181182   5.576   0.005  15.613  1.5189  0.5465  0.1256
19897TIP3    H281183   5.566   0.137  15.540 -1.9285  0.2006 -0.2246
19898TIP3   OH281184   1.748   0.512   2.504  0.5538  0.5887  0.3896
19898TIP3    H181185   1.794   0.526   2.587 -2.2933  0.1031  2.1745
19898TIP3    H281186   1.739   0.599   2.466 -2.1976  1.5968  3.0144
19899TIP3   OH281187   6.039   5.668  15.709 -0.2550 -0.1807  0.5271
19899TIP3    H181188   6.033   5.623  15.793  0.5464 -0.5578  0.3826
19899TIP3    H281189   6.100   5.740  15.724 -1.4881  0.8629  0.7440
19900TIP3   OH281190   0.148   5.056   2.014 -1.1057 -0.6267  0.0628
19900TIP3    H181191   0.191   4.980   2.054  1.5168 -0.0784 -1.4370
19900TIP3    H281192   0.200   5.131   2.045 -1.0414  0.1044 -1.7322
19901TIP3   OH281193   6.829   0.866   3.797  0.2458  0.5766 -0.2993
19901TIP3    H181194   6.734   0.861   3.794  0.2630  0.6063 -1.3287
19901TIP3    H281195   6.850   0.871   3.890 -0.8189  1.7760 -0.1002
19902TIP3   OH281196   6.512   4.834   1.735 -0.0968 -0.4164 -0.0462
19902TIP3    H181197   6.492   4.744   1.762  0.8778 -1.0185 -1.2466
19902TIP3    H281198   6.565   4.870   1.806  0.1724 -1.0636  0.0837
19903TIP3   OH281199   5.979   5.394   5.698 -0.2391 -0.1747 -0.4724
19903TIP3    H181200   5.932   5.470   5.733  0.4616 -0.5437  1.3530
19903TIP3    H281201   6.045   5.432   5.639  2.8550  1.1511  3.4132
19904TIP3   OH281202   0.451   5.617  13.515  0.0142 -0.2105  0.0575
19904TIP3    H181203   0.362   5.596  13.484  0.3006 -1.3339 -0.0275
19904TIP3    H281204   0.479   5.539  13.562  1.7458 -0.6923 -1.6653
19905TIP3   OH281205   3.035   4.136  13.594 -0.0329 -0.0015  0.6596
19905TIP3    H181206   2.999   4.216  13.554  0.2644  0.0139  0.4174
19905TIP3    H281207   2.974   4.067  13.570 -1.3544  0.4546  2.4695
19906TIP3   OH281208   1.255   1.451   4.294 -0.0043  0.1755 -0.4283
19906TIP3    H181209   1.263   1.544   4.274  1.2442  0.2206  0.1770
19906TIP3    H281210   1.173   1.424   4.251 -0.9645  1.7750  0.3144
19907TIP3   OH281211   2.055   2.535   6.086  0.1586 -0.0630 -0.6365
19907TIP3    H181212   2.058   2.459   6.144  1.4547  0.8116  0.4856
19907TIP3    H281213   2.110   2.511   6.012  1.7386  0.2608  0.3794
19908TIP3   OH281214   2.588   6.085   4.632 -0.0331 -0.6558 -0.7730
19908TIP3    H181215   2.551   6.016   4.578  2.2114 -3.0933  0.5299
19908TIP3    H281216   2.656   6.126   4.578  0.8520 -1.7452 -0.5243
19909TIP3   OH281217   4.232   2.591  12.590 -0.5349  0.4259  0.0130
19909TIP3    H181218   4.149   2.571  12.547 -0.4480  2.3930 -1.2083
19909TIP3    H281219   4.223   2.682  12.619  1.5930  1.1199 -1.2658
19910TIP3   OH281220   5.900   5.934   0.268  0.0360 -0.5704 -0.7236
19910TIP3    H181221   5.895   6.025   0.298  1.0665  0.1937 -2.6800
19910TIP3    H281222   5.856   5.934   0.183 -0.1930 -1.9909 -0.6378
19911TIP3   OH281223   1.269   3.628   3.633 -0.1972 -0.2721  0.1094
19911TIP3    H181224   1.317   3.546   3.620 -0.8745 -1.1026  2.4776
19911TIP3    H281225   1.292   3.655   3.722  0.4219  2.4372 -0.7760
19912TIP3   OH281226   1.064   5.305  14.229 -0.4326  0.1787  0.3709
19912TIP3    H181227   1.108   5.374  14.180 -1.7872  0.3524 -0.6574
19912TIP3    H281228   1.028   5.350  14.306 -2.6728  1.0313 -1.0774
19913TIP3   OH281229   0.823   0.640  10.462 -0.4996  0.8891  0.4267
19913TIP3    H181230   0.845   0.696  10.387 -0.6836 -0.3830 -0.6192
19913TIP3    H281231   0.744   0.594  10.435  0.1169 -0.5061  0.8807
19914TIP3   OH281232   4.172   3.162  12.700  0.0651 -0.4621 -0.4697
19914TIP3    H181233   4.254   3.149  12.747 -1.0441 -1.2593  1.3411
19914TIP3    H281234   4.169   3.091  12.636  0.0501 -1.4374  0.5802
19915TIP3   OH281235   5.408   2.548   2.299  0.2379  0.0451  0.0769
19915TIP3    H181236   5.475   2.482   2.318  0.1263  0.0814  0.5942
19915TIP3    H281237   5.347   2.504   2.240  1.0288  0.1914 -0.8872
19916TIP3   OH281238   6.358   6.836  12.152  0.3268 -0.0786 -0.1212
19916TIP3    H181239   6.385   6.881  12.072  1.0765 -2.1456 -1.1081
19916TIP3    H281240   6.311   6.758  12.121 -2.6138  0.8832  1.5290
19917TIP3   OH281241   1.845   3.930  12.995  0.2346 -0.9059  0.3487
19917TIP3    H181242   1.850   4.022  13.022  0.6366 -0.3793 -1.4012
19917TIP3    H281243   1.908   3.885  13.052  0.7539  0.0691  0.5757
19918TIP3   OH281244   3.184   1.576   5.048  0.1778 -0.0776 -0.7355
19918TIP3    H181245   3.119   1.521   5.003 -0.7101 -0.1654  0.6072
19918TIP3    H281246   3.260   1.519   5.059 -0.0487 -0.4408 -1.0247
19919TIP3   OH281247   4.180   4.697  11.172 -0.0521  0.1718 -0.2452
19919TIP3    H181248   4.109   4.748  11.132  0.2355  0.8638  0.1014
19919TIP3    H281249   4.256   4.713  11.115 -0.4906 -1.6987 -1.4241
19920TIP3   OH281250   1.452   1.530   4.503  0.0734 -0.2205 -0.8211
19920TIP3    H181251   1.540   1.514   4.468  0.4621 -0.3290  0.1756
19920TIP3    H281252   1.396   1.535   4.426  0.8632 -0.7251 -1.4413
19921TIP3   OH281253   1.213   5.590   1.899 -0.8664  0.0132 -0.2459
19921TIP3    H181254   1.191   5.557   1.812 -0.6535  0.5284 -0.4943
19921TIP3    H281255   1.308   5.577   1.906 -1.2197 -2.7785  1.0556
19922TIP3   OH281256   5.164   2.318  15.252 -0.0555  0.5383 -0.6482
19922TIP3    H181257   5.183   2.371  15.330  0.3183  0.1073 -0.4439
19922TIP3    H281258   5.070   2.304  15.255 -0.3749  2.2656 -1.3894
19923TIP3   OH281259   0.930   3.025   5.251 -0.3703  0.1333 -0.5777
19923TIP3    H181260   0.926   2.991   5.161  2.3577  1.3272 -1.2547
19923TIP3    H281261   0.963   2.952   5.303 -2.4805 -0.7380 -0.3606
19924TIP3   OH281262   3.477   5.474   0.956 -0.5916 -0.3063  0.6375
19924TIP3    H181263   3.490   5.388   0.995  1.0895 -0.0463  0.7230
19924TIP3    H281264   3.554   5.487   0.901 -0.8005  1.1536  0.6513
19925TIP3   OH281265   6.498   1.099   1.263  0.0096  0.0453  0.5813
19925TIP3    H181266   6.451   1.139   1.336  0.0201 -0.4319  0.8615
19925TIP3    H281267   6.431   1.082   1.197 -0.1513 -0.2754  0.8206
19926TIP3   OH281268   0.346   2.493   5.403 -0.4600  0.1832  0.0141
19926TIP3    H181269   0.380   2.493   5.492  0.1343 -0.7846 -0.1903
19926TIP3    H281270   0.339   2.400   5.380 -1.6724  0.3876 -0.5549
19927TIP3   OH281271   3.788   6.723  14.496 -0.5336  0.0675 -0.4685
19927TIP3    H181272   3.842   6.666  14.441  1.2428  0.8252  0.3813
19927TIP3    H281273   3.746   6.664  14.558  1.3248 -0.3855  0.4398
19928TIP3   OH281274   4.103   0.503  15.501  0.8795  0.0836  0.0050
19928TIP3    H181275   4.195   0.513  15.479  1.3693  0.2156  1.9374
19928TIP3    H281276   4.079   0.587  15.542  0.5692 -0.7712  1.6458
19929TIP3   OH281277   5.701   4.349  12.349 -0.4523 -0.4309 -0.5068
19929TIP3    H181278   5.701   4.433  12.395  0.4805 -0.9030  0.3902
19929TIP3    H281279   5.641   4.294  12.400 -0.0345 -0.7106 -0.3111
19930TIP3   OH281280   4.648   4.549  12.567  0.0936  0.2246  0.7947
19930TIP3    H181281   4.686   4.473  12.611  0.9258  0.1604 -0.0126
19930TIP3    H281282   4.602   4.512  12.492 -0.3814  0.4314  0.9811
19931TIP3   OH281283   1.488   6.442  11.345  0.5293 -0.0218 -0.2069
19931TIP3    H181284   1.558   6.505  11.364  1.4805 -0.6325 -1.4593
19931TIP3    H281285   1.437   6.483  11.276  0.7373 -0.3249 -0.5441
19932TIP3   OH281286   1.222   1.380   3.009 -0.2334  0.2618  0.2432
19932TIP3    H181287   1.263   1.429   3.080 -1.2586  3.1917 -1.0322
19932TIP3    H281288   1.153   1.438   2.977 -2.9317 -2.8681 -0.1528
19933TIP3   OH281289   1.694   4.786   0.768  0.3557 -0.3357 -0.1711
19933TIP3    H181290   1.640   4.712   0.797  1.3545 -0.7826  0.6426
19933TIP3    H281291   1.633   4.846   0.726 -1.2896  0.3920  2.9253
19934TIP3   OH281292   3.620   0.071  16.638 -0.1476 -0.1543  0.3832
19934TIP3    H181293   3.710   0.041  16.650 -0.1694 -0.2489  0.3090
19934TIP3    H281294   3.589   0.089  16.727 -0.6451 -1.8346  0.5838
19935TIP3   OH281295   0.790   3.352   1.263  0.5559 -0.3440 -0.0428
19935TIP3    H181296   0.803   3.430   1.317 -0.5840 -0.2461  0.1099
19935TIP3    H281297   0.877   3.314   1.256  0.9965  0.5059  0.5466
19936TIP3   OH281298   5.302   4.071  12.099  0.1781  0.1000  0.8683
19936TIP3    H181299   5.375   4.059  12.160  1.5383  2.5416 -0.1846
19936TIP3    H281300   5.334   4.132  12.033 -2.5106  0.5315 -0.1836
19937TIP3   OH281301   3.510   3.851  15.295 -0.0341 -0.0977 -0.3483
19937TIP3    H181302   3.501   3.937  15.335 -1.9636 -1.1951  1.7754
19937TIP3    H281303   3.604   3.838  15.286  0.3263  1.6330  0.5918
19938TIP3   OH281304   5.541   3.052   2.656 -0.1871 -0.1115 -0.8679
19938TIP3    H181305   5.495   3.032   2.575  0.0629 -2.2999 -0.5559
19938TIP3    H281306   5.579   2.968   2.682 -0.3520  0.4968  1.5660
19939TIP3   OH281307   1.499   1.341  16.995  0.2265  0.1200 -0.4861
19939TIP3    H181308   1.446   1.298  16.927 -2.1398 -0.0766  1.3686
19939TIP3    H281309   1.570   1.279  17.011  0.2671 -0.2954 -2.0256
19940TIP3   OH281310   3.580   4.002  13.478  0.3005 -0.0987 -0.4916
19940TIP3    H181311   3.487   4.007  13.500  0.0502  0.8006 -1.6629
19940TIP3    H281312   3.623   3.983  13.561 -0.9540 -0.9013  0.0033
19941TIP3   OH281313   2.536   6.103  16.991 -0.1347 -0.2066 -0.4354
19941TIP3    H181314   2.588   6.113  17.071  1.5072 -0.2610 -1.4432
19941TIP3    H281315   2.575   6.028  16.947 -1.1586 -0.3146 -1.1761
19942TIP3   OH281316   1.241   5.553   5.815 -0.3900 -0.3918  0.0777
19942TIP3    H181317   1.209   5.613   5.747 -0.0817 -0.9173 -0.5305
19942TIP3    H281318   1.335   5.545   5.798 -0.2013 -0.0866  0.9144
19943TIP3   OH281319   4.737   4.591  12.239  0.3203 -0.2725 -0.1937
19943TIP3    H181320   4.772   4.563  12.324 -0.4507  1.4436  0.7289
19943TIP3    H281321   4.673   4.658  12.261  1.3461  1.4534 -2.2342
19944TIP3   OH281322   2.190   5.169  14.500  0.4847  0.3987  0.4213
19944TIP3    H181323   2.246   5.169  14.578 -0.3077  0.9126  1.0015
19944TIP3    H281324   2.124   5.102  14.518  1.0396 -0.3955 -0.3764
19945TIP3   OH281325   5.554   5.293   2.702 -0.4946 -0.2245 -0.0498
19945TIP3    H181326   5.520   5.261   2.618 -2.2756 -0.2837  0.6505
19945TIP3    H281327   5.498   5.367   2.724  0.6367  0.4703  0.5962
19946TIP3   OH281328   2.700   3.968   6.200  0.0538  0.2869 -0.4078
19946TIP3    H181329   2.696   3.900   6.268 -0.7752 -1.4692 -2.1222
19946TIP3    H281330   2.673   4.048   6.245  0.2167 -0.6616  1.4874
19947TIP3   OH281331   1.436   2.492   6.153 -0.2707 -0.2314  0.3920
19947TIP3    H181332   1.412   2.583   6.169  0.3045  0.1679 -0.8991
19947TIP3    H281333   1.530   2.488   6.172 -0.3175 -0.5846  0.5582
19948TIP3   OH281334   3.201   6.476  13.693  0.2880 -0.6098 -0.5022
19948TIP3    H181335   3.227   6.448  13.605  0.0102 -0.5427 -0.6074
19948TIP3    H281336   3.213   6.571  13.693  0.4523 -0.6297 -0.4095
19949TIP3   OH281337   6.142   5.198  14.912 -0.0173  0.3070  0.2606
19949TIP3    H181338   6.153   5.291  14.894 -1.8595  0.4682 -0.2028
19949TIP3    H281339   6.101   5.195  14.998  0.9990 -0.1359  0.7426
19950TIP3   OH281340   3.761   4.488   2.731  0.6475 -0.5047 -0.2248
19950TIP3    H181341   3.737   4.399   2.755 -0.2503 -0.3158 -0.3651
19950TIP3    H281342   3.803   4.479   2.645 -1.0465 -0.6404 -1.0916
19951TIP3   OH281343   5.010   0.224   4.089 -0.3716  0.4702 -0.2274
19951TIP3    H181344   5.018   0.239   4.183 -0.4461  0.7368 -0.2612
19951TIP3    H281345   5.061   0.296   4.050  1.9831 -1.1544 -0.3555
19952TIP3   OH281346   3.776   4.249  14.282 -0.0273  0.7198  0.0626
19952TIP3    H181347   3.724   4.217  14.208  0.9318  1.7351 -1.0998
19952TIP3    H281348   3.866   4.230  14.258  0.3808  2.0182  0.4716
19953TIP3   OH281349   3.770   2.330  10.838 -0.3400  0.3885  0.8789
19953TIP3    H181350   3.757   2.325  10.743 -0.5958  0.3624  0.9161
19953TIP3    H281351   3.826   2.407  10.850 -1.5480  1.3120  0.8174
19954TIP3   OH281352   4.618   3.155  10.489 -0.5051  0.3240  0.5187
19954TIP3    H181353   4.587   3.177  10.577 -0.1549  0.0247  0.7225
19954TIP3    H281354   4.634   3.061  10.492 -1.4188  0.1327 -0.1601
19955TIP3   OH281355   0.355   6.165   1.765  0.0494 -0.2764  0.4419
19955TIP3    H181356   0.418   6.096   1.743 -0.4317 -1.2941  2.0998
19955TIP3    H281357   0.406   6.246   1.761  0.9664 -0.8646 -0.1752
19956TIP3   OH281358   2.991   5.212  16.775 -0.7904  0.4331 -0.5076
19956TIP3    H181359   3.017   5.121  16.789 -1.8989 -0.0700 -1.5434
19956TIP3    H281360   2.914   5.224  16.831 -1.3113  0.3894 -1.2080
19957TIP3   OH281361   4.782   2.963   0.326 -0.0359 -0.7629  0.3464
19957TIP3    H181362   4.765   3.027   0.257 -1.1911 -1.4211 -0.0031
19957TIP3    H281363   4.713   2.981   0.391  0.6705 -0.5490  1.0563
19958TIP3   OH281364   2.574   4.268  16.545  0.3802 -0.3586 -0.4547
19958TIP3    H181365   2.637   4.275  16.616 -2.3547  2.1219  1.9945
19958TIP3    H281366   2.599   4.338  16.484  1.0558 -0.6356 -0.5064
19959TIP3   OH281367   3.476   4.285   5.451  0.0417  0.7833 -0.2128
19959TIP3    H181368   3.552   4.332   5.417  1.4479 -1.2658 -0.0172
19959TIP3    H281369   3.511   4.206   5.490 -2.1564  0.0256  0.3903
19960TIP3   OH281370   4.720   3.357   4.773 -0.0414  0.2284 -0.3152
19960TIP3    H181371   4.734   3.426   4.709  3.9319 -1.2038 -1.2986
19960TIP3    H281372   4.627   3.359   4.791 -0.6262  3.5587 -2.8345
19961TIP3   OH281373   1.701   4.924   3.229 -0.4146 -0.4127 -0.2586
19961TIP3    H181374   1.615   4.965   3.222 -0.2048 -0.1269 -1.2986
19961TIP3    H281375   1.761   4.997   3.247 -0.5638 -0.7941  2.1693
19962TIP3   OH281376   4.913   3.124   2.256  0.0341  0.0008 -0.2689
19962TIP3    H181377   4.919   3.172   2.338 -2.6869  0.5058 -0.2435
19962TIP3    H281378   4.985   3.062   2.258  0.7933  0.8688  1.9028
19963TIP3   OH281379   5.850   3.657   3.276 -0.5742  0.0029  0.8502
19963TIP3    H181380   5.828   3.565   3.261  1.2376 -0.5049  0.9502
19963TIP3    H281381   5.831   3.672   3.368 -3.3993  0.5547  0.2545
19964TIP3   OH281382   1.923   6.838   1.709  0.5562 -0.5974 -0.3732
19964TIP3    H181383   1.835   6.873   1.694  1.4632  3.0911  1.4716
19964TIP3    H281384   1.969   6.852   1.626 -0.7423 -3.7272 -1.7816
19965TIP3   OH281385   1.940   4.376   0.434 -0.9323  0.0261  0.5184
19965TIP3    H181386   1.909   4.289   0.407 -0.3217 -0.2281  0.6048
19965TIP3    H281387   2.035   4.368   0.434 -0.8868  0.0948  2.4451
19966TIP3   OH281388   2.766   1.973   2.743  0.0147  0.5887 -0.7054
19966TIP3    H181389   2.755   1.878   2.733 -1.5638  0.6864 -0.2372
19966TIP3    H281390   2.817   2.000   2.667 -1.2873 -0.3500 -1.9451
19967TIP3   OH281391   2.663   2.668  12.702  0.4248  0.1999 -0.1655
19967TIP3    H181392   2.628   2.712  12.626 -1.0095  0.7171  0.7617
19967TIP3    H281393   2.693   2.738  12.760  0.0471 -0.1066  0.4182
19968TIP3   OH281394   5.101   1.357   0.105  0.3186 -0.1204 -0.4469
19968TIP3    H181395   5.010   1.354   0.075  0.2530  0.0798 -0.2707
19968TIP3    H281396   5.096   1.331   0.197  0.1968  1.7387  0.1077
19969TIP3   OH281397   4.570   3.363  11.338  0.3175  0.2332 -0.0865
19969TIP3    H181398   4.609   3.341  11.254  3.3973  4.0824  0.0594
19969TIP3    H281399   4.628   3.324  11.403  1.2007  1.8376  0.1447
19970TIP3   OH281400   0.741   4.213   2.200 -0.4463  0.5771 -0.3474
19970TIP3    H181401   0.722   4.159   2.277  1.0302 -0.2692 -0.5404
19970TIP3    H281402   0.662   4.206   2.146 -0.6907 -0.5374  0.1281
19971TIP3   OH281403   0.151   1.242  15.786 -0.0269  0.1754  0.0146
19971TIP3    H181404   0.124   1.182  15.715  0.1336 -1.1653  1.0483
19971TIP3    H281405   0.093   1.220  15.859  0.3974  0.9338  0.5936
19972TIP3   OH281406   5.411   6.297  12.232  0.3841 -0.2336 -0.4734
19972TIP3    H181407   5.486   6.331  12.280  1.3960 -1.0724 -1.4053
19972TIP3    H281408   5.360   6.374  12.208  0.6203  0.2966  0.6785
19973TIP3   OH281409   4.690   3.513  16.617 -0.1189  0.2539  0.1945
19973TIP3    H181410   4.746   3.526  16.694  0.2505 -1.9050  0.3382
19973TIP3    H281411   4.744   3.543  16.543  0.0737  0.9748  0.6134
19974TIP3   OH281412   3.912   0.313   2.869 -0.7667  0.4650 -0.2036
19974TIP3    H181413   3.952   0.227   2.863 -1.4649 -0.0650  1.7915
19974TIP3    H281414   3.940   0.359   2.790  2.1976 -0.4932  0.1830
19975TIP3   OH281415   5.874   1.160  13.196  0.2305  0.4577  0.1175
19975TIP3    H181416   5.953   1.148  13.249  0.5489  0.7897 -0.2850
19975TIP3    H281417   5.897   1.226  13.131 -0.5134  0.8720  0.2625
19976TIP3   OH281418   6.289   3.298   5.145  0.0606 -0.7469  0.2534
19976TIP3    H181419   6.200   3.332   5.154 -0.2887 -2.0893  2.9402
19976TIP3    H281420   6.287   3.213   5.189  2.3848 -1.3825 -0.7312
19977TIP3   OH281421   3.619   4.043  10.936  0.2669 -0.0223 -0.0848
19977TIP3    H181422   3.629   3.967  10.878 -0.1138  0.1257 -0.3495
19977TIP3    H281423   3.687   4.104  10.907  3.3180 -1.7808  2.6693
19978TIP3   OH281424   6.735   5.012  14.683 -0.0569  0.2974 -0.1095
19978TIP3    H181425   6.715   5.083  14.743  0.6635 -0.8916  1.6191
19978TIP3    H281426   6.662   4.950  14.694 -1.1265  1.0703 -2.2249
19979TIP3   OH281427   1.442   5.463  16.250  0.0352 -0.1766  0.0521
19979TIP3    H181428   1.471   5.371  16.256 -0.2983 -0.2091  1.5750
19979TIP3    H281429   1.432   5.490  16.341  0.2266  1.4212 -0.3866
19980TIP3   OH281430   2.102   4.955  14.273  0.2875 -0.5193  0.0172
19980TIP3    H181431   2.120   4.947  14.366 -1.2943 -0.5397  0.3420
19980TIP3    H281432   2.007   4.946  14.265  0.4315 -1.0329 -1.6521
19981TIP3   OH281433   5.303   0.185  11.045 -0.2710 -0.1925 -0.7678
19981TIP3    H181434   5.352   0.257  11.086 -0.9096  1.0661 -2.0958
19981TIP3    H281435   5.370   0.122  11.020  0.2422 -0.3986  1.0321
19982TIP3   OH281436   4.301   4.753   4.327  0.5856 -0.3610 -0.4058
19982TIP3    H181437   4.221   4.753   4.273  0.9341  0.0943 -0.9424
19982TIP3    H281438   4.349   4.831   4.297  0.4537  0.3152  1.0763
19983TIP3   OH281439   4.056   5.903   4.027  0.0192  0.6846 -0.3714
19983TIP3    H181440   4.087   5.826   3.979  0.5052  1.2205 -0.9358
19983TIP3    H281441   3.993   5.945   3.968 -0.8274  0.3156  0.2456
19984TIP3   OH281442   3.582   4.105   4.477 -0.3635  0.3006  0.0803
19984TIP3    H181443   3.504   4.155   4.502  1.0790  2.1767  1.1318
19984TIP3    H281444   3.615   4.150   4.400  0.5086  0.4820  0.5478
19985TIP3   OH281445   4.650   1.290   0.030 -0.2935  0.0129 -0.1150
19985TIP3    H181446   4.655   1.196   0.049  0.1812  0.1573  0.4962
19985TIP3    H281447   4.558   1.312   0.043  0.0528  0.1890  2.5756
19986TIP3   OH281448   5.669   0.191  11.224  0.0941 -0.1053 -0.0172
19986TIP3    H181449   5.601   0.135  11.262 -0.5076  1.7642  1.8794
19986TIP3    H281450   5.686   0.153  11.138 -1.4612 -2.1756  0.5062
19987TIP3   OH281451   5.854   4.411  16.123  0.2200  0.2125 -0.0553
19987TIP3    H181452   5.904   4.462  16.059 -0.0355 -0.0573 -0.4716
19987TIP3    H281453   5.824   4.334  16.074 -0.0277  0.0361  0.3741
19988TIP3   OH281454   0.359   3.625   4.279  0.2901  0.5081  0.7461
19988TIP3    H181455   0.444   3.622   4.323  1.6831  0.4951 -1.7544
19988TIP3    H281456   0.361   3.706   4.228  0.3253 -1.1319 -2.0654
19989TIP3   OH281457   4.148   0.736   5.206  0.3816  0.4904 -0.6193
19989TIP3    H181458   4.188   0.742   5.119  0.2628 -1.9554 -0.9360
19989TIP3    H281459   4.096   0.656   5.203  1.9173 -0.8038  2.2662
19990TIP3   OH281460   0.180   2.422   4.320 -0.2347 -0.5640  0.2646
19990TIP3    H181461   0.103   2.456   4.366 -1.0681 -1.7889 -0.2106
19990TIP3    H281462   0.147   2.391   4.236  0.6562 -1.7367  0.3279
19991TIP3   OH281463   1.394   0.298  14.159 -0.6249 -0.6813 -0.3733
19991TIP3    H181464   1.379   0.391  14.141  1.1618 -0.4207 -0.7235
19991TIP3    H281465   1.431   0.264  14.078 -1.1017 -1.6743 -0.1864
19992TIP3   OH281466   4.272   3.864  11.794 -0.1320  0.0586  0.0459
19992TIP3    H181467   4.260   3.945  11.844 -2.0898 -0.5718  0.6739
19992TIP3    H281468   4.353   3.826  11.829  0.1571  1.1379  0.5917
19993TIP3   OH281469   5.291   4.599  13.182  0.5114  0.2542  0.4219
19993TIP3    H181470   5.294   4.603  13.086  0.2409 -0.1867  0.3883
19993TIP3    H281471   5.282   4.690  13.210 -2.4686  0.2153 -0.0963
19994TIP3   OH281472   0.885   3.573  16.398 -0.4229  0.5063  0.5709
19994TIP3    H181473   0.913   3.516  16.326  1.9269  0.7783  1.1999
19994TIP3    H281474   0.802   3.535  16.428  1.1542 -2.8301  1.1609
19995TIP3   OH281475   3.944   6.646   5.717  0.3496 -0.1576  0.0300
19995TIP3    H181476   4.023   6.662   5.665 -0.0532  1.6477 -0.1049
19995TIP3    H281477   3.913   6.560   5.689  1.7214 -0.4684 -0.6182
19996TIP3   OH281478   6.210   1.569  10.383  0.6918  0.3577  0.2981
19996TIP3    H181479   6.294   1.532  10.357 -0.1535 -3.0083  1.8051
19996TIP3    H281480   6.147   1.499  10.365 -1.3739  1.7641  1.7077
19997TIP3   OH281481   1.722   3.684   3.079 -0.1086 -0.2473 -0.0408
19997TIP3    H181482   1.667   3.658   3.153  0.1274  1.8990  0.9711
19997TIP3    H281483   1.659   3.712   3.012 -0.3163  0.7130  0.5289
19998TIP3   OH281484   4.955   2.001  12.256 -0.1814  0.1245 -0.3360
19998TIP3    H181485   5.033   2.054  12.241  0.1351 -0.8385 -2.3213
19998TIP3    H281486   4.932   1.966  12.170 -1.2366 -1.7716  0.6506
19999TIP3   OH281487   5.157   6.389  11.579  0.7759  0.3399 -0.2520
19999TIP3    H181488   5.191   6.367  11.666 -2.0453 -0.7540  0.6983
19999TIP3    H281489   5.134   6.304  11.541 -1.1153  0.9992 -0.6547
20000TIP3   OH281490   6.643   0.786  12.990  0.1415  0.0394 -0.3125
20000TIP3    H181491   6.662   0.713  12.931 -1.3099  0.1839 -1.0165
20000TIP3    H281492   6.613   0.856  12.932  0.8292  0.9629  0.4215
20001TIP3   OH281493   4.790   4.340  11.137  0.0678 -0.0494  0.2155
20001TIP3    H181494   4.746   4.424  11.151  0.7588  0.2541  0.6728
20001TIP3    H281495   4.758   4.284  11.207  0.1913  0.0842  0.3804
20002TIP3   OH281496   0.049   6.303  14.600  0.0689  0.3875 -0.0339
20002TIP3    H181497   0.015   6.355  14.527  1.5919  0.3689 -0.7808
20002TIP3    H281498  -0.021   6.306  14.666 -1.5353  0.0153 -1.6452
20003TIP3   OH281499   3.122   3.452  14.586  0.3682  0.1059  0.6283
20003TIP3    H181500   3.033   3.440  14.620  0.2808 -0.2329  0.2802
20003TIP3    H281501   3.147   3.367  14.552 -0.2918  0.8548 -1.9444
20004TIP3   OH281502   0.217   4.476   5.835  0.7214 -0.3319 -0.2465
20004TIP3    H181503   0.179   4.463   5.922 -0.1972 -1.3374 -0.7708
20004TIP3    H281504   0.303   4.514   5.852  1.4723 -2.4748  1.2327
20005TIP3   OH281505   1.044   0.717  10.920 -0.6484  0.4559  0.7757
20005TIP3    H181506   1.052   0.660  10.843  0.2933  0.7758  0.6142
20005TIP3    H281507   1.053   0.657  10.994 -0.8341  0.2411  0.6272
20006TIP3   OH281508   0.092   3.112   6.337 -0.4858  0.2718  0.9011
20006TIP3    H181509   0.078   3.200   6.303 -0.1684  0.1406  0.4298
20006TIP3    H281510   0.176   3.085   6.301 -1.3542 -0.8869 -0.3765
20007TIP3   OH281511   1.050   2.347  14.596  0.1006 -0.4443 -0.0238
20007TIP3    H181512   1.138   2.321  14.622  0.0187 -0.0711  0.6401
20007TIP3    H281513   0.992   2.307  14.662 -0.0918  0.6626  0.5026
20008TIP3   OH281514   1.131   6.705  10.416  0.0531  0.5705  0.6805
20008TIP3    H181515   1.103   6.681  10.504 -0.0573 -0.5748  0.3433
20008TIP3    H281516   1.084   6.645  10.358  1.6956 -0.0870 -0.0199
20009TIP3   OH281517   4.679   3.707  15.716 -0.1061 -0.1639  0.0798
20009TIP3    H181518   4.686   3.798  15.747 -0.6447 -0.2882  0.5815
20009TIP3    H281519   4.666   3.715  15.622  2.7610  0.2003 -0.3767
20010TIP3   OH281520   2.477   3.146   2.867  0.8429 -0.0023  0.4089
20010TIP3    H181521   2.487   3.074   2.805  1.4096  0.6262 -0.2449
20010TIP3    H281522   2.475   3.104   2.953  1.2564 -0.7855  0.0414
20011TIP3   OH281523   6.202   0.224   3.673  0.0082  0.1844  0.2761
20011TIP3    H181524   6.209   0.230   3.578 -1.4194 -1.0937  0.0473
20011TIP3    H281525   6.274   0.277   3.706  1.2718 -0.3193 -1.5221
20012TIP3   OH281526   4.519   1.274  15.540 -0.4171 -0.4057  0.1785
20012TIP3    H181527   4.585   1.312  15.598 -0.6048  1.9491 -1.0302
20012TIP3    H281528   4.515   1.334  15.465 -2.1104 -1.8649 -0.9862
20013TIP3   OH281529   3.291   0.601   0.060 -0.0242 -0.0610  0.1237
20013TIP3    H181530   3.195   0.600   0.059 -0.0903  1.8741  0.3656
20013TIP3    H281531   3.315   0.642  -0.023  0.6699 -1.7571 -0.5474
20014TIP3   OH281532   1.627   1.105   3.436  0.2623  0.3716  0.2436
20014TIP3    H181533   1.722   1.106   3.425  0.2246 -3.3275 -1.7670
20014TIP3    H281534   1.607   1.017   3.466 -2.6593  0.5322 -0.9329
20015TIP3   OH281535   3.950   5.295   1.816 -0.3884  0.3766 -0.0001
20015TIP3    H181536   3.960   5.368   1.755 -0.3316 -0.4429 -0.9919
20015TIP3    H281537   3.888   5.236   1.774  1.2347 -1.2250 -0.3064
20016TIP3   OH281538   0.147   3.637  12.036  0.0590  0.3590 -0.0600
20016TIP3    H181539   0.105   3.608  11.955 -0.9071  1.0346  0.1827
20016TIP3    H281540   0.099   3.592  12.106 -0.8882  1.8012  0.2713
20017TIP3   OH281541   6.477   3.332   6.018 -0.6451 -0.0294 -0.1705
20017TIP3    H181542   6.554   3.329   6.075 -1.0588  0.6096  0.4260
20017TIP3    H281543   6.421   3.400   6.056 -2.7100 -2.2021  0.9171
20018TIP3   OH281544   3.794   0.877  16.353 -0.0971  0.1989  0.6411
20018TIP3    H181545   3.771   0.939  16.283 -0.1622  0.3929  0.8329
20018TIP3    H281546   3.886   0.896  16.371  0.3393 -0.8292 -0.3906
20019TIP3   OH281547   1.652   5.513   1.274 -0.3907 -0.2316 -0.5729
20019TIP3    H181548   1.731   5.473   1.239  0.9122 -1.0255  2.9167
20019TIP3    H281549   1.592   5.440   1.289 -2.0001  0.3734 -3.3115
20020TIP3   OH281550   5.555   3.400   5.205  0.0288 -0.6007 -0.5763
20020TIP3    H181551   5.543   3.421   5.112  0.5549 -0.6862 -0.6637
20020TIP3    H281552   5.531   3.307   5.212 -2.8009  0.0608 -0.0974
20021TIP3   OH281553   6.658   0.500  11.416  0.5057  0.4652 -0.0474
20021TIP3    H181554   6.740   0.483  11.462  0.6842 -0.2494 -0.6128
20021TIP3    H281555   6.642   0.593  11.428  0.2537  0.2066  1.9624
20022TIP3   OH281556   1.487   0.106  13.411 -0.3156 -0.2470 -0.5903
20022TIP3    H181557   1.528   0.026  13.378  1.3260 -1.5353  3.8999
20022TIP3    H281558   1.558   0.169  13.417 -0.1625 -0.5748  1.7308
20023TIP3   OH281559   6.671   4.882  15.291 -0.6493 -0.1322  0.0317
20023TIP3    H181560   6.596   4.824  15.298 -0.5458 -0.2840 -0.1244
20023TIP3    H281561   6.650   4.956  15.349 -1.0195 -0.0604 -0.1984
20024TIP3   OH281562   4.499   0.437   3.365  0.2679 -0.1182 -0.3509
20024TIP3    H181563   4.486   0.452   3.272  2.5748  1.0493 -0.5445
20024TIP3    H281564   4.533   0.520   3.399  3.1503 -1.5941  0.7356
20025TIP3   OH281565   3.013   5.393  16.023  0.3846 -0.3145 -0.5473
20025TIP3    H181566   2.958   5.343  15.963  0.7631 -0.4928 -0.7484
20025TIP3    H281567   3.055   5.459  15.968  0.6631 -0.4224 -0.4692
20026TIP3   OH281568   6.091   0.178  12.376 -0.7133 -0.5288  0.5067
20026TIP3    H181569   6.161   0.241  12.393 -1.6094  0.0569  2.2138
20026TIP3    H281570   6.129   0.093  12.401  0.8005 -0.9397 -2.6121
20027TIP3   OH281571   5.075   3.368  13.215  0.5253  0.1506 -0.1815
20027TIP3    H181572   5.026   3.288  13.200 -0.5292  0.4512  1.4297
20027TIP3    H281573   5.043   3.429  13.149  0.2304 -0.2797 -0.4385
20028TIP3   OH281574   0.726   6.501   6.483  0.4618 -0.7087 -0.1431
20028TIP3    H181575   0.653   6.549   6.520  0.7574  1.1285 -1.7970
20028TIP3    H281576   0.689   6.451   6.411  0.5516 -1.1690  0.1241
20029TIP3   OH281577   5.895   6.360   2.550  0.0644  0.5154 -0.7320
20029TIP3    H181578   5.931   6.333   2.635 -1.2756 -0.3520 -0.4219
20029TIP3    H281579   5.852   6.444   2.567 -0.3877  0.2382 -0.5012
20030TIP3   OH281580   6.842   1.184   2.126  0.2723  0.1616  0.1117
20030TIP3    H181581   6.854   1.129   2.049  0.3342 -0.1008  0.3065
20030TIP3    H281582   6.902   1.258   2.113 -0.6194  0.7683 -0.6835
20031TIP3   OH281583   2.220   5.928   6.360 -0.0979  0.4028  0.0659
20031TIP3    H181584   2.264   5.983   6.295 -0.3224  2.2174  1.3716
20031TIP3    H281585   2.279   5.928   6.435  0.0799 -1.5307 -0.0111
20032TIP3   OH281586   5.356   4.752  10.498  0.3287 -0.3623  0.9409
20032TIP3    H181587   5.451   4.747  10.498  0.3510  0.0201  1.2702
20032TIP3    H281588   5.328   4.686  10.434  0.8447  0.2596  0.0497
20033TIP3   OH281589   6.319   2.618  12.893  0.1009 -0.0415  0.2549
20033TIP3    H181590   6.296   2.535  12.935 -2.0262  0.9601  1.2386
20033TIP3    H281591   6.349   2.593  12.805 -2.6462 -1.7791 -0.3248
20034TIP3   OH281592   1.642   3.243  16.625  0.1815 -0.0435 -0.4517
20034TIP3    H181593   1.676   3.181  16.560  1.5558  1.6121 -1.4033
20034TIP3    H281594   1.673   3.328  16.595 -0.1644  0.9284  1.7559
20035TIP3   OH281595   6.607   6.263   1.216 -0.7589  0.1626  0.5931
20035TIP3    H181596   6.555   6.282   1.137  0.5701  0.2186 -0.3048
20035TIP3    H281597   6.685   6.219   1.183  0.0744  0.6625  1.8330
20036TIP3   OH281598   6.157   4.162  14.538 -0.2877  0.1633 -0.8248
20036TIP3    H181599   6.064   4.141  14.546 -0.8024  2.6175  1.3123
20036TIP3    H281600   6.160   4.258  14.545  2.5130  0.0570  1.6386
20037TIP3   OH281601   4.061   5.688  11.095  0.5152 -0.9028 -0.3256
20037TIP3    H181602   4.085   5.657  11.183 -0.8389 -1.7547 -0.2313
20037TIP3    H281603   4.142   5.727  11.061  0.2927  2.7021  2.6172
20038TIP3   OH281604   0.130   1.772  16.406  0.1685  0.1386 -0.4820
20038TIP3    H181605   0.217   1.794  16.440  0.4887 -1.3260 -0.2796
20038TIP3    H281606   0.145   1.695  16.351 -0.7264  0.9729 -1.9568
20039TIP3   OH281607   3.693   6.423   3.563  0.2434 -0.2713  0.3837
20039TIP3    H181608   3.641   6.474   3.625  0.4919  0.7520 -0.2223
20039TIP3    H281609   3.755   6.375   3.617  0.7616  0.9644  0.9137
20040TIP3   OH281610   2.084   1.512  15.640  0.1475 -0.1138  0.2958
20040TIP3    H181611   2.125   1.585  15.594 -1.1820  0.4263 -0.0784
20040TIP3    H281612   2.022   1.476  15.577  1.5244 -2.3004  0.0671
20041TIP3   OH281613   0.328   3.815   4.736  0.0481 -0.3764  0.0841
20041TIP3    H181614   0.388   3.775   4.799 -1.0741 -0.0113  1.4293
20041TIP3    H281615   0.374   3.809   4.652  1.4393 -1.1816  0.8665
20042TIP3   OH281616   5.162   4.586  11.076  0.0485 -0.4403 -0.2878
20042TIP3    H181617   5.081   4.574  11.027  0.8281 -1.8442 -1.3452
20042TIP3    H281618   5.229   4.601  11.009  0.7055  0.4797  0.5421
20043TIP3   OH281619   2.293   3.502  11.023  0.5112 -0.6576 -0.3121
20043TIP3    H181620   2.275   3.574  11.085 -1.2010  0.7557 -2.2839
20043TIP3    H281621   2.337   3.435  11.076 -0.1383  0.7743  2.2279
20044TIP3   OH281622   4.350   4.199  16.933  0.0129  0.2605 -0.7918
20044TIP3    H181623   4.319   4.287  16.954 -0.0069  0.1110 -0.1863
20044TIP3    H281624   4.294   4.171  16.861 -0.7803  0.2896 -0.2042
20045TIP3   OH281625   5.480   2.526   1.077  0.7790  0.2513 -0.0488
20045TIP3    H181626   5.483   2.622   1.076 -0.6606  0.3314  0.7100
20045TIP3    H281627   5.415   2.505   1.144  0.9987 -1.2649 -0.2791
20046TIP3   OH281628   4.754   3.355   3.779  0.2221  0.1389  0.2612
20046TIP3    H181629   4.804   3.290   3.729  0.3671  1.0846 -0.8525
20046TIP3    H281630   4.789   3.439   3.751 -0.4335  0.7303  1.1773
20047TIP3   OH281631   5.991   4.623  16.923  0.5684 -0.2472  0.1677
20047TIP3    H181632   6.021   4.587  17.007  1.1492 -0.2208 -0.0217
20047TIP3    H281633   5.932   4.694  16.947  0.3220 -0.5809  0.5510
20048TIP3   OH281634   0.619   3.448   0.897 -0.7005  0.2670 -0.1409
20048TIP3    H181635   0.562   3.418   0.826  0.2320 -0.1527 -0.7448
20048TIP3    H281636   0.581   3.531   0.925 -1.9243 -0.2755 -0.1257
20049TIP3   OH281637   0.583   0.501  15.708  0.5738  0.2536  0.3903
20049TIP3    H181638   0.509   0.457  15.749  0.2292  0.9681  0.5611
20049TIP3    H281639   0.588   0.586  15.752  1.5121  0.2089  0.3951
20050TIP3   OH281640   2.945   3.866  16.936  0.7953  0.0520 -0.0818
20050TIP3    H181641   2.896   3.789  16.909  1.1645 -0.5223  0.8729
20050TIP3    H281642   2.997   3.837  17.010  1.6805  0.9649 -0.3287
20051TIP3   OH281643   0.159   6.332  15.662 -0.4324 -0.0733  0.6693
20051TIP3    H181644   0.085   6.392  15.654 -0.0282  0.2346 -1.7307
20051TIP3    H281645   0.163   6.288  15.577  2.5844  0.5045  0.4013
20052TIP3   OH281646   5.523   4.701   2.945 -0.3524 -0.4742  0.0391
20052TIP3    H181647   5.594   4.748   2.990 -0.7950  0.6092 -0.3450
20052TIP3    H281648   5.444   4.748   2.971 -0.7977 -0.9070 -0.5098
20053TIP3   OH281649   6.178   4.349   2.926 -0.5989  0.4023  0.7030
20053TIP3    H181650   6.209   4.387   3.008  0.1876 -0.6623  0.9237
20053TIP3    H281651   6.106   4.291   2.952 -0.2994  0.0062  0.6606
20054TIP3   OH281652   2.822   3.237  12.362  0.3826  0.8386  0.0136
20054TIP3    H181653   2.740   3.227  12.314  0.3129  1.5023 -0.0165
20054TIP3    H281654   2.833   3.332  12.371  2.3751  0.9093 -2.1595
20055TIP3   OH281655   3.622   6.626   4.957 -0.1490  0.2506  0.1318
20055TIP3    H181656   3.670   6.544   4.959  0.5206  0.6376  0.0683
20055TIP3    H281657   3.656   6.673   4.881 -0.6894  0.4927  0.0320
20056TIP3   OH281658   2.539   6.498  13.553  0.0267 -0.2234  0.1822
20056TIP3    H181659   2.559   6.436  13.483  2.2745 -0.3533  0.8705
20056TIP3    H281660   2.522   6.581  13.507 -3.9458 -1.3636 -0.8232
20057TIP3   OH281661   5.043   5.938  13.574 -0.2974 -0.1125  0.2807
20057TIP3    H181662   5.056   5.993  13.497  0.0490  0.4613  0.7390
20057TIP3    H281663   4.961   5.892  13.557 -0.2634  0.0667 -0.3932
20058TIP3   OH281664   4.262   6.499   2.325 -0.1278  0.0087 -0.1199
20058TIP3    H181665   4.231   6.414   2.294  1.4332 -0.0638 -1.6236
20058TIP3    H281666   4.222   6.509   2.411  0.2324 -2.5951  0.4327
20059TIP3   OH281667   0.299   6.568  14.139 -0.0507  0.3371  0.7016
20059TIP3    H181668   0.272   6.479  14.118 -1.0470  0.6580  0.5728
20059TIP3    H281669   0.395   6.563  14.147  0.0018 -0.5379 -0.2514
20060TIP3   OH281670   5.125   3.305   5.429 -0.4121  0.4241  0.3036
20060TIP3    H181671   5.187   3.364   5.472  0.5323  0.3235 -0.8779
20060TIP3    H281672   5.080   3.261   5.501 -0.6025  2.0246  1.2045
20061TIP3   OH281673   1.460   2.772  12.840 -0.3270 -0.0382  0.2206
20061TIP3    H181674   1.392   2.815  12.788 -1.5849  1.0611  2.6008
20061TIP3    H281675   1.475   2.689  12.796  1.4647  2.2415 -4.0463
20062TIP3   OH281676   4.653   4.407   3.045 -0.0013 -0.2605 -0.1124
20062TIP3    H181677   4.735   4.417   2.996  0.6548 -2.3978  0.4759
20062TIP3    H281678   4.670   4.338   3.108 -1.8861  0.1193  0.8927
20063TIP3   OH281679   1.363   3.360  12.545  0.1034 -0.2954  0.5127
20063TIP3    H181680   1.282   3.327  12.583 -0.5908  2.1299  1.3658
20063TIP3    H281681   1.336   3.393  12.459  0.6958 -1.5067 -0.1618
20064TIP3   OH281682   0.261   5.716  15.836 -0.0626 -0.5054 -0.2647
20064TIP3    H181683   0.336   5.774  15.852 -0.1087 -0.4640 -0.1994
20064TIP3    H281684   0.294   5.628  15.856 -0.7525 -0.2585  2.3351
20065TIP3   OH281685   1.046   5.448  16.750 -0.3125  0.1595  0.2974
20065TIP3    H181686   1.090   5.531  16.769 -0.5898  0.3334  0.1750
20065TIP3    H281687   1.014   5.418  16.836 -0.4990  0.3415  0.2913
20066TIP3   OH281688   5.939   4.729   4.701 -0.9596 -0.0480  0.5186
20066TIP3    H181689   6.004   4.796   4.722 -2.0589  1.7817 -1.5423
20066TIP3    H281690   5.870   4.740   4.766 -0.1543 -0.6912  1.5113
20067TIP3   OH281691   2.869   4.471   4.480  0.1179  0.2350 -0.3502
20067TIP3    H181692   2.811   4.395   4.483 -0.7159  0.8241 -1.0787
20067TIP3    H281693   2.810   4.546   4.488  1.1002  0.8163  2.7230
20068TIP3   OH281694   4.993   6.644   4.813 -0.0679  0.3917  0.2474
20068TIP3    H181695   5.077   6.607   4.840 -1.0913 -1.9368  0.4483
20068TIP3    H281696   4.939   6.643   4.893 -1.2366 -1.0334 -0.5118
20069TIP3   OH281697   6.576   0.187   6.468 -0.1908  0.0080  0.1071
20069TIP3    H181698   6.610   0.135   6.542  0.9325 -0.6265 -0.8171
20069TIP3    H281699   6.654   0.226   6.429 -0.9677  1.9620  0.4143
20070TIP3   OH281700   2.059   2.396  12.768 -0.4358  0.1009 -0.1292
20070TIP3    H181701   2.142   2.442  12.766  0.6996 -1.8215 -1.2397
20070TIP3    H281702   2.038   2.386  12.861  0.6199  0.5418  0.1651
20071TIP3   OH281703   3.161   0.129   6.730  0.3693  0.6376  0.4745
20071TIP3    H181704   3.075   0.148   6.690  0.1538 -0.8703  0.1742
20071TIP3    H281705   3.222   0.185   6.682 -0.2214  0.4961 -0.4670
20072TIP3   OH281706   2.036   4.114   1.495 -0.1373  0.2016  0.2681
20072TIP3    H181707   2.121   4.153   1.472 -0.0114 -0.5215 -0.5694
20072TIP3    H281708   1.980   4.189   1.516  0.6312  0.7035  0.5612
20073TIP3   OH281709   2.425   2.054   2.488 -0.1159  0.0279  0.0759
20073TIP3    H181710   2.378   1.987   2.538 -1.5149  0.9723  0.1011
20073TIP3    H281711   2.371   2.068   2.411  0.0038  1.2970  0.1989
20074TIP3   OH281712   1.803   4.207   1.981 -0.2570  0.1392  0.7417
20074TIP3    H181713   1.869   4.227   2.048 -1.0986  0.9711  1.3682
20074TIP3    H281714   1.840   4.242   1.900  0.6240 -0.5563  0.8305
20075TIP3   OH281715   3.625   1.155  15.593 -0.1870 -0.3536 -0.1385
20075TIP3    H181716   3.590   1.124  15.677  2.3769 -1.5943  0.5571
20075TIP3    H281717   3.679   1.230  15.616 -1.9095  1.2891 -1.1473
20076TIP3   OH281718   5.600   4.620   0.040 -0.0247 -0.4135  0.3253
20076TIP3    H181719   5.537   4.687   0.066  0.5893  0.5623 -0.6286
20076TIP3    H281720   5.685   4.663   0.050  0.4143 -1.2616  0.2848
20077TIP3   OH281721   0.361   4.591   2.371 -0.2024  0.2021 -0.1894
20077TIP3    H181722   0.395   4.502   2.378 -1.3430 -0.3390 -1.1321
20077TIP3    H281723   0.425   4.637   2.315  0.5531  0.0847  0.5572
20078TIP3   OH281724   2.880   0.517  14.299  0.3135 -0.0012 -0.2355
20078TIP3    H181725   2.924   0.595  14.264  0.5043  0.0108  0.0253
20078TIP3    H281726   2.789   0.544  14.312  0.0954 -0.1906 -1.3065
20079TIP3   OH281727   6.653   3.935   2.573  0.2999 -0.1411 -0.1448
20079TIP3    H181728   6.647   3.953   2.667 -0.0800 -0.1537 -0.1665
20079TIP3    H281729   6.701   4.010   2.537 -1.7931  1.1923 -0.3354
20080TIP3   OH281730   2.202   6.224  14.608  0.6679 -0.6320 -0.2694
20080TIP3    H181731   2.164   6.297  14.658  1.9160 -0.7738  0.9347
20080TIP3    H281732   2.294   6.247  14.597  0.8351 -1.5160 -0.8626
20081TIP3   OH281733   3.082   3.075  11.985  0.1315  0.1171  0.0078
20081TIP3    H181734   2.997   3.102  11.949  0.4925  1.7130  0.3092
20081TIP3    H281735   3.081   3.106  12.076  0.2407 -1.6684  0.6697
20082TIP3   OH281736   3.621   5.364   4.903 -0.1474  0.3940 -0.3006
20082TIP3    H181737   3.619   5.440   4.961  1.7888  1.1776 -1.1447
20082TIP3    H281738   3.613   5.289   4.961  0.2458  1.1950  0.8275
20083TIP3   OH281739   6.320   2.108   1.709  0.2911  0.1814 -0.2011
20083TIP3    H181740   6.306   2.145   1.621 -0.3806 -2.1753 -1.1698
20083TIP3    H281741   6.263   2.159   1.766 -0.6495  0.5867 -1.4562
20084TIP3   OH281742   3.233   5.140   5.482  0.3261  0.2752  0.2366
20084TIP3    H181743   3.328   5.148   5.473  0.4096  0.0960  0.8922
20084TIP3    H281744   3.207   5.219   5.529 -0.0823  1.1514 -1.4016
20085TIP3   OH281745   0.628   5.720   0.301 -0.1814  0.6065  0.0990
20085TIP3    H181746   0.587   5.783   0.242  0.7193  1.2463  0.1393
20085TIP3    H281747   0.700   5.683   0.250  0.7601  1.3443  0.8621
20086TIP3   OH281748   4.302   6.297   1.306 -0.7021 -0.4843 -0.1530
20086TIP3    H181749   4.243   6.353   1.256  1.3937  1.4258 -0.6228
20086TIP3    H281750   4.245   6.253   1.370 -2.7549  0.4318 -1.2629
20087TIP3   OH281751   2.162   6.002  14.782  1.1437  0.4314  0.5676
20087TIP3    H181752   2.142   5.923  14.732  2.0451 -0.2199  1.2053
20087TIP3    H281753   2.131   6.074  14.726 -0.0564 -0.3668  0.1508
20088TIP3   OH281754   5.088   1.662  16.433  0.1467 -0.3629 -0.1216
20088TIP3    H181755   5.017   1.598  16.431 -1.4805  1.3518 -0.4325
20088TIP3    H281756   5.080   1.708  16.349 -0.0991  1.6055  0.9282
20089TIP3   OH281757   5.871   5.741   4.286  0.5241 -0.0764 -0.1618
20089TIP3    H181758   5.852   5.750   4.379  0.4116  0.5128 -0.2385
20089TIP3    H281759   5.841   5.653   4.264 -2.3964  0.8395 -0.2987
20090TIP3   OH281760   0.066   2.476   5.738 -0.0997 -0.5644 -0.4942
20090TIP3    H181761   0.150   2.457   5.778  0.3185 -2.3206 -2.0353
20090TIP3    H281762   0.002   2.431   5.793  0.4709 -3.0248 -1.6951
20091TIP3   OH281763   2.854   2.609   2.765 -0.1089 -0.6381 -0.5364
20091TIP3    H181764   2.928   2.654   2.725  1.8597 -3.1220  0.0836
20091TIP3    H281765   2.820   2.673   2.829  0.7448  0.9700 -1.6159
20092TIP3   OH281766   2.116   6.487  15.622 -0.7037  0.3607  0.0429
20092TIP3    H181767   2.022   6.466  15.630 -1.3424  2.3179 -1.4826
20092TIP3    H281768   2.117   6.571  15.578  1.8395 -0.1421 -0.9862
20093TIP3   OH281769   4.132   4.823   0.669 -0.2652  0.3428  0.0186
20093TIP3    H181770   4.109   4.873   0.748  0.5542  1.7676 -0.6121
20093TIP3    H281771   4.134   4.732   0.699  1.0616  0.9273  1.9314
20094TIP3   OH281772   1.929   3.769  14.189 -0.4922 -0.1825 -0.0872
20094TIP3    H181773   1.851   3.729  14.151 -0.5435 -0.0204 -0.1508
20094TIP3    H281774   1.904   3.860  14.206 -0.2590 -0.0794 -0.2849
20095TIP3   OH281775   5.413   2.887  13.955 -0.3155 -0.6272 -0.7646
20095TIP3    H181776   5.337   2.902  13.899 -0.4984 -0.1627 -0.3988
20095TIP3    H281777   5.378   2.843  14.032 -0.7272  1.9407  0.6599
20096TIP3   OH281778   6.134   4.506   5.481  0.1857 -0.7479  0.2163
20096TIP3    H181779   6.155   4.500   5.388  1.4035 -1.0648  0.4985
20096TIP3    H281780   6.038   4.499   5.484  0.2230 -2.2550 -0.8977
20097TIP3   OH281781   1.551   2.074  11.418 -0.3019  0.2051  0.4975
20097TIP3    H181782   1.631   2.072  11.471 -1.9894  0.8462  3.2836
20097TIP3    H281783   1.528   1.982  11.406  1.0885 -0.0015 -0.7923
20098TIP3   OH281784   2.416   2.985   0.283 -0.0248 -0.0561 -0.0444
20098TIP3    H181785   2.502   3.016   0.312  0.1052 -1.1545  0.8528
20098TIP3    H281786   2.354   3.031   0.338 -0.1356  1.6984 -1.5488
20099TIP3   OH281787   0.638   5.255   2.055  0.5788 -0.4305  0.1956
20099TIP3    H181788   0.586   5.334   2.041 -0.5432 -0.9377  1.2731
20099TIP3    H281789   0.712   5.264   1.995  1.8017  2.5563  1.9480
20100TIP3   OH281790   5.009   5.346  16.683 -0.4471  0.3751  0.2796
20100TIP3    H181791   4.915   5.358  16.702 -0.9478 -0.2062 -1.6035
20100TIP3    H281792   5.025   5.253  16.700 -0.3024  0.3850  0.1965
20101TIP3   OH281793   0.882   0.390  11.266  0.3491 -0.0289 -0.1012
20101TIP3    H181794   0.874   0.435  11.182  0.5138 -1.5519 -0.9810
20101TIP3    H281795   0.797   0.348  11.279  0.2655  0.3379  0.5983
20102TIP3   OH281796   5.227   0.289   5.764  0.1110  0.4039 -0.4282
20102TIP3    H181797   5.200   0.212   5.713 -1.2739 -0.3691  1.3685
20102TIP3    H281798   5.210   0.362   5.705 -0.1049 -0.5435 -1.5960
20103TIP3   OH281799   3.682   5.577   4.209  0.2724  0.1155  0.8397
20103TIP3    H181800   3.621   5.632   4.259 -0.5534 -0.7170  0.7739
20103TIP3    H281801   3.749   5.552   4.273  0.6166  1.1169  0.8904
20104TIP3   OH281802   3.840   4.102   5.017 -0.7310 -0.1162 -0.3090
20104TIP3    H181803   3.842   4.047   4.939 -0.0858 -1.2643  0.4866
20104TIP3    H281804   3.748   4.106   5.041 -0.6790 -1.7747  0.2383
20105TIP3   OH281805   6.237   6.246  14.636  0.1751  0.8891  0.3781
20105TIP3    H181806   6.291   6.194  14.576 -1.8993 -0.6657 -0.2341
20105TIP3    H281807   6.203   6.183  14.699 -2.4026  1.4307 -0.3672
20106TIP3   OH281808   2.410   4.982   1.654  0.0027  0.2545  0.3457
20106TIP3    H181809   2.340   4.926   1.618  1.3452 -1.6335  0.5127
20106TIP3    H281810   2.456   5.015   1.577  0.3729 -0.4711  0.2435
20107TIP3   OH281811   2.643   1.636  16.459 -0.2719 -0.1705 -0.0869
20107TIP3    H181812   2.588   1.567  16.496  1.0198 -2.6104 -2.3075
20107TIP3    H281813   2.581   1.696  16.417 -1.3896 -0.9267  0.4214
20108TIP3   OH281814   5.873   0.556  14.786 -0.1095  0.5708  0.3654
20108TIP3    H181815   5.887   0.624  14.720  0.4390 -0.6383 -0.8198
20108TIP3    H281816   5.909   0.593  14.867 -0.4711  1.9495 -0.0875
20109TIP3   OH281817   5.592   0.280   0.919 -0.4712  0.7514 -0.8970
20109TIP3    H181818   5.672   0.262   0.968 -0.4576  0.0332 -1.1716
20109TIP3    H281819   5.548   0.349   0.968  0.6608  1.6597 -1.1112
20110TIP3   OH281820   3.821   6.374  11.470  0.5998 -0.1686 -0.0866
20110TIP3    H181821   3.790   6.447  11.524  0.9515  0.4332 -0.6792
20110TIP3    H281822   3.761   6.302  11.491  0.8314 -0.0140  1.2348
20111TIP3   OH281823   2.122   6.160   2.470  0.0528  0.0827  0.4911
20111TIP3    H181824   2.162   6.218   2.405  0.4521 -0.6840  0.0354
20111TIP3    H281825   2.194   6.106   2.503 -0.6270 -1.7568 -0.8030
20112TIP3   OH281826   2.874   1.417  14.776 -0.1611  0.3602  0.0505
20112TIP3    H181827   2.819   1.362  14.831  0.6665 -2.9061 -2.0920
20112TIP3    H281828   2.834   1.411  14.689  1.6039  0.7393 -0.8289
20113TIP3   OH281829   1.883   1.369   5.212 -0.1407  0.0477  0.1798
20113TIP3    H181830   1.800   1.416   5.222 -1.2020 -1.9954  1.6782
20113TIP3    H281831   1.950   1.437   5.212 -1.5106  1.5786  3.2073
20114TIP3   OH281832   2.292   2.404   0.334  0.2436  0.2829 -0.0169
20114TIP3    H181833   2.375   2.420   0.290  0.3307 -0.5096 -0.1582
20114TIP3    H281834   2.259   2.323   0.295  0.8826 -1.1145  2.1384
20115TIP3   OH281835   5.851   1.196  15.652  0.4328 -0.2627 -0.2220
20115TIP3    H181836   5.900   1.199  15.569  2.2986 -2.6753  0.6724
20115TIP3    H281837   5.856   1.286  15.686 -1.0863  1.0111 -2.9998
20116TIP3   OH281838   2.446   1.918  12.196 -0.3861  0.2973  0.2036
20116TIP3    H181839   2.436   1.823  12.204  0.3969  0.2410  0.6075
20116TIP3    H281840   2.515   1.940  12.259  1.5556  0.7493 -1.9527
20117TIP3   OH281841   6.238   5.368   0.256  0.2319  0.6374  0.3065
20117TIP3    H181842   6.290   5.288   0.250 -0.5256  0.1935 -0.6057
20117TIP3    H281843   6.302   5.438   0.246  0.8407  0.1445  0.6258
20118TIP3   OH281844   4.360   4.414  12.496 -0.1079 -0.2552  0.0176
20118TIP3    H181845   4.386   4.458  12.415 -0.1935 -0.9246 -0.3829
20118TIP3    H281846   4.370   4.481  12.564 -0.5610  0.4797 -0.6202
20119TIP3   OH281847   1.673   2.637  16.083  0.0541  0.1974 -0.1229
20119TIP3    H181848   1.734   2.594  16.143  0.9404  2.2199  0.5072
20119TIP3    H281849   1.634   2.707  16.134  1.5544  2.6198 -2.0790
20120TIP3   OH281850   0.316   3.169   5.426 -0.2876  0.0187  0.0374
20120TIP3    H181851   0.352   3.081   5.417 -1.2217 -0.3792 -0.0136
20120TIP3    H281852   0.301   3.180   5.520  0.3783  0.3569  0.1065
20121TIP3   OH281853   2.140   0.069  16.982 -0.1949 -0.1077  0.8032
20121TIP3    H181854   2.068   0.024  17.027  0.2850 -1.2249  0.5035
20121TIP3    H281855   2.219   0.042  17.029  0.1788 -0.1980  0.1459
20122TIP3   OH281856   0.012   2.000   0.531 -0.0029 -0.0057  0.2605
20122TIP3    H181857   0.090   1.960   0.569  0.4401 -0.4695 -1.0844
20122TIP3    H281858   0.002   1.957   0.446 -1.4570  0.3836  0.2154
20123TIP3   OH281859   2.171   1.791   0.958  0.2801  0.2740  0.2328
20123TIP3    H181860   2.120   1.818   1.035 -0.0971  0.1381  0.0350
20123TIP3    H281861   2.106   1.786   0.888  0.7161  0.9552 -0.2297
20124TIP3   OH281862   4.348   6.547  14.989  0.4436 -0.1526 -0.2181
20124TIP3    H181863   4.253   6.546  14.977  0.4480 -0.6923 -0.2541
20124TIP3    H281864   4.365   6.623  15.043 -0.1292 -0.6512  0.6886
20125TIP3   OH281865   1.064   0.964   1.394 -0.0413 -0.0830 -0.4244
20125TIP3    H181866   1.006   0.921   1.331 -0.7316  0.8548 -0.4472
20125TIP3    H281867   1.111   0.892   1.436  0.8127 -0.6992 -2.3651
20126TIP3   OH281868   3.816   3.304  15.001  0.4536  0.2170 -0.3521
20126TIP3    H181869   3.821   3.318  15.096  1.0486  1.1542 -0.5062
20126TIP3    H281870   3.902   3.268  14.978 -0.1225 -1.2397 -0.3742
20127TIP3   OH281871   4.943   2.794   4.507  0.1733 -0.1478 -0.2561
20127TIP3    H181872   4.951   2.703   4.480 -1.6638 -0.4313  0.0473
20127TIP3    H281873   5.033   2.824   4.519  0.8368 -1.5937 -1.3967
20128TIP3   OH281874   3.815   4.497   0.682 -0.1419  0.5528 -1.3034
20128TIP3    H181875   3.900   4.539   0.674 -0.5327  1.9707  0.9761
20128TIP3    H281876   3.800   4.491   0.777 -1.9969 -0.8815 -1.6282
20129TIP3   OH281877   3.672   3.382   0.774 -0.4274 -0.1483  0.0029
20129TIP3    H181878   3.729   3.432   0.832  0.8179 -0.1605 -1.1631
20129TIP3    H281879   3.732   3.333   0.717 -1.5936 -2.0943  0.3264
20130TIP3   OH281880   1.748   0.831  12.905 -0.3083 -0.2812 -0.2613
20130TIP3    H181881   1.812   0.871  12.846  0.7391 -0.6306  0.5978
20130TIP3    H281882   1.794   0.823  12.988 -1.8190  0.4120  0.6854
20131TIP3   OH281883   3.197   5.696   5.877 -0.5308  0.5752 -0.7709
20131TIP3    H181884   3.267   5.755   5.850  2.2274 -1.4298  1.4331
20131TIP3    H281885   3.225   5.609   5.849 -1.9477 -0.3561  0.5148
20132TIP3   OH281886   1.251   2.906   1.068 -0.2912  0.6411  0.0667
20132TIP3    H181887   1.156   2.915   1.073 -0.3371  0.7191 -0.8962
20132TIP3    H281888   1.284   2.992   1.095 -0.5324  1.0189 -0.8054
20133TIP3   OH281889   5.856   2.096  13.338 -0.2686  0.5661 -0.5389
20133TIP3    H181890   5.809   2.143  13.407  0.3663  1.7040 -0.8660
20133TIP3    H281891   5.825   2.137  13.257  0.1012  0.2463 -0.8416
20134TIP3   OH281892   6.017   2.750   0.131 -0.1547 -0.3681  0.5457
20134TIP3    H181893   6.105   2.775   0.160  0.2425 -1.1010 -0.0174
20134TIP3    H281894   5.965   2.830   0.144  0.4345 -0.1139  1.4878
20135TIP3   OH281895   5.546   0.870  16.804 -0.4357  0.6148 -0.4789
20135TIP3    H181896   5.453   0.889  16.815 -0.2514  2.0773 -1.1887
20135TIP3    H281897   5.549   0.799  16.739 -1.0536  0.4634 -0.3405
20136TIP3   OH281898   3.300   5.474   5.360  0.2179  0.3582 -0.7003
20136TIP3    H181899   3.298   5.557   5.407  0.3284  0.6065 -1.1249
20136TIP3    H281900   3.261   5.411   5.420  0.5861  0.6188 -0.1874
20137TIP3   OH281901   1.940   0.241  11.992 -0.0160 -0.8729  0.2488
20137TIP3    H181902   1.974   0.330  11.996 -0.5464 -0.7115  1.6738
20137TIP3    H281903   2.017   0.186  12.006  0.3897 -0.6731 -1.0894
20138TIP3   OH281904   4.472   2.640  11.756  0.2217  0.0769 -0.1112
20138TIP3    H181905   4.420   2.683  11.688 -0.1453  1.2751  0.9062
20138TIP3    H281906   4.556   2.687  11.754  0.6926 -0.7498 -0.5996
20139TIP3   OH281907   6.305   4.615  11.314  0.6997 -0.0533  0.0561
20139TIP3    H181908   6.357   4.641  11.390  3.8410 -0.8174 -1.6603
20139TIP3    H281909   6.316   4.520  11.308 -0.2375 -0.1308 -0.8767
20140TIP3   OH281910   3.818   2.057  12.824  0.4334 -0.1797 -0.0012
20140TIP3    H181911   3.843   1.971  12.859 -0.1425 -0.0067  0.8758
20140TIP3    H281912   3.763   2.037  12.748  0.8179 -0.5757 -0.1810
20141TIP3   OH281913   2.991   1.095   2.162 -0.6486  0.4391 -0.1866
20141TIP3    H181914   2.923   1.028   2.162 -0.6642  0.4547 -0.2089
20141TIP3    H281915   2.959   1.162   2.101 -0.7571  0.5908  0.0366
20142TIP3   OH281916   5.589   3.603   5.764  0.0340 -0.1542  0.0473
20142TIP3    H181917   5.545   3.682   5.796 -0.1537 -0.8748  1.6803
20142TIP3    H281918   5.601   3.619   5.670 -1.1398  1.2609  0.0901
20143TIP3   OH281919   0.780   6.152  12.772  0.2616 -0.5253  0.3009
20143TIP3    H181920   0.800   6.228  12.826  1.3423 -0.7414  0.2334
20143TIP3    H281921   0.700   6.116  12.810 -0.0528  0.4154  0.5662
20144TIP3   OH281922   4.912   0.725   1.668 -0.2919 -0.3969  0.1952
20144TIP3    H181923   4.832   0.676   1.645 -0.7516  0.2537  0.3870
20144TIP3    H281924   4.943   0.683   1.748  1.4728 -2.8693 -1.6433
20145TIP3   OH281925   3.786   5.643   5.621  0.2511 -0.4196  0.6390
20145TIP3    H181926   3.697   5.642   5.658  0.5002 -0.8636  1.2367
20145TIP3    H281927   3.827   5.720   5.660 -0.0750  0.1626 -0.1446
20146TIP3   OH281928   4.488   3.768  12.916  0.1902  0.0141 -0.0062
20146TIP3    H181929   4.416   3.711  12.886  0.7382 -0.1961 -0.9674
20146TIP3    H281930   4.448   3.824  12.982 -0.7779 -0.3422 -0.2666
20147TIP3   OH281931   1.884   1.346  16.119  0.2191  0.2928  0.5639
20147TIP3    H181932   1.847   1.262  16.092  1.6588 -0.7209  1.5884
20147TIP3    H281933   1.808   1.398  16.146 -0.6012 -1.2759  1.4726
20148TIP3   OH281934   2.529   2.179  16.152 -0.3085  0.1034  0.0577
20148TIP3    H181935   2.602   2.119  16.134 -0.1119  0.3032  0.1828
20148TIP3    H281936   2.531   2.241  16.080  0.2956  0.7288  0.6025
20149TIP3   OH281937   5.211   3.320  15.151  0.2637 -0.2198  0.2442
20149TIP3    H181938   5.305   3.317  15.131 -0.0337  0.2062 -1.3570
20149TIP3    H281939   5.186   3.228  15.163  0.1767 -0.7533 -3.1258
20150TIP3   OH281940   2.488   2.198   1.261 -0.2199 -0.1165 -0.0068
20150TIP3    H181941   2.505   2.255   1.336  0.3241 -0.4730  0.1507
20150TIP3    H281942   2.455   2.117   1.300 -0.0428 -0.2607 -0.1539
20151TIP3   OH281943   5.684   1.979   0.283  0.3921 -0.6216  0.0299
20151TIP3    H181944   5.665   1.964   0.191  1.2176  2.3212 -0.6968
20151TIP3    H281945   5.603   1.956   0.328 -0.1967 -1.6080 -1.4499
20152TIP3   OH281946   1.152   0.258   0.167  0.5676  1.1766  0.4648
20152TIP3    H181947   1.232   0.222   0.130 -0.0310 -0.5685  0.7792
20152TIP3    H281948   1.177   0.292   0.252  1.2346  1.9512 -0.0246
20153TIP3   OH281949   2.555   1.127   0.756  0.4308  0.6590 -0.1985
20153TIP3    H181950   2.588   1.140   0.667 -1.3918 -1.4569 -1.2834
20153TIP3    H281951   2.490   1.196   0.768 -0.0842  0.3171 -0.9421
20154TIP3   OH281952   0.669   3.672  12.073  0.0389 -0.4383 -0.2541
20154TIP3    H181953   0.620   3.657  11.992 -1.0229  0.2565  0.2438
20154TIP3    H281954   0.717   3.753  12.057 -2.5410  1.4245  0.8420
20155TIP3   OH281955   0.564   0.236   0.038  0.2620  0.7353 -0.5669
20155TIP3    H181956   0.554   0.141   0.049 -0.3820  1.0482  2.5909
20155TIP3    H281957   0.475   0.270   0.043  0.6193  1.6002  0.1638
20156TIP3   OH281958   2.639   0.646   2.935 -0.7135  0.0013 -0.2477
20156TIP3    H181959   2.590   0.631   2.854  1.2452 -0.9880 -1.3389
20156TIP3    H281960   2.644   0.741   2.944  0.0282  0.1625 -1.9800
20157TIP3   OH281961   2.967   2.027   4.053 -0.6639 -0.3921  0.3599
20157TIP3    H181962   2.927   2.089   4.115 -1.9869  0.9059 -1.6451
20157TIP3    H281963   3.061   2.033   4.070 -1.0166 -0.5933  2.6463
20158TIP3   OH281964   0.584   3.633   1.254 -0.1158 -0.5470 -0.4515
20158TIP3    H181965   0.534   3.637   1.336  0.7663  0.9865  0.0483
20158TIP3    H281966   0.659   3.576   1.275  0.7296  0.7625  0.1968
20159TIP3   OH281967   4.392   5.839  13.187  0.1098  0.3088 -0.3873
20159TIP3    H181968   4.309   5.874  13.218 -1.2675 -2.2849 -0.8572
20159TIP3    H281969   4.382   5.834  13.092  0.6300 -0.3843 -0.4112
20160TIP3   OH281970   2.947   0.351  13.167  0.1077 -0.5386  0.0007
20160TIP3    H181971   2.925   0.417  13.100  1.5087  1.7108  1.6094
20160TIP3    H281972   2.863   0.328  13.206 -0.3695  0.8408 -0.1567
20161TIP3   OH281973   5.231   4.638   3.710  0.1444  0.0270 -0.1427
20161TIP3    H181974   5.225   4.722   3.664  0.4320 -0.8596 -1.8910
20161TIP3    H281975   5.204   4.658   3.800  0.4530  2.0332 -0.4393
20162TIP3   OH281976   4.005   3.158  14.851 -0.3133  0.4213 -0.4437
20162TIP3    H181977   4.074   3.097  14.876 -2.5939 -1.7536  1.0005
20162TIP3    H281978   4.003   3.155  14.756  0.7605 -0.4487 -0.4552
20163TIP3   OH281979   5.210   6.828  14.553  0.2124 -0.2950  0.2894
20163TIP3    H181980   5.247   6.894  14.495  0.6588 -1.2203 -0.4966
20163TIP3    H281981   5.144   6.875  14.603 -0.4559  0.4551 -1.2352
20164TIP3   OH281982   1.885   1.239  11.585 -0.1826 -0.2695 -0.2356
20164TIP3    H181983   1.825   1.182  11.632  1.4781 -2.6540 -0.8260
20164TIP3    H281984   1.879   1.211  11.494  1.4819 -0.3263 -0.3706
20165TIP3   OH281985   5.278   0.935  14.646 -0.1276 -0.0604 -0.1598
20165TIP3    H181986   5.342   0.900  14.709  0.2771 -0.7405 -0.9252
20165TIP3    H281987   5.330   0.992  14.589 -0.1428 -0.8149 -0.9424
20166TIP3   OH281988   1.584   6.503  14.084 -0.0109  0.1250  0.2849
20166TIP3    H181989   1.618   6.580  14.130  0.3241 -0.2409  0.6579
20166TIP3    H281990   1.513   6.472  14.140  0.0369 -0.0002  0.2755
20167TIP3   OH281991   2.989   4.486  11.097  0.2116  0.0640  0.5001
20167TIP3    H181992   3.016   4.441  11.017  0.7325 -0.2613  0.8489
20167TIP3    H281993   3.065   4.539  11.121  0.5855 -0.8794  1.5101
20168TIP3   OH281994   1.210   3.621   4.074  0.8414 -0.7554  0.5294
20168TIP3    H181995   1.173   3.694   4.123  1.9367 -0.6542  1.2554
20168TIP3    H281996   1.281   3.660   4.023 -0.2190 -0.8840 -1.0973
20169TIP3   OH281997   6.424   1.792  13.202  0.4741  0.1587  0.4597
20169TIP3    H181998   6.445   1.865  13.260  0.5261 -0.5856  1.4086
20169TIP3    H281999   6.492   1.727  13.220  1.1605  0.3483 -1.2838
20170TIP3   OH282000   5.406   3.686  15.555 -0.5467 -0.2175  0.0058
20170TIP3    H182001   5.347   3.614  15.535  0.1617 -0.1082 -2.8522
20170TIP3    H282002   5.459   3.654  15.628 -1.7661 -1.6817  0.2970
20171TIP3   OH282003   5.303   1.876  15.399 -0.3233  0.2222 -0.0836
20171TIP3    H182004   5.330   1.788  15.426 -2.6473 -1.3051 -2.2827
20171TIP3    H282005   5.238   1.902  15.465  1.3438  1.0002  1.3548
20172TIP3   OH282006   4.698   1.153  13.967  0.5214 -0.1515 -0.1619
20172TIP3    H182007   4.777   1.133  13.917 -1.1685  0.3201 -3.2263
20172TIP3    H282008   4.715   1.239  14.006  0.9108  0.7909 -2.2703
20173TIP3   OH282009   0.318   5.998  15.617 -0.1216 -0.2374 -0.2155
20173TIP3    H182010   0.308   5.999  15.522  1.3513 -1.7247 -0.4415
20173TIP3    H282011   0.230   5.980  15.651 -0.4117 -1.1380 -1.3884
20174TIP3   OH282012   5.106   6.215  13.440  0.3447  0.5218 -0.4040
20174TIP3    H182013   5.181   6.262  13.476 -0.0397  2.6958 -2.2153
20174TIP3    H282014   5.031   6.244  13.493  0.4670 -0.0151  0.0677
20175TIP3   OH282015   1.500   4.205  15.570 -0.3880 -0.6974 -0.4352
20175TIP3    H182016   1.553   4.213  15.491 -0.7343 -2.5700 -0.9034
20175TIP3    H282017   1.420   4.162  15.541 -0.9033 -0.6140  0.8001
20176TIP3   OH282018   0.622   4.208  10.601 -0.2040  0.6400  0.5824
20176TIP3    H182019   0.654   4.295  10.625 -1.7336  1.3071  0.3349
20176TIP3    H282020   0.662   4.190  10.516 -1.7575  2.2209 -0.5558
20177TIP3   OH282021   1.134   3.123   3.461 -0.7275 -0.4568  0.1356
20177TIP3    H182022   1.181   3.051   3.420  2.4762  1.1839  0.6199
20177TIP3    H282023   1.149   3.198   3.404 -0.9078  0.6122  1.4344
20178TIP3   OH282024   3.675   2.970  11.239  0.3085  0.2168 -0.0862
20178TIP3    H182025   3.648   2.953  11.149  1.9850 -2.3412 -0.2166
20178TIP3    H282026   3.704   3.061  11.240  0.6202  0.1816 -2.2398
20179TIP3   OH282027   1.879   3.096   1.947  0.3125 -0.6955  0.2486
20179TIP3    H182028   1.896   3.183   1.911 -0.7053 -0.5111  0.1952
20179TIP3    H282029   1.965   3.065   1.975  0.8877 -0.1757 -0.8441
20180TIP3   OH282030   2.533   6.600   0.713 -0.3501 -0.1029  0.1839
20180TIP3    H182031   2.537   6.532   0.780  0.3250 -0.2094  0.0432
20180TIP3    H282032   2.439   6.618   0.703 -0.4783 -0.3098  0.9221
20181TIP3   OH282033   6.650   2.502  11.588  0.2712  0.2969  0.1033
20181TIP3    H182034   6.715   2.573  11.587  0.2891  0.2772 -0.1329
20181TIP3    H282035   6.684   2.439  11.651  1.9449 -1.0798 -2.0242
20182TIP3   OH282036   4.277   5.265   4.642 -0.2651  0.2992  0.1598
20182TIP3    H182037   4.345   5.326   4.673  3.0853 -1.2978 -3.2571
20182TIP3    H282038   4.273   5.197   4.709  1.1558  0.7226  0.7116
20183TIP3   OH282039   1.154   3.651   3.098 -0.0467  0.3353  0.4932
20183TIP3    H182040   1.088   3.627   3.033 -0.8817 -0.9972  1.7876
20183TIP3    H282041   1.230   3.597   3.077 -0.1420  0.2574  0.3490
20184TIP3   OH282042   5.638   5.978  10.763  0.0862  0.5240 -0.0450
20184TIP3    H182043   5.701   5.924  10.810 -1.3824  1.1124  2.7683
20184TIP3    H282044   5.587   5.915  10.711 -0.0943 -0.5481  1.3813
20185TIP3   OH282045   3.463   4.922   2.082 -0.1633  0.2060  0.1691
20185TIP3    H182046   3.550   4.960   2.089  0.3089 -0.9008  0.6054
20185TIP3    H282047   3.416   4.957   2.158  0.2603 -0.0645  0.5616
20186TIP3   OH282048   4.903   5.986   4.984  0.2555 -0.3095 -0.2977
20186TIP3    H182049   4.938   5.900   5.008  1.8099  0.6113  0.9763
20186TIP3    H282050   4.975   6.047   5.003 -1.4072  1.4956  0.5936
20187TIP3   OH282051   0.209   0.839   3.255  0.0393  0.0315  0.2895
20187TIP3    H182052   0.131   0.828   3.310 -0.3259 -1.5597 -0.5040
20187TIP3    H282053   0.230   0.932   3.263 -0.6656  0.0777  2.2111
20188TIP3   OH282054   6.492   0.292  15.441  0.4871 -0.3024  0.1700
20188TIP3    H182055   6.438   0.216  15.463  0.0441  0.8564  3.6403
20188TIP3    H282056   6.430   0.365  15.435  1.1566  0.2118 -0.8283
20189TIP3   OH282057   6.845   4.145   1.265 -0.5098 -0.2503 -0.3064
20189TIP3    H182058   6.926   4.097   1.280  0.0616  0.6615 -0.4045
20189TIP3    H282059   6.871   4.219   1.211 -1.1946  0.7142  0.6572
20190TIP3   OH282060   0.348   2.204  11.832 -0.0269 -0.2979 -0.0091
20190TIP3    H182061   0.311   2.274  11.778  0.9722 -1.2779 -2.0726
20190TIP3    H282062   0.278   2.138  11.838 -0.5403  0.2999  0.9253
20191TIP3   OH282063   5.231   2.458   4.012  0.1082  0.3354  0.2222
20191TIP3    H182064   5.245   2.514   4.088 -0.6007  1.5130 -0.4823
20191TIP3    H282065   5.259   2.371   4.040  0.2970  0.8430  1.6646
20192TIP3   OH282066   0.608   5.981  15.544 -0.4047  0.2680  0.3852
20192TIP3    H182067   0.529   5.966  15.596 -1.3038 -0.0479 -1.0348
20192TIP3    H282068   0.576   6.002  15.457  1.0813  0.6861 -0.0831
20193TIP3   OH282069   3.043   0.681  11.708  0.0233  0.2505 -0.7137
20193TIP3    H182070   3.006   0.769  11.705  1.0359  0.6520 -2.2727
20193TIP3    H282071   3.007   0.637  11.631 -1.5184 -1.1932  0.7337
20194TIP3   OH282072   6.234   3.097   0.092 -0.0206  0.3372  0.1193
20194TIP3    H182073   6.299   3.076   0.159 -0.1622  0.8243  0.4086
20194TIP3    H282074   6.184   3.170   0.128 -2.7038 -1.8716  1.2354
20195TIP3   OH282075   3.574   3.371   3.707 -0.6302 -0.8148  0.2985
20195TIP3    H182076   3.513   3.441   3.683  1.0793  0.6487 -0.0120
20195TIP3    H282077   3.659   3.401   3.674  0.3139 -2.6592  0.9107
20196TIP3   OH282078   5.584   2.646   1.546  0.3269  0.1592  0.3263
20196TIP3    H182079   5.495   2.669   1.570 -0.2420 -2.0558  0.5651
20196TIP3    H282080   5.597   2.557   1.581  2.1361 -0.1245 -0.8900
20197TIP3   OH282081   6.115   1.311   0.844  0.5222 -0.0135  0.6399
20197TIP3    H182082   6.078   1.308   0.756  2.8406 -2.1678 -0.3813
20197TIP3    H282083   6.055   1.258   0.897 -0.0655  0.0117  0.0138
20198TIP3   OH282084   5.353   0.286  12.362  0.4739  0.1212  0.4193
20198TIP3    H182085   5.317   0.357  12.415 -0.4423  0.4037 -0.5591
20198TIP3    H282086   5.415   0.241  12.421  0.4398  1.2040  1.3090
20199TIP3   OH282087   0.367   5.869   5.056 -0.8479  0.4035  0.1393
20199TIP3    H182088   0.433   5.927   5.017  0.4409 -1.1304 -0.0175
20199TIP3    H282089   0.324   5.924   5.123  0.5971  1.4185  0.2803
20200TIP3   OH282090   2.332   0.280   0.019 -0.1002 -0.5581  0.2355
20200TIP3    H182091   2.289   0.359   0.053 -0.3410 -0.5219 -0.1475
20200TIP3    H282092   2.392   0.312  -0.049  0.9177 -0.5557  1.1091
20201TIP3   OH282093   1.528   3.326  13.436 -0.1467  0.4915 -0.1845
20201TIP3    H182094   1.438   3.356  13.422  0.6333  3.7661  0.8870
20201TIP3    H282095   1.539   3.328  13.532  1.0545  0.1151 -0.3015
20202TIP3   OH282096   1.028   5.366   5.729  0.1558  0.7194  0.0571
20202TIP3    H182097   1.065   5.279   5.719  0.3332  0.6801  0.9925
20202TIP3    H282098   1.094   5.414   5.779 -0.3709  1.1056  0.3902
20203TIP3   OH282099   3.181   3.040   2.812  0.5011 -0.1268 -0.6148
20203TIP3    H182100   3.183   3.106   2.881 -0.4685 -0.5079 -0.2017
20203TIP3    H282101   3.264   2.994   2.820  1.3734  1.2975 -1.1735
20204TIP3   OH282102   4.778   5.014   0.296 -0.0565 -0.0789  0.5652
20204TIP3    H182103   4.812   5.045   0.212  0.0394  0.1645  0.6945
20204TIP3    H282104   4.857   4.992   0.347 -0.0942  0.4499  0.8520
20205TIP3   OH282105   5.375   6.395   0.063  0.2340 -0.6483 -0.3563
20205TIP3    H182106   5.295   6.447   0.069 -0.2605 -1.4520  0.2246
20205TIP3    H282107   5.348   6.306   0.087  0.6194 -1.6659 -3.2873
20206TIP3   OH282108   3.922   6.728   4.842 -0.0877 -0.5496  0.3346
20206TIP3    H182109   3.928   6.633   4.845 -1.2404 -0.7064 -1.0804
20206TIP3    H282110   4.004   6.759   4.880 -0.1301 -2.0704  1.7824
20207TIP3   OH282111   4.060   1.394   1.403  0.6395 -0.0556 -0.0766
20207TIP3    H182112   4.119   1.447   1.457 -0.6761 -1.2424  2.6912
20207TIP3    H282113   4.092   1.305   1.412  0.1362 -0.3377 -0.9514
20208TIP3   OH282114   0.804   2.849   3.743  0.0582  0.4271 -0.5057
20208TIP3    H182115   0.738   2.895   3.795  0.0489 -0.0953 -0.0508
20208TIP3    H282116   0.852   2.919   3.699 -0.3335  0.8461 -0.2796
20209TIP3   OH282117   3.655   4.642  13.350 -0.4692 -0.1520 -0.7045
20209TIP3    H182118   3.665   4.701  13.424 -1.6669  0.7085 -1.1950
20209TIP3    H282119   3.744   4.610  13.332  0.1590  1.2694 -0.2446
20210TIP3   OH282120   4.113   1.686   2.161  0.1059 -0.1754  0.3292
20210TIP3    H182121   4.088   1.669   2.252 -1.3173  0.0141  0.0068
20210TIP3    H282122   4.135   1.600   2.126 -0.5539 -0.4377  0.5318
20211TIP3   OH282123   2.485   6.782  12.192  0.1347  0.3985  0.0038
20211TIP3    H182124   2.440   6.843  12.252 -0.2509 -0.2115  0.3487
20211TIP3    H282125   2.510   6.709  12.248  0.4670  0.1766 -0.4378
20212TIP3   OH282126   2.673   3.564   2.942  0.1831 -0.0662 -0.2627
20212TIP3    H182127   2.670   3.511   3.023  0.1956 -2.6213 -1.8212
20212TIP3    H282128   2.765   3.562   2.916 -0.0535 -0.5702 -1.1083
20213TIP3   OH282129   5.815   0.773  15.487  0.1248  0.5626  0.6024
20213TIP3    H182130   5.884   0.715  15.520 -0.8229 -0.0785  1.4819
20213TIP3    H282131   5.754   0.782  15.560 -1.4881 -0.0574 -0.6300
20214TIP3   OH282132   5.183   5.661  11.015 -0.4464 -0.0105 -0.1659
20214TIP3    H182133   5.225   5.626  10.936 -0.0980 -0.0674  0.0463
20214TIP3    H282134   5.109   5.602  11.030 -0.2265 -0.2916 -0.1682
20215TIP3   OH282135   5.136   1.805  15.128 -0.0682  0.0561 -0.2457
20215TIP3    H182136   5.152   1.782  15.219 -0.3252  1.1398  0.0840
20215TIP3    H282137   5.223   1.814  15.090  0.0915  1.4204  0.3789
20216TIP3   OH282138   3.215   6.032   6.041 -0.3244  0.0778  0.1408
20216TIP3    H182139   3.304   6.053   6.013 -0.5777  1.0446  0.0194
20216TIP3    H282140   3.187   6.109   6.091 -1.5970  0.3992 -1.0107
20217TIP3   OH282141   6.488   4.035   3.499  0.1874 -0.2640 -0.0544
20217TIP3    H182142   6.417   3.971   3.505 -0.6133  0.5649 -0.3936
20217TIP3    H282143   6.517   4.030   3.408 -0.0008 -0.0241 -0.1292
20218TIP3   OH282144   6.825   0.051  13.734  0.1081 -0.3785 -0.6996
20218TIP3    H182145   6.886   0.104  13.786  0.5868 -1.1859 -0.4263
20218TIP3    H282146   6.862   0.052  13.646 -0.6082  0.8430 -1.0080
20219TIP3   OH282147   4.314   2.727  13.913  0.3551 -0.1487 -0.1233
20219TIP3    H182148   4.256   2.749  13.986  0.4378 -0.0969 -0.0740
20219TIP3    H282149   4.400   2.715  13.953  0.9133  2.1840 -0.5180
20220TIP3   OH282150   2.395   2.648   3.506 -0.4411  0.6504  0.3202
20220TIP3    H182151   2.464   2.656   3.571  0.0067 -0.4059 -0.0131
20220TIP3    H282152   2.353   2.734   3.505  1.1937  1.4763  0.1626
20221TIP3   OH282153   2.286   3.096   0.512  0.0777 -0.4496 -0.6647
20221TIP3    H182154   2.276   3.191   0.508  0.8250 -0.3928 -1.4440
20221TIP3    H282155   2.199   3.064   0.538  0.0906  0.4948  0.6219
20222TIP3   OH282156   1.004   0.612  13.299  0.8388 -0.0189  0.1349
20222TIP3    H182157   0.951   0.624  13.220 -1.3285  2.3561  1.8105
20222TIP3    H282158   0.949   0.559  13.357  1.8316 -0.5743  0.5846
20223TIP3   OH282159   3.634   4.723   2.707  0.4984 -0.2086 -0.0648
20223TIP3    H182160   3.636   4.787   2.636 -1.9810 -0.6271 -0.6008
20223TIP3    H282161   3.687   4.649   2.675 -0.5138 -0.3588 -1.4755
20224TIP3   OH282162   1.123   4.483   1.957  0.4654  0.6439  0.2411
20224TIP3    H182163   1.069   4.418   2.001  0.5605 -0.5607 -1.3518
20224TIP3    H282164   1.212   4.446   1.958  0.9791  1.8211  1.3345
20225TIP3   OH282165   2.726   0.090   6.287 -0.3090  0.4800  0.4357
20225TIP3    H182166   2.775   0.016   6.321  1.8759  1.8097  0.3882
20225TIP3    H282167   2.664   0.051   6.226  0.1488 -1.3695  1.0807
20226TIP3   OH282168   2.607   4.161   4.104  0.4562  0.3957  0.3282
20226TIP3    H182169   2.612   4.098   4.176 -0.6685 -2.0360 -1.5849
20226TIP3    H282170   2.522   4.202   4.115 -1.3092 -2.4797 -1.4060
20227TIP3   OH282171   0.124   5.014   2.791  0.0853 -0.3021  0.6837
20227TIP3    H182172   0.134   4.921   2.773 -0.4948 -0.0185 -1.3996
20227TIP3    H282173   0.147   5.024   2.884 -2.6040 -2.9594  1.8042
20228TIP3   OH282174   6.505   2.811   5.008 -0.2324 -0.5165  0.1143
20228TIP3    H182175   6.546   2.725   5.012  0.0001 -0.5696 -2.0292
20228TIP3    H282176   6.578   2.873   5.011 -0.1700 -0.5171 -0.8954
20229TIP3   OH282177   1.027   5.232  13.503 -0.3205 -0.3910  0.0204
20229TIP3    H182178   0.963   5.193  13.443  1.5554 -1.0831 -1.6269
20229TIP3    H282179   1.021   5.326  13.485 -0.9350 -0.4370 -0.0499
20230TIP3   OH282180   4.357   5.403  12.677  0.3559 -0.3080  0.1312
20230TIP3    H182181   4.306   5.467  12.727 -0.1232  0.9205 -1.8337
20230TIP3    H282182   4.292   5.339  12.648  0.5742 -0.8218  0.7570
20231TIP3   OH282183   2.892   0.230   4.231  0.0597  0.1216  0.7430
20231TIP3    H182184   2.975   0.211   4.188 -0.7810  0.7570 -1.2991
20231TIP3    H282185   2.915   0.286   4.305  1.3174  1.5578 -0.6818
20232TIP3   OH282186   2.724   1.805   3.549 -0.2798  0.0775  0.4184
20232TIP3    H182187   2.748   1.767   3.464 -1.4569 -0.5578  0.3603
20232TIP3    H282188   2.644   1.855   3.531  0.3602  1.3029  0.8280
20233TIP3   OH282189   2.110   5.224  15.137 -0.3466 -0.4190  0.4922
20233TIP3    H182190   2.133   5.201  15.227 -0.8168 -0.1447  0.6844
20233TIP3    H282191   2.025   5.183  15.123 -0.4209 -0.1925  0.2809
20234TIP3   OH282192   3.211   5.576   4.362  0.0216  0.8909  0.3641
20234TIP3    H182193   3.224   5.520   4.285 -0.3737  1.6603 -0.2732
20234TIP3    H282194   3.235   5.520   4.436 -0.9853 -0.3491 -0.1984
20235TIP3   OH282195   0.151   6.010   5.167 -0.0479  0.0576 -0.5470
20235TIP3    H182196   0.139   6.068   5.242 -0.7528 -0.0037 -0.6116
20235TIP3    H282197   0.073   6.023   5.113 -0.7460 -1.7511 -0.0383
20236TIP3   OH282198   3.607   2.432  11.702  0.6446  1.3813  0.0943
20236TIP3    H182199   3.531   2.429  11.760 -0.4999 -1.4776 -1.3519
20236TIP3    H282200   3.681   2.451  11.761 -0.1351 -3.0716  3.0631
20237TIP3   OH282201   6.133   6.571   4.669 -0.5785  0.1854 -0.0895
20237TIP3    H182202   6.078   6.516   4.724 -1.6385  1.3101  0.0100
20237TIP3    H282203   6.072   6.619   4.613  0.1430  2.5846  1.0543
20238TIP3   OH282204   6.124   0.916   3.811 -0.6698  0.6657  0.0608
20238TIP3    H182205   6.035   0.882   3.819 -0.5716  0.6434  1.3330
20238TIP3    H282206   6.116   1.009   3.832 -0.0802  0.2014  2.6757
20239TIP3   OH282207   5.871   2.803  12.875  0.5404 -0.2990  0.3155
20239TIP3    H182208   5.877   2.729  12.813 -1.1590 -0.3172  0.1173
20239TIP3    H282209   5.820   2.769  12.948  0.5515  0.4140  0.6629
20240TIP3   OH282210   3.472   0.995   3.028  0.1981  0.6546 -0.2069
20240TIP3    H182211   3.557   0.959   3.001 -1.0752 -3.0728  0.1567
20240TIP3    H282212   3.473   0.990   3.123 -0.3554  0.7781 -0.1914
20241TIP3   OH282213   3.586   5.480   2.434  0.5807  0.2299  0.1406
20241TIP3    H182214   3.668   5.507   2.392  0.7110 -0.7943 -0.2896
20241TIP3    H282215   3.609   5.465   2.525  1.3042 -1.7652 -0.3208
20242TIP3   OH282216   0.941   4.525   4.793 -0.1517  0.4130  0.2337
20242TIP3    H182217   0.935   4.495   4.703  1.0541  2.7198 -0.6992
20242TIP3    H282218   1.022   4.487   4.827  0.0526  0.5614 -0.0895
20243TIP3   OH282219   2.445   0.159  10.830 -0.5831 -0.4965 -0.2301
20243TIP3    H182220   2.422   0.074  10.793 -0.7571 -0.6716  0.2673
20243TIP3    H282221   2.520   0.140  10.887 -0.4199 -0.2598 -0.3650
20244TIP3   OH282222   0.521   4.503   5.544 -0.2774  0.1902 -0.4088
20244TIP3    H182223   0.488   4.414   5.534 -0.6307  0.1258  1.1377
20244TIP3    H282224   0.614   4.496   5.522 -0.2813 -0.5753 -0.2152
20245TIP3   OH282225   3.286   4.200  16.910 -0.4180 -0.0790  0.1966
20245TIP3    H182226   3.196   4.174  16.890 -0.5326  0.4485  0.0025
20245TIP3    H282227   3.340   4.151  16.847 -0.7482  1.2987 -1.2258
20246TIP3   OH282228   6.408   2.232   0.545 -0.1045  0.3855 -0.8655
20246TIP3    H182229   6.421   2.180   0.624 -1.6100  0.7053 -0.3617
20246TIP3    H282230   6.449   2.316   0.564  1.0566 -0.1185 -1.1118
20247TIP3   OH282231   1.405   2.374   3.392 -0.4611 -0.8170  0.3480
20247TIP3    H182232   1.469   2.391   3.461  0.6726 -1.2681 -0.5387
20247TIP3    H282233   1.345   2.448   3.396  1.9705  1.4085 -0.7837
20248TIP3   OH282234   4.611   6.092   5.971  0.2996 -0.1509  0.2154
20248TIP3    H182235   4.679   6.027   5.990  1.4298  1.3271  1.5093
20248TIP3    H282236   4.529   6.047   5.991  0.9319 -1.7121 -0.5538
20249TIP3   OH282237   1.248   4.713   5.140  0.3351  0.4101  0.1920
20249TIP3    H182238   1.238   4.802   5.175  2.1080 -0.0011  1.9766
20249TIP3    H282239   1.272   4.726   5.048 -1.4230  1.6776 -0.1353
20250LIG      O82240   1.871   1.832   5.478  0.6734 -0.2917  0.3410
20250LIG      N82241   2.085   1.852   5.116  0.2836 -0.4717  0.5236
20250LIG     C182242   1.995   1.997   5.590  0.3097  0.0743 -0.8188
20250LIG     C282243   1.930   1.957   5.460 -0.4424 -0.1497  0.2028
20250LIG     C382244   1.888   2.025   5.705 -0.4367 -0.3785 -0.3040
20250LIG     C482245   2.100   1.895   5.651 -0.0240 -0.0600  0.1459
20250LIG     C582246   2.031   1.938   5.346 -0.6731  0.0133 -0.0816
20250LIG     C682247   1.950   2.083   5.836  0.2447 -0.1157 -0.5204
20250LIG     C782248   2.149   1.947   5.789 -0.3373 -0.5684  0.1447
20250LIG     C882249   2.048   1.989   5.897 -0.1219 -0.2947 -0.3721
20250LIG     C982250   1.978   1.912   5.203 -0.1461 -0.4536 -0.3768
20250LIG    C1082251   1.825   2.069   5.420  0.5240 -0.3194  0.3782
20250LIG    C1182252   2.033   1.785   4.989  0.9532  1.0085 -0.3420
20250LIG    C1282253   2.191   1.946   5.082 -0.9491 -0.3855 -0.6288
20250LIG    C1382254   1.969   1.884   4.890 -0.1863 -0.1437 -0.0454
20250LIG    C1482255   2.140   2.058   4.976 -0.0455 -0.2088  0.0134
20250LIG    C1582256   2.073   1.995   4.852  0.1513  0.3187  0.4185
20250LIG    C1682257   1.876   2.205   5.397  0.4760  0.5120 -0.4295
20250LIG    C1782258   1.688   2.046   5.404 -0.5467 -0.2165  0.0616
20250LIG    C1882259   1.790   2.305   5.356  0.2710 -0.6764 -0.4921
20250LIG    C1982260   1.598   2.151   5.370  0.1776  0.2446  0.6234
20250LIG    C2082261   1.651   2.278   5.343 -0.1767 -0.2387 -0.0441
20250LIG     H182262   2.051   2.093   5.579  0.4747  0.1299  0.3426
20250LIG     H282263   1.843   1.929   5.739  2.1214 -1.3956  0.4889
20250LIG     H382264   1.809   2.094   5.671 -0.1938 -0.5820 -1.2923
20250LIG     H482265   2.189   1.893   5.584 -0.1886  0.7533 -0.1082
20250LIG     H582266   2.057   1.794   5.669  1.2644 -1.1607 -2.3636
20250LIG     H682267   2.105   1.858   5.368  0.3969  1.0153  0.0496
20250LIG     H782268   2.083   2.034   5.327  1.7116 -1.3238 -0.9140
20250LIG     H882269   1.870   2.099   5.912  0.2676 -2.6260  0.1149
20250LIG     H982270   1.982   2.185   5.806  0.7115  0.1744  0.8732
20250LIG    H1082271   2.222   2.029   5.769  0.6815 -1.2287  1.0243
20250LIG    H1182272   2.197   1.858   5.836 -0.5857  0.4069  2.3829
20250LIG    H1282273   1.982   1.907   5.933  1.5602 -1.0797  1.0712
20250LIG    H1382274   2.093   2.015   5.995  0.1774 -4.0987  0.6332
20250LIG    H1482275   1.890   1.844   5.198 -1.1961  0.9301 -1.5161
20250LIG    H1582276   1.939   2.006   5.158  1.3786  0.3910  0.0009
20250LIG    H1682277   1.953   1.712   5.014  1.0387  1.5006  1.4783
20250LIG    H1782278   2.109   1.720   4.940  0.8324  1.6536 -1.4293
20250LIG    H1882279   2.269   1.892   5.023  1.6051  0.5953  1.6222
20250LIG    H1982280   2.244   1.989   5.169 -1.7698  0.3235 -0.4680
20250LIG    H2082281   1.944   1.778   5.508 -0.3596 -1.4874  0.7715
20250LIG    H2182282   1.875   1.931   4.927 -1.1356 -1.5579 -0.6216
20250LIG    H2282283   1.940   1.832   4.797  0.2614  1.1582 -0.9559
20250LIG    H2382284   2.222   2.122   4.936  0.3955  0.4891  1.8978
20250LIG    H2482285   2.073   2.122   5.037 -0.5808 -1.2211  0.5219
20250LIG    H2582286   2.024   2.082   4.802  0.7574  1.6524  2.0360
20250LIG    H2682287   2.150   1.955   4.783 -0.6946  1.3966 -1.2085
20250LIG    H2782288   1.982   2.218   5.409  0.5083 -0.5063  0.4933
20250LIG    H2882289   1.652   1.945   5.414 -0.0783 -0.5793 -1.5305
20250LIG    H2982290   1.823   2.406   5.342  0.6511 -1.1360 -3.6994
20250LIG    H3082291   1.496   2.124   5.350  0.6743 -1.0321 -0.3528
20250LIG    H3182292   1.591   2.361   5.307 -0.0550 -0.4006 -0.6227
   6.84663   6.84663  17.14602
