Title
43194
    1CHL1    C3    1   5.763   1.105   5.890 -0.2776 -0.4345  0.0988
    1CHL1    H3    2   5.676   1.163   5.929 -1.3616 -1.2715 -0.9664
    1CHL1    O3    3   5.841   1.052   5.994 -0.2465 -0.1205  0.3624
    1CHL1   H3'    4   5.824   1.114   6.066 -1.1197 -1.9669  1.8202
    1CHL1    C4    5   5.697   0.991   5.813 -0.4244 -0.4358  0.4163
    1CHL1   H4A    6   5.781   0.924   5.786  0.1734  0.2961  0.4059
    1CHL1   H4B    7   5.637   0.918   5.871 -1.5546 -0.2929 -0.5351
    1CHL1    C5    8   5.639   1.041   5.687  0.2714  0.2267 -0.0180
    1CHL1    C6    9   5.520   0.993   5.652  0.7786 -0.2585 -0.3104
    1CHL1    H6   10   5.461   0.923   5.714  2.2933 -0.5501  0.8522
    1CHL1    C7   11   5.452   1.019   5.521 -0.0637 -0.2027 -1.0211
    1CHL1   H7A   12   5.425   0.921   5.475 -1.8257 -0.6922  0.9141
    1CHL1   H7B   13   5.363   1.083   5.539  0.4151 -0.1584  1.5219
    1CHL1    C8   14   5.551   1.092   5.417 -0.6446  0.6486 -0.3273
    1CHL1    H8   15   5.610   1.010   5.372  0.8334  0.8032  1.2470
    1CHL1   C14   16   5.469   1.161   5.308 -0.6570 -0.3768 -0.1016
    1CHL1   H14   17   5.421   1.247   5.359  1.3790  0.8549 -0.1634
    1CHL1   C15   18   5.355   1.087   5.233 -0.1201 -0.2265 -0.4925
    1CHL1  H15A   19   5.392   0.992   5.188 -0.2767 -0.9582  0.8562
    1CHL1  H15B   20   5.271   1.062   5.302 -0.5220 -0.4360 -1.0535
    1CHL1   C16   21   5.319   1.185   5.128  0.7409  0.3848  0.3643
    1CHL1  H16A   22   5.307   1.136   5.029  2.5129  3.1305 -1.3466
    1CHL1  H16B   23   5.219   1.233   5.138  0.6344  1.0921 -2.8116
    1CHL1   C17   24   5.440   1.284   5.109 -0.2597 -0.2936 -0.0281
    1CHL1   H17   25   5.402   1.374   5.162 -1.0062 -0.6016 -0.0258
    1CHL1   C13   26   5.559   1.234   5.199  0.0322 -0.2782 -0.7370
    1CHL1   C18   27   5.635   1.125   5.114 -0.1226 -0.6820 -0.4485
    1CHL1  H18A   28   5.699   1.069   5.185  1.3583  0.2593 -0.9918
    1CHL1  H18B   29   5.574   1.055   5.054  1.1942  0.0532 -2.7746
    1CHL1  H18C   30   5.699   1.175   5.038 -0.2251 -3.5790 -2.6061
    1CHL1   C12   31   5.653   1.334   5.278 -0.2067  0.4922  0.3553
    1CHL1  H12A   32   5.721   1.379   5.202 -1.8504 -1.6488 -2.6093
    1CHL1  H12B   33   5.585   1.404   5.330  0.4800  0.0583  1.8889
    1CHL1   C11   34   5.737   1.255   5.373  0.5596 -0.2508  0.5339
    1CHL1  H11A   35   5.797   1.180   5.318  0.5925 -1.3497  2.0107
    1CHL1  H11B   36   5.804   1.333   5.415  0.8061 -0.0643 -0.1840
    1CHL1    C9   37   5.650   1.192   5.480  0.2581  0.2871 -0.1962
    1CHL1    H9   38   5.574   1.267   5.511  0.4834  1.8722 -3.1195
    1CHL1   C10   39   5.723   1.136   5.604  0.4980  0.4048  0.7488
    1CHL1   C19   40   5.847   1.063   5.543 -0.0605 -0.1068 -0.0038
    1CHL1  H19A   41   5.909   1.134   5.485 -1.4185  0.5735 -0.6879
    1CHL1  H19B   42   5.917   1.025   5.620  1.6599  3.7605  0.5783
    1CHL1  H19C   43   5.819   0.973   5.484 -1.3635 -1.4575  2.4947
    1CHL1    C1   44   5.780   1.249   5.687 -0.3113  0.4242  0.2922
    1CHL1   H1A   45   5.848   1.316   5.630  1.1903 -2.5223 -1.6422
    1CHL1   H1B   46   5.699   1.319   5.714 -0.0130  0.0455  2.2885
    1CHL1    C2   47   5.852   1.205   5.810 -0.3151  0.4681 -0.7578
    1CHL1   H2A   48   5.890   1.296   5.860  3.2534 -1.4425  0.3581
    1CHL1   H2B   49   5.949   1.156   5.784  0.2221  0.3214  1.3891
    1CHL1   C20   50   5.469   1.326   4.968 -0.5244 -0.4424  0.5082
    1CHL1   H20   51   5.496   1.236   4.909 -1.1327  0.0681 -0.6030
    1CHL1   C21   52   5.591   1.415   4.957  0.7265 -0.7785 -0.1806
    1CHL1  H21A   53   5.692   1.371   4.972  1.5848  1.3873  0.8203
    1CHL1  H21B   54   5.572   1.490   5.037  1.1695 -0.8986  0.0430
    1CHL1  H21C   55   5.601   1.473   4.862  2.4846 -0.1185  0.3694
    1CHL1   C22   56   5.353   1.400   4.886  0.1936  0.5573  0.3563
    1CHL1  H22A   57   5.404   1.455   4.804  0.2252  0.7297  0.4914
    1CHL1  H22B   58   5.282   1.325   4.846  0.0289  0.8088  0.1742
    1CHL1   C23   59   5.280   1.510   4.968  1.1003  0.4292 -0.2673
    1CHL1  H23A   60   5.234   1.465   5.059 -0.5649  2.4054 -0.0670
    1CHL1  H23B   61   5.345   1.596   4.996  0.8358  0.6289 -0.2638
    1CHL1   C24   62   5.157   1.562   4.886 -0.0050 -0.3812 -0.3079
    1CHL1  H24A   63   5.192   1.610   4.792  0.9587 -1.1244 -0.3454
    1CHL1  H24B   64   5.104   1.469   4.856 -1.0079 -0.0087  0.2589
    1CHL1   C25   65   5.052   1.652   4.963  0.1501 -0.0241  0.0645
    1CHL1   H25   66   5.021   1.603   5.058  0.7930  0.2886  0.4395
    1CHL1   C26   67   5.108   1.785   4.984  0.2496 -0.8356 -0.7883
    1CHL1  H26A   68   5.027   1.859   4.998  1.4164 -0.0438  3.0541
    1CHL1  H26B   69   5.171   1.785   5.076  2.1655 -0.0589 -2.0296
    1CHL1  H26C   70   5.172   1.818   4.900 -0.0334 -0.3618 -0.8184
    1CHL1   C27   71   4.927   1.651   4.879 -0.1111 -0.2112 -0.1112
    1CHL1  H27A   72   4.854   1.726   4.917 -0.1919 -0.3312 -0.0281
    1CHL1  H27B   73   4.947   1.693   4.778 -2.5794 -0.3591 -0.7174
    1CHL1  H27C   74   4.876   1.553   4.881  2.2026 -1.4738 -0.0262
    2CHL1    C3   75   6.766   6.175   6.174  0.0706  0.3428  0.0335
    2CHL1    H3   76   6.775   6.069   6.205 -0.9951 -0.2667 -1.5998
    2CHL1    O3   77   6.796   6.251   6.291 -0.8589  0.4409  0.1248
    2CHL1   H3'   78   6.738   6.328   6.288  0.0123  1.1111 -3.3473
    2CHL1    C4   79   6.861   6.228   6.060  0.1170 -0.6270  0.1449
    2CHL1   H4A   80   6.839   6.336   6.059  1.2205 -0.2387  3.7980
    2CHL1   H4B   81   6.962   6.220   6.105  0.3289 -0.4887 -0.2966
    2CHL1    C5   82   6.833   6.175   5.925  0.0592 -0.4239  0.2931
    2CHL1    C6   83   6.924   6.107   5.854  0.1330  0.1073 -0.4409
    2CHL1    H6   84   7.025   6.093   5.895  0.9972  1.3935 -1.9820
    2CHL1    C7   85   6.907   6.053   5.715  1.0011  0.5265  0.0412
    2CHL1   H7A   86   6.998   6.077   5.656  1.3139 -1.6150 -0.4135
    2CHL1   H7B   87   6.915   5.943   5.709  2.4448  0.6175  0.0527
    2CHL1    C8   88   6.775   6.109   5.644  0.2816  1.2687  0.0854
    2CHL1    H8   89   6.784   6.217   5.618  2.9944  0.4190 -3.1149
    2CHL1   C14   90   6.743   6.035   5.519  0.4506  0.3629 -0.2558
    2CHL1   H14   91   6.723   5.928   5.542  0.6029  0.4597  0.3320
    2CHL1   C15   92   6.852   6.042   5.414 -0.2319  0.1056  0.0933
    2CHL1  H15A   93   6.895   6.144   5.420  0.7611 -0.2636 -0.5383
    2CHL1  H15B   94   6.930   5.963   5.422 -0.1729  0.2593  1.1392
    2CHL1   C16   95   6.767   6.030   5.282  0.2042  0.4886 -0.4737
    2CHL1  H16A   96   6.787   6.122   5.223 -1.8271  0.3479 -1.4560
    2CHL1  H16B   97   6.794   5.943   5.219  1.2106  2.0791 -2.3664
    2CHL1   C17   98   6.619   6.019   5.316 -1.2502 -0.0779 -0.2910
    2CHL1   H17   99   6.597   5.911   5.331  1.4219 -0.7388 -0.7602
    2CHL1   C13  100   6.610   6.084   5.453 -0.2879 -0.1574 -0.3996
    2CHL1   C18  101   6.603   6.233   5.427  0.5096  0.4298 -0.4533
    2CHL1  H18A  102   6.673   6.266   5.346 -0.1300  0.3805 -1.0364
    2CHL1  H18B  103   6.500   6.254   5.392  0.5768 -0.2784 -1.0992
    2CHL1  H18C  104   6.618   6.287   5.523 -3.0293  1.2658 -0.2520
    2CHL1   C12  105   6.498   6.037   5.544  1.1142  0.5466 -0.0793
    2CHL1  H12A  106   6.398   6.073   5.511  1.2856  0.7930 -0.3342
    2CHL1  H12B  107   6.496   5.926   5.550 -6.2159  0.2619  1.3074
    2CHL1   C11  108   6.513   6.093   5.689  0.0847 -0.1291  0.0751
    2CHL1  H11A  109   6.465   6.193   5.693 -0.3913 -0.3397 -0.4008
    2CHL1  H11B  110   6.449   6.040   5.763  1.1369 -0.2871  0.9023
    2CHL1    C9  111   6.654   6.101   5.749  0.0870 -0.4785 -0.0887
    2CHL1    H9  112   6.670   5.998   5.787 -2.3878 -1.5987 -1.8267
    2CHL1   C10  113   6.689   6.193   5.871  0.1650  0.7640  0.5062
    2CHL1   C19  114   6.655   6.334   5.829  0.4427  0.0126 -1.0348
    2CHL1  H19A  115   6.548   6.347   5.806  0.0029 -0.8496  0.4013
    2CHL1  H19B  116   6.692   6.405   5.906 -0.6768 -0.2711 -0.2221
    2CHL1  H19C  117   6.705   6.360   5.733  3.1353  0.4597  0.3772
    2CHL1    C1  118   6.595   6.145   5.986  0.3786 -0.0471 -0.2137
    2CHL1   H1A  119   6.485   6.163   5.979  0.0876 -1.0362  1.3308
    2CHL1   H1B  120   6.598   6.034   5.985 -2.1840 -0.1884  0.2501
    2CHL1    C2  121   6.627   6.209   6.130 -0.3690  0.0974 -0.1593
    2CHL1   H2A  122   6.551   6.178   6.206  0.3623  0.2380  0.6500
    2CHL1   H2B  123   6.627   6.320   6.122 -1.4579  0.2836  1.6385
    2CHL1   C20  124   6.522   6.069   5.205  0.1986 -0.0476  0.4313
    2CHL1   H20  125   6.511   6.180   5.200  0.5023  0.0188  1.1034
    2CHL1   C21  126   6.378   6.019   5.226  0.2016 -0.2477 -1.0131
    2CHL1  H21A  127   6.327   6.072   5.309  0.2740  0.4057 -1.3803
    2CHL1  H21B  128   6.371   5.910   5.246 -0.4208  0.2977  2.3716
    2CHL1  H21C  129   6.311   6.035   5.139  0.1425 -2.8561 -1.5266
    2CHL1   C22  130   6.570   6.022   5.062  0.2372 -0.3146 -0.2886
    2CHL1  H22A  131   6.668   6.069   5.041  1.0008 -0.5146  2.4839
    2CHL1  H22B  132   6.583   5.912   5.070 -1.3410 -0.4676  0.7328
    2CHL1   C23  133   6.468   6.060   4.950 -0.3892  0.7729 -0.0909
    2CHL1  H23A  134   6.378   5.994   4.957 -0.0627  0.3375  0.0523
    2CHL1  H23B  135   6.436   6.166   4.962 -1.3948  0.3416  1.4658
    2CHL1   C24  136   6.540   6.051   4.817  0.7662  0.3275  0.1450
    2CHL1  H24A  137   6.639   6.099   4.828  0.7375  0.2935  0.5709
    2CHL1  H24B  138   6.563   5.946   4.789 -1.4479 -0.3317  0.5970
    2CHL1   C25  139   6.469   6.114   4.705 -0.0351 -0.3973 -0.2585
    2CHL1   H25  140   6.454   6.222   4.725  0.1403 -0.4497  0.1525
    2CHL1   C26  141   6.552   6.088   4.575 -0.3882 -0.2673 -0.2042
    2CHL1  H26A  142   6.659   6.109   4.597 -0.9358  2.2396  0.3862
    2CHL1  H26B  143   6.542   5.984   4.536  1.3472  0.0445 -1.6087
    2CHL1  H26C  144   6.512   6.156   4.497 -2.6953 -1.1684  0.1114
    2CHL1   C27  145   6.326   6.059   4.687  0.3879  0.5707  0.2589
    2CHL1  H27A  146   6.264   6.101   4.769  1.2740  1.7959  0.3231
    2CHL1  H27B  147   6.285   6.096   4.590  2.6394  0.8747 -0.6219
    2CHL1  H27C  148   6.319   5.948   4.681 -0.8344  0.6121  0.5685
    3CHL1    C3  149   4.878   5.980   5.990 -0.3835 -0.2875 -0.0553
    3CHL1    H3  150   4.839   5.877   5.974 -0.0777 -0.1362 -2.0292
    3CHL1    O3  151   4.875   5.983   6.133 -0.0880  0.4797  0.0104
    3CHL1   H3'  152   4.899   6.073   6.153 -0.8806  0.4490  1.2500
    3CHL1    C4  153   5.022   5.999   5.942  0.1730 -0.4781  0.3566
    3CHL1   H4A  154   5.061   6.091   5.990  0.8291 -0.3520 -0.4020
    3CHL1   H4B  155   5.093   5.927   5.988  2.2757  1.9382  1.1391
    3CHL1    C5  156   5.036   5.996   5.795  0.2849 -0.7997 -0.1537
    3CHL1    C6  157   5.132   5.916   5.742 -0.0611  0.0117 -0.5939
    3CHL1    H6  158   5.199   5.863   5.813  0.9405 -0.7846 -2.0861
    3CHL1    C7  159   5.160   5.907   5.594 -0.2483  0.9445  1.4413
    3CHL1   H7A  160   5.262   5.936   5.561 -0.5936 -0.7576 -1.5403
    3CHL1   H7B  161   5.146   5.801   5.563  1.8541  1.0166  0.0018
    3CHL1    C8  162   5.081   6.000   5.505 -0.5866  0.0389  0.5165
    3CHL1    H8  163   5.142   6.092   5.489  0.0038 -0.6396 -1.4515
    3CHL1   C14  164   5.063   5.946   5.364  0.4218  0.4715 -0.0994
    3CHL1   H14  165   4.994   5.860   5.373  0.1321  0.6348 -0.7487
    3CHL1   C15  166   5.183   5.890   5.279  0.0230 -0.6696  0.4221
    3CHL1  H15A  167   5.276   5.950   5.291  0.4802 -1.1770 -0.4813
    3CHL1  H15B  168   5.201   5.783   5.302 -1.3193 -0.4978  2.6091
    3CHL1   C16  169   5.142   5.919   5.135  0.3404 -0.4939 -0.0892
    3CHL1  H16A  170   5.203   6.003   5.094  0.6718 -0.1264  1.1131
    3CHL1  H16B  171   5.163   5.830   5.071  2.4968 -0.3981  0.3864
    3CHL1   C17  172   4.991   5.966   5.132  0.9873  1.1320  0.1657
    3CHL1   H17  173   4.931   5.875   5.152 -0.2800  2.0574  0.7226
    3CHL1   C13  174   4.987   6.042   5.267  0.5312 -0.1868  0.6067
    3CHL1   C18  175   5.057   6.180   5.241 -0.5144 -0.7267 -0.5235
    3CHL1  H18A  176   5.074   6.237   5.336 -2.5570 -1.2660  0.2212
    3CHL1  H18B  177   5.152   6.161   5.187 -0.2243  0.5942 -0.5176
    3CHL1  H18C  178   5.003   6.258   5.184  0.9781  1.2227  0.5905
    3CHL1   C12  179   4.839   6.063   5.325  0.7329 -0.3441 -0.6115
    3CHL1  H12A  180   4.788   6.145   5.270 -0.8941 -0.6155  0.4585
    3CHL1  H12B  181   4.782   5.968   5.322  1.1101 -0.6173  0.5154
    3CHL1   C11  182   4.843   6.116   5.472 -0.0659  0.1462 -1.2796
    3CHL1  H11A  183   4.899   6.212   5.469  0.3053  0.2031  2.6187
    3CHL1  H11B  184   4.744   6.142   5.515 -0.0822 -0.3645 -0.9963
    3CHL1    C9  185   4.938   6.031   5.564 -0.0657 -0.6594  0.8439
    3CHL1    H9  186   4.890   5.931   5.574 -1.7388 -0.2351 -2.0295
    3CHL1   C10  187   4.936   6.082   5.716 -0.2579  0.0220  0.0622
    3CHL1   C19  188   4.988   6.227   5.725 -0.6649 -0.3707 -0.6460
    3CHL1  H19A  189   5.024   6.251   5.827 -0.4824  0.0406 -0.8066
    3CHL1  H19B  190   5.077   6.227   5.659 -0.4231  0.0414 -0.3304
    3CHL1  H19C  191   4.917   6.300   5.681 -0.5422 -1.3545 -2.5315
    3CHL1    C1  192   4.796   6.070   5.778  0.6790  1.0708  0.8294
    3CHL1   H1A  193   4.732   6.156   5.748  0.8082  0.4103 -1.5232
    3CHL1   H1B  194   4.753   5.973   5.746  1.3207  1.3946 -1.1608
    3CHL1    C2  195   4.790   6.087   5.929 -0.7848  0.0291 -0.1561
    3CHL1   H2A  196   4.689   6.061   5.967 -0.8313 -0.5093 -0.6389
    3CHL1   H2B  197   4.814   6.192   5.955 -0.3557 -0.3428  1.0415
    3CHL1   C20  198   4.939   6.026   5.004  0.1088 -0.0103  0.3850
    3CHL1   H20  199   4.939   6.137   5.014  2.2043 -0.0642  1.5606
    3CHL1   C21  200   4.791   5.991   4.987 -0.1225 -0.0771 -0.4173
    3CHL1  H21A  201   4.785   5.905   4.916  0.8511 -0.8451  0.3967
    3CHL1  H21B  202   4.748   6.080   4.937 -3.5461 -1.6845 -0.5858
    3CHL1  H21C  203   4.734   5.980   5.081  0.8215  0.9056  0.2948
    3CHL1   C22  204   5.018   5.980   4.875 -0.1953 -0.0208 -0.0820
    3CHL1  H22A  205   5.124   6.013   4.887  0.5145 -1.8167 -1.0318
    3CHL1  H22B  206   5.023   5.869   4.868 -0.6317 -0.0528  0.0723
    3CHL1   C23  207   4.961   6.036   4.744 -0.1551 -0.4602 -0.5420
    3CHL1  H23A  208   4.852   6.014   4.743  0.1561 -2.0906 -1.8894
    3CHL1  H23B  209   4.970   6.147   4.747  0.3583 -0.4768 -1.3494
    3CHL1   C24  210   5.037   5.988   4.618 -0.9900 -0.4672  0.5187
    3CHL1  H24A  211   5.145   6.010   4.633 -1.2535 -0.4760  2.7963
    3CHL1  H24B  212   5.023   5.878   4.615  1.3509 -0.8251  0.8347
    3CHL1   C25  213   4.980   6.051   4.488  0.3412 -0.1150  0.1346
    3CHL1   H25  214   4.870   6.038   4.500  0.6019 -1.3317  1.5071
    3CHL1   C26  215   5.017   6.196   4.459 -0.0698  0.0604 -0.3064
    3CHL1  H26A  216   4.978   6.227   4.360 -3.0183  0.6624  0.9446
    3CHL1  H26B  217   4.957   6.264   4.523  1.1187  0.2683  0.6330
    3CHL1  H26C  218   5.126   6.217   4.469  0.3616 -2.2109  0.3666
    3CHL1   C27  219   5.031   5.967   4.363 -0.2866  0.1634  0.1569
    3CHL1  H27A  220   4.982   6.010   4.273  2.0194 -2.4660 -2.5493
    3CHL1  H27B  221   5.141   5.981   4.366 -0.0639 -1.5239  2.3636
    3CHL1  H27C  222   5.010   5.860   4.386 -0.6922  0.2536  0.2266
    4CHL1    C3  223   5.695   0.411   5.854  0.4165  0.5608 -0.1163
    4CHL1    H3  224   5.788   0.471   5.849  0.8312 -0.1891 -1.8284
    4CHL1    O3  225   5.650   0.384   5.993  0.1990  0.3201  0.6695
    4CHL1   H3'  226   5.652   0.468   6.038 -0.7545 -0.2102  1.7386
    4CHL1    C4  227   5.592   0.498   5.797 -0.7518  0.3998 -0.2134
    4CHL1   H4A  228   5.496   0.444   5.807 -1.6425  1.9229 -0.2473
    4CHL1   H4B  229   5.579   0.591   5.856  1.5239  0.9632 -0.5045
    4CHL1    C5  230   5.623   0.522   5.649  0.1005 -0.2302  0.4551
    4CHL1    C6  231   5.626   0.648   5.602  0.9861 -0.2878  0.4859
    4CHL1    H6  232   5.603   0.737   5.663 -2.0389 -0.9947  0.5123
    4CHL1    C7  233   5.640   0.693   5.458 -0.2984  0.5734 -0.8944
    4CHL1   H7A  234   5.558   0.759   5.424 -1.0763  0.7672  1.2321
    4CHL1   H7B  235   5.735   0.750   5.453  0.1745 -0.0366  0.6061
    4CHL1    C8  236   5.639   0.568   5.357  0.8883  0.6495 -1.0852
    4CHL1    H8  237   5.530   0.549   5.354  0.7161  1.5553 -0.9663
    4CHL1   C14  238   5.693   0.600   5.229 -0.2857 -0.1963 -0.4002
    4CHL1   H14  239   5.802   0.617   5.245 -0.4238 -0.0290  0.3889
    4CHL1   C15  240   5.633   0.719   5.157  0.4796  0.0906 -1.0152
    4CHL1  H15A  241   5.522   0.707   5.153  0.3024  1.6194 -1.0399
    4CHL1  H15B  242   5.647   0.823   5.194  1.7143 -0.2402 -0.5108
    4CHL1   C16  243   5.689   0.714   5.011  0.2834  0.3823 -0.0940
    4CHL1  H16A  244   5.602   0.729   4.944  1.5811  3.2172 -1.3400
    4CHL1  H16B  245   5.765   0.795   4.999  2.2431 -1.2879  0.4562
    4CHL1   C17  246   5.755   0.568   4.999  0.1009 -0.2325 -0.0920
    4CHL1   H17  247   5.865   0.584   5.009  0.4996 -2.5921 -0.1350
    4CHL1   C13  248   5.705   0.488   5.125 -0.1905  0.6967 -0.4568
    4CHL1   C18  249   5.558   0.438   5.078 -0.0839  0.1003 -0.0338
    4CHL1  H18A  250   5.506   0.517   5.019 -0.4560  0.5725  0.9144
    4CHL1  H18B  251   5.543   0.341   5.026  0.2513 -0.8938  1.6680
    4CHL1  H18C  252   5.496   0.445   5.170  1.8852  0.7098  1.3088
    4CHL1   C12  253   5.785   0.369   5.184 -0.7536  0.7742  0.7572
    4CHL1  H12A  254   5.769   0.278   5.122  1.0622  0.9902 -0.0980
    4CHL1  H12B  255   5.894   0.390   5.191 -0.4015 -0.8755  0.5543
    4CHL1   C11  256   5.727   0.333   5.322 -0.3317  0.2338  0.1733
    4CHL1  H11A  257   5.633   0.274   5.308  0.4751 -1.1772  0.5163
    4CHL1  H11B  258   5.801   0.260   5.363  1.0248  1.1482 -0.6007
    4CHL1    C9  259   5.709   0.448   5.427  0.0604 -0.0842 -0.2521
    4CHL1    H9  260   5.812   0.486   5.443 -0.0580 -0.3513  1.2116
    4CHL1   C10  261   5.650   0.402   5.564  0.6517 -0.1180 -0.2886
    4CHL1   C19  262   5.525   0.309   5.538  0.1739 -0.1978  0.2350
    4CHL1  H19A  263   5.558   0.215   5.488 -2.7241 -0.3749 -1.5641
    4CHL1  H19B  264   5.469   0.271   5.627 -0.2778 -0.2315 -0.0636
    4CHL1  H19C  265   5.444   0.353   5.478 -1.8300 -2.8281  0.8044
    4CHL1    C1  266   5.756   0.319   5.636  0.0637 -0.1510 -0.3246
    4CHL1   H1A  267   5.784   0.229   5.577  0.4926 -0.6801  0.6660
    4CHL1   H1B  268   5.852   0.374   5.643  0.0604 -0.3061  1.7381
    4CHL1    C2  269   5.702   0.284   5.778 -0.0874 -0.0108 -0.0058
    4CHL1   H2A  270   5.777   0.218   5.827 -1.6597  0.1251  2.7914
    4CHL1   H2B  271   5.609   0.223   5.772  0.1739 -0.7473  2.3469
    4CHL1   C20  272   5.747   0.512   4.860  0.0523 -0.1300  0.2542
    4CHL1   H20  273   5.641   0.491   4.833  0.1162 -0.9792  0.6421
    4CHL1   C21  274   5.816   0.377   4.851 -0.5215 -0.2675  0.4201
    4CHL1  H21A  275   5.811   0.341   4.746  1.3185 -0.8715  0.5142
    4CHL1  H21B  276   5.764   0.306   4.918 -2.0995  1.8143  1.5421
    4CHL1  H21C  277   5.921   0.382   4.885 -0.1145  0.8536 -0.8766
    4CHL1   C22  278   5.793   0.612   4.746  0.2518  0.5745 -0.0445
    4CHL1  H22A  279   5.751   0.565   4.654 -2.3571  0.2527  1.2185
    4CHL1  H22B  280   5.745   0.711   4.756 -0.2192  0.4104 -0.5956
    4CHL1   C23  281   5.941   0.629   4.753 -0.1683  0.5420  0.0594
    4CHL1  H23A  282   5.961   0.695   4.840 -0.1526  0.6048  0.0078
    4CHL1  H23B  283   5.994   0.535   4.779 -2.7189 -1.3934 -1.2842
    4CHL1   C24  284   6.000   0.682   4.625  0.3921  0.3608 -0.1007
    4CHL1  H24A  285   5.962   0.612   4.547 -0.1795 -0.9594  1.3126
    4CHL1  H24B  286   5.952   0.777   4.593 -0.4435  0.0636  0.2606
    4CHL1   C25  287   6.153   0.690   4.609 -0.0018 -0.0115 -0.2317
    4CHL1   H25  288   6.198   0.599   4.652 -0.6929  0.0147  0.5738
    4CHL1   C26  289   6.175   0.693   4.451  0.5013  0.6820  0.5557
    4CHL1  H26A  290   6.122   0.608   4.402 -1.5745  3.9992 -3.6110
    4CHL1  H26B  291   6.131   0.787   4.412 -0.2299 -0.6189 -2.0150
    4CHL1  H26C  292   6.284   0.689   4.429  0.6709  0.9316  1.3259
    4CHL1   C27  293   6.210   0.812   4.686  0.2783  0.5305 -0.2489
    4CHL1  H27A  294   6.183   0.803   4.793 -0.7068  0.1934 -0.5182
    4CHL1  H27B  295   6.320   0.816   4.668  0.1320 -0.5416 -1.6338
    4CHL1  H27C  296   6.160   0.904   4.650 -0.0727  1.5135  2.5782
    5CHL1    C3  297   5.645   2.668   5.982 -0.4115  0.0142 -0.3405
    5CHL1    H3  298   5.629   2.778   5.976 -0.1490  0.0352 -0.7009
    5CHL1    O3  299   5.643   2.629   6.119 -0.1602 -0.4362 -0.4143
    5CHL1   H3'  300   5.552   2.612   6.143 -0.2169  0.1085 -0.2221
    5CHL1    C4  301   5.548   2.588   5.902 -0.2397  0.1126 -0.1791
    5CHL1   H4A  302   5.575   2.481   5.913 -2.4520 -0.3385  1.7270
    5CHL1   H4B  303   5.452   2.598   5.957 -1.4855  0.5465 -2.3390
    5CHL1    C5  304   5.541   2.634   5.761  0.4176 -0.0283 -0.3802
    5CHL1    C6  305   5.428   2.689   5.712  0.2283  0.0912  0.5428
    5CHL1    H6  306   5.340   2.699   5.778  0.3786  0.9648  0.6239
    5CHL1    C7  307   5.414   2.738   5.570 -0.3260  0.9920  0.7811
    5CHL1   H7A  308   5.318   2.700   5.529  0.4679 -0.7312  0.4317
    5CHL1   H7B  309   5.407   2.849   5.574 -3.6164  0.8616  2.2847
    5CHL1    C8  310   5.538   2.689   5.480  0.8360  0.0528  0.3047
    5CHL1    H8  311   5.522   2.582   5.454  1.1043  0.5802 -2.2735
    5CHL1   C14  312   5.529   2.766   5.349 -0.2895 -0.6600 -0.0385
    5CHL1   H14  313   5.559   2.863   5.395 -0.7575 -0.9775  0.9714
    5CHL1   C15  314   5.396   2.776   5.272 -0.0646 -0.4447 -1.1998
    5CHL1  H15A  315   5.359   2.671   5.262  0.5522 -0.8284  0.2877
    5CHL1  H15B  316   5.324   2.848   5.317  0.3010 -0.2972 -0.8502
    5CHL1   C16  317   5.442   2.836   5.134 -0.7150  0.4272  0.5431
    5CHL1  H16A  318   5.404   2.764   5.059 -0.5116  0.1522  0.7015
    5CHL1  H16B  319   5.382   2.928   5.114 -1.2826  0.3271  1.6762
    5CHL1   C17  320   5.592   2.843   5.137 -0.1682 -0.0110  0.6798
    5CHL1   H17  321   5.621   2.943   5.176 -0.9726  0.9629 -1.0759
    5CHL1   C13  322   5.638   2.738   5.241  0.0058  0.0008 -0.3144
    5CHL1   C18  323   5.625   2.596   5.187  0.4395  0.2559 -0.4680
    5CHL1  H18A  324   5.637   2.519   5.266 -0.0084 -1.1574 -1.7212
    5CHL1  H18B  325   5.521   2.573   5.156  0.4831 -3.1857  1.4394
    5CHL1  H18C  326   5.703   2.563   5.114  1.6866  0.6780  0.6324
    5CHL1   C12  327   5.771   2.755   5.309  0.2372 -0.0032 -0.0800
    5CHL1  H12A  328   5.854   2.727   5.240 -0.2872  0.2658 -0.8391
    5CHL1  H12B  329   5.793   2.863   5.323  1.1801  0.2026 -2.6136
    5CHL1   C11  330   5.783   2.674   5.443  0.2432 -0.0937 -0.1314
    5CHL1  H11A  331   5.799   2.564   5.435  1.0519 -0.2390  2.5108
    5CHL1  H11B  332   5.874   2.701   5.500  0.0107 -0.5772  0.4836
    5CHL1    C9  333   5.670   2.701   5.548  0.3079 -0.0108 -0.2756
    5CHL1    H9  334   5.680   2.805   5.585 -0.4344  0.2937 -0.9032
    5CHL1   C10  335   5.683   2.628   5.686  0.8142 -0.0619  0.5561
    5CHL1   C19  336   5.700   2.477   5.665 -0.2153 -0.7928 -0.1021
    5CHL1  H19A  337   5.805   2.479   5.631  0.0621 -1.5321  0.6633
    5CHL1  H19B  338   5.696   2.420   5.761 -0.0961  1.4120  1.2626
    5CHL1  H19C  339   5.620   2.454   5.590  0.1537 -1.1284 -0.3960
    5CHL1    C1  340   5.781   2.697   5.776  0.0297 -0.3615 -0.9492
    5CHL1   H1A  341   5.878   2.658   5.737  0.3345 -3.4433  2.3766
    5CHL1   H1B  342   5.787   2.808   5.768 -0.2242  0.1484  3.3943
    5CHL1    C2  343   5.783   2.648   5.925 -0.2848 -0.0477  0.1191
    5CHL1   H2A  344   5.867   2.688   5.985  0.3417 -0.4887 -0.4595
    5CHL1   H2B  345   5.801   2.538   5.921  0.8774  0.0442  1.6573
    5CHL1   C20  346   5.670   2.841   5.003 -0.4246 -0.1409  0.0277
    5CHL1   H20  347   5.702   2.739   4.971 -3.9433 -0.3109 -3.7473
    5CHL1   C21  348   5.791   2.936   5.001  0.8942 -0.0588 -0.3909
    5CHL1  H21A  349   5.743   3.036   5.013 -0.9696 -0.7250 -1.8671
    5CHL1  H21B  350   5.851   2.939   4.907  0.8475  1.6890 -0.4065
    5CHL1  H21C  351   5.862   2.920   5.085 -0.2652  0.6030  0.7431
    5CHL1   C22  352   5.564   2.874   4.892 -0.3184 -0.0985  0.3409
    5CHL1  H22A  353   5.491   2.790   4.889  0.5900 -0.8864 -1.6262
    5CHL1  H22B  354   5.514   2.971   4.916 -1.3104 -0.5048 -0.0356
    5CHL1   C23  355   5.618   2.867   4.750 -0.0779  0.1109 -0.7430
    5CHL1  H23A  356   5.706   2.935   4.749 -0.8977  1.1927 -0.7296
    5CHL1  H23B  357   5.652   2.762   4.738 -0.2086 -0.0614  0.3088
    5CHL1   C24  358   5.521   2.919   4.642  0.0730 -0.2178 -0.1490
    5CHL1  H24A  359   5.425   2.877   4.680  0.1936  1.0389  1.6452
    5CHL1  H24B  360   5.529   3.030   4.646  5.7198 -0.3891  2.9073
    5CHL1   C25  361   5.558   2.858   4.507 -0.9633  0.5536  0.0016
    5CHL1   H25  362   5.604   2.760   4.531 -0.1453  1.3645  1.9791
    5CHL1   C26  363   5.440   2.848   4.415 -0.1591  0.2370  0.0633
    5CHL1  H26A  364   5.415   2.954   4.398  3.4001  1.7733  3.0719
    5CHL1  H26B  365   5.475   2.806   4.318 -0.6397  1.8515 -0.8393
    5CHL1  H26C  366   5.364   2.788   4.469 -1.0607  1.6637  0.3996
    5CHL1   C27  367   5.664   2.938   4.436 -0.4418 -0.0011 -0.2188
    5CHL1  H27A  368   5.620   3.029   4.389 -0.6970 -0.0514 -0.0749
    5CHL1  H27B  369   5.752   2.948   4.504 -1.3763 -1.9409  1.3692
    5CHL1  H27C  370   5.707   2.876   4.355  1.6177  1.8412 -0.6326
    6CHL1    C3  371   4.648   0.589   5.711  0.4266 -0.3648 -0.3719
    6CHL1    H3  372   4.592   0.493   5.703  2.2960 -1.6583  1.1236
    6CHL1    O3  373   4.678   0.587   5.851 -0.0261  0.2510  0.2645
    6CHL1   H3'  374   4.733   0.509   5.856  1.1136  0.4674 -4.3052
    6CHL1    C4  375   4.775   0.587   5.622  0.0193 -0.1291 -0.5967
    6CHL1   H4A  376   4.839   0.670   5.657  0.8154 -1.3247  0.9201
    6CHL1   H4B  377   4.850   0.507   5.642  0.4970  0.6429  0.8203
    6CHL1    C5  378   4.733   0.576   5.477  0.3522  0.3325 -1.0441
    6CHL1    C6  379   4.765   0.483   5.401  0.2917  0.3068 -0.3558
    6CHL1    H6  380   4.826   0.398   5.435  0.6501  0.0244 -1.6612
    6CHL1    C7  381   4.739   0.486   5.251  0.2380 -0.7627 -0.4803
    6CHL1   H7A  382   4.822   0.441   5.193  0.4031 -1.0140 -0.0548
    6CHL1   H7B  383   4.655   0.415   5.236 -0.5716 -0.8022  3.2923
    6CHL1    C8  384   4.702   0.629   5.194 -0.0902 -0.3858 -0.5600
    6CHL1    H8  385   4.790   0.696   5.198  0.1701 -0.7412 -0.3647
    6CHL1   C14  386   4.649   0.617   5.048  1.1051 -0.1282 -0.1457
    6CHL1   H14  387   4.553   0.562   5.052  1.1362 -0.2754 -1.2851
    6CHL1   C15  388   4.732   0.550   4.942  0.1074 -0.8798  0.0695
    6CHL1  H15A  389   4.833   0.596   4.945 -1.3679  2.7175  0.2565
    6CHL1  H15B  390   4.733   0.439   4.952 -0.7324 -1.1510 -2.2865
    6CHL1   C16  391   4.670   0.610   4.817 -0.7036  0.2875  0.3242
    6CHL1  H16A  392   4.754   0.651   4.757  0.7269 -1.0267  1.3276
    6CHL1  H16B  393   4.622   0.529   4.758 -0.8706  0.9011 -0.3996
    6CHL1   C17  394   4.572   0.722   4.853  0.4419  0.1875 -0.0295
    6CHL1   H17  395   4.472   0.673   4.861 -0.1209  0.9569 -1.9366
    6CHL1   C13  396   4.608   0.754   5.002 -0.4724 -0.2476 -0.7506
    6CHL1   C18  397   4.726   0.856   5.011 -0.3144 -0.3160  0.9386
    6CHL1  H18A  398   4.694   0.962   5.006 -0.2196 -0.2931  0.8140
    6CHL1  H18B  399   4.771   0.867   5.112 -0.8889  1.9946  1.0055
    6CHL1  H18C  400   4.808   0.827   4.942 -1.0741 -1.8004  0.6207
    6CHL1   C12  401   4.492   0.794   5.086 -0.0261 -0.0290 -0.4457
    6CHL1  H12A  402   4.450   0.896   5.071  0.0211  0.3757  1.8688
    6CHL1  H12B  403   4.399   0.734   5.085 -2.8202  3.8680  0.0509
    6CHL1   C11  404   4.521   0.803   5.234 -0.5851  0.0693  0.2142
    6CHL1  H11A  405   4.578   0.897   5.249  0.4341 -0.2892 -1.2208
    6CHL1  H11B  406   4.427   0.825   5.289 -0.6455  0.3449  0.0046
    6CHL1    C9  407   4.600   0.686   5.291 -0.9999 -0.4029  0.2388
    6CHL1    H9  408   4.521   0.608   5.296 -1.9244  0.4832  0.0547
    6CHL1   C10  409   4.657   0.702   5.431 -0.4038 -0.2743 -0.3012
    6CHL1   C19  410   4.755   0.821   5.433  0.2846  0.0519 -0.7960
    6CHL1  H19A  411   4.843   0.804   5.367  1.9908  1.1084  1.0466
    6CHL1  H19B  412   4.706   0.919   5.412 -0.5795 -0.4173 -0.9652
    6CHL1  H19C  413   4.796   0.834   5.536  1.3620 -1.0817 -1.0531
    6CHL1    C1  414   4.537   0.729   5.536  0.1066 -0.0128  0.0264
    6CHL1   H1A  415   4.497   0.830   5.512 -2.4854 -0.7707  0.7699
    6CHL1   H1B  416   4.456   0.656   5.513  0.3479 -0.4721  0.6044
    6CHL1    C2  417   4.579   0.721   5.682  0.1252  0.7484 -0.0954
    6CHL1   H2A  418   4.497   0.732   5.756  1.0753 -1.5878  1.3909
    6CHL1   H2B  419   4.652   0.800   5.710 -0.7200  2.0537 -1.4100
    6CHL1   C20  420   4.561   0.833   4.752 -0.1670  0.0010  0.2652
    6CHL1   H20  421   4.666   0.869   4.749  0.7542 -2.2629  1.8911
    6CHL1   C21  422   4.457   0.945   4.798 -0.1541  0.2445  0.5201
    6CHL1  H21A  423   4.446   1.033   4.732  1.1176 -0.6354 -0.9306
    6CHL1  H21B  424   4.478   0.980   4.901 -0.8169  1.5218  0.2368
    6CHL1  H21C  425   4.354   0.903   4.789 -0.7624  1.8971 -0.5938
    6CHL1   C22  426   4.518   0.795   4.607  0.3064 -0.8426  0.2910
    6CHL1  H22A  427   4.570   0.703   4.572  1.8532 -0.7123  2.0383
    6CHL1  H22B  428   4.408   0.782   4.601  0.0155  1.7837 -1.2179
    6CHL1   C23  429   4.575   0.895   4.501 -0.8235 -0.1673  0.6111
    6CHL1  H23A  430   4.550   0.998   4.533  0.8228  0.6053 -0.4509
    6CHL1  H23B  431   4.684   0.888   4.519 -0.7982  0.7824  0.8707
    6CHL1   C24  432   4.535   0.866   4.357  0.5288 -0.9851  0.9619
    6CHL1  H24A  433   4.558   0.761   4.329 -1.0204 -0.9253 -0.6837
    6CHL1  H24B  434   4.426   0.861   4.341  0.7479  1.4009 -2.3973
    6CHL1   C25  435   4.603   0.956   4.247 -0.1319  0.7727  0.0162
    6CHL1   H25  436   4.586   1.062   4.277 -0.2658  0.3325  1.5865
    6CHL1   C26  437   4.754   0.932   4.236 -0.9151 -0.1969  0.0700
    6CHL1  H26A  438   4.780   1.025   4.181 -0.7573  0.6267  1.4789
    6CHL1  H26B  439   4.817   0.934   4.327 -1.1607  2.0133  0.2557
    6CHL1  H26C  440   4.776   0.841   4.176  1.8109  1.6294 -1.9639
    6CHL1   C27  441   4.534   0.924   4.115 -0.0702  0.1701  0.8305
    6CHL1  H27A  442   4.425   0.910   4.130 -0.1974  0.2361  0.0183
    6CHL1  H27B  443   4.547   1.002   4.037 -0.2090 -0.5557  0.0728
    6CHL1  H27C  444   4.574   0.831   4.070  0.0761  0.7423 -0.2518
    7CHL1    C3  445   6.680   1.489   6.228 -0.5615 -0.0423 -0.2094
    7CHL1    H3  446   6.624   1.405   6.180 -0.1346 -1.8863  2.3132
    7CHL1    O3  447   6.604   1.512   6.345  0.3884 -0.0983  0.0875
    7CHL1   H3'  448   6.661   1.533   6.420 -1.7547  3.6609  0.9461
    7CHL1    C4  449   6.831   1.448   6.256 -0.5952 -0.7522 -0.1850
    7CHL1   H4A  450   6.870   1.539   6.305 -1.4679  0.5118 -1.7500
    7CHL1   H4B  451   6.840   1.368   6.333  4.7884  0.0288  0.3721
    7CHL1    C5  452   6.903   1.416   6.124 -0.1521  0.5795  0.1232
    7CHL1    C6  453   6.963   1.296   6.102 -0.5682 -0.3700 -0.6233
    7CHL1    H6  454   6.947   1.214   6.174  0.4093 -0.4227 -0.4514
    7CHL1    C7  455   7.046   1.263   5.985  0.2548 -0.0171 -0.1239
    7CHL1   H7A  456   7.143   1.230   6.027  0.0024  0.3423  0.7635
    7CHL1   H7B  457   7.002   1.186   5.918  0.8025 -0.5264  0.0934
    7CHL1    C8  458   7.074   1.393   5.902 -0.1764  0.3393  0.9590
    7CHL1    H8  459   7.157   1.445   5.953  0.5823  0.7229 -0.5819
    7CHL1   C14  460   7.130   1.342   5.764 -0.2953  0.6232 -0.0640
    7CHL1   H14  461   7.046   1.282   5.722  2.1981 -3.2012 -0.0964
    7CHL1   C15  462   7.251   1.252   5.763  0.3143 -0.2880  0.0759
    7CHL1  H15A  463   7.322   1.292   5.838  1.3985 -1.2163 -0.4304
    7CHL1  H15B  464   7.227   1.147   5.790 -0.9303  0.5995  2.8285
    7CHL1   C16  465   7.299   1.267   5.616 -0.1532  0.0165  0.0802
    7CHL1  H16A  466   7.409   1.282   5.614 -0.1052 -0.3654 -0.1820
    7CHL1  H16B  467   7.268   1.176   5.560  1.7033  0.9353 -2.6231
    7CHL1   C17  468   7.227   1.389   5.554 -0.3845  0.2777 -0.7664
    7CHL1   H17  469   7.136   1.349   5.505 -0.3076 -0.2246 -0.5048
    7CHL1   C13  470   7.162   1.465   5.670 -0.4695  0.3292  0.0259
    7CHL1   C18  471   7.274   1.547   5.739  0.1107 -0.3406  0.0079
    7CHL1  H18A  472   7.319   1.618   5.666 -0.3957 -0.0524 -0.0261
    7CHL1  H18B  473   7.242   1.594   5.834  3.3318  0.0200  1.0327
    7CHL1  H18C  474   7.362   1.488   5.773  1.9192  2.7443  1.0305
    7CHL1   C12  475   7.032   1.542   5.640 -0.4135  0.1574 -0.5641
    7CHL1  H12A  476   7.049   1.631   5.577  3.3503 -0.3734 -0.5461
    7CHL1  H12B  477   6.966   1.471   5.585  0.0379 -0.9972  0.3346
    7CHL1   C11  478   6.961   1.590   5.769 -0.8198  0.1913 -0.1742
    7CHL1  H11A  479   7.033   1.665   5.810 -0.2459 -1.4154  1.9242
    7CHL1  H11B  480   6.867   1.639   5.734 -0.6108  0.1048 -0.8627
    7CHL1    C9  481   6.943   1.479   5.879  0.0525  0.0547 -0.5482
    7CHL1    H9  482   6.866   1.413   5.834  0.7072  2.0364 -5.1680
    7CHL1   C10  483   6.896   1.532   6.023 -0.0912  0.5624  0.2523
    7CHL1   C19  484   6.987   1.650   6.072  0.4700  0.1315 -0.0285
    7CHL1  H19A  485   6.959   1.692   6.171  2.4700 -0.5165  0.8624
    7CHL1  H19B  486   7.093   1.620   6.084  0.1984 -0.3860  1.2695
    7CHL1  H19C  487   6.985   1.738   6.004  2.1617  1.7173  1.8592
    7CHL1    C1  488   6.750   1.584   6.006 -0.0627  0.1979  0.1174
    7CHL1   H1A  489   6.773   1.672   5.942 -3.0953  1.4022  0.5061
    7CHL1   H1B  490   6.693   1.513   5.942  1.6068 -0.4796 -0.6867
    7CHL1    C2  491   6.673   1.609   6.136 -0.2906  0.5797  0.1159
    7CHL1   H2A  492   6.575   1.629   6.087  0.1063 -0.0073 -0.9539
    7CHL1   H2B  493   6.718   1.701   6.179  0.3133  0.9977 -1.3189
    7CHL1   C20  494   7.296   1.470   5.434  0.2723 -0.0869 -0.3965
    7CHL1   H20  495   7.374   1.522   5.494 -0.4437 -0.4441  0.8883
    7CHL1   C21  496   7.195   1.569   5.357 -0.0909 -0.2649 -0.4913
    7CHL1  H21A  497   7.256   1.614   5.276  0.4484  0.2147  0.1735
    7CHL1  H21B  498   7.183   1.657   5.424 -0.8688 -0.4807 -0.3373
    7CHL1  H21C  499   7.103   1.519   5.318 -0.3917 -0.7851  0.8409
    7CHL1   C22  500   7.361   1.377   5.325 -0.2131 -0.1512 -0.4681
    7CHL1  H22A  501   7.416   1.434   5.247  1.5106 -0.9440  0.1283
    7CHL1  H22B  502   7.445   1.327   5.378 -1.1202 -1.6274 -0.3946
    7CHL1   C23  503   7.268   1.279   5.252 -0.0272  0.2335 -0.0668
    7CHL1  H23A  504   7.212   1.219   5.327  1.7209 -1.9700 -0.4108
    7CHL1  H23B  505   7.196   1.332   5.187 -0.4814  2.7457  2.3040
    7CHL1   C24  506   7.340   1.167   5.182  0.2591 -0.1217 -0.6969
    7CHL1  H24A  507   7.407   1.117   5.254 -0.6344 -1.1384 -0.5455
    7CHL1  H24B  508   7.267   1.094   5.141  0.2461 -0.5841  0.1240
    7CHL1   C25  509   7.436   1.199   5.067 -0.6712  0.0452  0.3079
    7CHL1   H25  510   7.519   1.267   5.095 -1.3169  0.3436  1.5889
    7CHL1   C26  511   7.497   1.067   5.012 -0.6087  0.0064  0.5107
    7CHL1  H26A  512   7.572   1.081   4.930 -1.1929  0.6124  0.0672
    7CHL1  H26B  513   7.550   0.997   5.080  2.1666  2.0775  0.6871
    7CHL1  H26C  514   7.411   1.016   4.965  0.1880 -1.0688  0.1736
    7CHL1   C27  515   7.358   1.276   4.958 -0.5543  0.2388  0.7078
    7CHL1  H27A  516   7.428   1.279   4.872 -0.8859  4.1903  0.3909
    7CHL1  H27B  517   7.277   1.215   4.912 -1.7975  3.2443 -1.3743
    7CHL1  H27C  518   7.330   1.378   4.989  0.3454  0.6098  0.3313
    8CHL1    C3  519   2.898   1.843   5.803  0.3651  0.2896  0.3173
    8CHL1    H3  520   2.989   1.904   5.784  0.7937  0.6412  3.0364
    8CHL1    O3  521   2.905   1.803   5.940  0.0948 -0.8110 -0.6055
    8CHL1   H3'  522   2.820   1.760   5.951 -0.8861  1.0089 -0.5705
    8CHL1    C4  523   2.769   1.918   5.768 -0.5772 -0.3250  0.1186
    8CHL1   H4A  524   2.680   1.858   5.798 -0.2197 -0.0224  1.9149
    8CHL1   H4B  525   2.763   2.006   5.836  0.0404 -0.5173  0.4297
    8CHL1    C5  526   2.763   1.953   5.623 -0.1834  0.0146 -0.9646
    8CHL1    C6  527   2.751   2.080   5.583 -0.4530 -0.3254 -0.4829
    8CHL1    H6  528   2.748   2.153   5.665  0.2348 -2.3652  1.4905
    8CHL1    C7  529   2.726   2.121   5.440  0.1448 -0.4343  0.1163
    8CHL1   H7A  530   2.628   2.173   5.431  0.4847 -0.0213 -1.3740
    8CHL1   H7B  531   2.802   2.184   5.390 -2.1136  0.6667 -2.1971
    8CHL1    C8  532   2.715   1.998   5.349 -0.6301 -0.0054  0.6651
    8CHL1    H8  533   2.616   1.950   5.362 -0.4092 -0.6205  0.1023
    8CHL1   C14  534   2.745   2.037   5.206  0.4136 -0.2775  0.3825
    8CHL1   H14  535   2.854   2.056   5.192  0.9053 -2.7386  0.5627
    8CHL1   C15  536   2.677   2.163   5.151  0.0111  0.0193 -0.2451
    8CHL1  H15A  537   2.567   2.150   5.159 -0.3220  1.8974 -1.0620
    8CHL1  H15B  538   2.707   2.259   5.197  0.8822 -0.1660 -0.4127
    8CHL1   C16  539   2.706   2.155   5.003 -0.7405  0.0033 -0.8465
    8CHL1  H16A  540   2.614   2.169   4.941  0.0444 -0.5304 -2.1788
    8CHL1  H16B  541   2.782   2.234   4.984 -0.2184 -0.6633 -1.6003
    8CHL1   C17  542   2.756   2.012   4.972  0.1643 -0.3691  0.2939
    8CHL1   H17  543   2.867   2.014   4.969  0.2416 -2.6956  0.0798
    8CHL1   C13  544   2.724   1.926   5.098 -0.1684 -0.3341 -0.9324
    8CHL1   C18  545   2.575   1.890   5.099  0.4521  0.3945  0.5108
    8CHL1  H18A  546   2.505   1.961   5.050 -1.1097 -2.2245 -1.3709
    8CHL1  H18B  547   2.565   1.797   5.039 -0.8531  0.2478  0.9239
    8CHL1  H18C  548   2.542   1.866   5.202 -2.4704  0.3940 -0.3163
    8CHL1   C12  549   2.824   1.812   5.140  0.4112 -0.0436  0.2254
    8CHL1  H12A  550   2.819   1.721   5.075  1.4717 -0.7552  1.1014
    8CHL1  H12B  551   2.931   1.840   5.126 -0.0392  1.2848 -0.7397
    8CHL1   C11  552   2.803   1.770   5.285  0.4961 -0.1913  0.3346
    8CHL1  H11A  553   2.698   1.733   5.286 -0.5781  2.4864 -1.7487
    8CHL1  H11B  554   2.870   1.682   5.294 -0.0903 -1.0719 -2.6536
    8CHL1    C9  555   2.806   1.878   5.382  0.6411  0.0706 -0.1682
    8CHL1    H9  556   2.912   1.914   5.381  0.8316 -0.4683  0.3156
    8CHL1   C10  557   2.781   1.836   5.529 -0.5247 -0.0107  0.1507
    8CHL1   C19  558   2.647   1.757   5.544 -0.3634  0.3579  0.0789
    8CHL1  H19A  559   2.557   1.821   5.537 -1.1698 -0.6838  0.6510
    8CHL1  H19B  560   2.642   1.677   5.467  1.5298  2.1838 -2.0920
    8CHL1  H19C  561   2.641   1.714   5.647 -1.6888  0.2443 -0.0285
    8CHL1    C1  562   2.907   1.740   5.568 -0.2427  0.0187 -0.3728
    8CHL1   H1A  563   2.910   1.653   5.500  1.0072  0.5687 -1.0442
    8CHL1   H1B  564   2.998   1.799   5.548  2.0311 -2.7686  1.0401
    8CHL1    C2  565   2.901   1.712   5.720 -0.3255  0.1110 -0.2194
    8CHL1   H2A  566   2.989   1.657   5.760  0.8731  1.1052 -1.3859
    8CHL1   H2B  567   2.817   1.642   5.736  0.8752 -1.1490  0.8869
    8CHL1   C20  568   2.712   1.955   4.828  0.5814 -0.4730 -0.3458
    8CHL1   H20  569   2.602   1.944   4.816  0.6453 -2.7874  0.6158
    8CHL1   C21  570   2.774   1.821   4.807 -0.1309  0.1982 -0.6365
    8CHL1  H21A  571   2.880   1.822   4.839  0.0008  0.4945 -1.0761
    8CHL1  H21B  572   2.770   1.773   4.707 -0.4848  0.5098 -0.7742
    8CHL1  H21C  573   2.718   1.750   4.872  0.8904  0.6187  0.7700
    8CHL1   C22  574   2.741   2.046   4.713 -0.6730  0.6416 -0.1177
    8CHL1  H22A  575   2.710   2.002   4.616 -0.1071 -0.0201 -0.0124
    8CHL1  H22B  576   2.677   2.137   4.714 -1.9107 -0.1963 -0.7885
    8CHL1   C23  577   2.889   2.098   4.711  0.9589  0.4441 -0.4712
    8CHL1  H23A  578   2.902   2.169   4.795  2.0030 -1.5438  1.1179
    8CHL1  H23B  579   2.964   2.020   4.732  0.3007  0.3085  1.5553
    8CHL1   C24  580   2.923   2.173   4.577 -0.3328 -0.1097  0.1618
    8CHL1  H24A  581   3.030   2.197   4.558 -0.8322  0.3499 -2.4761
    8CHL1  H24B  582   2.909   2.110   4.488  0.6240 -2.0356  1.3168
    8CHL1   C25  583   2.853   2.310   4.554 -0.3684  0.0197  0.7703
    8CHL1   H25  584   2.747   2.296   4.584 -0.7896  1.0505 -0.1541
    8CHL1   C26  585   2.905   2.427   4.632 -0.8176  0.3888  0.3353
    8CHL1  H26A  586   2.920   2.403   4.739 -0.3866  0.6810  0.3408
    8CHL1  H26B  587   2.997   2.458   4.578 -1.6548  0.3584 -1.1654
    8CHL1  H26C  588   2.841   2.517   4.622  0.4448  1.5505  2.0575
    8CHL1   C27  589   2.851   2.345   4.399  0.0334  0.1163 -0.1063
    8CHL1  H27A  590   2.943   2.381   4.348 -0.1832  1.3119  0.3156
    8CHL1  H27B  591   2.804   2.258   4.348  0.9277  0.3792 -1.4329
    8CHL1  H27C  592   2.788   2.436   4.390 -1.1706 -0.5949  0.8570
    9CHL1    C3  593   6.621   0.875   6.173 -0.6190 -0.2104  0.1903
    9CHL1    H3  594   6.723   0.903   6.208 -0.6843  0.5611 -0.2185
    9CHL1    O3  595   6.544   0.848   6.291  0.0058 -0.3621 -0.0701
    9CHL1   H3'  596   6.528   0.934   6.331  1.2499  0.3573 -1.0105
    9CHL1    C4  597   6.553   0.984   6.092  0.6572 -0.0684  0.2995
    9CHL1   H4A  598   6.447   0.952   6.082  0.0005  0.6687  3.8156
    9CHL1   H4B  599   6.552   1.070   6.162  1.4810  0.1044  0.1080
    9CHL1    C5  600   6.609   1.012   5.955  0.0331  0.3846 -0.6635
    9CHL1    C6  601   6.640   1.135   5.917  0.3283  0.3450  1.3260
    9CHL1    H6  602   6.624   1.220   5.985  0.5796  0.3735  1.3485
    9CHL1    C7  603   6.680   1.165   5.773 -0.1338  0.1535  0.2550
    9CHL1   H7A  604   6.615   1.246   5.733  1.3451  0.4509 -1.7170
    9CHL1   H7B  605   6.784   1.205   5.776 -0.1403  0.4212 -1.7485
    9CHL1    C8  606   6.672   1.048   5.670 -0.0502 -0.2740  0.3963
    9CHL1    H8  607   6.564   1.043   5.646  0.5887 -3.9419 -2.7225
    9CHL1   C14  608   6.764   1.065   5.548 -0.1972 -0.9371 -0.5060
    9CHL1   H14  609   6.870   1.071   5.582  0.4069 -0.2592 -2.3756
    9CHL1   C15  610   6.745   1.196   5.458 -0.1011  0.1471 -0.2494
    9CHL1  H15A  611   6.639   1.215   5.432 -0.0955  0.8243  0.1944
    9CHL1  H15B  612   6.786   1.286   5.510 -0.8700 -0.4259  1.4148
    9CHL1   C16  613   6.822   1.153   5.333  0.3045  0.2943 -0.3466
    9CHL1  H16A  614   6.769   1.189   5.242 -2.0055  0.8083  1.1078
    9CHL1  H16B  615   6.919   1.207   5.325 -0.1565  1.4465  1.2536
    9CHL1   C17  616   6.845   0.994   5.336 -0.5179 -0.2235  0.6547
    9CHL1   H17  617   6.949   0.988   5.374 -0.6522  0.8576  1.2128
    9CHL1   C13  618   6.758   0.947   5.450 -0.4141 -0.1853 -0.4461
    9CHL1   C18  619   6.610   0.931   5.398 -0.4284  0.1915 -0.6583
    9CHL1  H18A  620   6.572   1.024   5.351 -0.5193 -0.7165 -2.4803
    9CHL1  H18B  621   6.611   0.846   5.326  2.0219 -1.1516  0.8115
    9CHL1  H18C  622   6.544   0.903   5.482  0.7433  0.5713  0.4202
    9CHL1   C12  623   6.801   0.821   5.517  0.0898 -0.3425 -0.1925
    9CHL1  H12A  624   6.791   0.729   5.455 -1.3453 -1.5464  1.7067
    9CHL1  H12B  625   6.906   0.836   5.551 -0.3449 -1.2456  1.7143
    9CHL1   C11  626   6.717   0.790   5.642  0.1153  0.4837  0.1901
    9CHL1  H11A  627   6.616   0.751   5.621  0.9772 -2.0096  0.3449
    9CHL1  H11B  628   6.774   0.711   5.696 -1.0186 -1.3649 -1.2200
    9CHL1    C9  629   6.705   0.913   5.741  0.6645 -0.0001 -0.0266
    9CHL1    H9  630   6.807   0.927   5.783  1.0706 -2.7970  0.0522
    9CHL1   C10  631   6.618   0.884   5.866 -0.2326 -0.0905  0.0467
    9CHL1   C19  632   6.481   0.842   5.824 -0.5511  0.1974 -0.4283
    9CHL1  H19A  633   6.438   0.909   5.746 -2.6365 -1.9186 -1.2392
    9CHL1  H19B  634   6.480   0.739   5.780  1.5664  0.1781 -0.5033
    9CHL1  H19C  635   6.401   0.846   5.901 -0.1207  0.9650 -0.0102
    9CHL1    C1  636   6.687   0.764   5.946 -0.0729  0.0673 -0.1774
    9CHL1   H1A  637   6.657   0.675   5.886  0.5540 -0.7383  0.6741
    9CHL1   H1B  638   6.797   0.780   5.951 -0.2228  0.7348  2.4078
    9CHL1    C2  639   6.638   0.742   6.097  0.6534  0.2530 -0.0067
    9CHL1   H2A  640   6.698   0.658   6.139  0.0317 -0.6087 -0.8021
    9CHL1   H2B  641   6.535   0.700   6.089  0.5162  0.5084  0.4070
    9CHL1   C20  642   6.854   0.935   5.200  0.8042  0.2915  0.7241
    9CHL1   H20  643   6.758   0.948   5.146  0.0691  1.7535  2.2707
    9CHL1   C21  644   6.884   0.788   5.206 -0.0075  0.1101  0.0703
    9CHL1  H21A  645   6.900   0.738   5.108 -0.0620 -1.5402  0.8568
    9CHL1  H21B  646   6.806   0.718   5.243  0.7914  0.2501  2.1521
    9CHL1  H21C  647   6.984   0.768   5.252 -0.7441  0.8039  2.0647
    9CHL1   C22  648   6.967   0.998   5.111  0.2898 -0.8963  0.1201
    9CHL1  H22A  649   6.952   1.108   5.124 -1.1650 -1.0156 -0.3898
    9CHL1  H22B  650   7.068   0.968   5.144  0.9682  3.2735  2.5773
    9CHL1   C23  651   6.940   0.968   4.963  0.7734 -0.6963 -0.1376
    9CHL1  H23A  652   6.961   0.863   4.932  0.6254 -0.7081 -0.1996
    9CHL1  H23B  653   6.830   0.980   4.948 -0.0834 -2.2603  3.6852
    9CHL1   C24  654   7.010   1.064   4.864 -0.1354 -0.1190  0.1152
    9CHL1  H24A  655   7.002   1.171   4.892 -0.8834  0.0356 -0.6475
    9CHL1  H24B  656   7.116   1.032   4.875 -0.3135 -0.4010  1.1326
    9CHL1   C25  657   6.976   1.036   4.715 -0.0840  0.0923 -0.6813
    9CHL1   H25  658   6.996   0.928   4.699 -0.8919  0.1866 -2.5385
    9CHL1   C26  659   6.833   1.057   4.673 -0.6211 -0.2527 -0.9680
    9CHL1  H26A  660   6.825   1.040   4.564 -0.6499 -0.7238 -0.8946
    9CHL1  H26B  661   6.760   0.988   4.720 -1.4119  0.8920 -0.4620
    9CHL1  H26C  662   6.796   1.160   4.692 -0.2095 -0.1930 -0.4592
    9CHL1   C27  663   7.067   1.102   4.628 -0.4918 -0.1237 -0.0462
    9CHL1  H27A  664   7.173   1.072   4.636 -1.3560 -3.5418  0.2859
    9CHL1  H27B  665   7.044   1.089   4.520 -2.6354  0.8218  0.2408
    9CHL1  H27C  666   7.061   1.213   4.637  1.7959 -0.0658  1.6442
   10CHL1    C3  667   1.640   2.606   5.871  0.4895  0.5530  0.3048
   10CHL1    H3  668   1.580   2.694   5.840  0.1999  0.4012  0.4340
   10CHL1    O3  669   1.624   2.578   6.009  0.0773  0.0461  0.7120
   10CHL1   H3'  670   1.696   2.517   6.025  1.7303  1.2500 -1.5664
   10CHL1    C4  671   1.605   2.483   5.781 -0.3905  0.2274 -0.2808
   10CHL1   H4A  672   1.669   2.400   5.820 -1.5743 -0.4287  0.3197
   10CHL1   H4B  673   1.497   2.461   5.790 -0.7617  2.1339  0.4273
   10CHL1    C5  674   1.630   2.504   5.633 -0.8900  0.3138  0.6564
   10CHL1    C6  675   1.535   2.490   5.543 -0.4490  0.2231  0.1530
   10CHL1    H6  676   1.440   2.442   5.570  0.2672 -1.2680  0.1174
   10CHL1    C7  677   1.558   2.528   5.397 -0.7745  0.0827 -0.4038
   10CHL1   H7A  678   1.511   2.442   5.343  0.8168 -2.5794  2.1538
   10CHL1   H7B  679   1.499   2.618   5.373 -1.1333 -0.9864 -4.2717
   10CHL1    C8  680   1.707   2.520   5.365 -0.3348 -0.6671 -0.1866
   10CHL1    H8  681   1.739   2.414   5.373 -2.0536 -1.1079  1.6138
   10CHL1   C14  682   1.727   2.572   5.227  0.1433 -0.4141 -0.1292
   10CHL1   H14  683   1.693   2.677   5.242 -0.4279 -0.7464  1.0409
   10CHL1   C15  684   1.649   2.511   5.114 -0.7608  0.4023  0.3531
   10CHL1  H15A  685   1.653   2.400   5.126  0.7595  0.4634  0.5530
   10CHL1  H15B  686   1.545   2.549   5.118 -1.2478 -0.5336 -1.6000
   10CHL1   C16  687   1.723   2.554   4.987 -0.1231 -0.2714  0.7929
   10CHL1  H16A  688   1.740   2.470   4.916  0.7731  1.3854 -1.0781
   10CHL1  H16B  689   1.678   2.641   4.936  0.5212 -1.4159 -1.9252
   10CHL1   C17  690   1.857   2.618   5.030 -0.2282 -0.4326 -0.3996
   10CHL1   H17  691   1.843   2.728   5.033  0.6014 -0.3198 -0.5287
   10CHL1   C13  692   1.867   2.572   5.176 -0.8177 -0.2977  0.2989
   10CHL1   C18  693   1.932   2.422   5.176  0.2442  0.2635  0.3056
   10CHL1  H18A  694   2.041   2.420   5.154  0.4180 -0.7490  1.1644
   10CHL1  H18B  695   1.918   2.377   5.277  0.5288  0.3328  0.3777
   10CHL1  H18C  696   1.879   2.361   5.100  0.2880  0.1631  0.3562
   10CHL1   C12  697   1.941   2.672   5.268 -0.3988  0.4404 -0.3333
   10CHL1  H12A  698   2.043   2.682   5.225 -1.6419 -0.2913 -3.8144
   10CHL1  H12B  699   1.896   2.771   5.250 -0.0706  0.0117 -4.4228
   10CHL1   C11  700   1.936   2.626   5.414 -0.2921  0.5380  0.1152
   10CHL1  H11A  701   1.997   2.533   5.420 -0.4255  0.3902 -0.6242
   10CHL1  H11B  702   1.977   2.700   5.485 -0.1066  0.0333  0.5408
   10CHL1    C9  703   1.788   2.605   5.459  0.3596 -0.1539  0.0203
   10CHL1    H9  704   1.742   2.706   5.452 -0.6696 -0.6733 -1.1717
   10CHL1   C10  705   1.774   2.567   5.604 -0.3184 -0.6485  0.6066
   10CHL1   C19  706   1.879   2.452   5.631  0.7596 -0.0882 -1.0236
   10CHL1  H19A  707   1.877   2.371   5.555  0.8189 -1.4684  0.3804
   10CHL1  H19B  708   1.978   2.501   5.627  0.7220  0.0468 -0.4016
   10CHL1  H19C  709   1.863   2.410   5.733 -0.4202 -0.1904 -1.2390
   10CHL1    C1  710   1.803   2.688   5.707  0.0081  0.6110  0.2228
   10CHL1   H1A  711   1.900   2.742   5.700 -0.5230  1.7017  1.0096
   10CHL1   H1B  712   1.730   2.765   5.673  1.6545  1.3541 -1.8480
   10CHL1    C2  713   1.784   2.651   5.851 -0.1631 -0.8618 -0.2322
   10CHL1   H2A  714   1.818   2.740   5.909 -1.5491  0.9085 -2.0126
   10CHL1   H2B  715   1.867   2.579   5.870 -0.6949 -1.5017 -0.3021
   10CHL1   C20  716   1.984   2.593   4.943 -0.1769  0.9519  0.2788
   10CHL1   H20  717   2.023   2.490   4.949 -0.8186  0.7666  3.5814
   10CHL1   C21  718   2.093   2.698   4.976 -0.4324  0.1961 -0.7172
   10CHL1  H21A  719   2.157   2.642   5.047 -0.2037  1.1661 -0.1383
   10CHL1  H21B  720   2.061   2.798   5.011  4.5666  2.0228 -0.5814
   10CHL1  H21C  721   2.147   2.724   4.882 -0.5624  2.2833 -0.2603
   10CHL1   C22  722   1.944   2.616   4.797  0.2384  1.2278  0.5901
   10CHL1  H22A  723   1.862   2.546   4.770  1.5150  0.5147 -1.7653
   10CHL1  H22B  724   1.905   2.719   4.784  0.5123  1.2289 -0.3512
   10CHL1   C23  725   2.050   2.579   4.690 -0.4056 -0.1069 -0.4094
   10CHL1  H23A  726   2.118   2.666   4.674 -2.3672  1.3074 -1.6142
   10CHL1  H23B  727   2.111   2.499   4.736 -1.3995 -1.4712 -1.3780
   10CHL1   C24  728   1.990   2.528   4.561 -0.3207 -0.3012 -0.8231
   10CHL1  H24A  729   1.914   2.453   4.592  0.1158 -0.5018 -0.2070
   10CHL1  H24B  730   1.931   2.606   4.508  0.9789  1.5660  0.3424
   10CHL1   C25  731   2.096   2.458   4.473 -1.0362 -0.9046  0.1884
   10CHL1   H25  732   2.150   2.390   4.543  1.1239 -0.2404 -0.7547
   10CHL1   C26  733   2.049   2.364   4.358  0.3084  0.3532 -0.6118
   10CHL1  H26A  734   1.976   2.414   4.291 -0.9504 -1.4543 -0.6450
   10CHL1  H26B  735   2.139   2.327   4.304  1.0085  0.4915  0.4149
   10CHL1  H26C  736   1.991   2.282   4.406  2.3080 -1.4466 -1.1305
   10CHL1   C27  737   2.193   2.558   4.420 -0.2650 -0.0389  0.0799
   10CHL1  H27A  738   2.238   2.634   4.489  1.4605  2.0492 -3.0884
   10CHL1  H27B  739   2.275   2.502   4.371 -1.2099 -0.5728 -0.9178
   10CHL1  H27C  740   2.154   2.626   4.342 -1.0627 -0.4487  0.1207
   11CHL1    C3  741   4.328   0.348   5.392 -0.2412  0.9743 -0.2779
   11CHL1    H3  742   4.407   0.426   5.398 -0.7111  1.6064 -1.8677
   11CHL1    O3  743   4.307   0.306   5.529  0.4733 -0.4267 -0.0832
   11CHL1   H3'  744   4.330   0.379   5.588 -4.1852 -1.2826  3.3878
   11CHL1    C4  745   4.204   0.409   5.330 -0.0543 -1.0380  0.3793
   11CHL1   H4A  746   4.115   0.350   5.359  0.0228 -1.5767 -0.4430
   11CHL1   H4B  747   4.193   0.502   5.389 -0.9030 -1.0038  0.1734
   11CHL1    C5  748   4.215   0.434   5.172  0.0532  0.2313 -0.4177
   11CHL1    C6  749   4.190   0.552   5.120 -0.3484  0.4923  0.1914
   11CHL1    H6  750   4.171   0.639   5.184  0.4211  0.9701 -0.2211
   11CHL1    C7  751   4.184   0.572   4.965  0.2455  0.0577  0.0444
   11CHL1   H7A  752   4.091   0.621   4.929  0.1774  1.8257  2.3948
   11CHL1   H7B  753   4.264   0.644   4.938 -0.6083  1.0074 -0.0320
   11CHL1    C8  754   4.197   0.438   4.886 -0.0164 -0.0238 -0.0431
   11CHL1    H8  755   4.097   0.396   4.909 -0.3731  1.9139  2.3429
   11CHL1   C14  756   4.221   0.465   4.739  0.0180 -0.0628 -0.3051
   11CHL1   H14  757   4.317   0.521   4.743 -0.0646  0.0820  3.3496
   11CHL1   C15  758   4.116   0.552   4.659 -0.0630 -0.2509  0.2410
   11CHL1  H15A  759   4.013   0.520   4.685  0.2540 -0.9719  0.6391
   11CHL1  H15B  760   4.121   0.659   4.690 -0.8214  0.3144 -1.5161
   11CHL1   C16  761   4.154   0.525   4.510 -0.5479  0.1429  0.6854
   11CHL1  H16A  762   4.070   0.480   4.453 -0.6133 -2.5422  2.7356
   11CHL1  H16B  763   4.187   0.618   4.459 -0.3074 -1.3982 -2.1793
   11CHL1   C17  764   4.274   0.423   4.522  0.6378 -0.5827  0.4325
   11CHL1   H17  765   4.362   0.491   4.524 -1.4560  2.5906 -2.4891
   11CHL1   C13  766   4.249   0.344   4.649  0.0824 -0.6582  0.7247
   11CHL1   C18  767   4.125   0.254   4.632  0.2224 -0.9684 -0.6677
   11CHL1  H18A  768   4.050   0.319   4.581  1.2555 -0.5269 -1.6621
   11CHL1  H18B  769   4.133   0.163   4.569 -0.6773 -0.2320 -1.8986
   11CHL1  H18C  770   4.075   0.229   4.728  0.7450  0.0101 -0.1283
   11CHL1   C12  771   4.370   0.270   4.710 -0.1690  0.2362 -0.8345
   11CHL1  H12A  772   4.403   0.178   4.655  2.9903  0.3314  0.6431
   11CHL1  H12B  773   4.465   0.328   4.713  0.5099 -0.8549 -0.4826
   11CHL1   C11  774   4.342   0.229   4.860  0.4233  0.0448  0.0792
   11CHL1  H11A  775   4.269   0.145   4.866 -0.6524  0.9123 -0.4209
   11CHL1  H11B  776   4.438   0.179   4.885 -0.1691 -1.3093 -0.2680
   11CHL1    C9  777   4.303   0.343   4.950 -0.2418  0.5695 -0.1025
   11CHL1    H9  778   4.396   0.404   4.954  1.1924 -1.5782  2.8789
   11CHL1   C10  779   4.264   0.307   5.094  0.5931 -0.3014 -0.1319
   11CHL1   C19  780   4.149   0.202   5.099  0.1564  0.0609 -0.6206
   11CHL1  H19A  781   4.060   0.240   5.043  0.1784  0.3624 -0.4487
   11CHL1  H19B  782   4.193   0.106   5.064 -0.8688 -0.7104  0.1485
   11CHL1  H19C  783   4.125   0.188   5.206 -0.4475  0.0936 -0.7467
   11CHL1    C1  784   4.389   0.255   5.164  0.0381 -0.2923 -0.6019
   11CHL1   H1A  785   4.421   0.163   5.110  1.4288  1.0890 -2.2432
   11CHL1   H1B  786   4.474   0.323   5.145 -0.6850  0.1725 -2.4748
   11CHL1    C2  787   4.378   0.222   5.316  0.0003 -0.4784 -0.0080
   11CHL1   H2A  788   4.468   0.176   5.361  0.0295 -0.6194 -0.2076
   11CHL1   H2B  789   4.296   0.146   5.322 -1.0037  0.5223 -0.6355
   11CHL1   C20  790   4.292   0.333   4.388 -0.1842 -0.5406  0.1292
   11CHL1   H20  791   4.221   0.247   4.390 -0.4246 -0.3892 -1.1178
   11CHL1   C21  792   4.438   0.271   4.374  0.7826  0.0771  0.2598
   11CHL1  H21A  793   4.473   0.213   4.462  1.5322  0.5962  0.3169
   11CHL1  H21B  794   4.514   0.352   4.368  1.0974 -0.2526 -0.3243
   11CHL1  H21C  795   4.440   0.206   4.284 -2.4845 -2.6980  1.9486
   11CHL1   C22  796   4.252   0.410   4.259  0.0904 -0.4649  0.6891
   11CHL1  H22A  797   4.145   0.441   4.257  0.5294  1.3371 -2.6151
   11CHL1  H22B  798   4.326   0.492   4.252  1.6032 -1.9120 -1.8936
   11CHL1   C23  799   4.262   0.335   4.124  0.1821  0.3823 -0.2605
   11CHL1  H23A  800   4.365   0.297   4.104  0.1418  0.1890 -0.0989
   11CHL1  H23B  801   4.188   0.252   4.116 -0.1168  0.5874  0.3826
   11CHL1   C24  802   4.237   0.435   4.006  0.6419  0.0648 -0.1740
   11CHL1  H24A  803   4.127   0.455   4.007  0.3526 -1.3805 -0.2136
   11CHL1  H24B  804   4.293   0.530   4.019  0.7299  0.1426 -1.0680
   11CHL1   C25  805   4.290   0.385   3.864  0.0376  0.2986 -0.0657
   11CHL1   H25  806   4.397   0.362   3.883  0.1221  1.5636  1.1386
   11CHL1   C26  807   4.200   0.270   3.823 -0.5871 -0.6371 -0.0999
   11CHL1  H26A  808   4.235   0.232   3.724 -0.9481 -0.5926 -0.2462
   11CHL1  H26B  809   4.220   0.186   3.892  1.0595 -1.0097 -0.9618
   11CHL1  H26C  810   4.092   0.297   3.819 -0.3575  0.2394 -0.8407
   11CHL1   C27  811   4.276   0.501   3.766 -0.5645  0.5691 -0.8210
   11CHL1  H27A  812   4.347   0.578   3.803 -0.1427 -0.0637 -0.2900
   11CHL1  H27B  813   4.317   0.469   3.668  4.8676 -1.2312  1.6777
   11CHL1  H27C  814   4.170   0.534   3.762 -1.6399 -2.6802 -3.1470
   12CHL1    C3  815   5.355   5.344   6.140  0.3911  0.4500 -0.1388
   12CHL1    H3  816   5.303   5.439   6.115 -1.6373 -1.0969 -2.2190
   12CHL1    O3  817   5.349   5.315   6.271  0.9899 -0.1755 -0.5403
   12CHL1   H3'  818   5.374   5.223   6.278  1.6610  0.0592  0.3067
   12CHL1    C4  819   5.299   5.224   6.065 -0.3108  0.3530  0.2505
   12CHL1   H4A  820   5.341   5.126   6.098 -0.6577  0.7704  1.9720
   12CHL1   H4B  821   5.194   5.211   6.098  0.2961 -2.1906  1.4223
   12CHL1    C5  822   5.320   5.236   5.910  0.7272  0.0067  0.0617
   12CHL1    C6  823   5.212   5.229   5.829 -0.4461  0.1853  0.4815
   12CHL1    H6  824   5.115   5.201   5.874  0.4946  0.0174  2.5329
   12CHL1    C7  825   5.232   5.229   5.681 -0.1223  0.1090 -0.1232
   12CHL1   H7A  826   5.165   5.156   5.631  1.8649 -2.8531  1.2401
   12CHL1   H7B  827   5.200   5.330   5.647  1.8951  1.1277  0.8030
   12CHL1    C8  828   5.376   5.207   5.631  0.0263  0.3315  0.4263
   12CHL1    H8  829   5.391   5.098   5.649 -0.9869 -0.1343 -1.2871
   12CHL1   C14  830   5.375   5.246   5.492  0.4426 -0.0280  0.2995
   12CHL1   H14  831   5.340   5.352   5.490 -1.3987 -0.5930 -2.5158
   12CHL1   C15  832   5.264   5.190   5.405  0.6793 -0.2622 -0.1563
   12CHL1  H15A  833   5.246   5.084   5.434 -1.8519 -0.1725 -1.1228
   12CHL1  H15B  834   5.171   5.250   5.417  1.2617  0.9332 -1.4265
   12CHL1   C16  835   5.317   5.209   5.263 -0.3608  0.2226 -0.2139
   12CHL1  H16A  836   5.328   5.110   5.213  0.0716  0.3181 -0.3050
   12CHL1  H16B  837   5.248   5.256   5.190 -1.9096 -1.9445 -0.2585
   12CHL1   C17  838   5.455   5.282   5.272  0.6634  0.0305 -0.0106
   12CHL1   H17  839   5.443   5.392   5.285  0.5246 -0.0376  0.4558
   12CHL1   C13  840   5.503   5.245   5.414  0.6175  0.3469 -0.4741
   12CHL1   C18  841   5.547   5.104   5.426 -0.1798  0.2043 -0.0505
   12CHL1  H18A  842   5.476   5.028   5.386  2.3573 -2.7414  0.6496
   12CHL1  H18B  843   5.636   5.103   5.360  0.3920  2.6303  0.5845
   12CHL1  H18C  844   5.575   5.066   5.526  0.8517 -0.2033 -0.4828
   12CHL1   C12  845   5.590   5.339   5.495  0.5330 -0.6192  0.1880
   12CHL1  H12A  846   5.691   5.328   5.449 -0.0046 -0.3591 -1.1098
   12CHL1  H12B  847   5.561   5.446   5.491  1.6279 -0.3394 -0.9260
   12CHL1   C11  848   5.609   5.306   5.644 -0.8421 -0.4377 -0.8223
   12CHL1  H11A  849   5.680   5.221   5.643  0.0075  0.2442 -2.1548
   12CHL1  H11B  850   5.651   5.392   5.701 -0.8425 -1.0034  0.0552
   12CHL1    C9  851   5.470   5.294   5.712  0.5660 -0.8413  0.0835
   12CHL1    H9  852   5.422   5.394   5.708  1.2292 -0.4900  0.7645
   12CHL1   C10  853   5.465   5.256   5.863  0.2213  0.2138 -0.3692
   12CHL1   C19  854   5.529   5.118   5.892 -0.4340 -0.0728  0.3173
   12CHL1  H19A  855   5.638   5.128   5.872 -0.3695  1.1771  1.1905
   12CHL1  H19B  856   5.534   5.092   6.000  0.3044  0.6257  0.4585
   12CHL1  H19C  857   5.483   5.030   5.842  1.8199 -1.0951 -0.0832
   12CHL1    C1  858   5.523   5.367   5.955 -0.0256  0.2648 -0.1059
   12CHL1   H1A  859   5.631   5.366   5.926 -0.4503 -2.2407 -1.9524
   12CHL1   H1B  860   5.481   5.467   5.935 -1.0906  0.7253  3.6551
   12CHL1    C2  861   5.504   5.359   6.110  0.2754  0.0596  0.0633
   12CHL1   H2A  862   5.552   5.446   6.159  2.9658 -1.6370  0.6272
   12CHL1   H2B  863   5.569   5.274   6.140  0.9364  0.5041 -0.0715
   12CHL1   C20  864   5.546   5.238   5.151  0.3578 -0.2985 -0.3993
   12CHL1   H20  865   5.548   5.127   5.152  1.4628 -0.2857  0.6636
   12CHL1   C21  866   5.678   5.306   5.166  0.2551  0.2848  0.0962
   12CHL1  H21A  867   5.727   5.266   5.258  1.1920  0.9812 -0.0835
   12CHL1  H21B  868   5.675   5.417   5.163  1.8050  0.3269 -1.0104
   12CHL1  H21C  869   5.755   5.278   5.091  1.9178  0.5841  1.5998
   12CHL1   C22  870   5.484   5.287   5.017  0.9437 -0.6296  0.0538
   12CHL1  H22A  871   5.375   5.264   5.007 -0.1742  3.2362  1.4796
   12CHL1  H22B  872   5.472   5.397   5.026 -1.9672 -0.9820  1.9786
   12CHL1   C23  873   5.542   5.251   4.883 -0.3359 -0.2092 -0.0873
   12CHL1  H23A  874   5.461   5.273   4.809 -0.7775 -1.3528  0.0308
   12CHL1  H23B  875   5.622   5.327   4.866 -1.0894  0.9069  1.1957
   12CHL1   C24  876   5.583   5.108   4.867 -0.7824 -0.0061  0.7229
   12CHL1  H24A  877   5.654   5.080   4.948 -0.4499  0.0613  0.4579
   12CHL1  H24B  878   5.489   5.051   4.882 -1.1628  0.3008 -0.3922
   12CHL1   C25  879   5.638   5.085   4.727  0.2576  0.1463  0.3089
   12CHL1   H25  880   5.569   5.131   4.653 -0.5378  1.4367  1.8031
   12CHL1   C26  881   5.775   5.160   4.702 -0.2321 -0.7780 -0.3321
   12CHL1  H26A  882   5.812   5.119   4.605  0.5472 -0.5306 -0.1473
   12CHL1  H26B  883   5.761   5.270   4.701 -0.1518 -0.7677 -0.3418
   12CHL1  H26C  884   5.845   5.144   4.787 -2.3125  0.9302  1.8158
   12CHL1   C27  885   5.659   4.937   4.692 -0.0527 -0.7531 -0.5790
   12CHL1  H27A  886   5.561   4.885   4.696  0.3801 -1.6520 -1.4287
   12CHL1  H27B  887   5.690   4.923   4.587  2.4134  1.3051 -0.2129
   12CHL1  H27C  888   5.722   4.877   4.761 -0.6925 -1.1485 -0.3272
   13CHL1    C3  889   4.863   5.611   6.141 -0.6250 -0.5663 -0.2832
   13CHL1    H3  890   4.872   5.722   6.141  1.6943 -0.6999  0.6390
   13CHL1    O3  891   4.854   5.556   6.272  0.5617 -0.0689  0.1375
   13CHL1   H3'  892   4.916   5.483   6.270 -0.3953 -0.9388  0.7569
   13CHL1    C4  893   4.725   5.581   6.069 -0.1151 -0.3076 -0.2347
   13CHL1   H4A  894   4.708   5.474   6.091  2.0278 -0.8792 -1.1106
   13CHL1   H4B  895   4.651   5.647   6.118 -1.6184 -3.2066  1.6558
   13CHL1    C5  896   4.733   5.596   5.921  0.3034  0.4396  0.0332
   13CHL1    C6  897   4.639   5.661   5.851 -0.2328  0.2996 -0.6923
   13CHL1    H6  898   4.567   5.726   5.903  0.4450  1.8529 -1.6483
   13CHL1    C7  899   4.633   5.682   5.703 -0.7829 -0.4537 -0.0388
   13CHL1   H7A  900   4.531   5.674   5.660 -1.1886  1.4241  0.5013
   13CHL1   H7B  901   4.664   5.787   5.686 -2.4215 -0.1140 -1.2342
   13CHL1    C8  902   4.727   5.585   5.625 -0.4407 -0.8935  0.1929
   13CHL1    H8  903   4.681   5.485   5.617  0.0914 -1.2468  1.3666
   13CHL1   C14  904   4.746   5.630   5.483 -0.0925  0.2838  0.2573
   13CHL1   H14  905   4.800   5.727   5.486  2.6641 -1.0710 -1.0379
   13CHL1   C15  906   4.624   5.668   5.398 -0.0517 -0.1269  0.0593
   13CHL1  H15A  907   4.550   5.585   5.404  0.1711 -0.6278 -2.6644
   13CHL1  H15B  908   4.580   5.766   5.427  1.6281  0.2904  1.3381
   13CHL1   C16  909   4.679   5.667   5.251  0.0044 -0.6009  0.1902
   13CHL1  H16A  910   4.616   5.605   5.183  1.9170 -0.8773 -1.4443
   13CHL1  H16B  911   4.685   5.772   5.217  1.2172 -0.1218  1.7319
   13CHL1   C17  912   4.821   5.593   5.258  0.0103 -0.8291 -0.4955
   13CHL1   H17  913   4.890   5.680   5.249 -0.0684 -0.6888  0.2472
   13CHL1   C13  914   4.840   5.535   5.400  0.6353  1.4502 -0.0903
   13CHL1   C18  915   4.784   5.388   5.394 -0.1234  0.1198  0.2682
   13CHL1  H18A  916   4.687   5.369   5.344  0.2929 -1.7261  0.0889
   13CHL1  H18B  917   4.859   5.324   5.344  1.2141  1.6543  0.2376
   13CHL1  H18C  918   4.784   5.342   5.495  0.1887 -0.7907 -0.1431
   13CHL1   C12  919   4.978   5.533   5.459 -0.2358 -0.2286 -0.2516
   13CHL1  H12A  920   5.051   5.465   5.409 -1.2446 -1.4403 -0.1347
   13CHL1  H12B  921   5.014   5.637   5.447 -0.4660 -0.1905 -0.6744
   13CHL1   C11  922   4.969   5.501   5.605 -0.5655 -0.3507  0.0388
   13CHL1  H11A  923   4.964   5.390   5.608  1.1683 -0.4338  1.3671
   13CHL1  H11B  924   5.063   5.530   5.658 -1.0841 -2.0764  2.0400
   13CHL1    C9  925   4.855   5.568   5.695 -0.1510 -0.2678 -0.2171
   13CHL1    H9  926   4.893   5.672   5.706  0.9889 -0.8342  1.5744
   13CHL1   C10  927   4.840   5.525   5.841 -0.0892  0.3845 -1.1628
   13CHL1   C19  928   4.823   5.373   5.859  0.6346 -0.4207 -0.5787
   13CHL1  H19A  929   4.743   5.342   5.789  0.7135  2.8505 -2.3443
   13CHL1  H19B  930   4.923   5.326   5.853  1.3355  1.1018 -1.5725
   13CHL1  H19C  931   4.791   5.349   5.962 -0.8424  3.3766  0.0256
   13CHL1    C1  932   4.973   5.576   5.921 -0.2360  0.0536 -0.6581
   13CHL1   H1A  933   5.063   5.531   5.873 -0.3680 -1.7887  0.6826
   13CHL1   H1B  934   4.987   5.686   5.909 -0.1353 -0.0191 -1.2376
   13CHL1    C2  935   4.982   5.545   6.071  0.0778 -0.7818  0.0362
   13CHL1   H2A  936   5.076   5.585   6.115  0.7866 -2.9400  0.5880
   13CHL1   H2B  937   4.998   5.436   6.082  1.3505 -0.6021  0.0642
   13CHL1   C20  938   4.868   5.511   5.135  0.2375 -0.4138  0.5538
   13CHL1   H20  939   4.817   5.412   5.136 -1.6413  0.4636 -0.7152
   13CHL1   C21  940   5.020   5.485   5.136  0.2379  0.4589  0.2463
   13CHL1  H21A  941   5.053   5.415   5.057  1.7880 -1.1305  2.1996
   13CHL1  H21B  942   5.051   5.417   5.218 -0.9267  0.2690  0.5494
   13CHL1  H21C  943   5.079   5.580   5.138 -0.2681  0.8406  3.7331
   13CHL1   C22  944   4.819   5.573   5.001  0.4358  0.0113  0.0079
   13CHL1  H22A  945   4.709   5.586   5.000  0.3919 -0.2729  0.6783
   13CHL1  H22B  946   4.861   5.676   4.998  0.7907 -0.0801  1.3327
   13CHL1   C23  947   4.846   5.485   4.874  0.3128  0.0042  0.2302
   13CHL1  H23A  948   4.952   5.459   4.856  0.6813  0.7953  1.1845
   13CHL1  H23B  949   4.778   5.397   4.883  0.5144  0.0205  2.4780
   13CHL1   C24  950   4.806   5.580   4.755  0.1945 -0.1786 -0.2307
   13CHL1  H24A  951   4.706   5.616   4.786  0.1698 -1.3570  1.1691
   13CHL1  H24B  952   4.883   5.660   4.754  0.9887 -0.8809  1.2792
   13CHL1   C25  953   4.781   5.505   4.626 -0.2008  0.6610 -0.4054
   13CHL1   H25  954   4.865   5.434   4.610 -1.0511 -0.9715  1.8238
   13CHL1   C26  955   4.645   5.428   4.634  0.1338  0.1305  0.7497
   13CHL1  H26A  956   4.614   5.396   4.532  0.8916  1.8034 -0.0442
   13CHL1  H26B  957   4.646   5.342   4.704 -0.9001 -1.9407 -1.5945
   13CHL1  H26C  958   4.574   5.508   4.665  1.7812  2.0651 -0.2234
   13CHL1   C27  959   4.774   5.604   4.504 -0.4304 -0.4709 -0.2817
   13CHL1  H27A  960   4.679   5.662   4.509 -0.4028 -0.4614  0.1889
   13CHL1  H27B  961   4.856   5.679   4.506 -2.4240  1.9358 -1.8969
   13CHL1  H27C  962   4.790   5.552   4.407 -0.3538 -0.3585 -0.3299
   14CHL1    C3  963   5.155   2.284   6.061 -0.3481  0.5922  0.8890
   14CHL1    H3  964   5.196   2.181   6.066 -0.1441  0.5372 -1.0981
   14CHL1    O3  965   5.159   2.335   6.198  0.3448  0.4676 -0.3259
   14CHL1   H3'  966   5.148   2.430   6.192 -1.8717  0.4433  1.8044
   14CHL1    C4  967   5.254   2.368   5.973 -0.0237  0.1799  0.9773
   14CHL1   H4A  968   5.222   2.472   5.991  2.0991  0.4475  4.0467
   14CHL1   H4B  969   5.363   2.363   5.997  0.4424  1.9141 -0.5681
   14CHL1    C5  970   5.231   2.332   5.821  0.1081 -0.6441 -0.5091
   14CHL1    C6  971   5.334   2.298   5.747 -0.2647  0.0873 -0.2122
   14CHL1    H6  972   5.435   2.299   5.791 -0.2710 -0.3772 -0.1780
   14CHL1    C7  973   5.325   2.288   5.599  0.6306  0.2633 -0.5661
   14CHL1   H7A  974   5.412   2.349   5.568  2.6383 -2.4056 -0.5530
   14CHL1   H7B  975   5.340   2.183   5.568 -2.0404 -1.0811  2.0696
   14CHL1    C8  976   5.196   2.350   5.537 -0.0083  0.1485 -0.4313
   14CHL1    H8  977   5.197   2.461   5.547 -0.9515  0.4731 -3.2057
   14CHL1   C14  978   5.186   2.313   5.391 -0.6502 -0.1171  0.0393
   14CHL1   H14  979   5.181   2.202   5.392 -1.3280 -0.0866  1.5711
   14CHL1   C15  980   5.302   2.356   5.297  0.1589  0.0855 -0.6041
   14CHL1  H15A  981   5.329   2.459   5.327  4.0225 -0.7435 -0.7951
   14CHL1  H15B  982   5.390   2.291   5.314 -1.0947 -1.2108  1.3321
   14CHL1   C16  983   5.240   2.374   5.158 -0.2520 -0.0180 -0.8634
   14CHL1  H16A  984   5.243   2.483   5.135 -1.1329  0.1571 -0.2041
   14CHL1  H16B  985   5.293   2.316   5.079 -2.0602 -0.6961 -1.6274
   14CHL1   C17  986   5.092   2.330   5.180 -0.7250 -0.2812  0.8850
   14CHL1   H17  987   5.095   2.219   5.170  0.6674 -0.0730 -1.6684
   14CHL1   C13  988   5.057   2.366   5.326 -0.3798 -0.3396 -0.4692
   14CHL1   C18  989   5.044   2.519   5.336 -0.5926 -1.0504 -0.0379
   14CHL1  H18A  990   5.075   2.550   5.438 -0.3655 -0.6550 -0.2240
   14CHL1  H18B  991   5.111   2.578   5.270  0.9038 -1.5129  1.0281
   14CHL1  H18C  992   4.937   2.545   5.316 -1.7147 -2.8205  2.9551
   14CHL1   C12  993   4.927   2.298   5.392  0.2033 -0.4854  0.1327
   14CHL1  H12A  994   4.834   2.341   5.348  0.4281  0.0645  0.1876
   14CHL1  H12B  995   4.934   2.188   5.379 -1.7920 -0.8293  1.5105
   14CHL1   C11  996   4.930   2.325   5.544 -0.3863  0.2342 -0.2183
   14CHL1  H11A  997   4.906   2.429   5.576  1.2432  0.1360  1.5185
   14CHL1  H11B  998   4.850   2.260   5.585 -0.7360 -0.0257 -1.2912
   14CHL1    C9  999   5.077   2.298   5.614  0.2049  0.0865  0.7533
   14CHL1    H9 1000   5.093   2.189   5.606 -0.4565  0.0640 -0.4551
   14CHL1   C10 1001   5.082   2.343   5.768 -0.3831  0.3022  0.2320
   14CHL1   C19 1002   5.034   2.487   5.778  0.0478 -0.2477 -0.6577
   14CHL1  H19A 1003   5.041   2.518   5.884 -1.3889 -2.8823  0.2874
   14CHL1  H19B 1004   5.079   2.560   5.707  0.5126  1.3135  1.1573
   14CHL1  H19C 1005   4.928   2.492   5.745  0.1597 -3.8544 -1.9769
   14CHL1    C1 1006   5.000   2.253   5.855  0.1011  0.0939  0.2595
   14CHL1   H1A 1007   4.896   2.267   5.818  0.4946  2.0979 -0.1859
   14CHL1   H1B 1008   5.030   2.149   5.827  3.2045  0.8643  0.3490
   14CHL1    C2 1009   5.008   2.281   6.006  0.2793  0.2413 -0.6476
   14CHL1   H2A 1010   4.951   2.201   6.057  0.2594  0.7010  0.0671
   14CHL1   H2B 1011   4.946   2.372   6.021  2.7107  2.3415 -2.3856
   14CHL1   C20 1012   4.998   2.384   5.071  0.1321  0.4141 -0.4779
   14CHL1   H20 1013   5.005   2.495   5.067  2.0032  0.4181  1.2674
   14CHL1   C21 1014   4.854   2.338   5.099  0.0576 -0.0370  0.9335
   14CHL1  H21A 1015   4.804   2.422   5.153  1.0180  0.5027  1.0059
   14CHL1  H21B 1016   4.849   2.243   5.156 -2.4324  0.1164  1.0899
   14CHL1  H21C 1017   4.793   2.316   5.009  1.0047 -0.3729  0.3590
   14CHL1   C22 1018   5.028   2.328   4.926 -0.2580 -0.3003 -0.0000
   14CHL1  H22A 1019   5.138   2.318   4.909  0.2301  0.0705  2.5402
   14CHL1  H22B 1020   4.990   2.224   4.917  0.1610 -0.4821  0.2723
   14CHL1   C23 1021   4.964   2.418   4.825 -0.2312 -0.0558  0.0997
   14CHL1  H23A 1022   4.861   2.384   4.803 -0.5017  1.4418 -1.1517
   14CHL1  H23B 1023   4.955   2.520   4.868 -1.2368 -0.4206  0.7923
   14CHL1   C24 1024   5.051   2.441   4.698  0.4968  0.9302 -0.1734
   14CHL1  H24A 1025   4.992   2.511   4.634 -1.2385  0.1746  0.5563
   14CHL1  H24B 1026   5.156   2.473   4.713  1.1462  0.1289 -2.6133
   14CHL1   C25 1027   5.080   2.319   4.606  0.2835  0.3622 -0.7365
   14CHL1   H25 1028   5.173   2.268   4.639  1.3155  2.4084 -0.3418
   14CHL1   C26 1029   4.969   2.218   4.596 -0.6658 -0.1738 -0.5267
   14CHL1  H26A 1030   4.977   2.148   4.511 -0.5596 -0.1461 -0.5391
   14CHL1  H26B 1031   4.981   2.151   4.684  0.9372 -0.8957 -1.2544
   14CHL1  H26C 1032   4.865   2.258   4.599 -0.3336  0.6391  1.0192
   14CHL1   C27 1033   5.119   2.366   4.462 -0.0924  1.0233 -0.7882
   14CHL1  H27A 1034   5.198   2.445   4.459 -1.2507  2.2296 -0.6183
   14CHL1  H27B 1035   5.157   2.281   4.402 -0.6481  0.6667 -0.6360
   14CHL1  H27C 1036   5.028   2.412   4.419 -0.8236  0.1234 -0.2259
   15CHL1    C3 1037   5.403   3.214   5.582 -0.2560 -0.4569 -0.2365
   15CHL1    H3 1038   5.313   3.271   5.548 -0.2991  0.8866  1.9100
   15CHL1    O3 1039   5.380   3.146   5.703  0.3999 -0.0100 -0.2735
   15CHL1   H3' 1040   5.465   3.114   5.731 -0.1198 -1.1127  0.0683
   15CHL1    C4 1041   5.450   3.120   5.474  0.2176 -0.2364 -0.0150
   15CHL1   H4A 1042   5.551   3.077   5.492 -0.3104 -0.9751  1.4002
   15CHL1   H4B 1043   5.378   3.035   5.469 -0.6535  0.5283 -0.5334
   15CHL1    C5 1044   5.459   3.200   5.347 -0.5550  0.7580 -0.0851
   15CHL1    C6 1045   5.376   3.177   5.241 -0.5558  0.3155  0.2846
   15CHL1    H6 1046   5.303   3.095   5.252 -1.7435  1.4333  1.0090
   15CHL1    C7 1047   5.386   3.242   5.105 -0.0783 -0.1734  0.2455
   15CHL1   H7A 1048   5.385   3.170   5.021 -0.8662  0.0334  0.0635
   15CHL1   H7B 1049   5.305   3.317   5.096 -0.3956 -0.5203  0.1744
   15CHL1    C8 1050   5.522   3.326   5.084  0.1947  0.2904  0.3208
   15CHL1    H8 1051   5.610   3.258   5.080  2.0845  2.6388 -0.4540
   15CHL1   C14 1052   5.518   3.405   4.959 -0.3394 -0.6056 -0.4079
   15CHL1   H14 1053   5.431   3.471   4.975  1.5954  2.0264 -0.1773
   15CHL1   C15 1054   5.489   3.335   4.826 -0.3567  0.2975 -0.3395
   15CHL1  H15A 1055   5.563   3.252   4.819  0.6398  0.9086  2.0100
   15CHL1  H15B 1056   5.381   3.309   4.827 -0.1870 -0.4577  0.6434
   15CHL1   C16 1057   5.521   3.443   4.721  1.0026 -0.8158  0.3840
   15CHL1  H16A 1058   5.584   3.403   4.639 -0.7798  0.1569 -1.5614
   15CHL1  H16B 1059   5.421   3.477   4.684  0.5923  1.3988  3.1584
   15CHL1   C17 1060   5.595   3.566   4.794 -0.1494  0.1197  0.0820
   15CHL1   H17 1061   5.518   3.639   4.827 -0.5369 -0.3542  0.2324
   15CHL1   C13 1062   5.638   3.502   4.931  0.6415  0.5305 -0.3700
   15CHL1   C18 1063   5.771   3.421   4.907  0.2590 -0.0072  0.3940
   15CHL1  H18A 1064   5.775   3.365   4.811 -1.4889  0.2039  0.1751
   15CHL1  H18B 1065   5.851   3.498   4.897  0.0419  0.1083 -0.5253
   15CHL1  H18C 1066   5.804   3.346   4.982  1.1863 -0.3494 -0.3255
   15CHL1   C12 1067   5.648   3.593   5.054  0.3934  0.2599  0.4829
   15CHL1  H12A 1068   5.738   3.659   5.053  1.8738 -1.6615  0.0315
   15CHL1  H12B 1069   5.557   3.655   5.067 -0.7991 -1.6463  1.6992
   15CHL1   C11 1070   5.667   3.506   5.186  0.1621  0.0508 -0.0541
   15CHL1  H11A 1071   5.767   3.459   5.177  0.7571  0.9162  1.5642
   15CHL1  H11B 1072   5.684   3.562   5.280 -1.5311  1.3717 -0.4884
   15CHL1    C9 1073   5.552   3.404   5.212 -0.5510  0.3703 -0.0669
   15CHL1    H9 1074   5.461   3.463   5.233 -1.7857 -2.3939  3.3269
   15CHL1   C10 1075   5.561   3.312   5.342  0.1029 -0.0904 -0.1658
   15CHL1   C19 1076   5.700   3.249   5.340 -0.1819  0.2488  0.1397
   15CHL1  H19A 1077   5.787   3.317   5.328 -0.1037  0.0489 -0.4435
   15CHL1  H19B 1078   5.719   3.193   5.434 -1.5043 -1.3827 -0.5259
   15CHL1  H19C 1079   5.707   3.174   5.259  0.4707 -0.8557  1.1952
   15CHL1    C1 1080   5.543   3.395   5.474  1.1318 -0.5150  0.5906
   15CHL1   H1A 1081   5.632   3.463   5.474  0.0030  1.1240 -1.6795
   15CHL1   H1B 1082   5.452   3.458   5.462 -0.5380 -3.0275 -0.6680
   15CHL1    C2 1083   5.522   3.317   5.603  0.1472  0.2021  0.3944
   15CHL1   H2A 1084   5.505   3.387   5.687 -1.1759  0.6021 -0.1875
   15CHL1   H2B 1085   5.618   3.266   5.627 -0.4407  0.3223  3.2755
   15CHL1   C20 1086   5.688   3.659   4.714  0.2706 -0.9511 -0.3013
   15CHL1   H20 1087   5.789   3.614   4.701  1.6024  1.3765  1.2142
   15CHL1   C21 1088   5.703   3.798   4.781 -0.1953  0.3780 -0.1165
   15CHL1  H21A 1089   5.771   3.855   4.714 -0.2845 -1.2832 -1.7002
   15CHL1  H21B 1090   5.751   3.794   4.881 -0.1055  4.8670  0.2438
   15CHL1  H21C 1091   5.607   3.853   4.797  0.3022  0.9836  0.8660
   15CHL1   C22 1092   5.645   3.687   4.570  0.9703  1.0735  0.0136
   15CHL1  H22A 1093   5.707   3.766   4.522  0.5575  1.2021 -0.3134
   15CHL1  H22B 1094   5.643   3.597   4.505  1.6678  0.6144  0.6160
   15CHL1   C23 1095   5.495   3.738   4.571  0.4007  0.2313 -0.1286
   15CHL1  H23A 1096   5.423   3.669   4.619 -0.9239  0.2807 -1.9440
   15CHL1  H23B 1097   5.487   3.832   4.630  0.1501 -0.4228  0.8984
   15CHL1   C24 1098   5.451   3.762   4.426 -1.1783  0.2803  0.5576
   15CHL1  H24A 1099   5.539   3.816   4.386  0.3150 -2.1129  0.4094
   15CHL1  H24B 1100   5.448   3.664   4.373 -0.5357 -0.7047  2.2424
   15CHL1   C25 1101   5.335   3.856   4.388  0.2204 -0.0494 -0.2136
   15CHL1   H25 1102   5.352   3.949   4.445 -0.0931  0.8104 -1.4790
   15CHL1   C26 1103   5.341   3.902   4.240  0.1505 -0.0610 -0.5501
   15CHL1  H26A 1104   5.353   3.819   4.167 -4.3293 -0.0927 -1.5468
   15CHL1  H26B 1105   5.251   3.963   4.217  0.1397 -0.0351 -0.4396
   15CHL1  H26C 1106   5.422   3.975   4.220 -1.5929  2.1737  0.0608
   15CHL1   C27 1107   5.197   3.798   4.410 -0.2403  0.6837  0.2196
   15CHL1  H27A 1108   5.192   3.764   4.516  2.0587  4.1709  1.6633
   15CHL1  H27B 1109   5.116   3.873   4.397  1.1386  2.2619  0.3729
   15CHL1  H27C 1110   5.189   3.718   4.334  0.0073  1.7619 -0.9825
   16CHL1    C3 1111   3.632   0.109   5.490 -0.4356 -0.1117 -0.3457
   16CHL1    H3 1112   3.570   0.017   5.493  0.4718 -0.7149  0.6241
   16CHL1    O3 1113   3.636   0.160   5.623  0.0955  0.0211 -0.2473
   16CHL1   H3' 1114   3.709   0.222   5.618  2.2876 -2.3934 -0.1870
   16CHL1    C4 1115   3.776   0.062   5.446  0.0013 -0.4788 -0.0079
   16CHL1   H4A 1116   3.848   0.147   5.453 -0.8602  0.1901  1.1649
   16CHL1   H4B 1117   3.816  -0.018   5.512 -0.8619 -0.6098  0.3627
   16CHL1    C5 1118   3.768   0.008   5.304  0.8314  0.3562 -0.1648
   16CHL1    C6 1119   3.808  -0.118   5.280 -0.3008 -0.1534 -0.0427
   16CHL1    H6 1120   3.842  -0.181   5.363  0.3240 -1.1397 -1.0254
   16CHL1    C7 1121   3.800  -0.179   5.140  0.1124  0.6713  0.5157
   16CHL1   H7A 1122   3.894  -0.237   5.125 -0.9852 -1.3427  1.0827
   16CHL1   H7B 1123   3.716  -0.251   5.128  1.1923 -0.6207  0.4007
   16CHL1    C8 1124   3.780  -0.075   5.030  0.2447 -0.2137  0.2667
   16CHL1    H8 1125   3.878  -0.025   5.016  0.9143 -2.0294 -2.2788
   16CHL1   C14 1126   3.752  -0.143   4.904 -0.2374  0.7608 -0.1120
   16CHL1   H14 1127   3.649  -0.185   4.916 -1.1215  2.1247 -2.2596
   16CHL1   C15 1128   3.846  -0.255   4.860 -0.1713  0.1193  0.3944
   16CHL1  H15A 1129   3.946  -0.213   4.883  1.0004 -0.5873 -2.8913
   16CHL1  H15B 1130   3.835  -0.352   4.912  0.2482  0.8795  1.9642
   16CHL1   C16 1131   3.823  -0.261   4.712 -0.3471  0.5187  0.2790
   16CHL1  H16A 1132   3.920  -0.233   4.666  0.4221 -0.7786  1.0428
   16CHL1  H16B 1133   3.783  -0.358   4.677 -1.6675  0.2778  2.2885
   16CHL1   C17 1134   3.719  -0.150   4.680  0.3509 -0.4037  0.1878
   16CHL1   H17 1135   3.618  -0.193   4.696 -1.2521  3.1879  0.6267
   16CHL1   C13 1136   3.732  -0.046   4.788  0.5632  0.5402 -0.3429
   16CHL1   C18 1137   3.864   0.031   4.759  0.4158 -0.5771  0.7210
   16CHL1  H18A 1138   3.846   0.114   4.687  2.3614  1.0483  1.9886
   16CHL1  H18B 1139   3.907   0.080   4.849 -2.5879 -0.0628  2.0012
   16CHL1  H18C 1140   3.941  -0.034   4.713 -0.4897  0.4211 -2.4409
   16CHL1   C12 1141   3.610   0.043   4.820  0.2558 -0.7255 -0.0243
   16CHL1  H12A 1142   3.593   0.105   4.729  0.2057 -1.8639 -0.8068
   16CHL1  H12B 1143   3.521  -0.023   4.821 -0.5124  0.1764  3.0853
   16CHL1   C11 1144   3.617   0.115   4.947  0.2449 -1.2285  0.2899
   16CHL1  H11A 1145   3.686   0.201   4.935 -1.7047  0.8301  2.8545
   16CHL1  H11B 1146   3.523   0.167   4.974  1.9305  1.0936  2.0379
   16CHL1    C9 1147   3.667   0.023   5.067 -0.3786  0.3494 -0.1795
   16CHL1    H9 1148   3.574  -0.037   5.074  0.6635 -1.4832 -1.1162
   16CHL1   C10 1149   3.689   0.100   5.203  0.2658 -0.9001 -0.7840
   16CHL1   C19 1150   3.785   0.225   5.176 -0.5281  0.3513 -0.4938
   16CHL1  H19A 1151   3.821   0.267   5.272 -2.1921  1.0172 -0.1180
   16CHL1  H19B 1152   3.878   0.202   5.121 -1.0228  0.0628 -1.2290
   16CHL1  H19C 1153   3.725   0.307   5.130 -0.5692  1.1365  0.9087
   16CHL1    C1 1154   3.547   0.147   5.259 -0.5710 -0.3126 -0.3561
   16CHL1   H1A 1155   3.495   0.205   5.180  0.4407 -1.5473 -1.9814
   16CHL1   H1B 1156   3.489   0.054   5.275  0.9384 -0.9653  1.8069
   16CHL1    C2 1157   3.562   0.213   5.397 -0.5313  0.0051  0.2075
   16CHL1   H2A 1158   3.463   0.249   5.431 -0.2750  0.2308  0.7177
   16CHL1   H2B 1159   3.623   0.305   5.387 -0.7511  0.3517  1.7889
   16CHL1   C20 1160   3.733  -0.104   4.529 -0.9366 -0.3571 -0.4405
   16CHL1   H20 1161   3.832  -0.055   4.515 -0.5459 -0.9114  0.2849
   16CHL1   C21 1162   3.619  -0.008   4.471 -0.6703 -0.0103 -0.4439
   16CHL1  H21A 1163   3.525  -0.067   4.464 -0.2384 -0.8611  0.5669
   16CHL1  H21B 1164   3.658   0.012   4.369  0.7708 -1.3161 -0.1988
   16CHL1  H21C 1165   3.622   0.085   4.533  3.0340  0.3509 -0.9127
   16CHL1   C22 1166   3.752  -0.216   4.431 -0.1149  0.1364 -0.3227
   16CHL1  H22A 1167   3.749  -0.190   4.323 -2.1802 -0.5345 -0.4788
   16CHL1  H22B 1168   3.850  -0.267   4.437 -0.7416 -1.1246 -0.4363
   16CHL1   C23 1169   3.644  -0.328   4.444  0.0043  0.1178  0.4866
   16CHL1  H23A 1170   3.633  -0.379   4.542 -4.7041 -1.8095 -0.7332
   16CHL1  H23B 1171   3.543  -0.293   4.415 -0.6563 -0.6886  1.7470
   16CHL1   C24 1172   3.670  -0.440   4.339 -0.2887 -0.1131 -0.4438
   16CHL1  H24A 1173   3.697  -0.390   4.244  2.6070 -0.8214 -0.0700
   16CHL1  H24B 1174   3.757  -0.504   4.364  0.6031  0.0852 -2.8314
   16CHL1   C25 1175   3.547  -0.531   4.315  0.2226  0.2230  0.4052
   16CHL1   H25 1176   3.454  -0.475   4.292 -0.0161 -0.0347  0.7232
   16CHL1   C26 1177   3.579  -0.619   4.191  0.0182 -0.1263 -0.1225
   16CHL1  H26A 1178   3.631  -0.716   4.202  0.5108  0.1126 -0.3492
   16CHL1  H26B 1179   3.482  -0.660   4.156 -0.9898  2.5628 -0.7525
   16CHL1  H26C 1180   3.627  -0.561   4.110  0.4455  0.6785  0.6893
   16CHL1   C27 1181   3.528  -0.625   4.441  0.3490  0.2667 -0.1782
   16CHL1  H27A 1182   3.444  -0.693   4.415 -0.3987  1.3321 -0.6598
   16CHL1  H27B 1183   3.623  -0.679   4.459  0.4952  1.1531  1.9353
   16CHL1  H27C 1184   3.500  -0.558   4.524  1.7884 -0.1679  0.6821
   17CHL1    C3 1185   2.967   4.075   6.197  0.4884 -0.5513 -0.1501
   17CHL1    H3 1186   2.980   4.185   6.183  0.0880 -0.5699 -0.6815
   17CHL1    O3 1187   2.910   4.047   6.320  0.1324  0.3467  0.7064
   17CHL1   H3' 1188   2.939   3.957   6.332  0.0058  0.1947 -0.0358
   17CHL1    C4 1189   2.882   3.999   6.096  0.1959  0.6816  0.6293
   17CHL1   H4A 1190   2.874   3.891   6.121 -1.5873  0.9078  1.1740
   17CHL1   H4B 1191   2.777   4.034   6.102  0.2743  1.0673 -0.0590
   17CHL1    C5 1192   2.933   4.011   5.959 -1.2003  0.0053 -0.3255
   17CHL1    C6 1193   2.863   4.066   5.860  0.5357  0.6143  0.6416
   17CHL1    H6 1194   2.759   4.099   5.877  0.4267  0.3503  0.4975
   17CHL1    C7 1195   2.900   4.068   5.709 -0.2640 -0.1285 -0.4026
   17CHL1   H7A 1196   2.816   4.036   5.644 -1.0676  3.2679 -1.2575
   17CHL1   H7B 1197   2.923   4.172   5.679  0.6972 -0.8906 -2.4966
   17CHL1    C8 1198   3.016   3.974   5.690 -0.5919 -0.8884  0.4921
   17CHL1    H8 1199   2.978   3.871   5.680  0.6052 -1.3637  0.7001
   17CHL1   C14 1200   3.069   4.014   5.553 -0.5341  0.3244 -0.7384
   17CHL1   H14 1201   3.101   4.120   5.558 -0.7610  0.4657 -1.9980
   17CHL1   C15 1202   2.973   4.001   5.432 -0.1336 -0.5206 -0.2990
   17CHL1  H15A 1203   2.928   3.900   5.442 -1.4539 -0.0054 -0.8143
   17CHL1  H15B 1204   2.898   4.083   5.439  1.6829  1.0661  3.5095
   17CHL1   C16 1205   3.068   4.020   5.310  0.5667  0.6869 -0.4953
   17CHL1  H16A 1206   3.048   3.960   5.219  1.1383  2.1348 -1.6248
   17CHL1  H16B 1207   3.074   4.121   5.263  0.5006  0.4744 -0.9661
   17CHL1   C17 1208   3.220   3.992   5.368 -0.3207  0.0084  0.0743
   17CHL1   H17 1209   3.258   4.097   5.376  0.9232 -0.4273  0.0819
   17CHL1   C13 1210   3.199   3.935   5.514  0.2525  0.2285 -0.5381
   17CHL1   C18 1211   3.167   3.788   5.512 -0.5050 -0.4500 -0.2070
   17CHL1  H18A 1212   3.152   3.746   5.614  1.5858 -0.7347  0.0317
   17CHL1  H18B 1213   3.080   3.750   5.453 -1.7362  1.0548  0.5617
   17CHL1  H18C 1214   3.255   3.731   5.476 -0.2626  0.4379 -1.0346
   17CHL1   C12 1215   3.314   3.973   5.614 -0.5931 -0.5358 -0.3732
   17CHL1  H12A 1216   3.406   3.915   5.590  1.3281  1.9724  0.5467
   17CHL1  H12B 1217   3.342   4.080   5.611 -0.7823 -0.4979 -1.1893
   17CHL1   C11 1218   3.275   3.954   5.765 -1.0784  0.2341  0.3840
   17CHL1  H11A 1219   3.304   3.847   5.776  0.7066  0.5607 -0.6253
   17CHL1  H11B 1220   3.351   4.008   5.826 -0.6601  0.0193  0.0583
   17CHL1    C9 1221   3.129   3.995   5.799  0.7694 -0.5690 -0.4089
   17CHL1    H9 1222   3.139   4.105   5.810 -2.8668 -0.2539  1.0988
   17CHL1   C10 1223   3.077   3.957   5.936 -0.0161  0.1960 -0.4663
   17CHL1   C19 1224   3.083   3.804   5.956  0.2600 -0.8864 -0.0496
   17CHL1  H19A 1225   3.190   3.777   5.972  0.8373 -0.0557 -2.1484
   17CHL1  H19B 1226   3.028   3.773   6.047 -3.3576  2.2016 -0.9538
   17CHL1  H19C 1227   3.047   3.740   5.872 -0.0062 -2.9943  1.5927
   17CHL1    C1 1228   3.170   4.021   6.048 -0.5343  0.3455 -0.6304
   17CHL1   H1A 1229   3.272   3.977   6.048 -0.1652  1.0144  1.8218
   17CHL1   H1B 1230   3.179   4.131   6.030  1.2535  0.2540 -0.4892
   17CHL1    C2 1231   3.109   4.019   6.188  1.4452 -0.4016 -0.5488
   17CHL1   H2A 1232   3.167   4.062   6.272 -1.8367 -1.3088  2.4472
   17CHL1   H2B 1233   3.092   3.913   6.217  1.5030 -0.6804 -1.4718
   17CHL1   C20 1234   3.318   3.912   5.271  0.2766  0.0612 -1.6786
   17CHL1   H20 1235   3.270   3.813   5.255  0.4357 -0.2176 -0.5328
   17CHL1   C21 1236   3.457   3.891   5.341  0.9735  0.3002  0.4225
   17CHL1  H21A 1237   3.452   3.804   5.409  0.1626 -1.0244 -1.2488
   17CHL1  H21B 1238   3.501   3.988   5.372 -1.1680  1.6714 -0.6089
   17CHL1  H21C 1239   3.524   3.854   5.260 -1.8415  2.3169 -3.1517
   17CHL1   C22 1240   3.332   3.985   5.135  0.1173  0.3968  1.0226
   17CHL1  H22A 1241   3.231   3.998   5.090  1.3303  1.7485 -1.5007
   17CHL1  H22B 1242   3.378   4.086   5.149  1.8071 -0.3771  1.2645
   17CHL1   C23 1243   3.432   3.912   5.041  0.0444  0.5544 -0.1702
   17CHL1  H23A 1244   3.536   3.943   5.064 -0.6912  3.0115  0.1670
   17CHL1  H23B 1245   3.412   3.804   5.057 -1.4926  0.4895 -2.1125
   17CHL1   C24 1246   3.393   3.926   4.887  0.1409  1.0716 -0.3052
   17CHL1  H24A 1247   3.301   3.868   4.865 -0.6291 -0.2809  5.0085
   17CHL1  H24B 1248   3.359   4.032   4.889 -2.4030  0.3403  1.8237
   17CHL1   C25 1249   3.492   3.894   4.779 -0.1484  0.5102 -0.3823
   17CHL1   H25 1250   3.580   3.961   4.790  0.0941  0.2046 -0.4558
   17CHL1   C26 1251   3.547   3.750   4.791 -0.1741 -0.5727 -0.0844
   17CHL1  H26A 1252   3.601   3.718   4.700  0.3547 -2.1757  0.7645
   17CHL1  H26B 1253   3.605   3.741   4.885  0.4859  1.1348 -0.2934
   17CHL1  H26C 1254   3.463   3.683   4.820 -0.8597  0.8731  1.4309
   17CHL1   C27 1255   3.433   3.913   4.639 -0.2447 -0.2083 -0.0832
   17CHL1  H27A 1256   3.384   4.013   4.633  2.1759  0.9569 -1.9203
   17CHL1  H27B 1257   3.510   3.904   4.560  0.8719  0.5250  0.8975
   17CHL1  H27C 1258   3.357   3.831   4.636 -2.3377  1.6555 -0.2764
   18CHL1    C3 1259   4.140   5.717   6.010  0.2536 -0.2882 -0.4876
   18CHL1    H3 1260   4.233   5.658   5.999  0.4629  0.2585 -1.9651
   18CHL1    O3 1261   4.135   5.766   6.143 -0.1999 -0.0935 -0.2243
   18CHL1   H3' 1262   4.047   5.805   6.140  0.1709  1.3105  2.9359
   18CHL1    C4 1263   4.164   5.836   5.919 -0.2168 -0.2774  0.1681
   18CHL1   H4A 1264   4.088   5.914   5.943  0.1515 -0.1406  0.9211
   18CHL1   H4B 1265   4.268   5.862   5.948  0.3161 -2.2243  0.1698
   18CHL1    C5 1266   4.169   5.799   5.771  0.4863  0.3019  0.1475
   18CHL1    C6 1267   4.267   5.830   5.689 -0.3477  0.3361  0.0078
   18CHL1    H6 1268   4.347   5.896   5.728  0.6261  0.1081 -1.5460
   18CHL1    C7 1269   4.268   5.801   5.543 -0.1827 -0.6257 -0.0296
   18CHL1   H7A 1270   4.287   5.898   5.493  0.7364 -1.9492 -2.4265
   18CHL1   H7B 1271   4.353   5.734   5.518  0.2583  0.7681 -2.6574
   18CHL1    C8 1272   4.132   5.749   5.479  0.0830 -0.9372  0.3363
   18CHL1    H8 1273   4.066   5.837   5.464 -2.2466 -2.0658  3.1213
   18CHL1   C14 1274   4.143   5.690   5.342  0.6492  0.0974 -0.6974
   18CHL1   H14 1275   4.214   5.605   5.352  0.5188  0.0457 -0.2336
   18CHL1   C15 1276   4.207   5.772   5.234 -0.0210 -0.3710  0.0148
   18CHL1  H15A 1277   4.164   5.874   5.236 -2.0421 -1.1470 -0.6733
   18CHL1  H15B 1278   4.316   5.782   5.251 -0.0769 -0.2672  0.3138
   18CHL1   C16 1279   4.173   5.700   5.107  0.5600 -0.1788  0.1088
   18CHL1  H16A 1280   4.128   5.779   5.043  1.3228  1.0712  1.0849
   18CHL1  H16B 1281   4.260   5.662   5.048  0.3422  0.6510 -0.7754
   18CHL1   C17 1282   4.064   5.592   5.139 -0.5567 -0.4165 -0.1608
   18CHL1   H17 1283   4.111   5.492   5.153 -2.1414 -1.6313 -2.8013
   18CHL1   C13 1284   4.013   5.630   5.282  0.1737  0.2747  0.9615
   18CHL1   C18 1285   3.906   5.736   5.258  0.0225  0.7128 -0.5230
   18CHL1  H18A 1286   3.932   5.813   5.183 -1.3961  1.8766  0.1203
   18CHL1  H18B 1287   3.808   5.694   5.230  0.5215 -1.2691  0.4892
   18CHL1  H18C 1288   3.901   5.793   5.354  0.1689  0.6809 -0.4964
   18CHL1   C12 1289   3.974   5.526   5.379  0.2864 -0.0975 -0.5524
   18CHL1  H12A 1290   3.875   5.480   5.359 -0.5464  1.5153 -0.2421
   18CHL1  H12B 1291   4.061   5.458   5.362  0.1135 -0.1479 -1.2746
   18CHL1   C11 1292   3.955   5.574   5.521 -0.2680 -0.4711 -0.5222
   18CHL1  H11A 1293   3.866   5.641   5.524 -0.9108 -1.2509 -1.5927
   18CHL1  H11B 1294   3.931   5.487   5.586 -0.1775 -0.3888 -0.3778
   18CHL1    C9 1295   4.073   5.651   5.574 -0.4065  0.0063 -0.7071
   18CHL1    H9 1296   4.155   5.578   5.593 -1.3938 -0.6154  1.5597
   18CHL1   C10 1297   4.040   5.710   5.717 -0.8118  0.3216  0.6382
   18CHL1   C19 1298   3.922   5.814   5.696  0.3111 -0.1968 -0.6748
   18CHL1  H19A 1299   3.941   5.882   5.610 -0.5534  0.7856 -0.1124
   18CHL1  H19B 1300   3.834   5.747   5.699  0.3998 -0.2870 -0.0249
   18CHL1  H19C 1301   3.908   5.886   5.780 -0.5497 -3.5236  2.2470
   18CHL1    C1 1302   4.007   5.603   5.817  0.5525 -0.3774 -1.1778
   18CHL1   H1A 1303   3.907   5.558   5.800 -0.6089  2.4474 -2.7028
   18CHL1   H1B 1304   4.085   5.526   5.805  2.9990  1.8771 -0.7270
   18CHL1    C2 1305   4.012   5.644   5.966  0.0869 -0.3379 -0.0941
   18CHL1   H2A 1306   4.000   5.551   6.026  0.6738 -0.2678  0.1425
   18CHL1   H2B 1307   3.920   5.703   5.982  0.7102  0.6552 -0.0636
   18CHL1   C20 1308   3.963   5.570   5.027  0.5724 -0.2419 -0.1513
   18CHL1   H20 1309   3.892   5.655   5.014 -0.0377 -0.8856 -1.2707
   18CHL1   C21 1310   3.874   5.448   5.051  0.7346 -0.5023 -0.7496
   18CHL1  H21A 1311   3.796   5.442   4.973 -0.8430 -1.4546  0.8395
   18CHL1  H21B 1312   3.829   5.461   5.152  1.0196  1.2606 -0.8210
   18CHL1  H21C 1313   3.943   5.361   5.048  0.5797 -0.6102 -1.3150
   18CHL1   C22 1314   4.028   5.557   4.883 -0.3978  0.2445  0.5302
   18CHL1  H22A 1315   3.947   5.563   4.807  0.1854 -2.3022 -0.4026
   18CHL1  H22B 1316   4.085   5.651   4.870 -1.0929  0.4546 -1.2844
   18CHL1   C23 1317   4.118   5.441   4.852 -0.1475  0.6912 -0.9239
   18CHL1  H23A 1318   4.184   5.433   4.942 -0.9700  1.1952 -0.2556
   18CHL1  H23B 1319   4.062   5.345   4.847 -0.1949  0.4915  1.7388
   18CHL1   C24 1320   4.219   5.458   4.740 -0.5567  0.3363  0.8031
   18CHL1  H24A 1321   4.272   5.551   4.768  0.2181  0.1092  0.1406
   18CHL1  H24B 1322   4.299   5.382   4.735 -1.4333 -0.5477 -0.4018
   18CHL1   C25 1323   4.153   5.481   4.603  0.1252  0.2018  0.3248
   18CHL1   H25 1324   4.074   5.556   4.623  1.6108  2.0679 -0.5157
   18CHL1   C26 1325   4.257   5.529   4.495 -0.6006  0.2091  0.9454
   18CHL1  H26A 1326   4.191   5.558   4.411 -0.7020  1.1235  1.3268
   18CHL1  H26B 1327   4.318   5.615   4.530 -0.6429  1.9414 -2.7983
   18CHL1  H26C 1328   4.328   5.447   4.472  0.0617  1.0506 -0.0863
   18CHL1   C27 1329   4.086   5.363   4.534  0.2043  0.4633 -0.3067
   18CHL1  H27A 1330   4.160   5.279   4.537 -2.0107 -1.5798  1.7346
   18CHL1  H27B 1331   4.015   5.319   4.608  0.7034 -1.0786 -0.6916
   18CHL1  H27C 1332   4.027   5.378   4.441  1.2841  1.1971 -0.8887
   19CHL1    C3 1333   3.462   5.257   6.317 -0.2474  0.1104  0.7570
   19CHL1    H3 1334   3.520   5.165   6.297 -1.2576 -0.4635  0.4070
   19CHL1    O3 1335   3.449   5.281   6.456  0.1652 -0.3357  0.2297
   19CHL1   H3' 1336   3.414   5.370   6.470  0.6170 -0.1952  0.4753
   19CHL1    C4 1337   3.525   5.377   6.250 -0.3100 -0.0329 -0.3221
   19CHL1   H4A 1338   3.450   5.456   6.268 -0.3933  0.2878 -1.9396
   19CHL1   H4B 1339   3.622   5.402   6.297  0.4197 -1.1089 -1.1956
   19CHL1    C5 1340   3.534   5.352   6.100  0.8585  0.0087 -0.9843
   19CHL1    C6 1341   3.654   5.360   6.043  0.2411 -0.3289  0.0166
   19CHL1    H6 1342   3.741   5.388   6.105 -0.8298  0.3736  1.2399
   19CHL1    C7 1343   3.675   5.358   5.900 -0.1182  0.5262 -0.1646
   19CHL1   H7A 1344   3.733   5.446   5.864  0.4618 -0.1223 -0.8405
   19CHL1   H7B 1345   3.738   5.269   5.880  1.0225  1.6576 -1.7487
   19CHL1    C8 1346   3.544   5.352   5.822  0.3944 -0.1189 -0.0323
   19CHL1    H8 1347   3.508   5.458   5.825 -2.3568 -0.9937  2.4214
   19CHL1   C14 1348   3.569   5.296   5.683 -0.7517 -0.5953  0.4127
   19CHL1   H14 1349   3.594   5.189   5.694  0.2559 -0.3039  1.1184
   19CHL1   C15 1350   3.686   5.365   5.600 -0.8085 -0.4222  0.4415
   19CHL1  H15A 1351   3.696   5.475   5.616  0.2565  0.0413 -2.7003
   19CHL1  H15B 1352   3.785   5.314   5.606 -0.3101  0.3695 -0.6586
   19CHL1   C16 1353   3.637   5.351   5.456 -0.0882  0.9984  0.2317
   19CHL1  H16A 1354   3.610   5.453   5.422  0.5506  1.0775 -0.0621
   19CHL1  H16B 1355   3.717   5.310   5.390  0.9740  1.6021  1.1115
   19CHL1   C17 1356   3.504   5.270   5.463 -0.1364  0.1959 -0.2866
   19CHL1   H17 1357   3.535   5.164   5.464 -0.1524  0.1939 -0.1062
   19CHL1   C13 1358   3.443   5.302   5.599  0.2380  0.2033 -0.0538
   19CHL1   C18 1359   3.386   5.450   5.582  0.1933  0.2448  0.8426
   19CHL1  H18A 1360   3.352   5.479   5.684  0.2750 -0.6492  1.1407
   19CHL1  H18B 1361   3.455   5.531   5.550  1.5387 -1.2966 -0.2962
   19CHL1  H18C 1362   3.296   5.450   5.518  0.4034 -0.9612  0.5177
   19CHL1   C12 1363   3.347   5.199   5.658  0.3138 -0.4174 -0.3151
   19CHL1  H12A 1364   3.254   5.203   5.597 -1.3969 -1.6946  2.0191
   19CHL1  H12B 1365   3.380   5.093   5.657 -0.0004 -0.5488  0.7617
   19CHL1   C11 1366   3.314   5.238   5.806 -0.2653 -0.1279 -0.2638
   19CHL1  H11A 1367   3.242   5.322   5.820  1.3151  1.1727  0.4963
   19CHL1  H11B 1368   3.259   5.163   5.866 -2.0418  1.8203  0.6979
   19CHL1    C9 1369   3.442   5.268   5.891 -0.3208  0.2121 -0.0534
   19CHL1    H9 1370   3.490   5.170   5.911  1.6358  1.0902 -0.2107
   19CHL1   C10 1371   3.403   5.319   6.033 -0.6149 -0.2051 -0.0051
   19CHL1   C19 1372   3.311   5.448   6.035 -0.0821 -0.4096  0.2694
   19CHL1  H19A 1373   3.351   5.530   5.972 -1.4101  0.2561  0.2660
   19CHL1  H19B 1374   3.212   5.424   5.992 -0.4846  2.0862 -0.3342
   19CHL1  H19C 1375   3.283   5.488   6.135  1.0734  2.2231 -0.3857
   19CHL1    C1 1376   3.328   5.205   6.110  0.2439  0.4082 -1.3597
   19CHL1   H1A 1377   3.223   5.201   6.075 -0.3438 -0.2132  0.3941
   19CHL1   H1B 1378   3.373   5.105   6.089 -1.4319  0.0731 -3.8104
   19CHL1    C2 1379   3.319   5.233   6.266 -0.1743  0.6347  0.5385
   19CHL1   H2A 1380   3.284   5.146   6.326  1.5301 -0.1862  0.4222
   19CHL1   H2B 1381   3.259   5.325   6.276  0.1109  0.7349  1.4368
   19CHL1   C20 1382   3.415   5.279   5.341 -0.3923 -0.2032  0.1507
   19CHL1   H20 1383   3.335   5.356   5.344 -0.5521 -0.4001  1.5316
   19CHL1   C21 1384   3.351   5.139   5.327  0.6072  0.6835 -0.4572
   19CHL1  H21A 1385   3.291   5.109   5.415 -2.1843  2.0545 -1.7757
   19CHL1  H21B 1386   3.432   5.066   5.304  0.5186 -0.2624  1.9038
   19CHL1  H21C 1387   3.276   5.130   5.246 -0.5667 -1.8213  0.7765
   19CHL1   C22 1388   3.485   5.300   5.201  0.0119 -0.5405 -0.3298
   19CHL1  H22A 1389   3.534   5.400   5.206 -0.9790  0.0138 -1.2883
   19CHL1  H22B 1390   3.570   5.229   5.197  3.7885  3.2647  2.4289
   19CHL1   C23 1391   3.393   5.316   5.082 -0.3985  0.6188  1.4072
   19CHL1  H23A 1392   3.363   5.213   5.050  0.6565  0.1837  1.7665
   19CHL1  H23B 1393   3.303   5.371   5.115 -0.0706  1.6154  0.6726
   19CHL1   C24 1394   3.471   5.392   4.967 -0.0170  0.1826  0.0122
   19CHL1  H24A 1395   3.490   5.497   5.000  0.0526  0.9313 -2.2287
   19CHL1  H24B 1396   3.571   5.349   4.941  0.1130  1.5677 -2.0232
   19CHL1   C25 1397   3.379   5.406   4.844  0.4365 -0.1088  0.1244
   19CHL1   H25 1398   3.276   5.439   4.871  1.0588  2.0880 -0.0051
   19CHL1   C26 1399   3.445   5.502   4.748 -0.0803  0.4086  0.1545
   19CHL1  H26A 1400   3.459   5.608   4.780  2.6037  0.5066 -1.0859
   19CHL1  H26B 1401   3.545   5.458   4.728 -0.1177  0.7312 -0.7802
   19CHL1  H26C 1402   3.397   5.506   4.648 -0.0309 -1.3540  0.0304
   19CHL1   C27 1403   3.339   5.278   4.763 -0.0487  0.4395  0.5995
   19CHL1  H27A 1404   3.281   5.313   4.675 -0.8665  1.9496  1.7022
   19CHL1  H27B 1405   3.430   5.222   4.731 -0.8366 -0.7998  0.4619
   19CHL1  H27C 1406   3.275   5.207   4.821  0.8175 -2.3211 -1.5783
   20CHL1    C3 1407   3.065   0.466   5.842 -0.3476 -0.0665  0.5844
   20CHL1    H3 1408   2.995   0.550   5.860  1.3991  1.6150 -0.1518
   20CHL1    O3 1409   3.135   0.450   5.960 -0.0230  0.1269 -0.4707
   20CHL1   H3' 1410   3.176   0.364   5.950  0.3527  0.4632 -2.2712
   20CHL1    C4 1411   2.989   0.339   5.811  1.1463 -0.1352  0.8096
   20CHL1   H4A 1412   3.045   0.244   5.827  1.1684  0.2082  3.0455
   20CHL1   H4B 1413   2.908   0.340   5.888 -0.0748  0.1504 -0.4395
   20CHL1    C5 1414   2.921   0.339   5.668 -0.0886  0.5727  0.0279
   20CHL1    C6 1415   2.790   0.314   5.667  0.9411  0.4856  0.2101
   20CHL1    H6 1416   2.739   0.282   5.759 -0.7645 -1.8454 -1.4189
   20CHL1    C7 1417   2.713   0.325   5.541 -0.8287  0.2207  0.3382
   20CHL1   H7A 1418   2.638   0.245   5.524  0.2238 -0.3313 -2.0925
   20CHL1   H7B 1419   2.659   0.422   5.533  1.7094  1.7838  0.9739
   20CHL1    C8 1420   2.814   0.314   5.420 -0.6109 -0.1189  0.1489
   20CHL1    H8 1421   2.848   0.208   5.422 -1.2252 -0.3250 -0.0182
   20CHL1   C14 1422   2.735   0.340   5.291  0.4896 -0.0567  0.4608
   20CHL1   H14 1423   2.696   0.444   5.302 -0.1193 -0.5732  4.4085
   20CHL1   C15 1424   2.606   0.251   5.260 -0.3300 -0.6031 -0.0632
   20CHL1  H15A 1425   2.620   0.142   5.276 -2.7078 -0.6893  2.0808
   20CHL1  H15B 1426   2.526   0.298   5.323  1.0021  3.5204 -1.1373
   20CHL1   C16 1427   2.588   0.274   5.108  0.2994 -0.0002 -0.2285
   20CHL1  H16A 1428   2.573   0.173   5.064  1.2465 -0.2614  0.0387
   20CHL1  H16B 1429   2.490   0.325   5.094 -0.5416 -1.6249 -0.4655
   20CHL1   C17 1430   2.707   0.356   5.050 -0.1682 -0.3740 -0.1283
   20CHL1   H17 1431   2.666   0.459   5.053 -1.1891 -0.7796  0.4313
   20CHL1   C13 1432   2.820   0.340   5.156  0.5689  0.9418 -0.4654
   20CHL1   C18 1433   2.884   0.199   5.138  0.0950  0.3054 -0.6276
   20CHL1  H18A 1434   2.947   0.209   5.047  4.2372 -1.4889  1.7333
   20CHL1  H18B 1435   2.951   0.173   5.223  0.8772  3.5913 -0.1101
   20CHL1  H18C 1436   2.808   0.118   5.132 -0.1801  0.4321  0.7673
   20CHL1   C12 1437   2.915   0.458   5.173 -0.2137 -0.1022 -0.1267
   20CHL1  H12A 1438   2.988   0.464   5.090 -0.1535  1.3429  0.0149
   20CHL1  H12B 1439   2.867   0.557   5.189 -0.0705  0.5171 -3.0830
   20CHL1   C11 1440   3.007   0.431   5.297 -0.3353 -0.1126  0.4921
   20CHL1  H11A 1441   3.066   0.338   5.282  1.8541  0.9004  2.2974
   20CHL1  H11B 1442   3.070   0.522   5.296 -0.8108  0.4917 -4.8729
   20CHL1    C9 1443   2.928   0.415   5.427  0.4554 -0.0348 -0.3522
   20CHL1    H9 1444   2.876   0.511   5.446  1.1206  0.1912  0.3865
   20CHL1   C10 1445   3.012   0.384   5.554 -0.1834  0.1471 -0.2136
   20CHL1   C19 1446   3.116   0.274   5.511 -0.2261  0.3465  0.6629
   20CHL1  H19A 1447   3.075   0.189   5.453  0.6413  0.3615  0.0091
   20CHL1  H19B 1448   3.197   0.308   5.444  0.5013 -1.5544  0.5196
   20CHL1  H19C 1449   3.180   0.243   5.597  1.5058  0.9938 -0.3534
   20CHL1    C1 1450   3.085   0.515   5.594 -0.5097  0.4540  0.1503
   20CHL1   H1A 1451   3.157   0.546   5.515 -0.9318  1.9969  0.3366
   20CHL1   H1B 1452   3.021   0.606   5.603 -0.3338  0.9771 -2.8280
   20CHL1    C2 1453   3.158   0.512   5.729  0.2876  0.1969 -0.0246
   20CHL1   H2A 1454   3.194   0.615   5.749  0.3276  0.5614 -1.7850
   20CHL1   H2B 1455   3.240   0.438   5.715  0.6417  0.9249 -2.3224
   20CHL1   C20 1456   2.729   0.327   4.895 -0.5899  0.6236 -0.1650
   20CHL1   H20 1457   2.754   0.219   4.897  2.8087  1.2797 -0.6963
   20CHL1   C21 1458   2.852   0.403   4.846  0.2445  0.7155 -0.7821
   20CHL1  H21A 1459   2.947   0.379   4.899 -0.6331  0.0697  0.5657
   20CHL1  H21B 1460   2.836   0.513   4.848  1.7078  0.9492 -0.8067
   20CHL1  H21C 1461   2.862   0.402   4.736 -1.5091  4.2899 -1.1079
   20CHL1   C22 1462   2.599   0.335   4.812  0.4692  1.1533 -0.3644
   20CHL1  H22A 1463   2.516   0.283   4.864  0.4129  1.9123  0.3098
   20CHL1  H22B 1464   2.563   0.439   4.800  1.0015  1.2072 -1.6591
   20CHL1   C23 1465   2.597   0.272   4.671 -0.1910 -0.6198  0.6847
   20CHL1  H23A 1466   2.667   0.324   4.603 -1.7024 -1.9194 -2.0582
   20CHL1  H23B 1467   2.629   0.166   4.679  3.3297  0.4295  2.0779
   20CHL1   C24 1468   2.457   0.296   4.600  0.5968  0.2855 -0.2042
   20CHL1  H24A 1469   2.371   0.280   4.668 -0.5456 -1.0999 -1.9002
   20CHL1  H24B 1470   2.459   0.403   4.568  0.9964  1.0780  2.2761
   20CHL1   C25 1471   2.438   0.212   4.468 -0.7991  0.2402  0.3547
   20CHL1   H25 1472   2.431   0.105   4.499 -0.7426  0.0737 -0.2045
   20CHL1   C26 1473   2.298   0.254   4.424 -0.6822  0.5094  0.2746
   20CHL1  H26A 1474   2.302   0.364   4.410 -1.4957  0.4863 -0.1736
   20CHL1  H26B 1475   2.270   0.209   4.326  0.3659 -0.9474  0.6013
   20CHL1  H26C 1476   2.224   0.224   4.501 -0.0840  1.6142  1.2900
   20CHL1   C27 1477   2.544   0.241   4.363 -0.7597 -0.3027  1.0811
   20CHL1  H27A 1478   2.647   0.212   4.390  1.0232  1.2487 -3.1963
   20CHL1  H27B 1479   2.529   0.198   4.262  0.2319  1.2257  0.2375
   20CHL1  H27C 1480   2.551   0.351   4.343 -0.3506 -0.1787  1.8777
   21CHL1    C3 1481   1.647   6.306   6.007 -0.1301 -0.5486 -1.0832
   21CHL1    H3 1482   1.577   6.384   5.971  0.2035  1.4997  2.2123
   21CHL1    O3 1483   1.682   6.340   6.138 -0.5424  0.0285 -0.2660
   21CHL1   H3' 1484   1.728   6.265   6.177 -1.2947  0.0483  0.7016
   21CHL1    C4 1485   1.581   6.174   6.007 -0.0189  0.3045  0.1869
   21CHL1   H4A 1486   1.662   6.103   6.034  0.8192  0.5931 -1.4369
   21CHL1   H4B 1487   1.494   6.172   6.076  0.2317  1.0638  0.5388
   21CHL1    C5 1488   1.531   6.133   5.868 -0.1449  0.5942 -0.4602
   21CHL1    C6 1489   1.402   6.106   5.852 -0.3332 -0.3542 -0.1118
   21CHL1    H6 1490   1.338   6.092   5.940  1.5509 -0.8348  1.2596
   21CHL1    C7 1491   1.352   6.068   5.712 -0.3816  0.5686 -0.0325
   21CHL1   H7A 1492   1.295   5.973   5.722 -2.7679  1.9250  0.0848
   21CHL1   H7B 1493   1.284   6.143   5.667  1.5977  2.8605  0.6137
   21CHL1    C8 1494   1.464   6.052   5.603  0.3474  0.2980 -0.2699
   21CHL1    H8 1495   1.505   5.952   5.628  1.1774  0.7130  0.0571
   21CHL1   C14 1496   1.404   6.057   5.470  0.7699 -0.3417  0.8663
   21CHL1   H14 1497   1.373   6.163   5.463 -0.3197 -0.6939  0.0748
   21CHL1   C15 1498   1.278   5.974   5.445  0.1153  0.1080 -0.2466
   21CHL1  H15A 1499   1.307   5.880   5.496  0.4350  0.6383  0.5716
   21CHL1  H15B 1500   1.192   6.017   5.500 -0.5855 -1.5686  0.0118
   21CHL1   C16 1501   1.269   5.962   5.288  0.4486  0.4128 -0.1715
   21CHL1  H16A 1502   1.274   5.858   5.249 -0.7429  1.0049 -2.0803
   21CHL1  H16B 1503   1.174   6.015   5.262 -0.0974 -0.1273  0.6653
   21CHL1   C17 1504   1.386   6.050   5.232  0.3575 -0.4875  0.0257
   21CHL1   H17 1505   1.343   6.152   5.230  2.2166  0.3356 -0.8435
   21CHL1   C13 1506   1.492   6.038   5.349  0.3553  0.4597  0.3197
   21CHL1   C18 1507   1.562   5.894   5.342 -0.3625 -0.6526 -0.5588
   21CHL1  H18A 1508   1.619   5.875   5.249  0.1329  0.3503 -0.4719
   21CHL1  H18B 1509   1.626   5.881   5.432  1.4844  0.3979 -1.6530
   21CHL1  H18C 1510   1.482   5.819   5.355 -1.2883  0.7492  2.9747
   21CHL1   C12 1511   1.594   6.148   5.348 -0.6934 -0.2215 -0.1295
   21CHL1  H12A 1512   1.671   6.132   5.270 -0.9780 -2.7086  0.0055
   21CHL1  H12B 1513   1.557   6.253   5.340 -1.1175 -0.2567  1.1272
   21CHL1   C11 1514   1.667   6.143   5.486 -0.4661  0.7346  0.6723
   21CHL1  H11A 1515   1.721   6.046   5.493 -0.2214  0.7485 -0.7765
   21CHL1  H11B 1516   1.741   6.223   5.503  0.3858  0.0428  0.2921
   21CHL1    C9 1517   1.574   6.148   5.613  0.3329  0.9605 -0.0730
   21CHL1    H9 1518   1.521   6.246   5.609  1.7993  1.7431 -1.4810
   21CHL1   C10 1519   1.639   6.150   5.755  0.2923 -0.5088  0.0632
   21CHL1   C19 1520   1.739   6.033   5.764  0.2270 -0.0144 -0.6519
   21CHL1  H19A 1521   1.822   6.038   5.691 -0.5815  3.8744 -1.5594
   21CHL1  H19B 1522   1.775   6.017   5.868  0.2538  2.5113 -0.2050
   21CHL1  H19C 1523   1.684   5.938   5.744 -4.4377  1.7067  2.2649
   21CHL1    C1 1524   1.718   6.287   5.771  0.1314  0.8194 -0.2038
   21CHL1   H1A 1525   1.803   6.291   5.700 -1.1788 -1.1528 -2.0336
   21CHL1   H1B 1526   1.650   6.371   5.743 -1.0879 -0.3347 -0.8253
   21CHL1    C2 1527   1.767   6.312   5.914 -0.1118 -0.1412 -0.1875
   21CHL1   H2A 1528   1.812   6.413   5.923 -0.2740 -0.1052  0.2659
   21CHL1   H2B 1529   1.840   6.237   5.950  0.2622 -0.3080 -1.2732
   21CHL1   C20 1530   1.421   6.020   5.095  0.7103 -0.7602  0.1705
   21CHL1   H20 1531   1.476   5.923   5.085 -0.0209 -1.1065 -0.6658
   21CHL1   C21 1532   1.513   6.131   5.031  0.1585  0.8401 -0.4527
   21CHL1  H21A 1533   1.613   6.086   5.046 -0.2952  0.1753  0.6621
   21CHL1  H21B 1534   1.506   6.222   5.095  0.6456  0.8209 -0.3738
   21CHL1  H21C 1535   1.503   6.140   4.920 -1.6332 -0.0870 -0.4087
   21CHL1   C22 1536   1.304   6.005   4.992  0.9719  0.5819  0.0490
   21CHL1  H22A 1537   1.349   5.964   4.899 -2.7869 -0.6936 -1.3909
   21CHL1  H22B 1538   1.233   5.931   5.033 -0.5179  2.5718  1.2353
   21CHL1   C23 1539   1.218   6.125   4.949 -0.3077 -0.4651  0.0970
   21CHL1  H23A 1540   1.139   6.157   5.020 -0.7014 -0.0669 -0.5111
   21CHL1  H23B 1541   1.284   6.212   4.926 -1.1563  0.6443  1.6363
   21CHL1   C24 1542   1.139   6.089   4.818  0.7156 -0.0625 -0.8885
   21CHL1  H24A 1543   1.222   6.053   4.754  0.0996 -4.2424  0.3823
   21CHL1  H24B 1544   1.062   6.010   4.832  2.8605 -2.4159 -1.5817
   21CHL1   C25 1545   1.071   6.218   4.764  0.1702  0.3589  0.5388
   21CHL1   H25 1546   1.144   6.300   4.780 -0.2200  0.3621  2.5825
   21CHL1   C26 1547   1.045   6.196   4.619 -0.2023 -1.1680 -0.1637
   21CHL1  H26A 1548   1.132   6.141   4.580  0.3504 -2.1563  2.2748
   21CHL1  H26B 1549   0.959   6.127   4.603 -0.0816 -0.7930 -2.7787
   21CHL1  H26C 1550   1.028   6.291   4.564 -1.0174  0.2731  2.3761
   21CHL1   C27 1551   0.944   6.232   4.839  1.3412  0.3443 -0.1038
   21CHL1  H27A 1552   0.878   6.145   4.816  0.3352  1.4476 -1.6047
   21CHL1  H27B 1553   0.962   6.243   4.948 -1.3198  2.0030  0.2551
   21CHL1  H27C 1554   0.890   6.318   4.793  2.6410  1.6250  0.6969
   22CHL1    C3 1555   3.348   3.425   6.024 -0.4589 -0.2255  0.3950
   22CHL1    H3 1556   3.255   3.397   5.969 -1.0318  0.4231  1.0151
   22CHL1    O3 1557   3.318   3.437   6.163 -0.1774  0.5899  0.3905
   22CHL1   H3' 1558   3.406   3.453   6.198  0.1034  0.8676 -0.4185
   22CHL1    C4 1559   3.440   3.312   6.002  0.0308  0.6467 -0.3539
   22CHL1   H4A 1560   3.533   3.309   6.064  0.5704 -1.1411 -1.1954
   22CHL1   H4B 1561   3.385   3.217   6.020 -0.1141  0.4119 -1.9530
   22CHL1    C5 1562   3.492   3.299   5.863  0.1216 -0.3142  0.0529
   22CHL1    C6 1563   3.511   3.181   5.792  0.1517 -1.2635  0.0916
   22CHL1    H6 1564   3.479   3.088   5.841  0.5908 -0.5622  1.7739
   22CHL1    C7 1565   3.566   3.170   5.652  0.0940 -0.6408 -0.0673
   22CHL1   H7A 1566   3.639   3.086   5.649 -1.5557 -2.1199 -0.3422
   22CHL1   H7B 1567   3.491   3.135   5.578  0.4515 -0.7720 -0.3730
   22CHL1    C8 1568   3.624   3.297   5.594 -0.1312 -0.4924  0.3316
   22CHL1    H8 1569   3.725   3.320   5.633 -0.0456 -0.5453  0.1423
   22CHL1   C14 1570   3.632   3.285   5.444 -0.0546 -0.3749 -0.5605
   22CHL1   H14 1571   3.533   3.264   5.398 -0.6720  1.8851 -0.3976
   22CHL1   C15 1572   3.717   3.167   5.388 -0.2995 -0.1734  0.0688
   22CHL1  H15A 1573   3.810   3.146   5.444  1.0606 -0.1641 -2.0898
   22CHL1  H15B 1574   3.651   3.079   5.401  1.9398 -1.8887  0.3898
   22CHL1   C16 1575   3.760   3.214   5.244  0.7560  0.2108  0.1728
   22CHL1  H16A 1576   3.870   3.230   5.246  1.0093 -0.3838 -2.9379
   22CHL1  H16B 1577   3.727   3.141   5.167 -0.2545 -0.0902  0.8701
   22CHL1   C17 1578   3.694   3.353   5.224 -0.3764 -0.6657 -0.0452
   22CHL1   H17 1579   3.589   3.328   5.198 -1.6566  1.4702  2.6887
   22CHL1   C13 1580   3.677   3.411   5.367  0.2912 -0.0432 -0.0208
   22CHL1   C18 1581   3.812   3.468   5.411 -0.3415  0.3326  0.3650
   22CHL1  H18A 1582   3.828   3.571   5.370  0.0784 -0.1971 -0.8494
   22CHL1  H18B 1583   3.812   3.488   5.520  0.4829  1.1204  0.2400
   22CHL1  H18C 1584   3.895   3.396   5.393 -0.2171 -0.1929  2.7068
   22CHL1   C12 1585   3.573   3.520   5.403 -0.1985  0.3745 -0.0011
   22CHL1  H12A 1586   3.598   3.619   5.359 -1.0540  0.3792 -0.4983
   22CHL1  H12B 1587   3.479   3.499   5.347 -0.8143 -0.5999  1.3355
   22CHL1   C11 1588   3.558   3.535   5.554 -0.2448 -0.3205 -0.4119
   22CHL1  H11A 1589   3.648   3.590   5.589 -0.5219 -0.0089 -0.1738
   22CHL1  H11B 1590   3.479   3.614   5.558  0.4684  0.4024 -0.3735
   22CHL1    C9 1591   3.532   3.407   5.632 -0.0401 -0.3404  0.4605
   22CHL1    H9 1592   3.427   3.378   5.609  0.5314 -0.7578 -1.8412
   22CHL1   C10 1593   3.535   3.425   5.794  0.0476 -0.4400 -0.3598
   22CHL1   C19 1594   3.673   3.487   5.838  0.4197  0.1723  0.2163
   22CHL1  H19A 1595   3.684   3.594   5.813 -2.1625  0.5092  0.2633
   22CHL1  H19B 1596   3.692   3.475   5.947  0.1606  1.0394  0.3586
   22CHL1  H19C 1597   3.752   3.419   5.798  0.0204 -0.1000 -0.1164
   22CHL1    C1 1598   3.435   3.533   5.821 -0.1966 -0.0787 -0.2398
   22CHL1   H1A 1599   3.470   3.631   5.781  0.9772  0.1727  1.3255
   22CHL1   H1B 1600   3.335   3.513   5.775 -0.7053  0.7068  0.4981
   22CHL1    C2 1601   3.400   3.555   5.969 -0.0300 -0.4234  0.3080
   22CHL1   H2A 1602   3.331   3.641   5.980 -0.7995 -0.9906  0.0777
   22CHL1   H2B 1603   3.494   3.586   6.018  0.4146  1.4026 -1.5577
   22CHL1   C20 1604   3.766   3.432   5.110 -0.1829 -1.2691  0.5747
   22CHL1   H20 1605   3.860   3.478   5.148  1.1004 -1.3064 -2.2417
   22CHL1   C21 1606   3.672   3.548   5.065 -0.4432  0.3564 -0.1145
   22CHL1  H21A 1607   3.668   3.623   5.147 -1.4119  1.7564 -1.3784
   22CHL1  H21B 1608   3.567   3.514   5.051 -0.6964  0.1009  2.1752
   22CHL1  H21C 1609   3.713   3.591   4.971 -1.4084  1.9543  0.1574
   22CHL1   C22 1610   3.801   3.343   4.985 -0.1354 -0.1252 -0.6667
   22CHL1  H22A 1611   3.869   3.269   5.032 -0.9265 -1.0645 -0.9716
   22CHL1  H22B 1612   3.713   3.300   4.932  0.9412 -0.6810 -2.0807
   22CHL1   C23 1613   3.888   3.409   4.880  0.0919  0.3067 -0.3235
   22CHL1  H23A 1614   3.822   3.489   4.840  0.3794  1.7426  1.8992
   22CHL1  H23B 1615   3.982   3.446   4.926  0.9460 -0.8759 -1.0698
   22CHL1   C24 1616   3.927   3.320   4.759  0.6909 -0.4824  0.0985
   22CHL1  H24A 1617   3.956   3.224   4.806 -1.9404 -1.9202 -1.0005
   22CHL1  H24B 1618   3.842   3.298   4.691  1.5739  1.6048 -1.8223
   22CHL1   C25 1619   4.052   3.380   4.689 -0.6637 -0.3468  1.0175
   22CHL1   H25 1620   4.127   3.426   4.758  1.5951 -2.1474 -0.1221
   22CHL1   C26 1621   4.132   3.267   4.621  0.5794  0.1321  0.4917
   22CHL1  H26A 1622   4.176   3.193   4.693  1.0711  1.6285  1.7843
   22CHL1  H26B 1623   4.068   3.206   4.554  1.5828 -1.1415  0.6330
   22CHL1  H26C 1624   4.213   3.307   4.556  0.2095 -0.8829 -0.6318
   22CHL1   C27 1625   4.024   3.498   4.591 -0.4317  0.0669  0.1995
   22CHL1  H27A 1626   3.974   3.584   4.639  1.0102  1.5196 -0.8139
   22CHL1  H27B 1627   4.118   3.536   4.547 -0.7863  1.9698  1.0066
   22CHL1  H27C 1628   3.952   3.466   4.512  0.0486  0.0658 -0.2431
   23CHL1    C3 1629   2.296   0.990   5.920  0.0611 -0.8045  0.3651
   23CHL1    H3 1630   2.335   0.887   5.909  3.0631  0.0203  2.2392
   23CHL1    O3 1631   2.298   1.028   6.056 -0.1624  0.1783  0.1504
   23CHL1   H3' 1632   2.312   0.946   6.103 -0.2886 -0.6244 -1.1848
   23CHL1    C4 1633   2.382   1.093   5.836  0.0857 -0.1600  0.3278
   23CHL1   H4A 1634   2.354   1.195   5.869  0.6845 -0.3710  1.5218
   23CHL1   H4B 1635   2.488   1.083   5.869 -0.0243 -0.1635  0.6822
   23CHL1    C5 1636   2.354   1.085   5.687  0.1760 -0.1688  0.4909
   23CHL1    C6 1637   2.453   1.099   5.599  0.1835  0.0818  1.1556
   23CHL1    H6 1638   2.554   1.126   5.635  0.5084  0.7584 -0.1848
   23CHL1    C7 1639   2.436   1.085   5.452 -0.3395  0.3342  0.5243
   23CHL1   H7A 1640   2.501   1.146   5.386 -0.6149  0.5414  0.4403
   23CHL1   H7B 1641   2.453   0.977   5.434 -1.9519  0.1250  0.1409
   23CHL1    C8 1642   2.288   1.091   5.397 -0.0343 -0.1339 -0.0595
   23CHL1    H8 1643   2.253   1.197   5.395  0.5154  0.2655  3.5847
   23CHL1   C14 1644   2.285   1.045   5.254  0.2686 -0.0698 -0.3380
   23CHL1   H14 1645   2.308   0.936   5.258 -2.6611 -0.8168 -0.8600
   23CHL1   C15 1646   2.378   1.103   5.156 -0.2767 -0.5785 -0.5106
   23CHL1  H15A 1647   2.386   1.211   5.180  0.9202 -0.7631 -0.0044
   23CHL1  H15B 1648   2.474   1.048   5.167  0.0921 -0.0965 -1.2465
   23CHL1   C16 1649   2.321   1.083   5.019 -0.0443  0.1098  0.5275
   23CHL1  H16A 1650   2.286   1.177   4.970  0.3148 -0.5464 -1.0459
   23CHL1  H16B 1651   2.386   1.018   4.957  0.0813 -0.3102  1.0937
   23CHL1   C17 1652   2.193   0.994   5.040 -0.4696 -0.4557 -0.9003
   23CHL1   H17 1653   2.222   0.887   5.039  1.4640  0.0267 -1.1314
   23CHL1   C13 1654   2.150   1.039   5.188  0.4072  0.1377 -0.0969
   23CHL1   C18 1655   2.086   1.178   5.186  0.8394  0.3637  0.3837
   23CHL1  H18A 1656   2.063   1.220   5.286 -2.5248  1.8939 -0.9065
   23CHL1  H18B 1657   2.144   1.254   5.129  2.0818 -1.2554 -0.5944
   23CHL1  H18C 1658   1.982   1.182   5.149  0.1780  0.1614  2.1199
   23CHL1   C12 1659   2.064   0.943   5.273  0.0711 -0.2433 -0.2861
   23CHL1  H12A 1660   1.956   0.948   5.247 -0.2398 -0.9139  0.7923
   23CHL1  H12B 1661   2.099   0.838   5.266 -1.2157 -0.7448  0.4441
   23CHL1   C11 1662   2.061   0.975   5.429 -0.4792  0.7499  0.3476
   23CHL1  H11A 1663   1.993   1.063   5.438 -0.3396  0.8201  0.7673
   23CHL1  H11B 1664   2.011   0.895   5.487  0.5870  0.0311  0.2952
   23CHL1    C9 1665   2.198   1.005   5.492  0.2887 -0.1269 -0.0951
   23CHL1    H9 1666   2.246   0.904   5.492 -2.0735 -1.3195  0.7900
   23CHL1   C10 1667   2.209   1.054   5.639 -0.2091  0.0441 -0.9657
   23CHL1   C19 1668   2.119   1.178   5.653 -0.1144 -0.2796  0.2735
   23CHL1  H19A 1669   2.139   1.239   5.744  0.2468  1.5670 -1.0089
   23CHL1  H19B 1670   2.146   1.236   5.563 -0.6184 -1.2129 -0.4992
   23CHL1  H19C 1671   2.009   1.158   5.647 -0.5714  2.0207  0.0036
   23CHL1    C1 1672   2.140   0.953   5.731 -0.5699 -0.3574 -0.5902
   23CHL1   H1A 1673   2.034   0.951   5.698 -0.9287  1.7093  0.2639
   23CHL1   H1B 1674   2.185   0.856   5.700  0.3507  0.0308 -0.5149
   23CHL1    C2 1675   2.151   0.980   5.878 -0.3278 -0.4900  0.0030
   23CHL1   H2A 1676   2.114   0.886   5.925  0.4372 -0.5613  0.4687
   23CHL1   H2B 1677   2.090   1.070   5.901  1.1449  0.2614  1.0784
   23CHL1   C20 1678   2.092   1.010   4.922  0.4299  0.0352 -0.0896
   23CHL1   H20 1679   2.055   1.114   4.919 -0.6022 -0.3144  0.1502
   23CHL1   C21 1680   1.969   0.931   4.948 -0.2972  0.1523  0.1845
   23CHL1  H21A 1681   1.989   0.825   4.977 -0.8250 -0.1099 -0.3701
   23CHL1  H21B 1682   1.888   0.933   4.872 -0.6601 -1.9978  0.4525
   23CHL1  H21C 1683   1.935   0.971   5.046  1.3190 -1.3090  1.4056
   23CHL1   C22 1684   2.134   0.977   4.775 -0.2103  0.0765 -0.6657
   23CHL1  H22A 1685   2.231   1.026   4.750  1.6080 -2.5999  0.6518
   23CHL1  H22B 1686   2.159   0.869   4.772 -0.6624 -0.1204  1.4613
   23CHL1   C23 1687   2.026   1.009   4.675 -0.6602 -0.4482  0.8631
   23CHL1  H23A 1688   1.934   0.947   4.671 -1.1649  0.3207 -1.1180
   23CHL1  H23B 1689   1.993   1.111   4.706 -2.5416 -0.7969  0.1512
   23CHL1   C24 1690   2.078   1.008   4.530  0.3721 -0.2930 -0.3657
   23CHL1  H24A 1691   2.172   1.065   4.513 -1.0922  1.9336 -1.5545
   23CHL1  H24B 1692   2.106   0.901   4.526 -0.0818 -0.5212  1.8152
   23CHL1   C25 1693   1.975   1.045   4.411 -0.6707  0.2715  0.0474
   23CHL1   H25 1694   1.948   1.150   4.434 -1.0574  0.1240  0.2767
   23CHL1   C26 1695   2.048   1.030   4.269 -0.2293 -0.5388  0.4399
   23CHL1  H26A 1696   1.978   1.071   4.194 -0.6041 -0.3303  0.8950
   23CHL1  H26B 1697   2.148   1.079   4.270 -0.5417  0.1022  0.7826
   23CHL1  H26C 1698   2.063   0.921   4.252  0.2742 -0.4621  0.3833
   23CHL1   C27 1699   1.854   0.967   4.407  0.4882  0.6803  0.1481
   23CHL1  H27A 1700   1.797   0.961   4.502 -1.5425  1.8912 -0.9221
   23CHL1  H27B 1701   1.789   1.005   4.325  0.4938 -0.2957 -0.3232
   23CHL1  H27C 1702   1.872   0.863   4.373  1.4385  0.1391  2.1667
   24CHL1    C3 1703   3.811   2.172   5.864  0.0724  0.3917  0.2464
   24CHL1    H3 1704   3.738   2.092   5.837  2.5076 -1.7756 -0.4015
   24CHL1    O3 1705   3.815   2.205   6.003 -0.3227 -0.4389  0.2869
   24CHL1   H3' 1706   3.794   2.298   6.015  0.0856 -0.4253  0.9465
   24CHL1    C4 1707   3.952   2.133   5.808 -0.1403  0.3296  0.2797
   24CHL1   H4A 1708   4.036   2.196   5.844  0.5505 -0.5715  0.3038
   24CHL1   H4B 1709   3.985   2.036   5.852  0.7879  0.8632  0.7936
   24CHL1    C5 1710   3.957   2.123   5.659 -0.1997 -0.7420  0.6013
   24CHL1    C6 1711   4.003   2.012   5.596 -0.3460  0.1731 -0.0822
   24CHL1    H6 1712   4.045   1.931   5.658 -2.5042  0.0347  1.2995
   24CHL1    C7 1713   4.010   1.999   5.447  0.1008  0.5164 -0.0791
   24CHL1   H7A 1714   4.101   1.949   5.409  0.3181  1.2520 -0.5544
   24CHL1   H7B 1715   3.924   1.935   5.419 -0.2718  0.7517  0.4984
   24CHL1    C8 1716   3.982   2.132   5.369  0.4091 -0.1806  0.1578
   24CHL1    H8 1717   4.076   2.191   5.363  0.3332 -0.1604 -1.3289
   24CHL1   C14 1718   3.934   2.098   5.219 -0.1092  0.8540 -0.0162
   24CHL1   H14 1719   3.846   2.032   5.229  1.0532 -0.6963  0.2977
   24CHL1   C15 1720   4.009   2.002   5.131  0.5011 -0.2620  0.1830
   24CHL1  H15A 1721   4.117   2.026   5.139  0.4468  0.9851 -2.1720
   24CHL1  H15B 1722   3.987   1.899   5.168 -0.2513  0.7514  2.7324
   24CHL1   C16 1723   3.967   2.029   4.986  0.2317  0.2393 -0.4029
   24CHL1  H16A 1724   4.063   2.056   4.937  0.9918  2.1506  1.9389
   24CHL1  H16B 1725   3.913   1.941   4.945  0.0025  0.5846 -0.8628
   24CHL1   C17 1726   3.871   2.148   4.994  0.7022 -0.2602  0.1841
   24CHL1   H17 1727   3.768   2.107   5.001 -1.1240  3.5632 -1.3894
   24CHL1   C13 1728   3.898   2.215   5.128 -0.3578  0.6991 -0.1028
   24CHL1   C18 1729   4.026   2.302   5.115  0.4886  0.2194 -0.4880
   24CHL1  H18A 1730   4.095   2.255   5.040  2.5306  0.5389  1.0842
   24CHL1  H18B 1731   3.996   2.402   5.077  1.2058  0.2698 -0.9567
   24CHL1  H18C 1732   4.091   2.320   5.204  0.6775  0.3006 -0.6406
   24CHL1   C12 1733   3.787   2.291   5.200  0.4391 -0.5398 -0.1857
   24CHL1  H12A 1734   3.766   2.385   5.144  1.1439 -1.1971 -1.6035
   24CHL1  H12B 1735   3.690   2.236   5.197  1.3081 -2.2722  1.4657
   24CHL1   C11 1736   3.818   2.322   5.342 -0.2966  0.2915 -0.1137
   24CHL1  H11A 1737   3.912   2.381   5.335 -0.4630  0.3659 -2.4359
   24CHL1  H11B 1738   3.730   2.377   5.383 -0.5074  0.5102 -0.8317
   24CHL1    C9 1739   3.868   2.206   5.433  0.0236  0.2890 -0.0823
   24CHL1    H9 1740   3.781   2.137   5.433 -0.9763  1.5165  0.0353
   24CHL1   C10 1741   3.890   2.236   5.584  0.3859 -0.3189 -0.5537
   24CHL1   C19 1742   3.987   2.356   5.594 -0.2739 -1.0928  0.1707
   24CHL1  H19A 1743   3.939   2.448   5.555 -0.4699 -0.9260  0.7815
   24CHL1  H19B 1744   4.017   2.378   5.699 -2.0035 -2.5330  1.0226
   24CHL1  H19C 1745   4.081   2.338   5.538  0.5140 -2.2135  1.7821
   24CHL1    C1 1746   3.756   2.277   5.652  0.4267 -0.1040 -0.9235
   24CHL1   H1A 1747   3.711   2.363   5.598 -0.1037  0.3743  0.2261
   24CHL1   H1B 1748   3.687   2.191   5.637  1.0345 -1.5864  3.4014
   24CHL1    C2 1749   3.773   2.301   5.804 -0.3646 -0.0225 -0.2343
   24CHL1   H2A 1750   3.673   2.333   5.842 -0.3902 -2.2211  1.7782
   24CHL1   H2B 1751   3.854   2.377   5.818 -0.3446 -0.1734  0.5284
   24CHL1   C20 1752   3.854   2.231   4.864 -0.1314 -0.7407  0.0182
   24CHL1   H20 1753   3.937   2.304   4.852 -0.7454 -0.1577 -0.8063
   24CHL1   C21 1754   3.721   2.310   4.871  0.2159 -0.0426 -0.1820
   24CHL1  H21A 1755   3.724   2.401   4.933 -0.0470  0.5585 -1.0322
   24CHL1  H21B 1756   3.632   2.243   4.879 -1.1380  1.3809 -2.0994
   24CHL1  H21C 1757   3.692   2.357   4.774 -0.1929 -0.7431 -0.4081
   24CHL1   C22 1758   3.849   2.139   4.734  0.2832 -0.7422  0.0378
   24CHL1  H22A 1759   3.939   2.074   4.730  0.0807 -1.1919  1.8820
   24CHL1  H22B 1760   3.757   2.079   4.751  0.0291 -0.0721  1.1843
   24CHL1   C23 1761   3.849   2.215   4.599 -0.2154  0.0085  0.4310
   24CHL1  H23A 1762   3.759   2.280   4.593 -0.1045  0.1462  0.2475
   24CHL1  H23B 1763   3.938   2.281   4.589  0.0705 -0.5376 -0.8868
   24CHL1   C24 1764   3.848   2.126   4.472 -0.1877 -0.0505 -0.1931
   24CHL1  H24A 1765   3.834   2.202   4.392  0.2848  1.0811  0.7776
   24CHL1  H24B 1766   3.944   2.071   4.470 -1.4925 -2.5147 -0.3484
   24CHL1   C25 1767   3.733   2.025   4.464  0.2735 -0.0804 -0.4546
   24CHL1   H25 1768   3.747   1.956   4.550  2.7230  1.3860  0.4185
   24CHL1   C26 1769   3.596   2.089   4.473 -0.6232 -0.2825 -0.0955
   24CHL1  H26A 1770   3.588   2.173   4.401  0.3282  0.3144  0.4876
   24CHL1  H26B 1771   3.524   2.009   4.444 -0.0884 -0.6287 -0.4837
   24CHL1  H26C 1772   3.579   2.120   4.578 -0.5573 -1.4798  0.2811
   24CHL1   C27 1773   3.747   1.941   4.336  0.1374 -0.2843  0.4486
   24CHL1  H27A 1774   3.717   1.992   4.242  1.8394  1.3882  0.7555
   24CHL1  H27B 1775   3.849   1.897   4.327 -0.5548 -1.8913  0.0841
   24CHL1  H27C 1776   3.674   1.858   4.349 -1.8408  0.9307 -2.0250
   25CHL1    C3 1777   0.015   0.163   6.506  0.0748 -0.4727 -0.1135
   25CHL1    H3 1778   0.072   0.069   6.486 -2.0842 -1.5920 -1.3201
   25CHL1    O3 1779  -0.021   0.171   6.647  0.1199 -0.2730  0.3846
   25CHL1   H3' 1780  -0.105   0.125   6.653  1.3199 -2.9513 -1.1141
   25CHL1    C4 1781   0.098   0.289   6.479  0.4445  0.5229  0.5533
   25CHL1   H4A 1782   0.041   0.377   6.515 -0.5143 -0.0123  0.3797
   25CHL1   H4B 1783   0.184   0.289   6.549  0.1665 -1.3078  0.9514
   25CHL1    C5 1784   0.139   0.298   6.333 -0.1514 -0.7519  0.9352
   25CHL1    C6 1785   0.270   0.323   6.297  0.3247 -0.8564 -0.1353
   25CHL1    H6 1786   0.340   0.342   6.379  0.8614  3.0705 -1.3124
   25CHL1    C7 1787   0.313   0.339   6.153 -0.5884 -0.0890 -0.2708
   25CHL1   H7A 1788   0.366   0.436   6.139 -1.2005  0.7040  2.4511
   25CHL1   H7B 1789   0.393   0.271   6.117  1.0682  1.0375  1.0839
   25CHL1    C8 1790   0.188   0.350   6.054 -0.4374  0.2553  0.4149
   25CHL1    H8 1791   0.152   0.455   6.053  3.3187  1.6983 -0.1220
   25CHL1   C14 1792   0.248   0.319   5.914 -0.5380  0.0830  0.7884
   25CHL1   H14 1793   0.302   0.224   5.932  1.1240  0.6103 -1.0573
   25CHL1   C15 1794   0.361   0.413   5.867  0.2315  1.0690 -0.1234
   25CHL1  H15A 1795   0.335   0.520   5.880  0.5090  1.2846 -1.2762
   25CHL1  H15B 1796   0.461   0.394   5.912  0.2551 -2.0083 -1.2254
   25CHL1   C16 1797   0.368   0.372   5.715  0.3051 -0.0673 -0.0973
   25CHL1  H16A 1798   0.358   0.466   5.656 -1.4816  1.8336  2.9582
   25CHL1  H16B 1799   0.466   0.320   5.701  0.7780  0.4978  1.0128
   25CHL1   C17 1800   0.250   0.279   5.693 -0.2980  0.4599  0.1467
   25CHL1   H17 1801   0.287   0.176   5.713  0.2040  0.1276 -2.2443
   25CHL1   C13 1802   0.145   0.314   5.807 -0.2719 -0.3918  0.6937
   25CHL1   C18 1803   0.077   0.455   5.774 -0.1043 -0.1110  0.5080
   25CHL1  H18A 1804   0.028   0.461   5.675  1.1333  1.0688 -0.0713
   25CHL1  H18B 1805   0.004   0.480   5.854  0.3196  0.4790  0.7209
   25CHL1  H18C 1806   0.157   0.532   5.781 -0.3890  0.2727 -0.3946
   25CHL1   C12 1807   0.042   0.202   5.836  0.9420  0.2306 -0.0851
   25CHL1  H12A 1808  -0.047   0.186   5.771  0.5917 -2.5430  0.9389
   25CHL1  H12B 1809   0.095   0.104   5.838  2.2093  0.8936 -0.3092
   25CHL1   C11 1810  -0.029   0.224   5.976 -0.0540  0.5736  0.4859
   25CHL1  H11A 1811  -0.100   0.309   5.966 -0.0706  0.4310 -0.8149
   25CHL1  H11B 1812  -0.092   0.136   5.998  0.1098  0.6986  1.5174
   25CHL1    C9 1813   0.075   0.250   6.091  0.4812  0.4220  0.4243
   25CHL1    H9 1814   0.128   0.155   6.112 -1.7961 -0.6083  1.8785
   25CHL1   C10 1815   0.021   0.276   6.228 -0.0742 -0.3353  0.0891
   25CHL1   C19 1816  -0.065   0.409   6.232  0.1084 -0.1240 -0.1587
   25CHL1  H19A 1817  -0.108   0.425   6.333  1.5235  1.4123  0.2363
   25CHL1  H19B 1818   0.002   0.488   6.193 -0.7281 -0.6543 -2.8616
   25CHL1  H19C 1819  -0.146   0.406   6.156 -0.9958  1.0302  0.9304
   25CHL1    C1 1820  -0.074   0.162   6.267 -0.4176  0.3770  0.5333
   25CHL1   H1A 1821  -0.168   0.163   6.209 -0.4574 -1.0300  0.5502
   25CHL1   H1B 1822  -0.029   0.063   6.243 -1.3337  0.1668 -0.3752
   25CHL1    C2 1823  -0.104   0.154   6.424 -0.0971 -0.6218  0.0806
   25CHL1   H2A 1824  -0.155   0.055   6.430  1.4982 -1.4772  0.1256
   25CHL1   H2B 1825  -0.171   0.238   6.450 -0.4922 -1.0260  0.3963
   25CHL1   C20 1826   0.205   0.272   5.544  0.1213 -0.4357 -0.5707
   25CHL1   H20 1827   0.166   0.368   5.507 -4.1227 -1.4840  0.6546
   25CHL1   C21 1828   0.087   0.177   5.533  0.0493 -0.2597  0.6048
   25CHL1  H21A 1829   0.002   0.236   5.572 -2.0156 -1.4022 -1.9010
   25CHL1  H21B 1830   0.093   0.076   5.579  0.9869  0.1261  1.3832
   25CHL1  H21C 1831   0.052   0.155   5.430 -2.0429  0.2417  1.1761
   25CHL1   C22 1832   0.312   0.222   5.452 -0.5484 -0.7518  0.1437
   25CHL1  H22A 1833   0.394   0.296   5.467 -0.0839 -1.4932  1.3091
   25CHL1  H22B 1834   0.350   0.118   5.460  2.5277  0.0699 -1.6989
   25CHL1   C23 1835   0.273   0.244   5.303 -0.7772  0.1483 -0.0651
   25CHL1  H23A 1836   0.170   0.206   5.286 -1.0792  0.9541 -0.0766
   25CHL1  H23B 1837   0.254   0.352   5.285  2.6168  0.9283  0.2941
   25CHL1   C24 1838   0.378   0.199   5.199  0.6316  0.1112  0.3973
   25CHL1  H24A 1839   0.415   0.288   5.143 -4.0954  1.3230 -1.2887
   25CHL1  H24B 1840   0.456   0.145   5.255 -0.4515 -0.8870  0.9850
   25CHL1   C25 1841   0.335   0.081   5.107  0.1831 -0.5516 -0.2182
   25CHL1   H25 1842   0.238   0.103   5.057 -0.4618  0.1722  1.2961
   25CHL1   C26 1843   0.447   0.061   5.010 -0.0505 -0.6830  0.6262
   25CHL1  H26A 1844   0.469   0.162   4.969  0.6459 -0.3125  1.8636
   25CHL1  H26B 1845   0.542   0.027   5.059  0.8945  0.3066 -0.4593
   25CHL1  H26C 1846   0.411  -0.008   4.931 -1.3087 -1.0714  1.5120
   25CHL1   C27 1847   0.305  -0.049   5.185 -0.3976 -0.3170  0.3488
   25CHL1  H27A 1848   0.237  -0.126   5.141 -1.5364  1.6980 -1.6264
   25CHL1  H27B 1849   0.399  -0.101   5.214  0.0659  0.7706  0.8455
   25CHL1  H27C 1850   0.243  -0.029   5.275  1.3223 -0.2565  1.5661
   26CHL1    C3 1851   2.834   4.435   6.077 -0.2886  0.3505 -0.1496
   26CHL1    H3 1852   2.826   4.330   6.042  1.7687 -0.3061  1.1672
   26CHL1    O3 1853   2.824   4.453   6.215  0.2599  0.0464 -0.3805
   26CHL1   H3' 1854   2.771   4.533   6.227 -0.1928 -0.4618  1.1140
   26CHL1    C4 1855   2.972   4.481   6.021  0.3128  0.5088 -0.5980
   26CHL1   H4A 1856   2.987   4.575   6.078  0.4952 -1.6570  3.2929
   26CHL1   H4B 1857   3.036   4.400   6.062  0.4642  0.8097 -0.2346
   26CHL1    C5 1858   2.981   4.490   5.873  0.7178 -0.1081  0.4728
   26CHL1    C6 1859   3.083   4.428   5.801  0.0864  0.8147  0.1827
   26CHL1    H6 1860   3.167   4.383   5.857 -1.9228 -2.8097  0.5697
   26CHL1    C7 1861   3.101   4.437   5.655 -0.1907 -0.3921 -0.3456
   26CHL1   H7A 1862   3.205   4.456   5.623 -0.0089  0.1625  0.5288
   26CHL1   H7B 1863   3.061   4.342   5.613 -1.4880  0.1408 -0.3680
   26CHL1    C8 1864   2.999   4.538   5.581 -0.7333 -0.5207  0.0117
   26CHL1    H8 1865   3.032   4.644   5.585 -0.0502 -0.6224 -1.7355
   26CHL1   C14 1866   2.994   4.490   5.434 -0.3419 -1.0256 -0.4670
   26CHL1   H14 1867   2.937   4.394   5.429  0.6583 -1.5916 -2.7666
   26CHL1   C15 1868   3.116   4.467   5.364 -0.2193  0.3044  0.0193
   26CHL1  H15A 1869   3.195   4.538   5.395 -0.4868  0.4195  0.4370
   26CHL1  H15B 1870   3.160   4.369   5.392 -0.7106  0.1921  0.4189
   26CHL1   C16 1871   3.086   4.482   5.217 -0.2381  0.3586  0.5248
   26CHL1  H16A 1872   3.161   4.548   5.168 -0.0202 -0.1935  0.0986
   26CHL1  H16B 1873   3.093   4.384   5.166  1.1112  0.0125  1.3473
   26CHL1   C17 1874   2.938   4.534   5.203 -0.2463  0.6261 -0.1928
   26CHL1   H17 1875   2.867   4.450   5.192 -0.5334  1.1153 -2.4696
   26CHL1   C13 1876   2.904   4.582   5.347  0.3471 -0.1473 -0.9536
   26CHL1   C18 1877   2.937   4.732   5.354  0.4033  0.3382  0.1768
   26CHL1  H18A 1878   3.046   4.739   5.339  0.5413 -0.2567  0.8467
   26CHL1  H18B 1879   2.874   4.793   5.285  1.5593  0.0612 -1.1517
   26CHL1  H18C 1880   2.921   4.775   5.456 -1.8761 -1.7740  0.8171
   26CHL1   C12 1881   2.756   4.559   5.404 -0.2968 -0.9604  0.1087
   26CHL1  H12A 1882   2.674   4.617   5.358  1.2427  0.6292 -0.7312
   26CHL1  H12B 1883   2.733   4.452   5.384 -1.1030 -0.5757 -1.1464
   26CHL1   C11 1884   2.753   4.603   5.554 -0.0632  0.5607  0.1258
   26CHL1  H11A 1885   2.756   4.712   5.575  0.6787  0.0714  2.9417
   26CHL1  H11B 1886   2.652   4.584   5.595 -1.5839  2.7880 -2.2348
   26CHL1    C9 1887   2.856   4.525   5.638 -0.5072  0.1743  0.3366
   26CHL1    H9 1888   2.842   4.415   5.626  0.2344 -0.2444  2.8260
   26CHL1   C10 1889   2.861   4.549   5.786 -0.0081 -0.2396 -0.0987
   26CHL1   C19 1890   2.872   4.705   5.807 -0.0787  0.5154  0.3575
   26CHL1  H19A 1891   2.876   4.706   5.918  1.1035 -1.6862  0.3878
   26CHL1  H19B 1892   2.971   4.741   5.773  1.3317 -1.7445  1.8535
   26CHL1  H19C 1893   2.788   4.766   5.767 -0.5313  1.2402  2.3223
   26CHL1    C1 1894   2.728   4.504   5.856  0.4100 -0.2232  0.1961
   26CHL1   H1A 1895   2.644   4.557   5.807 -0.1743 -0.9811  0.3572
   26CHL1   H1B 1896   2.714   4.400   5.819 -1.0293  0.8897 -2.6466
   26CHL1    C2 1897   2.718   4.513   6.008 -0.2922  0.7660 -0.3859
   26CHL1   H2A 1898   2.619   4.473   6.037  0.4593 -1.3868 -0.5280
   26CHL1   H2B 1899   2.725   4.621   6.033 -2.0455  1.3602 -2.2234
   26CHL1   C20 1900   2.916   4.620   5.079  0.1312 -0.8524 -0.1756
   26CHL1   H20 1901   2.982   4.710   5.089 -1.4051  0.2228  0.7232
   26CHL1   C21 1902   2.773   4.671   5.056 -0.0917 -0.2980 -0.2702
   26CHL1  H21A 1903   2.704   4.587   5.034  0.9502 -0.9119 -1.2742
   26CHL1  H21B 1904   2.770   4.735   4.966  0.7556  2.1962  1.3820
   26CHL1  H21C 1905   2.732   4.715   5.150 -2.2947 -4.0013  0.7535
   26CHL1   C22 1906   2.968   4.564   4.945  0.4546 -0.6331  0.5376
   26CHL1  H22A 1907   2.944   4.629   4.858 -0.0643 -1.7551 -0.1749
   26CHL1  H22B 1908   3.078   4.567   4.954  0.6316  0.0812 -1.4430
   26CHL1   C23 1909   2.932   4.421   4.899 -0.2583 -0.7439 -0.2535
   26CHL1  H23A 1910   2.930   4.364   4.994 -3.2278 -2.7701 -1.3705
   26CHL1  H23B 1911   2.828   4.417   4.860  0.0931  2.0102 -1.7416
   26CHL1   C24 1912   3.029   4.367   4.785 -0.0837  0.4087  0.8266
   26CHL1  H24A 1913   3.005   4.427   4.694  1.8471  0.0198 -0.0036
   26CHL1  H24B 1914   3.132   4.390   4.821 -0.1264 -1.2574  2.1601
   26CHL1   C25 1915   3.026   4.212   4.758  0.3126  0.6991  0.0866
   26CHL1   H25 1916   2.919   4.185   4.748  0.2639  1.0253 -0.2973
   26CHL1   C26 1917   3.095   4.178   4.631 -0.2214  0.8183 -0.7175
   26CHL1  H26A 1918   3.195   4.133   4.648 -0.5936  0.7686  1.7039
   26CHL1  H26B 1919   3.038   4.090   4.594 -0.8698 -0.1677  2.3278
   26CHL1  H26C 1920   3.101   4.261   4.558 -2.7399  1.8493  0.1503
   26CHL1   C27 1921   3.091   4.136   4.880  0.0679 -0.0691  0.4509
   26CHL1  H27A 1922   3.194   4.164   4.909 -0.5876  0.0471  2.9198
   26CHL1  H27B 1923   3.030   4.163   4.969  2.0882  0.3217  1.7785
   26CHL1  H27C 1924   3.084   4.026   4.863 -2.2141  0.0987 -0.0173
   27CHL1    C3 1925   4.508   2.692   5.804  0.2565 -0.5944 -0.1952
   27CHL1    H3 1926   4.422   2.762   5.808  1.0307  0.3373  0.8264
   27CHL1    O3 1927   4.528   2.651   5.936  0.1025 -0.1641  0.7434
   27CHL1   H3' 1928   4.614   2.610   5.939  0.0656 -0.3137 -0.0290
   27CHL1    C4 1929   4.456   2.576   5.717 -0.1094  0.0446  0.6769
   27CHL1   H4A 1930   4.531   2.494   5.726  1.5532  1.2901 -1.0006
   27CHL1   H4B 1931   4.366   2.534   5.766  0.4016 -0.5267  1.1439
   27CHL1    C5 1932   4.431   2.619   5.574 -0.5279  0.4095  0.3002
   27CHL1    C6 1933   4.314   2.597   5.508  0.6001 -0.0733 -0.4888
   27CHL1    H6 1934   4.225   2.555   5.559  0.4605  1.4906  0.6159
   27CHL1    C7 1935   4.289   2.613   5.358  0.2046  0.4876 -0.1803
   27CHL1   H7A 1936   4.246   2.521   5.313 -0.9293  0.8253  0.1590
   27CHL1   H7B 1937   4.222   2.696   5.326 -0.4861 -0.5447 -1.4896
   27CHL1    C8 1938   4.423   2.642   5.280  0.0205 -0.3645 -0.2645
   27CHL1    H8 1939   4.482   2.548   5.272  0.7093 -0.1319  1.5884
   27CHL1   C14 1940   4.390   2.702   5.141 -0.3353 -0.5859 -0.5715
   27CHL1   H14 1941   4.345   2.800   5.169 -0.2395 -0.5836 -0.4267
   27CHL1   C15 1942   4.292   2.626   5.060  0.1287  0.0813 -0.2873
   27CHL1  H15A 1943   4.315   2.519   5.043  0.3343  0.3243 -1.6528
   27CHL1  H15B 1944   4.189   2.634   5.100 -0.9647  0.0425 -2.8652
   27CHL1   C16 1945   4.301   2.699   4.927 -0.3897  0.0535  0.1855
   27CHL1  H16A 1946   4.327   2.627   4.847 -0.8814  0.8163 -0.6812
   27CHL1  H16B 1947   4.212   2.756   4.894  0.7209  1.9687  0.3154
   27CHL1   C17 1948   4.426   2.792   4.937 -0.2892  0.6589  0.4099
   27CHL1   H17 1949   4.384   2.885   4.980 -2.1553  0.5521 -1.0485
   27CHL1   C13 1950   4.508   2.733   5.048 -0.6062  0.2571 -0.2268
   27CHL1   C18 1951   4.582   2.610   4.993  0.4394  0.5359 -0.3253
   27CHL1  H18A 1952   4.629   2.559   5.079  1.1820  0.9839 -0.4608
   27CHL1  H18B 1953   4.530   2.530   4.936  0.4282  0.6248 -0.4419
   27CHL1  H18C 1954   4.662   2.640   4.922 -1.2082  2.9844 -1.2750
   27CHL1   C12 1955   4.602   2.831   5.134 -0.2357 -0.1010  0.6638
   27CHL1  H12A 1956   4.691   2.860   5.074  0.2526 -1.0696  0.8946
   27CHL1  H12B 1957   4.536   2.919   5.147 -1.0662 -0.2404 -2.0271
   27CHL1   C11 1958   4.640   2.773   5.268 -0.6356  1.1519  0.3048
   27CHL1  H11A 1959   4.697   2.681   5.243 -0.3657  1.3101  0.3436
   27CHL1  H11B 1960   4.708   2.847   5.315 -0.0408  2.8242 -2.8708
   27CHL1    C9 1961   4.513   2.741   5.356 -0.1209  0.4447 -0.5067
   27CHL1    H9 1962   4.463   2.839   5.373  2.5055  1.5843  1.2431
   27CHL1   C10 1963   4.553   2.682   5.500 -0.4856  0.0326  0.4036
   27CHL1   C19 1964   4.661   2.572   5.478 -0.1440  0.2966  0.1876
   27CHL1  H19A 1965   4.693   2.525   5.574  1.4923  0.2035 -0.3731
   27CHL1  H19B 1966   4.630   2.489   5.411  1.8728 -0.7485  0.4547
   27CHL1  H19C 1967   4.759   2.605   5.438  1.1270 -2.3854  0.8601
   27CHL1    C1 1968   4.602   2.799   5.588 -0.3227  0.5267 -0.0963
   27CHL1   H1A 1969   4.696   2.831   5.538 -1.1727 -0.4985 -2.5258
   27CHL1   H1B 1970   4.535   2.887   5.578 -0.4819  0.2289 -2.1762
   27CHL1    C2 1971   4.627   2.767   5.735  1.4125  0.3805 -0.6407
   27CHL1   H2A 1972   4.680   2.849   5.788  2.2212 -0.2988 -0.3750
   27CHL1   H2B 1973   4.713   2.696   5.739  2.1731  1.3455  1.0151
   27CHL1   C20 1974   4.497   2.826   4.803 -0.3777  0.5575  0.3369
   27CHL1   H20 1975   4.517   2.731   4.749  0.8934  1.1448 -0.2792
   27CHL1   C21 1976   4.625   2.912   4.810 -0.3096  0.3598 -0.0177
   27CHL1  H21A 1977   4.613   2.998   4.879  1.4338 -0.1273  0.9617
   27CHL1  H21B 1978   4.664   2.954   4.715  0.0542  0.2844  0.0944
   27CHL1  H21C 1979   4.710   2.851   4.847 -1.3660 -1.9454 -1.1852
   27CHL1   C22 1980   4.396   2.878   4.691 -0.3145  0.1918 -0.2132
   27CHL1  H22A 1981   4.315   2.802   4.695 -0.4326  0.3488  0.7073
   27CHL1  H22B 1982   4.364   2.980   4.720 -3.6138 -1.0765  1.1191
   27CHL1   C23 1983   4.443   2.903   4.547  1.3001 -0.2394 -0.3614
   27CHL1  H23A 1984   4.523   2.980   4.548 -0.6586  1.9066  0.2054
   27CHL1  H23B 1985   4.477   2.810   4.496  0.1040 -0.6423 -0.4436
   27CHL1   C24 1986   4.322   2.964   4.466  0.4659  0.5712  0.1316
   27CHL1  H24A 1987   4.233   2.900   4.448  0.7718  0.7505 -2.3226
   27CHL1  H24B 1988   4.286   3.053   4.523 -1.1105 -1.1289  1.9526
   27CHL1   C25 1989   4.364   3.018   4.325 -0.4429 -0.6004 -0.5380
   27CHL1   H25 1990   4.449   3.089   4.323 -2.0803  1.4883 -2.8073
   27CHL1   C26 1991   4.402   2.904   4.232  0.0686  0.1746  0.7517
   27CHL1  H26A 1992   4.495   2.859   4.272  0.6265  0.0199 -0.6639
   27CHL1  H26B 1993   4.316   2.833   4.231  0.1006  0.0965  2.2504
   27CHL1  H26C 1994   4.420   2.934   4.126  0.7116  2.1433  1.3841
   27CHL1   C27 1995   4.245   3.101   4.275  0.5435 -0.4573  0.1525
   27CHL1  H27A 1996   4.147   3.050   4.284  0.5397 -0.4958 -0.0966
   27CHL1  H27B 1997   4.238   3.198   4.328 -0.5616 -0.1692 -0.4867
   27CHL1  H27C 1998   4.259   3.121   4.166  0.9871 -0.9126  0.1213
   28CHL1    C3 1999   1.572   4.781   5.998  0.1876 -0.5579 -0.9184
   28CHL1    H3 2000   1.562   4.881   5.951  2.6846 -1.2097 -3.0790
   28CHL1    O3 2001   1.594   4.803   6.137  0.7609 -0.1507  0.0572
   28CHL1   H3' 2002   1.682   4.768   6.154  0.4897 -1.2355 -0.6956
   28CHL1    C4 2003   1.445   4.702   5.965  0.0117  0.9525 -0.3853
   28CHL1   H4A 2004   1.458   4.598   6.003 -3.1267 -0.3753 -2.5430
   28CHL1   H4B 2005   1.361   4.747   6.022  0.8982 -0.0185  1.8220
   28CHL1    C5 2006   1.430   4.696   5.810  0.1937 -0.0544  0.1246
   28CHL1    C6 2007   1.320   4.741   5.751  0.5017 -0.1810 -0.0821
   28CHL1    H6 2008   1.247   4.791   5.816  1.9118  0.0474  1.3870
   28CHL1    C7 2009   1.298   4.732   5.608 -0.1624 -0.6917 -1.0509
   28CHL1   H7A 2010   1.191   4.723   5.578 -1.3916  1.2982  2.2213
   28CHL1   H7B 2011   1.335   4.826   5.560 -2.1316  0.8885  0.3448
   28CHL1    C8 2012   1.387   4.622   5.545 -1.1264 -0.1690 -0.3220
   28CHL1    H8 2013   1.349   4.523   5.580 -0.2688 -0.4012 -0.0042
   28CHL1   C14 2014   1.371   4.638   5.395  0.3468 -0.1275 -1.3182
   28CHL1   H14 2015   1.417   4.732   5.361 -2.4725  1.2587 -1.6329
   28CHL1   C15 2016   1.234   4.640   5.331  0.9934  0.1846 -0.1026
   28CHL1  H15A 2017   1.163   4.578   5.390  0.7487  1.2929  0.8182
   28CHL1  H15B 2018   1.182   4.738   5.326 -1.4389 -1.0686 -0.6795
   28CHL1   C16 2019   1.252   4.590   5.185 -0.1058  0.1968 -0.4740
   28CHL1  H16A 2020   1.196   4.494   5.175  0.5063 -0.0710 -1.4453
   28CHL1  H16B 2021   1.224   4.664   5.107 -2.2359 -1.4823 -1.4155
   28CHL1   C17 2022   1.402   4.562   5.170 -0.3057  0.0984  0.2871
   28CHL1   H17 2023   1.449   4.661   5.148 -0.7541  0.6585  1.7600
   28CHL1   C13 2024   1.448   4.526   5.317  1.1162 -0.5424 -0.0074
   28CHL1   C18 2025   1.398   4.385   5.350 -0.3621  0.7604  0.5073
   28CHL1  H18A 2026   1.419   4.369   5.458  3.3150  0.7342 -0.0808
   28CHL1  H18B 2027   1.289   4.362   5.341  0.2100 -1.9128 -0.5079
   28CHL1  H18C 2028   1.451   4.303   5.297 -3.1223 -0.9885  0.2487
   28CHL1   C12 2029   1.596   4.548   5.358  0.0557 -0.6513  0.2738
   28CHL1  H12A 2030   1.667   4.472   5.319  0.7821  0.8222 -1.4160
   28CHL1  H12B 2031   1.622   4.649   5.320 -0.9623 -0.8929 -1.1719
   28CHL1   C11 2032   1.621   4.535   5.510 -0.5268  0.5542 -0.5362
   28CHL1  H11A 2033   1.609   4.425   5.522 -2.4171  0.6717 -1.0127
   28CHL1  H11B 2034   1.726   4.559   5.537 -0.9105  1.7628 -0.0561
   28CHL1    C9 2035   1.534   4.634   5.591 -0.2886 -0.0371 -0.3386
   28CHL1    H9 2036   1.561   4.737   5.559 -0.1979 -0.0913 -0.4346
   28CHL1   C10 2037   1.549   4.626   5.745  0.5191 -0.1274 -0.0696
   28CHL1   C19 2038   1.559   4.476   5.792  0.2726  0.3394  0.9283
   28CHL1  H19A 2039   1.561   4.451   5.901  0.5199  0.0260  0.8540
   28CHL1  H19B 2040   1.468   4.426   5.751 -1.2167  3.3223  0.3533
   28CHL1  H19C 2041   1.655   4.436   5.753 -0.2144 -0.5770  0.6411
   28CHL1    C1 2042   1.681   4.697   5.785  1.1639 -0.1174  0.6156
   28CHL1   H1A 2043   1.770   4.638   5.753  0.0611 -1.1860 -0.6220
   28CHL1   H1B 2044   1.684   4.797   5.735  1.5347 -0.2454  0.3780
   28CHL1    C2 2045   1.696   4.720   5.939 -0.9681  0.1142 -0.5787
   28CHL1   H2A 2046   1.781   4.792   5.942 -0.2473 -0.7138 -0.6713
   28CHL1   H2B 2047   1.726   4.627   5.992  2.0643  0.8208 -0.8442
   28CHL1   C20 2048   1.438   4.482   5.047  0.8032 -0.2264 -0.5655
   28CHL1   H20 2049   1.401   4.380   5.071  1.5801 -0.2872  0.4486
   28CHL1   C21 2050   1.581   4.474   5.030 -0.2809  0.3734  0.3692
   28CHL1  H21A 2051   1.616   4.578   5.012  0.4841  0.2807  1.2185
   28CHL1  H21B 2052   1.609   4.436   4.930 -1.8186  1.9799 -0.7237
   28CHL1  H21C 2053   1.636   4.432   5.117  1.4274 -0.7910 -1.2049
   28CHL1   C22 2054   1.374   4.523   4.912 -0.4998  0.1182 -0.1406
   28CHL1  H22A 2055   1.391   4.628   4.880 -2.2434  0.0795 -1.3043
   28CHL1  H22B 2056   1.438   4.464   4.842 -1.8642 -3.5409  1.4402
   28CHL1   C23 2057   1.237   4.484   4.870  0.2874  0.7790 -0.6554
   28CHL1  H23A 2058   1.232   4.378   4.839 -2.0723  0.2690  1.1974
   28CHL1  H23B 2059   1.160   4.494   4.949  1.5775  0.2840  0.7014
   28CHL1   C24 2060   1.199   4.563   4.741  0.2934  0.7265 -1.0911
   28CHL1  H24A 2061   1.218   4.672   4.753 -2.2215  1.0263  1.2945
   28CHL1  H24B 2062   1.268   4.537   4.658  0.5958  0.7995 -0.8690
   28CHL1   C25 2063   1.050   4.543   4.693  0.4435  0.0015 -0.0987
   28CHL1   H25 2064   0.985   4.534   4.783 -0.3811  1.9676 -0.4557
   28CHL1   C26 2065   0.999   4.669   4.628  0.5656 -0.8204  0.7025
   28CHL1  H26A 2066   0.909   4.648   4.567  0.9509  1.1350 -0.6250
   28CHL1  H26B 2067   0.977   4.750   4.701 -0.7597 -0.6099  0.1050
   28CHL1  H26C 2068   1.069   4.712   4.554 -0.4998 -0.5539 -0.1748
   28CHL1   C27 2069   1.034   4.424   4.601  0.8665 -0.4139 -0.5299
   28CHL1  H27A 2070   0.924   4.409   4.593  0.6696 -0.2656  1.4078
   28CHL1  H27B 2071   1.083   4.454   4.506 -0.7994  2.4023 -0.6111
   28CHL1  H27C 2072   1.070   4.330   4.648 -1.1445 -1.4180 -0.9026
   29CHL1    C3 2073   3.963   3.018   2.756  1.3033  0.3763 -0.3298
   29CHL1    H3 2074   4.045   2.944   2.772  0.9903  0.4583  1.9711
   29CHL1    O3 2075   3.968   3.071   2.622  0.1379 -0.1700  0.2536
   29CHL1   H3' 2076   3.950   3.165   2.627 -1.6301 -0.4511 -0.2836
   29CHL1    C4 2077   3.825   2.943   2.771 -0.0377 -0.7101  0.1930
   29CHL1   H4A 2078   3.742   3.015   2.752  0.6570  0.4056  1.1918
   29CHL1   H4B 2079   3.821   2.864   2.693 -1.2548 -0.1994 -0.2790
   29CHL1    C5 2080   3.796   2.898   2.908  0.9199 -0.0315  0.2003
   29CHL1    C6 2081   3.760   2.771   2.926 -0.3835 -0.8187  0.6109
   29CHL1    H6 2082   3.740   2.702   2.843 -3.4900  0.6348 -0.0089
   29CHL1    C7 2083   3.743   2.715   3.066 -0.1684 -0.2334 -0.7098
   29CHL1   H7A 2084   3.653   2.650   3.076 -0.6206  0.3134 -1.1928
   29CHL1   H7B 2085   3.835   2.657   3.088  1.0009  1.1052 -1.9129
   29CHL1    C8 2086   3.733   2.816   3.182  0.3722 -0.9857 -0.1714
   29CHL1    H8 2087   3.632   2.862   3.185  0.7980 -0.0686  2.0978
   29CHL1   C14 2088   3.768   2.747   3.315 -0.1121  0.5326  0.3741
   29CHL1   H14 2089   3.875   2.719   3.315 -0.2408  0.0341  0.6859
   29CHL1   C15 2090   3.699   2.615   3.347  0.6161 -0.1375  0.5696
   29CHL1  H15A 2091   3.590   2.621   3.326  0.8368  0.5739 -0.4467
   29CHL1  H15B 2092   3.744   2.529   3.294 -0.5322 -0.2785 -0.2193
   29CHL1   C16 2093   3.716   2.593   3.497 -0.4247 -0.0233 -0.1256
   29CHL1  H16A 2094   3.616   2.572   3.543 -0.0913 -0.9981  0.1787
   29CHL1  H16B 2095   3.784   2.507   3.519  0.1089  0.7430  1.3724
   29CHL1   C17 2096   3.768   2.729   3.549  0.4485  0.3682 -0.4321
   29CHL1   H17 2097   3.879   2.714   3.550  0.8958  3.0665 -1.1995
   29CHL1   C13 2098   3.751   2.835   3.440  0.7960 -0.3879 -0.4853
   29CHL1   C18 2099   3.607   2.887   3.457 -0.2884  0.3944  0.5885
   29CHL1  H18A 2100   3.564   2.934   3.366 -0.5235  0.8254  0.9171
   29CHL1  H18B 2101   3.539   2.802   3.479  0.1402  0.0815  0.7115
   29CHL1  H18C 2102   3.600   2.960   3.540 -2.5111 -0.9222  1.6514
   29CHL1   C12 2103   3.843   2.952   3.427 -0.3104  0.1079  0.1942
   29CHL1  H12A 2104   3.838   3.028   3.508 -1.8585  2.7787 -2.2555
   29CHL1  H12B 2105   3.947   2.912   3.429  0.0152  0.9596  0.9171
   29CHL1   C11 2106   3.828   3.027   3.290 -0.0190 -0.3233  0.4000
   29CHL1  H11A 2107   3.725   3.069   3.295 -0.8547 -2.2487  0.0710
   29CHL1  H11B 2108   3.901   3.109   3.273 -1.2647  0.8643  0.5924
   29CHL1    C9 2109   3.837   2.931   3.169 -0.3963  0.7942 -1.2330
   29CHL1    H9 2110   3.937   2.888   3.189 -0.6586  0.8948  0.3807
   29CHL1   C10 2111   3.821   2.999   3.026 -0.0287 -0.1874  0.7499
   29CHL1   C19 2112   3.687   3.084   3.031  0.1203  0.2404  0.0886
   29CHL1  H19A 2113   3.691   3.168   3.105 -1.5565  2.0333 -1.7228
   29CHL1  H19B 2114   3.672   3.129   2.930 -1.5745  1.4688  0.8260
   29CHL1  H19C 2115   3.596   3.026   3.056 -1.0778  2.6701  1.9030
   29CHL1    C1 2116   3.951   3.078   2.996 -0.1970  0.5576  0.5933
   29CHL1   H1A 2117   3.961   3.165   3.063  0.7200  1.9092 -1.1996
   29CHL1   H1B 2118   4.039   3.018   3.028 -0.1334  0.7775  0.8327
   29CHL1    C2 2119   3.972   3.138   2.854  0.3955 -0.1005 -0.0868
   29CHL1   H2A 2120   4.067   3.195   2.851  0.8154 -0.5322  2.5542
   29CHL1   H2B 2121   3.887   3.206   2.835 -1.7228 -2.8512 -1.1986
   29CHL1   C20 2122   3.732   2.755   3.699  0.5850  0.0266 -0.3090
   29CHL1   H20 2123   3.622   2.773   3.706  0.4788 -0.8883  0.6375
   29CHL1   C21 2124   3.809   2.882   3.746 -0.1289  0.1954  0.0378
   29CHL1  H21A 2125   3.777   2.980   3.703 -0.2077  0.2525  0.2257
   29CHL1  H21B 2126   3.920   2.871   3.749 -0.3150 -1.7576  2.6140
   29CHL1  H21C 2127   3.795   2.899   3.855  0.3511  0.3850  0.0749
   29CHL1   C22 2128   3.760   2.634   3.790 -0.4544 -0.3762  1.0475
   29CHL1  H22A 2129   3.695   2.547   3.765  0.1351 -0.8189  1.0330
   29CHL1  H22B 2130   3.866   2.605   3.777  0.0118  0.6784  2.2595
   29CHL1   C23 2131   3.747   2.645   3.941  0.2955  0.0294 -0.0519
   29CHL1  H23A 2132   3.816   2.722   3.981 -1.1988  0.8774  0.9923
   29CHL1  H23B 2133   3.644   2.681   3.964  0.3031 -0.0296  0.0760
   29CHL1   C24 2134   3.778   2.510   4.011 -0.1614  0.1545 -1.0603
   29CHL1  H24A 2135   3.848   2.457   3.943 -1.0425 -0.9827 -1.1182
   29CHL1  H24B 2136   3.827   2.525   4.109  1.4005  0.3106 -1.8398
   29CHL1   C25 2137   3.658   2.416   4.035 -0.4730  0.6421 -0.0190
   29CHL1   H25 2138   3.601   2.410   3.940 -0.0479 -2.1296 -0.1720
   29CHL1   C26 2139   3.724   2.276   4.054  0.0063  0.3367  0.0411
   29CHL1  H26A 2140   3.650   2.195   4.069 -0.2180  0.6495  0.6544
   29CHL1  H26B 2141   3.797   2.247   3.976 -0.0768 -1.6185  0.6396
   29CHL1  H26C 2142   3.782   2.278   4.148  0.3155  0.7004 -0.1509
   29CHL1   C27 2143   3.558   2.454   4.141  0.1649 -0.0364  0.1143
   29CHL1  H27A 2144   3.483   2.378   4.171  0.4137 -0.5738 -0.5982
   29CHL1  H27B 2145   3.618   2.465   4.233 -0.8353  0.6809  0.7036
   29CHL1  H27C 2146   3.513   2.551   4.112  2.4089  0.3150 -2.6564
   30CHL1    C3 2147   4.072   4.168   2.890  1.1247 -0.2788 -0.8210
   30CHL1    H3 2148   4.176   4.154   2.928  2.1847 -1.1916 -3.7716
   30CHL1    O3 2149   4.066   4.204   2.754  0.3313  0.0453  0.4856
   30CHL1   H3' 2150   3.977   4.228   2.728  0.6482 -1.3766 -2.2156
   30CHL1    C4 2151   3.997   4.035   2.905  1.0439  0.7626 -0.2682
   30CHL1   H4A 2152   3.898   4.042   2.855  0.2877 -0.3047  0.9942
   30CHL1   H4B 2153   4.052   3.958   2.847  0.4717  0.9520 -1.0837
   30CHL1    C5 2154   3.978   3.993   3.050  0.5315  0.3081 -0.2425
   30CHL1    C6 2155   4.031   3.878   3.095  0.3728  0.2399 -0.9131
   30CHL1    H6 2156   4.082   3.809   3.026  2.0062  1.9201 -1.4569
   30CHL1    C7 2157   4.018   3.830   3.235 -0.9944 -0.3276  0.2036
   30CHL1   H7A 2158   3.984   3.724   3.242 -0.9880 -0.3971 -0.7151
   30CHL1   H7B 2159   4.118   3.839   3.281  0.0527 -2.8544 -1.3453
   30CHL1    C8 2160   3.911   3.912   3.312 -0.5665  0.0509 -0.0640
   30CHL1    H8 2161   3.805   3.889   3.287 -1.0054  1.5886  0.3062
   30CHL1   C14 2162   3.929   3.877   3.461 -0.6621 -0.6427 -0.8219
   30CHL1   H14 2163   4.030   3.911   3.494 -0.9452 -1.7481  1.3340
   30CHL1   C15 2164   3.912   3.729   3.504  0.1550 -0.9708 -0.2268
   30CHL1  H15A 2165   3.827   3.680   3.453 -0.7542 -0.4448  0.7611
   30CHL1  H15B 2166   4.010   3.676   3.498  1.1737  0.7689  0.2769
   30CHL1   C16 2167   3.875   3.740   3.653 -0.4681  0.4230 -0.6320
   30CHL1  H16A 2168   3.777   3.694   3.681 -0.0289  0.4487  1.0454
   30CHL1  H16B 2169   3.955   3.694   3.714 -0.3735  0.6746 -0.5658
   30CHL1   C17 2170   3.867   3.889   3.688  0.3034  0.4644 -0.0808
   30CHL1   H17 2171   3.969   3.929   3.706  0.0775  0.6990  0.6977
   30CHL1   C13 2172   3.829   3.951   3.553  0.5322  0.4632 -0.2843
   30CHL1   C18 2173   3.676   3.915   3.519 -0.2476  0.0707 -0.4666
   30CHL1  H18A 2174   3.609   3.991   3.565 -0.7691 -0.8384  0.3031
   30CHL1  H18B 2175   3.659   3.924   3.409  0.9396 -0.6768 -0.7222
   30CHL1  H18C 2176   3.643   3.816   3.555 -1.0531 -0.0085 -1.3495
   30CHL1   C12 2177   3.854   4.102   3.545  0.4389 -0.0400 -0.2758
   30CHL1  H12A 2178   3.786   4.157   3.613  0.1097  0.4543 -1.0016
   30CHL1  H12B 2179   3.960   4.117   3.577  0.6870 -2.0173 -0.0291
   30CHL1   C11 2180   3.851   4.148   3.404  0.3873 -0.1257  0.4675
   30CHL1  H11A 2181   3.746   4.154   3.369  0.0966  1.2504  1.4770
   30CHL1  H11B 2182   3.872   4.257   3.394 -3.2310  0.6414  0.0510
   30CHL1    C9 2183   3.927   4.063   3.298  0.2209  0.6886 -0.7811
   30CHL1    H9 2184   4.036   4.082   3.309  0.0976  0.2239  2.1298
   30CHL1   C10 2185   3.915   4.098   3.143 -0.1530  0.6380  0.4765
   30CHL1   C19 2186   3.765   4.109   3.109  0.5459 -0.0793 -0.1335
   30CHL1  H19A 2187   3.703   4.018   3.119  0.0080  0.3679  0.7645
   30CHL1  H19B 2188   3.714   4.188   3.168 -1.3201 -1.4558  0.1780
   30CHL1  H19C 2189   3.746   4.149   3.007  0.1921 -1.5971 -0.6883
   30CHL1    C1 2190   3.984   4.236   3.119  0.3116 -0.0453  0.0619
   30CHL1   H1A 2191   3.929   4.321   3.164 -0.5001  0.2603 -1.4331
   30CHL1   H1B 2192   4.080   4.227   3.173  0.0101  0.1945  0.6482
   30CHL1    C2 2193   3.999   4.276   2.971  0.6182  0.8977  0.2226
   30CHL1   H2A 2194   4.057   4.369   2.956  0.7837  0.6834 -0.5206
   30CHL1   H2B 2195   3.902   4.293   2.918 -0.9205  0.6221  2.8079
   30CHL1   C20 2196   3.782   3.924   3.815 -0.1502 -0.4644  1.0880
   30CHL1   H20 2197   3.675   3.939   3.790  0.1936 -1.1081 -0.9774
   30CHL1   C21 2198   3.840   4.053   3.870 -0.0786  0.1523  0.2199
   30CHL1  H21A 2199   3.951   4.050   3.881  0.1399  2.6075 -0.5656
   30CHL1  H21B 2200   3.790   4.084   3.964 -0.5866  1.2809 -0.4006
   30CHL1  H21C 2201   3.832   4.144   3.806 -0.1957 -0.6424 -0.9338
   30CHL1   C22 2202   3.798   3.809   3.917  0.4669 -0.1757  0.1771
   30CHL1  H22A 2203   3.733   3.722   3.893  0.5375 -0.0770 -0.4003
   30CHL1  H22B 2204   3.898   3.762   3.908  0.3846 -0.0668 -2.0682
   30CHL1   C23 2205   3.775   3.845   4.058 -0.4202  0.7260 -0.3057
   30CHL1  H23A 2206   3.862   3.899   4.101  0.4453 -1.7901  1.3233
   30CHL1  H23B 2207   3.681   3.905   4.063 -1.0225 -0.2034 -0.1523
   30CHL1   C24 2208   3.767   3.725   4.147 -0.1139 -0.3301 -0.1586
   30CHL1  H24A 2209   3.671   3.672   4.129 -0.2144  0.4889 -2.2444
   30CHL1  H24B 2210   3.852   3.661   4.113 -0.9715 -0.6663 -1.7509
   30CHL1   C25 2211   3.784   3.762   4.294 -0.1487  0.3515  0.2484
   30CHL1   H25 2212   3.874   3.827   4.296 -0.0438  0.4296 -2.3790
   30CHL1   C26 2213   3.665   3.843   4.352 -0.4493 -0.3368  0.3859
   30CHL1  H26A 2214   3.578   3.776   4.335  1.1966 -2.9237  1.4668
   30CHL1  H26B 2215   3.679   3.849   4.462 -0.4015  0.6420  0.3305
   30CHL1  H26C 2216   3.654   3.945   4.309  1.2846 -0.3992 -0.3067
   30CHL1   C27 2217   3.813   3.641   4.384  0.1715 -0.4081  0.1513
   30CHL1  H27A 2218   3.730   3.568   4.377 -0.7707  0.3346  2.5351
   30CHL1  H27B 2219   3.905   3.584   4.358 -0.3180 -2.3520  2.2644
   30CHL1  H27C 2220   3.809   3.675   4.490  2.6968  0.1970  0.1244
   31CHL1    C3 2221   4.960   4.700   2.854 -0.5624 -0.1613  0.2641
   31CHL1    H3 2222   4.994   4.805   2.869  0.5898 -0.5111  0.1945
   31CHL1    O3 2223   4.912   4.689   2.724  0.0921  0.5172 -0.3930
   31CHL1   H3' 2224   4.962   4.760   2.683 -0.6506  0.6277 -1.1623
   31CHL1    C4 2225   5.081   4.612   2.874 -0.8866  0.1996 -0.2062
   31CHL1   H4A 2226   5.049   4.508   2.849 -0.7778  0.0878  0.1086
   31CHL1   H4B 2227   5.151   4.633   2.790  2.2792 -1.2885  1.8330
   31CHL1    C5 2228   5.138   4.629   3.020  0.0511 -0.1422  1.0371
   31CHL1    C6 2229   5.265   4.671   3.035  0.2005  0.1331  0.2099
   31CHL1    H6 2230   5.331   4.690   2.949  0.0929  1.6033  0.4279
   31CHL1    C7 2231   5.340   4.686   3.166 -0.5320  0.3626  0.2381
   31CHL1   H7A 2232   5.432   4.625   3.153  0.1140  1.0498  1.4378
   31CHL1   H7B 2233   5.369   4.786   3.202 -1.9715  0.3160  1.6678
   31CHL1    C8 2234   5.258   4.621   3.281  0.7728  0.9033 -0.2456
   31CHL1    H8 2235   5.277   4.511   3.278  1.5428  0.9338  1.9071
   31CHL1   C14 2236   5.313   4.672   3.411  0.1335  0.1836  0.3114
   31CHL1   H14 2237   5.294   4.781   3.419 -1.8992 -0.1004 -0.1551
   31CHL1   C15 2238   5.465   4.658   3.422 -0.5064 -0.2010 -0.3136
   31CHL1  H15A 2239   5.506   4.568   3.371 -2.1832 -1.7377  0.8968
   31CHL1  H15B 2240   5.508   4.750   3.378 -1.2585 -0.0822 -0.8200
   31CHL1   C16 2241   5.481   4.660   3.579 -0.7185  0.0511  0.4353
   31CHL1  H16A 2242   5.534   4.572   3.620  1.8658  1.1770 -0.2630
   31CHL1  H16B 2243   5.542   4.746   3.614  0.3164 -1.0286  1.3595
   31CHL1   C17 2244   5.339   4.669   3.648  0.4417  0.1358 -0.7051
   31CHL1   H17 2245   5.305   4.775   3.654 -1.3916 -0.5030  1.4276
   31CHL1   C13 2246   5.243   4.601   3.537 -0.5129  0.2992 -0.2201
   31CHL1   C18 2247   5.255   4.452   3.529 -0.0763 -0.4967 -0.7179
   31CHL1  H18A 2248   5.213   4.408   3.622 -0.6229 -0.3298 -0.8793
   31CHL1  H18B 2249   5.198   4.407   3.444 -0.3450 -3.8273  1.0416
   31CHL1  H18C 2250   5.360   4.424   3.511 -0.2011 -0.6128 -1.2953
   31CHL1   C12 2251   5.095   4.648   3.532 -0.5353  0.3876 -0.0376
   31CHL1  H12A 2252   5.035   4.604   3.614 -0.1871 -0.1697 -0.0732
   31CHL1  H12B 2253   5.094   4.757   3.551 -1.9159  0.6485 -1.4712
   31CHL1   C11 2254   5.025   4.605   3.398  0.2153 -0.5135 -0.1898
   31CHL1  H11A 2255   5.001   4.497   3.412 -1.7837  0.0720  1.3907
   31CHL1  H11B 2256   4.924   4.650   3.393 -0.8312 -2.5650  1.1547
   31CHL1    C9 2257   5.107   4.651   3.270 -0.0260 -0.0491  0.6929
   31CHL1    H9 2258   5.111   4.762   3.264  1.2737 -0.1244  0.0632
   31CHL1   C10 2259   5.048   4.607   3.131 -0.0838  0.4059 -0.7629
   31CHL1   C19 2260   5.010   4.456   3.143 -0.3189 -0.3605 -0.6378
   31CHL1  H19A 2261   4.947   4.429   3.230  2.2238  1.3597  1.8927
   31CHL1  H19B 2262   4.959   4.413   3.054 -2.9324 -1.9219  1.4680
   31CHL1  H19C 2263   5.106   4.405   3.168  0.2484  1.0395  0.1320
   31CHL1    C1 2264   4.913   4.680   3.100 -0.1690 -0.6886  0.0588
   31CHL1   H1A 2265   4.836   4.650   3.173 -1.6804  2.2015 -0.2083
   31CHL1   H1B 2266   4.931   4.789   3.108 -1.6910 -0.4726  0.7493
   31CHL1    C2 2267   4.853   4.664   2.954 -1.2060 -0.0613  0.1284
   31CHL1   H2A 2268   4.773   4.737   2.931  0.4969  1.3653 -1.5664
   31CHL1   H2B 2269   4.821   4.560   2.930 -0.4397  0.0024 -1.2663
   31CHL1   C20 2270   5.342   4.606   3.790 -0.1418 -0.0078  0.2633
   31CHL1   H20 2271   5.355   4.496   3.783 -1.9172 -0.1520 -1.9230
   31CHL1   C21 2272   5.208   4.633   3.853  0.1163  0.2138 -1.2586
   31CHL1  H21A 2273   5.121   4.583   3.805  0.6054 -0.9868 -0.9451
   31CHL1  H21B 2274   5.178   4.740   3.861  2.8109  0.9301  0.5389
   31CHL1  H21C 2275   5.214   4.593   3.957  2.8139 -1.4016 -1.9385
   31CHL1   C22 2276   5.449   4.673   3.877  0.4745 -0.4168 -0.7068
   31CHL1  H22A 2277   5.435   4.639   3.982 -0.3992  0.5215 -0.5053
   31CHL1  H22B 2278   5.553   4.656   3.844  0.7492  2.1318 -1.3236
   31CHL1   C23 2279   5.439   4.826   3.878  0.0233  0.9528 -0.1537
   31CHL1  H23A 2280   5.452   4.874   3.779 -2.7075 -0.1799 -1.1461
   31CHL1  H23B 2281   5.354   4.878   3.927  0.1045  2.1444 -1.2302
   31CHL1   C24 2282   5.559   4.877   3.953  0.2145 -0.2506  0.2517
   31CHL1  H24A 2283   5.575   4.826   4.051  2.1563  0.8249  0.5570
   31CHL1  H24B 2284   5.648   4.847   3.893 -1.2100  1.7602 -3.1418
   31CHL1   C25 2285   5.560   5.029   3.982  0.2660  0.7934  0.2532
   31CHL1   H25 2286   5.558   5.086   3.887 -0.5983  0.6968  0.2058
   31CHL1   C26 2287   5.447   5.084   4.064  0.2422 -0.3558  0.3439
   31CHL1  H26A 2288   5.357   5.095   3.999  1.0084  1.2450 -0.5260
   31CHL1  H26B 2289   5.442   5.015   4.150  0.8874  0.5277  1.1155
   31CHL1  H26C 2290   5.480   5.180   4.111  4.4011 -0.6846 -1.4883
   31CHL1   C27 2291   5.691   5.070   4.054  0.0728 -0.0807 -0.0061
   31CHL1  H27A 2292   5.695   5.181   4.060  0.4888 -0.1354  1.0025
   31CHL1  H27B 2293   5.692   5.037   4.160  0.4780  1.4349  0.5029
   31CHL1  H27C 2294   5.786   5.033   4.009 -0.5442 -2.3767  0.4847
   32CHL1    C3 2295   1.956   2.728   2.579 -0.1031  0.1924  0.2948
   32CHL1    H3 2296   2.063   2.717   2.553 -0.4400  0.3292 -1.2482
   32CHL1    O3 2297   1.900   2.779   2.454  0.4209  0.3654 -0.1738
   32CHL1   H3' 2298   1.814   2.816   2.476  0.6357  0.3211  0.7932
   32CHL1    C4 2299   1.893   2.592   2.622  0.1995  0.4379 -0.2633
   32CHL1   H4A 2300   1.782   2.589   2.621  0.1117 -0.2058 -4.0422
   32CHL1   H4B 2301   1.924   2.515   2.548 -1.1061 -1.0566  0.6639
   32CHL1    C5 2302   1.923   2.547   2.764  0.0155  0.5477 -0.7680
   32CHL1    C6 2303   1.961   2.422   2.796 -0.5261 -0.1089  0.7618
   32CHL1    H6 2304   1.984   2.348   2.718  0.0328 -0.7299  1.4953
   32CHL1    C7 2305   1.965   2.370   2.942 -0.1825 -0.0865 -0.2986
   32CHL1   H7A 2306   1.918   2.271   2.961 -0.8991  0.3878  0.4476
   32CHL1   H7B 2307   2.073   2.348   2.959 -0.2219 -0.7181 -0.8521
   32CHL1    C8 2308   1.904   2.467   3.049 -0.5924 -0.7075 -0.1356
   32CHL1    H8 2309   1.793   2.466   3.043 -0.6288 -1.7520  0.4547
   32CHL1   C14 2310   1.948   2.423   3.188  0.1301  0.0685 -0.1234
   32CHL1   H14 2311   2.058   2.435   3.185  0.4373 -2.4970 -1.4101
   32CHL1   C15 2312   1.932   2.269   3.224 -0.9401  0.1510 -0.0678
   32CHL1  H15A 2313   1.833   2.231   3.191 -1.0182 -0.6088  0.9920
   32CHL1  H15B 2314   2.009   2.203   3.179 -0.1882 -1.5122  3.2907
   32CHL1   C16 2315   1.935   2.269   3.379 -0.4233 -0.4609 -0.1367
   32CHL1  H16A 2316   1.834   2.244   3.417 -1.3010 -2.0393 -3.2184
   32CHL1  H16B 2317   2.011   2.205   3.427 -0.5586 -0.2183  0.4077
   32CHL1   C17 2318   1.953   2.425   3.426  0.5979 -0.1215 -0.4083
   32CHL1   H17 2319   2.060   2.453   3.432  0.7785 -0.9860  0.9346
   32CHL1   C13 2320   1.900   2.512   3.308  0.0856  0.3353  0.5868
   32CHL1   C18 2321   1.749   2.513   3.313 -0.0507  0.0604  0.0074
   32CHL1  H18A 2322   1.701   2.549   3.406 -1.3015  0.5640 -0.8070
   32CHL1  H18B 2323   1.704   2.577   3.235 -1.2905  1.5000  1.8204
   32CHL1  H18C 2324   1.716   2.407   3.306  1.6804 -0.7198  2.4038
   32CHL1   C12 2325   1.952   2.652   3.276  0.0284 -0.0881 -0.3562
   32CHL1  H12A 2326   1.919   2.723   3.354  1.7293 -0.3973  0.6959
   32CHL1  H12B 2327   2.063   2.650   3.276  0.0842 -0.5344 -2.7022
   32CHL1   C11 2328   1.926   2.706   3.136 -0.3987 -0.7612 -0.7718
   32CHL1  H11A 2329   1.816   2.722   3.146 -0.1727 -0.1758  1.4959
   32CHL1  H11B 2330   1.975   2.805   3.124 -1.2146 -0.1169  0.7982
   32CHL1    C9 2331   1.948   2.614   3.018 -0.0453  0.4850 -0.1094
   32CHL1    H9 2332   2.058   2.599   3.019 -0.3078 -2.2528 -1.3885
   32CHL1   C10 2333   1.900   2.657   2.871 -0.1133  0.1470  0.2044
   32CHL1   C19 2334   1.749   2.684   2.879 -1.0422 -1.3037 -0.6351
   32CHL1  H19A 2335   1.709   2.730   2.787  0.6336 -0.1522 -0.8224
   32CHL1  H19B 2336   1.688   2.601   2.922 -2.5321 -0.0467 -0.2686
   32CHL1  H19C 2337   1.735   2.768   2.950 -1.9795 -0.6095 -1.6147
   32CHL1    C1 2338   1.988   2.773   2.831 -0.0979  0.0045  0.1033
   32CHL1   H1A 2339   1.973   2.858   2.901  2.4969  0.7289 -0.1089
   32CHL1   H1B 2340   2.094   2.743   2.845 -0.1762 -0.7443 -0.7806
   32CHL1    C2 2341   1.948   2.828   2.696 -0.3029 -0.4020  0.3351
   32CHL1   H2A 2342   2.009   2.919   2.674  1.2614 -1.7981 -1.3929
   32CHL1   H2B 2343   1.841   2.859   2.701 -0.4908 -0.3146 -2.3706
   32CHL1   C20 2344   1.902   2.452   3.567  0.0013 -0.1258  0.4881
   32CHL1   H20 2345   1.792   2.449   3.577 -0.2031 -1.0925 -1.5857
   32CHL1   C21 2346   1.937   2.604   3.611 -0.2878 -0.4153 -0.2251
   32CHL1  H21A 2347   1.888   2.679   3.545  2.2149 -0.7561 -2.6786
   32CHL1  H21B 2348   2.045   2.633   3.609 -0.2946 -0.3581  0.3129
   32CHL1  H21C 2349   1.900   2.609   3.715  1.8384  3.4276  0.5522
   32CHL1   C22 2350   1.964   2.352   3.668 -0.1801 -0.3347 -0.0719
   32CHL1  H22A 2351   1.922   2.359   3.770 -2.7551 -0.7195 -1.0207
   32CHL1  H22B 2352   1.951   2.248   3.631  1.4082 -0.4852 -0.2768
   32CHL1   C23 2353   2.117   2.369   3.693 -0.8294  0.1998  0.4123
   32CHL1  H23A 2354   2.163   2.380   3.592 -2.4765  0.0373 -0.3919
   32CHL1  H23B 2355   2.125   2.475   3.727 -0.6819 -0.0392  1.1321
   32CHL1   C24 2356   2.186   2.268   3.780 -0.1906  0.2275 -0.0973
   32CHL1  H24A 2357   2.162   2.164   3.749  1.5505 -0.6630  1.3220
   32CHL1  H24B 2358   2.297   2.274   3.772 -0.1871  1.7507  0.6615
   32CHL1   C25 2359   2.154   2.293   3.927  0.0160 -0.3707 -0.2264
   32CHL1   H25 2360   2.043   2.296   3.923  0.0598  1.1895 -1.7960
   32CHL1   C26 2361   2.215   2.181   4.010 -0.3169 -0.0543  0.7157
   32CHL1  H26A 2362   2.176   2.083   3.975  0.4318  0.2753 -1.1695
   32CHL1  H26B 2363   2.326   2.181   4.003 -0.3939  1.1686 -1.6389
   32CHL1  H26C 2364   2.195   2.185   4.119  1.6466 -3.2758  1.3130
   32CHL1   C27 2365   2.203   2.435   3.978  0.4119 -0.7457  0.7844
   32CHL1  H27A 2366   2.135   2.510   3.932 -0.6070 -1.9862  0.2149
   32CHL1  H27B 2367   2.180   2.440   4.086 -0.5204 -0.2533  0.5687
   32CHL1  H27C 2368   2.313   2.448   3.970  0.5405 -1.7103  0.8551
   33CHL1    C3 2369   0.172   3.694   2.776 -0.4506 -0.8063 -0.2334
   33CHL1    H3 2370   0.069   3.732   2.792 -1.3210 -3.0571 -0.0916
   33CHL1    O3 2371   0.226   3.716   2.645 -0.4307  0.0488 -0.6238
   33CHL1   H3' 2372   0.152   3.733   2.586 -0.0146  0.7636 -0.9519
   33CHL1    C4 2373   0.268   3.750   2.881  0.1203 -0.9957 -0.0295
   33CHL1   H4A 2374   0.371   3.727   2.845  0.3331  1.7158 -1.3370
   33CHL1   H4B 2375   0.246   3.858   2.875 -0.1425 -1.1214 -1.5375
   33CHL1    C5 2376   0.248   3.705   3.027  0.2311 -0.1233  0.4729
   33CHL1    C6 2377   0.246   3.793   3.131 -0.0206  0.0786 -0.2791
   33CHL1    H6 2378   0.255   3.900   3.107  1.2338 -0.3864 -2.0183
   33CHL1    C7 2379   0.232   3.756   3.278  0.2456  0.4954  0.1583
   33CHL1   H7A 2380   0.309   3.798   3.346  1.5199  0.7449 -1.3761
   33CHL1   H7B 2381   0.140   3.798   3.323  1.5072  0.6725  2.7142
   33CHL1    C8 2382   0.221   3.600   3.310  0.1284  0.1328  0.3409
   33CHL1    H8 2383   0.321   3.553   3.310 -0.0664 -0.3453 -1.1681
   33CHL1   C14 2384   0.154   3.578   3.439  0.1338  0.1005  0.2947
   33CHL1   H14 2385   0.053   3.625   3.433  0.0535 -0.0958  0.0862
   33CHL1   C15 2386   0.220   3.645   3.559  0.4874  0.0807 -0.1758
   33CHL1  H15A 2387   0.329   3.622   3.564  1.0526  1.4713 -3.4459
   33CHL1  H15B 2388   0.205   3.754   3.544  1.3089  0.3590  0.8765
   33CHL1   C16 2389   0.125   3.581   3.674  0.0726 -0.0650 -0.3358
   33CHL1  H16A 2390   0.195   3.550   3.754  0.3389 -0.6369 -0.7816
   33CHL1  H16B 2391   0.046   3.648   3.712 -0.5368 -1.0205  0.1172
   33CHL1   C17 2392   0.052   3.457   3.614 -0.3263 -0.0463 -0.0977
   33CHL1   H17 2393  -0.050   3.490   3.585  0.2076  1.4404 -0.3327
   33CHL1   C13 2394   0.121   3.433   3.479  0.4196 -0.0807  0.3979
   33CHL1   C18 2395   0.257   3.368   3.504  0.2218 -0.1452  0.1455
   33CHL1  H18A 2396   0.331   3.385   3.423  0.8125  1.2918  0.9588
   33CHL1  H18B 2397   0.306   3.413   3.593  0.1584 -0.7781  0.5059
   33CHL1  H18C 2398   0.236   3.262   3.529 -0.6073 -0.2493 -0.9258
   33CHL1   C12 2399   0.051   3.363   3.366 -0.6315 -0.5206 -0.0470
   33CHL1  H12A 2400   0.048   3.254   3.388 -0.4096 -1.0834 -2.4802
   33CHL1  H12B 2401  -0.057   3.389   3.376 -0.3037  0.8660  0.0362
   33CHL1   C11 2402   0.119   3.382   3.231 -0.2286 -0.6217 -0.2296
   33CHL1  H11A 2403   0.212   3.322   3.232  0.0187 -0.2914 -1.4631
   33CHL1  H11B 2404   0.049   3.341   3.154 -0.1616  0.1602 -0.7204
   33CHL1    C9 2405   0.146   3.530   3.192 -0.5278 -0.9188 -0.6344
   33CHL1    H9 2406   0.046   3.579   3.189  1.0114  2.4772 -1.8358
   33CHL1   C10 2407   0.210   3.558   3.051  0.3275  0.2943 -0.2675
   33CHL1   C19 2408   0.328   3.468   3.028  0.2752 -0.2108 -0.4587
   33CHL1  H19A 2409   0.299   3.363   3.009 -0.6643  0.2660 -1.8687
   33CHL1  H19B 2410   0.379   3.515   2.941  0.3372  0.9100  0.1577
   33CHL1  H19C 2411   0.390   3.481   3.119 -0.9831  0.6434  0.3127
   33CHL1    C1 2412   0.102   3.517   2.947 -0.4086  0.5719 -0.8536
   33CHL1   H1A 2413   0.084   3.408   2.954  0.4929  0.4916  0.6177
   33CHL1   H1B 2414   0.007   3.571   2.969 -0.6883  1.5609 -4.0191
   33CHL1    C2 2415   0.145   3.542   2.798  0.0837  0.4769  0.3834
   33CHL1   H2A 2416   0.064   3.506   2.731 -0.1766 -0.8190  1.3431
   33CHL1   H2B 2417   0.229   3.475   2.769 -1.5406 -1.0729 -1.0396
   33CHL1   C20 2418   0.029   3.349   3.719 -0.0464  0.3278 -0.6342
   33CHL1   H20 2419   0.131   3.321   3.756  0.3396  3.7877  1.3523
   33CHL1   C21 2420  -0.035   3.230   3.652 -0.7960  0.3250  0.3091
   33CHL1  H21A 2421  -0.032   3.146   3.724 -2.6966  2.7137  3.4704
   33CHL1  H21B 2422   0.034   3.185   3.578  3.6118  1.3131  3.4579
   33CHL1  H21C 2423  -0.134   3.258   3.608 -0.8740  0.3754  0.5154
   33CHL1   C22 2424  -0.057   3.403   3.842 -0.1221  0.2718 -0.6659
   33CHL1  H22A 2425  -0.004   3.490   3.887 -3.3173  2.2371 -0.3596
   33CHL1  H22B 2426  -0.147   3.458   3.808  0.4802  1.8529  0.1663
   33CHL1   C23 2427  -0.081   3.300   3.958 -0.4473  0.0525 -0.5599
   33CHL1  H23A 2428  -0.134   3.207   3.928 -3.0903  1.1579  0.4016
   33CHL1  H23B 2429   0.008   3.269   4.017  0.2967  1.8332 -0.6822
   33CHL1   C24 2430  -0.181   3.367   4.063  0.3746  0.4104 -0.3361
   33CHL1  H24A 2431  -0.267   3.404   4.004 -1.3615 -0.9671  1.2091
   33CHL1  H24B 2432  -0.218   3.286   4.130  1.1484  0.7618  0.5429
   33CHL1   C25 2433  -0.120   3.474   4.158  0.1963 -0.4300 -0.0133
   33CHL1   H25 2434  -0.088   3.553   4.086 -2.0817  0.7638  0.2050
   33CHL1   C26 2435  -0.233   3.528   4.252 -0.2926 -0.1124 -0.5864
   33CHL1  H26A 2436  -0.250   3.457   4.335  0.7986 -0.1175 -0.3476
   33CHL1  H26B 2437  -0.225   3.628   4.301 -1.5043 -0.5300  0.5142
   33CHL1  H26C 2438  -0.325   3.537   4.191  0.2666 -0.4417 -1.4974
   33CHL1   C27 2439   0.003   3.422   4.228  0.2385 -0.3613  0.3297
   33CHL1  H27A 2440   0.085   3.400   4.156 -0.9405 -0.7210 -0.9504
   33CHL1  H27B 2441   0.026   3.490   4.313 -0.6138 -1.0666  1.1569
   33CHL1  H27C 2442  -0.023   3.328   4.282 -0.2945 -0.0187  0.6739
   34CHL1    C3 2443   5.701   5.344   2.974 -0.2636  0.5435 -0.6926
   34CHL1    H3 2444   5.636   5.256   2.997  1.8234 -1.5296 -2.1672
   34CHL1    O3 2445   5.710   5.348   2.834  0.0018  0.1668  0.2701
   34CHL1   H3' 2446   5.729   5.257   2.808  3.8756  0.6531  0.7089
   34CHL1    C4 2447   5.650   5.475   3.038 -0.1695 -0.1448 -0.3417
   34CHL1   H4A 2448   5.720   5.558   3.010 -0.1030 -0.4831 -1.2281
   34CHL1   H4B 2449   5.547   5.495   3.003 -0.4205 -1.1271 -0.1752
   34CHL1    C5 2450   5.639   5.468   3.186  0.5772  0.2785 -0.5624
   34CHL1    C6 2451   5.522   5.488   3.254 -0.1834  0.0967  0.4859
   34CHL1    H6 2452   5.436   5.514   3.190  1.7179 -0.5866 -2.5756
   34CHL1    C7 2453   5.513   5.499   3.404 -0.1940  0.1975  0.8587
   34CHL1   H7A 2454   5.472   5.601   3.422 -0.7055  0.6101 -2.1086
   34CHL1   H7B 2455   5.449   5.421   3.451  0.7978 -0.6576  0.8325
   34CHL1    C8 2456   5.648   5.489   3.472  0.6298  0.1263 -0.0438
   34CHL1    H8 2457   5.709   5.580   3.455  2.7252 -1.4799 -1.7020
   34CHL1   C14 2458   5.635   5.474   3.624  0.7578  0.6285  0.5315
   34CHL1   H14 2459   5.580   5.380   3.640 -0.3201  0.7787 -1.8100
   34CHL1   C15 2460   5.579   5.592   3.709 -0.3677 -0.5240  0.1257
   34CHL1  H15A 2461   5.627   5.682   3.666 -0.6664 -0.5110 -0.1861
   34CHL1  H15B 2462   5.469   5.601   3.697 -0.0051  1.6405 -2.7839
   34CHL1   C16 2463   5.628   5.564   3.850 -0.4032 -0.4190  0.7603
   34CHL1  H16A 2464   5.677   5.655   3.890 -1.0945 -0.2495  1.2339
   34CHL1  H16B 2465   5.545   5.536   3.917 -1.8124 -0.4368 -0.9115
   34CHL1   C17 2466   5.736   5.454   3.847 -0.2657  0.8103  0.3024
   34CHL1   H17 2467   5.690   5.354   3.865 -0.3640  1.2003  2.4989
   34CHL1   C13 2468   5.771   5.457   3.694 -0.2742  0.1147 -0.5506
   34CHL1   C18 2469   5.872   5.576   3.670 -0.2457 -0.0118 -0.1899
   34CHL1  H18A 2470   5.971   5.544   3.707 -0.6693 -1.1477 -0.0048
   34CHL1  H18B 2471   5.888   5.597   3.562 -2.0142 -0.9107 -0.6555
   34CHL1  H18C 2472   5.847   5.670   3.725  0.8427  0.6472 -0.7866
   34CHL1   C12 2473   5.835   5.328   3.638  0.4521 -0.0853 -0.0932
   34CHL1  H12A 2474   5.932   5.317   3.691 -0.2054  1.2874  1.4928
   34CHL1  H12B 2475   5.768   5.243   3.665 -1.9476  1.5301 -0.6533
   34CHL1   C11 2476   5.864   5.339   3.489 -0.0604  0.5653  0.8150
   34CHL1  H11A 2477   5.949   5.409   3.474 -0.3659  0.4330 -2.0364
   34CHL1  H11B 2478   5.890   5.237   3.453 -2.3158  0.4336 -0.6221
   34CHL1    C9 2479   5.741   5.385   3.402 -0.1098 -0.5445 -1.0516
   34CHL1    H9 2480   5.683   5.290   3.397  0.2514 -1.0849  2.3071
   34CHL1   C10 2481   5.768   5.421   3.251 -0.2919 -0.1107 -0.0125
   34CHL1   C19 2482   5.877   5.530   3.242 -0.2718  0.1799  0.5787
   34CHL1  H19A 2483   5.842   5.624   3.290 -0.2516  0.0486  0.8546
   34CHL1  H19B 2484   5.976   5.504   3.285  0.0342 -3.1888 -1.7486
   34CHL1  H19C 2485   5.906   5.552   3.137  1.1359  2.3729  1.3585
   34CHL1    C1 2486   5.826   5.292   3.182 -0.0744 -0.4259  0.4176
   34CHL1   H1A 2487   5.926   5.259   3.218  0.1292  0.1819  0.4276
   34CHL1   H1B 2488   5.751   5.213   3.200  1.2555 -2.1141 -1.1554
   34CHL1    C2 2489   5.835   5.304   3.028  0.5430  0.5371  0.5979
   34CHL1   H2A 2490   5.873   5.208   2.988 -1.0393 -0.0582  0.4730
   34CHL1   H2B 2491   5.900   5.394   3.015 -0.0762  1.0810  1.1523
   34CHL1   C20 2492   5.838   5.483   3.958 -0.0339 -0.0036  0.0827
   34CHL1   H20 2493   5.884   5.584   3.953  2.2301 -0.8674  1.5417
   34CHL1   C21 2494   5.953   5.376   3.965  0.3504  0.1579 -0.2849
   34CHL1  H21A 2495   6.015   5.399   4.054  1.8905 -3.9443 -0.0783
   34CHL1  H21B 2496   6.014   5.390   3.872  1.7393  1.7984  0.8051
   34CHL1  H21C 2497   5.913   5.274   3.981  1.4841 -0.5113 -1.4929
   34CHL1   C22 2498   5.767   5.504   4.098 -0.2753  0.3581 -0.1229
   34CHL1  H22A 2499   5.714   5.600   4.082  1.5003  1.4688  0.4201
   34CHL1  H22B 2500   5.691   5.423   4.106  0.8099 -0.7232 -0.4953
   34CHL1   C23 2501   5.845   5.490   4.232 -0.6096  0.0775 -0.2478
   34CHL1  H23A 2502   5.863   5.383   4.254 -1.0617  0.0836  0.1746
   34CHL1  H23B 2503   5.939   5.547   4.221  1.3508 -3.1770 -1.8546
   34CHL1   C24 2504   5.761   5.546   4.350  0.0665  0.6079 -0.0209
   34CHL1  H24A 2505   5.738   5.654   4.337 -1.0719  0.3406 -0.2902
   34CHL1  H24B 2506   5.660   5.505   4.332 -0.3490  1.4052  0.4092
   34CHL1   C25 2507   5.805   5.492   4.488 -0.5593 -0.2029  0.4429
   34CHL1   H25 2508   5.813   5.381   4.482 -0.1830 -0.1102 -1.6071
   34CHL1   C26 2509   5.942   5.549   4.535  0.9362 -0.2586 -0.6507
   34CHL1  H26A 2510   6.018   5.570   4.457  1.6013 -1.7618 -0.4422
   34CHL1  H26B 2511   5.917   5.642   4.591 -0.2453 -1.5641  1.1280
   34CHL1  H26C 2512   5.973   5.475   4.612 -1.2730 -2.3756 -1.6376
   34CHL1   C27 2513   5.699   5.518   4.594 -0.8462 -0.0664  0.8484
   34CHL1  H27A 2514   5.606   5.461   4.572 -0.7924 -0.1198  0.7590
   34CHL1  H27B 2515   5.743   5.488   4.691  2.1102 -0.0219 -0.3585
   34CHL1  H27C 2516   5.673   5.626   4.595 -0.0866  0.3436 -3.6199
   35CHL1    C3 2517   2.886   4.801   3.172 -0.5546 -0.1680  0.3859
   35CHL1    H3 2518   2.787   4.829   3.214 -1.0882 -0.5473 -0.5831
   35CHL1    O3 2519   2.889   4.845   3.028  0.1825 -0.6995 -0.0598
   35CHL1   H3' 2520   2.969   4.811   2.988  0.3917  1.6775 -1.8739
   35CHL1    C4 2521   2.999   4.854   3.262 -0.0925 -0.5906  0.7256
   35CHL1   H4A 2522   3.092   4.822   3.211  0.3238 -0.4085  1.3609
   35CHL1   H4B 2523   3.004   4.965   3.254  0.3950 -0.7314 -1.5224
   35CHL1    C5 2524   3.005   4.805   3.406  0.6687  0.4872  0.1086
   35CHL1    C6 2525   3.005   4.888   3.510  0.6953 -1.0914  0.4347
   35CHL1    H6 2526   2.999   4.996   3.488 -3.5781 -1.4914 -1.3343
   35CHL1    C7 2527   2.996   4.843   3.651 -0.3166 -0.1521 -0.4020
   35CHL1   H7A 2528   3.064   4.906   3.712 -1.6089  1.4716 -0.5661
   35CHL1   H7B 2529   2.892   4.863   3.685 -1.2976 -2.0378 -2.0739
   35CHL1    C8 2530   3.020   4.687   3.669 -0.4196  0.6045 -0.1863
   35CHL1    H8 2531   3.129   4.665   3.659 -0.5559  0.5782 -1.9398
   35CHL1   C14 2532   2.975   4.654   3.815 -0.0455  0.2985 -0.1300
   35CHL1   H14 2533   2.867   4.680   3.803  0.1648  1.0517 -0.4213
   35CHL1   C15 2534   3.032   4.726   3.936 -0.6189  0.2866  0.2534
   35CHL1  H15A 2535   3.142   4.727   3.922 -0.7020 -0.0714 -0.4789
   35CHL1  H15B 2536   2.985   4.827   3.935  0.3025  0.7470  1.1858
   35CHL1   C16 2537   2.986   4.643   4.049  0.0302  0.9882 -0.6136
   35CHL1  H16A 2538   3.075   4.630   4.114 -0.3996 -1.2310 -0.3684
   35CHL1  H16B 2539   2.896   4.679   4.103 -0.3255 -1.2025  0.3869
   35CHL1   C17 2540   2.934   4.504   3.989 -1.3330  0.7375 -1.3500
   35CHL1   H17 2541   2.823   4.510   3.997 -1.1799  1.5901  1.4131
   35CHL1   C13 2542   2.984   4.503   3.847 -0.2748 -0.1492  0.4525
   35CHL1   C18 2543   3.132   4.457   3.844  0.6176 -0.5021  0.8111
   35CHL1  H18A 2544   3.183   4.480   3.748  2.7838  0.2724  2.0633
   35CHL1  H18B 2545   3.195   4.496   3.928  1.5989 -3.7244  1.6995
   35CHL1  H18C 2546   3.133   4.346   3.840  1.2709 -0.5729  2.3970
   35CHL1   C12 2547   2.897   4.428   3.743 -1.0540  0.3697  0.4991
   35CHL1  H12A 2548   2.899   4.318   3.758 -0.6363  0.4351  0.9466
   35CHL1  H12B 2549   2.796   4.469   3.765 -0.1467  1.5775  2.8048
   35CHL1   C11 2550   2.925   4.457   3.596  0.0063 -0.2641  0.1839
   35CHL1  H11A 2551   3.025   4.414   3.571  0.2843  1.0192 -1.0647
   35CHL1  H11B 2552   2.845   4.423   3.527  0.9223  2.5730 -2.5577
   35CHL1    C9 2553   2.946   4.609   3.563  0.2660 -0.2205  0.2469
   35CHL1    H9 2554   2.844   4.653   3.572  0.5698  1.6090 -3.5331
   35CHL1   C10 2555   2.978   4.650   3.417  0.0995  0.4172  1.0395
   35CHL1   C19 2556   3.103   4.571   3.381  0.3035 -0.0033  0.6194
   35CHL1  H19A 2557   3.140   4.607   3.283  1.3968  0.9938  1.3627
   35CHL1  H19B 2558   3.190   4.584   3.449 -1.7203 -1.6648  3.7487
   35CHL1  H19C 2559   3.081   4.462   3.375 -1.6261  0.4184 -2.1317
   35CHL1    C1 2560   2.863   4.603   3.317 -0.6374  0.3702 -0.3742
   35CHL1   H1A 2561   2.865   4.492   3.319  1.0735  0.3764  0.9045
   35CHL1   H1B 2562   2.763   4.642   3.345 -1.0853 -0.2043 -1.1500
   35CHL1    C2 2563   2.873   4.651   3.170 -0.5191 -0.4935 -1.0700
   35CHL1   H2A 2564   2.788   4.619   3.107 -1.7669  0.6678 -0.0515
   35CHL1   H2B 2565   2.960   4.605   3.120 -0.6882 -3.5319  1.1601
   35CHL1   C20 2566   2.973   4.386   4.083  0.7750  0.4771  0.0959
   35CHL1   H20 2567   3.080   4.355   4.078  0.2737 -2.2011  2.9095
   35CHL1   C21 2568   2.897   4.258   4.033  0.0636  0.3848 -0.4774
   35CHL1  H21A 2569   2.790   4.283   4.013 -0.2930 -1.2281 -0.7236
   35CHL1  H21B 2570   2.889   4.175   4.106 -0.9711  0.7975 -0.1099
   35CHL1  H21C 2571   2.934   4.212   3.939  0.1295 -0.7766  0.1067
   35CHL1   C22 2572   2.942   4.399   4.230 -1.0014  0.3241 -0.2691
   35CHL1  H22A 2573   2.974   4.309   4.286 -0.1075  0.7476 -0.0832
   35CHL1  H22B 2574   3.004   4.478   4.277  0.9089  0.7919 -3.2948
   35CHL1   C23 2575   2.795   4.426   4.270  0.2108 -0.0271  0.0349
   35CHL1  H23A 2576   2.752   4.510   4.212  0.5296  0.3348  0.3130
   35CHL1  H23B 2577   2.738   4.337   4.236  1.3946 -0.7169 -0.2372
   35CHL1   C24 2578   2.783   4.444   4.420 -0.0920 -0.1356  0.0156
   35CHL1  H24A 2579   2.816   4.341   4.444 -0.0227  0.1910  1.3702
   35CHL1  H24B 2580   2.847   4.520   4.469 -0.4367 -0.9548  1.8003
   35CHL1   C25 2581   2.642   4.464   4.476 -0.1042  0.2640 -0.4765
   35CHL1   H25 2582   2.573   4.397   4.421  0.1609 -1.1438  0.8382
   35CHL1   C26 2583   2.645   4.414   4.627 -0.3044  0.1737  0.3443
   35CHL1  H26A 2584   2.698   4.498   4.678 -2.7444  1.8169  0.3456
   35CHL1  H26B 2585   2.539   4.414   4.659 -0.3187 -0.0641  0.2971
   35CHL1  H26C 2586   2.691   4.314   4.637 -1.3207 -0.6556 -2.4052
   35CHL1   C27 2587   2.604   4.606   4.449  0.6744 -0.2823 -0.2541
   35CHL1  H27A 2588   2.497   4.625   4.474  0.0105 -2.8387 -0.9132
   35CHL1  H27B 2589   2.668   4.676   4.507  0.8709 -1.0625  0.4845
   35CHL1  H27C 2590   2.624   4.643   4.346  2.3602 -2.5959 -0.8284
   36CHL1    C3 2591   5.474   6.280   3.082 -0.2447  0.9236 -0.8986
   36CHL1    H3 2592   5.578   6.304   3.113 -0.1695  1.3167 -1.4379
   36CHL1    O3 2593   5.454   6.293   2.938  0.1147 -0.3865 -0.0872
   36CHL1   H3' 2594   5.361   6.276   2.921 -0.0866  1.5506 -1.2968
   36CHL1    C4 2595   5.445   6.129   3.126  0.6876 -0.1057 -0.0974
   36CHL1   H4A 2596   5.351   6.107   3.071  1.8367  0.4955 -2.4189
   36CHL1   H4B 2597   5.517   6.059   3.078  1.2173 -0.3361  0.9871
   36CHL1    C5 2598   5.432   6.107   3.275 -0.0931 -0.3843 -0.1814
   36CHL1    C6 2599   5.507   6.009   3.327  1.1590  1.1122 -0.3060
   36CHL1    H6 2600   5.574   5.950   3.262  1.5431 -0.3942  1.3725
   36CHL1    C7 2601   5.513   5.974   3.471 -0.5217  0.4150  0.7512
   36CHL1   H7A 2602   5.494   5.865   3.475 -0.4757  0.2605 -1.4888
   36CHL1   H7B 2603   5.618   5.996   3.500  0.5671 -2.0858 -0.9035
   36CHL1    C8 2604   5.416   6.050   3.555  0.4329  0.1798 -0.6474
   36CHL1    H8 2605   5.321   5.992   3.563  0.8886 -0.4294  0.4871
   36CHL1   C14 2606   5.472   6.066   3.701 -0.0434 -0.0747  0.0207
   36CHL1   H14 2607   5.562   6.130   3.690  0.4752 -0.7497  0.2155
   36CHL1   C15 2608   5.516   5.939   3.785  0.4069  0.4815  0.6115
   36CHL1  H15A 2609   5.476   5.839   3.759  3.4771 -0.1029 -2.6984
   36CHL1  H15B 2610   5.622   5.915   3.759  0.5296  1.7216 -0.1373
   36CHL1   C16 2611   5.499   5.974   3.934 -0.0283  0.5516  0.9779
   36CHL1  H16A 2612   5.420   5.912   3.982 -1.7993  2.0891  0.1611
   36CHL1  H16B 2613   5.595   5.958   3.987 -0.0018  0.2686  0.8474
   36CHL1   C17 2614   5.449   6.117   3.932 -0.2351 -0.1834 -0.1981
   36CHL1   H17 2615   5.545   6.172   3.918 -0.4816  0.0719 -0.8912
   36CHL1   C13 2616   5.376   6.141   3.797 -0.0486 -0.4608  0.0532
   36CHL1   C18 2617   5.245   6.056   3.810  0.1684 -0.2691  0.8814
   36CHL1  H18A 2618   5.259   5.949   3.785 -2.8737 -0.6800  0.5554
   36CHL1  H18B 2619   5.192   6.059   3.908 -1.8093  0.6002 -0.1366
   36CHL1  H18C 2620   5.177   6.091   3.729 -1.4011 -0.7683  1.9438
   36CHL1   C12 2621   5.346   6.289   3.746 -0.8949  0.6994 -0.5212
   36CHL1  H12A 2622   5.263   6.326   3.810 -0.5139 -1.0275  1.0592
   36CHL1  H12B 2623   5.439   6.348   3.761 -2.1022  2.6483 -0.2680
   36CHL1   C11 2624   5.314   6.294   3.595  0.1811  0.4371 -0.0502
   36CHL1  H11A 2625   5.205   6.281   3.576  0.2092 -0.8925  0.6222
   36CHL1  H11B 2626   5.329   6.400   3.563 -0.8481  0.9600  1.0962
   36CHL1    C9 2627   5.394   6.190   3.502  0.5155 -0.7259  0.2608
   36CHL1    H9 2628   5.493   6.238   3.514 -0.0035  0.4255  0.1372
   36CHL1   C10 2629   5.350   6.207   3.355 -0.6434 -0.5051 -0.2695
   36CHL1   C19 2630   5.207   6.164   3.333 -0.4077 -0.0263  0.4237
   36CHL1  H19A 2631   5.188   6.138   3.226 -0.1254 -0.0970  0.3879
   36CHL1  H19B 2632   5.184   6.076   3.395  0.8559 -0.4383  0.3356
   36CHL1  H19C 2633   5.132   6.238   3.368 -0.1633  2.2490 -3.2270
   36CHL1    C1 2634   5.391   6.351   3.314 -0.2981  0.6485  0.2311
   36CHL1   H1A 2635   5.313   6.421   3.352  1.1261  2.3831  0.0931
   36CHL1   H1B 2636   5.491   6.387   3.345 -0.1541 -1.2510  2.2273
   36CHL1    C2 2637   5.384   6.373   3.157  0.2195  0.6627  0.4506
   36CHL1   H2A 2638   5.402   6.479   3.131  0.6304  0.4773 -0.0251
   36CHL1   H2B 2639   5.277   6.353   3.135  0.7888 -1.0307 -0.9665
   36CHL1   C20 2640   5.383   6.149   4.072  0.5559  0.0553 -0.0910
   36CHL1   H20 2641   5.302   6.074   4.085  0.8403 -0.4262 -0.9771
   36CHL1   C21 2642   5.328   6.292   4.070  0.8455  0.1181  0.5875
   36CHL1  H21A 2643   5.225   6.293   4.029  0.7019 -1.7678  0.8241
   36CHL1  H21B 2644   5.394   6.346   3.998  0.5847  1.5079  1.3614
   36CHL1  H21C 2645   5.320   6.342   4.168 -2.3187 -4.3313  2.9454
   36CHL1   C22 2646   5.472   6.122   4.199  0.0017  0.5244  0.2983
   36CHL1  H22A 2647   5.504   6.018   4.220 -1.4995  0.6233  3.8799
   36CHL1  H22B 2648   5.564   6.184   4.198  0.0590  0.4896 -2.1891
   36CHL1   C23 2649   5.402   6.158   4.338  0.0624 -0.8371  1.1246
   36CHL1  H23A 2650   5.394   6.268   4.343  1.9110 -0.3048 -3.3561
   36CHL1  H23B 2651   5.298   6.120   4.336  0.4359 -1.9236 -1.8154
   36CHL1   C24 2652   5.485   6.107   4.453  0.0867  0.2986  0.3561
   36CHL1  H24A 2653   5.512   6.001   4.436  0.3252  0.3613  0.3480
   36CHL1  H24B 2654   5.572   6.176   4.456  2.1825 -2.0648 -1.6171
   36CHL1   C25 2655   5.404   6.117   4.586  1.2303  0.2488 -0.2980
   36CHL1   H25 2656   5.305   6.069   4.574  0.4065  1.6703  0.5258
   36CHL1   C26 2657   5.472   6.037   4.689 -0.2724 -0.0034 -0.9404
   36CHL1  H26A 2658   5.465   5.929   4.665  1.3229 -0.5403  0.7949
   36CHL1  H26B 2659   5.578   6.067   4.701 -0.1674 -1.2148  1.6712
   36CHL1  H26C 2660   5.429   6.050   4.790  0.2479  0.8184 -0.8151
   36CHL1   C27 2661   5.384   6.261   4.632  0.1102  0.2976 -0.7942
   36CHL1  H27A 2662   5.483   6.311   4.630  1.0494 -1.1060  2.4448
   36CHL1  H27B 2663   5.319   6.310   4.557 -0.3344 -0.7954 -1.1353
   36CHL1  H27C 2664   5.339   6.271   4.733  0.7272 -1.2500 -0.3266
   37CHL1    C3 2665   1.251   4.886   3.101 -0.4474  0.3848 -0.3993
   37CHL1    H3 2666   1.324   4.963   3.068 -1.8237  0.7233 -2.9621
   37CHL1    O3 2667   1.234   4.808   2.985  0.2691 -0.0328 -0.1978
   37CHL1   H3' 2668   1.195   4.870   2.923 -1.9278 -0.1342  1.0073
   37CHL1    C4 2669   1.331   4.810   3.212 -0.2130 -0.3439  0.6165
   37CHL1   H4A 2670   1.290   4.706   3.219  1.1412 -1.0947 -1.6058
   37CHL1   H4B 2671   1.435   4.802   3.174 -0.8753  0.6437 -1.5813
   37CHL1    C5 2672   1.324   4.877   3.352 -0.1076 -0.0914 -0.3167
   37CHL1    C6 2673   1.428   4.888   3.430 -0.7680 -0.4684  0.1787
   37CHL1    H6 2674   1.528   4.850   3.401  0.3253  1.7380  0.8487
   37CHL1    C7 2675   1.425   4.945   3.570 -0.3584  0.2703 -0.2237
   37CHL1   H7A 2676   1.479   4.876   3.638 -1.5546  1.1110  1.6637
   37CHL1   H7B 2677   1.468   5.047   3.561  0.2094 -0.0931 -1.9049
   37CHL1    C8 2678   1.279   4.954   3.630 -0.5666  0.3093 -0.1858
   37CHL1    H8 2679   1.240   4.853   3.655 -0.1981  0.1017 -0.4498
   37CHL1   C14 2680   1.284   5.039   3.756  0.2449  0.3710 -0.0462
   37CHL1   H14 2681   1.317   5.137   3.715 -1.2463  0.4554 -1.1231
   37CHL1   C15 2682   1.387   5.012   3.869  0.2713 -0.6485  0.2648
   37CHL1  H15A 2683   1.394   4.903   3.891  1.5037 -0.6710 -0.1481
   37CHL1  H15B 2684   1.492   5.033   3.842  0.1461 -1.0448 -0.5620
   37CHL1   C16 2685   1.322   5.082   3.989 -0.0268 -0.0589  0.0655
   37CHL1  H16A 2686   1.301   5.010   4.071 -0.2306  0.6908  0.6823
   37CHL1  H16B 2687   1.380   5.170   4.024 -1.1987  0.4428  0.8218
   37CHL1   C17 2688   1.191   5.138   3.941 -0.2329  0.2298 -0.4654
   37CHL1   H17 2689   1.207   5.241   3.905 -1.3889  0.7319  0.3992
   37CHL1   C13 2690   1.146   5.061   3.819  1.0713 -0.1515 -0.1248
   37CHL1   C18 2691   1.082   4.926   3.870  0.4579 -0.5381  0.1069
   37CHL1  H18A 2692   1.055   4.856   3.788 -3.2120  1.9929 -1.0576
   37CHL1  H18B 2693   1.161   4.875   3.930  1.2008  1.7838  1.2345
   37CHL1  H18C 2694   0.991   4.935   3.932  0.6441  1.6033  0.1266
   37CHL1   C12 2695   1.048   5.125   3.712 -0.4864  0.6193  1.4266
   37CHL1  H12A 2696   0.943   5.122   3.749 -0.5240 -1.1287  1.2945
   37CHL1  H12B 2697   1.076   5.229   3.685  2.4613 -0.6007 -0.6737
   37CHL1   C11 2698   1.047   5.042   3.580 -0.5290 -0.1047 -0.5205
   37CHL1  H11A 2699   0.986   4.951   3.597  2.5969 -2.5754 -1.3526
   37CHL1  H11B 2700   0.994   5.102   3.503 -0.1753  2.0485  0.8421
   37CHL1    C9 2701   1.186   5.001   3.523  0.2040 -1.0103  0.6049
   37CHL1    H9 2702   1.230   5.098   3.490  0.5905 -1.0176  1.0740
   37CHL1   C10 2703   1.181   4.919   3.388 -0.0573  0.0855  0.6191
   37CHL1   C19 2704   1.089   4.794   3.418  0.2145  0.6650  0.2102
   37CHL1  H19A 2705   0.983   4.819   3.441 -0.4508 -0.0370 -1.9052
   37CHL1  H19B 2706   1.074   4.735   3.326  1.9597  1.3518 -0.5534
   37CHL1  H19C 2707   1.131   4.722   3.491  1.7241  1.1345 -0.1648
   37CHL1    C1 2708   1.114   5.004   3.278  0.8218 -0.2027  0.0099
   37CHL1   H1A 2709   1.007   5.023   3.301  0.6147 -0.7395 -0.4690
   37CHL1   H1B 2710   1.149   5.110   3.281 -1.1267  0.4536  1.6151
   37CHL1    C2 2711   1.115   4.934   3.140 -0.6175 -0.0042 -0.3915
   37CHL1   H2A 2712   1.079   5.009   3.066 -1.2109  0.0955 -0.0109
   37CHL1   H2B 2713   1.050   4.844   3.139  0.5509 -0.9640 -3.7254
   37CHL1   C20 2714   1.089   5.155   4.063 -0.0591  0.2846  0.3246
   37CHL1   H20 2715   1.065   5.051   4.092 -0.6915  0.0578 -0.9404
   37CHL1   C21 2716   0.972   5.236   4.017 -0.0783  0.0443  0.1095
   37CHL1  H21A 2717   1.012   5.330   3.975  0.6180 -0.5251 -0.5319
   37CHL1  H21B 2718   0.908   5.262   4.104 -0.8416 -0.0244 -0.4196
   37CHL1  H21C 2719   0.912   5.183   3.940 -0.4588  0.7859 -0.1071
   37CHL1   C22 2720   1.151   5.232   4.178 -0.2074  0.1342 -0.2138
   37CHL1  H22A 2721   1.248   5.180   4.196 -0.0315 -0.0624 -1.6344
   37CHL1  H22B 2722   1.195   5.331   4.152  0.9391 -0.4373 -0.5398
   37CHL1   C23 2723   1.065   5.233   4.307 -0.4906  0.2411  0.9640
   37CHL1  H23A 2724   0.970   5.289   4.293 -0.2595  0.2267 -0.9527
   37CHL1  H23B 2725   1.042   5.126   4.321  0.9027 -0.2749 -0.4213
   37CHL1   C24 2726   1.148   5.271   4.434  0.0050  0.0422  0.7326
   37CHL1  H24A 2727   1.250   5.229   4.420 -1.0475 -1.8925 -2.0457
   37CHL1  H24B 2728   1.153   5.382   4.434 -0.8491  0.1108  2.7807
   37CHL1   C25 2729   1.099   5.225   4.570 -0.0764 -0.4708 -0.1253
   37CHL1   H25 2730   1.160   5.270   4.651 -0.3328 -0.2345 -0.0620
   37CHL1   C26 2731   0.959   5.277   4.601  0.2028  0.3901  0.8075
   37CHL1  H26A 2732   0.959   5.388   4.591  1.3050  0.3135 -0.3952
   37CHL1  H26B 2733   0.873   5.234   4.546  1.1558 -2.1705  1.2151
   37CHL1  H26C 2734   0.929   5.265   4.707  2.8006  0.3565  1.6100
   37CHL1   C27 2735   1.098   5.075   4.574  0.9801  0.3250 -0.1214
   37CHL1  H27A 2736   1.061   5.043   4.674 -0.2036  1.0629 -0.2969
   37CHL1  H27B 2737   1.020   5.035   4.505  0.3586  3.3666 -1.3494
   37CHL1  H27C 2738   1.192   5.028   4.539  1.1688  2.1591 -2.2872
   38CHL1    C3 2739   3.464   5.839   2.867  0.3918 -0.9698  0.3546
   38CHL1    H3 2740   3.489   5.731   2.879 -0.9506 -1.1254  2.2665
   38CHL1    O3 2741   3.418   5.873   2.738 -0.4781 -0.0005 -0.1014
   38CHL1   H3' 2742   3.362   5.798   2.719  0.0307 -0.5117  0.3934
   38CHL1    C4 2743   3.357   5.889   2.965  0.3401  0.0245  0.7915
   38CHL1   H4A 2744   3.337   5.997   2.953  1.7008  0.1246 -1.0257
   38CHL1   H4B 2745   3.260   5.837   2.950  0.9983 -1.3594  1.1926
   38CHL1    C5 2746   3.391   5.861   3.111 -0.0574 -0.1919 -0.1359
   38CHL1    C6 2747   3.316   5.796   3.199 -0.8388 -0.5170 -0.6219
   38CHL1    H6 2748   3.214   5.761   3.175 -1.0787  1.2082 -2.3368
   38CHL1    C7 2749   3.343   5.771   3.343 -0.3308  0.7358  0.0576
   38CHL1   H7A 2750   3.249   5.775   3.401 -1.3166 -0.3429 -1.3908
   38CHL1   H7B 2751   3.365   5.662   3.350 -1.4085  0.5193  0.1667
   38CHL1    C8 2752   3.457   5.853   3.399  0.4863 -0.0542 -0.4408
   38CHL1    H8 2753   3.415   5.954   3.419  0.4310 -0.2825  0.6437
   38CHL1   C14 2754   3.511   5.792   3.529  0.4099  0.3605  1.0182
   38CHL1   H14 2755   3.560   5.699   3.492 -1.1159  0.4700 -1.5394
   38CHL1   C15 2756   3.410   5.758   3.639 -0.1952 -0.3199 -0.0351
   38CHL1  H15A 2757   3.352   5.848   3.667  1.6211  1.2105 -0.9403
   38CHL1  H15B 2758   3.340   5.674   3.618 -0.9678  0.3778 -0.2919
   38CHL1   C16 2759   3.509   5.723   3.759  0.0211 -0.0074  0.0298
   38CHL1  H16A 2760   3.464   5.778   3.844 -1.0788 -1.6564  0.5519
   38CHL1  H16B 2761   3.508   5.618   3.794  0.7185  0.0054  0.0957
   38CHL1   C17 2762   3.645   5.778   3.722  0.2070  0.3072  0.4889
   38CHL1   H17 2763   3.703   5.690   3.687 -0.7330 -0.7171  1.4324
   38CHL1   C13 2764   3.621   5.867   3.594 -0.0027  0.0373 -0.5152
   38CHL1   C18 2765   3.578   6.010   3.647 -0.3010  0.7640 -0.2288
   38CHL1  H18A 2766   3.519   6.057   3.565 -1.2477 -1.5725 -0.9555
   38CHL1  H18B 2767   3.502   6.003   3.728  0.6128 -0.7109  0.5323
   38CHL1  H18C 2768   3.666   6.075   3.667  0.7765 -0.7409  0.0551
   38CHL1   C12 2769   3.735   5.868   3.491 -0.2286  0.7482 -0.3505
   38CHL1  H12A 2770   3.824   5.917   3.537 -1.6805  3.1385  0.1086
   38CHL1  H12B 2771   3.769   5.767   3.461  1.1700  0.8825  0.6859
   38CHL1   C11 2772   3.697   5.933   3.359  0.2925  0.5381 -0.6805
   38CHL1  H11A 2773   3.673   6.039   3.382 -0.1994 -0.0568  1.8282
   38CHL1  H11B 2774   3.790   5.928   3.299  2.7591 -4.6080  2.8399
   38CHL1    C9 2775   3.578   5.862   3.292 -0.6509  0.0759 -0.8674
   38CHL1    H9 2776   3.618   5.758   3.282  0.3342  0.4455 -0.8988
   38CHL1   C10 2777   3.532   5.916   3.151 -0.4716 -0.5456 -0.7337
   38CHL1   C19 2778   3.518   6.069   3.161  0.7189 -0.2522  0.7978
   38CHL1  H19A 2779   3.466   6.092   3.256  1.0439  2.0994  0.4650
   38CHL1  H19B 2780   3.618   6.118   3.170  1.3421 -1.3475  0.0845
   38CHL1  H19C 2781   3.463   6.112   3.075  2.9836  0.8791 -0.1707
   38CHL1    C1 2782   3.637   5.887   3.050  0.1937 -0.1947 -0.2206
   38CHL1   H1A 2783   3.729   5.944   3.076  0.6461 -0.7174 -0.6716
   38CHL1   H1B 2784   3.666   5.780   3.054 -1.3028 -0.6017  0.4217
   38CHL1    C2 2785   3.597   5.919   2.905 -0.3328  0.0661  0.4912
   38CHL1   H2A 2786   3.670   5.887   2.827 -1.0927  1.1117 -0.6861
   38CHL1   H2B 2787   3.569   6.026   2.892  0.1361  0.2315  0.8416
   38CHL1   C20 2788   3.718   5.836   3.843 -1.3564 -0.2457  0.1039
   38CHL1   H20 2789   3.652   5.921   3.873 -3.0998 -1.5213  0.0742
   38CHL1   C21 2790   3.855   5.896   3.806 -0.0187  0.0158  0.6868
   38CHL1  H21A 2791   3.852   5.982   3.737 -0.0213 -0.7373 -0.2682
   38CHL1  H21B 2792   3.915   5.822   3.749  0.0352  1.2264 -0.8877
   38CHL1  H21C 2793   3.904   5.939   3.896 -1.4078  0.0339  1.4549
   38CHL1   C22 2794   3.727   5.752   3.967  0.6760 -0.3193 -0.4203
   38CHL1  H22A 2795   3.799   5.799   4.038  0.6952 -0.7306 -0.1659
   38CHL1  H22B 2796   3.626   5.733   4.009  1.7491 -1.1179  2.0202
   38CHL1   C23 2797   3.770   5.607   3.939 -0.1648  0.2585  0.9222
   38CHL1  H23A 2798   3.686   5.553   3.889  0.9155 -1.0735  0.5059
   38CHL1  H23B 2799   3.857   5.607   3.870 -2.6728 -0.5189 -2.5559
   38CHL1   C24 2800   3.792   5.524   4.058  0.0717 -0.6324 -0.1531
   38CHL1  H24A 2801   3.873   5.564   4.123  0.9568  0.4907 -1.8584
   38CHL1  H24B 2802   3.699   5.522   4.118 -1.1225 -1.1287 -1.9229
   38CHL1   C25 2803   3.814   5.373   4.031  0.3317  0.2990 -0.3640
   38CHL1   H25 2804   3.735   5.328   3.966 -0.0861 -1.1495  1.0666
   38CHL1   C26 2805   3.956   5.349   3.975 -0.4621  0.4570 -0.2218
   38CHL1  H26A 2806   3.956   5.361   3.865  3.8340  1.5886 -0.2704
   38CHL1  H26B 2807   4.023   5.430   4.010  0.2131  0.0429 -0.5491
   38CHL1  H26C 2808   3.985   5.246   4.003 -1.9450 -0.7747 -2.8114
   38CHL1   C27 2809   3.794   5.285   4.161 -0.5051 -0.7111  0.2723
   38CHL1  H27A 2810   3.695   5.302   4.209 -1.2339 -1.3553 -0.9581
   38CHL1  H27B 2811   3.790   5.178   4.134  1.5117 -1.3210  2.1249
   38CHL1  H27C 2812   3.887   5.300   4.220  2.4859  1.3598 -4.4072
   39CHL1    C3 2813   1.309   3.473   2.897 -0.5638  0.1142  0.5097
   39CHL1    H3 2814   1.384   3.555   2.898 -0.4517  0.0226  1.8926
   39CHL1    O3 2815   1.301   3.414   2.766 -0.3734 -0.0134 -0.2059
   39CHL1   H3' 2816   1.322   3.321   2.773 -1.5415 -0.1960  1.2605
   39CHL1    C4 2817   1.372   3.370   2.994 -0.5514 -0.0626 -0.1944
   39CHL1   H4A 2818   1.327   3.274   2.962  1.1843 -1.3357  0.9762
   39CHL1   H4B 2819   1.474   3.351   2.955 -0.7756 -0.5711 -0.5391
   39CHL1    C5 2820   1.350   3.398   3.141  0.1923 -0.2126  0.0811
   39CHL1    C6 2821   1.450   3.384   3.229 -0.7044 -0.2279 -0.1644
   39CHL1    H6 2822   1.548   3.344   3.199  0.4718  0.8444  2.0120
   39CHL1    C7 2823   1.446   3.406   3.376  0.1909 -0.4516 -0.3704
   39CHL1   H7A 2824   1.500   3.328   3.434 -0.0093  1.5647  2.7311
   39CHL1   H7B 2825   1.493   3.503   3.402  0.0226  0.0887 -1.9653
   39CHL1    C8 2826   1.301   3.420   3.422 -0.8544  0.1338  0.0986
   39CHL1    H8 2827   1.264   3.317   3.438  3.9083 -1.9955 -0.8652
   39CHL1   C14 2828   1.290   3.494   3.554 -0.2906  0.2257  0.1428
   39CHL1   H14 2829   1.301   3.603   3.534  0.4350 -0.0668 -1.2331
   39CHL1   C15 2830   1.380   3.462   3.672 -0.5642  0.1292  0.2015
   39CHL1  H15A 2831   1.371   3.353   3.690 -4.5227  0.5071  1.5645
   39CHL1  H15B 2832   1.484   3.483   3.639 -0.2492 -1.6646 -0.0262
   39CHL1   C16 2833   1.326   3.538   3.794 -0.3321 -0.0910 -0.0827
   39CHL1  H16A 2834   1.328   3.468   3.881  0.5096  1.2436  1.0079
   39CHL1  H16B 2835   1.385   3.628   3.821 -1.8649  0.8849  0.1535
   39CHL1   C17 2836   1.183   3.580   3.757 -0.3115 -0.1092 -0.0501
   39CHL1   H17 2837   1.188   3.687   3.730 -0.5722 -0.1754 -0.3612
   39CHL1   C13 2838   1.152   3.500   3.620  0.2261  0.5520 -0.0931
   39CHL1   C18 2839   1.107   3.353   3.657  0.0044 -0.3267  0.0492
   39CHL1  H18A 2840   0.998   3.356   3.676  0.2452  0.9145  1.4345
   39CHL1  H18B 2841   1.114   3.284   3.570  0.6219  2.5143 -2.3192
   39CHL1  H18C 2842   1.169   3.330   3.746 -0.3713 -1.0672  0.1242
   39CHL1   C12 2843   1.059   3.579   3.527  0.7148  0.5829  0.6344
   39CHL1  H12A 2844   0.955   3.585   3.566  0.8695  0.7037  1.0394
   39CHL1  H12B 2845   1.092   3.685   3.520 -0.4412  0.9233  0.1530
   39CHL1   C11 2846   1.056   3.513   3.386 -0.1089  0.6076 -0.2896
   39CHL1  H11A 2847   1.012   3.413   3.407  2.0745 -0.3564 -0.0166
   39CHL1  H11B 2848   0.979   3.562   3.323 -0.3639  2.0839  1.1095
   39CHL1    C9 2849   1.206   3.497   3.332 -0.3975 -0.2799  0.3539
   39CHL1    H9 2850   1.241   3.602   3.327 -1.9503  0.2111 -1.0616
   39CHL1   C10 2851   1.207   3.444   3.181 -0.2594 -1.1986 -0.5007
   39CHL1   C19 2852   1.114   3.316   3.174  0.0893 -0.8902 -0.0528
   39CHL1  H19A 2853   1.016   3.338   3.222  0.5455  0.2820  0.3879
   39CHL1  H19B 2854   1.103   3.278   3.070 -1.8175 -1.3480  0.2726
   39CHL1  H19C 2855   1.155   3.235   3.238 -0.1154 -1.6386 -0.8609
   39CHL1    C1 2856   1.170   3.564   3.094 -0.3043  0.5889  0.6071
   39CHL1   H1A 2857   1.063   3.590   3.108 -1.2220  0.3038 -4.1899
   39CHL1   H1B 2858   1.237   3.651   3.115 -0.0961  1.4080 -2.9456
   39CHL1    C2 2859   1.175   3.532   2.943  0.2431 -0.5584  0.5762
   39CHL1   H2A 2860   1.139   3.612   2.875 -0.6376 -0.4521  1.1547
   39CHL1   H2B 2861   1.106   3.449   2.916 -1.0031  1.6043 -3.8491
   39CHL1   C20 2862   1.077   3.578   3.870  0.4559 -0.2621  0.2757
   39CHL1   H20 2863   1.036   3.475   3.882 -0.2756 -0.1706 -1.2695
   39CHL1   C21 2864   0.961   3.677   3.829 -0.3025  0.3390 -0.8080
   39CHL1  H21A 2865   0.996   3.775   3.791 -1.3280  0.1786 -2.2950
   39CHL1  H21B 2866   0.888   3.688   3.911  1.0548 -0.7683  0.5972
   39CHL1  H21C 2867   0.900   3.633   3.747  0.2861  0.4245 -1.3021
   39CHL1   C22 2868   1.133   3.642   3.999 -0.3098 -0.4730  0.3609
   39CHL1  H22A 2869   1.231   3.595   4.021  1.1638  2.3352  0.2911
   39CHL1  H22B 2870   1.150   3.750   3.980  0.4576 -0.3666  1.5276
   39CHL1   C23 2871   1.059   3.625   4.129  0.0159  0.0570 -1.3208
   39CHL1  H23A 2872   1.101   3.705   4.193  1.1258  1.0506 -3.2240
   39CHL1  H23B 2873   0.952   3.655   4.118 -0.1979 -0.1167  0.0420
   39CHL1   C24 2874   1.080   3.489   4.202 -0.1405  0.2975 -0.0751
   39CHL1  H24A 2875   1.063   3.410   4.126 -0.5688 -1.1010  1.4134
   39CHL1  H24B 2876   1.188   3.470   4.214 -0.3380 -2.1962 -1.7077
   39CHL1   C25 2877   0.997   3.485   4.335  0.5542 -0.7380 -0.0499
   39CHL1   H25 2878   0.891   3.514   4.321  0.3630  0.4335  3.1539
   39CHL1   C26 2879   0.992   3.344   4.399 -0.3518  0.4677  0.0878
   39CHL1  H26A 2880   0.889   3.324   4.438 -0.9896  0.7094 -1.4015
   39CHL1  H26B 2881   1.005   3.258   4.330 -2.3359  0.8282 -0.7991
   39CHL1  H26C 2882   1.068   3.354   4.479 -1.3435  1.5563  0.9401
   39CHL1   C27 2883   1.059   3.580   4.444 -0.4366 -0.1352  0.2914
   39CHL1  H27A 2884   1.050   3.685   4.410  1.1205 -0.7344 -2.3360
   39CHL1  H27B 2885   1.007   3.579   4.542 -1.7898 -2.2458 -0.3784
   39CHL1  H27C 2886   1.167   3.560   4.462 -0.2669  0.4716 -0.0355
   40CHL1    C3 2887   0.724   1.295   3.008 -0.3269  0.2114  0.6347
   40CHL1    H3 2888   0.823   1.248   2.990 -0.2880  0.1282  1.0583
   40CHL1    O3 2889   0.653   1.285   2.887 -0.2561 -0.2148  0.6579
   40CHL1   H3' 2890   0.635   1.372   2.850  0.9146 -0.8175 -1.5219
   40CHL1    C4 2891   0.664   1.213   3.122  0.7940  0.0043  0.4352
   40CHL1   H4A 2892   0.557   1.239   3.112  0.9334  0.2472 -0.5177
   40CHL1   H4B 2893   0.675   1.110   3.082  0.5251  0.5756 -1.1791
   40CHL1    C5 2894   0.729   1.229   3.258  0.0209  0.5244 -0.8440
   40CHL1    C6 2895   0.777   1.122   3.330 -0.1138 -0.4313  0.3986
   40CHL1    H6 2896   0.764   1.021   3.289 -0.9355  0.1494 -0.8542
   40CHL1    C7 2897   0.839   1.134   3.469 -0.3890  0.4182 -0.0663
   40CHL1   H7A 2898   0.810   1.052   3.538 -2.2392  0.0949 -1.1789
   40CHL1   H7B 2899   0.949   1.118   3.464 -0.6190 -1.5620  0.3488
   40CHL1    C8 2900   0.798   1.271   3.536 -0.3048  0.5052 -0.2155
   40CHL1    H8 2901   0.693   1.255   3.570  1.0233 -2.2044  3.2838
   40CHL1   C14 2902   0.873   1.292   3.668  0.5383  0.3762  0.3818
   40CHL1   H14 2903   0.981   1.299   3.641  0.3846 -2.0754 -1.1454
   40CHL1   C15 2904   0.874   1.181   3.770 -0.3188  0.6369 -0.2552
   40CHL1  H15A 2905   0.767   1.152   3.781 -0.5621  0.4321 -2.6709
   40CHL1  H15B 2906   0.940   1.093   3.754 -1.2440 -0.5348  1.8975
   40CHL1   C16 2907   0.906   1.253   3.900 -0.2999 -0.4680 -0.5132
   40CHL1  H16A 2908   0.838   1.225   3.983  0.1837 -1.2279 -0.3535
   40CHL1  H16B 2909   1.005   1.226   3.943 -0.7259 -0.1637  0.6940
   40CHL1   C17 2910   0.913   1.414   3.875  0.0262  0.4349 -0.4906
   40CHL1   H17 2911   1.019   1.433   3.846  0.3571 -0.0364  0.3578
   40CHL1   C13 2912   0.839   1.426   3.741  0.6321 -0.1350 -0.1229
   40CHL1   C18 2913   0.683   1.430   3.772 -0.2068  0.0449 -0.0825
   40CHL1  H18A 2914   0.637   1.525   3.807 -0.7737 -0.4863  0.6505
   40CHL1  H18B 2915   0.622   1.405   3.683  1.0265 -3.1715 -0.1842
   40CHL1  H18C 2916   0.662   1.346   3.842  1.8941  0.1973  0.7928
   40CHL1   C12 2917   0.893   1.541   3.649  0.4310  0.1913 -0.4975
   40CHL1  H12A 2918   0.864   1.636   3.697 -1.4357 -0.2734 -0.6021
   40CHL1  H12B 2919   1.003   1.537   3.631  0.5911  1.2447  0.1745
   40CHL1   C11 2920   0.812   1.526   3.514 -0.4961 -0.5775 -0.4909
   40CHL1  H11A 2921   0.710   1.564   3.534  0.2562  1.4917 -0.3588
   40CHL1  H11B 2922   0.865   1.597   3.448 -1.0214 -0.7789 -1.1459
   40CHL1    C9 2923   0.822   1.389   3.438 -0.3629 -0.2055  0.2784
   40CHL1    H9 2924   0.931   1.379   3.416 -0.6620 -1.1007 -0.8834
   40CHL1   C10 2925   0.736   1.376   3.307  0.0623 -0.2900 -1.2992
   40CHL1   C19 2926   0.593   1.428   3.331 -0.2099 -0.3595  0.3905
   40CHL1  H19A 2927   0.529   1.390   3.249  2.5581 -1.7220 -1.2739
   40CHL1  H19B 2928   0.566   1.384   3.430  1.3967 -0.0864  0.9734
   40CHL1  H19C 2929   0.580   1.538   3.331 -0.8902 -0.4260 -0.5367
   40CHL1    C1 2930   0.803   1.458   3.190  0.3456 -0.0710  0.1950
   40CHL1   H1A 2931   0.797   1.564   3.222  1.4077 -0.1370  0.6363
   40CHL1   H1B 2932   0.911   1.433   3.192  0.2310 -0.5651  2.1883
   40CHL1    C2 2933   0.745   1.445   3.050  0.1448 -0.2513  0.4403
   40CHL1   H2A 2934   0.811   1.490   2.972  1.5838  0.9166  2.2472
   40CHL1   H2B 2935   0.653   1.506   3.044  0.8426  1.0171  1.8504
   40CHL1   C20 2936   0.882   1.498   4.007  0.3410 -1.0518 -0.5687
   40CHL1   H20 2937   0.785   1.467   4.050 -0.0708  2.0464  1.0623
   40CHL1   C21 2938   0.867   1.647   3.970 -0.4178 -0.9204 -0.2400
   40CHL1  H21A 2939   0.945   1.663   3.892  0.6462 -2.0452  0.5549
   40CHL1  H21B 2940   0.892   1.719   4.050 -1.7211  0.2215 -0.8241
   40CHL1  H21C 2941   0.766   1.677   3.936  0.6046  1.4605 -1.4070
   40CHL1   C22 2942   1.003   1.474   4.103  0.6086 -0.1651 -0.0921
   40CHL1  H22A 2943   1.006   1.363   4.108 -1.6858 -0.7177 -4.8486
   40CHL1  H22B 2944   1.092   1.532   4.070 -0.1681  1.3328  0.3690
   40CHL1   C23 2945   0.972   1.524   4.240  0.0474  0.2510 -0.5816
   40CHL1  H23A 2946   0.944   1.631   4.228 -3.5625 -0.6097 -1.2478
   40CHL1  H23B 2947   0.879   1.480   4.282  0.1033 -1.4285 -2.1152
   40CHL1   C24 2948   1.094   1.523   4.334  0.6199 -0.4916  0.1833
   40CHL1  H24A 2949   1.130   1.418   4.343  2.2651  0.0429  0.2461
   40CHL1  H24B 2950   1.183   1.575   4.291  1.7506 -2.6537 -0.2678
   40CHL1   C25 2951   1.051   1.564   4.477 -0.1318 -1.0704  0.0826
   40CHL1   H25 2952   0.955   1.515   4.504 -0.6087 -0.0221  0.3383
   40CHL1   C26 2953   1.149   1.502   4.581 -0.6568  0.7317 -0.0009
   40CHL1  H26A 2954   1.245   1.546   4.549 -0.9877  2.8851  1.7876
   40CHL1  H26B 2955   1.126   1.542   4.682  1.3478  1.5974  0.1526
   40CHL1  H26C 2956   1.154   1.391   4.571 -1.2902  0.5827  1.2233
   40CHL1   C27 2957   1.045   1.722   4.492 -0.5747  0.0722 -0.2044
   40CHL1  H27A 2958   0.998   1.745   4.590  1.5998 -2.0686  1.4889
   40CHL1  H27B 2959   1.144   1.772   4.489  0.2553 -1.3987  1.1315
   40CHL1  H27C 2960   0.993   1.771   4.407 -0.6065  2.0609  0.9227
   41CHL1    C3 2961   5.338   5.134   2.771  0.5954 -0.0013 -0.0113
   41CHL1    H3 2962   5.398   5.228   2.780  0.5654  0.0683 -0.5161
   41CHL1    O3 2963   5.358   5.096   2.638  0.4662 -0.1512  0.7542
   41CHL1   H3' 2964   5.338   5.003   2.630  0.6091 -0.0245 -3.6010
   41CHL1    C4 2965   5.388   5.025   2.866 -0.5625  0.2079 -0.3615
   41CHL1   H4A 2966   5.338   4.926   2.857  1.7378 -1.0759  0.0689
   41CHL1   H4B 2967   5.496   5.008   2.842 -1.1540 -1.6477 -2.0987
   41CHL1    C5 2968   5.371   5.073   3.010  0.2891  0.3183  0.5328
   41CHL1    C6 2969   5.466   5.070   3.106 -0.3923 -0.0399 -0.3204
   41CHL1    H6 2970   5.552   5.021   3.059 -2.3695 -0.1362 -4.2995
   41CHL1    C7 2971   5.450   5.091   3.255 -0.1336  0.5538 -0.2165
   41CHL1   H7A 2972   5.497   5.010   3.315 -1.6712  0.0085  0.2967
   41CHL1   H7B 2973   5.490   5.187   3.295  1.4942 -0.9645  2.0754
   41CHL1    C8 2974   5.298   5.087   3.294  0.0618  0.2243 -0.0560
   41CHL1    H8 2975   5.274   4.979   3.307  1.8380 -0.4188 -1.6868
   41CHL1   C14 2976   5.273   5.162   3.431 -0.2419  0.3134 -0.4554
   41CHL1   H14 2977   5.301   5.267   3.408  0.3071 -0.3477 -3.0542
   41CHL1   C15 2978   5.358   5.128   3.560  0.1960 -0.1210  0.4461
   41CHL1  H15A 2979   5.382   5.020   3.562 -2.6127 -0.8020  1.8038
   41CHL1  H15B 2980   5.455   5.183   3.563  0.0454  0.1794  0.0135
   41CHL1   C16 2981   5.263   5.164   3.676 -0.2313 -0.8353 -0.0885
   41CHL1  H16A 2982   5.234   5.066   3.720 -0.1147 -0.4246  0.9399
   41CHL1  H16B 2983   5.309   5.235   3.748  1.3532 -0.4439 -1.4098
   41CHL1   C17 2984   5.134   5.223   3.610 -0.2786 -0.8862  1.1382
   41CHL1   H17 2985   5.153   5.332   3.598 -0.3304 -1.0953 -1.7372
   41CHL1   C13 2986   5.122   5.160   3.467  0.0797  0.4758 -0.0944
   41CHL1   C18 2987   5.071   5.016   3.476 -0.4112  0.0153  0.2407
   41CHL1  H18A 2988   5.058   4.965   3.378  0.8260 -0.8146  0.4848
   41CHL1  H18B 2989   5.140   4.955   3.539 -1.7781 -0.2762  1.5091
   41CHL1  H18C 2990   4.974   5.001   3.529 -0.6149 -2.0111 -0.5996
   41CHL1   C12 2991   5.049   5.245   3.358  0.4401 -0.6079  0.1235
   41CHL1  H12A 2992   4.940   5.240   3.379  0.6589 -0.0422  1.4799
   41CHL1  H12B 2993   5.090   5.348   3.351  0.6071 -0.7101 -0.4488
   41CHL1   C11 2994   5.066   5.171   3.221  0.0178 -0.0174 -0.8460
   41CHL1  H11A 2995   5.011   5.074   3.220 -1.8385  0.9973 -1.2358
   41CHL1  H11B 2996   5.019   5.249   3.158  1.6283  1.0793 -0.7512
   41CHL1    C9 2997   5.208   5.157   3.181 -0.5367  0.1071 -0.2638
   41CHL1    H9 2998   5.249   5.260   3.176  1.1396 -0.5620 -1.2117
   41CHL1   C10 2999   5.224   5.106   3.040 -0.1399  0.7202 -0.2250
   41CHL1   C19 3000   5.135   4.978   3.027  0.0962 -0.8094  0.4876
   41CHL1  H19A 3001   5.151   4.933   2.927  0.8376 -0.3319  0.3791
   41CHL1  H19B 3002   5.160   4.900   3.103  0.4560 -0.4109  0.7850
   41CHL1  H19C 3003   5.028   5.001   3.045  0.3646  0.8122  0.1870
   41CHL1    C1 3004   5.171   5.212   2.941 -0.1784 -0.4179 -0.1704
   41CHL1   H1A 3005   5.062   5.231   2.955  0.1781  3.0661 -1.3264
   41CHL1   H1B 3006   5.235   5.302   2.954  0.2799 -0.1179 -3.7123
   41CHL1    C2 3007   5.189   5.165   2.796  0.1582  0.2238 -0.2677
   41CHL1   H2A 3008   5.167   5.256   2.736  0.0974 -0.3473 -1.1257
   41CHL1   H2B 3009   5.121   5.079   2.775 -0.4612  0.0055  2.2869
   41CHL1   C20 3010   5.013   5.212   3.700  0.0987  0.2312  0.0962
   41CHL1   H20 3011   4.984   5.105   3.703 -3.5824  1.0813 -0.1010
   41CHL1   C21 3012   4.903   5.310   3.651  0.0812  0.7797  0.1934
   41CHL1  H21A 3013   4.814   5.322   3.717 -0.1343 -0.8500  0.2355
   41CHL1  H21B 3014   4.855   5.267   3.561  1.5717  0.0806 -0.3003
   41CHL1  H21C 3015   4.945   5.412   3.635  1.3680 -0.0536 -2.1627
   41CHL1   C22 3016   5.028   5.248   3.841 -0.1278  0.4434  0.0667
   41CHL1  H22A 3017   5.124   5.201   3.872  0.8591  1.3177 -1.5202
   41CHL1  H22B 3018   5.039   5.358   3.854 -0.7338  0.5762 -0.4832
   41CHL1   C23 3019   4.916   5.203   3.936  0.3494 -0.0448 -0.5298
   41CHL1  H23A 3020   4.825   5.265   3.931 -0.7342 -1.6356 -1.5887
   41CHL1  H23B 3021   4.880   5.102   3.906  2.5557 -1.0674 -0.0151
   41CHL1   C24 3022   4.973   5.185   4.083  0.2065 -0.0857  0.3480
   41CHL1  H24A 3023   5.056   5.111   4.087  1.3456  1.1223 -0.2404
   41CHL1  H24B 3024   5.018   5.274   4.132  0.8536 -0.1624 -0.1008
   41CHL1   C25 3025   4.860   5.121   4.170 -0.5360  0.4563 -0.0722
   41CHL1   H25 3026   4.842   5.023   4.121  0.5230 -0.1573  0.7300
   41CHL1   C26 3027   4.909   5.089   4.308 -0.4859  0.3329 -0.0348
   41CHL1  H26A 3028   4.828   5.040   4.368  0.4550  0.4889  1.4166
   41CHL1  H26B 3029   5.002   5.029   4.300  2.4524  4.6541 -1.1835
   41CHL1  H26C 3030   4.922   5.176   4.375 -3.6408  0.3758  0.7087
   41CHL1   C27 3031   4.733   5.211   4.184 -0.3040  0.6980  0.1665
   41CHL1  H27A 3032   4.688   5.240   4.087 -0.7992  1.2827  0.5675
   41CHL1  H27B 3033   4.653   5.164   4.245  0.3214 -0.6585 -0.0216
   41CHL1  H27C 3034   4.760   5.303   4.239  0.6432 -0.6542  2.0717
   42CHL1    C3 3035   0.517   5.215   2.946 -0.4727  0.0791  0.0630
   42CHL1    H3 3036   0.613   5.267   2.966 -0.3661 -0.1228  0.0823
   42CHL1    O3 3037   0.492   5.220   2.805  0.4723  0.1565 -0.3490
   42CHL1   H3' 3038   0.523   5.142   2.758  1.8879  1.1647 -1.1766
   42CHL1    C4 3039   0.521   5.073   3.002 -0.5605  0.3480  0.5457
   42CHL1   H4A 3040   0.445   5.002   2.962 -1.7058  2.1295 -0.5904
   42CHL1   H4B 3041   0.615   5.026   2.967  1.5637  1.0331  4.6488
   42CHL1    C5 3042   0.537   5.088   3.155 -0.1169  0.3519  0.2878
   42CHL1    C6 3043   0.640   5.024   3.221 -0.1834 -0.0028  0.8912
   42CHL1    H6 3044   0.717   4.978   3.157 -0.4448  0.2342  0.3972
   42CHL1    C7 3045   0.666   5.011   3.366  0.9819 -0.0904 -0.5857
   42CHL1   H7A 3046   0.692   4.908   3.399 -2.2532 -0.3650  1.4796
   42CHL1   H7B 3047   0.749   5.081   3.389  0.2208  1.1427 -1.4501
   42CHL1    C8 3048   0.539   5.054   3.447 -0.4104  0.0079 -0.4009
   42CHL1    H8 3049   0.466   4.970   3.437  2.0844 -2.0496 -2.9007
   42CHL1   C14 3050   0.575   5.075   3.598  0.1078  0.4570  0.2912
   42CHL1   H14 3051   0.660   5.146   3.595  2.2803 -2.0349 -0.6423
   42CHL1   C15 3052   0.638   4.958   3.676 -0.6382  0.0642  1.2439
   42CHL1  H15A 3053   0.593   4.860   3.649  1.7259 -0.8881  0.4433
   42CHL1  H15B 3054   0.746   4.952   3.650 -0.3614 -0.7591  2.5111
   42CHL1   C16 3055   0.614   4.998   3.822 -0.4274  0.2805  0.5697
   42CHL1  H16A 3056   0.562   4.917   3.878  0.4675 -1.8067 -1.4733
   42CHL1  H16B 3057   0.717   5.014   3.862  2.0175 -2.3096 -3.8800
   42CHL1   C17 3058   0.535   5.125   3.826 -0.2626 -0.8738 -0.1378
   42CHL1   H17 3059   0.595   5.217   3.816  0.3921 -1.2074  0.6366
   42CHL1   C13 3060   0.461   5.130   3.682  0.1513  0.7831 -0.4704
   42CHL1   C18 3061   0.342   5.022   3.689  0.3196  0.1506  0.2421
   42CHL1  H18A 3062   0.253   5.054   3.747 -0.4139  0.6383 -1.1021
   42CHL1  H18B 3063   0.295   4.989   3.594 -3.1062  1.1784  1.4379
   42CHL1  H18C 3064   0.369   4.923   3.731 -2.2246  0.1733  2.2313
   42CHL1   C12 3065   0.421   5.266   3.618  0.0421 -0.2699  0.6925
   42CHL1  H12A 3066   0.337   5.316   3.671  0.7282  1.9322 -0.1790
   42CHL1  H12B 3067   0.504   5.338   3.607 -1.5299  1.5156 -0.2515
   42CHL1   C11 3068   0.366   5.255   3.478  0.1300  0.5265  0.4827
   42CHL1  H11A 3069   0.265   5.213   3.459 -0.7795  2.2269  1.3480
   42CHL1  H11B 3070   0.360   5.356   3.432 -2.6101 -0.0735 -0.6931
   42CHL1    C9 3071   0.477   5.181   3.386 -0.3969 -0.8531 -0.1866
   42CHL1    H9 3072   0.560   5.254   3.395  0.7022 -1.9125 -1.3772
   42CHL1   C10 3073   0.440   5.171   3.233 -0.2010 -0.6497 -0.2064
   42CHL1   C19 3074   0.302   5.102   3.223 -0.4664 -0.2101 -0.2701
   42CHL1  H19A 3075   0.273   5.088   3.117 -3.2611  1.9950  0.0509
   42CHL1  H19B 3076   0.294   5.009   3.283  4.0127 -1.9780 -2.0193
   42CHL1  H19C 3077   0.215   5.162   3.260 -0.4378 -0.2632 -0.1133
   42CHL1    C1 3078   0.437   5.311   3.166  0.0537 -0.2156  0.5503
   42CHL1   H1A 3079   0.350   5.374   3.195 -0.5083 -0.0313 -1.4153
   42CHL1   H1B 3080   0.530   5.360   3.199 -1.4726  2.9326  0.5029
   42CHL1    C2 3081   0.427   5.310   3.013  0.2766 -0.2605 -0.6241
   42CHL1   H2A 3082   0.442   5.412   2.971 -1.8254 -0.3605 -1.7621
   42CHL1   H2B 3083   0.323   5.279   2.986 -0.5866 -1.2792  3.2709
   42CHL1   C20 3084   0.454   5.145   3.958  0.1029 -0.3275  0.2740
   42CHL1   H20 3085   0.388   5.058   3.976 -0.3640 -0.3744 -1.4302
   42CHL1   C21 3086   0.372   5.276   3.944 -0.8218  0.5987  0.8636
   42CHL1  H21A 3087   0.314   5.297   4.037 -4.3120 -1.4410 -0.6353
   42CHL1  H21B 3088   0.296   5.252   3.867 -1.4226 -2.4772  2.2662
   42CHL1  H21C 3089   0.439   5.360   3.916  0.2777 -0.9154 -1.2945
   42CHL1   C22 3090   0.550   5.149   4.084 -0.8324 -0.9978 -0.3439
   42CHL1  H22A 3091   0.593   5.049   4.104  1.9846  0.2499  0.3052
   42CHL1  H22B 3092   0.637   5.208   4.049 -1.7071 -0.7235 -2.1778
   42CHL1   C23 3093   0.484   5.212   4.213  0.1965 -0.3160 -0.4936
   42CHL1  H23A 3094   0.559   5.220   4.294  0.1609  1.4192 -0.6065
   42CHL1  H23B 3095   0.440   5.312   4.194 -0.0498  0.0549  1.7401
   42CHL1   C24 3096   0.375   5.123   4.279 -0.3913 -0.1189 -0.4598
   42CHL1  H24A 3097   0.293   5.103   4.208 -0.4126  1.8331 -1.0353
   42CHL1  H24B 3098   0.420   5.024   4.304  1.7255  0.7498 -0.5627
   42CHL1   C25 3099   0.305   5.200   4.393 -0.3114 -0.1412  0.6605
   42CHL1   H25 3100   0.306   5.310   4.375 -0.7692  0.0648  1.8075
   42CHL1   C26 3101   0.154   5.159   4.396  0.4253 -0.6319 -0.2895
   42CHL1  H26A 3102   0.100   5.215   4.475  0.4729 -1.0245  0.0268
   42CHL1  H26B 3103   0.106   5.170   4.296  1.8032 -0.0060 -0.9139
   42CHL1  H26C 3104   0.160   5.049   4.412  3.0737 -0.3806  0.9466
   42CHL1   C27 3105   0.374   5.168   4.530  0.3805 -0.8264  0.0416
   42CHL1  H27A 3106   0.333   5.232   4.612  2.9725 -0.1385  0.8992
   42CHL1  H27B 3107   0.355   5.065   4.565 -1.2084 -1.0652 -1.3773
   42CHL1  H27C 3108   0.483   5.183   4.519  0.0012  0.7196 -2.2728
   43CHL1    C3 3109   2.127   6.243   2.896 -0.3173 -0.2051  0.1906
   43CHL1    H3 3110   2.228   6.199   2.883 -0.0018  0.2392  1.0879
   43CHL1    O3 3111   2.067   6.279   2.770  0.1267 -0.3391  0.4347
   43CHL1   H3' 3112   1.989   6.332   2.788 -1.5346 -1.8226 -1.8691
   43CHL1    C4 3113   2.039   6.141   2.962 -0.4527 -0.6041  0.1547
   43CHL1   H4A 3114   1.932   6.164   2.943 -0.1091 -0.4839 -1.8229
   43CHL1   H4B 3115   2.048   6.049   2.901  0.4278  0.7852 -1.9099
   43CHL1    C5 3116   2.063   6.118   3.113  0.1474 -0.3132  0.3337
   43CHL1    C6 3117   2.087   5.989   3.151  0.7595 -0.3217  0.0802
   43CHL1    H6 3118   2.092   5.910   3.074 -0.9074 -0.2832 -0.1194
   43CHL1    C7 3119   2.094   5.949   3.292  0.5546 -0.5074 -0.4207
   43CHL1   H7A 3120   2.027   5.865   3.317  0.1084  0.0304  0.2163
   43CHL1   H7B 3121   2.200   5.923   3.313  0.9465  0.4220 -1.1418
   43CHL1    C8 3122   2.063   6.074   3.390  0.6688 -0.3188 -0.2101
   43CHL1    H8 3123   1.952   6.086   3.396  0.7590  1.6051 -1.5388
   43CHL1   C14 3124   2.125   6.045   3.524 -0.2538  0.1686  0.6173
   43CHL1   H14 3125   2.233   6.059   3.502 -1.2099  5.3662 -2.3815
   43CHL1   C15 3126   2.112   5.898   3.571 -0.8389 -0.6461 -0.2726
   43CHL1  H15A 3127   2.017   5.844   3.551 -0.8007 -0.9215  0.2960
   43CHL1  H15B 3128   2.193   5.832   3.533 -0.9706 -0.2229 -1.3427
   43CHL1   C16 3129   2.124   5.914   3.725 -0.4130 -0.2731  0.1801
   43CHL1  H16A 3130   2.021   5.893   3.760 -0.2605 -1.4690 -0.0389
   43CHL1  H16B 3131   2.192   5.841   3.775 -0.6270  0.0610  0.9802
   43CHL1   C17 3132   2.151   6.068   3.758 -0.3881 -0.4745  0.0214
   43CHL1   H17 3133   2.260   6.086   3.763 -0.7304  2.4223 -1.0884
   43CHL1   C13 3134   2.098   6.138   3.634 -0.9202 -0.9827  0.5308
   43CHL1   C18 3135   1.952   6.162   3.655 -0.0757 -0.7619 -0.2649
   43CHL1  H18A 3136   1.907   6.208   3.564 -1.1673 -1.3436 -0.0452
   43CHL1  H18B 3137   1.891   6.076   3.691  2.6242 -3.0301 -0.7654
   43CHL1  H18C 3138   1.942   6.241   3.733  0.1908 -0.0902 -0.8984
   43CHL1   C12 3139   2.170   6.272   3.586 -0.2134  0.6997 -1.4529
   43CHL1  H12A 3140   2.133   6.354   3.651 -0.0193  0.4744 -1.0561
   43CHL1  H12B 3141   2.281   6.260   3.591 -0.4348 -0.8996  2.0635
   43CHL1   C11 3142   2.128   6.322   3.444  1.0031 -0.1061  0.4338
   43CHL1  H11A 3143   2.042   6.392   3.441 -0.0669 -1.3933 -0.0841
   43CHL1  H11B 3144   2.214   6.387   3.417 -0.2535  1.6804  0.6247
   43CHL1    C9 3145   2.120   6.208   3.343  0.3564 -0.6777  0.8656
   43CHL1    H9 3146   2.227   6.186   3.319  0.4396  0.6826 -0.1518
   43CHL1   C10 3147   2.065   6.247   3.199 -0.0869  0.7725  0.0713
   43CHL1   C19 3148   1.924   6.307   3.213  1.1489 -0.1561  0.0273
   43CHL1  H19A 3149   1.854   6.263   3.287  0.0301  1.7928  0.1921
   43CHL1  H19B 3150   1.950   6.411   3.241  1.1043 -0.0935 -0.1654
   43CHL1  H19C 3151   1.880   6.322   3.113  0.1277  0.3325  0.5376
   43CHL1    C1 3152   2.159   6.350   3.129 -0.5510 -0.0600  0.2762
   43CHL1   H1A 3153   2.151   6.445   3.186 -1.2857 -0.8790  1.5944
   43CHL1   H1B 3154   2.262   6.310   3.140  0.0080  0.5135 -2.2508
   43CHL1    C2 3155   2.138   6.377   2.981  0.1614 -0.1007  0.3696
   43CHL1   H2A 3156   2.220   6.441   2.942 -0.2269 -0.3102 -0.8616
   43CHL1   H2B 3157   2.048   6.439   2.958  1.4376  1.5605 -0.3380
   43CHL1   C20 3158   2.105   6.117   3.898 -0.1585 -0.4117  0.3334
   43CHL1   H20 3159   1.996   6.134   3.899  0.0134  0.9239 -1.0719
   43CHL1   C21 3160   2.173   6.254   3.917 -0.0682  0.5016  0.4965
   43CHL1  H21A 3161   2.283   6.254   3.902 -0.1634 -0.1357 -0.2098
   43CHL1  H21B 3162   2.151   6.292   4.019 -3.2293  1.9745 -0.6168
   43CHL1  H21C 3163   2.115   6.327   3.858  0.2499  3.6849  3.7585
   43CHL1   C22 3164   2.153   6.019   4.007 -0.1543 -0.3052 -0.0440
   43CHL1  H22A 3165   2.101   5.923   3.989 -1.2764  0.2580  0.0645
   43CHL1  H22B 3166   2.264   6.015   4.001  0.0059 -1.5393  2.4932
   43CHL1   C23 3167   2.112   6.061   4.153 -0.6050 -0.0875  0.1595
   43CHL1  H23A 3168   2.172   6.152   4.179 -0.6058  0.1583 -0.6541
   43CHL1  H23B 3169   2.005   6.084   4.169 -0.9097 -1.9849  1.0697
   43CHL1   C24 3170   2.160   5.940   4.236 -0.0303  0.0335  1.1868
   43CHL1  H24A 3171   2.112   5.843   4.210  1.2753 -0.5479  0.8006
   43CHL1  H24B 3172   2.267   5.926   4.208 -0.4367  0.4795 -0.7108
   43CHL1   C25 3173   2.151   5.961   4.391 -0.3230  0.1141 -0.6624
   43CHL1   H25 3174   2.048   5.989   4.422 -0.7945 -2.3463  0.2803
   43CHL1   C26 3175   2.178   5.825   4.460 -0.0895 -0.1137  0.0350
   43CHL1  H26A 3176   2.280   5.786   4.440  0.9898  1.7966  1.4422
   43CHL1  H26B 3177   2.174   5.841   4.570  0.2241 -1.2447  0.2175
   43CHL1  H26C 3178   2.106   5.743   4.440  1.6856 -1.1024 -3.0274
   43CHL1   C27 3179   2.244   6.074   4.433 -0.4820 -0.7208  0.3010
   43CHL1  H27A 3180   2.202   6.170   4.398 -2.0681 -1.1674  0.9027
   43CHL1  H27B 3181   2.251   6.072   4.543 -0.4001  1.6473  0.3933
   43CHL1  H27C 3182   2.344   6.063   4.386 -1.3187 -2.5751 -1.1954
   44CHL1    C3 3183   6.731   5.710   2.961 -0.8635  1.0512  0.2343
   44CHL1    H3 3184   6.631   5.752   2.986 -1.6201 -1.1337  1.2043
   44CHL1    O3 3185   6.770   5.740   2.831  0.7881  0.0776  0.0570
   44CHL1   H3' 3186   6.865   5.725   2.828  1.3641  2.4305  2.5891
   44CHL1    C4 3187   6.853   5.753   3.056  0.4291 -0.2285  0.4659
   44CHL1   H4A 3188   6.948   5.713   3.015 -0.0393  1.7283 -2.9100
   44CHL1   H4B 3189   6.862   5.862   3.037  3.2259 -0.7416 -1.9808
   44CHL1    C5 3190   6.834   5.716   3.196  1.1736 -0.0709 -0.0705
   44CHL1    C6 3191   6.825   5.822   3.281  0.5070 -0.0796 -0.7228
   44CHL1    H6 3192   6.846   5.924   3.244  0.6550  0.7561  1.4838
   44CHL1    C7 3193   6.791   5.797   3.426 -0.2174 -0.6687  0.6523
   44CHL1   H7A 3194   6.853   5.869   3.484  4.4250 -2.0540 -2.0886
   44CHL1   H7B 3195   6.685   5.821   3.450 -1.1576 -1.9960 -1.8139
   44CHL1    C8 3196   6.816   5.647   3.468  0.0708 -0.4745  0.6539
   44CHL1    H8 3197   6.926   5.634   3.463  0.2843  1.4846 -1.7073
   44CHL1   C14 3198   6.772   5.629   3.607  0.0354  0.9076  0.0842
   44CHL1   H14 3199   6.661   5.630   3.608 -0.0631 -1.7818 -0.3280
   44CHL1   C15 3200   6.820   5.733   3.709 -0.2963 -0.2909  0.4673
   44CHL1  H15A 3201   6.929   5.754   3.699  0.0480 -2.0483  0.1483
   44CHL1  H15B 3202   6.759   5.825   3.716 -0.3494 -0.0989 -1.7436
   44CHL1   C16 3203   6.798   5.665   3.841  0.1350 -0.0210 -0.4304
   44CHL1  H16A 3204   6.898   5.658   3.889  0.0861  1.3869 -0.0496
   44CHL1  H16B 3205   6.733   5.702   3.924  0.5970 -2.7888  1.3116
   44CHL1   C17 3206   6.761   5.519   3.814 -0.2609  0.1089  0.4239
   44CHL1   H17 3207   6.650   5.513   3.803 -0.2747 -1.0491  1.0148
   44CHL1   C13 3208   6.808   5.490   3.666  0.0299 -0.1348 -0.1676
   44CHL1   C18 3209   6.963   5.467   3.663  0.5007 -0.4821 -0.0339
   44CHL1  H18A 3210   7.001   5.387   3.729  0.9889  0.3149  0.6731
   44CHL1  H18B 3211   6.997   5.449   3.559  2.4594 -1.2473  0.6855
   44CHL1  H18C 3212   7.007   5.562   3.700  0.0398 -0.4458  0.4305
   44CHL1   C12 3213   6.735   5.388   3.578  0.2156 -0.9267 -0.0272
   44CHL1  H12A 3214   6.783   5.291   3.603 -0.0915 -0.4371  2.7559
   44CHL1  H12B 3215   6.626   5.387   3.600 -0.5501  2.6978 -2.6863
   44CHL1   C11 3216   6.757   5.405   3.423 -0.4900  0.1148 -0.1747
   44CHL1  H11A 3217   6.860   5.368   3.407 -0.1929  0.0848  1.5679
   44CHL1  H11B 3218   6.699   5.326   3.372  0.9770 -1.9144  1.1704
   44CHL1    C9 3219   6.751   5.552   3.373  0.5355  1.4265  0.2911
   44CHL1    H9 3220   6.644   5.580   3.376 -0.3046 -0.9598 -2.1330
   44CHL1   C10 3221   6.803   5.575   3.227 -0.3674 -0.0051 -0.0291
   44CHL1   C19 3222   6.940   5.498   3.197  0.0234 -0.3351 -0.3054
   44CHL1  H19A 3223   7.019   5.543   3.260 -1.0948  2.6405 -0.8667
   44CHL1  H19B 3224   6.927   5.388   3.207 -3.4402 -0.3164 -2.7472
   44CHL1  H19C 3225   6.978   5.521   3.096  3.3250 -1.6009  0.5161
   44CHL1    C1 3226   6.698   5.524   3.120  0.4565 -0.0824 -0.6061
   44CHL1   H1A 3227   6.696   5.413   3.129 -0.4550  0.0218  0.7902
   44CHL1   H1B 3228   6.595   5.551   3.152  0.0323 -2.6931  0.5122
   44CHL1    C2 3229   6.717   5.561   2.973 -0.1211 -0.0274 -0.1223
   44CHL1   H2A 3230   6.628   5.529   2.915 -1.3013  1.2224  0.9419
   44CHL1   H2B 3231   6.813   5.517   2.938  0.2067  0.0906  0.6117
   44CHL1   C20 3232   6.799   5.423   3.921  0.5078 -0.2890 -0.3068
   44CHL1   H20 3233   6.906   5.428   3.952 -0.1997 -0.5436  2.3896
   44CHL1   C21 3234   6.759   5.280   3.875  0.2541  0.7298 -0.9865
   44CHL1  H21A 3235   6.743   5.220   3.967  0.7331  1.8354 -0.1535
   44CHL1  H21B 3236   6.851   5.237   3.830  1.6971 -0.1214  2.4038
   44CHL1  H21C 3237   6.670   5.269   3.811 -0.8848 -3.1038  0.9219
   44CHL1   C22 3238   6.722   5.460   4.056  0.0061 -0.0510  0.1162
   44CHL1  H22A 3239   6.749   5.563   4.086 -2.3862  0.9198 -0.7703
   44CHL1  H22B 3240   6.612   5.464   4.036  0.3542  1.0677 -1.8230
   44CHL1   C23 3241   6.755   5.379   4.181  0.0954  0.0187 -0.2087
   44CHL1  H23A 3242   6.713   5.278   4.162 -1.3057  0.1476  1.8259
   44CHL1  H23B 3243   6.857   5.388   4.224  0.6045  2.1272 -1.6894
   44CHL1   C24 3244   6.664   5.435   4.299  0.4633 -0.2406 -0.3950
   44CHL1  H24A 3245   6.698   5.537   4.324 -1.8817  0.6351 -0.5629
   44CHL1  H24B 3246   6.559   5.455   4.273  0.5909 -0.9060 -1.4771
   44CHL1   C25 3247   6.653   5.347   4.422 -0.7020 -0.3293 -0.1095
   44CHL1   H25 3248   6.754   5.310   4.451 -0.3894  0.5638 -0.0080
   44CHL1   C26 3249   6.606   5.420   4.553  0.0198 -0.3704  0.0266
   44CHL1  H26A 3250   6.665   5.512   4.576 -0.1377 -0.7801  2.2848
   44CHL1  H26B 3251   6.498   5.434   4.531  0.7867  1.5948 -3.2229
   44CHL1  H26C 3252   6.628   5.355   4.641 -2.6965  1.4131  2.1671
   44CHL1   C27 3253   6.567   5.225   4.406  1.2415  0.2432 -0.2462
   44CHL1  H27A 3254   6.463   5.264   4.401  1.1080 -0.1214 -0.3344
   44CHL1  H27B 3255   6.583   5.166   4.314 -1.1969  0.9035 -1.1609
   44CHL1  H27C 3256   6.572   5.154   4.491  1.9163  0.5946  0.0181
   45CHL1    C3 3257   1.467   4.445   3.261 -0.1077 -0.1000 -1.2014
   45CHL1    H3 3258   1.462   4.556   3.254 -1.9341 -0.2055 -2.3599
   45CHL1    O3 3259   1.489   4.396   3.133  0.2416  0.5105  0.0355
   45CHL1   H3' 3260   1.474   4.301   3.139  3.8250 -0.0902  2.0722
   45CHL1    C4 3261   1.573   4.394   3.354  0.2470 -0.6948 -0.6200
   45CHL1   H4A 3262   1.566   4.283   3.362  0.3287 -0.7101 -0.7579
   45CHL1   H4B 3263   1.675   4.410   3.312  0.0624 -0.1620 -0.8700
   45CHL1    C5 3264   1.567   4.458   3.488 -0.1424  0.3565  0.6184
   45CHL1    C6 3265   1.663   4.536   3.546 -0.1202  0.2078  0.2443
   45CHL1    H6 3266   1.761   4.559   3.501  2.1334  0.0755  4.5525
   45CHL1    C7 3267   1.646   4.603   3.679 -0.1559  0.5424  0.1752
   45CHL1   H7A 3268   1.740   4.596   3.737 -0.9091  0.3825  1.3905
   45CHL1   H7B 3269   1.623   4.709   3.654  3.4450  1.3839 -0.0408
   45CHL1    C8 3270   1.528   4.533   3.762 -0.3281 -0.5737  0.3171
   45CHL1    H8 3271   1.564   4.431   3.786  1.9787  0.2674  0.6300
   45CHL1   C14 3272   1.499   4.601   3.896 -0.7471  0.2221 -0.0145
   45CHL1   H14 3273   1.472   4.704   3.867  1.7282  0.7011 -0.8514
   45CHL1   C15 3274   1.619   4.598   3.994 -0.0823 -0.3386  0.0865
   45CHL1  H15A 3275   1.656   4.496   4.019 -1.4658 -0.3173  2.6303
   45CHL1  H15B 3276   1.699   4.663   3.956 -2.8614  1.2950 -3.6128
   45CHL1   C16 3277   1.552   4.643   4.126  0.2659 -0.1492  0.0309
   45CHL1  H16A 3278   1.596   4.583   4.209 -1.2609 -0.8788  0.3462
   45CHL1  H16B 3279   1.570   4.750   4.146 -4.8270  0.9782 -0.0650
   45CHL1   C17 3280   1.401   4.634   4.104  0.5833  0.3978  0.1064
   45CHL1   H17 3281   1.370   4.740   4.090  1.9396  1.0339  1.6260
   45CHL1   C13 3282   1.372   4.559   3.973 -0.4429  0.2838 -0.2977
   45CHL1   C18 3283   1.367   4.407   4.008 -0.2995  1.0236 -0.2935
   45CHL1  H18A 3284   1.350   4.347   3.917 -1.0937 -0.3117  0.7000
   45CHL1  H18B 3285   1.467   4.387   4.052 -0.5848 -1.9804 -0.7712
   45CHL1  H18C 3286   1.281   4.385   4.075  0.4563 -0.4984  0.2287
   45CHL1   C12 3287   1.257   4.600   3.889  0.8422  0.8195  0.2318
   45CHL1  H12A 3288   1.162   4.566   3.934  1.4943 -0.7042  0.5389
   45CHL1  H12B 3289   1.268   4.710   3.889  0.8040  0.8789  2.7502
   45CHL1   C11 3290   1.261   4.536   3.745  0.3898 -0.9131  0.3577
   45CHL1  H11A 3291   1.230   4.430   3.754 -0.5046 -0.5787  1.5432
   45CHL1  H11B 3292   1.188   4.596   3.686  1.0761  0.0675  0.4895
   45CHL1    C9 3293   1.400   4.539   3.670 -0.9650 -0.1166 -0.2646
   45CHL1    H9 3294   1.401   4.639   3.622 -2.3783 -0.0246 -0.1536
   45CHL1   C10 3295   1.420   4.439   3.553  0.4524 -0.9305 -0.1267
   45CHL1   C19 3296   1.410   4.293   3.610  0.6493 -0.6827 -0.6351
   45CHL1  H19A 3297   1.307   4.265   3.641  0.7780 -0.5288 -0.0459
   45CHL1  H19B 3298   1.426   4.218   3.530 -0.9466  0.4460 -2.1047
   45CHL1  H19C 3299   1.471   4.262   3.697  0.1478 -0.5524 -0.2244
   45CHL1    C1 3300   1.302   4.464   3.455  0.1502  0.8057  0.1567
   45CHL1   H1A 3301   1.214   4.419   3.505  1.2278 -0.2746  1.1176
   45CHL1   H1B 3302   1.289   4.574   3.444  0.7499  0.9041  0.3984
   45CHL1    C2 3303   1.327   4.399   3.318 -0.1346 -0.1802  0.1309
   45CHL1   H2A 3304   1.239   4.415   3.251 -1.6501  0.1590  2.1070
   45CHL1   H2B 3305   1.329   4.290   3.339  2.1991 -0.3728 -0.7730
   45CHL1   C20 3306   1.325   4.597   4.235  0.8208  0.1433  0.2735
   45CHL1   H20 3307   1.355   4.492   4.253 -2.1690 -0.8513 -0.0258
   45CHL1   C21 3308   1.174   4.608   4.220  0.2404 -0.0657  0.3231
   45CHL1  H21A 3309   1.147   4.715   4.207 -0.4882 -0.0848  1.5114
   45CHL1  H21B 3310   1.135   4.571   4.317  0.6927  0.8099  0.8585
   45CHL1  H21C 3311   1.139   4.551   4.132  0.7385  1.3070 -0.8044
   45CHL1   C22 3312   1.364   4.685   4.352 -0.1866 -0.2821 -0.5638
   45CHL1  H22A 3313   1.305   4.645   4.437  0.6136  0.3932  0.3180
   45CHL1  H22B 3314   1.467   4.652   4.375 -0.6477 -0.4242  1.5122
   45CHL1   C23 3315   1.357   4.841   4.335 -0.8459  0.3818  0.2515
   45CHL1  H23A 3316   1.398   4.872   4.237 -0.9962  1.1383  0.4178
   45CHL1  H23B 3317   1.253   4.880   4.336 -0.3880  1.6777  0.3801
   45CHL1   C24 3318   1.438   4.911   4.450  0.8568  0.1575 -0.1717
   45CHL1  H24A 3319   1.425   5.021   4.441  0.0240 -0.0060 -1.1174
   45CHL1  H24B 3320   1.402   4.876   4.549  0.7675 -0.7866 -0.5278
   45CHL1   C25 3321   1.594   4.890   4.432  0.1302  0.1703  0.1584
   45CHL1   H25 3322   1.621   4.787   4.401  1.9510  0.2934  1.1395
   45CHL1   C26 3323   1.644   4.990   4.321  0.7102 -0.7692 -0.3014
   45CHL1  H26A 3324   1.749   4.972   4.291  0.5114  0.4922 -1.9049
   45CHL1  H26B 3325   1.582   4.986   4.229 -0.4550  2.3661  0.2121
   45CHL1  H26C 3326   1.651   5.098   4.346  1.7043 -0.0395 -3.3900
   45CHL1   C27 3327   1.672   4.916   4.562 -0.1619  0.7683  0.0510
   45CHL1  H27A 3328   1.634   4.999   4.625  2.1185  1.2227  0.9462
   45CHL1  H27B 3329   1.668   4.826   4.627 -1.8055  0.7881  0.0158
   45CHL1  H27C 3330   1.778   4.937   4.537 -0.5539  0.4866 -1.9830
   46CHL1    C3 3331   4.685   5.025   2.718  0.6618  0.1928 -0.4715
   46CHL1    H3 3332   4.757   4.943   2.697  0.6134  0.4437 -1.6594
   46CHL1    O3 3333   4.671   5.091   2.597 -0.0106 -0.3637  0.2692
   46CHL1   H3' 3334   4.597   5.148   2.618 -0.6058 -1.5715  1.6763
   46CHL1    C4 3335   4.546   4.979   2.763 -0.5173  0.8404  0.2822
   46CHL1   H4A 3336   4.476   5.063   2.747 -2.7664 -0.8948  0.4802
   46CHL1   H4B 3337   4.522   4.889   2.703  0.9052 -0.2667  1.3000
   46CHL1    C5 3338   4.539   4.940   2.916  0.2588  0.3145  0.6448
   46CHL1    C6 3339   4.487   4.820   2.953  0.0794 -0.2184 -0.1347
   46CHL1    H6 3340   4.443   4.756   2.874 -2.5029 -1.2489  1.9673
   46CHL1    C7 3341   4.495   4.771   3.090  0.1323 -1.0259 -0.4291
   46CHL1   H7A 3342   4.394   4.730   3.110  0.4663 -0.9503  1.6385
   46CHL1   H7B 3343   4.576   4.694   3.095  0.6015 -0.4763  0.6249
   46CHL1    C8 3344   4.511   4.884   3.200 -0.2615 -0.3474  0.8489
   46CHL1    H8 3345   4.412   4.933   3.194 -0.5514 -0.9570  0.4418
   46CHL1   C14 3346   4.535   4.830   3.338 -0.2617 -0.3228  0.0819
   46CHL1   H14 3347   4.619   4.761   3.319 -1.5817 -2.2558  0.9695
   46CHL1   C15 3348   4.430   4.740   3.394  0.2380  0.2532 -0.3516
   46CHL1  H15A 3349   4.330   4.789   3.391  0.3012  0.3394 -2.1607
   46CHL1  H15B 3350   4.415   4.642   3.344 -1.4230 -2.1361  4.2388
   46CHL1   C16 3351   4.480   4.725   3.538  0.7848 -0.1150 -0.3497
   46CHL1  H16A 3352   4.390   4.743   3.600  1.0576  1.2013 -0.2910
   46CHL1  H16B 3353   4.523   4.624   3.553 -0.8320 -0.7443  0.2091
   46CHL1   C17 3354   4.590   4.833   3.565  0.5687  0.2566  0.2525
   46CHL1   H17 3355   4.689   4.788   3.542 -0.4713 -1.5041 -0.9819
   46CHL1   C13 3356   4.574   4.930   3.447 -0.1554  0.8198  0.3790
   46CHL1   C18 3357   4.458   5.031   3.472 -0.6215 -1.1095  0.1773
   46CHL1  H18A 3358   4.362   4.985   3.503 -1.6822  0.5212 -0.5149
   46CHL1  H18B 3359   4.487   5.109   3.545  2.2713 -0.9144 -1.0314
   46CHL1  H18C 3360   4.437   5.087   3.378  0.5099  0.9870  1.1234
   46CHL1   C12 3361   4.691   5.007   3.399  0.4913 -0.5180  0.4090
   46CHL1  H12A 3362   4.717   5.083   3.475 -0.5017  1.3112 -1.0052
   46CHL1  H12B 3363   4.766   4.924   3.394  0.8011 -0.2848  1.1468
   46CHL1   C11 3364   4.664   5.081   3.267 -0.3341  0.2761 -0.0312
   46CHL1  H11A 3365   4.594   5.163   3.294 -0.6999 -0.5241  1.5776
   46CHL1  H11B 3366   4.761   5.126   3.237  1.3041 -2.6720  0.4224
   46CHL1    C9 3367   4.629   4.974   3.154  0.7295 -0.5245 -0.4434
   46CHL1    H9 3368   4.719   4.909   3.156  1.4510  0.4422 -0.7690
   46CHL1   C10 3369   4.609   5.037   3.010 -0.0373  0.2855 -0.2476
   46CHL1   C19 3370   4.528   5.170   3.014 -0.8388 -0.1719 -0.0101
   46CHL1  H19A 3371   4.535   5.219   2.915  1.3023 -1.1548 -0.3934
   46CHL1  H19B 3372   4.420   5.149   3.028 -1.0662 -0.3973 -1.9259
   46CHL1  H19C 3373   4.563   5.248   3.085 -3.0253  1.6201 -0.7837
   46CHL1    C1 3374   4.755   5.067   2.958 -0.4640 -0.4099 -0.6331
   46CHL1   H1A 3375   4.816   5.133   3.024  0.2956 -1.1937 -0.5400
   46CHL1   H1B 3376   4.803   4.968   2.953  0.3756  0.0256 -1.4486
   46CHL1    C2 3377   4.751   5.129   2.811  0.1699  0.0237 -0.5751
   46CHL1   H2A 3378   4.857   5.142   2.780 -0.0253 -0.8110 -1.6858
   46CHL1   H2B 3379   4.687   5.219   2.805 -0.7311 -0.1213  3.8287
   46CHL1   C20 3380   4.588   4.892   3.712 -0.2857 -0.4217  0.1276
   46CHL1   H20 3381   4.508   4.969   3.712  0.0612 -0.0488  1.1036
   46CHL1   C21 3382   4.715   4.964   3.743  0.0878 -1.1919  0.3038
   46CHL1  H21A 3383   4.706   5.009   3.844 -1.0190  0.5332 -0.5290
   46CHL1  H21B 3384   4.755   5.042   3.675 -0.3292 -0.3138  1.0543
   46CHL1  H21C 3385   4.797   4.888   3.736  0.7390 -0.4346 -0.6083
   46CHL1   C22 3386   4.550   4.792   3.827  0.5446  0.3417  0.2173
   46CHL1  H22A 3387   4.445   4.759   3.815  0.8193  0.1381 -2.4490
   46CHL1  H22B 3388   4.625   4.712   3.813  0.0787 -0.4679  2.0667
   46CHL1   C23 3389   4.575   4.851   3.970 -0.0663 -0.1996 -0.5575
   46CHL1  H23A 3390   4.684   4.863   3.990 -0.0607 -0.3552 -0.4953
   46CHL1  H23B 3391   4.531   4.950   3.995  1.8411  0.4825  0.3475
   46CHL1   C24 3392   4.494   4.771   4.083 -0.2559  0.3402 -0.1910
   46CHL1  H24A 3393   4.391   4.774   4.041 -0.3073  0.8376 -0.0330
   46CHL1  H24B 3394   4.537   4.669   4.074 -0.2314 -0.2143  4.1025
   46CHL1   C25 3395   4.504   4.810   4.229 -0.6012 -0.1018 -0.0852
   46CHL1   H25 3396   4.473   4.916   4.242 -0.2615  0.0147 -0.2320
   46CHL1   C26 3397   4.410   4.721   4.316  0.3011  0.2450  0.6594
   46CHL1  H26A 3398   4.307   4.725   4.274  0.6337 -2.7134 -0.6766
   46CHL1  H26B 3399   4.452   4.619   4.304 -0.6808 -0.1370  0.4313
   46CHL1  H26C 3400   4.412   4.754   4.422 -2.1874 -0.0680  0.8549
   46CHL1   C27 3401   4.644   4.806   4.291  0.8513 -0.2202  0.5154
   46CHL1  H27A 3402   4.677   4.700   4.298  0.2643 -0.4393  0.0830
   46CHL1  H27B 3403   4.713   4.859   4.223 -0.5179  0.5185 -0.3351
   46CHL1  H27C 3404   4.633   4.845   4.395 -1.5526  1.1648 -0.1845
   47CHL1    C3 3405   2.488   0.041   3.004  0.3146 -0.1655  0.1996
   47CHL1    H3 3406   2.491  -0.070   3.005 -1.3392 -0.2490  1.1817
   47CHL1    O3 3407   2.517   0.106   2.884 -0.0924 -0.4173 -0.0950
   47CHL1   H3' 3408   2.600   0.071   2.851  0.4051 -1.5679  2.1618
   47CHL1    C4 3409   2.345   0.081   3.047 -0.5839 -0.1860  0.9456
   47CHL1   H4A 3410   2.343   0.189   3.022 -0.3793 -0.2914  0.4525
   47CHL1   H4B 3411   2.280   0.031   2.971 -0.6168  5.2741 -3.2623
   47CHL1    C5 3412   2.318   0.037   3.195 -1.2839  0.7526  0.2273
   47CHL1    C6 3413   2.221  -0.050   3.221 -0.1811  0.7161  0.1448
   47CHL1    H6 3414   2.167  -0.077   3.129  1.1493 -1.4431 -0.0641
   47CHL1    C7 3415   2.191  -0.120   3.354  0.1099 -0.3771  0.2369
   47CHL1   H7A 3416   2.082  -0.132   3.370  0.2319 -2.5311 -0.3381
   47CHL1   H7B 3417   2.237  -0.221   3.347 -3.4955 -2.1240 -0.8559
   47CHL1    C8 3418   2.253  -0.035   3.466  0.8288  0.6435 -1.0200
   47CHL1    H8 3419   2.201   0.061   3.489  0.1687  0.0840 -0.0766
   47CHL1   C14 3420   2.245  -0.112   3.597 -0.3033  0.7887  0.3316
   47CHL1   H14 3421   2.304  -0.204   3.577 -2.6015 -1.3745  2.7424
   47CHL1   C15 3422   2.106  -0.162   3.637  0.8047 -0.5088  1.0744
   47CHL1  H15A 3423   2.035  -0.077   3.626 -1.0995 -1.8087  2.5989
   47CHL1  H15B 3424   2.080  -0.253   3.580 -0.1707 -1.2941  2.6850
   47CHL1   C16 3425   2.109  -0.176   3.792  0.0756  0.0285 -0.4803
   47CHL1  H16A 3426   2.033  -0.114   3.844  1.0589  1.5791 -0.8140
   47CHL1  H16B 3427   2.090  -0.281   3.825 -1.4733  0.9947  1.9459
   47CHL1   C17 3428   2.259  -0.138   3.831 -0.2568 -0.1361  0.2193
   47CHL1   H17 3429   2.317  -0.232   3.825 -0.5257 -0.2651 -0.4916
   47CHL1   C13 3430   2.306  -0.037   3.722  0.4815  0.6266 -0.3003
   47CHL1   C18 3431   2.227   0.099   3.735  0.9451 -0.4045 -0.4253
   47CHL1  H18A 3432   2.261   0.172   3.659 -0.0116  0.0885 -0.3936
   47CHL1  H18B 3433   2.116   0.090   3.742  0.7951  1.8248  1.4744
   47CHL1  H18C 3434   2.260   0.148   3.829  0.2017 -0.4153 -0.1510
   47CHL1   C12 3435   2.454  -0.023   3.698  0.3245 -0.9663 -0.6564
   47CHL1  H12A 3436   2.503   0.040   3.776  2.0428  1.8154 -3.7074
   47CHL1  H12B 3437   2.493  -0.126   3.706  2.2590 -0.1546  1.9591
   47CHL1   C11 3438   2.482   0.054   3.566 -0.3854 -0.0406  0.3652
   47CHL1  H11A 3439   2.450   0.159   3.581 -1.6728 -0.5068  0.9587
   47CHL1  H11B 3440   2.592   0.051   3.546 -0.2700 -0.0483  0.9734
   47CHL1    C9 3441   2.401   0.000   3.440  0.3100  0.0920  0.5617
   47CHL1    H9 3442   2.443  -0.102   3.431  0.3565  0.1418  0.2283
   47CHL1   C10 3443   2.415   0.076   3.307 -0.7055 -0.7633  0.7868
   47CHL1   C19 3444   2.395   0.228   3.332 -0.1284 -0.5876  0.9980
   47CHL1  H19A 3445   2.482   0.274   3.384 -2.0919  3.3065  1.1923
   47CHL1  H19B 3446   2.390   0.279   3.233  0.9110  0.3312  1.4002
   47CHL1  H19C 3447   2.307   0.266   3.388  0.1252  1.3134  0.1916
   47CHL1    C1 3448   2.564   0.042   3.259  0.0401  0.0090 -0.0261
   47CHL1   H1A 3449   2.642   0.073   3.331 -0.6090 -0.7663  1.0316
   47CHL1   H1B 3450   2.564  -0.069   3.268  2.4819 -0.0511 -0.2772
   47CHL1    C2 3451   2.588   0.087   3.116 -0.0650 -0.0625  0.6161
   47CHL1   H2A 3452   2.692   0.056   3.089  0.7634  1.6567  1.6582
   47CHL1   H2B 3453   2.591   0.198   3.116 -0.3840 -0.0442  1.3942
   47CHL1   C20 3454   2.260  -0.105   3.978  0.4214  0.0017  0.1278
   47CHL1   H20 3455   2.197  -0.015   3.997  0.7751  0.5007 -0.9762
   47CHL1   C21 3456   2.402  -0.067   4.018  0.4077 -0.9116  0.1105
   47CHL1  H21A 3457   2.432   0.024   3.961 -0.1249 -0.1113  1.0777
   47CHL1  H21B 3458   2.479  -0.147   4.013  2.8850  1.2922  0.7555
   47CHL1  H21C 3459   2.400  -0.021   4.119  1.3822 -0.8402  0.1052
   47CHL1   C22 3460   2.211  -0.215   4.079  0.4286 -0.6301 -0.0964
   47CHL1  H22A 3461   2.125  -0.270   4.035 -0.7593  0.6047  0.5954
   47CHL1  H22B 3462   2.292  -0.291   4.072  0.6653 -0.3185 -0.8236
   47CHL1   C23 3463   2.192  -0.172   4.220 -0.3104 -0.1048 -0.1745
   47CHL1  H23A 3464   2.292  -0.136   4.250 -0.5809 -0.6553  1.5103
   47CHL1  H23B 3465   2.115  -0.093   4.232 -2.1790 -1.6901 -1.0035
   47CHL1   C24 3466   2.167  -0.285   4.322 -0.2046 -0.1309 -0.1924
   47CHL1  H24A 3467   2.086  -0.352   4.285 -0.0723  0.6143 -1.9301
   47CHL1  H24B 3468   2.256  -0.349   4.336 -0.7801 -0.3322  3.8384
   47CHL1   C25 3469   2.135  -0.237   4.466  0.3415  0.2870  0.8519
   47CHL1   H25 3470   2.206  -0.156   4.494  3.4774 -1.6851 -0.8649
   47CHL1   C26 3471   1.977  -0.208   4.473 -0.1855 -0.3161  0.3827
   47CHL1  H26A 3472   1.955  -0.142   4.387  0.0092 -2.4842 -1.4426
   47CHL1  H26B 3473   1.915  -0.299   4.458 -0.9211  0.1291  0.6969
   47CHL1  H26C 3474   1.941  -0.165   4.569 -1.0661 -0.7866  0.2727
   47CHL1   C27 3475   2.164  -0.356   4.556  0.5886 -0.1592  0.2890
   47CHL1  H27A 3476   2.131  -0.333   4.659  0.9100  1.0404  0.1387
   47CHL1  H27B 3477   2.104  -0.444   4.524 -1.0407  1.0886 -0.2228
   47CHL1  H27C 3478   2.272  -0.382   4.557  0.9529  1.2664  0.7097
   48CHL1    C3 3479   6.836   4.215   2.807  0.2581 -0.0387  0.1185
   48CHL1    H3 3480   6.930   4.156   2.801 -0.0333 -0.4754 -0.2613
   48CHL1    O3 3481   6.838   4.280   2.683  0.0263 -0.3575 -0.5983
   48CHL1   H3' 3482   6.747   4.263   2.656 -0.5321 -1.8426  1.9617
   48CHL1    C4 3483   6.721   4.115   2.811  0.1813  0.7563  0.5084
   48CHL1   H4A 3484   6.633   4.177   2.787  0.5195  0.9686 -0.2354
   48CHL1   H4B 3485   6.729   4.050   2.721 -0.5595  2.7766 -1.0996
   48CHL1    C5 3486   6.686   4.048   2.940 -0.0592  0.4559  0.3966
   48CHL1    C6 3487   6.661   3.916   2.939 -0.2658  0.2047 -0.6620
   48CHL1    H6 3488   6.649   3.867   2.841 -0.0366 -2.1005  0.3851
   48CHL1    C7 3489   6.654   3.825   3.065 -0.2295  0.3233  0.0787
   48CHL1   H7A 3490   6.561   3.764   3.064  1.1483 -1.9591  1.5819
   48CHL1   H7B 3491   6.746   3.765   3.084 -1.5277 -1.6976  0.3262
   48CHL1    C8 3492   6.637   3.912   3.192 -0.1990  0.3341 -0.0951
   48CHL1    H8 3493   6.541   3.967   3.182  0.4805  1.4334 -0.8675
   48CHL1   C14 3494   6.651   3.833   3.321 -0.2295 -0.0789  0.6840
   48CHL1   H14 3495   6.750   3.782   3.309  0.7387  2.0385 -1.1364
   48CHL1   C15 3496   6.545   3.721   3.340 -0.5535 -0.0279  0.2400
   48CHL1  H15A 3497   6.447   3.753   3.298 -0.8463  3.1857  2.9232
   48CHL1  H15B 3498   6.581   3.623   3.304 -0.0732 -0.5425  2.0145
   48CHL1   C16 3499   6.528   3.712   3.495  0.1679 -0.6908 -0.0029
   48CHL1  H16A 3500   6.425   3.741   3.526 -0.2086 -0.6388 -1.2730
   48CHL1  H16B 3501   6.557   3.608   3.523  1.8687 -0.3048 -0.2706
   48CHL1   C17 3502   6.632   3.812   3.556  0.4430 -0.1502  0.3927
   48CHL1   H17 3503   6.731   3.762   3.562  0.5330  0.1052  1.3403
   48CHL1   C13 3504   6.655   3.918   3.443  0.0491  0.6443 -0.4698
   48CHL1   C18 3505   6.529   4.010   3.433  0.0914 -0.4975 -0.4900
   48CHL1  H18A 3506   6.531   4.067   3.528  1.5729 -0.3093 -0.6199
   48CHL1  H18B 3507   6.534   4.087   3.354 -0.3287  0.1970  0.1470
   48CHL1  H18C 3508   6.435   3.954   3.415 -1.0085  0.9684  0.4222
   48CHL1   C12 3509   6.772   4.012   3.442 -0.5045  0.5675  0.2268
   48CHL1  H12A 3510   6.775   4.070   3.536 -0.2498  2.0834 -0.6850
   48CHL1  H12B 3511   6.865   3.951   3.439 -0.1693  1.0983 -1.2770
   48CHL1   C11 3512   6.769   4.105   3.319 -0.2334  0.2481 -0.1418
   48CHL1  H11A 3513   6.695   4.188   3.324 -1.1830 -0.3630 -2.8624
   48CHL1  H11B 3514   6.870   4.150   3.310  0.7148 -2.0324 -1.8357
   48CHL1    C9 3515   6.743   4.031   3.185  0.1995  1.1979 -0.2067
   48CHL1    H9 3516   6.840   3.982   3.161  0.1631  1.3875 -0.7585
   48CHL1   C10 3517   6.718   4.136   3.066  0.3679  0.1710  1.2835
   48CHL1   C19 3518   6.586   4.205   3.094 -0.0323  0.4955 -0.4422
   48CHL1  H19A 3519   6.496   4.141   3.102 -0.2999  0.8424 -0.6588
   48CHL1  H19B 3520   6.589   4.272   3.183  2.1620 -0.0628 -0.0397
   48CHL1  H19C 3521   6.557   4.275   3.013 -0.3405  1.6108  0.6030
   48CHL1    C1 3522   6.848   4.233   3.056 -0.3769  0.4509 -0.0644
   48CHL1   H1A 3523   6.863   4.294   3.147  2.3407 -0.3096  0.0877
   48CHL1   H1B 3524   6.937   4.167   3.054 -1.3817 -0.9737 -2.4505
   48CHL1    C2 3525   6.847   4.307   2.927  0.3323  1.3574  0.0213
   48CHL1   H2A 3526   6.927   4.384   2.916  1.4403 -0.0314 -2.2766
   48CHL1   H2B 3527   6.754   4.368   2.932 -0.2457  0.4380  0.8880
   48CHL1   C20 3528   6.604   3.850   3.701 -0.0868  0.9358  0.3951
   48CHL1   H20 3529   6.527   3.930   3.704 -1.9561 -0.8294  2.2545
   48CHL1   C21 3530   6.736   3.905   3.762  0.0327 -0.7625 -0.5833
   48CHL1  H21A 3531   6.763   4.006   3.727 -1.0093 -0.3800 -0.3323
   48CHL1  H21B 3532   6.825   3.841   3.741  0.4618 -0.9726  1.6055
   48CHL1  H21C 3533   6.736   3.910   3.873 -1.1412 -0.9139 -0.5618
   48CHL1   C22 3534   6.539   3.729   3.780 -0.1213 -0.5277  0.5247
   48CHL1  H22A 3535   6.435   3.717   3.742 -0.1286  1.6281 -0.2458
   48CHL1  H22B 3536   6.593   3.637   3.750 -0.8087  0.5005 -4.7829
   48CHL1   C23 3537   6.553   3.737   3.934 -0.4648  0.5638  0.2630
   48CHL1  H23A 3538   6.514   3.645   3.984 -1.0707  0.9609  0.5267
   48CHL1  H23B 3539   6.653   3.760   3.976 -0.0482  2.7848 -1.7408
   48CHL1   C24 3540   6.463   3.847   3.985 -0.1373 -0.5205 -0.5947
   48CHL1  H24A 3541   6.485   3.947   3.941  0.8638  0.1884  1.3863
   48CHL1  H24B 3542   6.362   3.828   3.943 -0.2507  0.4116 -0.7779
   48CHL1   C25 3543   6.462   3.862   4.143 -0.7177  0.6044 -0.0221
   48CHL1   H25 3544   6.448   3.758   4.179 -1.3284 -0.6036 -3.3940
   48CHL1   C26 3545   6.600   3.913   4.187  0.3174 -0.4995  0.3070
   48CHL1  H26A 3546   6.596   3.933   4.296 -0.9963 -2.3188  0.6358
   48CHL1  H26B 3547   6.682   3.842   4.164  1.5378  0.8790  0.2811
   48CHL1  H26C 3548   6.628   4.001   4.126 -0.4676  0.3757  1.1818
   48CHL1   C27 3549   6.350   3.952   4.186  0.0723  0.5564  0.5912
   48CHL1  H27A 3550   6.255   3.896   4.173  1.0631 -1.5411  1.8805
   48CHL1  H27B 3551   6.369   3.987   4.290  0.9464  1.0403  0.2859
   48CHL1  H27C 3552   6.364   4.047   4.130 -2.5100  1.6230  1.5849
   49CHL1    C3 3553   6.512   6.281   2.707  0.0803 -0.6169 -0.9189
   49CHL1    H3 3554   6.619   6.310   2.721 -1.0583  3.1433  1.7862
   49CHL1    O3 3555   6.487   6.250   2.571 -0.5352 -0.0876  0.1498
   49CHL1   H3' 3556   6.391   6.247   2.569 -0.6749  1.8917 -2.6719
   49CHL1    C4 3557   6.496   6.150   2.783 -0.0064 -0.2880 -0.0676
   49CHL1   H4A 3558   6.420   6.085   2.737 -0.5784  0.8688 -0.8039
   49CHL1   H4B 3559   6.597   6.107   2.767  0.3390 -0.0105  1.2574
   49CHL1    C5 3560   6.483   6.156   2.933 -0.5626  0.0472 -0.5809
   49CHL1    C6 3561   6.558   6.082   3.015 -0.1831  0.2438  0.2392
   49CHL1    H6 3562   6.648   6.036   2.972 -1.4313  0.1407 -2.4323
   49CHL1    C7 3563   6.547   6.081   3.168 -0.1734  0.5156 -1.4071
   49CHL1   H7A 3564   6.533   5.978   3.208  0.1631  0.4676 -1.4124
   49CHL1   H7B 3565   6.643   6.110   3.216 -1.2395  0.1949  1.1015
   49CHL1    C8 3566   6.433   6.171   3.228  0.2183 -0.5067 -0.6982
   49CHL1    H8 3567   6.337   6.114   3.225 -0.4481  0.6542 -2.9106
   49CHL1   C14 3568   6.461   6.199   3.375  0.6919 -0.0820 -0.7241
   49CHL1   H14 3569   6.555   6.258   3.375  0.8957 -0.2312  2.3269
   49CHL1   C15 3570   6.489   6.085   3.473 -0.4740  0.1975  0.0730
   49CHL1  H15A 3571   6.409   6.008   3.474  0.4754 -0.8366  0.6709
   49CHL1  H15B 3572   6.580   6.023   3.455 -1.7408 -1.4345 -1.0580
   49CHL1   C16 3573   6.480   6.157   3.607  0.1633 -0.0574  0.2226
   49CHL1  H16A 3574   6.433   6.091   3.683 -1.4781  1.7115  0.8185
   49CHL1  H16B 3575   6.583   6.171   3.646  0.1051 -0.2609  0.4510
   49CHL1   C17 3576   6.412   6.293   3.579 -0.5856  0.5638 -0.5310
   49CHL1   H17 3577   6.492   6.370   3.579  0.2052 -0.2229  0.6369
   49CHL1   C13 3578   6.355   6.286   3.443  0.0500  0.7075 -0.1704
   49CHL1   C18 3579   6.220   6.210   3.458  1.0240  0.0190 -0.1904
   49CHL1  H18A 3580   6.142   6.279   3.496 -0.6501 -0.6708 -2.1302
   49CHL1  H18B 3581   6.192   6.179   3.355 -1.3332 -0.6681  0.6033
   49CHL1  H18C 3582   6.228   6.118   3.519  0.2489 -0.5804 -0.9748
   49CHL1   C12 3583   6.341   6.413   3.364 -0.0534  0.1989  0.1651
   49CHL1  H12A 3584   6.264   6.481   3.406  1.1892  2.5697 -1.1781
   49CHL1  H12B 3585   6.438   6.468   3.366 -0.0172  0.4050 -2.7503
   49CHL1   C11 3586   6.319   6.387   3.223 -0.2433  0.1772  0.2434
   49CHL1  H11A 3587   6.218   6.345   3.204  0.1009 -0.9596  0.8235
   49CHL1  H11B 3588   6.325   6.487   3.175 -0.4667  0.4601  0.7971
   49CHL1    C9 3589   6.418   6.297   3.146 -0.5292  0.7089 -0.0584
   49CHL1    H9 3590   6.516   6.348   3.155 -0.1381  0.3892 -2.0850
   49CHL1   C10 3591   6.393   6.270   2.990  0.1530  0.2636  0.1483
   49CHL1   C19 3592   6.240   6.237   2.969  0.1715  0.4457  0.0893
   49CHL1  H19A 3593   6.219   6.142   3.023  0.5713  0.1184 -0.3265
   49CHL1  H19B 3594   6.176   6.316   3.015  0.7824  1.0175 -0.0348
   49CHL1  H19C 3595   6.214   6.227   2.862 -0.2034  1.6334  0.0575
   49CHL1    C1 3596   6.427   6.396   2.916 -0.5349  0.2880 -0.7886
   49CHL1   H1A 3597   6.362   6.478   2.953 -1.1890 -1.9136  3.5398
   49CHL1   H1B 3598   6.534   6.421   2.932 -0.4724 -0.6661  0.3930
   49CHL1    C2 3599   6.420   6.386   2.761 -0.4287 -0.0758  0.3228
   49CHL1   H2A 3600   6.453   6.485   2.720 -0.7490  0.0026  0.2547
   49CHL1   H2B 3601   6.316   6.359   2.734 -0.8468 -0.3414  2.1063
   49CHL1   C20 3602   6.328   6.332   3.701  0.0147  0.4940  1.0298
   49CHL1   H20 3603   6.235   6.271   3.705  1.5337 -2.0467  0.1180
   49CHL1   C21 3604   6.281   6.478   3.691 -0.9880 -0.7578  0.1597
   49CHL1  H21A 3605   6.362   6.541   3.649 -2.2728 -0.0733 -1.3824
   49CHL1  H21B 3606   6.249   6.533   3.782 -0.9286 -2.4954  1.2871
   49CHL1  H21C 3607   6.191   6.477   3.627  0.8349 -3.4245 -2.6794
   49CHL1   C22 3608   6.395   6.315   3.838  0.1473 -0.2149  0.2597
   49CHL1  H22A 3609   6.322   6.341   3.917  2.4695  3.3607  1.5053
   49CHL1  H22B 3610   6.426   6.209   3.854 -0.6977 -0.6950 -1.1377
   49CHL1   C23 3611   6.516   6.399   3.861 -0.2947 -0.2776  0.0358
   49CHL1  H23A 3612   6.599   6.365   3.796  0.3650 -1.3283  1.3764
   49CHL1  H23B 3613   6.508   6.503   3.825  1.0129  0.2866  1.2859
   49CHL1   C24 3614   6.557   6.424   4.008  0.0724  0.4278 -0.8900
   49CHL1  H24A 3615   6.637   6.499   4.028 -0.7263  1.3568 -1.0814
   49CHL1  H24B 3616   6.475   6.463   4.072  0.5741  0.1006 -0.0259
   49CHL1   C25 3617   6.600   6.295   4.081  0.4851 -0.4205 -0.2134
   49CHL1   H25 3618   6.527   6.212   4.065  0.5545 -0.9841  2.0710
   49CHL1   C26 3619   6.740   6.252   4.030 -0.4639 -0.2077 -0.4593
   49CHL1  H26A 3620   6.787   6.168   4.086  2.3773  2.0363  0.7249
   49CHL1  H26B 3621   6.739   6.226   3.922  2.1323 -2.9316  0.0244
   49CHL1  H26C 3622   6.809   6.336   4.051  0.3616 -1.0738  0.4006
   49CHL1   C27 3623   6.609   6.319   4.235  0.1073  0.1757  0.4137
   49CHL1  H27A 3624   6.519   6.366   4.279 -1.1525 -0.7365 -1.0508
   49CHL1  H27B 3625   6.642   6.231   4.293 -2.4455  1.0390  3.4259
   49CHL1  H27C 3626   6.696   6.387   4.247 -0.7786  1.4183  0.0439
   50CHL1    C3 3627   6.602   0.132   2.827 -0.2113  0.4469 -0.5424
   50CHL1    H3 3628   6.704   0.087   2.824  0.3256  1.6512 -2.1442
   50CHL1    O3 3629   6.577   0.159   2.690  0.1677 -0.1735  0.6138
   50CHL1   H3' 3630   6.484   0.134   2.688  0.1227  0.0290 -0.4762
   50CHL1    C4 3631   6.499   0.050   2.906 -0.4605 -0.8206 -0.1776
   50CHL1   H4A 3632   6.408   0.113   2.903  0.2401  0.2300 -0.1183
   50CHL1   H4B 3633   6.473  -0.039   2.846 -1.2526 -2.2227  2.1300
   50CHL1    C5 3634   6.529   0.030   3.050  0.0641 -0.3219  0.2281
   50CHL1    C6 3635   6.548  -0.088   3.105  0.1196 -0.0480 -0.4961
   50CHL1    H6 3636   6.529  -0.176   3.042  0.8705 -1.4841  1.1772
   50CHL1    C7 3637   6.578  -0.100   3.254 -0.2559  0.2349  0.0890
   50CHL1   H7A 3638   6.517  -0.183   3.294 -1.2132  0.7539 -0.2722
   50CHL1   H7B 3639   6.685  -0.127   3.273 -0.8206 -1.5966  0.9057
   50CHL1    C8 3640   6.546   0.025   3.332  0.2799  0.5847 -0.3219
   50CHL1    H8 3641   6.435   0.025   3.337  0.2324  0.0146 -1.2111
   50CHL1   C14 3642   6.609   0.008   3.473  0.5564 -0.1680  0.3548
   50CHL1   H14 3643   6.719  -0.003   3.464  0.3300 -1.6358 -0.9876
   50CHL1   C15 3644   6.565  -0.116   3.548  0.3459  0.8935 -0.2485
   50CHL1  H15A 3645   6.454  -0.122   3.556  0.4985 -2.4411  1.1702
   50CHL1  H15B 3646   6.589  -0.220   3.516  1.1126  1.0787 -0.2895
   50CHL1   C16 3647   6.605  -0.092   3.697 -0.3988 -1.3067 -1.0828
   50CHL1  H16A 3648   6.519  -0.116   3.764  0.2928  1.6286  1.0655
   50CHL1  H16B 3649   6.685  -0.160   3.735 -0.4971 -1.4178 -1.0724
   50CHL1   C17 3650   6.652   0.058   3.693  0.1714 -0.1304 -0.0809
   50CHL1   H17 3651   6.760   0.061   3.672  0.2598  1.0729  0.4584
   50CHL1   C13 3652   6.581   0.121   3.568 -0.7441 -0.0157  0.4179
   50CHL1   C18 3653   6.431   0.146   3.600 -0.6617  0.2630  0.2388
   50CHL1  H18A 3654   6.381   0.057   3.644 -2.3709  0.5271 -1.0318
   50CHL1  H18B 3655   6.414   0.234   3.666 -1.3141 -0.8809  1.6631
   50CHL1  H18C 3656   6.376   0.156   3.504 -1.9726 -0.7050  0.8691
   50CHL1   C12 3657   6.655   0.244   3.507 -0.4697 -0.5353  0.2692
   50CHL1  H12A 3658   6.644   0.335   3.571  2.0844 -1.2033  1.7903
   50CHL1  H12B 3659   6.765   0.235   3.500 -0.5826 -3.0216  0.6390
   50CHL1   C11 3660   6.596   0.275   3.363 -0.6031  0.1101  0.6187
   50CHL1  H11A 3661   6.495   0.314   3.386 -0.6309  1.0457 -0.9275
   50CHL1  H11B 3662   6.658   0.349   3.307  0.5652 -0.7563  0.7298
   50CHL1    C9 3663   6.598   0.147   3.267 -0.0080  0.2231  0.1088
   50CHL1    H9 3664   6.707   0.129   3.270 -0.3109 -1.9123  2.8722
   50CHL1   C10 3665   6.551   0.165   3.121  0.2085  0.1815  0.0313
   50CHL1   C19 3666   6.426   0.248   3.139  0.2308 -0.2656  0.2137
   50CHL1  H19A 3667   6.359   0.193   3.208  0.4638  0.8907  1.4045
   50CHL1  H19B 3668   6.441   0.346   3.189  1.5044 -0.8249  0.9855
   50CHL1  H19C 3669   6.376   0.270   3.042 -2.1319  1.3854  1.6947
   50CHL1    C1 3670   6.657   0.255   3.039  0.1065 -0.3404 -0.2174
   50CHL1   H1A 3671   6.672   0.358   3.078 -1.2815 -0.4923  0.7950
   50CHL1   H1B 3672   6.753   0.200   3.046  0.0783 -0.1824  2.2546
   50CHL1    C2 3673   6.621   0.265   2.894 -0.1319 -0.3278 -0.0578
   50CHL1   H2A 3674   6.692   0.328   2.835 -2.7167  0.7226 -2.2700
   50CHL1   H2B 3675   6.528   0.324   2.875 -0.9377 -1.2928  0.8142
   50CHL1   C20 3676   6.629   0.142   3.824  0.6511 -0.1064  0.1426
   50CHL1   H20 3677   6.553   0.221   3.801  2.6240  2.2713  1.3324
   50CHL1   C21 3678   6.753   0.230   3.865 -0.3817 -0.0448 -0.1887
   50CHL1  H21A 3679   6.793   0.275   3.771  0.2108  0.4360  0.2898
   50CHL1  H21B 3680   6.826   0.159   3.910 -1.4762 -0.8855  0.2964
   50CHL1  H21C 3681   6.727   0.308   3.940 -2.8023 -1.8944  1.0196
   50CHL1   C22 3682   6.562   0.061   3.941  0.7525  0.1057 -0.4255
   50CHL1  H22A 3683   6.462   0.027   3.908  1.6463 -1.8314 -1.3377
   50CHL1  H22B 3684   6.610  -0.039   3.942  1.9818  0.6634 -0.6498
   50CHL1   C23 3685   6.546   0.129   4.075  0.1467  0.0690 -0.3670
   50CHL1  H23A 3686   6.508   0.070   4.162  0.8183  1.5116  0.9561
   50CHL1  H23B 3687   6.650   0.155   4.106  0.0644 -1.4688  1.3635
   50CHL1   C24 3688   6.464   0.266   4.062  0.0542 -0.3914 -0.0979
   50CHL1  H24A 3689   6.509   0.321   3.976  0.0854 -2.5474 -1.5529
   50CHL1  H24B 3690   6.357   0.250   4.038  0.4482 -2.6666 -0.6084
   50CHL1   C25 3691   6.482   0.351   4.191 -0.7558 -0.7336  0.6699
   50CHL1   H25 3692   6.587   0.381   4.210 -1.0432  1.9763 -1.4487
   50CHL1   C26 3693   6.403   0.488   4.170 -0.1410 -0.0232 -0.1884
   50CHL1  H26A 3694   6.425   0.549   4.261  1.4262  0.2680 -0.7268
   50CHL1  H26B 3695   6.445   0.542   4.083  0.0196 -1.1587 -0.8391
   50CHL1  H26C 3696   6.294   0.471   4.163 -0.4282  1.0881  1.2110
   50CHL1   C27 3697   6.428   0.286   4.318 -0.0122 -0.1300 -0.0302
   50CHL1  H27A 3698   6.440   0.353   4.406 -1.0229  0.2654 -0.1839
   50CHL1  H27B 3699   6.322   0.264   4.296  0.6508 -1.7918 -1.8117
   50CHL1  H27C 3700   6.493   0.197   4.335  1.9912  1.4970  1.3072
   51CHL1    C3 3701   1.743   0.807   2.647  0.3674 -0.3098  0.0440
   51CHL1    H3 3702   1.649   0.749   2.655 -0.3824  0.9184  0.4597
   51CHL1    O3 3703   1.763   0.828   2.510  0.3495 -0.6662 -0.6260
   51CHL1   H3' 3704   1.847   0.784   2.496  1.5139  1.2791 -0.1416
   51CHL1    C4 3705   1.722   0.940   2.728  0.3428 -0.1200  1.0719
   51CHL1   H4A 3706   1.811   1.001   2.700  0.5093 -0.9065 -0.2364
   51CHL1   H4B 3707   1.635   1.000   2.696 -0.1892 -2.2446 -1.8980
   51CHL1    C5 3708   1.718   0.914   2.878  0.3039 -0.8595 -0.3357
   51CHL1    C6 3709   1.614   0.955   2.955  0.1552 -0.1973 -0.5513
   51CHL1    H6 3710   1.528   1.007   2.911 -2.2938 -1.3241  2.5290
   51CHL1    C7 3711   1.602   0.934   3.103 -0.8858  0.1357 -0.1105
   51CHL1   H7A 3712   1.562   1.024   3.154  4.6439  3.3082 -0.6417
   51CHL1   H7B 3713   1.525   0.857   3.128 -0.5339  0.4107  2.0253
   51CHL1    C8 3714   1.744   0.913   3.165  0.5679 -0.2623 -0.1336
   51CHL1    H8 3715   1.813   1.000   3.154  0.5547 -0.3556 -1.0312
   51CHL1   C14 3716   1.734   0.877   3.314 -0.1123  0.1283  0.9216
   51CHL1   H14 3717   1.677   0.783   3.330 -0.9504  0.0438 -2.0201
   51CHL1   C15 3718   1.672   0.983   3.406 -0.3701  0.1405  0.2153
   51CHL1  H15A 3719   1.723   1.079   3.384 -0.5128  0.3968  0.9579
   51CHL1  H15B 3720   1.564   1.010   3.403 -0.4022  0.0355  0.4256
   51CHL1   C16 3721   1.717   0.948   3.541 -0.5042  0.2654 -0.2369
   51CHL1  H16A 3722   1.785   1.029   3.576  0.0978 -0.3476  0.0432
   51CHL1  H16B 3723   1.639   0.938   3.619  0.8436  1.2179  1.3145
   51CHL1   C17 3724   1.808   0.816   3.527  0.2918  0.3841  0.1020
   51CHL1   H17 3725   1.730   0.737   3.526  0.2120  0.4071 -2.3874
   51CHL1   C13 3726   1.866   0.834   3.387  0.2229 -0.2769  1.2887
   51CHL1   C18 3727   1.968   0.952   3.383 -0.0707  0.8027  0.5937
   51CHL1  H18A 3728   2.062   0.907   3.422  1.3182  1.9280 -1.2500
   51CHL1  H18B 3729   1.980   0.984   3.278 -2.4181 -0.7700 -0.2413
   51CHL1  H18C 3730   1.941   1.046   3.437  0.9701  0.0049  2.6383
   51CHL1   C12 3731   1.924   0.710   3.308  0.4444  0.9433  0.7429
   51CHL1  H12A 3732   2.021   0.680   3.355 -0.9316 -1.8135  2.1093
   51CHL1  H12B 3733   1.866   0.616   3.324 -0.8203  1.1810 -1.9814
   51CHL1   C11 3734   1.956   0.744   3.159  0.8701 -0.5547 -0.5043
   51CHL1  H11A 3735   2.047   0.808   3.153  1.3990 -1.3054 -0.6265
   51CHL1  H11B 3736   1.980   0.648   3.109  1.8344 -0.2636 -0.6223
   51CHL1    C9 3737   1.827   0.802   3.090  0.6692  0.2558 -0.0859
   51CHL1    H9 3738   1.751   0.721   3.094  0.1753  0.6091 -1.5174
   51CHL1   C10 3739   1.831   0.836   2.941 -0.2631  0.9341  0.0534
   51CHL1   C19 3740   1.960   0.923   2.920  0.2315  0.2675 -0.9296
   51CHL1  H19A 3741   1.968   0.981   2.826  1.8359  1.2950 -0.2002
   51CHL1  H19B 3742   1.971   1.001   2.999  0.5513 -0.2850 -0.4146
   51CHL1  H19C 3743   2.050   0.858   2.923 -0.5396 -0.8237  2.2286
   51CHL1    C1 3744   1.851   0.708   2.859 -0.1852  0.7515 -0.6488
   51CHL1   H1A 3745   1.944   0.658   2.893  1.0637  2.6762 -1.0758
   51CHL1   H1B 3746   1.764   0.641   2.877  0.9885 -0.6096  0.0843
   51CHL1    C2 3747   1.861   0.724   2.702  0.0405  0.0959  0.2574
   51CHL1   H2A 3748   1.866   0.622   2.659 -0.7289 -1.0429  2.6886
   51CHL1   H2B 3749   1.958   0.774   2.680 -0.8797  1.3385 -1.2224
   51CHL1   C20 3750   1.905   0.798   3.649  0.0752  0.1840  0.6029
   51CHL1   H20 3751   1.979   0.881   3.647  0.4399 -0.1478 -0.1158
   51CHL1   C21 3752   1.982   0.664   3.632  0.2075 -0.2239  0.3175
   51CHL1  H21A 3753   1.909   0.601   3.576 -0.4507  0.3400  0.5322
   51CHL1  H21B 3754   1.994   0.613   3.730  1.7115  0.1216  0.3305
   51CHL1  H21C 3755   2.079   0.665   3.578  0.5928 -1.4500  0.9515
   51CHL1   C22 3756   1.831   0.815   3.789 -0.2541 -0.6936  0.4198
   51CHL1  H22A 3757   1.807   0.924   3.788  1.4180  0.0145 -5.5375
   51CHL1  H22B 3758   1.738   0.754   3.796 -0.4471 -0.7372 -1.7633
   51CHL1   C23 3759   1.908   0.790   3.926  0.0601 -0.7163 -0.3193
   51CHL1  H23A 3760   1.962   0.694   3.909 -1.3268 -1.5049 -0.4930
   51CHL1  H23B 3761   1.981   0.873   3.936 -0.0270 -0.2849 -2.6150
   51CHL1   C24 3762   1.824   0.779   4.056  0.0300 -0.0424  0.1905
   51CHL1  H24A 3763   1.894   0.746   4.136  0.6725 -0.7488 -0.6387
   51CHL1  H24B 3764   1.785   0.875   4.097 -0.9851 -1.0664  1.7373
   51CHL1   C25 3765   1.714   0.675   4.048 -0.0377 -0.4531 -0.7987
   51CHL1   H25 3766   1.644   0.712   3.969 -0.8133  1.0606  0.5336
   51CHL1   C26 3767   1.768   0.542   4.013  0.1001 -0.3950 -0.5044
   51CHL1  H26A 3768   1.849   0.502   4.078  0.0194 -2.5693 -1.6434
   51CHL1  H26B 3769   1.696   0.457   4.018  1.6922 -1.7685 -0.1452
   51CHL1  H26C 3770   1.804   0.534   3.908  2.1472 -1.0701  0.1991
   51CHL1   C27 3771   1.634   0.681   4.186 -0.1585 -0.3577  0.9459
   51CHL1  H27A 3772   1.553   0.606   4.195  0.0310 -0.6161  0.5248
   51CHL1  H27B 3773   1.713   0.646   4.257  2.5732 -0.1977 -1.7867
   51CHL1  H27C 3774   1.602   0.784   4.212  0.8694  0.3204 -0.3354
   52CHL1    C3 3775   0.671   2.095   2.728 -0.5502  0.0395  0.2221
   52CHL1    H3 3776   0.782   2.090   2.735 -0.3060  3.3031  0.1605
   52CHL1    O3 3777   0.653   2.105   2.589  0.1026  0.5930  0.4675
   52CHL1   H3' 3778   0.559   2.090   2.595  0.4726 -2.0182  0.9404
   52CHL1    C4 3779   0.605   1.973   2.783 -0.0841  0.0153 -0.4497
   52CHL1   H4A 3780   0.500   1.974   2.747 -0.8109  0.4548  1.5354
   52CHL1   H4B 3781   0.665   1.892   2.736  0.5462 -0.4873  1.1450
   52CHL1    C5 3782   0.613   1.962   2.931  0.1188 -0.1443 -0.5688
   52CHL1    C6 3783   0.669   1.852   2.983  0.3833 -0.0625 -0.6924
   52CHL1    H6 3784   0.689   1.765   2.919  2.6524 -0.0527 -0.0940
   52CHL1    C7 3785   0.679   1.831   3.135  0.3940 -0.2333 -0.0520
   52CHL1   H7A 3786   0.643   1.728   3.153  0.1241  0.4645  4.4328
   52CHL1   H7B 3787   0.784   1.828   3.172  0.1787 -2.3687  0.5045
   52CHL1    C8 3788   0.606   1.946   3.206  0.4649 -0.2241  0.0170
   52CHL1    H8 3789   0.498   1.921   3.203  0.4244  0.0188 -1.3141
   52CHL1   C14 3790   0.649   1.954   3.345 -0.2001  0.0459 -0.4266
   52CHL1   H14 3791   0.754   1.988   3.337 -0.5214  1.5780  1.2649
   52CHL1   C15 3792   0.650   1.822   3.424 -0.8331  0.7584 -0.5857
   52CHL1  H15A 3793   0.551   1.771   3.419 -1.3170  1.4901  0.9572
   52CHL1  H15B 3794   0.736   1.761   3.387 -0.1584  1.6673 -0.5410
   52CHL1   C16 3795   0.669   1.863   3.566 -0.1768  0.4165  0.5485
   52CHL1  H16A 3796   0.593   1.809   3.628 -0.8958 -1.8217 -2.0771
   52CHL1  H16B 3797   0.770   1.825   3.591 -0.2735 -1.2434 -1.2961
   52CHL1   C17 3798   0.657   2.018   3.570  1.7084  0.4519  0.0421
   52CHL1   H17 3799   0.761   2.058   3.563  1.5460  1.5229  2.6820
   52CHL1   C13 3800   0.589   2.052   3.438 -0.1516  0.3377 -0.5619
   52CHL1   C18 3801   0.441   2.031   3.449  0.5771  0.1478  0.2173
   52CHL1  H18A 3802   0.391   2.108   3.512 -0.1900 -0.2961  0.1666
   52CHL1  H18B 3803   0.387   2.028   3.352 -1.2630  2.7085  1.0661
   52CHL1  H18C 3804   0.430   1.934   3.503 -0.5729 -0.8769 -1.7447
   52CHL1   C12 3805   0.627   2.196   3.381  0.4794  0.0374 -0.0886
   52CHL1  H12A 3806   0.582   2.277   3.442 -1.1054 -0.4527 -0.5619
   52CHL1  H12B 3807   0.737   2.195   3.395  0.4450 -1.6498  0.2843
   52CHL1   C11 3808   0.576   2.198   3.241  0.6314 -1.0056 -0.2577
   52CHL1  H11A 3809   0.465   2.201   3.236  0.6799  0.1101 -1.6238
   52CHL1  H11B 3810   0.600   2.295   3.192  0.3870 -1.2781 -0.9355
   52CHL1    C9 3811   0.626   2.086   3.149 -0.4770 -0.0575  0.0444
   52CHL1    H9 3812   0.737   2.093   3.139 -0.4980 -0.3470 -0.4154
   52CHL1   C10 3813   0.573   2.091   3.006  0.2403 -1.2075 -0.1088
   52CHL1   C19 3814   0.420   2.086   2.998 -0.2747 -0.0480  0.5062
   52CHL1  H19A 3815   0.382   2.088   2.893 -3.0934 -0.2973  1.4496
   52CHL1  H19B 3816   0.386   1.997   3.055 -1.4809 -0.8755 -1.4034
   52CHL1  H19C 3817   0.374   2.172   3.049 -2.0168 -0.8499  0.3454
   52CHL1    C1 3818   0.627   2.222   2.937 -0.3501  0.0242 -0.1805
   52CHL1   H1A 3819   0.559   2.301   2.975 -0.7206 -0.0072 -0.7551
   52CHL1   H1B 3820   0.732   2.239   2.969 -0.8005 -1.0482  1.9906
   52CHL1    C2 3821   0.610   2.222   2.785 -0.5522 -0.7136  1.0304
   52CHL1   H2A 3822   0.663   2.314   2.753  0.9446 -1.5696  0.9382
   52CHL1   H2B 3823   0.502   2.230   2.760 -0.8745  2.5057  2.9676
   52CHL1   C20 3824   0.586   2.068   3.697 -1.1036 -0.0852 -0.4438
   52CHL1   H20 3825   0.479   2.042   3.704 -0.7900 -1.1368  1.1452
   52CHL1   C21 3826   0.584   2.220   3.701 -0.3906 -0.3549  0.5828
   52CHL1  H21A 3827   0.529   2.263   3.788 -0.3423  0.2162  0.3343
   52CHL1  H21B 3828   0.525   2.270   3.621  0.3905  1.8121  1.2778
   52CHL1  H21C 3829   0.687   2.261   3.698  0.0653 -1.5269 -0.7170
   52CHL1   C22 3830   0.661   2.008   3.823  0.5580  0.3433 -0.8804
   52CHL1  H22A 3831   0.662   1.897   3.818 -0.7343  0.3443 -1.5594
   52CHL1  H22B 3832   0.764   2.047   3.837  0.4964  0.3302 -0.3732
   52CHL1   C23 3833   0.603   2.031   3.962  0.6154  0.5118 -0.1385
   52CHL1  H23A 3834   0.568   2.137   3.965  0.3025  0.5276 -2.5439
   52CHL1  H23B 3835   0.518   1.960   3.959  1.0983 -0.0474 -0.7101
   52CHL1   C24 3836   0.707   1.989   4.067  0.1671 -0.7551 -0.3486
   52CHL1  H24A 3837   0.735   1.884   4.044  0.5825 -0.9774  1.0694
   52CHL1  H24B 3838   0.792   2.061   4.060 -1.2107  1.2717  1.9934
   52CHL1   C25 3839   0.650   1.987   4.207  0.2644 -0.2195 -0.2025
   52CHL1   H25 3840   0.630   2.090   4.244 -0.9236 -0.2823 -0.6277
   52CHL1   C26 3841   0.523   1.898   4.206 -0.0296 -0.0703  0.0242
   52CHL1  H26A 3842   0.502   1.875   4.313  1.6693  1.5499  0.7648
   52CHL1  H26B 3843   0.447   1.958   4.152 -0.1830  1.2915  1.6697
   52CHL1  H26C 3844   0.542   1.811   4.140  1.0755  1.6124 -1.9751
   52CHL1   C27 3845   0.756   1.926   4.301 -0.9198  0.5040  0.7835
   52CHL1  H27A 3846   0.850   1.977   4.273  1.5082 -3.8665  0.1280
   52CHL1  H27B 3847   0.724   1.937   4.407 -1.1389 -1.6997  0.9874
   52CHL1  H27C 3848   0.787   1.822   4.277  1.1540  1.1750  0.3256
   53CHL1    C3 3849   1.042   0.307   3.041  0.1248  0.2478 -0.7838
   53CHL1    H3 3850   1.121   0.384   3.055 -0.5655  0.8891 -0.3339
   53CHL1    O3 3851   0.995   0.319   2.911 -0.1645 -0.0015 -0.0337
   53CHL1   H3' 3852   0.917   0.263   2.902  0.9051 -2.3522  3.2824
   53CHL1    C4 3853   1.094   0.165   3.053 -0.0311 -0.1035  0.7017
   53CHL1   H4A 3854   1.004   0.101   3.046 -1.4555  1.7504  1.4295
   53CHL1   H4B 3855   1.173   0.149   2.976  0.2655 -0.5439  1.0872
   53CHL1    C5 3856   1.152   0.146   3.186  0.7384  0.5469  0.1482
   53CHL1    C6 3857   1.274   0.086   3.201  0.6199 -0.3096 -0.0976
   53CHL1    H6 3858   1.334   0.055   3.114  0.5970 -0.5938 -0.0108
   53CHL1    C7 3859   1.334   0.049   3.335  0.1059 -0.4205 -0.4866
   53CHL1   H7A 3860   1.353  -0.061   3.331 -0.7489 -0.7102  1.7126
   53CHL1   H7B 3861   1.429   0.104   3.349 -0.6289  0.8297 -0.2483
   53CHL1    C8 3862   1.239   0.075   3.451  0.6307 -0.4002  0.0396
   53CHL1    H8 3863   1.175  -0.014   3.466 -0.3018  0.0669 -0.9785
   53CHL1   C14 3864   1.325   0.083   3.581  0.1198  0.2995  0.0164
   53CHL1   H14 3865   1.390   0.170   3.556 -1.2983  0.9582 -1.4792
   53CHL1   C15 3866   1.428  -0.027   3.609 -0.3645  0.3463  0.5848
   53CHL1  H15A 3867   1.383  -0.118   3.563  1.1283  1.4453 -3.5100
   53CHL1  H15B 3868   1.524  -0.026   3.553  0.0315 -1.1780  1.1670
   53CHL1   C16 3869   1.444  -0.028   3.763 -0.2196  0.2819  0.1722
   53CHL1  H16A 3870   1.416  -0.129   3.799  0.7592 -0.2111 -0.4407
   53CHL1  H16B 3871   1.551  -0.015   3.787  0.2177 -0.5504 -1.2407
   53CHL1   C17 3872   1.368   0.095   3.812  0.5943  0.9292  0.3273
   53CHL1   H17 3873   1.431   0.185   3.793  0.5748  0.7589 -0.6086
   53CHL1   C13 3874   1.247   0.106   3.708 -0.1229  0.3426 -0.4212
   53CHL1   C18 3875   1.142  -0.002   3.728 -0.1557 -0.4623  0.0381
   53CHL1  H18A 3876   1.171  -0.109   3.742  0.8705 -0.3384 -1.0156
   53CHL1  H18B 3877   1.088   0.019   3.823  3.7256 -0.6848  2.5171
   53CHL1  H18C 3878   1.082  -0.009   3.635  1.3540  0.9862 -1.0901
   53CHL1   C12 3879   1.186   0.246   3.688  0.3805 -0.6755 -0.1722
   53CHL1  H12A 3880   1.124   0.275   3.775 -1.4336 -0.2122 -1.5535
   53CHL1  H12B 3881   1.275   0.312   3.690 -0.4004  0.3887  0.2359
   53CHL1   C11 3882   1.097   0.260   3.560  0.4414  0.5021 -0.1110
   53CHL1  H11A 3883   1.000   0.209   3.578  0.2004  1.2419  0.7333
   53CHL1  H11B 3884   1.068   0.367   3.552 -1.0928  0.2390  1.3196
   53CHL1    C9 3885   1.163   0.203   3.434 -0.3284  0.2110  0.3513
   53CHL1    H9 3886   1.244   0.274   3.407 -1.1270  2.1154  2.5905
   53CHL1   C10 3887   1.072   0.189   3.308  0.4320  0.1259  0.5759
   53CHL1   C19 3888   0.976   0.067   3.313  0.6655  0.4051  0.0683
   53CHL1  H19A 3889   1.023  -0.034   3.317 -0.3896 -0.2081 -1.6292
   53CHL1  H19B 3890   0.909   0.069   3.402 -0.4610 -0.1563 -0.7289
   53CHL1  H19C 3891   0.905   0.066   3.227  2.3277  1.2110 -1.3617
   53CHL1    C1 3892   0.992   0.319   3.290 -0.3916 -1.1326  0.6066
   53CHL1   H1A 3893   0.912   0.330   3.367  1.8342  1.5323  2.7369
   53CHL1   H1B 3894   1.060   0.405   3.307  0.7026 -1.9526  0.4708
   53CHL1    C2 3895   0.930   0.334   3.147 -0.6706  0.1669 -0.0444
   53CHL1   H2A 3896   0.890   0.437   3.134  0.2380  0.8157  1.9763
   53CHL1   H2B 3897   0.848   0.260   3.133  1.5853 -2.5162  0.1265
   53CHL1   C20 3898   1.330   0.094   3.961  0.1641  0.5084 -0.4830
   53CHL1   H20 3899   1.239   0.157   3.974  0.0049  0.0647  0.6908
   53CHL1   C21 3900   1.450   0.159   4.030 -0.3433  0.4495  0.3818
   53CHL1  H21A 3901   1.463   0.263   3.991  2.4383 -0.2381 -0.7253
   53CHL1  H21B 3902   1.537   0.094   4.007 -0.7523 -0.9786  2.5843
   53CHL1  H21C 3903   1.441   0.155   4.141  1.9542  0.9839  0.6383
   53CHL1   C22 3904   1.310  -0.039   4.030  0.0351  0.9677 -0.3665
   53CHL1  H22A 3905   1.247  -0.098   3.960  0.3892  0.3922 -0.2036
   53CHL1  H22B 3906   1.404  -0.098   4.025 -0.9653 -0.8971  1.3819
   53CHL1   C23 3907   1.250  -0.042   4.170  0.7894  0.1738 -0.7097
   53CHL1  H23A 3908   1.287   0.044   4.230 -0.1153  1.6543 -2.1728
   53CHL1  H23B 3909   1.145  -0.013   4.147  1.1016  1.3151 -0.7917
   53CHL1   C24 3910   1.252  -0.172   4.248 -0.1691 -0.2159 -0.0725
   53CHL1  H24A 3911   1.181  -0.235   4.190 -1.4739  2.6350 -1.7684
   53CHL1  H24B 3912   1.354  -0.214   4.237  0.4833  0.9635  1.0907
   53CHL1   C25 3913   1.222  -0.168   4.394  0.1099 -0.6164  0.3487
   53CHL1   H25 3914   1.144  -0.093   4.419  0.2211 -0.3828  0.0018
   53CHL1   C26 3915   1.169  -0.303   4.441  1.6079 -0.1032  0.1010
   53CHL1  H26A 3916   1.065  -0.330   4.410  0.6495  2.1634  1.1030
   53CHL1  H26B 3917   1.231  -0.380   4.392  0.1778 -1.2967  0.0894
   53CHL1  H26C 3918   1.167  -0.302   4.552 -1.0287  0.4080  0.1270
   53CHL1   C27 3919   1.345  -0.123   4.473  0.1644 -0.4898 -0.4906
   53CHL1  H27A 3920   1.435  -0.186   4.459 -0.3350 -1.4094  0.3100
   53CHL1  H27B 3921   1.370  -0.021   4.439 -1.1447  0.1947  0.5078
   53CHL1  H27C 3922   1.315  -0.109   4.579 -2.3815  0.5467 -1.2750
   54CHL1    C3 3923   1.157   5.874   2.733  0.1404 -0.1105 -0.1298
   54CHL1    H3 3924   1.251   5.931   2.719  1.0567 -2.0190 -2.5183
   54CHL1    O3 3925   1.147   5.814   2.606 -0.2323 -1.1355  0.1378
   54CHL1   H3' 3926   1.100   5.883   2.559  0.6774 -0.6524 -0.0814
   54CHL1    C4 3927   1.175   5.765   2.844 -0.9144  0.5251 -0.6885
   54CHL1   H4A 3928   1.106   5.678   2.834 -1.7208  0.8525  1.5931
   54CHL1   H4B 3929   1.280   5.731   2.832  0.8992  4.6928  1.5567
   54CHL1    C5 3930   1.160   5.809   2.988 -0.3504 -0.4699  0.0132
   54CHL1    C6 3931   1.245   5.781   3.085  0.3969 -0.3242 -0.0218
   54CHL1    H6 3932   1.340   5.730   3.063  0.4590 -0.7049  1.0467
   54CHL1    C7 3933   1.232   5.814   3.234 -0.2782  0.6634  0.1675
   54CHL1   H7A 3934   1.263   5.733   3.304 -0.1735  1.9981  1.7421
   54CHL1   H7B 3935   1.298   5.900   3.257  0.0561  0.1603  1.1694
   54CHL1    C8 3936   1.085   5.856   3.263 -0.2143 -0.3194  0.1935
   54CHL1    H8 3937   1.026   5.763   3.267  0.2331 -0.5689  3.4971
   54CHL1   C14 3938   1.081   5.935   3.389  0.1925  0.1767  0.8562
   54CHL1   H14 3939   1.117   6.036   3.359 -1.5492  0.0585 -1.9942
   54CHL1   C15 3940   1.161   5.878   3.505  0.6185 -0.6974 -0.3192
   54CHL1  H15A 3941   1.158   5.767   3.506  1.4983 -0.7453 -1.3841
   54CHL1  H15B 3942   1.268   5.907   3.497  0.3712  0.2369 -0.4512
   54CHL1   C16 3943   1.087   5.948   3.629  0.7963  0.5264  0.3005
   54CHL1  H16A 3944   1.050   5.869   3.698  2.4044  0.2908  0.9151
   54CHL1  H16B 3945   1.159   6.016   3.678 -0.3282  2.1769 -0.2517
   54CHL1   C17 3946   0.968   6.035   3.582 -0.5947  0.4677  0.4636
   54CHL1   H17 3947   1.019   6.133   3.575 -1.6546  0.9873 -0.3073
   54CHL1   C13 3948   0.941   5.971   3.437  0.3227  0.4114  0.0733
   54CHL1   C18 3949   0.853   5.847   3.461  0.2811 -0.5854 -0.0401
   54CHL1  H18A 3950   0.871   5.770   3.383  0.1673  0.3604 -1.0152
   54CHL1  H18B 3951   0.877   5.803   3.560  0.0362  0.5338  0.5298
   54CHL1  H18C 3952   0.745   5.871   3.467  0.3170 -0.1024 -1.0840
   54CHL1   C12 3953   0.874   6.058   3.331 -1.2029 -0.3363 -0.7592
   54CHL1  H12A 3954   0.769   6.072   3.364 -1.2098 -1.8680 -0.0250
   54CHL1  H12B 3955   0.924   6.157   3.331 -0.4625 -0.6931  0.6782
   54CHL1   C11 3956   0.886   6.004   3.191  0.3801  0.0845 -0.5395
   54CHL1  H11A 3957   0.804   5.929   3.193 -2.7853  3.2900 -0.1361
   54CHL1  H11B 3958   0.856   6.084   3.120  1.5123  1.3758  0.3989
   54CHL1    C9 3959   1.026   5.952   3.154 -0.0757  0.1263 -0.2423
   54CHL1    H9 3960   1.098   6.036   3.143  1.0900 -0.7516  0.5432
   54CHL1   C10 3961   1.030   5.888   3.011 -1.5899 -1.1254 -0.2928
   54CHL1   C19 3962   0.922   5.780   2.998 -0.3313 -0.0474  0.1443
   54CHL1  H19A 3963   0.917   5.705   3.080  0.5020 -0.8984 -0.5596
   54CHL1  H19B 3964   0.828   5.838   3.000  0.7629  1.7904 -0.0590
   54CHL1  H19C 3965   0.931   5.723   2.903  1.2520  0.6984 -0.1809
   54CHL1    C1 3966   1.022   5.999   2.904 -0.6764 -0.0541  0.5038
   54CHL1   H1A 3967   0.928   6.054   2.929 -1.2369 -0.9103  0.3359
   54CHL1   H1B 3968   1.105   6.071   2.918 -0.1940 -0.0984 -1.7544
   54CHL1    C2 3969   1.026   5.956   2.755 -0.4003  1.0849 -0.8091
   54CHL1   H2A 3970   1.010   6.043   2.688 -0.0261  0.6782 -1.4408
   54CHL1   H2B 3971   0.939   5.888   2.744  0.4696 -0.5940  1.7047
   54CHL1   C20 3972   0.860   6.069   3.691  0.5029 -0.0629 -0.4339
   54CHL1   H20 3973   0.794   5.980   3.697  0.6670 -0.1148  1.2094
   54CHL1   C21 3974   0.776   6.180   3.632  0.2566 -0.3086  0.3304
   54CHL1  H21A 3975   0.701   6.207   3.710 -1.1653 -1.5625 -0.5465
   54CHL1  H21B 3976   0.708   6.141   3.553 -2.0926 -2.1485  3.0455
   54CHL1  H21C 3977   0.842   6.265   3.605 -1.3134  0.7378 -0.4025
   54CHL1   C22 3978   0.912   6.109   3.834  0.4406 -0.2698 -0.2464
   54CHL1  H22A 3979   0.992   6.040   3.868 -1.2225 -2.8050 -1.2524
   54CHL1  H22B 3980   0.955   6.212   3.827  0.1719 -0.1908 -0.7536
   54CHL1   C23 3981   0.804   6.095   3.946  0.1125 -0.8800 -0.0098
   54CHL1  H23A 3982   0.709   6.153   3.937  1.2893  1.4874  1.6561
   54CHL1  H23B 3983   0.786   5.986   3.956  1.9847 -1.6733 -3.5141
   54CHL1   C24 3984   0.857   6.150   4.079 -0.2533  0.5104  0.6681
   54CHL1  H24A 3985   0.936   6.087   4.124  0.4006  0.9350  0.1379
   54CHL1  H24B 3986   0.911   6.242   4.048  0.5018 -0.4215 -0.9069
   54CHL1   C25 3987   0.746   6.166   4.182 -0.7196 -1.0058 -0.0870
   54CHL1   H25 3988   0.656   6.212   4.135  0.6398  0.9017 -0.9768
   54CHL1   C26 3989   0.700   6.033   4.238 -0.9741 -0.0867 -0.2080
   54CHL1  H26A 3990   0.654   5.970   4.159  3.3464 -2.9351 -0.7834
   54CHL1  H26B 3991   0.794   5.990   4.278 -0.9670  1.0793  1.0925
   54CHL1  H26C 3992   0.626   6.042   4.320 -0.7096  0.7830 -0.0483
   54CHL1   C27 3993   0.804   6.251   4.298 -0.1423  0.4895 -0.9941
   54CHL1  H27A 3994   0.832   6.351   4.260  0.7133  0.9828  0.8230
   54CHL1  H27B 3995   0.722   6.259   4.373  0.1059  0.5409 -0.7270
   54CHL1  H27C 3996   0.900   6.218   4.342 -1.3499  0.9177  2.2393
   55CHL1    C3 3997   3.926   0.203   2.553  0.0913  1.1222  0.2168
   55CHL1    H3 3998   3.983   0.110   2.533 -1.2787 -0.0096  1.4102
   55CHL1    O3 3999   3.892   0.253   2.426 -0.3966 -0.6221 -0.5175
   55CHL1   H3' 4000   3.942   0.333   2.411 -1.8155  0.6373  0.9948
   55CHL1    C4 4001   3.791   0.162   2.610  1.0683  0.1278  0.1044
   55CHL1   H4A 4002   3.707   0.234   2.600 -2.5542 -3.4975  1.6212
   55CHL1   H4B 4003   3.743   0.084   2.546  0.7617  1.0073 -0.7710
   55CHL1    C5 4004   3.788   0.116   2.749  0.7211 -0.6123 -0.1696
   55CHL1    C6 4005   3.734   0.005   2.798  0.0116 -0.7243  0.0616
   55CHL1    H6 4006   3.695  -0.061   2.720 -0.2807 -0.3887 -0.0729
   55CHL1    C7 4007   3.738  -0.040   2.939  0.0467 -0.0628 -0.3940
   55CHL1   H7A 4008   3.648  -0.101   2.966  0.8846 -0.4087  1.8735
   55CHL1   H7B 4009   3.818  -0.116   2.952 -1.1342 -1.3523 -0.3899
   55CHL1    C8 4010   3.769   0.073   3.035  0.6549 -0.4654  0.3086
   55CHL1    H8 4011   3.681   0.141   3.034  0.6018 -0.5401 -0.8021
   55CHL1   C14 4012   3.819   0.017   3.167  0.4926  0.5296  0.2105
   55CHL1   H14 4013   3.914  -0.034   3.143 -0.4418 -0.6018 -1.2901
   55CHL1   C15 4014   3.730  -0.094   3.226  0.7141  0.2097 -0.6438
   55CHL1  H15A 4015   3.622  -0.069   3.216  0.1270 -1.5451  0.7520
   55CHL1  H15B 4016   3.744  -0.189   3.170 -1.6887  0.4113 -1.6892
   55CHL1   C16 4017   3.769  -0.098   3.381  0.0148  0.3100  0.1300
   55CHL1  H16A 4018   3.679  -0.091   3.445 -0.4419  0.4260 -0.5068
   55CHL1  H16B 4019   3.817  -0.197   3.387  0.1296  0.4190  1.1518
   55CHL1   C17 4020   3.858   0.032   3.403 -0.1806 -0.8398 -0.6129
   55CHL1   H17 4021   3.962  -0.005   3.406 -0.0544 -0.6134 -1.6225
   55CHL1   C13 4022   3.841   0.116   3.276  1.2709 -0.1594 -0.2621
   55CHL1   C18 4023   3.702   0.191   3.294  0.2333  0.1951  0.1055
   55CHL1  H18A 4024   3.715   0.271   3.370 -0.4820  0.4388 -0.0175
   55CHL1  H18B 4025   3.678   0.248   3.202 -0.5851 -0.2547  0.0328
   55CHL1  H18C 4026   3.615   0.128   3.324  0.5041 -0.4256 -0.3767
   55CHL1   C12 4027   3.950   0.208   3.232  1.0297  0.6191  1.0628
   55CHL1  H12A 4028   3.967   0.292   3.302  1.3432  2.2166 -0.8199
   55CHL1  H12B 4029   4.041   0.144   3.223  1.2030  1.1299 -1.8017
   55CHL1   C11 4030   3.933   0.270   3.091 -0.2579  0.3012 -0.4696
   55CHL1  H11A 4031   3.854   0.348   3.099 -0.5399  0.2568 -2.3606
   55CHL1  H11B 4032   4.028   0.317   3.060 -0.3709  1.7702  1.2203
   55CHL1    C9 4033   3.889   0.161   2.983  0.3954 -0.0324  0.0347
   55CHL1    H9 4034   3.975   0.092   2.971  1.5261  1.4111 -0.4334
   55CHL1   C10 4035   3.863   0.219   2.836 -0.3759 -0.5916  0.0798
   55CHL1   C19 4036   3.784   0.348   2.843  0.3289 -0.8352 -0.1767
   55CHL1  H19A 4037   3.789   0.406   2.749 -0.4579 -0.4565  0.0051
   55CHL1  H19B 4038   3.678   0.332   2.872  0.5137 -1.4622  0.1658
   55CHL1  H19C 4039   3.836   0.421   2.909  0.7714 -0.2384 -1.1699
   55CHL1    C1 4040   4.002   0.251   2.780 -0.2576 -0.1776 -0.1222
   55CHL1   H1A 4041   4.039   0.337   2.839 -0.3060  0.0398 -0.4104
   55CHL1   H1B 4042   4.071   0.164   2.793 -1.2091 -1.0231 -0.6076
   55CHL1    C2 4043   4.002   0.298   2.636  0.2182 -0.2450  1.1564
   55CHL1   H2A 4044   4.109   0.307   2.606  0.0255 -1.2185  0.1103
   55CHL1   H2B 4045   3.959   0.399   2.619 -0.9071 -0.8923 -0.1212
   55CHL1   C20 4046   3.828   0.096   3.538 -0.0070  0.4396 -0.0245
   55CHL1   H20 4047   3.728   0.143   3.532 -0.0445  0.3461 -0.1424
   55CHL1   C21 4048   3.935   0.210   3.568  0.4707  0.2750 -0.4089
   55CHL1  H21A 4049   4.032   0.155   3.563 -1.0003 -2.4916 -0.7167
   55CHL1  H21B 4050   3.917   0.257   3.667 -0.5396  1.5183 -1.1589
   55CHL1  H21C 4051   3.920   0.280   3.483 -1.3866 -0.7725 -0.9858
   55CHL1   C22 4052   3.836  -0.001   3.650 -1.6742  0.1775 -0.4981
   55CHL1  H22A 4053   3.740  -0.056   3.662 -1.4209  0.1604  2.1315
   55CHL1  H22B 4054   3.921  -0.073   3.643 -1.6927  0.1956 -0.8969
   55CHL1   C23 4055   3.840   0.056   3.800 -0.1557 -0.0879 -0.2346
   55CHL1  H23A 4056   3.935   0.112   3.819 -0.4545  0.0424  0.9637
   55CHL1  H23B 4057   3.754   0.124   3.789  0.0038  0.6120  2.2415
   55CHL1   C24 4058   3.809  -0.045   3.910 -0.3631  0.1038 -0.0548
   55CHL1  H24A 4059   3.724  -0.111   3.885 -1.7828  1.7279  0.2491
   55CHL1  H24B 4060   3.896  -0.112   3.925  0.4857  0.7829 -1.6491
   55CHL1   C25 4061   3.780   0.026   4.047 -0.3446  0.0688  0.4044
   55CHL1   H25 4062   3.758  -0.055   4.120 -1.6236  0.3117  0.3247
   55CHL1   C26 4063   3.908   0.088   4.102  0.1632 -0.6686 -0.1185
   55CHL1  H26A 4064   3.893   0.103   4.211  0.4714  1.2813 -0.2971
   55CHL1  H26B 4065   3.991   0.014   4.092  0.1630 -0.3792 -3.4448
   55CHL1  H26C 4066   3.945   0.179   4.050  0.7762 -0.3516  0.8491
   55CHL1   C27 4067   3.659   0.126   4.055 -0.0567  0.2533  0.6559
   55CHL1  H27A 4068   3.679   0.215   3.991 -0.5726 -1.8175 -2.6177
   55CHL1  H27B 4069   3.561   0.075   4.047  0.4512 -0.9655  1.7872
   55CHL1  H27C 4070   3.664   0.157   4.162 -1.2503  0.1927  0.7446
   56CHL1    C3 4071   6.115   1.026   2.715  0.1028 -0.2475 -0.5746
   56CHL1    H3 4072   6.163   0.928   2.736 -0.0556 -0.4779 -1.2561
   56CHL1    O3 4073   6.067   1.030   2.582 -0.2049  0.0179  0.4733
   56CHL1   H3' 4074   6.033   1.119   2.569  2.4122  1.0354 -0.2096
   56CHL1    C4 4075   5.994   1.047   2.802 -0.6719 -0.0418  0.6103
   56CHL1   H4A 4076   5.942   1.144   2.787  0.0479  0.1124 -1.0391
   56CHL1   H4B 4077   5.916   0.973   2.776 -0.8431  0.4004 -0.1597
   56CHL1    C5 4078   6.031   1.038   2.950  0.1568  0.4677 -0.4870
   56CHL1    C6 4079   5.967   0.948   3.024 -0.1754  0.6555 -0.3150
   56CHL1    H6 4080   5.885   0.886   2.985  0.1731 -1.2034  1.6977
   56CHL1    C7 4081   6.000   0.936   3.166 -0.6114  0.8046 -0.5312
   56CHL1   H7A 4082   5.910   0.914   3.228 -0.0232  0.4957  0.2387
   56CHL1   H7B 4083   6.062   0.843   3.171 -1.1106  0.4685 -0.5607
   56CHL1    C8 4084   6.083   1.050   3.225  0.7387 -0.2569 -0.1783
   56CHL1    H8 4085   6.012   1.135   3.240  0.8570 -0.1723 -0.1033
   56CHL1   C14 4086   6.137   1.026   3.358  0.2733 -0.2951 -0.2073
   56CHL1   H14 4087   6.220   0.959   3.327 -1.8144 -2.1664 -2.1608
   56CHL1   C15 4088   6.065   0.929   3.451  0.6829  1.1261  0.0517
   56CHL1  H15A 4089   5.955   0.948   3.451  0.4773  0.1268  1.2953
   56CHL1  H15B 4090   6.067   0.827   3.407 -2.5825  0.7195  0.5638
   56CHL1   C16 4091   6.123   0.950   3.584  0.7240 -0.3433 -0.2952
   56CHL1  H16A 4092   6.051   1.013   3.641  0.4149 -0.7082 -0.2801
   56CHL1  H16B 4093   6.131   0.854   3.640 -2.1611  0.4553  1.6919
   56CHL1   C17 4094   6.247   1.037   3.558 -0.5353 -0.3177  0.2872
   56CHL1   H17 4095   6.329   0.971   3.521  0.1702 -0.4907  2.0463
   56CHL1   C13 4096   6.209   1.130   3.443  0.0441 -0.0240  0.7797
   56CHL1   C18 4097   6.108   1.236   3.483  0.0189 -0.3021 -0.2611
   56CHL1  H18A 4098   6.062   1.287   3.396 -1.2211  0.1484  0.6297
   56CHL1  H18B 4099   6.033   1.185   3.546  0.1809  2.7075  2.6643
   56CHL1  H18C 4100   6.164   1.314   3.539  0.6676  0.0558 -1.3688
   56CHL1   C12 4101   6.317   1.189   3.347  0.0314 -0.1220  0.1108
   56CHL1  H12A 4102   6.340   1.291   3.383  1.3520 -0.4231  0.1738
   56CHL1  H12B 4103   6.407   1.123   3.348  0.4947  0.5036  1.3876
   56CHL1   C11 4104   6.254   1.217   3.206  0.0638 -0.4480  0.8154
   56CHL1  H11A 4105   6.175   1.293   3.222 -2.0308 -2.2212 -0.5818
   56CHL1  H11B 4106   6.333   1.261   3.140 -0.8627 -0.5253 -0.3892
   56CHL1    C9 4107   6.190   1.099   3.133 -0.3054 -0.1859  0.2610
   56CHL1    H9 4108   6.264   1.018   3.117  0.4184  0.7049 -1.2393
   56CHL1   C10 4109   6.135   1.130   2.996  0.4348 -0.0511 -0.3538
   56CHL1   C19 4110   6.074   1.275   2.996 -0.4653 -0.3087 -0.3080
   56CHL1  H19A 4111   5.996   1.283   3.075 -0.6989 -1.6960 -0.3693
   56CHL1  H19B 4112   6.154   1.350   3.017  0.4802 -1.2557 -0.4169
   56CHL1  H19C 4113   6.022   1.300   2.901 -0.0798  0.5320 -0.3045
   56CHL1    C1 4114   6.257   1.137   2.896 -0.8244 -0.1949  0.4142
   56CHL1   H1A 4115   6.312   1.232   2.910 -0.8035  0.2874 -2.3958
   56CHL1   H1B 4116   6.331   1.057   2.914  0.3437  0.9083  0.6596
   56CHL1    C2 4117   6.225   1.130   2.746  0.2426  0.1549 -0.2695
   56CHL1   H2A 4118   6.314   1.104   2.684 -0.5384 -0.9130 -0.9917
   56CHL1   H2B 4119   6.177   1.227   2.723  1.5490  0.9900  0.4054
   56CHL1   C20 4120   6.290   1.112   3.676  0.9204  0.2900 -0.0887
   56CHL1   H20 4121   6.209   1.169   3.725  0.0337 -1.1009  0.1317
   56CHL1   C21 4122   6.408   1.203   3.645  0.0308 -0.4676 -0.2039
   56CHL1  H21A 4123   6.456   1.243   3.737 -0.8415  0.4234 -0.1148
   56CHL1  H21B 4124   6.375   1.291   3.586 -0.1721 -0.4066 -0.0014
   56CHL1  H21C 4125   6.487   1.160   3.581  1.8133  0.3463  1.3439
   56CHL1   C22 4126   6.339   1.022   3.797  0.0115  0.0687 -0.5485
   56CHL1  H22A 4127   6.275   0.931   3.807  1.3332 -0.6589  1.9080
   56CHL1  H22B 4128   6.438   0.981   3.770  0.1582 -0.1049  0.2338
   56CHL1   C23 4129   6.343   1.098   3.934 -0.7628  0.4699  0.1129
   56CHL1  H23A 4130   6.403   1.191   3.927  2.4446 -1.3039  1.7761
   56CHL1  H23B 4131   6.236   1.119   3.954 -0.2382  1.5473  2.1014
   56CHL1   C24 4132   6.410   1.032   4.056 -0.3632 -0.0671  0.0418
   56CHL1  H24A 4133   6.362   0.934   4.073 -0.8140 -0.3138 -2.3326
   56CHL1  H24B 4134   6.518   1.014   4.040 -0.1198 -0.0811  1.5949
   56CHL1   C25 4135   6.411   1.127   4.182 -0.0420 -0.2212  0.2095
   56CHL1   H25 4136   6.435   1.231   4.153  4.2078 -1.0695 -0.0740
   56CHL1   C26 4137   6.268   1.132   4.256  0.0984 -1.5144  0.5739
   56CHL1  H26A 4138   6.233   1.030   4.282  0.0392 -1.2356  1.6477
   56CHL1  H26B 4139   6.280   1.198   4.344 -1.6024  0.2640 -0.4242
   56CHL1  H26C 4140   6.198   1.189   4.190  0.4875 -2.2550 -0.5120
   56CHL1   C27 4141   6.513   1.081   4.293  0.7246 -0.0476 -0.3941
   56CHL1  H27A 4142   6.523   1.171   4.357 -0.8029  0.6546 -1.0814
   56CHL1  H27B 4143   6.483   0.988   4.345  0.1256  1.5168  2.2463
   56CHL1  H27C 4144   6.617   1.074   4.252  0.7218  0.4713 -0.5012
   57SAPC     N 4145   0.978   0.590   6.840  0.3638  0.3620  0.2054
   57SAPC   C12 4146   0.853   0.508   6.873  0.3981  0.0812 -0.0248
   57SAPC  H12A 4147   0.782   0.578   6.916 -0.2834  0.0248 -1.0284
   57SAPC  H12B 4148   0.864   0.440   6.955 -0.2090  0.4097  0.3386
   57SAPC   C13 4149   1.096   0.497   6.824 -0.0784 -0.7180  0.2854
   57SAPC  H13A 4150   1.181   0.561   6.807 -2.1111  1.8746 -0.9574
   57SAPC  H13B 4151   1.102   0.428   6.906  1.2132 -3.5297 -2.0236
   57SAPC  H13C 4152   1.085   0.428   6.742  3.3079 -2.4208  1.1174
   57SAPC   C14 4153   0.959   0.686   6.727 -0.9835  0.2749 -0.5902
   57SAPC  H14A 4154   1.050   0.740   6.708 -0.8834 -0.5095 -2.5888
   57SAPC  H14B 4155   0.931   0.631   6.638 -0.0429 -1.4860  0.1457
   57SAPC  H14C 4156   0.872   0.749   6.740 -1.6776 -0.1401 -2.7362
   57SAPC   C15 4157   1.018   0.669   6.962 -0.8494  0.3511  0.2201
   57SAPC  H15A 4158   0.996   0.617   7.053  0.8903 -1.4027 -0.3062
   57SAPC  H15B 4159   1.125   0.687   6.960  0.0833 -4.1373  1.0277
   57SAPC  H15C 4160   0.965   0.763   6.968 -0.1057  0.6924  2.4867
   57SAPC   C11 4161   0.775   0.437   6.757 -0.0743  0.0949 -0.3798
   57SAPC  H11A 4162   0.734   0.522   6.698 -1.4168  0.0339  0.4190
   57SAPC  H11B 4163   0.682   0.383   6.786  0.9414 -1.5835 -0.1459
   57SAPC     P 4164   0.878   0.212   6.713 -0.7568 -0.1314 -0.0234
   57SAPC   O13 4165   0.992   0.151   6.644 -0.5992  1.0764 -0.1458
   57SAPC   O14 4166   0.858   0.192   6.859  0.0477 -0.0403 -0.4938
   57SAPC   O12 4167   0.859   0.360   6.678  0.0830 -0.4723 -0.0861
   57SAPC   O11 4168   0.746   0.156   6.651 -0.1601 -0.0030  0.1659
   57SAPC    C1 4169   0.678   0.209   6.536 -0.7259  0.1126  0.5091
   57SAPC    HA 4170   0.573   0.176   6.555  0.0261 -1.9164  1.3914
   57SAPC    HB 4171   0.688   0.318   6.520  0.4927  0.0285  0.6497
   57SAPC    C2 4172   0.725   0.136   6.404 -0.2934 -0.7147 -0.2849
   57SAPC    HS 4173   0.740   0.030   6.433 -0.1177 -1.0718 -1.6322
   57SAPC   O21 4174   0.853   0.197   6.371 -0.3990  0.0563 -0.0830
   57SAPC   C21 4175   0.917   0.131   6.272 -0.4598  0.5436  0.2441
   57SAPC   O22 4176   0.882   0.022   6.231  0.4347 -0.1645 -0.2496
   57SAPC   C22 4177   1.041   0.205   6.224  0.3304 -0.0708 -0.3261
   57SAPC   H2R 4178   1.042   0.314   6.249  1.4303  0.1163 -1.1075
   57SAPC   H2S 4179   1.127   0.147   6.263  0.0041 -1.3412 -1.4398
   57SAPC    C3 4180   0.625   0.156   6.292 -0.1406 -0.3684  0.5686
   57SAPC    HX 4181   0.655   0.112   6.194 -0.1632  0.5960  0.1182
   57SAPC    HY 4182   0.621   0.267   6.283 -1.4365 -0.4768 -0.4373
   57SAPC   O31 4183   0.495   0.118   6.349 -0.2053  0.5075 -1.2032
   57SAPC   C31 4184   0.470  -0.014   6.323 -0.3004  0.1731  0.1839
   57SAPC   O32 4185   0.536  -0.086   6.251 -0.0541  0.3581 -0.2730
   57SAPC   C32 4186   0.322  -0.029   6.358  0.2018  0.2881 -0.0515
   57SAPC   H2X 4187   0.268   0.061   6.323 -1.3060  0.3605  2.2553
   57SAPC   H2Y 4188   0.313  -0.039   6.468 -0.7921 -0.6683 -0.2015
   57SAPC   C23 4189   1.043   0.185   6.070 -0.0312  0.0664 -0.6795
   57SAPC   H3R 4190   0.938   0.175   6.034 -0.6680  0.9587  0.8549
   57SAPC   H3S 4191   1.094   0.091   6.037 -1.9523 -1.0040 -0.7631
   57SAPC   C24 4192   1.102   0.300   5.993 -0.9939 -1.1128 -0.4589
   57SAPC   H4R 4193   1.047   0.379   6.048 -1.3341 -1.3872 -0.4008
   57SAPC   H4S 4194   1.075   0.301   5.885 -0.5340  0.4318 -0.5751
   57SAPC   C25 4195   1.256   0.305   6.012  0.3301  0.1141  0.0481
   57SAPC   H5R 4196   1.298   0.284   6.112 -0.3991  0.9066  0.5302
   57SAPC   C26 4197   1.348   0.333   5.915 -0.3955 -0.8493 -0.2999
   57SAPC   H6R 4198   1.456   0.322   5.933 -0.5512 -1.3235  0.3850
   57SAPC   C27 4199   1.315   0.347   5.770  0.2110  0.9293 -0.4094
   57SAPC   H7R 4200   1.228   0.414   5.755 -0.8115 -0.1088  0.5707
   57SAPC   H7S 4201   1.269   0.248   5.746 -1.6591  0.5044  3.8693
   57SAPC   C28 4202   1.422   0.374   5.664 -0.4427  0.3735  0.2422
   57SAPC   H8R 4203   1.505   0.442   5.690  0.2994 -0.3890 -0.0798
   57SAPC   C29 4204   1.430   0.325   5.540 -0.3753  0.7782  0.0730
   57SAPC   H9R 4205   1.525   0.336   5.488 -0.5906  0.2497 -0.4408
   57SAPC  C210 4206   1.341   0.226   5.474 -0.6860  0.7108 -0.1643
   57SAPC  H10R 4207   1.278   0.183   5.555  1.8276  0.3496  1.7189
   57SAPC  H10S 4208   1.395   0.140   5.430 -1.8282 -0.5077  0.7503
   57SAPC  C211 4209   1.234   0.294   5.387 -0.5985 -0.1977 -0.5528
   57SAPC  H11R 4210   1.166   0.354   5.448  2.3144 -0.7924  3.7196
   57SAPC  C212 4211   1.226   0.274   5.257  0.5275  0.9854  0.2118
   57SAPC  H12R 4212   1.142   0.319   5.203 -0.6889 -3.3475 -1.9447
   57SAPC  C213 4213   1.309   0.192   5.166  0.1107  0.3071 -0.2067
   57SAPC  H13R 4214   1.378   0.118   5.211 -0.0740  0.5536  0.5008
   57SAPC  H13S 4215   1.382   0.263   5.121  1.9507 -0.1198  1.9474
   57SAPC  C214 4216   1.235   0.117   5.058  0.2456  0.6331 -0.9507
   57SAPC  H14R 4217   1.204   0.016   5.088  2.8467 -0.4289 -1.5800
   57SAPC  C215 4218   1.219   0.177   4.940  0.3742 -0.0977 -0.0286
   57SAPC  H15R 4219   1.173   0.128   4.852  2.1613  0.4170 -1.3185
   57SAPC  C216 4220   1.257   0.321   4.895 -0.3805 -0.3584  0.1160
   57SAPC  H16R 4221   1.343   0.367   4.947  0.9869 -1.2188 -1.3027
   57SAPC  H16S 4222   1.170   0.385   4.922 -0.7586 -0.9691  0.3839
   57SAPC  C217 4223   1.274   0.353   4.743  0.4339 -0.0507  0.2050
   57SAPC  H17R 4224   1.371   0.308   4.713 -1.3271 -2.9235 -1.6383
   57SAPC  H17S 4225   1.281   0.464   4.749 -0.1646 -0.0655  1.7641
   57SAPC  C218 4226   1.173   0.312   4.640  0.4655  0.2391  0.2518
   57SAPC  H18R 4227   1.083   0.377   4.649  0.7006  0.3528  1.9700
   57SAPC  H18S 4228   1.145   0.205   4.652  1.1237 -0.0002 -0.2877
   57SAPC  C219 4229   1.219   0.307   4.491  0.2884 -1.1865 -0.2698
   57SAPC  H19R 4230   1.327   0.280   4.481  0.5360  0.3191 -2.2028
   57SAPC  H19S 4231   1.213   0.414   4.462 -1.4407 -0.8044  1.3481
   57SAPC  C220 4232   1.139   0.211   4.409 -0.7176 -0.1966 -0.2878
   57SAPC  H20R 4233   1.148   0.234   4.300  0.2316  1.0861  0.0410
   57SAPC  H20S 4234   1.033   0.211   4.442 -0.5424  2.4803  0.4954
   57SAPC  H20T 4235   1.172   0.105   4.414  2.2166  0.6604  0.8748
   57SAPC   C33 4236   0.256  -0.156   6.295  0.0730  0.0177  0.1338
   57SAPC   H3X 4237   0.159  -0.158   6.349 -0.4998 -1.3265 -0.8664
   57SAPC   H3Y 4238   0.315  -0.249   6.312  2.3684  0.7083 -3.1745
   57SAPC   C34 4239   0.224  -0.135   6.150  0.7088 -0.6361  0.2312
   57SAPC   H4X 4240   0.316  -0.132   6.087 -0.2963  0.6223 -1.2581
   57SAPC   H4Y 4241   0.166  -0.040   6.141 -1.5771 -1.9058  0.8732
   57SAPC   C35 4242   0.117  -0.234   6.098 -0.2660  0.0996  0.2002
   57SAPC   H5X 4243   0.024  -0.210   6.154 -0.0839  2.6315 -0.4439
   57SAPC   H5Y 4244   0.150  -0.336   6.128 -1.8739 -0.2786  0.7692
   57SAPC   C36 4245   0.078  -0.226   5.951  0.5179 -0.9198 -0.1682
   57SAPC   H6X 4246   0.051  -0.121   5.928 -0.5357 -1.0179  0.5742
   57SAPC   H6Y 4247  -0.013  -0.289   5.942 -0.7826  0.8195  0.3687
   57SAPC   C37 4248   0.184  -0.269   5.851 -0.2292  0.2999 -0.5779
   57SAPC   H7X 4249   0.211  -0.375   5.865 -2.4685 -0.1874  0.4434
   57SAPC   H7Y 4250   0.268  -0.196   5.843  0.1619  0.1776  1.6494
   57SAPC   C38 4251   0.114  -0.279   5.707 -0.8022 -0.1749 -0.2528
   57SAPC   H8X 4252   0.090  -0.175   5.679 -0.2640 -0.2848 -1.1660
   57SAPC   H8Y 4253   0.020  -0.337   5.715 -0.4599 -0.5674  1.2354
   57SAPC   C39 4254   0.195  -0.345   5.593  1.5104 -0.9971  0.3463
   57SAPC   H9X 4255   0.202  -0.450   5.628 -1.4393 -1.0012  1.2078
   57SAPC   H9Y 4256   0.295  -0.300   5.575  0.7704 -0.2289 -2.2407
   57SAPC  C310 4257   0.107  -0.345   5.470  0.8417 -0.5059  0.1339
   57SAPC  H10X 4258   0.107  -0.247   5.419 -1.4114 -1.2674 -1.5570
   57SAPC  H10Y 4259   0.002  -0.364   5.502  0.6982  1.0213  0.6433
   57SAPC  C311 4260   0.146  -0.457   5.360 -0.2516  0.4855  0.2038
   57SAPC  H11X 4261   0.061  -0.512   5.314  0.1353  0.4276 -0.4488
   57SAPC  H11Y 4262   0.191  -0.539   5.419  0.0289  0.1386 -0.4814
   57SAPC  C312 4263   0.248  -0.405   5.254 -0.2672 -0.0675 -0.3092
   57SAPC  H12X 4264   0.332  -0.356   5.306  1.0843 -2.5964  0.0469
   57SAPC  H12Y 4265   0.197  -0.331   5.188 -1.1677 -0.6200 -0.2607
   57SAPC  C313 4266   0.296  -0.509   5.155 -0.4673  0.2413 -0.7564
   57SAPC  H13X 4267   0.216  -0.568   5.105 -1.6309  1.2022 -0.0953
   57SAPC  H13Y 4268   0.357  -0.584   5.209  1.6307 -0.0487 -3.2846
   57SAPC  C314 4269   0.385  -0.451   5.045 -0.0839  0.5977 -1.4487
   57SAPC  H14X 4270   0.480  -0.412   5.089 -0.2415 -1.2473  0.6728
   57SAPC  H14Y 4271   0.337  -0.371   4.984  2.3463  2.7621 -0.7383
   57SAPC  C315 4272   0.419  -0.557   4.947  0.2434 -0.2021 -0.2299
   57SAPC  H15X 4273   0.328  -0.599   4.899  0.8977 -0.9481 -0.8432
   57SAPC  H15Y 4274   0.461  -0.644   5.002  0.6915 -0.8131 -1.5029
   57SAPC  C316 4275   0.522  -0.509   4.843  0.2046  0.8080 -0.8005
   57SAPC  H16X 4276   0.618  -0.491   4.896 -0.8801 -1.4182  2.2651
   57SAPC  H16Y 4277   0.497  -0.413   4.794 -0.0999  0.8048 -0.6577
   57SAPC  C317 4278   0.557  -0.619   4.740  0.1611  0.1074 -0.3851
   57SAPC  H17X 4279   0.545  -0.719   4.786 -0.6346  0.6308  0.5985
   57SAPC  H17Y 4280   0.662  -0.608   4.708  0.5587 -2.2812 -0.0925
   57SAPC  C318 4281   0.473  -0.605   4.617 -0.0042 -0.1698  0.1426
   57SAPC  H18X 4282   0.488  -0.510   4.561  2.1882  0.5991  1.8851
   57SAPC  H18Y 4283   0.366  -0.611   4.648 -0.3477 -2.0988 -1.2436
   57SAPC  H18Z 4284   0.476  -0.693   4.549 -1.0997  0.5843 -0.9257
   58SAPC     N 4285   4.698   5.812   6.988  0.1500 -0.4858  0.1610
   58SAPC   C12 4286   4.636   5.853   6.849 -0.4429 -0.5373  0.9114
   58SAPC  H12A 4287   4.567   5.775   6.821 -1.1985  0.4460 -0.0363
   58SAPC  H12B 4288   4.716   5.858   6.776  0.3164 -0.8665  1.7068
   58SAPC   C13 4289   4.804   5.910   7.023  0.0736 -0.0271 -0.2146
   58SAPC  H13A 4290   4.757   6.006   7.040 -2.2003 -0.6414 -2.3504
   58SAPC  H13B 4291   4.851   5.892   7.119 -1.3899 -0.1787  0.5064
   58SAPC  H13C 4292   4.874   5.918   6.942  0.2547  2.1138  0.1091
   58SAPC   C14 4293   4.596   5.821   7.095  0.3237  0.2848 -0.4500
   58SAPC  H14A 4294   4.504   5.764   7.083  0.1642  0.1770  1.0457
   58SAPC  H14B 4295   4.625   5.802   7.198 -1.1223  0.3060 -0.0114
   58SAPC  H14C 4296   4.564   5.923   7.106 -4.6265 -1.2087  1.9491
   58SAPC   C15 4297   4.758   5.673   6.988  0.4650  0.5493  0.3124
   58SAPC  H15A 4298   4.687   5.599   6.953  2.8556 -2.6137  1.5536
   58SAPC  H15B 4299   4.842   5.667   6.920  0.6350 -0.0075  0.5568
   58SAPC  H15C 4300   4.797   5.630   7.079  1.6297 -0.0691 -0.4503
   58SAPC   C11 4301   4.546   5.978   6.834  0.2407 -0.3422 -0.5111
   58SAPC  H11A 4302   4.460   5.956   6.901 -0.2332  3.2916  0.3020
   58SAPC  H11B 4303   4.512   5.984   6.729 -0.4339 -2.3444 -0.4348
   58SAPC     P 4304   4.676   6.200   6.793  0.3154 -0.2452 -0.1961
   58SAPC   O13 4305   4.569   6.297   6.781  0.1599  0.2797 -0.4975
   58SAPC   O14 4306   4.812   6.243   6.836  0.2793  0.8016  0.1979
   58SAPC   O12 4307   4.617   6.090   6.886 -0.0397 -0.1635 -0.0198
   58SAPC   O11 4308   4.686   6.116   6.653 -0.3602  0.5641  0.1191
   58SAPC    C1 4309   4.811   6.072   6.599  0.6314  0.2228  0.0387
   58SAPC    HA 4310   4.886   6.053   6.678 -0.2483  0.5444  0.9743
   58SAPC    HB 4311   4.798   5.979   6.540  0.6638 -0.3984  0.9868
   58SAPC    C2 4312   4.867   6.181   6.506 -0.1719 -0.6909  1.0091
   58SAPC    HS 4313   4.869   6.273   6.568 -1.8138  1.1553 -1.4389
   58SAPC   O21 4314   4.764   6.206   6.398  0.0245  0.3225  0.0053
   58SAPC   C21 4315   4.716   6.333   6.388 -0.0401 -0.1271 -0.1239
   58SAPC   O22 4316   4.728   6.414   6.473 -0.0685 -0.5406  0.1507
   58SAPC   C22 4317   4.649   6.351   6.249 -0.2973  0.7447  0.5758
   58SAPC   H2R 4318   4.720   6.416   6.193  0.1604 -0.5108 -0.3349
   58SAPC   H2S 4319   4.632   6.252   6.202 -1.2697  1.3007 -0.3039
   58SAPC    C3 4320   5.017   6.173   6.442  0.3043 -0.8256  0.8253
   58SAPC    HX 4321   5.036   6.085   6.377  1.3239 -0.3236  0.4172
   58SAPC    HY 4322   5.084   6.155   6.529  1.5324  1.3666  0.4107
   58SAPC   O31 4323   5.048   6.301   6.383  0.7402  0.6365  0.1351
   58SAPC   C31 4324   5.026   6.301   6.255 -0.1352 -0.2518  0.2503
   58SAPC   O32 4325   4.978   6.216   6.182 -0.1683  0.6828 -0.7571
   58SAPC   C32 4326   5.059   6.439   6.196  0.0515  0.0706 -0.1628
   58SAPC   H2X 4327   5.076   6.514   6.276  2.0143  0.1589 -0.5973
   58SAPC   H2Y 4328   4.985   6.466   6.119 -0.7103  1.6605  1.0844
   58SAPC   C23 4329   4.517   6.417   6.248  0.8120 -0.2538 -0.0308
   58SAPC   H3R 4330   4.498   6.498   6.323 -1.5035  0.5804 -1.3957
   58SAPC   H3S 4331   4.447   6.335   6.277  0.1986  0.1541 -0.3243
   58SAPC   C24 4332   4.476   6.474   6.118 -0.4197 -0.0400 -0.0634
   58SAPC   H4R 4333   4.554   6.548   6.087 -0.2219  0.0316  0.5928
   58SAPC   H4S 4334   4.373   6.515   6.118  0.9668  3.8312  0.7727
   58SAPC   C25 4335   4.489   6.366   6.018  0.3001  0.1457 -0.2774
   58SAPC   H5R 4336   4.463   6.269   6.063 -0.5931  1.0914  1.3341
   58SAPC   C26 4337   4.530   6.365   5.888 -0.1003 -0.7853  0.6238
   58SAPC   H6R 4338   4.536   6.272   5.829 -2.2307 -1.2342  1.0132
   58SAPC   C27 4339   4.548   6.497   5.807 -0.4908  0.0134 -0.4462
   58SAPC   H7R 4340   4.601   6.564   5.877 -1.6877  2.2382 -1.5587
   58SAPC   H7S 4341   4.446   6.539   5.794  0.1543  1.5241 -0.7514
   58SAPC   C28 4342   4.621   6.465   5.684  0.2913  0.3548 -0.8644
   58SAPC   H8R 4343   4.723   6.504   5.674 -0.8192  2.9661 -3.4446
   58SAPC   C29 4344   4.566   6.396   5.583  0.3843 -0.2826 -0.6510
   58SAPC   H9R 4345   4.625   6.377   5.492 -1.2363 -1.8098 -1.4405
   58SAPC  C210 4346   4.419   6.359   5.573  0.7635  0.0081  0.0919
   58SAPC  H10R 4347   4.361   6.440   5.524 -0.2057 -0.3745  0.5717
   58SAPC  H10S 4348   4.377   6.353   5.676 -1.2748  0.7321 -0.6458
   58SAPC  C211 4349   4.377   6.234   5.501 -0.6037 -0.0838 -0.6590
   58SAPC  H11R 4350   4.367   6.147   5.568 -1.4860  0.1238 -0.5154
   58SAPC  C212 4351   4.368   6.213   5.372 -0.4027 -0.5366 -0.2460
   58SAPC  H12R 4352   4.323   6.119   5.336  1.8857 -1.5501 -0.6109
   58SAPC  C213 4353   4.375   6.317   5.261  0.5542  0.1593  1.0715
   58SAPC  H13R 4354   4.375   6.418   5.306  0.7737  0.3665  0.6150
   58SAPC  H13S 4355   4.280   6.316   5.204 -0.2838  1.8825  2.3857
   58SAPC  C214 4356   4.497   6.307   5.169 -0.2680  0.2571 -0.6861
   58SAPC  H14R 4357   4.593   6.303   5.222 -0.9374 -1.2317  0.4739
   58SAPC  C215 4358   4.497   6.300   5.032 -0.2056 -0.7863 -0.9031
   58SAPC  H15R 4359   4.592   6.302   4.976 -1.2970 -1.0892 -2.8394
   58SAPC  C216 4360   4.381   6.291   4.936 -0.2130  0.5159 -0.4847
   58SAPC  H16R 4361   4.369   6.381   4.872 -1.0549  0.4539 -0.4154
   58SAPC  H16S 4362   4.289   6.277   4.996 -0.2071  1.9132 -0.1061
   58SAPC  C217 4363   4.384   6.174   4.846 -0.3356  0.4715 -0.4263
   58SAPC  H17R 4364   4.486   6.149   4.809 -1.0110 -4.4812  0.3979
   58SAPC  H17S 4365   4.323   6.203   4.758 -1.5184  0.6263  0.4161
   58SAPC  C218 4366   4.338   6.044   4.906  0.1391  0.1326 -0.1186
   58SAPC  H18R 4367   4.238   6.062   4.951 -0.5182 -0.8747 -1.0975
   58SAPC  H18S 4368   4.401   6.018   4.994  0.6561  1.9565  0.0876
   58SAPC  C219 4369   4.336   5.929   4.805 -0.1663 -0.7173 -0.7296
   58SAPC  H19R 4370   4.350   5.975   4.704  0.3754  1.1878  0.1680
   58SAPC  H19S 4371   4.241   5.871   4.809 -0.3531 -0.4467 -1.1663
   58SAPC  C220 4372   4.457   5.839   4.834  0.0688 -0.5335  0.4523
   58SAPC  H20R 4373   4.545   5.901   4.805 -0.9570 -0.3834 -2.8071
   58SAPC  H20S 4374   4.440   5.749   4.771  1.1200 -0.2940 -0.2008
   58SAPC  H20T 4375   4.465   5.808   4.940 -3.2502 -3.9948 -0.1042
   58SAPC   C33 4376   5.200   6.437   6.131  0.5451 -0.9421 -0.2651
   58SAPC   H3X 4377   5.277   6.371   6.176  1.3481 -1.0353 -1.7305
   58SAPC   H3Y 4378   5.248   6.537   6.135  0.4198 -0.8816 -0.2838
   58SAPC   C34 4379   5.196   6.404   5.984 -0.0956 -0.4515  0.0167
   58SAPC   H4X 4380   5.112   6.462   5.939 -0.8343 -0.8668  0.8386
   58SAPC   H4Y 4381   5.164   6.299   5.968 -2.4575  0.5693 -2.7580
   58SAPC   C35 4382   5.325   6.417   5.900 -0.3884 -0.7085 -0.6141
   58SAPC   H5X 4383   5.401   6.348   5.941 -0.4007 -0.6599 -0.5102
   58SAPC   H5Y 4384   5.372   6.518   5.907  1.7822 -1.5297 -2.2554
   58SAPC   C36 4385   5.310   6.401   5.751  0.2505  0.2009  0.7076
   58SAPC   H6X 4386   5.269   6.301   5.727  0.5313  0.0869  0.6974
   58SAPC   H6Y 4387   5.413   6.396   5.709 -0.6904 -2.1489 -1.5274
   58SAPC   C37 4388   5.228   6.508   5.681  0.3527  0.0706  0.0042
   58SAPC   H7X 4389   5.272   6.607   5.704  0.6670 -0.1208  0.2297
   58SAPC   H7Y 4390   5.129   6.521   5.730  0.8216 -0.9850  1.2912
   58SAPC   C38 4391   5.224   6.472   5.532 -0.1355 -0.0807  0.2905
   58SAPC   H8X 4392   5.168   6.381   5.502  0.0659  0.2163 -1.0195
   58SAPC   H8Y 4393   5.330   6.468   5.500 -0.5500  3.0557 -1.8553
   58SAPC   C39 4394   5.180   6.585   5.441 -0.2994  0.2160  0.2939
   58SAPC   H9X 4395   5.248   6.673   5.449 -0.1715  0.2055 -0.5497
   58SAPC   H9Y 4396   5.077   6.621   5.461 -1.2928 -1.8159 -0.8454
   58SAPC  C310 4397   5.181   6.550   5.291  0.1467  0.2534  0.5106
   58SAPC  H10X 4398   5.152   6.638   5.230 -0.9017  0.2577  1.0017
   58SAPC  H10Y 4399   5.106   6.469   5.288  1.2850 -0.8441  0.8007
   58SAPC  C311 4400   5.311   6.497   5.232  0.0615  0.1149 -0.1796
   58SAPC  H11X 4401   5.321   6.387   5.243  2.0743 -0.0111 -2.4913
   58SAPC  H11Y 4402   5.399   6.548   5.276  0.6159  1.2725 -2.4716
   58SAPC  C312 4403   5.303   6.532   5.080 -0.8453 -0.1358 -0.3675
   58SAPC  H12X 4404   5.397   6.505   5.027  0.7683 -0.2136  2.3875
   58SAPC  H12Y 4405   5.315   6.642   5.064 -0.9233  0.1839  1.5345
   58SAPC  C313 4406   5.182   6.474   5.007  0.4122  0.5296  0.3494
   58SAPC  H13X 4407   5.093   6.528   5.046  0.0109  1.9133 -2.2783
   58SAPC  H13Y 4408   5.181   6.366   5.036 -1.2375  1.0403  2.4707
   58SAPC  C314 4409   5.180   6.503   4.855  0.5788  0.6787 -0.5785
   58SAPC  H14X 4410   5.280   6.476   4.813 -0.0911 -1.4274 -0.9125
   58SAPC  H14Y 4411   5.162   6.613   4.850 -3.4910  0.3366  1.8199
   58SAPC  C315 4412   5.077   6.421   4.762 -0.9650  0.2208  0.8091
   58SAPC  H15X 4413   5.092   6.313   4.785 -0.6246  0.1724  0.3762
   58SAPC  H15Y 4414   5.096   6.439   4.654 -1.8071  1.0988  0.7987
   58SAPC  C316 4415   4.936   6.462   4.786 -0.3543  0.0649 -0.3653
   58SAPC  H16X 4416   4.917   6.458   4.895  2.7864 -0.1837  0.2806
   58SAPC  H16Y 4417   4.882   6.378   4.737  1.1513 -0.4928 -1.1491
   58SAPC  C317 4418   4.897   6.599   4.732 -0.1922  0.4020 -0.0722
   58SAPC  H17X 4419   4.952   6.676   4.790 -2.2555  1.1153  1.0310
   58SAPC  H17Y 4420   4.793   6.618   4.765 -0.3852 -0.5855 -0.0675
   58SAPC  C318 4421   4.918   6.625   4.580  0.1311  0.5963 -0.5945
   58SAPC  H18X 4422   4.875   6.542   4.520  1.0371 -0.4501  0.1681
   58SAPC  H18Y 4423   5.027   6.624   4.557  0.1606 -0.0458 -0.4383
   58SAPC  H18Z 4424   4.880   6.725   4.551  0.2742  1.1388  1.0112
   59SAPC     N 4425   4.190   2.734   6.889 -0.6510 -0.4064  0.3011
   59SAPC   C12 4426   4.078   2.651   6.835  0.0727  0.3294 -0.0354
   59SAPC  H12A 4427   4.109   2.548   6.842  1.7224  0.7284 -0.9268
   59SAPC  H12B 4428   4.069   2.683   6.732  1.5192 -0.7766 -0.5420
   59SAPC   C13 4429   4.158   2.879   6.857  0.1203  0.1168 -0.6582
   59SAPC  H13A 4430   4.072   2.914   6.913  1.1395  0.4346  0.7615
   59SAPC  H13B 4431   4.235   2.945   6.892 -0.0862 -0.6410  1.3153
   59SAPC  H13C 4432   4.134   2.891   6.752  0.7430  0.5963 -0.7533
   59SAPC   C14 4433   4.204   2.716   7.036  0.0890  0.1901  0.3574
   59SAPC  H14A 4434   4.226   2.615   7.067  2.3937 -0.1661 -2.1394
   59SAPC  H14B 4435   4.283   2.769   7.086  0.0045  0.3078  0.3687
   59SAPC  H14C 4436   4.121   2.760   7.090  1.4760  1.5878  1.4136
   59SAPC   C15 4437   4.321   2.701   6.828 -0.0783 -0.7965  0.3025
   59SAPC  H15A 4438   4.390   2.781   6.849 -1.7496  1.3580 -1.8343
   59SAPC  H15B 4439   4.357   2.609   6.873  0.8581  0.2612  1.8202
   59SAPC  H15C 4440   4.303   2.711   6.722  0.1311  1.7528  0.4434
   59SAPC   C11 4441   3.945   2.675   6.911 -0.2528 -0.1682  0.3693
   59SAPC  H11A 4442   3.956   2.656   7.020  0.2221  0.0842  0.3657
   59SAPC  H11B 4443   3.883   2.593   6.868 -2.4911  1.7777 -0.3742
   59SAPC     P 4444   3.829   2.822   6.724  0.2826  0.1141  0.3147
   59SAPC   O13 4445   3.693   2.878   6.733  0.0310  0.3536 -0.2121
   59SAPC   O14 4446   3.931   2.886   6.646  0.0387 -0.0491  0.4247
   59SAPC   O12 4447   3.879   2.792   6.877  0.0713 -0.2249  0.1478
   59SAPC   O11 4448   3.822   2.674   6.675  0.3676  0.1963 -0.0919
   59SAPC    C1 4449   3.792   2.663   6.532  0.2139  0.1769  0.1476
   59SAPC    HA 4450   3.685   2.659   6.504  0.9156  1.3342 -3.2005
   59SAPC    HB 4451   3.836   2.733   6.457  1.4797 -1.4356 -0.6818
   59SAPC    C2 4452   3.859   2.526   6.483 -0.5183  0.3285  0.5930
   59SAPC    HS 4453   3.821   2.451   6.556  0.8960 -1.6481 -0.6247
   59SAPC   O21 4454   4.000   2.545   6.486 -0.4544  0.0708  0.3088
   59SAPC   C21 4455   4.072   2.429   6.490 -0.1466 -0.1477  0.9009
   59SAPC   O22 4456   4.020   2.315   6.495 -0.3976 -0.7600  0.4775
   59SAPC   C22 4457   4.216   2.453   6.491 -0.9609 -0.1440  0.2494
   59SAPC   H2R 4458   4.248   2.558   6.471 -0.8752  0.0156  1.1635
   59SAPC   H2S 4459   4.248   2.417   6.592 -0.1943  0.3143  0.1817
   59SAPC    C3 4460   3.821   2.494   6.338 -0.0962  0.1536  0.1705
   59SAPC    HX 4461   3.842   2.387   6.315 -0.3539 -0.0622  0.8940
   59SAPC    HY 4462   3.878   2.556   6.265 -0.5900 -1.4635 -1.6768
   59SAPC   O31 4463   3.681   2.513   6.319  0.0107 -0.3977 -0.1047
   59SAPC   C31 4464   3.650   2.491   6.195  0.0970  1.3318  0.3610
   59SAPC   O32 4465   3.720   2.440   6.109 -0.3349 -0.2739  0.1052
   59SAPC   C32 4466   3.499   2.519   6.161 -0.4002 -0.5458  0.1936
   59SAPC   H2X 4467   3.480   2.625   6.186 -2.4682 -0.7103 -0.4683
   59SAPC   H2Y 4468   3.433   2.461   6.229 -0.1724 -1.7642 -0.5928
   59SAPC   C23 4469   4.278   2.363   6.370 -0.9519  0.1410 -0.2428
   59SAPC   H3R 4470   4.223   2.267   6.362 -0.6611  0.0539 -1.4064
   59SAPC   H3S 4471   4.382   2.350   6.405 -0.8613  2.3377  0.4765
   59SAPC   C24 4472   4.285   2.436   6.234  0.2170 -0.7185  0.1324
   59SAPC   H4R 4473   4.354   2.385   6.164  1.2608  2.0581 -1.0074
   59SAPC   H4S 4474   4.322   2.540   6.246  1.2676 -1.2366  1.6062
   59SAPC   C25 4475   4.160   2.421   6.152 -0.1432  0.3118  0.6064
   59SAPC   H5R 4476   4.121   2.318   6.145  0.0087  0.3563 -1.7208
   59SAPC   C26 4477   4.091   2.528   6.102 -0.2147 -0.6803  0.3779
   59SAPC   H6R 4478   3.996   2.504   6.051 -1.4141 -0.0056  2.2026
   59SAPC   C27 4479   4.123   2.675   6.108  0.4962 -0.3851  0.1900
   59SAPC   H7R 4480   4.203   2.695   6.182 -0.3435 -5.6817  2.9934
   59SAPC   H7S 4481   4.037   2.743   6.126  0.6479  0.1195 -0.8928
   59SAPC   C28 4482   4.172   2.725   5.974  0.4668  0.5610 -0.6476
   59SAPC   H8R 4483   4.281   2.732   5.958  0.1899 -0.5647 -3.6362
   59SAPC   C29 4484   4.092   2.735   5.867  0.0633 -0.0455 -0.1466
   59SAPC   H9R 4485   4.151   2.763   5.778 -2.2954  0.1386 -1.7201
   59SAPC  C210 4486   3.944   2.724   5.864  0.2466 -0.3639 -0.7351
   59SAPC  H10R 4487   3.907   2.725   5.969  0.8105 -0.1628 -0.5354
   59SAPC  H10S 4488   3.898   2.629   5.830  0.5094 -0.4765 -0.7807
   59SAPC  C211 4489   3.896   2.845   5.788  0.2699  0.3159  0.0670
   59SAPC  H11R 4490   3.872   2.932   5.851 -0.6261 -0.9894  1.6351
   59SAPC  C212 4491   3.871   2.851   5.657  0.0044  0.5255  0.3954
   59SAPC  H12R 4492   3.842   2.951   5.623  1.5867  0.6608 -0.6531
   59SAPC  C213 4493   3.883   2.750   5.551  0.4273 -0.2163  0.9079
   59SAPC  H13R 4494   3.957   2.676   5.588 -0.8754 -0.9673  2.1082
   59SAPC  H13S 4495   3.936   2.798   5.466 -0.3331 -0.2018  0.4356
   59SAPC  C214 4496   3.749   2.694   5.508 -0.6812  0.1326 -0.6912
   59SAPC  H14R 4497   3.699   2.630   5.582 -1.1613  0.1154 -1.0261
   59SAPC  C215 4498   3.686   2.717   5.391 -0.2355 -0.2160  0.6237
   59SAPC  H15R 4499   3.585   2.675   5.378  0.1585 -2.0368  2.7668
   59SAPC  C216 4500   3.742   2.798   5.278 -0.5491 -0.1135  0.9410
   59SAPC  H16R 4501   3.828   2.860   5.311 -1.2706  0.3059  2.0829
   59SAPC  H16S 4502   3.674   2.876   5.238  1.5953  2.6357  2.2572
   59SAPC  C217 4503   3.794   2.713   5.158  0.7095 -0.0799 -1.2578
   59SAPC  H17R 4504   3.704   2.669   5.111 -0.4584 -2.5761  2.7851
   59SAPC  H17S 4505   3.852   2.632   5.208 -1.1761  0.4829  2.1842
   59SAPC  C218 4506   3.875   2.803   5.063 -0.4129 -0.5240  0.4713
   59SAPC  H18R 4507   3.980   2.799   5.098 -0.6050 -1.4826  0.9890
   59SAPC  H18S 4508   3.844   2.910   5.069 -1.4497 -0.8702  1.9780
   59SAPC  C219 4509   3.866   2.745   4.922 -0.1122 -0.3801  0.4281
   59SAPC  H19R 4510   3.765   2.717   4.884  0.1681 -2.4469  1.1136
   59SAPC  H19S 4511   3.921   2.649   4.919 -2.4868 -1.8235 -0.1853
   59SAPC  C220 4512   3.939   2.840   4.819  0.3985 -0.4065  0.1355
   59SAPC  H20R 4513   3.951   2.794   4.718 -0.5570 -0.7919  0.1869
   59SAPC  H20S 4514   4.041   2.869   4.852 -0.1138  1.7776 -0.0789
   59SAPC  H20T 4515   3.879   2.932   4.802  1.6453  0.3584 -0.2085
   59SAPC   C33 4516   3.448   2.502   6.014 -0.1364 -0.3995 -0.1428
   59SAPC   H3X 4517   3.337   2.504   6.020 -0.1695 -3.0180  2.5039
   59SAPC   H3Y 4518   3.490   2.406   5.976 -0.8477 -0.5248 -0.6208
   59SAPC   C34 4519   3.500   2.604   5.915 -0.3584  0.0854 -0.1057
   59SAPC   H4X 4520   3.610   2.587   5.909 -0.3668  0.4455 -1.5077
   59SAPC   H4Y 4521   3.491   2.709   5.952  1.6960  0.1287  0.4353
   59SAPC   C35 4522   3.428   2.611   5.777  0.0591 -0.8381  0.1741
   59SAPC   H5X 4523   3.466   2.700   5.722  1.5985 -0.8118  1.2212
   59SAPC   H5Y 4524   3.319   2.613   5.798 -0.4270  1.9174 -2.0249
   59SAPC   C36 4525   3.457   2.492   5.683  0.1290 -0.4295 -0.4830
   59SAPC   H6X 4526   3.422   2.404   5.740  0.2500 -0.4738 -0.4768
   59SAPC   H6Y 4527   3.565   2.469   5.670 -0.0272 -0.7926 -1.2102
   59SAPC   C37 4528   3.383   2.503   5.550 -0.1943  0.4165 -0.5095
   59SAPC   H7X 4529   3.421   2.586   5.487 -2.3028  0.9582 -1.1504
   59SAPC   H7Y 4530   3.278   2.541   5.556 -0.4180  0.3619 -3.1416
   59SAPC   C38 4531   3.394   2.375   5.469 -0.1825  0.1450 -0.2947
   59SAPC   H8X 4532   3.353   2.295   5.534 -0.9082 -0.1507 -1.1006
   59SAPC   H8Y 4533   3.498   2.337   5.459  0.1384  0.5142  1.2682
   59SAPC   C39 4534   3.322   2.382   5.331  0.3690 -0.4706  0.3169
   59SAPC   H9X 4535   3.351   2.291   5.274  0.1786 -0.6830  0.5591
   59SAPC   H9Y 4536   3.367   2.473   5.286 -1.8534 -0.2124 -1.5347
   59SAPC  C310 4537   3.168   2.403   5.328 -0.4757 -0.6108  0.2178
   59SAPC  H10X 4538   3.139   2.506   5.360 -0.6551 -0.3477 -0.7652
   59SAPC  H10Y 4539   3.129   2.319   5.389  0.5479 -1.1506  0.1578
   59SAPC  C311 4540   3.110   2.401   5.185  0.3939 -0.4010 -0.6709
   59SAPC  H11X 4541   3.006   2.361   5.186  0.2522 -0.0355 -0.8627
   59SAPC  H11Y 4542   3.164   2.323   5.127  1.6028 -2.1303  2.4846
   59SAPC  C312 4543   3.108   2.535   5.108 -0.1914 -0.0654 -0.5097
   59SAPC  H12X 4544   3.128   2.507   5.002 -1.9048  0.0915 -0.9157
   59SAPC  H12Y 4545   3.190   2.594   5.154  0.8315 -1.9694  0.2319
   59SAPC  C313 4546   2.975   2.604   5.121 -0.2566  0.3675 -0.3801
   59SAPC  H13X 4547   2.988   2.703   5.071  0.9072 -0.1197 -1.1014
   59SAPC  H13Y 4548   2.945   2.620   5.227 -0.1115  3.8020 -0.7145
   59SAPC  C314 4549   2.863   2.534   5.046  0.2032  0.7826  0.3285
   59SAPC  H14X 4550   2.843   2.436   5.096  1.0466 -0.5731 -1.8288
   59SAPC  H14Y 4551   2.905   2.512   4.946 -1.2041 -0.7385  0.0211
   59SAPC  C315 4552   2.737   2.615   5.051 -0.3410  0.1152 -0.5165
   59SAPC  H15X 4553   2.758   2.715   5.006  0.8880  1.1424  2.1729
   59SAPC  H15Y 4554   2.711   2.629   5.158  1.0860 -0.1084 -0.1190
   59SAPC  C316 4555   2.625   2.541   4.971  0.1157  0.4425  0.4522
   59SAPC  H16X 4556   2.586   2.460   5.036  1.4141  1.2363  2.2995
   59SAPC  H16Y 4557   2.679   2.481   4.895 -1.5799 -2.0137  1.0441
   59SAPC  C317 4558   2.524   2.633   4.908  0.1780  0.0777  0.2492
   59SAPC  H17X 4559   2.573   2.695   4.830 -0.6953 -1.4911 -1.6453
   59SAPC  H17Y 4560   2.483   2.710   4.977  1.0786 -0.0417  0.9198
   59SAPC  C318 4561   2.409   2.557   4.835 -0.2007  0.4798  0.3790
   59SAPC  H18X 4562   2.370   2.477   4.901 -2.2566  0.1853 -1.0939
   59SAPC  H18Y 4563   2.451   2.516   4.740  1.1548 -1.6573  1.8050
   59SAPC  H18Z 4564   2.333   2.636   4.815  0.1597  0.5549 -0.7706
   60SAPC     N 4565   3.318   3.576   6.688  0.2837 -0.0215 -0.1771
   60SAPC   C12 4566   3.357   3.464   6.782  0.2377 -0.3236 -0.3680
   60SAPC  H12A 4567   3.272   3.433   6.841  1.2245 -1.7114  0.3878
   60SAPC  H12B 4568   3.425   3.511   6.852  0.0943 -1.1007  0.3150
   60SAPC   C13 4569   3.288   3.706   6.764  0.1244  0.5130 -0.1222
   60SAPC  H13A 4570   3.228   3.770   6.702 -2.6624 -0.6422  1.2251
   60SAPC  H13B 4571   3.220   3.691   6.847  0.3221  0.6719  0.0708
   60SAPC  H13C 4572   3.381   3.757   6.787 -0.1310  0.9272 -0.0015
   60SAPC   C14 4573   3.438   3.601   6.601  0.6497 -0.0895 -0.5401
   60SAPC  H14A 4574   3.411   3.653   6.511 -1.5890  0.5057  0.3975
   60SAPC  H14B 4575   3.515   3.652   6.657  0.7832 -1.8612  0.9839
   60SAPC  H14C 4576   3.484   3.507   6.575 -1.2050 -1.2154  0.0759
   60SAPC   C15 4577   3.202   3.548   6.604 -0.0980 -0.2629 -0.5400
   60SAPC  H15A 4578   3.184   3.625   6.530  0.7241  0.5372  0.0861
   60SAPC  H15B 4579   3.224   3.456   6.552 -0.8006  0.0441 -1.4132
   60SAPC  H15C 4580   3.106   3.537   6.652  1.2061 -3.3707  1.6630
   60SAPC   C11 4581   3.417   3.336   6.720  0.0823 -0.7769 -0.7769
   60SAPC  H11A 4582   3.355   3.303   6.635  1.1108 -1.2822 -1.3566
   60SAPC  H11B 4583   3.417   3.252   6.793 -0.5465 -0.6213 -0.5996
   60SAPC     P 4584   3.679   3.347   6.760  0.1439  0.3547 -0.0248
   60SAPC   O13 4585   3.709   3.484   6.806 -0.2760  0.5042 -0.0237
   60SAPC   O14 4586   3.668   3.241   6.860 -0.4117  0.0880  0.0542
   60SAPC   O12 4587   3.547   3.361   6.675 -0.4071 -0.4024 -0.1352
   60SAPC   O11 4588   3.796   3.314   6.655 -0.5716  0.2320 -0.6358
   60SAPC    C1 4589   3.810   3.388   6.531  0.2205  0.4458  0.1317
   60SAPC    HA 4590   3.773   3.492   6.544 -1.4608  0.1218 -1.5859
   60SAPC    HB 4591   3.915   3.385   6.496 -0.3739 -2.8619 -1.9052
   60SAPC    C2 4592   3.722   3.331   6.420  1.1818 -0.0212 -0.1841
   60SAPC    HS 4593   3.614   3.359   6.425  1.5585  1.6020 -0.8575
   60SAPC   O21 4594   3.729   3.188   6.426 -0.1475  0.4802  0.1468
   60SAPC   C21 4595   3.633   3.117   6.368 -0.3872 -0.1203 -0.2296
   60SAPC   O22 4596   3.537   3.156   6.308 -0.3325  0.3098 -0.0742
   60SAPC   C22 4597   3.673   2.967   6.388  0.2848 -0.4783  0.3058
   60SAPC   H2R 4598   3.784   2.954   6.389  0.5510  1.1375 -1.5211
   60SAPC   H2S 4599   3.626   2.948   6.486 -0.5636 -3.4989 -0.5731
   60SAPC    C3 4600   3.770   3.386   6.282  0.4514 -1.1638 -0.1400
   60SAPC    HX 4601   3.715   3.349   6.193  3.0732 -3.5747 -0.9177
   60SAPC    HY 4602   3.874   3.352   6.262  1.2576  1.1601 -0.1431
   60SAPC   O31 4603   3.776   3.528   6.280  0.4284 -0.0529 -0.6978
   60SAPC   C31 4604   3.658   3.594   6.288  0.9493  0.8177 -0.4407
   60SAPC   O32 4605   3.545   3.542   6.277  0.0835  0.4174 -0.6784
   60SAPC   C32 4606   3.681   3.736   6.319  0.2518  0.1400 -0.3017
   60SAPC   H2X 4607   3.786   3.763   6.341  1.0079 -1.6657 -1.4897
   60SAPC   H2Y 4608   3.610   3.773   6.396 -0.0769  0.3852 -0.7158
   60SAPC   C23 4609   3.618   2.865   6.283 -0.2462 -0.0245 -0.2800
   60SAPC   H3R 4610   3.510   2.888   6.274 -0.5970 -0.9669  1.2141
   60SAPC   H3S 4611   3.626   2.762   6.325 -1.6177  0.1446  0.4577
   60SAPC   C24 4612   3.687   2.866   6.138  0.0862 -0.9820  0.2984
   60SAPC   H4R 4613   3.620   2.810   6.069 -0.7229 -0.0381  0.2944
   60SAPC   H4S 4614   3.782   2.808   6.147  1.6950  1.3991 -0.3193
   60SAPC   C25 4615   3.716   2.999   6.079  0.1776 -0.3580  0.5645
   60SAPC   H5R 4616   3.627   3.049   6.039  0.4186  0.5579  1.1405
   60SAPC   C26 4617   3.832   3.069   6.085  0.7658 -0.0856  0.0660
   60SAPC   H6R 4618   3.836   3.152   6.013 -1.1867 -0.3573 -0.4000
   60SAPC   C27 4619   3.957   3.022   6.147 -0.3205  0.2279 -0.0233
   60SAPC   H7R 4620   4.024   2.971   6.074  0.0428 -0.2806  0.6508
   60SAPC   H7S 4621   3.940   2.941   6.221  0.7727  1.9617  2.2564
   60SAPC   C28 4622   4.029   3.125   6.225 -0.7569 -0.1396  0.3392
   60SAPC   H8R 4623   3.966   3.162   6.306 -0.6549 -0.2392  0.4652
   60SAPC   C29 4624   4.153   3.184   6.211  0.1322  0.7290 -0.6927
   60SAPC   H9R 4625   4.186   3.241   6.299  0.3676 -0.8016  0.2309
   60SAPC  C210 4626   4.258   3.142   6.114  0.1662  0.0253 -0.3698
   60SAPC  H10R 4627   4.227   3.044   6.071 -1.3761 -0.1182  0.9605
   60SAPC  H10S 4628   4.353   3.125   6.168  0.1065 -1.4656 -0.6816
   60SAPC  C211 4629   4.291   3.240   6.003 -0.6896  0.2819  0.0298
   60SAPC  H11R 4630   4.317   3.344   6.031 -0.9383  1.4505 -3.6052
   60SAPC  C212 4631   4.303   3.207   5.870  0.1893 -0.0278  0.3264
   60SAPC  H12R 4632   4.330   3.293   5.806  0.3801 -1.3536 -1.4326
   60SAPC  C213 4633   4.259   3.090   5.786  0.5795 -0.1216 -0.8570
   60SAPC  H13R 4634   4.242   2.999   5.847  0.9834 -1.1214 -2.1832
   60SAPC  H13S 4635   4.340   3.056   5.718  2.0096  1.5103 -0.0229
   60SAPC  C214 4636   4.135   3.111   5.698  0.1890 -0.8310  0.1550
   60SAPC  H14R 4637   4.042   3.140   5.748 -1.0543 -2.8612 -0.8407
   60SAPC  C215 4638   4.128   3.081   5.566 -0.3583 -0.0187  0.7208
   60SAPC  H15R 4639   4.030   3.082   5.515  0.3985  3.7592 -0.9903
   60SAPC  C216 4640   4.247   3.044   5.482 -0.2861 -0.2351  0.0911
   60SAPC  H16R 4641   4.259   2.934   5.476 -1.0796 -0.2623 -1.9027
   60SAPC  H16S 4642   4.339   3.088   5.525 -0.3030  1.0822 -1.1221
   60SAPC  C217 4643   4.240   3.109   5.337  0.6160  0.4617  1.0134
   60SAPC  H17R 4644   4.337   3.089   5.289 -0.4732 -0.4773 -0.9101
   60SAPC  H17S 4645   4.222   3.218   5.348 -1.4603  0.3912 -0.8301
   60SAPC  C218 4646   4.124   3.061   5.254  0.2056  0.0039  0.3397
   60SAPC  H18R 4647   4.026   3.065   5.305  0.5912  1.7999  1.0296
   60SAPC  H18S 4648   4.136   2.952   5.233 -0.7183 -0.2188  0.9132
   60SAPC  C219 4649   4.104   3.154   5.132 -0.6098 -0.1022  0.0692
   60SAPC  H19R 4650   4.079   3.260   5.154  1.4420  0.2228  1.0776
   60SAPC  H19S 4651   4.022   3.104   5.076  1.5149 -1.3435 -2.1680
   60SAPC  C220 4652   4.220   3.156   5.035 -0.0564 -0.7629 -0.2572
   60SAPC  H20R 4653   4.196   3.213   4.943 -2.5091 -0.6626  0.3598
   60SAPC  H20S 4654   4.239   3.048   5.019 -0.4433 -1.0991  1.3228
   60SAPC  H20T 4655   4.309   3.200   5.085 -0.2574  1.9687 -2.0965
   60SAPC   C33 4656   3.627   3.816   6.189  0.2102  0.1477  0.2600
   60SAPC   H3X 4657   3.605   3.924   6.202 -0.6711  0.0864 -0.6078
   60SAPC   H3Y 4658   3.530   3.776   6.153 -0.8761  2.5512  0.2934
   60SAPC   C34 4659   3.740   3.799   6.081  0.2445 -0.7256 -0.1750
   60SAPC   H4X 4660   3.782   3.696   6.079  0.6060 -0.6585  1.7127
   60SAPC   H4Y 4661   3.824   3.864   6.112  0.5547  0.1338 -2.6411
   60SAPC   C35 4662   3.682   3.844   5.950  0.6784  0.4793  0.2511
   60SAPC   H5X 4663   3.633   3.942   5.967  1.5741  0.4786  3.6628
   60SAPC   H5Y 4664   3.610   3.772   5.907  4.6603 -2.2230 -2.6017
   60SAPC   C36 4665   3.794   3.859   5.841 -0.7337 -0.0588 -0.6370
   60SAPC   H6X 4666   3.846   3.761   5.830  1.7277  1.1456 -0.3357
   60SAPC   H6Y 4667   3.877   3.922   5.880  0.6081 -2.1952  0.1477
   60SAPC   C37 4668   3.741   3.903   5.709  0.4947 -0.1158 -0.3683
   60SAPC   H7X 4669   3.687   3.999   5.723 -0.3835 -0.6800  0.2662
   60SAPC   H7Y 4670   3.673   3.828   5.662  1.9447 -0.1208 -2.6038
   60SAPC   C38 4671   3.848   3.915   5.596  0.0228 -0.2009  0.1096
   60SAPC   H8X 4672   3.901   3.818   5.581  1.3455  0.7188 -1.4093
   60SAPC   H8Y 4673   3.926   3.987   5.630  0.3059 -1.3574  2.0673
   60SAPC   C39 4674   3.791   3.950   5.459 -0.0686  0.1143 -0.3986
   60SAPC   H9X 4675   3.756   4.056   5.458 -0.6848 -0.0713  0.5314
   60SAPC   H9Y 4676   3.714   3.873   5.439  0.5995 -0.6451 -0.0978
   60SAPC  C310 4677   3.886   3.941   5.339 -0.3140 -0.1024  0.0214
   60SAPC  H10X 4678   3.901   3.834   5.313 -1.0929  0.3126 -2.2874
   60SAPC  H10Y 4679   3.986   3.982   5.367  0.0231 -1.7573  1.4287
   60SAPC  C311 4680   3.846   4.022   5.215  0.2429  0.1890  0.4850
   60SAPC  H11X 4681   3.869   4.131   5.223 -0.7835  0.3860  0.8762
   60SAPC  H11Y 4682   3.736   4.011   5.212  0.0634  0.6223  3.1308
   60SAPC  C312 4683   3.891   3.951   5.088 -0.0638  0.1439 -0.1792
   60SAPC  H12X 4684   3.862   3.844   5.103  2.2981 -0.3212  1.5854
   60SAPC  H12Y 4685   4.001   3.967   5.086  0.3040 -2.0320  0.1165
   60SAPC  C313 4686   3.850   4.027   4.962 -0.3403  0.1732 -0.8332
   60SAPC  H13X 4687   3.740   4.019   4.973 -0.0875 -1.1500  1.5403
   60SAPC  H13Y 4688   3.880   3.973   4.870 -1.0770 -0.3323 -0.7863
   60SAPC  C314 4689   3.902   4.172   4.947  0.3355  0.7355 -0.1371
   60SAPC  H14X 4690   4.012   4.170   4.961  0.1535  1.9181  1.9916
   60SAPC  H14Y 4691   3.855   4.235   5.026 -0.7079  2.2106 -1.8516
   60SAPC  C315 4692   3.869   4.230   4.816  0.1456 -0.0384  0.4952
   60SAPC  H15X 4693   3.759   4.242   4.801  0.1817 -0.6420 -0.3176
   60SAPC  H15Y 4694   3.895   4.151   4.742 -0.2795  0.2580  0.0184
   60SAPC  C316 4695   3.946   4.361   4.788 -0.0169 -0.1741 -1.2041
   60SAPC  H16X 4696   4.055   4.344   4.781 -0.0428 -1.5191  0.8215
   60SAPC  H16Y 4697   3.933   4.429   4.875  2.1227  0.7261 -1.5357
   60SAPC  C317 4698   3.897   4.445   4.673 -0.1289  0.6105 -0.5171
   60SAPC  H17X 4699   3.787   4.458   4.684 -0.4747 -2.0670 -0.0477
   60SAPC  H17Y 4700   3.916   4.391   4.578  1.4053  0.7014 -0.2788
   60SAPC  C318 4701   3.980   4.569   4.664  0.4566  0.7716 -0.0534
   60SAPC  H18X 4702   3.974   4.614   4.765  3.1193 -0.3845  0.6933
   60SAPC  H18Y 4703   3.930   4.640   4.594  2.0011 -0.5059 -2.6206
   60SAPC  H18Z 4704   4.082   4.539   4.631 -0.4145 -1.5835 -0.8108
   61SAPC     N 4705   3.492   2.522   6.791 -0.0755  0.2695  0.1331
   61SAPC   C12 4706   3.460   2.473   6.655  0.3943  0.1258 -0.0731
   61SAPC  H12A 4707   3.450   2.366   6.666 -0.0256  0.1080 -0.5891
   61SAPC  H12B 4708   3.542   2.494   6.588  2.0134  0.2612  1.8557
   61SAPC   C13 4709   3.470   2.670   6.800 -0.3071  0.7512  0.3200
   61SAPC  H13A 4710   3.372   2.704   6.770 -0.0502 -0.0587 -1.5361
   61SAPC  H13B 4711   3.500   2.701   6.899  1.8081  0.3269 -0.1354
   61SAPC  H13C 4712   3.546   2.718   6.740  0.5118 -0.5953  0.2428
   61SAPC   C14 4713   3.402   2.453   6.889 -0.7918 -0.3440  0.1325
   61SAPC  H14A 4714   3.462   2.450   6.978  0.2770 -0.4885 -0.5702
   61SAPC  H14B 4715   3.306   2.500   6.900 -0.2464  0.3852  2.2587
   61SAPC  H14C 4716   3.393   2.348   6.864 -0.6789 -0.6748  1.4129
   61SAPC   C15 4717   3.631   2.489   6.825  0.9143 -0.2082 -0.3758
   61SAPC  H15A 4718   3.667   2.532   6.917  2.5043 -1.3276 -0.4351
   61SAPC  H15B 4719   3.659   2.385   6.830  1.4059 -0.0384  0.7902
   61SAPC  H15C 4720   3.709   2.538   6.766  2.0334 -0.1257  1.1160
   61SAPC   C11 4721   3.328   2.530   6.585 -0.3669 -0.1802  0.3706
   61SAPC  H11A 4722   3.328   2.472   6.491  0.0858 -0.3405  0.4654
   61SAPC  H11B 4723   3.341   2.638   6.563  2.8610 -0.4170  0.5907
   61SAPC     P 4724   3.154   2.357   6.645  0.1065 -0.1418  0.5790
   61SAPC   O13 4725   3.263   2.267   6.598 -0.0331  0.1416 -0.3840
   61SAPC   O14 4726   3.091   2.337   6.776 -0.4923  0.4765 -0.2582
   61SAPC   O12 4727   3.202   2.503   6.653 -0.1642  0.0363  0.1141
   61SAPC   O11 4728   3.036   2.369   6.541  0.1037  0.6716  0.3851
   61SAPC    C1 4729   2.934   2.464   6.563 -0.0649 -0.0719  0.8755
   61SAPC    HA 4730   2.853   2.407   6.614  0.0329 -1.6739 -0.6372
   61SAPC    HB 4731   2.965   2.548   6.628 -1.5890  1.7888 -0.6465
   61SAPC    C2 4732   2.877   2.531   6.436  0.3676 -0.7377 -0.0532
   61SAPC    HS 4733   2.769   2.539   6.460 -0.0878 -0.2181 -2.1532
   61SAPC   O21 4734   2.895   2.456   6.319  0.3602 -0.7435  1.2812
   61SAPC   C21 4735   2.832   2.344   6.308  0.6879  0.9459 -0.8842
   61SAPC   O22 4736   2.746   2.303   6.387 -0.4922 -0.6767  0.0443
   61SAPC   C22 4737   2.870   2.274   6.179  0.5969 -0.2454 -0.2462
   61SAPC   H2R 4738   2.896   2.354   6.107 -2.1117 -1.0072 -2.2652
   61SAPC   H2S 4739   2.972   2.233   6.196  1.2138  1.8224  1.4734
   61SAPC    C3 4740   2.938   2.671   6.407  0.2773  0.3919 -0.1444
   61SAPC    HX 4741   3.048   2.655   6.404  0.0850 -2.3240  2.3534
   61SAPC    HY 4742   2.911   2.739   6.491  0.4849  1.6517 -1.0775
   61SAPC   O31 4743   2.898   2.721   6.275  0.1339 -0.4609 -0.3890
   61SAPC   C31 4744   2.778   2.787   6.259  0.4978  0.6424 -0.5759
   61SAPC   O32 4745   2.699   2.810   6.352 -0.2119  0.5706 -0.1308
   61SAPC   C32 4746   2.755   2.809   6.115  0.2430  0.2127 -0.0145
   61SAPC   H2X 4747   2.801   2.731   6.050  0.3799 -0.7522  1.2168
   61SAPC   H2Y 4748   2.817   2.898   6.092  1.4572 -0.4320  0.6694
   61SAPC   C23 4749   2.764   2.167   6.141  0.2214 -1.2655 -0.2172
   61SAPC   H3R 4750   2.743   2.100   6.227 -2.1480 -1.0242 -0.5296
   61SAPC   H3S 4751   2.814   2.096   6.072  2.8276  1.5552 -1.4357
   61SAPC   C24 4752   2.645   2.237   6.075  0.8293  0.0199  0.1415
   61SAPC   H4R 4753   2.679   2.313   6.002  3.6766 -0.2778  1.0100
   61SAPC   H4S 4754   2.594   2.300   6.151  1.0920  1.0937 -0.5532
   61SAPC   C25 4755   2.540   2.147   6.009 -0.0249 -0.7661  0.2037
   61SAPC   H5R 4756   2.515   2.051   6.057 -1.0400 -0.8914 -0.5279
   61SAPC   C26 4757   2.484   2.168   5.888 -0.9861  0.4314 -0.2596
   61SAPC   H6R 4758   2.415   2.086   5.865 -0.5968 -1.1926  3.5545
   61SAPC   C27 4759   2.505   2.278   5.793  0.0134 -0.1167  0.0939
   61SAPC   H7R 4760   2.488   2.234   5.692  1.9960 -1.0509  0.1323
   61SAPC   H7S 4761   2.604   2.328   5.791 -0.2006  0.3196 -1.7061
   61SAPC   C28 4762   2.412   2.399   5.821 -0.4694 -0.0853 -0.4280
   61SAPC   H8R 4763   2.409   2.442   5.922  2.3206  0.8721 -0.6800
   61SAPC   C29 4764   2.331   2.448   5.727  0.0663 -0.6130 -0.0730
   61SAPC   H9R 4765   2.267   2.529   5.767 -1.8241 -2.2091  0.3246
   61SAPC  C210 4766   2.311   2.405   5.582  0.3359 -0.0309  0.3212
   61SAPC  H10R 4767   2.251   2.311   5.580  1.0889 -0.5379  0.9592
   61SAPC  H10S 4768   2.414   2.384   5.547  1.1123  1.4564  1.6180
   61SAPC  C211 4769   2.251   2.514   5.497  0.3717 -0.3299 -0.2795
   61SAPC  H11R 4770   2.151   2.547   5.528 -0.0867 -1.6872 -0.2720
   61SAPC  C212 4771   2.298   2.564   5.382  0.0134 -0.0367  0.0836
   61SAPC  H12R 4772   2.244   2.653   5.345  0.1091 -0.1430 -0.3188
   61SAPC  C213 4773   2.438   2.550   5.327  0.0056 -0.0353  0.0772
   61SAPC  H13R 4774   2.433   2.541   5.216  0.6304 -0.5496  0.0875
   61SAPC  H13S 4775   2.492   2.457   5.353  1.1989  0.4168 -0.7283
   61SAPC  C214 4776   2.531   2.663   5.366  0.7677 -0.3740  0.3654
   61SAPC  H14R 4777   2.506   2.765   5.332  1.3104 -1.1020 -2.5146
   61SAPC  C215 4778   2.655   2.651   5.420 -0.6130 -0.1294 -0.2169
   61SAPC  H15R 4779   2.717   2.741   5.435  0.6601 -1.3747  2.6061
   61SAPC  C216 4780   2.726   2.530   5.475  0.1505 -0.2249  0.3935
   61SAPC  H16R 4781   2.778   2.485   5.387  2.5421  1.8288  0.6539
   61SAPC  H16S 4782   2.645   2.471   5.524 -0.2914 -0.6933 -0.8513
   61SAPC  C217 4783   2.838   2.565   5.576 -0.4103  0.1583 -0.2652
   61SAPC  H17R 4784   2.802   2.645   5.644 -0.9968  1.4116 -1.9759
   61SAPC  H17S 4785   2.926   2.609   5.523  2.3867 -3.1400  1.2552
   61SAPC  C218 4786   2.887   2.448   5.653  0.0560  0.2157  0.2376
   61SAPC  H18R 4787   2.910   2.377   5.570 -2.1159  1.3810 -1.4702
   61SAPC  H18S 4788   2.797   2.404   5.700  0.2948 -0.2139  0.2901
   61SAPC  C219 4789   3.002   2.491   5.740 -0.4981  0.0552  0.3714
   61SAPC  H19R 4790   2.977   2.577   5.807  0.5978  1.0811 -0.4824
   61SAPC  H19S 4791   3.078   2.526   5.667 -1.6159 -0.0384 -0.8768
   61SAPC  C220 4792   3.076   2.377   5.810 -0.0124 -0.3003 -0.5464
   61SAPC  H20R 4793   3.168   2.404   5.867 -0.9638  0.2592  0.7797
   61SAPC  H20S 4794   3.106   2.299   5.737 -0.5356  0.9496 -2.1576
   61SAPC  H20T 4795   3.007   2.325   5.880  1.7528 -2.0178  0.0451
   61SAPC   C33 4796   2.605   2.845   6.078 -0.6981 -0.1366 -0.3606
   61SAPC   H3X 4797   2.574   2.933   6.139  1.5530 -0.3522  1.1971
   61SAPC   H3Y 4798   2.529   2.768   6.104 -0.1093 -1.4902 -2.3583
   61SAPC   C34 4799   2.595   2.869   5.927 -0.1877 -0.1502 -0.0510
   61SAPC   H4X 4800   2.488   2.874   5.897  0.0691 -3.1090 -1.9861
   61SAPC   H4Y 4801   2.634   2.778   5.875  0.1657 -1.4565  2.3525
   61SAPC   C35 4802   2.654   2.995   5.865  0.2592 -0.7801 -0.1114
   61SAPC   H5X 4803   2.747   3.029   5.914 -0.5417  0.2624  0.7376
   61SAPC   H5Y 4804   2.577   3.074   5.879 -1.3226 -2.4451  0.9976
   61SAPC   C36 4805   2.692   2.980   5.711 -0.2515  0.5963 -0.4625
   61SAPC   H6X 4806   2.602   2.942   5.658 -0.4308  0.9792 -0.4376
   61SAPC   H6Y 4807   2.771   2.903   5.697 -2.0659 -1.0543 -2.3446
   61SAPC   C37 4808   2.726   3.117   5.645 -0.1664  0.8281  0.3981
   61SAPC   H7X 4809   2.833   3.142   5.664  0.1926 -0.6824  0.4797
   61SAPC   H7Y 4810   2.659   3.201   5.673 -0.9140  0.8062 -1.2204
   61SAPC   C38 4811   2.718   3.111   5.488  0.4143  0.3378  0.2205
   61SAPC   H8X 4812   2.718   3.214   5.446  1.2295 -0.2283 -1.2537
   61SAPC   H8Y 4813   2.622   3.063   5.462  0.1393  1.1593 -0.3296
   61SAPC   C39 4814   2.830   3.036   5.429 -0.7801  0.0331 -0.2706
   61SAPC   H9X 4815   2.817   2.929   5.457  1.1185 -0.0496  0.4466
   61SAPC   H9Y 4816   2.919   3.060   5.491 -0.5786 -1.9547  0.2753
   61SAPC  C310 4817   2.849   3.051   5.278  0.3133 -0.3306 -0.0661
   61SAPC  H10X 4818   2.930   2.984   5.242  1.7579  1.1234  0.3804
   61SAPC  H10Y 4819   2.873   3.156   5.250  0.1568 -0.6872 -1.6434
   61SAPC  C311 4820   2.726   3.020   5.193  0.0186  0.3980 -0.4720
   61SAPC  H11X 4821   2.649   3.099   5.190 -1.3244 -0.6569  2.4643
   61SAPC  H11Y 4822   2.694   2.917   5.220  2.3611  0.0648  1.3859
   61SAPC  C312 4823   2.767   2.998   5.044  0.4520 -0.7003 -1.1161
   61SAPC  H12X 4824   2.679   2.949   4.996  0.9788 -0.2410 -2.6194
   61SAPC  H12Y 4825   2.843   2.917   5.052 -0.1569 -1.2618 -0.9277
   61SAPC  C313 4826   2.819   3.109   4.960  0.1131 -0.1293  0.3241
   61SAPC  H13X 4827   2.867   3.187   5.023  1.9841 -0.7460 -0.2855
   61SAPC  H13Y 4828   2.739   3.169   4.912  1.1492 -0.0707 -1.4161
   61SAPC  C314 4829   2.920   3.048   4.860  0.1729 -0.2974 -0.7560
   61SAPC  H14X 4830   2.968   2.958   4.903  0.7022  0.9523  1.4473
   61SAPC  H14Y 4831   2.997   3.128   4.860  0.2825 -0.3055  2.1945
   61SAPC  C315 4832   2.865   3.012   4.726  0.3845 -0.1770 -0.7229
   61SAPC  H15X 4833   2.956   2.986   4.669 -0.0190  1.2275 -2.1038
   61SAPC  H15Y 4834   2.815   3.099   4.678 -0.2557  0.9884  1.8694
   61SAPC  C316 4835   2.769   2.893   4.714 -0.3198 -0.0051 -0.0466
   61SAPC  H16X 4836   2.678   2.904   4.777 -0.3999  0.8430 -0.2949
   61SAPC  H16Y 4837   2.817   2.797   4.743  0.6035  0.3684 -0.3090
   61SAPC  C317 4838   2.723   2.873   4.564 -0.2189 -0.1426 -0.5068
   61SAPC  H17X 4839   2.817   2.869   4.505  0.5440  0.0243  0.6681
   61SAPC  H17Y 4840   2.671   2.966   4.536 -1.7980 -0.6929  0.4742
   61SAPC  C318 4841   2.633   2.749   4.548  0.1144 -0.5420  0.2421
   61SAPC  H18X 4842   2.684   2.654   4.574  2.2303  1.0036  2.1765
   61SAPC  H18Y 4843   2.595   2.743   4.444  2.0020  1.0651 -0.6054
   61SAPC  H18Z 4844   2.546   2.753   4.618 -1.8969 -3.3880 -1.8643
   62SAPC     N 4845   3.765   1.427   6.616 -0.0498  0.2427  0.8124
   62SAPC   C12 4846   3.687   1.341   6.514  0.4265  0.6569 -0.3724
   62SAPC  H12A 4847   3.722   1.361   6.413  1.6546  0.8591  0.0719
   62SAPC  H12B 4848   3.583   1.371   6.516 -0.6746 -2.8162  1.2337
   62SAPC   C13 4849   3.788   1.568   6.577  0.6202 -0.3705  0.3489
   62SAPC  H13A 4850   3.852   1.614   6.651  1.1054  1.0146 -0.8948
   62SAPC  H13B 4851   3.837   1.581   6.482 -3.3896  1.5930 -1.7033
   62SAPC  H13C 4852   3.700   1.629   6.565 -0.0381 -1.6198 -1.6325
   62SAPC   C14 4853   3.702   1.419   6.748 -0.4917 -0.1455 -0.1267
   62SAPC  H14A 4854   3.708   1.321   6.793 -0.1688 -0.4879 -0.8973
   62SAPC  H14B 4855   3.764   1.481   6.812  0.2444 -1.7949  0.8216
   62SAPC  H14C 4856   3.600   1.453   6.741  0.1318  1.8501 -0.1428
   62SAPC   C15 4857   3.899   1.358   6.644  0.4296 -0.2892 -0.5636
   62SAPC  H15A 4858   3.873   1.253   6.638 -2.1930  0.1572  1.0742
   62SAPC  H15B 4859   3.965   1.383   6.562 -1.7346  0.4523 -2.1613
   62SAPC  H15C 4860   3.932   1.360   6.747  1.1842 -3.0910 -0.6753
   62SAPC   C11 4861   3.674   1.188   6.540 -0.0020  0.0605  0.3246
   62SAPC  H11A 4862   3.590   1.152   6.476  0.5834 -2.2850  0.7873
   62SAPC  H11B 4863   3.637   1.174   6.644 -1.2824  1.6995  0.1282
   62SAPC     P 4864   3.840   1.075   6.382  0.5536  0.3568  0.0815
   62SAPC   O13 4865   3.989   1.090   6.378  0.1014 -0.0207 -0.3372
   62SAPC   O14 4866   3.787   0.933   6.361 -0.2427 -0.1535 -0.0699
   62SAPC   O12 4867   3.788   1.106   6.522 -0.3795  0.5524 -0.5193
   62SAPC   O11 4868   3.765   1.176   6.289  0.0117 -0.5677 -0.1571
   62SAPC    C1 4869   3.700   1.132   6.165 -1.0300  0.1753 -0.6444
   62SAPC    HA 4870   3.771   1.083   6.095 -0.2067  0.4225 -0.0044
   62SAPC    HB 4871   3.626   1.053   6.190 -1.3983  0.4130 -0.9721
   62SAPC    C2 4872   3.623   1.253   6.110 -0.0106  0.3128 -0.8010
   62SAPC    HS 4873   3.538   1.287   6.172 -0.4717 -1.5781 -0.3294
   62SAPC   O21 4874   3.583   1.224   5.975  0.4274 -0.4438  0.1803
   62SAPC   C21 4875   3.489   1.131   5.965 -0.1666 -0.0351  0.2728
   62SAPC   O22 4876   3.415   1.089   6.056 -0.7202  0.2164  0.0837
   62SAPC   C22 4877   3.499   1.069   5.821  0.2644  0.3266  0.1859
   62SAPC   H2R 4878   3.495   1.155   5.750 -0.8786 -1.9245 -2.6586
   62SAPC   H2S 4879   3.598   1.020   5.811  0.4538  0.2972  1.9000
   62SAPC    C3 4880   3.717   1.380   6.109  0.3688 -0.3711 -0.4592
   62SAPC    HX 4881   3.793   1.352   6.033 -0.4845  0.3696 -1.6136
   62SAPC    HY 4882   3.775   1.400   6.201  0.6770  3.8118 -1.3518
   62SAPC   O31 4883   3.641   1.493   6.057 -0.0217  0.5773 -0.1706
   62SAPC   C31 4884   3.719   1.598   6.022 -0.1006 -0.3227 -0.3534
   62SAPC   O32 4885   3.840   1.598   6.038 -0.0052 -0.0636 -0.3289
   62SAPC   C32 4886   3.632   1.718   5.982 -0.5332 -0.2269  0.0492
   62SAPC   H2X 4887   3.629   1.792   6.064 -0.5294  0.9575 -0.9893
   62SAPC   H2Y 4888   3.529   1.677   5.965  0.0963 -1.2518 -1.5727
   62SAPC   C23 4889   3.379   0.970   5.785  0.3125 -0.7333 -0.1827
   62SAPC   H3R 4890   3.370   0.901   5.872  0.2117  0.4655  0.7804
   62SAPC   H3S 4891   3.412   0.905   5.701  0.2414 -0.4560 -0.4270
   62SAPC   C24 4892   3.247   1.054   5.772  0.6256 -0.3796 -0.0331
   62SAPC   H4R 4893   3.255   1.125   5.687 -0.7731  1.8199  1.5931
   62SAPC   H4S 4894   3.237   1.115   5.864  1.0784  0.1462 -0.3289
   62SAPC   C25 4895   3.132   0.964   5.746  0.2361 -0.4784 -0.4246
   62SAPC   H5R 4896   3.077   0.927   5.834  3.3032 -1.1396  1.3836
   62SAPC   C26 4897   3.097   0.924   5.622  0.2307 -0.3492 -0.5303
   62SAPC   H6R 4898   3.007   0.861   5.630  0.0142 -0.3994 -2.5904
   62SAPC   C27 4899   3.155   0.947   5.487  0.2277  0.9844  0.1811
   62SAPC   H7R 4900   3.134   0.857   5.426 -0.9486  0.6254  1.0902
   62SAPC   H7S 4901   3.266   0.951   5.499  0.1835  0.3100  0.8727
   62SAPC   C28 4902   3.102   1.068   5.404  0.5525  1.1792  0.1781
   62SAPC   H8R 4903   3.053   1.146   5.463 -0.9494 -0.3089  1.0000
   62SAPC   C29 4904   3.104   1.097   5.270  0.5596  0.5918  0.0123
   62SAPC   H9R 4905   3.039   1.182   5.245  0.0354 -0.4398 -2.3747
   62SAPC  C210 4906   3.151   1.007   5.168  0.0717 -0.1834 -0.3869
   62SAPC  H10R 4907   3.211   0.926   5.215 -2.0764 -2.5506 -1.4715
   62SAPC  H10S 4908   3.210   1.059   5.089 -1.0272  1.0800 -0.4173
   62SAPC  C211 4909   3.032   0.934   5.117  0.6440 -0.6262 -0.4477
   62SAPC  H11R 4910   2.966   0.898   5.198 -0.2556 -0.1550 -0.9580
   62SAPC  C212 4911   2.988   0.918   4.988 -0.4366  0.0909  0.5001
   62SAPC  H12R 4912   2.897   0.858   4.970 -0.7855  0.1829  1.8561
   62SAPC  C213 4913   3.051   0.982   4.863  0.5584 -0.1544 -0.3411
   62SAPC  H13R 4914   3.130   1.057   4.881 -2.1086  2.2776  2.1108
   62SAPC  H13S 4915   2.965   1.020   4.804 -0.7392  0.5460  1.9254
   62SAPC  C214 4916   3.109   0.859   4.791 -0.1983 -0.2253 -0.0290
   62SAPC  H14R 4917   3.204   0.826   4.834 -0.5702  0.5549  1.4621
   62SAPC  C215 4918   3.068   0.789   4.688 -0.2096 -0.3991  0.0911
   62SAPC  H15R 4919   3.133   0.709   4.648 -0.9216 -0.1612 -1.6271
   62SAPC  C216 4920   2.939   0.816   4.602  0.1883  0.1233 -0.8477
   62SAPC  H16R 4921   2.866   0.888   4.643  1.9286  2.0720 -1.0220
   62SAPC  H16S 4922   2.887   0.717   4.598 -0.4181  0.4728 -2.0964
   62SAPC  C217 4923   2.961   0.868   4.456 -0.2883 -0.8070 -0.0970
   62SAPC  H17R 4924   2.870   0.850   4.395  0.1638  0.2162 -1.1214
   62SAPC  H17S 4925   3.036   0.808   4.401 -1.8035 -1.8343 -1.1268
   62SAPC  C218 4926   2.982   1.012   4.434 -0.0372 -0.0347  1.0365
   62SAPC  H18R 4927   3.080   1.034   4.483 -0.3408  0.1297  1.5792
   62SAPC  H18S 4928   2.897   1.072   4.473  0.4948 -0.3288  2.7445
   62SAPC  C219 4929   3.005   1.042   4.288  0.5195 -0.2958  0.2951
   62SAPC  H19R 4930   2.911   1.003   4.241  1.0712 -1.4854  0.1332
   62SAPC  H19S 4931   3.090   0.977   4.259 -0.6299 -1.5645 -0.3531
   62SAPC  C220 4932   3.036   1.185   4.252  0.4703 -0.3864 -0.0719
   62SAPC  H20R 4933   3.046   1.217   4.146 -3.1113  1.5704  0.0318
   62SAPC  H20S 4934   3.135   1.214   4.291 -0.2720  2.3406 -0.0334
   62SAPC  H20T 4935   2.964   1.257   4.296 -2.5724 -2.5992 -1.0768
   62SAPC   C33 4936   3.681   1.775   5.846  0.1697  0.0155 -0.2239
   62SAPC   H3X 4937   3.789   1.804   5.852  0.7669 -2.1517  0.4387
   62SAPC   H3Y 4938   3.622   1.869   5.851  1.8604  1.0619  2.4012
   62SAPC   C34 4939   3.643   1.681   5.725  0.0139 -0.7178 -0.1125
   62SAPC   H4X 4940   3.537   1.651   5.742 -0.2893 -0.2271 -1.0615
   62SAPC   H4Y 4941   3.712   1.595   5.735  2.2887  1.0032 -0.3738
   62SAPC   C35 4942   3.668   1.760   5.599  0.3191 -0.1948  0.3153
   62SAPC   H5X 4943   3.773   1.794   5.588 -0.0334  0.8772  0.1314
   62SAPC   H5Y 4944   3.603   1.849   5.605  2.2772  1.2612  0.8237
   62SAPC   C36 4945   3.626   1.686   5.475 -0.2063  0.0407  0.0920
   62SAPC   H6X 4946   3.515   1.672   5.480 -0.3266  1.2249  1.7783
   62SAPC   H6Y 4947   3.678   1.588   5.484 -0.9624 -0.5396 -1.3986
   62SAPC   C37 4948   3.672   1.759   5.349 -0.2780 -0.5567  0.8345
   62SAPC   H7X 4949   3.783   1.747   5.344 -0.4273 -1.5711 -0.8304
   62SAPC   H7Y 4950   3.629   1.860   5.361  1.3376  0.1001  1.3166
   62SAPC   C38 4951   3.611   1.690   5.231  0.2440  0.6273  0.3392
   62SAPC   H8X 4952   3.501   1.693   5.239 -0.1796 -0.9416 -3.0713
   62SAPC   H8Y 4953   3.639   1.582   5.232 -0.7945  0.2711 -2.1707
   62SAPC   C39 4954   3.653   1.756   5.093 -0.7526  1.5333  0.0148
   62SAPC   H9X 4955   3.763   1.758   5.075 -1.0554  0.4135 -2.2655
   62SAPC   H9Y 4956   3.632   1.864   5.081  2.0184  1.9721 -1.6502
   62SAPC  C310 4957   3.592   1.679   4.974 -0.2711  0.0506  0.3464
   62SAPC  H10X 4958   3.481   1.693   4.974 -0.1925  1.0623  2.2814
   62SAPC  H10Y 4959   3.606   1.570   4.990 -1.6702  0.0066  1.4775
   62SAPC  C311 4960   3.658   1.723   4.840  0.0454 -0.2927  0.6092
   62SAPC  H11X 4961   3.765   1.695   4.833 -0.0398 -0.6495  0.7181
   62SAPC  H11Y 4962   3.656   1.834   4.845  1.4479 -0.2788  1.5145
   62SAPC  C312 4963   3.582   1.663   4.719 -0.6662 -0.5533  0.6958
   62SAPC  H12X 4964   3.478   1.667   4.759 -0.5812  0.9890  0.8087
   62SAPC  H12Y 4965   3.620   1.562   4.693  0.4603  0.1470 -0.4849
   62SAPC  C313 4966   3.578   1.746   4.589 -0.4484  0.0615  0.0800
   62SAPC  H13X 4967   3.678   1.742   4.541 -1.7152 -1.5130 -2.6549
   62SAPC  H13Y 4968   3.552   1.847   4.625 -1.5272 -0.0024 -0.4782
   62SAPC  C314 4969   3.486   1.686   4.480 -0.2490 -0.3761  0.3327
   62SAPC  H14X 4970   3.506   1.577   4.486  1.2684 -0.1249  0.2886
   62SAPC  H14Y 4971   3.515   1.721   4.379  1.3133 -0.0777  0.8571
   62SAPC  C315 4972   3.332   1.706   4.500 -0.3140  0.6704  0.0345
   62SAPC  H15X 4973   3.313   1.815   4.510  1.2705  0.9857 -0.2627
   62SAPC  H15Y 4974   3.296   1.660   4.595 -0.8865 -0.9840 -0.9423
   62SAPC  C316 4975   3.247   1.641   4.396  0.5622  0.1978 -0.2337
   62SAPC  H16X 4976   3.291   1.545   4.364  0.2814  0.4951 -1.5730
   62SAPC  H16Y 4977   3.233   1.701   4.304 -1.8972 -0.4044 -0.3092
   62SAPC  C317 4978   3.106   1.609   4.443 -0.1713  0.7409 -0.1280
   62SAPC  H17X 4979   3.102   1.552   4.539 -0.3615  1.9537  0.6020
   62SAPC  H17Y 4980   3.053   1.544   4.370 -0.1121 -0.8174  1.1590
   62SAPC  C318 4981   3.025   1.730   4.461 -0.0177  0.0018 -0.7270
   62SAPC  H18X 4982   2.930   1.710   4.513  0.4661  0.5444  0.3976
   62SAPC  H18Y 4983   3.013   1.785   4.365  0.8025 -0.4312 -1.0902
   62SAPC  H18Z 4984   3.069   1.800   4.535 -3.1147  1.6707 -0.3066
   63SAPC     N 4985   3.695   4.935   7.189 -0.4893  0.0653 -0.1031
   63SAPC   C12 4986   3.783   4.877   7.084  0.6380 -1.1931 -1.0198
   63SAPC  H12A 4987   3.823   4.787   7.127 -1.8947 -1.4907  0.9894
   63SAPC  H12B 4988   3.871   4.939   7.077 -1.0912  1.3103 -2.6669
   63SAPC   C13 4989   3.653   5.070   7.153 -0.2516  0.2401  0.0791
   63SAPC  H13A 4990   3.574   5.072   7.079 -1.3345 -0.7589  1.1734
   63SAPC  H13B 4991   3.617   5.126   7.237 -0.9014  0.1764 -0.1521
   63SAPC  H13C 4992   3.738   5.127   7.119  0.5993 -0.1044  1.5437
   63SAPC   C14 4993   3.576   4.847   7.213  0.2531 -0.3529  0.6104
   63SAPC  H14A 4994   3.538   4.831   7.114  1.1099 -0.7422  0.3418
   63SAPC  H14B 4995   3.596   4.751   7.259  0.7178 -0.4770  0.1576
   63SAPC  H14C 4996   3.495   4.905   7.255  0.9802  0.6686  0.6274
   63SAPC   C15 4997   3.771   4.943   7.318 -0.6888 -0.2568  0.2166
   63SAPC  H15A 4998   3.716   4.984   7.401 -0.0102 -0.7103  0.9014
   63SAPC  H15B 4999   3.798   4.840   7.337 -0.9585 -0.7257 -1.7656
   63SAPC  H15C 5000   3.858   5.006   7.306 -0.7194 -0.4256 -0.9535
   63SAPC   C11 5001   3.716   4.840   6.953  0.4499  0.2013 -0.6157
   63SAPC  H11A 5002   3.802   4.825   6.884 -0.7261 -2.9545 -1.5991
   63SAPC  H11B 5003   3.657   4.920   6.903  0.6392 -0.2321 -1.5472
   63SAPC     P 5004   3.516   4.671   6.917 -0.1694 -0.0109  0.0054
   63SAPC   O13 5005   3.482   4.543   6.987 -0.5615  0.7137  0.3267
   63SAPC   O14 5006   3.413   4.782   6.940 -0.3704  0.3940  0.3757
   63SAPC   O12 5007   3.655   4.722   6.976  0.0431 -0.0719 -0.5152
   63SAPC   O11 5008   3.539   4.651   6.758  0.1328 -0.2361  0.2192
   63SAPC    C1 5009   3.631   4.553   6.714 -0.4141 -0.3754  0.6163
   63SAPC    HA 5010   3.728   4.601   6.688 -0.3687 -1.5271 -1.5036
   63SAPC    HB 5011   3.648   4.469   6.785  1.5340 -1.9527 -1.5714
   63SAPC    C2 5012   3.598   4.504   6.567 -0.4243 -0.2784 -0.4669
   63SAPC    HS 5013   3.669   4.425   6.535 -0.7400 -1.4952  1.6453
   63SAPC   O21 5014   3.586   4.618   6.477 -0.1287  0.0445 -0.8185
   63SAPC   C21 5015   3.698   4.651   6.415  0.2014  0.1487  0.0795
   63SAPC   O22 5016   3.805   4.589   6.420  0.3281  0.1615 -0.7320
   63SAPC   C22 5017   3.670   4.767   6.317  0.3483  0.7654 -0.0941
   63SAPC   H2R 5018   3.658   4.713   6.220 -0.4853  1.2326 -0.2559
   63SAPC   H2S 5019   3.573   4.814   6.346  0.4032  1.0268 -0.3314
   63SAPC    C3 5020   3.460   4.443   6.574 -0.4134  0.3219 -0.2524
   63SAPC    HX 5021   3.382   4.508   6.620  0.1971  0.3036  0.8539
   63SAPC    HY 5022   3.467   4.354   6.641 -0.9367  0.2146 -0.3402
   63SAPC   O31 5023   3.408   4.408   6.441 -0.1752 -0.2323  0.0041
   63SAPC   C31 5024   3.442   4.288   6.388 -0.2651  0.2645 -0.3694
   63SAPC   O32 5025   3.522   4.210   6.432 -0.0012 -0.6229 -0.4699
   63SAPC   C32 5026   3.374   4.257   6.250  0.1278 -0.5233  0.7710
   63SAPC   H2X 5027   3.263   4.259   6.261  0.0763 -0.8307  0.3130
   63SAPC   H2Y 5028   3.407   4.158   6.213 -0.8731 -0.2832 -0.8631
   63SAPC   C23 5029   3.787   4.866   6.294  0.4934 -0.5038  0.3182
   63SAPC   H3R 5030   3.882   4.820   6.259 -0.8807 -1.0357 -3.1440
   63SAPC   H3S 5031   3.801   4.918   6.391 -1.4532  0.4678  0.1272
   63SAPC   C24 5032   3.750   4.951   6.175 -0.2464  0.0484 -0.0127
   63SAPC   H4R 5033   3.652   4.996   6.202  0.4184  0.8664  1.1689
   63SAPC   H4S 5034   3.740   4.899   6.078 -1.6248 -0.9306  0.6287
   63SAPC   C25 5035   3.832   5.066   6.157 -0.1220  0.3290 -0.3037
   63SAPC   H5R 5036   3.815   5.148   6.228 -0.8305  1.0906 -1.3255
   63SAPC   C26 5037   3.927   5.082   6.061 -0.4539 -1.0213  0.5217
   63SAPC   H6R 5038   3.965   5.185   6.045 -3.1695 -0.5099 -4.6332
   63SAPC   C27 5039   3.964   4.988   5.952  0.0066 -0.7771  0.6304
   63SAPC   H7R 5040   3.876   4.976   5.885 -0.0767 -0.6877  0.7216
   63SAPC   H7S 5041   3.979   4.884   5.990 -0.1177  0.0449  3.1747
   63SAPC   C28 5042   4.093   5.035   5.890 -0.4671 -0.5726 -0.0274
   63SAPC   H8R 5043   4.182   5.004   5.947 -0.1300  0.3302 -0.0484
   63SAPC   C29 5044   4.097   5.057   5.755  0.2358 -1.0925 -0.3370
   63SAPC   H9R 5045   4.194   5.085   5.710 -0.8159  3.0034 -0.4414
   63SAPC  C210 5046   3.981   5.076   5.661  0.7908  0.1087  0.2163
   63SAPC  H10R 5047   3.978   5.174   5.609  2.5810 -1.9840 -4.3322
   63SAPC  H10S 5048   3.882   5.070   5.712  1.5140  0.0192  1.6404
   63SAPC  C211 5049   3.985   4.968   5.554  0.2551 -0.4446  0.0703
   63SAPC  H11R 5050   3.987   4.864   5.589 -0.3525 -0.7957 -0.8757
   63SAPC  C212 5051   3.988   4.989   5.417 -0.2906 -0.0362  0.7815
   63SAPC  H12R 5052   3.997   4.899   5.355  2.2780 -0.2949  1.4197
   63SAPC  C213 5053   3.979   5.117   5.335 -0.0361 -0.0902  0.1780
   63SAPC  H13R 5054   4.078   5.139   5.288 -0.4757 -1.4311 -1.4750
   63SAPC  H13S 5055   3.950   5.205   5.397 -1.1774  1.3565 -2.2413
   63SAPC  C214 5056   3.874   5.087   5.235 -0.1500  1.1452 -0.1683
   63SAPC  H14R 5057   3.771   5.104   5.269  0.1186 -1.0157  1.9469
   63SAPC  C215 5058   3.896   5.059   5.106  0.1246  0.5779  0.1719
   63SAPC  H15R 5059   3.813   5.044   5.035  1.1593 -1.6470 -0.6716
   63SAPC  C216 5060   4.033   5.043   5.045  0.0502  0.3782  0.0057
   63SAPC  H16R 5061   4.105   4.998   5.117 -0.3317 -1.0407 -0.4628
   63SAPC  H16S 5062   4.062   5.145   5.013 -1.6937  1.4055  1.5631
   63SAPC  C217 5063   4.060   4.943   4.928 -0.1539 -0.3790  0.0569
   63SAPC  H17R 5064   4.012   4.844   4.937 -0.9204 -0.2395 -1.9367
   63SAPC  H17S 5065   4.169   4.935   4.907 -0.5334 -2.5498 -1.4079
   63SAPC  C218 5066   3.999   5.017   4.803 -0.2456  0.1231  0.1547
   63SAPC  H18R 5067   4.059   5.110   4.793  2.0284 -1.2054  0.7507
   63SAPC  H18S 5068   3.890   5.029   4.822 -0.0694 -0.2952  1.5756
   63SAPC  C219 5069   4.023   4.942   4.671  0.1497 -0.7727 -0.0970
   63SAPC  H19R 5070   3.984   5.005   4.588 -3.4096 -0.6671  1.5013
   63SAPC  H19S 5071   3.951   4.858   4.668 -1.0320  0.1520  1.2866
   63SAPC  C220 5072   4.168   4.902   4.640 -0.7387 -0.2859 -0.2540
   63SAPC  H20R 5073   4.215   4.824   4.704  1.5216  0.9423 -0.3275
   63SAPC  H20S 5074   4.229   4.994   4.651  1.3929 -1.2835 -2.8191
   63SAPC  H20T 5075   4.189   4.867   4.537  1.8811 -2.7391  0.9966
   63SAPC   C33 5076   3.415   4.353   6.133  0.3155  0.2787  0.9692
   63SAPC   H3X 5077   3.491   4.431   6.157  0.5191  0.6776 -0.7973
   63SAPC   H3Y 5078   3.325   4.408   6.099  2.1036  1.6169 -2.0859
   63SAPC   C34 5079   3.448   4.274   6.004  0.4489  0.5314 -0.1869
   63SAPC   H4X 5080   3.348   4.245   5.964  0.7920  0.1689 -0.7885
   63SAPC   H4Y 5081   3.505   4.179   6.016 -0.4027 -0.0744 -0.8378
   63SAPC   C35 5082   3.517   4.360   5.897  0.1586  1.2046 -0.1117
   63SAPC   H5X 5083   3.622   4.392   5.916 -0.1635  2.4325 -0.3201
   63SAPC   H5Y 5084   3.457   4.448   5.866 -0.5573  1.4606  1.8511
   63SAPC   C36 5085   3.523   4.274   5.774 -0.1417  0.5219  0.5634
   63SAPC   H6X 5086   3.428   4.223   5.748  0.8861 -0.6928 -1.0085
   63SAPC   H6Y 5087   3.588   4.184   5.776 -2.3123 -1.1303  0.3032
   63SAPC   C37 5088   3.543   4.361   5.641 -0.0396 -0.1036 -0.0501
   63SAPC   H7X 5089   3.648   4.395   5.630  0.1626 -0.6870  0.0084
   63SAPC   H7Y 5090   3.490   4.458   5.653  1.2954  0.3596  3.4582
   63SAPC   C38 5091   3.505   4.292   5.506 -0.3022 -0.1773  0.3485
   63SAPC   H8X 5092   3.400   4.254   5.507 -0.5802  0.5803  0.7534
   63SAPC   H8Y 5093   3.576   4.210   5.480 -1.0951 -1.0386  0.8404
   63SAPC   C39 5094   3.507   4.395   5.393  0.3425 -0.2173 -0.1959
   63SAPC   H9X 5095   3.608   4.442   5.392  0.6714 -0.9006  0.2531
   63SAPC   H9Y 5096   3.434   4.475   5.417  1.6248  0.8513  0.2750
   63SAPC  C310 5097   3.477   4.331   5.259  0.0862  0.8519  0.3528
   63SAPC  H10X 5098   3.375   4.289   5.266  0.0139  0.8283 -0.7785
   63SAPC  H10Y 5099   3.546   4.246   5.247 -1.3630 -0.5297  1.3809
   63SAPC  C311 5100   3.471   4.423   5.134 -0.0965 -0.4573 -0.0637
   63SAPC  H11X 5101   3.559   4.490   5.122  0.8097 -1.3444  1.3803
   63SAPC  H11Y 5102   3.385   4.493   5.147 -1.0271 -1.6662  0.4708
   63SAPC  C312 5103   3.454   4.339   4.999  0.3013  0.1144 -0.7305
   63SAPC  H12X 5104   3.352   4.295   4.991  0.4317 -0.2946 -0.1381
   63SAPC  H12Y 5105   3.532   4.261   5.005  1.2234  0.8940 -1.9578
   63SAPC  C313 5106   3.476   4.434   4.880 -0.1523 -0.1555 -0.4036
   63SAPC  H13X 5107   3.580   4.473   4.872 -0.3985  0.2909 -1.5081
   63SAPC  H13Y 5108   3.402   4.516   4.893 -1.7698 -1.6757  0.3222
   63SAPC  C314 5109   3.470   4.357   4.748 -0.1762 -0.5937  0.3381
   63SAPC  H14X 5110   3.372   4.305   4.755 -1.4353  1.7503  1.4464
   63SAPC  H14Y 5111   3.560   4.292   4.748 -1.3109 -2.2260 -1.0061
   63SAPC  C315 5112   3.467   4.456   4.626 -0.7882  0.3053 -0.1853
   63SAPC  H15X 5113   3.552   4.528   4.614  0.4992 -1.1979 -0.4067
   63SAPC  H15Y 5114   3.371   4.509   4.645 -0.7933 -0.0481  0.8210
   63SAPC  C316 5115   3.461   4.386   4.490  1.2662 -0.3256 -0.3264
   63SAPC  H16X 5116   3.373   4.318   4.501  0.6436  0.6457  1.0218
   63SAPC  H16Y 5117   3.551   4.323   4.475  0.9609 -0.5536 -1.2834
   63SAPC  C317 5118   3.460   4.488   4.370  0.2761 -0.2119 -0.3078
   63SAPC  H17X 5119   3.503   4.435   4.282 -0.2089 -0.7848 -0.2077
   63SAPC  H17Y 5120   3.538   4.563   4.396  0.5394  0.3564 -2.5483
   63SAPC  C318 5121   3.329   4.542   4.323  0.2828  0.1189  0.2454
   63SAPC  H18X 5122   3.274   4.452   4.289  3.1999 -1.1193 -1.4968
   63SAPC  H18Y 5123   3.337   4.605   4.232  0.1751 -1.6321 -1.0214
   63SAPC  H18Z 5124   3.266   4.586   4.403  1.2609  0.3719  0.8960
   64SAPC     N 5125   4.194   5.720   6.614 -0.2999  0.3312 -0.1500
   64SAPC   C12 5126   4.071   5.695   6.694 -0.1423 -0.4447  0.0683
   64SAPC  H12A 5127   4.099   5.678   6.797  0.5945  0.5626  0.0417
   64SAPC  H12B 5128   4.017   5.608   6.659  0.4281 -0.5817 -0.4988
   64SAPC   C13 5129   4.152   5.743   6.468 -0.3472 -0.4617  0.4248
   64SAPC  H13A 5130   4.238   5.752   6.403  1.0347 -0.1120  2.2214
   64SAPC  H13B 5131   4.087   5.670   6.423 -1.2829 -0.2113  1.3197
   64SAPC  H13C 5132   4.103   5.839   6.462  0.2016 -0.2455 -1.2583
   64SAPC   C14 5133   4.284   5.831   6.656  0.0705 -0.1453 -0.1976
   64SAPC  H14A 5134   4.383   5.823   6.614 -0.7371 -0.1731 -2.1853
   64SAPC  H14B 5135   4.234   5.924   6.635 -1.5048 -1.5123 -3.0483
   64SAPC  H14C 5136   4.303   5.818   6.762 -0.7460  0.1740 -0.0053
   64SAPC   C15 5137   4.266   5.595   6.607  0.4533  0.1964 -0.5639
   64SAPC  H15A 5138   4.336   5.593   6.524  1.7772  0.7278  0.5150
   64SAPC  H15B 5139   4.313   5.568   6.700 -0.1946  0.0911 -0.2649
   64SAPC  H15C 5140   4.191   5.520   6.583 -2.1777  2.6491 -0.5525
   64SAPC   C11 5141   3.970   5.810   6.713  0.1263 -0.6714 -0.1811
   64SAPC  H11A 5142   3.883   5.763   6.764 -0.0045  1.7534  2.0376
   64SAPC  H11B 5143   3.938   5.847   6.613 -0.8091  2.3400  1.1082
   64SAPC     P 5144   3.914   6.032   6.817  0.3519  0.3589 -0.4246
   64SAPC   O13 5145   3.800   5.977   6.896 -0.5930  0.6902 -0.9519
   64SAPC   O14 5146   3.982   6.146   6.883  0.4655  0.4308 -0.2636
   64SAPC   O12 5147   4.025   5.919   6.790 -0.4031 -0.9379 -0.1182
   64SAPC   O11 5148   3.856   6.063   6.665 -0.5532 -0.1834 -0.0020
   64SAPC    C1 5149   3.940   6.113   6.558 -0.2317  0.0254  0.2235
   64SAPC    HA 5150   3.963   6.221   6.574  0.3640  0.6974 -4.0837
   64SAPC    HB 5151   4.032   6.052   6.559  0.9911  1.6627  3.2117
   64SAPC    C2 5152   3.857   6.101   6.427  0.2965 -0.5295 -0.3584
   64SAPC    HS 5153   3.839   5.993   6.408  0.1840 -0.5436 -0.1715
   64SAPC   O21 5154   3.929   6.180   6.325  0.4915 -0.3821  0.5429
   64SAPC   C21 5155   3.999   6.108   6.238 -0.0539  0.1185  0.7050
   64SAPC   O22 5156   3.980   5.990   6.217 -0.1743 -0.3803  0.5818
   64SAPC   C22 5157   4.106   6.189   6.173 -0.4097 -0.5591 -0.2853
   64SAPC   H2R 5158   4.158   6.241   6.257 -0.8254 -0.6330  0.0205
   64SAPC   H2S 5159   4.176   6.117   6.126  0.9409  0.2121  0.4469
   64SAPC    C3 5160   3.721   6.172   6.436  0.6835 -0.1811  0.4526
   64SAPC    HX 5161   3.745   6.271   6.479  1.1408 -0.9684  2.1029
   64SAPC    HY 5162   3.649   6.111   6.494 -0.0728 -0.9533 -1.2225
   64SAPC   O31 5163   3.660   6.167   6.297 -0.1776 -0.4803  0.7486
   64SAPC   C31 5164   3.536   6.223   6.304 -0.2860 -0.2842 -0.2459
   64SAPC   O32 5165   3.468   6.248   6.406 -0.8297  0.0996  0.6176
   64SAPC   C32 5166   3.501   6.266   6.168 -0.0449  0.0290 -0.6645
   64SAPC   H2X 5167   3.544   6.202   6.089  0.2478 -0.6170  0.0127
   64SAPC   H2Y 5168   3.541   6.368   6.150 -1.1676  0.7890  0.8867
   64SAPC   C23 5169   4.051   6.290   6.063  0.1484 -0.0211  0.4620
   64SAPC   H3R 5170   4.110   6.384   6.069 -1.7399  1.2621 -0.1733
   64SAPC   H3S 5171   3.951   6.328   6.091  0.4779  1.6371 -0.5103
   64SAPC   C24 5172   4.061   6.243   5.920  0.2388  0.1382 -0.1919
   64SAPC   H4R 5173   4.152   6.184   5.895 -0.2699 -1.0010  0.6272
   64SAPC   H4S 5174   4.070   6.336   5.858 -2.0783  0.1065 -0.6735
   64SAPC   C25 5175   3.940   6.167   5.883 -0.2744 -0.7535  0.4361
   64SAPC   H5R 5176   3.886   6.134   5.973 -2.4216 -0.1278 -0.5443
   64SAPC   C26 5177   3.878   6.146   5.764 -0.3232  0.4902 -0.4550
   64SAPC   H6R 5178   3.775   6.106   5.767  0.6778 -2.3989  2.8441
   64SAPC   C27 5179   3.927   6.191   5.627 -0.0469 -0.4664 -0.4465
   64SAPC   H7R 5180   4.025   6.143   5.607  0.1000 -0.2702 -0.1918
   64SAPC   H7S 5181   3.955   6.297   5.610  2.4545 -1.1054 -0.7193
   64SAPC   C28 5182   3.831   6.146   5.519  0.4162 -0.4829 -0.3899
   64SAPC   H8R 5183   3.757   6.069   5.546  0.4941 -2.2325 -4.4455
   64SAPC   C29 5184   3.828   6.166   5.386 -0.3436  0.0224  0.0591
   64SAPC   H9R 5185   3.747   6.125   5.324 -0.7501  0.9064 -0.0115
   64SAPC  C210 5186   3.914   6.271   5.314 -0.7968  1.0772  0.1251
   64SAPC  H10R 5187   3.968   6.333   5.388  3.4525 -2.0758  0.0528
   64SAPC  H10S 5188   3.855   6.341   5.250  1.2601  1.5914 -1.3098
   64SAPC  C211 5189   4.017   6.193   5.230 -0.1722  0.5429 -0.7885
   64SAPC  H11R 5190   4.119   6.175   5.267 -0.7593  0.0885  0.7194
   64SAPC  C212 5191   4.003   6.167   5.102 -0.4234  0.2385 -0.4570
   64SAPC  H12R 5192   4.077   6.101   5.054 -2.1288 -1.7593 -0.5112
   64SAPC  C213 5193   3.877   6.206   5.020 -0.2766 -0.0396  0.0614
   64SAPC  H13R 5194   3.856   6.312   5.047  0.4997  1.6097 -4.7210
   64SAPC  H13S 5195   3.790   6.150   5.060  0.8534 -1.8591  0.0765
   64SAPC  C214 5196   3.885   6.207   4.868 -0.5852 -0.3276  0.1050
   64SAPC  H14R 5197   3.897   6.311   4.833 -2.0409  0.1144  0.8081
   64SAPC  C215 5198   3.852   6.104   4.789 -0.1695  0.6976  0.6344
   64SAPC  H15R 5199   3.849   6.117   4.680  0.5792  0.2802  0.5529
   64SAPC  C216 5200   3.829   5.966   4.841 -0.3226  0.6071 -0.1507
   64SAPC  H16R 5201   3.721   5.960   4.867 -0.0298  1.5390  1.4058
   64SAPC  H16S 5202   3.888   5.957   4.935 -0.5116  0.7082 -0.0200
   64SAPC  C217 5203   3.853   5.849   4.749  0.0440  0.0884  0.1594
   64SAPC  H17R 5204   3.815   5.762   4.807 -0.4228 -0.9811 -1.6759
   64SAPC  H17S 5205   3.959   5.834   4.719 -0.0138 -1.7178  0.7370
   64SAPC  C218 5206   3.779   5.839   4.613  0.2736  0.1217 -0.6376
   64SAPC  H18R 5207   3.828   5.914   4.547  0.8951  1.2246  1.0123
   64SAPC  H18S 5208   3.676   5.864   4.645  0.6168  0.1962  0.4516
   64SAPC  C219 5209   3.779   5.702   4.533  0.1783  0.0227 -0.7630
   64SAPC  H19R 5210   3.734   5.627   4.601  3.4138 -0.2483  1.2930
   64SAPC  H19S 5211   3.886   5.674   4.532  0.1330 -0.7953  3.0105
   64SAPC  C220 5212   3.703   5.722   4.400 -0.9839 -0.3172 -0.2237
   64SAPC  H20R 5213   3.708   5.627   4.343  1.1565  0.2434 -1.0473
   64SAPC  H20S 5214   3.735   5.806   4.334 -0.8077  0.4983  0.8619
   64SAPC  H20T 5215   3.595   5.742   4.419 -0.7909 -0.4907  1.2161
   64SAPC   C33 5216   3.350   6.254   6.153  0.5715  0.3632  0.5683
   64SAPC   H3X 5217   3.295   6.321   6.223  1.1837  0.9947  0.4622
   64SAPC   H3Y 5218   3.309   6.152   6.167 -0.5882  0.8817  1.1536
   64SAPC   C34 5219   3.311   6.305   6.011 -0.4428 -0.1512  0.0119
   64SAPC   H4X 5220   3.333   6.232   5.930 -0.7059  0.7292 -0.8698
   64SAPC   H4Y 5221   3.376   6.391   5.988 -0.4664  1.3664  4.5687
   64SAPC   C35 5222   3.163   6.355   5.999 -0.5314 -0.1940 -0.6931
   64SAPC   H5X 5223   3.160   6.448   6.060  0.8022 -1.6829  1.8165
   64SAPC   H5Y 5224   3.104   6.273   6.045  1.6377 -0.9139  1.0057
   64SAPC   C36 5225   3.109   6.381   5.861  0.1325 -0.4671  0.1989
   64SAPC   H6X 5226   3.177   6.448   5.804 -0.1253 -0.8439 -0.5719
   64SAPC   H6Y 5227   3.003   6.416   5.864 -0.1494 -1.3543  2.2310
   64SAPC   C37 5228   3.094   6.254   5.770 -0.2494  0.2549 -0.3479
   64SAPC   H7X 5229   3.027   6.176   5.814  1.2501 -2.7363 -2.9430
   64SAPC   H7Y 5230   3.185   6.191   5.760 -1.4698 -1.3434 -2.0816
   64SAPC   C38 5231   3.054   6.290   5.625 -0.1075 -0.7744 -0.4608
   64SAPC   H8X 5232   3.118   6.361   5.568  0.2428 -1.9252 -1.5438
   64SAPC   H8Y 5233   2.951   6.332   5.621 -0.8463 -2.3102  1.3052
   64SAPC   C39 5234   3.033   6.163   5.548  0.0643  0.4852  0.5662
   64SAPC   H9X 5235   2.959   6.095   5.594 -0.9889  1.2036 -0.0275
   64SAPC   H9Y 5236   3.125   6.101   5.540  0.3649  1.0121 -0.1802
   64SAPC  C310 5237   2.981   6.176   5.404  0.2035  0.7720  0.3440
   64SAPC  H10X 5238   2.979   6.069   5.375  2.4078  0.1778  2.1631
   64SAPC  H10Y 5239   3.054   6.233   5.343  0.4868  0.3897  0.3221
   64SAPC  C311 5240   2.840   6.225   5.391  0.4009 -0.3941  0.1541
   64SAPC  H11X 5241   2.844   6.335   5.403  0.8070 -0.3159 -0.6707
   64SAPC  H11Y 5242   2.762   6.183   5.459  1.1150 -0.3400  1.0266
   64SAPC  C312 5243   2.782   6.198   5.248 -0.5076 -0.1413  0.1390
   64SAPC  H12X 5244   2.867   6.228   5.183 -0.2603 -0.6031  0.2414
   64SAPC  H12Y 5245   2.696   6.265   5.230 -0.2762  0.3933  0.9490
   64SAPC  C313 5246   2.748   6.059   5.215 -0.9076 -0.1470  0.5179
   64SAPC  H13X 5247   2.651   6.032   5.262 -0.5412 -1.2660  0.6472
   64SAPC  H13Y 5248   2.821   5.986   5.257  0.7683  0.0254 -1.8955
   64SAPC  C314 5249   2.743   6.034   5.064 -0.3181  0.1906  0.1462
   64SAPC  H14X 5250   2.732   5.926   5.040 -1.5086  0.4976 -0.7895
   64SAPC  H14Y 5251   2.844   6.067   5.034 -0.2230 -1.7252 -1.8004
   64SAPC  C315 5252   2.626   6.114   4.998 -0.2218  0.3672  0.6515
   64SAPC  H15X 5253   2.621   6.222   5.023 -0.1117  0.4810  0.1932
   64SAPC  H15Y 5254   2.531   6.083   5.046  0.8129 -3.9559  0.3345
   64SAPC  C316 5255   2.630   6.089   4.847  0.2817  0.6033  0.1440
   64SAPC  H16X 5256   2.719   6.138   4.801 -0.7379  0.0628 -2.6471
   64SAPC  H16Y 5257   2.541   6.143   4.807 -0.6650 -0.8063  0.2956
   64SAPC  C317 5258   2.609   5.943   4.807  0.0599  0.1358 -0.0216
   64SAPC  H17X 5259   2.507   5.911   4.834  0.4595  0.4008  2.0114
   64SAPC  H17Y 5260   2.685   5.872   4.845  0.0760 -0.6416 -1.4381
   64SAPC  C318 5261   2.638   5.941   4.654  0.0479  0.5037  0.1227
   64SAPC  H18X 5262   2.612   5.843   4.610 -0.6728  0.7684 -0.0568
   64SAPC  H18Y 5263   2.744   5.965   4.636 -0.0312  0.3875 -0.5250
   64SAPC  H18Z 5264   2.577   6.021   4.607 -2.6597  0.4190  3.1050
   65SAPC     N 5265   3.258   0.487   1.439 -0.3320 -0.2420 -0.2748
   65SAPC   C12 5266   3.227   0.512   1.589  0.5905 -0.7468 -0.9565
   65SAPC  H12A 5267   3.317   0.489   1.644  0.7192  1.3417 -0.2230
   65SAPC  H12B 5268   3.141   0.453   1.614 -0.7323 -0.1571 -3.7127
   65SAPC   C13 5269   3.153   0.537   1.356 -0.2031 -0.1172 -0.6167
   65SAPC  H13A 5270   3.059   0.506   1.398 -0.2547  1.0243  0.1419
   65SAPC  H13B 5271   3.146   0.643   1.375  1.3379 -0.0197 -0.4154
   65SAPC  H13C 5272   3.158   0.499   1.254  0.2801 -0.5049 -0.4526
   65SAPC   C14 5273   3.382   0.554   1.395 -0.8515 -0.3429 -0.5433
   65SAPC  H14A 5274   3.387   0.658   1.424 -1.4515  0.4203 -2.9584
   65SAPC  H14B 5275   3.470   0.512   1.441 -0.7904  0.5818  0.2284
   65SAPC  H14C 5276   3.409   0.552   1.291  2.3506 -1.1631  0.2085
   65SAPC   C15 5277   3.282   0.335   1.427 -0.0771  0.0110  0.2217
   65SAPC  H15A 5278   3.201   0.289   1.481 -0.4474  1.5742  1.0623
   65SAPC  H15B 5279   3.288   0.293   1.327 -0.1432 -0.0485  0.2428
   65SAPC  H15C 5280   3.378   0.305   1.464  0.6527  0.0647 -1.5336
   65SAPC   C11 5281   3.202   0.662   1.629 -0.1899 -0.0113  0.2664
   65SAPC  H11A 5282   3.293   0.713   1.590  0.8446 -1.0609  1.2484
   65SAPC  H11B 5283   3.196   0.665   1.740  0.1277 -1.4434  0.3366
   65SAPC     P 5284   2.936   0.662   1.614  0.1739 -0.1165  0.1234
   65SAPC   O13 5285   2.827   0.727   1.534  0.1847 -0.0882 -0.6801
   65SAPC   O14 5286   2.934   0.511   1.622  0.4999 -0.7209  0.6772
   65SAPC   O12 5287   3.082   0.711   1.564 -0.0963 -0.5300  0.1225
   65SAPC   O11 5288   2.935   0.723   1.759  0.1851  0.0165 -0.6786
   65SAPC    C1 5289   2.908   0.858   1.785  0.1535 -0.2561 -0.1102
   65SAPC    HA 5290   2.977   0.916   1.720  1.0599  1.1077  1.9691
   65SAPC    HB 5291   2.803   0.883   1.757  1.0463  0.2895 -3.3183
   65SAPC    C2 5292   2.939   0.886   1.935  0.5026  0.6572 -0.1865
   65SAPC    HS 5293   3.034   0.836   1.962  1.9109  3.7187  0.9928
   65SAPC   O21 5294   2.834   0.838   2.019  0.7035 -0.6594  0.5181
   65SAPC   C21 5295   2.859   0.753   2.117 -0.7129 -0.6180  0.5125
   65SAPC   O22 5296   2.967   0.714   2.153 -0.2146  1.0109  0.2883
   65SAPC   C22 5297   2.729   0.704   2.183 -0.4164 -0.3502  0.3400
   65SAPC   H2R 5298   2.646   0.774   2.159 -0.1569 -0.9313 -2.5405
   65SAPC   H2S 5299   2.690   0.619   2.123 -0.2035 -0.9888  1.0995
   65SAPC    C3 5300   2.956   1.040   1.960  0.1582 -0.1047 -0.1667
   65SAPC    HX 5301   2.866   1.092   1.921  1.5333  1.9294 -0.8012
   65SAPC    HY 5302   3.046   1.082   1.910  2.1379 -4.2770 -0.5766
   65SAPC   O31 5303   2.981   1.061   2.102 -0.5918  0.7544 -0.3666
   65SAPC   C31 5304   2.891   1.118   2.177 -0.0920  0.6546  0.0298
   65SAPC   O32 5305   2.786   1.175   2.147  0.2823  0.5088  0.5973
   65SAPC   C32 5306   2.928   1.102   2.332 -0.2770  0.4037  0.2550
   65SAPC   H2X 5307   2.991   1.012   2.352  0.0025  0.9317  1.9018
   65SAPC   H2Y 5308   2.831   1.082   2.381 -0.5462 -1.3393 -0.8756
   65SAPC   C23 5309   2.738   0.668   2.328  0.8847  0.1076  0.1068
   65SAPC   H3R 5310   2.818   0.592   2.340  0.2824 -0.3945  1.1377
   65SAPC   H3S 5311   2.639   0.626   2.357  0.9182  0.3439  0.5641
   65SAPC   C24 5312   2.771   0.795   2.408  0.4869  0.0098 -0.2835
   65SAPC   H4R 5313   2.700   0.877   2.387  1.4424  0.8233 -0.4136
   65SAPC   H4S 5314   2.872   0.840   2.393  1.5042 -2.1791 -0.3610
   65SAPC   C25 5315   2.752   0.760   2.551 -0.2410  0.6166 -0.1986
   65SAPC   H5R 5316   2.648   0.730   2.573  0.8482 -1.1728  3.2647
   65SAPC   C26 5317   2.845   0.760   2.647 -1.0806  0.4529 -0.3215
   65SAPC   H6R 5318   2.820   0.729   2.750 -1.0717  0.8316 -0.2062
   65SAPC   C27 5319   2.994   0.779   2.630 -0.1381 -1.0933  0.6574
   65SAPC   H7R 5320   3.028   0.786   2.524 -0.1769  0.3958  0.7159
   65SAPC   H7S 5321   3.060   0.699   2.669  2.6697  0.8079  0.1797
   65SAPC   C28 5322   3.035   0.918   2.686 -0.0626  0.5301  0.3854
   65SAPC   H8R 5323   3.033   0.996   2.609  0.6217  0.1081 -0.0624
   65SAPC   C29 5324   3.059   0.947   2.819 -0.2816 -0.2599  0.8565
   65SAPC   H9R 5325   3.089   1.052   2.832 -2.5907  0.6742 -0.6934
   65SAPC  C210 5326   3.064   0.856   2.939 -0.5787  0.0128 -0.2874
   65SAPC  H10R 5327   3.169   0.835   2.968 -0.1645  0.7414 -1.2257
   65SAPC  H10S 5328   3.009   0.762   2.916  0.2782 -1.1066  1.9582
   65SAPC  C211 5329   2.985   0.915   3.049 -0.1161  0.4112 -0.6064
   65SAPC  H11R 5330   2.880   0.935   3.022  0.4029  1.0400 -2.3525
   65SAPC  C212 5331   3.035   0.942   3.173  0.0370  0.3330 -0.6543
   65SAPC  H12R 5332   2.964   0.978   3.248  1.0457 -0.6407  0.8243
   65SAPC  C213 5333   3.173   0.925   3.229 -0.4341 -0.5956  0.0603
   65SAPC  H13R 5334   3.248   0.915   3.148  0.3213  0.4259  0.6116
   65SAPC  H13S 5335   3.167   0.819   3.261  0.5196 -1.2211 -1.7263
   65SAPC  C214 5336   3.224   1.031   3.327  0.2246 -0.2803 -0.1482
   65SAPC  H14R 5337   3.203   1.135   3.298 -0.0649 -0.3395 -0.1557
   65SAPC  C215 5338   3.282   1.020   3.448 -0.6191 -0.1569  0.4581
   65SAPC  H15R 5339   3.328   1.107   3.497  1.5201 -1.9869  1.9303
   65SAPC  C216 5340   3.325   0.890   3.517 -0.7290  0.1341  0.4560
   65SAPC  H16R 5341   3.287   0.805   3.457  1.6307  0.7275 -2.1052
   65SAPC  H16S 5342   3.280   0.877   3.617 -0.8024  0.2450  0.4388
   65SAPC  C217 5343   3.475   0.877   3.551  0.0991  0.1627 -0.3172
   65SAPC  H17R 5344   3.534   0.888   3.458 -1.9132  2.5065 -1.4076
   65SAPC  H17S 5345   3.485   0.775   3.595  1.7924  1.2501  2.0630
   65SAPC  C218 5346   3.533   0.991   3.643  0.3307  0.2719 -0.0531
   65SAPC  H18R 5347   3.457   1.016   3.720 -0.9825  0.7630 -1.4667
   65SAPC  H18S 5348   3.528   1.083   3.580  0.8225 -0.8957 -1.8531
   65SAPC  C219 5349   3.665   0.978   3.717 -0.1361 -0.0515 -0.5467
   65SAPC  H19R 5350   3.673   0.881   3.771 -1.6231  0.0943 -0.0342
   65SAPC  H19S 5351   3.672   1.047   3.804 -2.7658 -2.6393  1.9173
   65SAPC  C220 5352   3.786   0.991   3.620  0.0443 -0.4231 -0.1935
   65SAPC  H20R 5353   3.759   0.935   3.527  1.2860  0.4295 -1.1018
   65SAPC  H20S 5354   3.884   0.967   3.665 -0.1697  0.0410  0.5220
   65SAPC  H20T 5355   3.787   1.091   3.572  1.9149 -0.0733  0.4836
   65SAPC   C33 5356   3.001   1.229   2.380 -0.8516  0.3536 -0.4119
   65SAPC   H3X 5357   2.957   1.316   2.326 -1.3349  1.6889  2.0208
   65SAPC   H3Y 5358   3.110   1.227   2.358 -0.9881  0.0236 -1.1238
   65SAPC   C34 5359   2.972   1.271   2.529  0.0444  0.2612 -0.0814
   65SAPC   H4X 5360   2.965   1.185   2.599  1.5337  0.5340  0.4263
   65SAPC   H4Y 5361   2.869   1.313   2.528  0.5576  1.9595  3.4855
   65SAPC   C35 5362   3.068   1.375   2.585 -0.4696 -0.1607 -0.4586
   65SAPC   H5X 5363   3.023   1.415   2.678  0.0959  1.2762 -0.7799
   65SAPC   H5Y 5364   3.078   1.453   2.506 -4.1579  0.9044 -0.0379
   65SAPC   C36 5365   3.185   1.299   2.651 -0.0204  0.1147 -0.0769
   65SAPC   H6X 5366   3.236   1.228   2.584 -1.4904 -0.6078 -0.4728
   65SAPC   H6Y 5367   3.138   1.250   2.740 -1.0449  1.1832  0.0123
   65SAPC   C37 5368   3.285   1.407   2.697  0.5639 -0.0296  0.9091
   65SAPC   H7X 5369   3.229   1.502   2.708  0.4034 -0.2809  2.5594
   65SAPC   H7Y 5370   3.370   1.411   2.626  2.8961 -1.4149  3.4553
   65SAPC   C38 5371   3.345   1.381   2.836  0.0488  0.2371 -0.4081
   65SAPC   H8X 5372   3.402   1.467   2.877  0.7684  0.5585 -1.9884
   65SAPC   H8Y 5373   3.424   1.303   2.824 -0.5279 -0.2864 -0.8721
   65SAPC   C39 5374   3.250   1.345   2.949 -0.5199 -0.7353 -0.3832
   65SAPC   H9X 5375   3.215   1.240   2.939 -2.5997 -0.0449 -1.0363
   65SAPC   H9Y 5376   3.162   1.412   2.939  0.9554  1.2222 -0.7515
   65SAPC  C310 5377   3.306   1.375   3.089 -0.4446  0.1642  0.3425
   65SAPC  H10X 5378   3.347   1.477   3.079 -0.9071  0.2739 -0.6165
   65SAPC  H10Y 5379   3.383   1.300   3.117 -1.3167 -0.9361 -0.1202
   65SAPC  C311 5380   3.199   1.374   3.200 -0.1904 -0.1740  0.1689
   65SAPC  H11X 5381   3.142   1.278   3.201  0.7330 -0.7562 -0.9226
   65SAPC  H11Y 5382   3.126   1.451   3.168 -0.7612 -1.3189 -1.4095
   65SAPC  C312 5383   3.247   1.417   3.340  0.3067  0.1042 -0.1998
   65SAPC  H12X 5384   3.281   1.522   3.327 -1.4285  0.3794 -3.4913
   65SAPC  H12Y 5385   3.336   1.363   3.378  1.7138  1.6416 -1.1632
   65SAPC  C313 5386   3.141   1.395   3.448 -0.3261 -0.3282 -0.3286
   65SAPC  H13X 5387   3.118   1.286   3.454  0.2272 -0.3852  1.5304
   65SAPC  H13Y 5388   3.058   1.462   3.416  1.1980  2.6495  1.4973
   65SAPC  C314 5389   3.179   1.466   3.583  0.5950  0.0243  0.0946
   65SAPC  H14X 5390   3.082   1.479   3.636 -1.2667 -0.1862 -3.0010
   65SAPC  H14Y 5391   3.224   1.563   3.556 -0.7121  0.7295  0.3462
   65SAPC  C315 5392   3.290   1.390   3.673 -0.0623  0.4458 -0.4556
   65SAPC  H15X 5393   3.382   1.373   3.613 -0.4470 -0.1560 -0.9032
   65SAPC  H15Y 5394   3.258   1.284   3.686  1.0997  0.1309 -0.1102
   65SAPC  C316 5395   3.314   1.461   3.806  0.0116 -0.5265 -0.8613
   65SAPC  H16X 5396   3.223   1.520   3.825  1.8279  1.4671  2.7396
   65SAPC  H16Y 5397   3.395   1.535   3.786 -0.4350  0.5747  1.1136
   65SAPC  C317 5398   3.340   1.376   3.926  0.5772  0.8480  0.6832
   65SAPC  H17X 5399   3.445   1.339   3.924  0.1479 -0.4164 -0.7253
   65SAPC  H17Y 5400   3.272   1.288   3.926  0.2077  1.1166 -0.2403
   65SAPC  C318 5401   3.327   1.440   4.061 -0.1313  0.5730  0.0196
   65SAPC  H18X 5402   3.388   1.533   4.059  0.2599  0.3260 -2.6537
   65SAPC  H18Y 5403   3.379   1.388   4.144 -0.6993  1.0490  0.6844
   65SAPC  H18Z 5404   3.223   1.465   4.091 -0.0929  1.1188 -0.2964
   66SAPC     N 5405   5.371   2.398   2.600  0.3392 -0.4996  0.1451
   66SAPC   C12 5406   5.306   2.262   2.601  0.1199  0.1448  0.0608
   66SAPC  H12A 5407   5.388   2.191   2.603 -0.9906 -1.2677 -1.9461
   66SAPC  H12B 5408   5.254   2.258   2.507 -0.2964  1.0265  0.2433
   66SAPC   C13 5409   5.460   2.409   2.478 -0.0122 -0.0364 -0.7804
   66SAPC  H13A 5410   5.389   2.392   2.399 -3.2094 -1.9092  2.2101
   66SAPC  H13B 5411   5.512   2.504   2.477  0.1699 -0.0595  1.5089
   66SAPC  H13C 5412   5.540   2.338   2.479  0.8406  0.6285  3.9008
   66SAPC   C14 5413   5.276   2.513   2.614 -0.4034 -0.1834  0.1586
   66SAPC  H14A 5414   5.214   2.515   2.702  0.1345 -0.8478  0.5617
   66SAPC  H14B 5415   5.334   2.605   2.615  0.6293 -0.7858 -1.1695
   66SAPC  H14C 5416   5.207   2.511   2.531 -1.3698 -0.5155  0.9567
   66SAPC   C15 5417   5.463   2.413   2.721  0.4925 -0.0738 -0.2983
   66SAPC  H15A 5418   5.417   2.392   2.817  2.6915 -0.0460  0.8061
   66SAPC  H15B 5419   5.540   2.337   2.727 -0.2597 -0.7497  1.4432
   66SAPC  H15C 5420   5.506   2.511   2.715 -0.5107  0.3231 -1.2089
   66SAPC   C11 5421   5.213   2.230   2.721  0.3121 -0.0406 -0.1404
   66SAPC  H11A 5422   5.252   2.284   2.809  0.6981 -0.7297  0.1175
   66SAPC  H11B 5423   5.210   2.121   2.739  1.8049 -0.0598  0.0976
   66SAPC     P 5424   4.980   2.244   2.583  0.1741 -0.1151  0.2098
   66SAPC   O13 5425   4.846   2.301   2.608  0.0871 -0.0963  0.1251
   66SAPC   O14 5426   5.046   2.277   2.459  0.2422  0.2691  0.5185
   66SAPC   O12 5427   5.075   2.290   2.706  0.4008 -0.2564 -0.1149
   66SAPC   O11 5428   4.979   2.092   2.602  0.2869  0.1016  0.0960
   66SAPC    C1 5429   4.871   2.020   2.658 -0.2017  0.8070 -0.3399
   66SAPC    HA 5430   4.780   2.083   2.669 -0.8439  0.0585 -1.1350
   66SAPC    HB 5431   4.840   1.936   2.591 -0.1372  0.9872 -0.5980
   66SAPC    C2 5432   4.909   1.969   2.804  0.5886  0.0417 -0.6056
   66SAPC    HS 5433   4.826   1.907   2.844 -1.1523  2.3416 -0.4695
   66SAPC   O21 5434   4.941   2.087   2.886 -0.2967  0.4749 -0.4711
   66SAPC   C21 5435   4.842   2.159   2.927  0.9527  0.0147 -0.6792
   66SAPC   O22 5436   4.721   2.140   2.914 -0.1385 -0.3988  0.5333
   66SAPC   C22 5437   4.900   2.277   3.009  0.2168  0.0990  0.5731
   66SAPC   H2R 5438   4.952   2.342   2.936 -3.9843  1.1851 -1.7390
   66SAPC   H2S 5439   4.819   2.334   3.060 -1.5787 -1.0949 -0.8334
   66SAPC    C3 5440   5.029   1.876   2.803  0.6003  0.2130  0.7776
   66SAPC    HX 5441   5.111   1.923   2.744  0.2696 -1.3586 -1.0530
   66SAPC    HY 5442   5.014   1.790   2.734  1.0017 -0.3836  1.4151
   66SAPC   O31 5443   5.068   1.824   2.934 -0.1545  0.5020  0.4085
   66SAPC   C31 5444   5.156   1.901   2.991  0.7974  0.0819  0.7879
   66SAPC   O32 5445   5.226   1.993   2.940  0.1888  0.0786 -0.5044
   66SAPC   C32 5446   5.153   1.866   3.138 -0.2267  0.8762 -0.5424
   66SAPC   H2X 5447   5.167   1.756   3.130 -0.9922  0.6502  0.8995
   66SAPC   H2Y 5448   5.051   1.895   3.170 -0.6658 -0.1277 -1.0177
   66SAPC   C23 5449   4.986   2.221   3.132  0.4886  0.0822 -0.0901
   66SAPC   H3R 5450   5.025   2.314   3.179 -0.3286 -0.0068  0.8020
   66SAPC   H3S 5451   5.064   2.152   3.093  0.2487  0.0854 -0.5762
   66SAPC   C24 5452   4.898   2.153   3.234 -0.0518  0.4515  0.1865
   66SAPC   H4R 5453   4.861   2.056   3.194 -0.9324  1.3249 -1.2039
   66SAPC   H4S 5454   4.804   2.210   3.251 -0.4812 -0.0436 -0.4530
   66SAPC   C25 5455   4.952   2.126   3.371 -0.4656 -0.5168  0.3576
   66SAPC   H5R 5456   5.032   2.197   3.394  0.2402 -0.6455 -1.5664
   66SAPC   C26 5457   4.928   2.031   3.465  0.5781 -0.1710  0.1496
   66SAPC   H6R 5458   4.976   2.033   3.564 -1.2589 -0.4018  1.0898
   66SAPC   C27 5459   4.823   1.924   3.449  0.4528  0.1297 -0.1494
   66SAPC   H7R 5460   4.793   1.913   3.342 -1.8893  0.0725  0.4434
   66SAPC   H7S 5461   4.733   1.961   3.503  0.2420 -0.0081 -0.3991
   66SAPC   C28 5462   4.876   1.791   3.503 -0.4179  0.4378 -0.0905
   66SAPC   H8R 5463   4.951   1.751   3.432  0.8848  1.3407  0.7328
   66SAPC   C29 5464   4.842   1.729   3.617 -0.2360  0.0263  0.6234
   66SAPC   H9R 5465   4.907   1.646   3.648 -0.8495 -2.1310 -3.3031
   66SAPC  C210 5466   4.730   1.773   3.710  0.9481 -0.6586  0.0602
   66SAPC  H10R 5467   4.637   1.714   3.695  0.2646  0.3116  0.3598
   66SAPC  H10S 5468   4.687   1.870   3.679 -1.0905 -1.6415 -0.3812
   66SAPC  C211 5469   4.766   1.786   3.853 -0.2464 -0.3393 -0.1162
   66SAPC  H11R 5470   4.873   1.779   3.879 -0.5408 -1.2044  0.9619
   66SAPC  C212 5471   4.673   1.782   3.956 -0.3114  0.1045  0.1690
   66SAPC  H12R 5472   4.710   1.791   4.060 -2.1340  1.2321  0.7647
   66SAPC  C213 5473   4.522   1.785   3.932 -0.0681 -0.1235  0.3324
   66SAPC  H13R 5474   4.484   1.681   3.945 -0.3625 -0.3154 -1.6653
   66SAPC  H13S 5475   4.497   1.822   3.830 -2.1954  2.9101  1.8005
   66SAPC  C214 5476   4.449   1.884   4.020 -0.0830  0.3527 -0.2021
   66SAPC  H14R 5477   4.431   1.976   3.963  1.1924  0.6961 -0.0752
   66SAPC  C215 5478   4.423   1.863   4.155  0.8287  0.7328 -0.0455
   66SAPC  H15R 5479   4.353   1.939   4.193 -1.0796 -1.0004  0.0501
   66SAPC  C216 5480   4.471   1.749   4.239 -0.3806 -0.1091  0.4765
   66SAPC  H16R 5481   4.560   1.778   4.299  0.6534 -2.3071  0.1043
   66SAPC  H16S 5482   4.504   1.656   4.188  1.0286  0.5917  0.0674
   66SAPC  C217 5483   4.358   1.703   4.335 -0.0655 -0.7666  0.6710
   66SAPC  H17R 5484   4.292   1.781   4.379 -2.1522 -1.3785 -1.2095
   66SAPC  H17S 5485   4.406   1.649   4.420 -1.0818 -4.0032 -0.6457
   66SAPC  C218 5486   4.281   1.590   4.270  0.4114 -0.6126  0.5723
   66SAPC  H18R 5487   4.358   1.522   4.228 -0.9041 -1.1035 -1.1273
   66SAPC  H18S 5488   4.228   1.633   4.182 -1.2696  0.1170  1.8899
   66SAPC  C219 5489   4.192   1.516   4.362 -0.1403 -0.6012 -0.4646
   66SAPC  H19R 5490   4.126   1.585   4.419  1.1432 -0.7659  1.3245
   66SAPC  H19S 5491   4.259   1.469   4.437 -1.7667 -1.7210  0.3371
   66SAPC  C220 5492   4.104   1.407   4.291 -0.6316  0.2831 -0.8913
   66SAPC  H20R 5493   4.090   1.444   4.188 -0.3748 -0.9313 -1.3802
   66SAPC  H20S 5494   4.008   1.387   4.342  0.6449 -0.2531  1.4879
   66SAPC  H20T 5495   4.156   1.308   4.293  0.7040  0.9621  0.4116
   66SAPC   C33 5496   5.261   1.927   3.227 -0.6366 -0.3968 -0.1616
   66SAPC   H3X 5497   5.247   2.037   3.237 -1.5727 -0.3972 -1.1677
   66SAPC   H3Y 5498   5.359   1.908   3.178 -0.2522  1.4539 -0.1891
   66SAPC   C34 5499   5.256   1.845   3.353  0.6778 -0.5619  0.3025
   66SAPC   H4X 5500   5.289   1.740   3.336 -1.9477 -1.2513 -1.1841
   66SAPC   H4Y 5501   5.151   1.850   3.391  0.1668  3.1954 -1.1444
   66SAPC   C35 5502   5.345   1.905   3.456  0.5620 -0.2534 -0.2085
   66SAPC   H5X 5503   5.328   2.014   3.458  4.3218  0.4550  0.8188
   66SAPC   H5Y 5504   5.452   1.899   3.426  0.9499  0.3981  0.9551
   66SAPC   C36 5505   5.328   1.860   3.595 -0.7277  0.3926  0.2331
   66SAPC   H6X 5506   5.234   1.890   3.644 -1.0606 -0.6327  0.2355
   66SAPC   H6Y 5507   5.409   1.902   3.659  0.2357 -1.1116  0.0405
   66SAPC   C37 5508   5.339   1.710   3.616  0.1934 -0.2510  0.3326
   66SAPC   H7X 5509   5.440   1.676   3.584 -0.1257 -2.0345  1.0642
   66SAPC   H7Y 5510   5.276   1.659   3.540 -0.2066  0.9692 -0.1712
   66SAPC   C38 5511   5.319   1.648   3.756 -0.0952  0.3107 -0.3389
   66SAPC   H8X 5512   5.211   1.621   3.758  0.2679 -1.4475 -1.8653
   66SAPC   H8Y 5513   5.351   1.721   3.834  2.1882 -2.7371  1.8288
   66SAPC   C39 5514   5.404   1.520   3.778 -0.0866  0.0800  0.0143
   66SAPC   H9X 5515   5.507   1.557   3.757 -0.2746 -0.6401 -2.5283
   66SAPC   H9Y 5516   5.387   1.436   3.708  1.5502 -0.0285 -0.2972
   66SAPC  C310 5517   5.382   1.465   3.917 -0.8065  0.0679 -0.2794
   66SAPC  H10X 5518   5.443   1.373   3.927  0.2948  0.6275 -1.5036
   66SAPC  H10Y 5519   5.275   1.437   3.927 -0.9938  1.5874  3.2837
   66SAPC  C311 5520   5.424   1.570   4.025 -0.3434  0.6035  0.2798
   66SAPC  H11X 5521   5.344   1.644   4.043 -1.9572 -0.8409 -0.6151
   66SAPC  H11Y 5522   5.511   1.623   3.981 -1.2430  0.8887 -1.2189
   66SAPC  C312 5523   5.462   1.507   4.161 -0.7051 -0.1075  0.1774
   66SAPC  H12X 5524   5.384   1.437   4.195 -1.0492  0.4150  0.4867
   66SAPC  H12Y 5525   5.453   1.597   4.226  0.2567  1.3908 -1.6399
   66SAPC  C313 5526   5.610   1.458   4.160 -0.3391 -0.4331 -0.2736
   66SAPC  H13X 5527   5.682   1.542   4.148 -0.1035 -0.4623  0.8451
   66SAPC  H13Y 5528   5.619   1.386   4.076 -1.3559  1.4900 -2.1208
   66SAPC  C314 5529   5.637   1.400   4.302 -0.9975  0.0133 -0.1385
   66SAPC  H14X 5530   5.551   1.335   4.327 -0.8521  0.3760  1.3931
   66SAPC  H14Y 5531   5.635   1.481   4.378 -0.4198 -0.7732  0.7381
   66SAPC  C315 5532   5.768   1.318   4.306  1.0585  0.4190  0.1490
   66SAPC  H15X 5533   5.849   1.392   4.297  2.0430 -0.5757  0.5952
   66SAPC  H15Y 5534   5.763   1.253   4.216  1.7795  0.0735  0.3529
   66SAPC  C316 5535   5.784   1.250   4.442  0.6342  0.1869  0.6525
   66SAPC  H16X 5536   5.685   1.213   4.476 -0.2253  0.2686 -1.5958
   66SAPC  H16Y 5537   5.803   1.329   4.518  0.5734 -0.4991  1.3915
   66SAPC  C317 5538   5.901   1.155   4.443 -0.3479  0.0530 -0.4072
   66SAPC  H17X 5539   5.989   1.204   4.395  0.0308 -0.5674 -0.3573
   66SAPC  H17Y 5540   5.881   1.064   4.383 -0.4554  0.3954 -0.8952
   66SAPC  C318 5541   5.936   1.126   4.587 -0.0523 -0.1608 -0.6245
   66SAPC  H18X 5542   6.019   1.054   4.600  0.1950  0.4031  1.1465
   66SAPC  H18Y 5543   5.846   1.086   4.637  0.8551 -0.2119  1.0224
   66SAPC  H18Z 5544   5.972   1.218   4.638  2.1468 -1.3653  0.1062
   67SAPC     N 5545   3.412   1.847   1.716  0.0985 -0.2026 -0.0774
   67SAPC   C12 5546   3.304   1.852   1.823  0.6111 -0.9980  0.0742
   67SAPC  H12A 5547   3.210   1.834   1.774  2.3941 -0.1980 -3.9943
   67SAPC  H12B 5548   3.279   1.955   1.843 -1.7526 -1.6537  0.7375
   67SAPC   C13 5549   3.416   1.713   1.642 -0.1278 -0.0341 -0.1056
   67SAPC  H13A 5550   3.329   1.682   1.586  0.0334 -2.1356  0.7434
   67SAPC  H13B 5551   3.500   1.708   1.573 -0.1056  4.2529 -0.7078
   67SAPC  H13C 5552   3.427   1.632   1.712 -1.6622  0.5161  0.7990
   67SAPC   C14 5553   3.385   1.959   1.621  0.2143 -0.2220  0.1058
   67SAPC  H14A 5554   3.300   1.936   1.559 -0.5137  0.3103  0.8719
   67SAPC  H14B 5555   3.362   2.049   1.676 -0.6882  0.6602 -1.6467
   67SAPC  H14C 5556   3.470   1.968   1.556 -1.0508 -0.2501 -1.6281
   67SAPC   C15 5557   3.546   1.871   1.786  0.0907  0.5423 -0.3680
   67SAPC  H15A 5558   3.572   1.800   1.862 -0.4456  0.5439 -0.1823
   67SAPC  H15B 5559   3.625   1.876   1.712 -0.9682 -2.5833 -1.8922
   67SAPC  H15C 5560   3.549   1.967   1.835  1.2129 -0.1261  0.9190
   67SAPC   C11 5561   3.316   1.782   1.958 -0.3174 -0.2498  0.4744
   67SAPC  H11A 5562   3.219   1.793   2.011 -0.0303 -0.4605  1.0500
   67SAPC  H11B 5563   3.394   1.838   2.014 -0.4150  1.7603 -1.2528
   67SAPC     P 5564   3.267   1.532   1.897 -0.1017  0.2645 -0.1679
   67SAPC   O13 5565   3.132   1.575   1.841 -0.4277  0.2615 -1.0908
   67SAPC   O14 5566   3.348   1.447   1.805  0.7315 -0.4208  0.3553
   67SAPC   O12 5567   3.359   1.647   1.950  0.4253  0.4367  0.7213
   67SAPC   O11 5568   3.241   1.449   2.038 -0.0584  0.1767  0.5040
   67SAPC    C1 5569   3.337   1.353   2.073  0.1145  0.9482  0.1978
   67SAPC    HA 5570   3.308   1.250   2.044  3.9487 -0.6450  1.3686
   67SAPC    HB 5571   3.432   1.365   2.015  0.3865  1.4293  0.7313
   67SAPC    C2 5572   3.372   1.354   2.226  0.0786  0.5544  0.7028
   67SAPC    HS 5573   3.286   1.313   2.283 -0.5793  2.8200  1.4408
   67SAPC   O21 5574   3.406   1.484   2.272  0.0001  0.4107 -0.2542
   67SAPC   C21 5575   3.311   1.570   2.308 -0.4344 -0.3289  0.0312
   67SAPC   O22 5576   3.189   1.561   2.296 -0.0317  0.3101 -0.3037
   67SAPC   C22 5577   3.371   1.686   2.382  0.0498 -0.2753 -0.7645
   67SAPC   H2R 5578   3.481   1.678   2.364  0.2599 -0.2125  0.3956
   67SAPC   H2S 5579   3.327   1.777   2.337 -1.2585 -0.6397 -0.2577
   67SAPC    C3 5580   3.491   1.265   2.258 -0.2874  0.3383  0.4889
   67SAPC    HX 5581   3.580   1.299   2.200 -0.3779 -0.5878 -0.2227
   67SAPC    HY 5582   3.472   1.162   2.221  1.0512  0.9819 -2.2845
   67SAPC   O31 5583   3.512   1.267   2.406 -0.1500  0.6334  0.0124
   67SAPC   C31 5584   3.607   1.348   2.436 -0.0001 -0.1316 -0.5111
   67SAPC   O32 5585   3.655   1.437   2.364  0.1322 -0.0565  0.6393
   67SAPC   C32 5586   3.658   1.303   2.573  0.1076 -0.0067  0.1637
   67SAPC   H2X 5587   3.670   1.193   2.564 -0.5261 -0.0527 -0.1043
   67SAPC   H2Y 5588   3.582   1.317   2.653 -2.0789 -0.3214 -1.7725
   67SAPC   C23 5589   3.339   1.693   2.536  0.0019  0.5355 -0.1012
   67SAPC   H3R 5590   3.389   1.609   2.588 -3.3927 -2.6187 -1.5044
   67SAPC   H3S 5591   3.234   1.658   2.545  0.2684 -0.5017 -0.8363
   67SAPC   C24 5592   3.371   1.829   2.606  0.2350  0.5835  0.5504
   67SAPC   H4R 5593   3.334   1.815   2.710  1.1376 -0.1669  0.7894
   67SAPC   H4S 5594   3.306   1.904   2.557  0.8982  1.1428  0.5040
   67SAPC   C25 5595   3.519   1.888   2.598 -0.4227 -1.2212 -0.3935
   67SAPC   H5R 5596   3.570   1.901   2.501  1.8217  1.3433  0.9990
   67SAPC   C26 5597   3.578   1.945   2.706  0.7974 -0.2299 -0.1249
   67SAPC   H6R 5598   3.678   1.986   2.686  1.6070 -2.1346 -0.2965
   67SAPC   C27 5599   3.533   1.947   2.847  0.1581  0.0720  0.2166
   67SAPC   H7R 5600   3.428   1.915   2.864  0.3725 -0.4555  0.6215
   67SAPC   H7S 5601   3.528   2.053   2.879 -1.1227  0.7074 -1.8968
   67SAPC   C28 5602   3.636   1.868   2.928 -0.1870  1.1565 -0.1887
   67SAPC   H8R 5603   3.717   1.813   2.878  1.6536  2.3986  1.2631
   67SAPC   C29 5604   3.629   1.863   3.065 -0.3738 -0.7476 -0.1408
   67SAPC   H9R 5605   3.701   1.805   3.125 -1.9538 -1.8181  0.8091
   67SAPC  C210 5606   3.511   1.920   3.135  1.0232 -0.1177 -0.1938
   67SAPC  H10R 5607   3.439   1.842   3.168  1.0089 -1.0845 -2.3241
   67SAPC  H10S 5608   3.466   1.999   3.072  0.9887  0.7991  0.9587
   67SAPC  C211 5609   3.572   1.999   3.249 -0.1205 -0.0712 -0.4627
   67SAPC  H11R 5610   3.607   2.095   3.209 -1.3725 -0.4490 -2.6064
   67SAPC  C212 5611   3.575   1.964   3.384 -0.4388  0.1751  0.6856
   67SAPC  H12R 5612   3.629   2.026   3.457  1.4474 -1.2959  0.6240
   67SAPC  C213 5613   3.550   1.830   3.455 -0.2457 -0.7269  0.1483
   67SAPC  H13R 5614   3.642   1.769   3.466 -0.5927 -1.3881 -0.4959
   67SAPC  H13S 5615   3.490   1.769   3.384 -0.0871  2.5626 -3.1124
   67SAPC  C214 5616   3.461   1.831   3.577 -0.3506 -0.2541  0.6610
   67SAPC  H14R 5617   3.355   1.849   3.554  0.1767 -0.1502 -2.1384
   67SAPC  C215 5618   3.504   1.822   3.698  0.0046  0.4363 -0.9962
   67SAPC  H15R 5619   3.432   1.836   3.780  0.4697 -0.7077 -0.3637
   67SAPC  C216 5620   3.649   1.805   3.744  0.7586  0.4829  0.1148
   67SAPC  H16R 5621   3.717   1.846   3.666  2.1990 -1.9551 -0.0070
   67SAPC  H16S 5622   3.676   1.700   3.770  2.1077  1.5046  3.3186
   67SAPC  C217 5623   3.667   1.873   3.879  0.2829 -0.0749 -0.1769
   67SAPC  H17R 5624   3.620   1.818   3.963  0.4657  1.6346  1.0941
   67SAPC  H17S 5625   3.640   1.981   3.881  1.6171  0.4050 -2.7671
   67SAPC  C218 5626   3.812   1.870   3.916  0.0919  0.3108  0.0365
   67SAPC  H18R 5627   3.814   1.942   4.001 -2.3962  1.6782 -0.9802
   67SAPC  H18S 5628   3.882   1.903   3.836  0.7019 -0.3420  0.2794
   67SAPC  C219 5629   3.852   1.737   3.983  0.0184 -0.0816  0.8599
   67SAPC  H19R 5630   3.821   1.653   3.916 -0.5655  0.4342  0.4729
   67SAPC  H19S 5631   3.791   1.742   4.076  0.8133 -1.0031  1.4454
   67SAPC  C220 5632   3.999   1.724   4.018  0.1733 -0.0005 -0.7265
   67SAPC  H20R 5633   3.990   1.772   4.117 -1.5301 -1.2770 -0.2270
   67SAPC  H20S 5634   4.062   1.788   3.952 -0.6139  1.3991 -0.1577
   67SAPC  H20T 5635   4.044   1.623   4.027 -1.6668 -0.9967 -2.1224
   67SAPC   C33 5636   3.785   1.365   2.616 -0.5525  0.4656  0.1127
   67SAPC   H3X 5637   3.840   1.415   2.534 -1.9531  1.1037 -0.4728
   67SAPC   H3Y 5638   3.846   1.284   2.661 -0.1381  1.1729  0.8363
   67SAPC   C34 5639   3.752   1.462   2.735  0.1660 -0.2054  0.2381
   67SAPC   H4X 5640   3.676   1.539   2.708  1.6482  1.2666  0.0627
   67SAPC   H4Y 5641   3.841   1.521   2.767 -1.5078  2.1014  0.9348
   67SAPC   C35 5642   3.714   1.403   2.867  0.1843 -0.5974  0.1994
   67SAPC   H5X 5643   3.787   1.321   2.881  0.3033 -0.4665  0.3544
   67SAPC   H5Y 5644   3.615   1.353   2.855  0.2526 -1.0053  1.2171
   67SAPC   C36 5645   3.714   1.492   2.992 -0.4057  0.7934 -0.2974
   67SAPC   H6X 5646   3.627   1.559   2.980 -0.7785  0.5438  0.8972
   67SAPC   H6Y 5647   3.816   1.536   2.998  0.4114 -0.9521 -0.6756
   67SAPC   C37 5648   3.667   1.409   3.117 -0.4912 -0.5954  0.3402
   67SAPC   H7X 5649   3.752   1.342   3.144  1.0156  1.2495  0.4531
   67SAPC   H7Y 5650   3.589   1.339   3.081  0.5559 -0.9726 -1.3545
   67SAPC   C38 5651   3.631   1.497   3.229 -0.3179 -0.7834 -0.0629
   67SAPC   H8X 5652   3.527   1.527   3.200 -1.7293 -2.1605  3.1174
   67SAPC   H8Y 5653   3.697   1.586   3.234  0.3503 -1.1355 -1.7581
   67SAPC   C39 5654   3.619   1.423   3.357 -0.1378  1.2075  0.5900
   67SAPC   H9X 5655   3.556   1.333   3.341 -3.1555  3.2357  0.3448
   67SAPC   H9Y 5656   3.566   1.479   3.437  0.8426 -0.4595  2.5171
   67SAPC  C310 5657   3.752   1.386   3.416 -0.4923 -0.4074 -0.3599
   67SAPC  H10X 5658   3.819   1.474   3.404 -2.6841  1.2728 -0.7451
   67SAPC  H10Y 5659   3.787   1.303   3.350  2.7484 -0.0133  0.6622
   67SAPC  C311 5660   3.755   1.346   3.564  0.2250 -0.0796  0.3264
   67SAPC  H11X 5661   3.844   1.288   3.595 -0.4176  0.3911  3.3294
   67SAPC  H11Y 5662   3.670   1.279   3.589 -0.9225  1.6640  1.3009
   67SAPC  C312 5663   3.752   1.469   3.664 -0.1304  1.0932 -0.0236
   67SAPC  H12X 5664   3.660   1.525   3.637 -0.2131  0.7861 -0.3898
   67SAPC  H12Y 5665   3.839   1.534   3.638  2.0885 -2.4672 -2.4022
   67SAPC  C313 5666   3.741   1.406   3.804 -0.6680 -0.2237  0.7063
   67SAPC  H13X 5667   3.662   1.328   3.802  0.6355 -1.5915  1.2190
   67SAPC  H13Y 5668   3.704   1.493   3.863 -0.0379 -0.6280  1.7113
   67SAPC  C314 5669   3.865   1.346   3.863 -0.0746  0.2017 -0.0747
   67SAPC  H14X 5670   3.941   1.422   3.894  1.7821 -1.7986  0.5499
   67SAPC  H14Y 5671   3.915   1.287   3.782 -1.3029 -0.0245 -0.6848
   67SAPC  C315 5672   3.830   1.254   3.984  0.3677  0.1825 -0.3477
   67SAPC  H15X 5673   3.914   1.197   4.029 -0.5196 -0.0405  1.0499
   67SAPC  H15Y 5674   3.763   1.172   3.950  2.1157 -1.1521 -0.7544
   67SAPC  C316 5675   3.775   1.330   4.099 -0.6067 -0.2649 -0.4310
   67SAPC  H16X 5676   3.705   1.400   4.048 -0.8605  0.2186  0.5577
   67SAPC  H16Y 5677   3.860   1.387   4.141  0.8158 -2.0929 -0.6787
   67SAPC  C317 5678   3.700   1.255   4.209  0.0360 -0.2358  0.1361
   67SAPC  H17X 5679   3.744   1.154   4.222  2.9957  0.8646 -0.5448
   67SAPC  H17Y 5680   3.599   1.230   4.172 -0.1960 -0.4901  0.9281
   67SAPC  C318 5681   3.678   1.342   4.324 -0.2076  0.3621 -0.0762
   67SAPC  H18X 5682   3.598   1.418   4.308  0.3339  0.5567 -2.0193
   67SAPC  H18Y 5683   3.772   1.400   4.336 -1.7981  3.3757 -1.1375
   67SAPC  H18Z 5684   3.661   1.285   4.418 -0.6765  1.5069  0.5511
   68SAPC     N 5685   5.233   0.941   2.111 -0.0901 -0.5022 -0.0208
   68SAPC   C12 5686   5.129   1.041   2.077  0.3304  0.3611  0.2134
   68SAPC  H12A 5687   5.037   0.989   2.053 -0.4128  0.8446  1.8693
   68SAPC  H12B 5688   5.164   1.095   1.991 -0.4160  0.5042 -0.0023
   68SAPC   C13 5689   5.202   0.873   2.241  0.8754  0.7856 -0.4072
   68SAPC  H13A 5690   5.290   0.839   2.294  0.2184  0.3357  0.4150
   68SAPC  H13B 5691   5.158   0.947   2.305  1.1591  0.9344 -0.3806
   68SAPC  H13C 5692   5.129   0.794   2.231 -1.0575  2.2126  1.5813
   68SAPC   C14 5693   5.225   0.825   2.014  0.1626 -0.6475  1.1483
   68SAPC  H14A 5694   5.261   0.868   1.921 -2.0244  2.4705  1.5739
   68SAPC  H14B 5695   5.302   0.753   2.036  0.4332 -0.4011  1.0129
   68SAPC  H14C 5696   5.120   0.801   2.024 -0.5946  0.7962 -2.0234
   68SAPC   C15 5697   5.366   0.997   2.129  0.5785  0.1122  0.1158
   68SAPC  H15A 5698   5.355   1.077   2.200 -1.4998  1.1533 -1.2733
   68SAPC  H15B 5699   5.443   0.925   2.150  0.8944  0.2801 -0.4603
   68SAPC  H15C 5700   5.403   1.040   2.037  1.9162  0.1945  0.6710
   68SAPC   C11 5701   5.081   1.133   2.183 -0.4405  0.0986  0.4581
   68SAPC  H11A 5702   5.007   1.088   2.254 -0.4619 -1.3233 -0.4311
   68SAPC  H11B 5703   5.026   1.211   2.126  1.7743  1.3973  0.0077
   68SAPC     P 5704   5.242   1.336   2.202  0.1392  0.2706 -0.1888
   68SAPC   O13 5705   5.380   1.348   2.255 -0.0089 -0.0961 -0.1431
   68SAPC   O14 5706   5.231   1.344   2.057 -0.8044 -0.0472 -0.2614
   68SAPC   O12 5707   5.184   1.196   2.264 -0.0814  0.0601  0.9659
   68SAPC   O11 5708   5.154   1.451   2.272 -0.1759  0.7455 -0.2556
   68SAPC    C1 5709   5.093   1.431   2.403 -0.0298  0.3672  0.6868
   68SAPC    HA 5710   5.060   1.328   2.426  0.0809  0.2762  0.4461
   68SAPC    HB 5711   5.158   1.470   2.484 -0.3038 -1.0830  1.6418
   68SAPC    C2 5712   4.957   1.504   2.399 -0.6152  0.5042  0.9358
   68SAPC    HS 5713   4.973   1.610   2.372 -0.4494  0.4939  0.9946
   68SAPC   O21 5714   4.905   1.482   2.527  0.0072 -0.2556  0.2954
   68SAPC   C21 5715   4.819   1.580   2.565 -0.3415 -0.0630  0.2519
   68SAPC   O22 5716   4.784   1.668   2.492 -0.7125  0.1031  0.2815
   68SAPC   C22 5717   4.770   1.554   2.700  0.8207 -0.0149 -0.0864
   68SAPC   H2R 5718   4.759   1.444   2.701 -0.1633  0.0559 -0.6990
   68SAPC   H2S 5719   4.849   1.564   2.777 -0.3451 -1.7099  1.4038
   68SAPC    C3 5720   4.868   1.445   2.283  0.1378  0.1926  0.2754
   68SAPC    HX 5721   4.920   1.448   2.185 -0.9722  0.2790 -0.3284
   68SAPC    HY 5722   4.771   1.500   2.277  0.5155  0.9267  0.7680
   68SAPC   O31 5723   4.839   1.305   2.310 -0.3634  0.6840 -0.1315
   68SAPC   C31 5724   4.718   1.263   2.350  0.3559 -0.2176  0.8377
   68SAPC   O32 5725   4.616   1.328   2.330 -0.2318  0.0077 -0.1885
   68SAPC   C32 5726   4.734   1.137   2.428 -0.0376  0.6238  0.0151
   68SAPC   H2X 5727   4.833   1.116   2.474 -1.2748 -3.7663  1.2187
   68SAPC   H2Y 5728   4.753   1.067   2.344 -0.5315  0.1889  0.2591
   68SAPC   C23 5729   4.640   1.622   2.739  0.2527 -0.3397 -0.0482
   68SAPC   H3R 5730   4.555   1.605   2.669  1.7553 -0.5077 -1.8982
   68SAPC   H3S 5731   4.664   1.729   2.722 -0.1581 -0.0427  1.1751
   68SAPC   C24 5732   4.591   1.615   2.884 -0.1465  0.6796  0.4003
   68SAPC   H4R 5733   4.676   1.644   2.949 -2.8087  2.6492  3.3554
   68SAPC   H4S 5734   4.562   1.513   2.917  0.4135  0.5802  0.5986
   68SAPC   C25 5735   4.476   1.707   2.898  0.4396  0.1687  0.2215
   68SAPC   H5R 5736   4.395   1.690   2.826  1.1192 -0.7306 -0.3476
   68SAPC   C26 5737   4.453   1.792   2.996 -0.5144 -0.3338 -0.4171
   68SAPC   H6R 5738   4.356   1.844   2.993 -1.2612 -1.6183  0.5181
   68SAPC   C27 5739   4.540   1.823   3.121  0.3069  0.6901  0.6194
   68SAPC   H7R 5740   4.567   1.930   3.115  1.1336  0.6388  2.6518
   68SAPC   H7S 5741   4.632   1.760   3.118 -0.2196 -0.1211  1.0094
   68SAPC   C28 5742   4.476   1.794   3.254  0.3845 -0.3034 -0.4006
   68SAPC   H8R 5743   4.399   1.871   3.271  0.8522  0.1285 -0.1957
   68SAPC   C29 5744   4.515   1.715   3.353 -0.7412 -0.0856 -0.9182
   68SAPC   H9R 5745   4.463   1.711   3.450  0.6777  1.7524 -0.0161
   68SAPC  C210 5746   4.620   1.601   3.336 -0.5682 -0.1371  0.4801
   68SAPC  H10R 5747   4.721   1.646   3.324 -0.2668 -1.3911 -2.3741
   68SAPC  H10S 5748   4.601   1.550   3.239 -0.0887 -0.7707  0.7122
   68SAPC  C211 5749   4.616   1.482   3.436 -0.0797 -0.3465 -0.4605
   68SAPC  H11R 5750   4.707   1.475   3.497  0.4497  1.9853 -0.8914
   68SAPC  C212 5751   4.519   1.408   3.479  0.0800  0.2524 -0.6351
   68SAPC  H12R 5752   4.543   1.333   3.556 -0.2389  0.9370  0.1526
   68SAPC  C213 5753   4.378   1.403   3.428  0.4805 -0.2150  0.3842
   68SAPC  H13R 5754   4.364   1.434   3.323  2.3626 -3.2266 -0.8750
   68SAPC  H13S 5755   4.332   1.483   3.491  0.8645  0.1499  0.2025
   68SAPC  C214 5756   4.305   1.273   3.462 -0.4784 -0.4942  0.2749
   68SAPC  H14R 5757   4.268   1.253   3.563  0.4179 -2.7763  0.2262
   68SAPC  C215 5758   4.282   1.170   3.381 -0.0492 -0.3998 -0.6204
   68SAPC  H15R 5759   4.220   1.087   3.416 -0.7059  0.0952 -0.6046
   68SAPC  C216 5760   4.327   1.151   3.241  0.4473 -0.4806 -0.4236
   68SAPC  H16R 5761   4.361   1.046   3.229  0.8103 -0.2440 -1.6093
   68SAPC  H16S 5762   4.424   1.206   3.237  1.9563 -2.8418  0.9556
   68SAPC  C217 5763   4.228   1.211   3.140 -0.0087  0.5841  0.0453
   68SAPC  H17R 5764   4.232   1.321   3.157 -0.3917  0.4967  0.7245
   68SAPC  H17S 5765   4.127   1.167   3.154 -0.2224 -0.4834 -3.7593
   68SAPC  C218 5766   4.265   1.199   2.998  0.6283 -0.2365  0.0972
   68SAPC  H18R 5767   4.274   1.092   2.971 -1.8025 -0.8888  1.5407
   68SAPC  H18S 5768   4.360   1.252   2.974  0.4746 -0.1173 -0.2626
   68SAPC  C219 5769   4.159   1.267   2.903  0.3579 -0.4205 -0.3030
   68SAPC  H19R 5770   4.157   1.378   2.903 -1.4370 -0.4305  0.2005
   68SAPC  H19S 5771   4.057   1.244   2.941 -1.0883  4.4968 -0.5079
   68SAPC  C220 5772   4.178   1.215   2.762 -0.1085 -0.3222  0.5667
   68SAPC  H20R 5773   4.183   1.105   2.772  4.3975 -0.5464 -1.3806
   68SAPC  H20S 5774   4.280   1.240   2.724 -1.0850  0.6680 -1.5605
   68SAPC  H20T 5775   4.111   1.240   2.677  1.7959 -2.2410 -1.6734
   68SAPC   C33 5776   4.611   1.071   2.507  1.2677 -0.0299  0.4989
   68SAPC   H3X 5777   4.630   0.965   2.534  0.9110 -0.1781  0.1768
   68SAPC   H3Y 5778   4.522   1.061   2.441  0.9177 -1.7571  1.1727
   68SAPC   C34 5779   4.572   1.153   2.637 -0.2762  0.1566  0.6537
   68SAPC   H4X 5780   4.480   1.100   2.671 -1.0201 -0.1623 -1.6571
   68SAPC   H4Y 5781   4.535   1.252   2.602  0.5686  0.4634  0.6047
   68SAPC   C35 5782   4.685   1.152   2.744  0.6108  0.2396 -0.6350
   68SAPC   H5X 5783   4.771   1.212   2.707  0.5145  0.5660 -0.3334
   68SAPC   H5Y 5784   4.730   1.053   2.766  4.5181  1.9400 -0.1678
   68SAPC   C36 5785   4.641   1.221   2.871  0.1574  0.1931  0.0683
   68SAPC   H6X 5786   4.578   1.153   2.931 -2.4680  1.4224 -1.1223
   68SAPC   H6Y 5787   4.569   1.302   2.845 -1.2009  0.1937  3.3910
   68SAPC   C37 5788   4.741   1.281   2.963 -0.0208  0.3310  0.1215
   68SAPC   H7X 5789   4.700   1.344   3.045  1.3526  0.1874  0.9397
   68SAPC   H7Y 5790   4.785   1.362   2.901 -1.5603  1.3775  0.3456
   68SAPC   C38 5791   4.847   1.186   2.996  0.5465  0.0791  0.3184
   68SAPC   H8X 5792   4.935   1.236   3.042  0.3973 -0.9189  1.7540
   68SAPC   H8Y 5793   4.899   1.132   2.914  1.8587 -1.1254  1.8613
   68SAPC   C39 5794   4.799   1.077   3.097 -1.0011 -0.5712  0.1600
   68SAPC   H9X 5795   4.879   1.000   3.103  0.6898  0.9853 -1.2182
   68SAPC   H9Y 5796   4.710   1.031   3.049 -1.0806 -0.9279  0.6510
   68SAPC  C310 5797   4.783   1.128   3.239  0.2533  0.1320  0.4858
   68SAPC  H10X 5798   4.728   1.224   3.245 -1.5461 -0.6942 -1.4689
   68SAPC  H10Y 5799   4.884   1.140   3.285 -0.3744 -0.1661  2.0264
   68SAPC  C311 5800   4.714   1.026   3.330 -0.4398  0.3959 -0.0258
   68SAPC  H11X 5801   4.765   0.927   3.326 -0.4793  0.3935 -0.5624
   68SAPC  H11Y 5802   4.612   1.007   3.292 -0.1387 -0.4573 -0.4566
   68SAPC  C312 5803   4.714   1.074   3.478 -0.7192  0.1826  0.1209
   68SAPC  H12X 5804   4.646   1.161   3.486 -2.9976 -1.5129  0.2407
   68SAPC  H12Y 5805   4.819   1.105   3.501 -0.4702 -2.2970  3.0047
   68SAPC  C313 5806   4.663   0.970   3.568  0.1574 -0.4041 -1.1587
   68SAPC  H13X 5807   4.721   0.876   3.577 -0.2747 -0.4871  1.3493
   68SAPC  H13Y 5808   4.558   0.947   3.538 -0.6433  0.5760  0.7458
   68SAPC  C314 5809   4.641   1.025   3.712 -1.2632  0.1803 -0.2739
   68SAPC  H14X 5810   4.618   0.948   3.789 -1.7493  0.9173  0.3247
   68SAPC  H14Y 5811   4.555   1.094   3.712 -1.2857  0.1523 -0.2786
   68SAPC  C315 5812   4.768   1.092   3.759  0.1051 -0.8025  0.0827
   68SAPC  H15X 5813   4.805   1.169   3.688  1.1259 -2.3143 -1.1069
   68SAPC  H15Y 5814   4.846   1.013   3.763 -0.7034 -1.5628  2.4157
   68SAPC  C316 5815   4.760   1.161   3.893  0.4283  0.3634  0.5604
   68SAPC  H16X 5816   4.712   1.103   3.975  0.5335 -1.6591 -0.7443
   68SAPC  H16Y 5817   4.690   1.242   3.864  0.5940  0.4170  0.3080
   68SAPC  C317 5818   4.889   1.227   3.943 -0.4276 -0.4530  0.1204
   68SAPC  H17X 5819   4.860   1.299   4.023 -1.9593 -1.0818  0.1692
   68SAPC  H17Y 5820   4.927   1.280   3.853  2.2241 -1.4193  0.5759
   68SAPC  C318 5821   5.001   1.134   3.994  0.4982 -0.6802 -0.0105
   68SAPC  H18X 5822   5.096   1.186   4.019 -0.4312 -0.0620  2.4859
   68SAPC  H18Y 5823   5.033   1.062   3.915  1.5894  0.5936 -0.7819
   68SAPC  H18Z 5824   4.976   1.073   4.083 -1.6585 -0.1877 -0.2386
   69SAPC     N 5825   4.297   5.692   1.759  0.0274 -0.7841  0.3749
   69SAPC   C12 5826   4.297   5.817   1.846 -0.1486  0.5616 -0.1039
   69SAPC  H12A 5827   4.205   5.826   1.903 -0.2319 -2.2592  0.3475
   69SAPC  H12B 5828   4.309   5.906   1.786  1.0740  0.3179 -0.2352
   69SAPC   C13 5829   4.176   5.710   1.668 -0.4585  0.2541 -0.0989
   69SAPC  H13A 5830   4.088   5.684   1.726  0.3153 -0.8290  0.6561
   69SAPC  H13B 5831   4.169   5.811   1.631  1.5749  0.3850 -0.2408
   69SAPC  H13C 5832   4.183   5.642   1.585 -1.9129  0.0997 -0.1110
   69SAPC   C14 5833   4.427   5.703   1.681  0.1267 -0.3121 -0.2940
   69SAPC  H14A 5834   4.506   5.716   1.754 -0.6379 -1.7282  0.8200
   69SAPC  H14B 5835   4.446   5.606   1.638  0.1468 -0.5748  0.2985
   69SAPC  H14C 5836   4.433   5.779   1.604  1.1706 -0.5345 -0.4449
   69SAPC   C15 5837   4.290   5.570   1.835 -0.3001  0.4332  0.0029
   69SAPC  H15A 5838   4.282   5.490   1.762  1.8824  0.6425 -0.5409
   69SAPC  H15B 5839   4.370   5.564   1.908 -1.0398 -1.5874  0.7148
   69SAPC  H15C 5840   4.209   5.575   1.905  0.8955  0.9397  1.3972
   69SAPC   C11 5841   4.425   5.835   1.937  0.1134 -1.0444  0.3348
   69SAPC  H11A 5842   4.432   5.943   1.962 -0.1534 -0.9799  0.1364
   69SAPC  H11B 5843   4.525   5.813   1.893  0.4272  0.0663  0.4631
   69SAPC     P 5844   4.513   5.679   2.124 -0.1216 -0.3743  0.1267
   69SAPC   O13 5845   4.544   5.557   2.061 -0.1868  0.3378  0.7793
   69SAPC   O14 5846   4.629   5.769   2.131 -0.1563 -0.1295 -0.8977
   69SAPC   O12 5847   4.399   5.754   2.044 -0.9300  0.5642 -0.7516
   69SAPC   O11 5848   4.455   5.657   2.264 -0.0511 -0.2294  0.1547
   69SAPC    C1 5849   4.471   5.747   2.375  0.0038  0.4882 -0.4213
   69SAPC    HA 5850   4.573   5.790   2.370  1.4992 -2.4625  1.6039
   69SAPC    HB 5851   4.403   5.833   2.358 -1.9227 -0.9158 -0.1093
   69SAPC    C2 5852   4.473   5.683   2.517 -0.6333 -0.1204 -0.3408
   69SAPC    HS 5853   4.507   5.766   2.582 -1.8099  0.5622 -0.5560
   69SAPC   O21 5854   4.547   5.560   2.529  0.3202  0.1608 -0.9186
   69SAPC   C21 5855   4.678   5.570   2.526  0.1979 -0.2473  0.3093
   69SAPC   O22 5856   4.740   5.679   2.508  0.1183 -0.0168  0.5692
   69SAPC   C22 5857   4.733   5.437   2.556 -0.8527  0.4808  0.3919
   69SAPC   H2R 5858   4.699   5.406   2.657 -1.2803 -0.7697 -0.1153
   69SAPC   H2S 5859   4.687   5.369   2.481 -1.1099  1.8865 -0.7737
   69SAPC    C3 5860   4.324   5.659   2.565 -0.0778 -1.2133 -0.3497
   69SAPC    HX 5861   4.285   5.565   2.522 -1.4687 -1.0927  0.5992
   69SAPC    HY 5862   4.266   5.742   2.519 -1.6408 -2.4327 -0.6702
   69SAPC   O31 5863   4.316   5.666   2.705 -0.7622 -0.1749 -0.1653
   69SAPC   C31 5864   4.294   5.547   2.765  0.5994  0.0633 -0.9982
   69SAPC   O32 5865   4.273   5.443   2.704  0.0111 -0.3311  0.3964
   69SAPC   C32 5866   4.277   5.568   2.916 -0.2449 -0.0671 -0.3034
   69SAPC   H2X 5867   4.174   5.603   2.936 -0.4128  0.4424 -1.8655
   69SAPC   H2Y 5868   4.350   5.647   2.945 -1.5448  1.1913 -0.3638
   69SAPC   C23 5869   4.891   5.440   2.553  0.7495  0.2283  0.1986
   69SAPC   H3R 5870   4.930   5.518   2.484 -1.0899 -0.4632 -1.7439
   69SAPC   H3S 5871   4.916   5.342   2.506 -0.2812 -0.2094  0.5475
   69SAPC   C24 5872   4.958   5.454   2.688  0.1968  0.7412 -0.2539
   69SAPC   H4R 5873   5.069   5.458   2.681  0.2789 -0.4399  0.0593
   69SAPC   H4S 5874   4.934   5.358   2.740  1.5829 -0.8569 -2.4002
   69SAPC   C25 5875   4.897   5.569   2.759 -0.1605 -0.3355 -0.1726
   69SAPC   H5R 5876   4.902   5.663   2.702 -0.6222  0.2589  0.7432
   69SAPC   C26 5877   4.846   5.569   2.887  0.5453  0.8141 -0.9240
   69SAPC   H6R 5878   4.805   5.662   2.929  1.3909  1.1468 -0.8114
   69SAPC   C27 5879   4.810   5.456   2.981 -0.3210  0.2599  1.0264
   69SAPC   H7R 5880   4.869   5.370   2.942 -1.2134  0.4315 -0.7874
   69SAPC   H7S 5881   4.702   5.433   2.972 -0.4947  1.5300 -0.5465
   69SAPC   C28 5882   4.872   5.477   3.117  0.5092 -0.5682 -0.1018
   69SAPC   H8R 5883   4.978   5.506   3.119  0.3253  0.1077  0.0348
   69SAPC   C29 5884   4.798   5.496   3.229 -0.3877  0.2886  0.3643
   69SAPC   H9R 5885   4.850   5.520   3.322 -0.5607 -1.3250  0.9023
   69SAPC  C210 5886   4.645   5.503   3.231  0.3113  0.4192  0.1479
   69SAPC  H10R 5887   4.615   5.402   3.263  0.2730  0.1827 -0.6241
   69SAPC  H10S 5888   4.594   5.513   3.133 -0.4720  1.5833  0.6504
   69SAPC  C211 5889   4.579   5.615   3.308  0.1387  0.0100  0.4995
   69SAPC  H11R 5890   4.560   5.708   3.252  0.3265 -0.0450  0.3431
   69SAPC  C212 5891   4.527   5.613   3.433  0.1131 -0.3218  0.6090
   69SAPC  H12R 5892   4.478   5.706   3.465  0.8910 -0.0829  1.1396
   69SAPC  C213 5893   4.529   5.505   3.538  0.7719 -0.2764  0.2560
   69SAPC  H13R 5894   4.601   5.524   3.620  0.8842  1.0016 -0.1138
   69SAPC  H13S 5895   4.558   5.409   3.490 -0.0462 -0.9512  1.0854
   69SAPC  C214 5896   4.387   5.505   3.588 -0.1169 -0.3316  1.1252
   69SAPC  H14R 5897   4.319   5.583   3.552  1.2176  0.4587  0.2312
   69SAPC  C215 5898   4.354   5.430   3.689 -0.0585 -0.4773  0.2834
   69SAPC  H15R 5899   4.256   5.448   3.736  0.4433 -1.6409  1.8558
   69SAPC  C216 5900   4.427   5.319   3.761  0.0973 -0.7681  0.6738
   69SAPC  H16R 5901   4.479   5.358   3.850  1.2636  0.0463 -0.3380
   69SAPC  H16S 5902   4.502   5.273   3.693  1.3627  4.2719 -1.7506
   69SAPC  C217 5903   4.337   5.208   3.831  0.7581 -0.2543  0.5782
   69SAPC  H17R 5904   4.388   5.110   3.820 -2.5410 -1.8861 -2.0678
   69SAPC  H17S 5905   4.245   5.198   3.770  0.6547  1.5676  0.4046
   69SAPC  C218 5906   4.287   5.246   3.976 -0.0804  0.3900 -0.1320
   69SAPC  H18R 5907   4.211   5.173   4.011 -0.0835  1.4978  2.3413
   69SAPC  H18S 5908   4.240   5.347   3.965  0.4784  0.7242  0.4993
   69SAPC  C219 5909   4.403   5.245   4.076 -0.4597 -0.3612  0.5899
   69SAPC  H19R 5910   4.472   5.330   4.055 -1.9386  0.1940 -2.5336
   69SAPC  H19S 5911   4.457   5.152   4.050  0.8043  0.2649  0.9242
   69SAPC  C220 5912   4.365   5.243   4.224 -0.4706  0.1511 -0.2205
   69SAPC  H20R 5913   4.278   5.177   4.244 -0.0111 -0.0496  1.2418
   69SAPC  H20S 5914   4.339   5.347   4.253 -0.1174  0.0763  0.3736
   69SAPC  H20T 5915   4.454   5.224   4.288 -0.4156 -1.2680 -0.6842
   69SAPC   C33 5916   4.312   5.448   2.999  0.5540 -0.6019 -0.2591
   69SAPC   H3X 5917   4.419   5.420   2.994  0.6757 -0.2903  0.4336
   69SAPC   H3Y 5918   4.258   5.357   2.967 -0.6438 -0.2035  0.5772
   69SAPC   C34 5919   4.267   5.467   3.150  0.6258 -0.0050 -0.1933
   69SAPC   H4X 5920   4.172   5.523   3.158  1.2122  0.9814  0.1162
   69SAPC   H4Y 5921   4.342   5.527   3.206  0.9766 -0.5938 -0.0200
   69SAPC   C35 5922   4.263   5.331   3.228 -0.6554 -0.1326  0.2750
   69SAPC   H5X 5923   4.256   5.360   3.335 -2.2125  1.2094 -0.1628
   69SAPC   H5Y 5924   4.355   5.269   3.211 -0.9609  0.0408 -2.4585
   69SAPC   C36 5925   4.155   5.240   3.175 -0.3833  0.5564 -0.4035
   69SAPC   H6X 5926   4.180   5.209   3.071  0.2952 -1.4324  0.2875
   69SAPC   H6Y 5927   4.060   5.292   3.156 -0.9495 -1.0583 -2.3401
   69SAPC   C37 5928   4.133   5.107   3.255 -0.2446  0.1452 -0.6027
   69SAPC   H7X 5929   4.225   5.045   3.250  1.7774  2.9092 -0.0195
   69SAPC   H7Y 5930   4.054   5.059   3.194 -1.7293  0.4803  0.9606
   69SAPC   C38 5931   4.089   5.126   3.402  0.2453 -0.3699 -0.3898
   69SAPC   H8X 5932   4.008   5.200   3.417  0.9993  0.3672  0.2215
   69SAPC   H8Y 5933   4.164   5.173   3.471 -0.8497 -1.0062  1.3034
   69SAPC   C39 5934   4.040   5.000   3.473  0.2412  0.3910 -0.0723
   69SAPC   H9X 5935   4.125   4.929   3.483 -0.9600 -0.8575  1.8661
   69SAPC   H9Y 5936   3.955   4.955   3.417 -1.7310  1.2422  2.1083
   69SAPC  C310 5937   3.986   5.037   3.613 -0.1049 -0.7430 -0.0255
   69SAPC  H10X 5938   3.905   5.111   3.596 -1.1898 -1.7868  0.4684
   69SAPC  H10Y 5939   4.063   5.080   3.680  1.1731 -2.9903  0.0474
   69SAPC  C311 5940   3.928   4.914   3.688  0.0892 -0.0542  0.6300
   69SAPC  H11X 5941   3.869   4.863   3.610  0.7693 -1.5592  1.0470
   69SAPC  H11Y 5942   3.863   4.947   3.772 -0.3270  1.0628 -0.1211
   69SAPC  C312 5943   4.036   4.823   3.748 -0.1015  0.0287 -0.0671
   69SAPC  H12X 5944   4.103   4.774   3.675  1.0599  1.2088  0.1543
   69SAPC  H12Y 5945   3.986   4.741   3.804  0.0657 -0.3420 -0.4580
   69SAPC  C313 5946   4.122   4.892   3.857 -0.5595 -0.0886 -0.3242
   69SAPC  H13X 5947   4.183   4.976   3.816 -2.0294  0.4153 -1.5557
   69SAPC  H13Y 5948   4.199   4.820   3.891  1.1926  2.2378  0.9901
   69SAPC  C314 5949   4.044   4.939   3.979  0.5629 -0.3482  0.1746
   69SAPC  H14X 5950   3.944   4.892   3.986 -0.5626  2.0681  1.5229
   69SAPC  H14Y 5951   4.020   5.047   3.971 -2.3758 -0.9625 -0.2748
   69SAPC  C315 5952   4.128   4.926   4.106  0.0373  0.0713 -0.2082
   69SAPC  H15X 5953   4.230   4.966   4.089  0.7667 -1.6518 -0.0636
   69SAPC  H15Y 5954   4.144   4.817   4.120 -1.5863 -0.1116  0.4773
   69SAPC  C316 5955   4.073   4.998   4.227  0.1589  0.4778  0.3020
   69SAPC  H16X 5956   4.078   5.108   4.209  0.9394  0.8827  2.6040
   69SAPC  H16Y 5957   4.136   4.969   4.315  1.5603  2.3875 -0.0100
   69SAPC  C317 5958   3.928   4.964   4.268  0.0574  0.1404 -0.2197
   69SAPC  H17X 5959   3.867   4.996   4.180 -0.5142 -1.5776 -0.5023
   69SAPC  H17Y 5960   3.902   5.011   4.365 -1.1435 -0.3412 -0.2830
   69SAPC  C318 5961   3.895   4.813   4.278  0.4381 -0.3558 -0.3700
   69SAPC  H18X 5962   3.787   4.812   4.301 -0.1289  2.0216 -2.5045
   69SAPC  H18Y 5963   3.961   4.768   4.356  2.2597  0.5657 -1.3207
   69SAPC  H18Z 5964   3.915   4.776   4.175  0.3323  0.8787 -0.8486
   70SAPC     N 5965   6.310   3.925   2.013  0.6541  0.9979  0.1166
   70SAPC   C12 5966   6.258   3.913   2.157  0.5584  0.0506 -0.3914
   70SAPC  H12A 5967   6.326   3.849   2.212 -0.6578  0.0330  1.1863
   70SAPC  H12B 5968   6.155   3.882   2.153  0.8811 -1.0105 -0.6542
   70SAPC   C13 5969   6.296   3.797   1.937  0.0489 -0.1637 -0.2156
   70SAPC  H13A 5970   6.333   3.810   1.837  0.2248  0.2345 -0.1023
   70SAPC  H13B 5971   6.368   3.725   1.973  0.6912  0.1869 -0.7870
   70SAPC  H13C 5972   6.195   3.760   1.946  0.4218 -0.8593  1.5595
   70SAPC   C14 5973   6.247   4.039   1.935 -0.5587  0.6603  0.1103
   70SAPC  H14A 5974   6.139   4.031   1.936 -0.5880  0.2046 -2.2001
   70SAPC  H14B 5975   6.270   4.130   1.989  0.0809  0.0376  0.9171
   70SAPC  H14C 5976   6.290   4.054   1.837  0.9986 -2.5165  0.1668
   70SAPC   C15 5977   6.453   3.960   2.019 -0.2924  0.3407  0.3333
   70SAPC  H15A 5978   6.505   3.953   1.925  0.5217 -1.2806  0.8467
   70SAPC  H15B 5979   6.465   4.060   2.057 -2.2414  0.1493  1.6080
   70SAPC  H15C 5980   6.520   3.892   2.071  0.2242  1.4284  1.1332
   70SAPC   C11 5981   6.258   4.047   2.229  0.2378 -1.0361 -0.2354
   70SAPC  H11A 5982   6.355   4.100   2.214 -0.1616  0.9226  3.1783
   70SAPC  H11B 5983   6.260   4.028   2.338 -2.9576  2.8993  0.7527
   70SAPC     P 5984   6.004   4.097   2.259  0.0654  0.1860  0.0321
   70SAPC   O13 5985   5.921   4.221   2.273  0.2509  0.5568  0.6849
   70SAPC   O14 5986   5.933   4.001   2.177 -0.1762  0.8430 -0.4474
   70SAPC   O12 5987   6.140   4.129   2.195  0.2292 -0.3319  0.3829
   70SAPC   O11 5988   6.038   4.021   2.401  0.5393 -0.3326  0.0015
   70SAPC    C1 5989   5.972   3.898   2.428 -0.5841  0.1898  0.1474
   70SAPC    HA 5990   5.863   3.917   2.420 -0.1474  1.9002 -3.9008
   70SAPC    HB 5991   6.000   3.828   2.347  2.4774 -0.4921  1.6200
   70SAPC    C2 5992   6.010   3.831   2.566 -0.5101  0.1094 -0.8116
   70SAPC    HS 5993   5.941   3.747   2.586 -0.2261  0.4054  1.6707
   70SAPC   O21 5994   6.009   3.929   2.679 -0.1425  0.2809  0.0080
   70SAPC   C21 5995   5.889   3.979   2.709  0.1137 -0.7522 -0.4254
   70SAPC   O22 5996   5.782   3.951   2.658 -0.0144 -0.2165 -0.2903
   70SAPC   C22 5997   5.895   4.053   2.843  0.1039 -0.1064  0.0966
   70SAPC   H2R 5998   5.980   4.012   2.902  0.1661  0.6832  0.5617
   70SAPC   H2S 5999   5.915   4.159   2.818 -3.0798  0.3820 -0.9423
   70SAPC    C3 6000   6.150   3.778   2.556  0.3380  0.0115 -0.3392
   70SAPC    HX 6001   6.214   3.860   2.518 -0.6566  0.0388 -2.0941
   70SAPC    HY 6002   6.148   3.713   2.466 -0.8967  0.3283 -0.5686
   70SAPC   O31 6003   6.196   3.717   2.681 -0.3620 -0.5591 -0.8565
   70SAPC   C31 6004   6.313   3.745   2.729  0.1564 -0.2846  0.7039
   70SAPC   O32 6005   6.401   3.816   2.677 -0.0744  0.1821  0.1418
   70SAPC   C32 6006   6.308   3.700   2.877  0.2730  0.1638 -0.3763
   70SAPC   H2X 6007   6.410   3.665   2.907  0.4597  0.2456 -0.9067
   70SAPC   H2Y 6008   6.231   3.621   2.893 -0.5057  1.1063  0.6349
   70SAPC   C23 6009   5.763   4.048   2.926 -0.3893 -0.7215  0.1282
   70SAPC   H3R 6010   5.746   3.939   2.943  1.3747 -1.1555 -0.6550
   70SAPC   H3S 6011   5.681   4.089   2.863 -0.7182 -0.5234  0.6798
   70SAPC   C24 6012   5.774   4.136   3.052  0.1443 -0.0570  0.3858
   70SAPC   H4R 6013   5.868   4.113   3.106  0.2602 -0.3779  0.0524
   70SAPC   H4S 6014   5.687   4.098   3.111 -1.1942 -3.5768 -3.3730
   70SAPC   C25 6015   5.772   4.289   3.043  0.4994  0.3469 -0.7806
   70SAPC   H5R 6016   5.740   4.321   2.942 -0.8971 -0.4242 -0.6084
   70SAPC   C26 6017   5.786   4.373   3.151 -0.7067 -0.1555 -0.2155
   70SAPC   H6R 6018   5.791   4.482   3.137 -0.7216 -0.3044 -1.4736
   70SAPC   C27 6019   5.808   4.318   3.289 -0.1796  0.4128  0.0876
   70SAPC   H7R 6020   5.902   4.260   3.287 -0.4425  0.0168 -1.1412
   70SAPC   H7S 6021   5.725   4.249   3.316  1.7597 -1.7435  0.9121
   70SAPC   C28 6022   5.812   4.421   3.394  0.3755  0.0361 -0.1179
   70SAPC   H8R 6023   5.859   4.516   3.367 -2.4779  0.8720 -2.6575
   70SAPC   C29 6024   5.770   4.406   3.521  0.7519 -0.4107 -0.1231
   70SAPC   H9R 6025   5.773   4.498   3.581  1.4091  1.0739 -2.3057
   70SAPC  C210 6026   5.704   4.287   3.585 -0.2119 -0.0701 -0.4418
   70SAPC  H10R 6027   5.681   4.213   3.506  0.1963  1.5255 -2.1267
   70SAPC  H10S 6028   5.612   4.321   3.636 -1.5272 -0.8835 -2.1659
   70SAPC  C211 6029   5.783   4.218   3.687  0.1882  0.3423  0.2256
   70SAPC  H11R 6030   5.872   4.173   3.642 -1.3348 -1.1417 -1.4470
   70SAPC  C212 6031   5.768   4.209   3.820 -0.2373 -1.4413  0.4041
   70SAPC  H12R 6032   5.847   4.155   3.873 -0.7134 -0.3148  2.3472
   70SAPC  C213 6033   5.658   4.263   3.903 -0.4691 -0.6343 -0.1557
   70SAPC  H13R 6034   5.607   4.352   3.862  0.2565  1.0411  2.3224
   70SAPC  H13S 6035   5.707   4.306   3.993  0.7234  2.9132 -2.2871
   70SAPC  C214 6036   5.540   4.171   3.928 -0.6122  0.4040  0.0000
   70SAPC  H14R 6037   5.536   4.079   3.869  0.5029 -1.0313  2.0480
   70SAPC  C215 6038   5.438   4.194   4.011 -0.3206  0.6650  0.0287
   70SAPC  H15R 6039   5.365   4.115   4.034  1.8560 -0.9585  1.7885
   70SAPC  C216 6040   5.419   4.316   4.102 -0.5146 -0.1414  0.0859
   70SAPC  H16R 6041   5.483   4.404   4.082  0.8389 -1.1859 -0.3484
   70SAPC  H16S 6042   5.428   4.290   4.210  1.2472  1.5577  0.4170
   70SAPC  C217 6043   5.274   4.370   4.106  0.5834 -0.2609  0.2333
   70SAPC  H17R 6044   5.241   4.409   4.007 -1.1539 -0.6902  0.6146
   70SAPC  H17S 6045   5.287   4.459   4.172  2.8893  0.1750 -0.7134
   70SAPC  C218 6046   5.170   4.273   4.166  0.6188  0.6625 -0.4959
   70SAPC  H18R 6047   5.162   4.181   4.104  0.5635 -1.0854  1.9677
   70SAPC  H18S 6048   5.070   4.321   4.156 -0.7180 -1.8481 -0.1598
   70SAPC  C219 6049   5.197   4.242   4.315  0.0428 -0.5506  0.5225
   70SAPC  H19R 6050   5.238   4.333   4.363  1.8959 -1.6552  1.1108
   70SAPC  H19S 6051   5.279   4.168   4.321  1.5245  0.8004 -1.5912
   70SAPC  C220 6052   5.073   4.204   4.393 -0.8556 -0.4498  0.2500
   70SAPC  H20R 6053   5.022   4.297   4.426 -0.4885  0.2446 -1.0874
   70SAPC  H20S 6054   5.090   4.129   4.474 -0.7273 -1.1266 -0.3922
   70SAPC  H20T 6055   5.017   4.143   4.319  1.0011 -0.0970 -1.5220
   70SAPC   C33 6056   6.263   3.814   2.966  0.0993 -0.0275 -0.4771
   70SAPC   H3X 6057   6.190   3.874   2.907 -0.8736 -0.5461  0.1823
   70SAPC   H3Y 6058   6.351   3.877   2.990 -0.6366  1.2856 -1.1297
   70SAPC   C34 6059   6.203   3.772   3.104  0.5132 -0.1246 -0.4789
   70SAPC   H4X 6060   6.273   3.706   3.160 -0.2973 -1.2053 -0.7105
   70SAPC   H4Y 6061   6.117   3.708   3.074 -1.0674  0.2161  2.8063
   70SAPC   C35 6062   6.149   3.897   3.170 -0.2178 -0.1045  0.6086
   70SAPC   H5X 6063   6.081   3.950   3.100  0.9926 -0.1771 -0.6659
   70SAPC   H5Y 6064   6.234   3.963   3.197  0.6598 -1.4451  1.1919
   70SAPC   C36 6065   6.078   3.852   3.295  0.1086 -0.6762 -0.5396
   70SAPC   H6X 6066   5.975   3.817   3.272 -1.3628  4.6651 -4.0647
   70SAPC   H6Y 6067   6.061   3.952   3.341 -1.4259 -0.3818 -1.6336
   70SAPC   C37 6068   6.166   3.769   3.395  0.5876  0.0793 -0.8278
   70SAPC   H7X 6069   6.173   3.662   3.364  0.9971 -0.6270  1.4643
   70SAPC   H7Y 6070   6.267   3.815   3.400  0.6942  0.0089 -2.0762
   70SAPC   C38 6071   6.097   3.751   3.538  0.3297  0.3071  0.7913
   70SAPC   H8X 6072   5.989   3.731   3.519  1.1192 -0.7197 -3.6288
   70SAPC   H8Y 6073   6.090   3.847   3.593  0.2369  1.5007 -1.2195
   70SAPC   C39 6074   6.146   3.628   3.617  0.4164  0.1865 -0.1892
   70SAPC   H9X 6075   6.257   3.634   3.623  0.5506 -1.2857 -0.7802
   70SAPC   H9Y 6076   6.119   3.535   3.562  1.0359  0.5988 -1.2140
   70SAPC  C310 6077   6.077   3.599   3.754 -0.8762  0.3179 -0.7527
   70SAPC  H10X 6078   5.969   3.591   3.733 -0.9502  0.7090 -0.5356
   70SAPC  H10Y 6079   6.093   3.694   3.810 -0.2662 -0.3139  0.1834
   70SAPC  C311 6080   6.133   3.473   3.826 -0.8513 -0.5600  0.2654
   70SAPC  H11X 6081   6.241   3.493   3.843 -0.8882 -0.4361  0.3507
   70SAPC  H11Y 6082   6.126   3.389   3.753  0.3867 -0.4408 -0.0177
   70SAPC  C312 6083   6.053   3.448   3.947  0.4489  1.0313 -0.1796
   70SAPC  H12X 6084   5.951   3.425   3.909  0.3304  0.2304  0.5752
   70SAPC  H12Y 6085   6.040   3.537   4.012 -3.2238  0.6742 -0.1990
   70SAPC  C313 6086   6.101   3.323   4.026  0.3380 -0.0444 -0.1266
   70SAPC  H13X 6087   6.129   3.247   3.950  0.6328 -0.0831  0.0172
   70SAPC  H13Y 6088   6.019   3.282   4.089 -0.0407 -0.9331 -1.1558
   70SAPC  C314 6089   6.210   3.341   4.126 -0.6850 -0.1012 -0.1770
   70SAPC  H14X 6090   6.182   3.422   4.196 -3.2842 -1.5782  0.6263
   70SAPC  H14Y 6091   6.310   3.361   4.081 -0.7312  0.2036 -0.1425
   70SAPC  C315 6092   6.216   3.208   4.213 -0.6249 -0.8923 -0.3580
   70SAPC  H15X 6093   6.234   3.115   4.156 -3.0536 -2.9944  2.0036
   70SAPC  H15Y 6094   6.115   3.201   4.260 -1.0150  1.5557 -0.6837
   70SAPC  C316 6095   6.325   3.216   4.319  0.3008 -0.4119 -0.4087
   70SAPC  H16X 6096   6.309   3.304   4.384 -0.0928 -1.3009  0.7422
   70SAPC  H16Y 6097   6.424   3.227   4.269 -0.2546 -0.7963 -1.6509
   70SAPC  C317 6098   6.318   3.106   4.423 -0.0244 -0.4010  0.2039
   70SAPC  H17X 6099   6.324   3.011   4.366  0.5338 -0.8338  0.9642
   70SAPC  H17Y 6100   6.221   3.104   4.476  0.5143 -0.3934  1.2144
   70SAPC  C318 6101   6.433   3.106   4.520  0.1472 -0.3145  0.5900
   70SAPC  H18X 6102   6.528   3.125   4.466 -0.0018 -1.8921 -0.3008
   70SAPC  H18Y 6103   6.435   3.006   4.569 -0.1209 -0.6920 -0.1540
   70SAPC  H18Z 6104   6.413   3.184   4.596  1.0734 -0.3880  0.9129
   71SAPC     N 6105   6.688   1.508   1.583  0.7003  0.6306  0.0403
   71SAPC   C12 6106   6.734   1.427   1.703 -0.4108 -0.1045  0.3196
   71SAPC  H12A 6107   6.840   1.435   1.722 -0.1604 -2.1314 -0.0658
   71SAPC  H12B 6108   6.716   1.322   1.686 -0.7045 -0.1904  1.1329
   71SAPC   C13 6109   6.770   1.459   1.471  0.8442 -0.3946 -0.0570
   71SAPC  H13A 6110   6.772   1.351   1.461 -0.1197 -0.4842  0.5530
   71SAPC  H13B 6111   6.725   1.494   1.380  1.4189  0.4876 -0.0125
   71SAPC  H13C 6112   6.870   1.498   1.461  0.9473 -0.8819 -1.0024
   71SAPC   C14 6113   6.541   1.481   1.564  0.4089  0.1644  0.4609
   71SAPC  H14A 6114   6.494   1.514   1.473  0.9995  0.5171  0.2834
   71SAPC  H14B 6115   6.525   1.374   1.563  0.1622  0.1839 -1.4361
   71SAPC  H14C 6116   6.483   1.526   1.644  0.5023 -0.1587  0.7141
   71SAPC   C15 6117   6.726   1.651   1.587 -0.3116 -0.2476 -0.6110
   71SAPC  H15A 6118   6.664   1.707   1.655 -1.0148  0.6462 -1.9471
   71SAPC  H15B 6119   6.830   1.670   1.609  0.4901 -0.7338 -3.5484
   71SAPC  H15C 6120   6.718   1.696   1.489 -1.6104  1.0796  0.0724
   71SAPC   C11 6121   6.675   1.458   1.843  0.8030  0.2745  0.4867
   71SAPC  H11A 6122   6.694   1.562   1.876 -0.2320 -0.0002  2.0670
   71SAPC  H11B 6123   6.731   1.411   1.926 -0.7333  2.4536  2.9216
   71SAPC     P 6124   6.503   1.267   1.856 -0.0855 -0.2194 -0.4648
   71SAPC   O13 6125   6.371   1.262   1.789  0.0935  0.0639 -0.0235
   71SAPC   O14 6126   6.623   1.194   1.803  0.4990 -0.2851  0.2027
   71SAPC   O12 6127   6.538   1.427   1.854 -0.1801  0.1066  0.5276
   71SAPC   O11 6128   6.481   1.249   2.010 -0.2010  0.0853  0.1884
   71SAPC    C1 6129   6.362   1.291   2.073  0.2181 -0.3027  0.7066
   71SAPC    HA 6130   6.332   1.388   2.027 -2.1998 -1.7459 -1.0344
   71SAPC    HB 6131   6.276   1.221   2.060  1.8273 -1.9478 -2.2431
   71SAPC    C2 6132   6.381   1.315   2.229  0.7139 -0.2175  0.4813
   71SAPC    HS 6133   6.288   1.374   2.246  1.3345  1.6623 -2.0194
   71SAPC   O21 6134   6.496   1.392   2.262 -0.1888 -0.3073  0.4228
   71SAPC   C21 6135   6.502   1.518   2.213 -0.1933  0.4029 -0.4280
   71SAPC   O22 6136   6.407   1.574   2.159  1.0214 -0.2186 -0.2593
   71SAPC   C22 6137   6.640   1.585   2.230  0.5196  0.2129  0.8224
   71SAPC   H2R 6138   6.717   1.540   2.164  0.7116  1.9820 -0.2357
   71SAPC   H2S 6139   6.617   1.688   2.194  1.3552 -0.4381 -1.7594
   71SAPC    C3 6140   6.382   1.190   2.312 -0.4293 -0.1155 -0.7596
   71SAPC    HX 6141   6.446   1.113   2.264  0.9704 -0.0266  0.8574
   71SAPC    HY 6142   6.279   1.151   2.305 -0.8761  0.4557  1.6929
   71SAPC   O31 6143   6.403   1.212   2.446  0.4259 -0.4403 -0.5675
   71SAPC   C31 6144   6.527   1.223   2.484  0.4431  0.0047  0.9652
   71SAPC   O32 6145   6.629   1.183   2.430  0.0556  0.0883 -0.1694
   71SAPC   C32 6146   6.527   1.303   2.611  0.7359  0.3168  0.0169
   71SAPC   H2X 6147   6.439   1.270   2.671  1.0282 -1.1196 -0.3052
   71SAPC   H2Y 6148   6.501   1.408   2.587 -1.2923 -0.1928 -0.1933
   71SAPC   C23 6149   6.710   1.585   2.366 -0.2229  0.3179  0.4804
   71SAPC   H3R 6150   6.817   1.615   2.364 -0.1443  0.0198 -0.1314
   71SAPC   H3S 6151   6.702   1.478   2.396 -1.5350  0.8432  2.1164
   71SAPC   C24 6152   6.624   1.658   2.474  0.5430  0.0508 -1.0859
   71SAPC   H4R 6153   6.644   1.605   2.569 -0.9850  2.2878  0.5720
   71SAPC   H4S 6154   6.522   1.654   2.431  0.6013  0.4960 -1.2751
   71SAPC   C25 6155   6.674   1.803   2.474 -0.5498 -0.7627 -0.0621
   71SAPC   H5R 6156   6.671   1.849   2.374 -1.0664  1.6426  0.9961
   71SAPC   C26 6157   6.712   1.880   2.575  0.2487 -0.0929 -0.0619
   71SAPC   H6R 6158   6.735   1.985   2.551  0.8692 -0.0761  0.5695
   71SAPC   C27 6159   6.715   1.840   2.719 -0.2581 -0.0009  1.0414
   71SAPC   H7R 6160   6.822   1.857   2.747 -0.3621  0.7777  0.9875
   71SAPC   H7S 6161   6.687   1.736   2.745 -0.5332 -0.0958  0.3773
   71SAPC   C28 6162   6.646   1.949   2.796  0.2591  0.4490 -0.6090
   71SAPC   H8R 6163   6.683   2.051   2.776  2.7987 -0.6031 -1.7842
   71SAPC   C29 6164   6.557   1.929   2.894 -0.1412  0.2279 -0.5586
   71SAPC   H9R 6165   6.526   2.020   2.947  2.8731  1.3461 -0.5403
   71SAPC  C210 6166   6.500   1.793   2.935 -0.1058 -0.1277 -0.0695
   71SAPC  H10R 6167   6.464   1.723   2.857 -1.0978  1.8146 -1.4319
   71SAPC  H10S 6168   6.409   1.819   2.993  1.0631 -0.6769  2.1482
   71SAPC  C211 6169   6.600   1.727   3.023 -0.1543  0.0606  0.7109
   71SAPC  H11R 6170   6.701   1.725   2.980 -0.9573 -1.5226 -1.2821
   71SAPC  C212 6171   6.576   1.672   3.142 -0.2099  0.1621 -0.0071
   71SAPC  H12R 6172   6.662   1.641   3.204  0.6190  0.8429 -0.7926
   71SAPC  C213 6173   6.451   1.646   3.213  0.9120  0.7014  0.2125
   71SAPC  H13R 6174   6.441   1.547   3.262  3.4460  0.6178  0.6953
   71SAPC  H13S 6175   6.366   1.648   3.141  1.1309  2.1159 -0.0537
   71SAPC  C214 6176   6.408   1.756   3.304  0.1763 -0.4323  0.2661
   71SAPC  H14R 6177   6.383   1.851   3.253 -1.4084 -0.1701  1.4248
   71SAPC  C215 6178   6.373   1.756   3.438 -0.3024  0.0774  0.1536
   71SAPC  H15R 6179   6.333   1.844   3.489  0.9165 -1.3345  3.8803
   71SAPC  C216 6180   6.379   1.637   3.521  0.1812  0.6332 -0.5125
   71SAPC  H16R 6181   6.399   1.542   3.469 -2.9795 -0.3662 -0.1086
   71SAPC  H16S 6182   6.280   1.620   3.570  1.7426 -3.1784  1.7644
   71SAPC  C217 6183   6.475   1.658   3.643  0.2175  1.0316  0.6005
   71SAPC  H17R 6184   6.437   1.744   3.702  1.4660  2.1342 -0.1275
   71SAPC  H17S 6185   6.574   1.685   3.601 -2.1935  4.2407 -3.9498
   71SAPC  C218 6186   6.473   1.542   3.740  0.0703  1.4734 -0.1209
   71SAPC  H18R 6187   6.523   1.456   3.689 -0.9796  1.1409 -0.6226
   71SAPC  H18S 6188   6.367   1.511   3.751  0.6954  0.0664  3.1691
   71SAPC  C219 6189   6.544   1.576   3.872 -0.1609 -0.8812 -1.0060
   71SAPC  H19R 6190   6.650   1.596   3.849  0.8313  0.1869  3.5801
   71SAPC  H19S 6191   6.540   1.488   3.939 -0.5497 -0.2841 -0.2226
   71SAPC  C220 6192   6.489   1.697   3.949 -0.1437  0.3359  0.1434
   71SAPC  H20R 6193   6.381   1.676   3.960 -0.1538  0.8496  1.2023
   71SAPC  H20S 6194   6.513   1.788   3.889 -0.5499  0.1230 -0.3420
   71SAPC  H20T 6195   6.542   1.696   4.047 -0.7911 -1.8578  0.5106
   71SAPC   C33 6196   6.647   1.285   2.703 -0.0680  0.2162  0.0243
   71SAPC   H3X 6197   6.742   1.289   2.645 -0.4358 -1.2446 -0.7186
   71SAPC   H3Y 6198   6.645   1.192   2.764  0.8965  1.5395  2.2276
   71SAPC   C34 6199   6.659   1.394   2.810 -0.2542 -0.2941 -0.2360
   71SAPC   H4X 6200   6.572   1.393   2.880  1.5582  1.3876  2.1811
   71SAPC   H4Y 6201   6.645   1.487   2.752  1.4306  1.1838  1.5886
   71SAPC   C35 6202   6.787   1.381   2.894 -0.1129  0.5430 -0.6567
   71SAPC   H5X 6203   6.792   1.455   2.977  2.1674 -2.4519  2.1013
   71SAPC   H5Y 6204   6.869   1.397   2.821 -1.8332 -1.1102 -3.1331
   71SAPC   C36 6205   6.817   1.237   2.959 -1.2413  0.1382  0.5513
   71SAPC   H6X 6206   6.915   1.244   3.011 -1.5781  0.2431  1.1827
   71SAPC   H6Y 6207   6.821   1.164   2.875 -0.7372  0.2188  0.5003
   71SAPC   C37 6208   6.729   1.194   3.074  0.5895 -0.3892 -0.6907
   71SAPC   H7X 6209   6.633   1.146   3.048  0.9073 -0.1115 -2.4965
   71SAPC   H7Y 6210   6.715   1.289   3.130 -1.1560 -2.3003  2.4118
   71SAPC   C38 6211   6.799   1.099   3.170 -1.1983 -0.5126  0.2278
   71SAPC   H8X 6212   6.906   1.127   3.181 -1.0521 -0.3723 -1.3078
   71SAPC   H8Y 6213   6.796   0.993   3.136 -0.5966 -1.3386  2.5271
   71SAPC   C39 6214   6.735   1.100   3.312 -0.5196  0.1849  0.2888
   71SAPC   H9X 6215   6.630   1.072   3.289 -0.0995 -0.1668 -1.2948
   71SAPC   H9Y 6216   6.744   1.208   3.336  0.5021  0.1796 -0.0051
   71SAPC  C310 6217   6.810   1.008   3.409 -0.1936  0.0444  0.3327
   71SAPC  H10X 6218   6.914   1.047   3.405 -0.1626 -0.1712 -2.1137
   71SAPC  H10Y 6219   6.821   0.904   3.373  0.9852  0.5017 -0.6892
   71SAPC  C311 6220   6.759   1.013   3.550  0.7718  0.2209  0.4139
   71SAPC  H11X 6221   6.817   0.938   3.608  0.2846  1.6454  2.8678
   71SAPC  H11Y 6222   6.654   0.978   3.556  0.5498  0.5527 -1.2201
   71SAPC  C312 6223   6.782   1.146   3.614 -0.1825 -0.4165  0.0434
   71SAPC  H12X 6224   6.718   1.232   3.583  1.9828  1.0810 -0.5517
   71SAPC  H12Y 6225   6.889   1.172   3.598  0.2514 -1.7132  0.6901
   71SAPC  C313 6226   6.758   1.136   3.771 -0.1995 -0.4536 -0.4509
   71SAPC  H13X 6227   6.833   1.061   3.804  0.4059  0.1267 -0.4913
   71SAPC  H13Y 6228   6.656   1.095   3.787 -0.1450 -0.5320 -0.2975
   71SAPC  C314 6229   6.773   1.260   3.855  0.0143 -0.0625 -0.5796
   71SAPC  H14X 6230   6.689   1.332   3.840 -2.1978 -2.5386 -0.8454
   71SAPC  H14Y 6231   6.876   1.302   3.850 -0.2692  0.5752 -1.3362
   71SAPC  C315 6232   6.749   1.226   4.004  0.4570  0.4837 -0.2269
   71SAPC  H15X 6233   6.831   1.152   4.019 -1.0027 -0.7917  1.9754
   71SAPC  H15Y 6234   6.651   1.185   4.035  0.0177  1.1243 -0.7467
   71SAPC  C316 6235   6.780   1.346   4.096  0.3333 -0.1596 -0.3865
   71SAPC  H16X 6236   6.690   1.410   4.087  0.4233 -0.0958 -0.8920
   71SAPC  H16Y 6237   6.873   1.402   4.069 -0.6026  1.2725 -0.7374
   71SAPC  C317 6238   6.791   1.307   4.245 -0.0416 -0.3747  0.4294
   71SAPC  H17X 6239   6.705   1.242   4.273 -1.0438  1.3002  1.4122
   71SAPC  H17Y 6240   6.772   1.408   4.287 -2.2578  0.2015 -1.7578
   71SAPC  C318 6241   6.913   1.238   4.297 -0.8152  0.0020  0.4934
   71SAPC  H18X 6242   6.990   1.318   4.306 -1.2940  0.9540 -2.5508
   71SAPC  H18Y 6243   6.964   1.156   4.241 -0.5237 -0.4168  1.3650
   71SAPC  H18Z 6244   6.901   1.201   4.401  0.0179 -1.3671  0.1404
   72SAPC     N 6245   3.877   0.939   1.786 -0.3624  0.4001  0.0089
   72SAPC   C12 6246   3.788   0.873   1.889  0.2870 -0.4978 -0.6440
   72SAPC  H12A 6247   3.689   0.869   1.847 -0.6268  1.1650  1.1432
   72SAPC  H12B 6248   3.781   0.944   1.970 -2.1193  2.4849 -3.2085
   72SAPC   C13 6249   3.852   1.084   1.770  0.1676  0.3814  0.4303
   72SAPC  H13A 6250   3.868   1.130   1.867  1.4323  1.2624 -0.1577
   72SAPC  H13B 6251   3.925   1.123   1.701 -0.4977  0.3686 -0.2879
   72SAPC  H13C 6252   3.757   1.119   1.732  1.2103  2.9605 -0.0212
   72SAPC   C14 6253   4.016   0.936   1.824 -0.0936 -0.2338 -0.4653
   72SAPC  H14A 6254   4.054   0.835   1.827  0.7973  0.0010 -2.5764
   72SAPC  H14B 6255   4.081   0.994   1.760 -0.3650  1.2148  0.5015
   72SAPC  H14C 6256   4.030   0.975   1.924  1.2751 -1.6426 -0.0767
   72SAPC   C15 6257   3.857   0.874   1.653  0.2193 -0.0882 -0.1507
   72SAPC  H15A 6258   3.917   0.919   1.576 -1.7368 -0.2617 -1.8735
   72SAPC  H15B 6259   3.888   0.772   1.669  0.0249 -0.1913 -0.4208
   72SAPC  H15C 6260   3.754   0.862   1.621  0.0119 -0.8461  0.7599
   72SAPC   C11 6261   3.827   0.744   1.947 -0.3166  0.4488  0.3715
   72SAPC  H11A 6262   3.869   0.681   1.865 -1.8524  0.5741 -0.5589
   72SAPC  H11B 6263   3.737   0.687   1.979 -0.0591 -1.9558 -2.7460
   72SAPC     P 6264   4.016   0.658   2.113  0.1839  0.5896  0.2998
   72SAPC   O13 6265   4.013   0.534   2.031 -0.2273 -0.0627 -0.3819
   72SAPC   O14 6266   4.155   0.715   2.127  0.5059  0.1631  0.1263
   72SAPC   O12 6267   3.919   0.771   2.053  0.0850 -0.3351 -0.2173
   72SAPC   O11 6268   3.952   0.627   2.254  0.2555 -0.2121 -0.4026
   72SAPC    C1 6269   3.891   0.737   2.322 -0.0812  0.3953  0.2782
   72SAPC    HA 6270   3.972   0.801   2.363 -0.0404 -0.0261  0.8567
   72SAPC    HB 6271   3.822   0.793   2.255 -0.6850 -0.3744  0.2436
   72SAPC    C2 6272   3.798   0.691   2.449  0.2345 -0.0010  1.3722
   72SAPC    HS 6273   3.732   0.771   2.488  1.9248  1.7279  0.8307
   72SAPC   O21 6274   3.881   0.648   2.559 -0.0472  0.0270 -0.1744
   72SAPC   C21 6275   3.931   0.748   2.632 -0.3364 -0.5024  0.5980
   72SAPC   O22 6276   3.917   0.865   2.598 -0.6522 -0.0756 -0.0906
   72SAPC   C22 6277   3.978   0.704   2.774 -0.4137  0.2505 -0.1541
   72SAPC   H2R 6278   3.894   0.697   2.847  1.7198  0.7940  2.5001
   72SAPC   H2S 6279   4.002   0.595   2.773  1.7872  0.6775  0.6753
   72SAPC    C3 6280   3.721   0.565   2.405 -0.3398 -0.5279 -0.0602
   72SAPC    HX 6281   3.789   0.478   2.396 -1.0768 -0.9246 -2.2142
   72SAPC    HY 6282   3.678   0.577   2.304  0.2557  2.6165 -0.0440
   72SAPC   O31 6283   3.629   0.540   2.510 -0.0983 -0.5115  0.5785
   72SAPC   C31 6284   3.553   0.432   2.494  0.4267 -0.3516 -0.5236
   72SAPC   O32 6285   3.556   0.351   2.406 -0.0062  0.3602  0.0987
   72SAPC   C32 6286   3.494   0.414   2.630  0.2133 -0.5915  0.2364
   72SAPC   H2X 6287   3.573   0.436   2.705 -0.7685 -1.7761  1.6842
   72SAPC   H2Y 6288   3.446   0.315   2.641  1.1567 -1.5735 -3.3365
   72SAPC   C23 6289   4.091   0.780   2.843  0.2481  0.8475 -0.3863
   72SAPC   H3R 6290   4.048   0.879   2.869  0.3680  0.5665  0.9293
   72SAPC   H3S 6291   4.178   0.799   2.776  2.3022 -1.9794  1.2509
   72SAPC   C24 6292   4.151   0.702   2.961  0.6556 -0.9206  0.5477
   72SAPC   H4R 6293   4.191   0.602   2.931 -1.5466 -1.6207 -0.2709
   72SAPC   H4S 6294   4.066   0.685   3.030  0.1908  0.1864  0.2671
   72SAPC   C25 6295   4.258   0.783   3.032 -0.0318 -0.5345  0.0462
   72SAPC   H5R 6296   4.226   0.861   3.102  4.6063  0.4331  1.4786
   72SAPC   C26 6297   4.392   0.775   3.015 -0.2478 -0.8880  0.8035
   72SAPC   H6R 6298   4.453   0.834   3.086  0.9022  0.9232 -1.5529
   72SAPC   C27 6299   4.456   0.687   2.913 -0.5102  1.5431  0.0094
   72SAPC   H7R 6300   4.428   0.725   2.812  0.5833 -0.5947 -1.1686
   72SAPC   H7S 6301   4.401   0.591   2.912 -0.6824  1.6286 -1.5148
   72SAPC   C28 6302   4.603   0.664   2.930 -0.4348 -0.1915  0.7899
   72SAPC   H8R 6303   4.664   0.720   2.858 -1.9858 -1.0581 -1.3283
   72SAPC   C29 6304   4.662   0.601   3.035 -0.1854  1.2429 -0.0117
   72SAPC   H9R 6305   4.772   0.593   3.028 -0.2810 -0.5143  0.0350
   72SAPC  C210 6306   4.587   0.531   3.145 -0.0797 -0.3114  0.7056
   72SAPC  H10R 6307   4.616   0.427   3.171 -1.3057 -1.5919 -2.5175
   72SAPC  H10S 6308   4.481   0.524   3.112  0.1601  1.2363 -0.5148
   72SAPC  C211 6309   4.570   0.619   3.270  0.0796  0.0206 -0.3585
   72SAPC  H11R 6310   4.475   0.674   3.277  1.3915  2.2769  0.5741
   72SAPC  C212 6311   4.653   0.632   3.378 -0.3650  0.3441  0.9824
   72SAPC  H12R 6312   4.622   0.703   3.456  1.1423  2.9312 -0.6472
   72SAPC  C213 6313   4.769   0.545   3.414 -0.0014 -0.2245 -0.3728
   72SAPC  H13R 6314   4.783   0.455   3.351  1.6554 -0.0261 -0.3376
   72SAPC  H13S 6315   4.748   0.510   3.518  0.4467  1.0694  0.1799
   72SAPC  C214 6316   4.894   0.625   3.438 -0.2189 -0.2806  0.1104
   72SAPC  H14R 6317   4.953   0.636   3.345  0.4790  1.5280  0.7212
   72SAPC  C215 6318   4.947   0.670   3.556 -0.1723  0.2064 -0.4437
   72SAPC  H15R 6319   5.047   0.715   3.550 -0.3758  0.5691 -1.4166
   72SAPC  C216 6320   4.896   0.656   3.695  0.2276  0.2744 -0.1228
   72SAPC  H16R 6321   4.789   0.688   3.694  0.5642  1.5038  0.4439
   72SAPC  H16S 6322   4.952   0.732   3.755 -0.1284  1.4779 -1.2705
   72SAPC  C217 6323   4.906   0.513   3.760 -0.1675  0.4754 -0.1139
   72SAPC  H17R 6324   5.013   0.483   3.760 -0.2261  0.2001 -1.6388
   72SAPC  H17S 6325   4.862   0.428   3.704  0.2966 -0.6332  1.1592
   72SAPC  C218 6326   4.851   0.520   3.902  0.5030  0.2431  0.0647
   72SAPC  H18R 6327   4.884   0.611   3.957  0.0373 -0.2005  1.1072
   72SAPC  H18S 6328   4.876   0.424   3.953 -0.1063  0.0505  0.0162
   72SAPC  C219 6329   4.695   0.523   3.903  0.0398  0.2340  0.7356
   72SAPC  H19R 6330   4.656   0.438   3.842  2.8202 -0.2026 -0.6043
   72SAPC  H19S 6331   4.671   0.627   3.870  2.2863 -0.2264 -2.9738
   72SAPC  C220 6332   4.645   0.512   4.051 -0.0087 -0.0551 -0.1389
   72SAPC  H20R 6333   4.667   0.409   4.086 -2.1143 -0.7202 -0.6181
   72SAPC  H20S 6334   4.536   0.536   4.054 -0.3672 -1.3339 -1.7468
   72SAPC  H20T 6335   4.704   0.583   4.113 -0.0772  0.2315 -0.3979
   72SAPC   C33 6336   3.391   0.528   2.650  0.1744 -0.4780  0.2474
   72SAPC   H3X 6337   3.314   0.542   2.571 -0.2419 -0.2492  0.6878
   72SAPC   H3Y 6338   3.440   0.628   2.657  0.2504  0.1813 -5.2808
   72SAPC   C34 6339   3.306   0.512   2.779  0.0026  0.3437 -0.3034
   72SAPC   H4X 6340   3.248   0.417   2.772 -1.1218  1.0519 -0.8745
   72SAPC   H4Y 6341   3.232   0.594   2.773  1.3810  1.5101 -3.6172
   72SAPC   C35 6342   3.397   0.509   2.897 -0.3894  0.3380  0.0591
   72SAPC   H5X 6343   3.478   0.584   2.891 -0.7516  0.6475 -1.4742
   72SAPC   H5Y 6344   3.430   0.403   2.886  0.2899  0.5586 -0.1134
   72SAPC   C36 6345   3.319   0.528   3.028 -0.0497 -1.0449  0.1243
   72SAPC   H6X 6346   3.222   0.475   3.038 -0.7836  0.3725  0.7527
   72SAPC   H6Y 6347   3.290   0.634   3.020 -1.7401 -1.5570 -1.0509
   72SAPC   C37 6348   3.408   0.496   3.148 -0.5084 -0.6246 -0.9870
   72SAPC   H7X 6349   3.497   0.563   3.140 -0.8360 -0.2238 -1.2857
   72SAPC   H7Y 6350   3.452   0.394   3.152 -0.1037 -0.4788 -1.6789
   72SAPC   C38 6351   3.345   0.540   3.283  0.0253  0.2708 -0.7708
   72SAPC   H8X 6352   3.239   0.510   3.296  0.5121 -0.4721  2.2025
   72SAPC   H8Y 6353   3.341   0.651   3.291  1.3395  0.1855  2.7884
   72SAPC   C39 6354   3.420   0.487   3.411  0.0515  0.2962  0.0430
   72SAPC   H9X 6355   3.412   0.377   3.427 -0.9504  0.4482  0.6271
   72SAPC   H9Y 6356   3.362   0.522   3.499  0.9736  0.6701  0.5227
   72SAPC  C310 6357   3.570   0.530   3.439  0.4071  0.1585  0.0786
   72SAPC  H10X 6358   3.592   0.628   3.393 -0.5056  0.9257  1.2290
   72SAPC  H10Y 6359   3.638   0.460   3.386  0.7084 -1.1063  1.9977
   72SAPC  C311 6360   3.594   0.512   3.586 -0.0069 -0.2284  0.2401
   72SAPC  H11X 6361   3.603   0.407   3.620  5.2561  0.4431  1.9055
   72SAPC  H11Y 6362   3.509   0.547   3.649  1.1846  0.1519  1.7069
   72SAPC  C312 6363   3.730   0.570   3.625  0.4626 -0.0426 -0.4638
   72SAPC  H12X 6364   3.743   0.678   3.600  0.5101  0.4242  1.3785
   72SAPC  H12Y 6365   3.812   0.517   3.574  0.9750  0.6664 -0.3843
   72SAPC  C313 6366   3.735   0.560   3.776  0.4425  0.0400  0.0875
   72SAPC  H13X 6367   3.711   0.456   3.805  1.6948 -0.4115 -0.4513
   72SAPC  H13Y 6368   3.652   0.627   3.807  0.9185  1.6745 -1.9329
   72SAPC  C314 6369   3.873   0.607   3.825 -0.1428 -0.0652  0.1664
   72SAPC  H14X 6370   3.896   0.710   3.791  1.0529 -0.2505  0.3941
   72SAPC  H14Y 6371   3.944   0.532   3.785  0.4303  0.0130  1.0252
   72SAPC  C315 6372   3.875   0.619   3.982 -0.2155  0.0637 -0.5088
   72SAPC  H15X 6373   3.825   0.713   4.014 -1.0527  0.7397 -3.5162
   72SAPC  H15Y 6374   3.983   0.629   4.006  0.0485 -2.9036 -0.0495
   72SAPC  C316 6375   3.823   0.498   4.058  0.3004  0.2568 -0.0959
   72SAPC  H16X 6376   3.850   0.400   4.013 -2.7559 -1.5860  1.7568
   72SAPC  H16Y 6377   3.714   0.488   4.041  0.2973  0.2817 -0.0945
   72SAPC  C317 6378   3.858   0.489   4.207  0.4542  0.8235 -0.7443
   72SAPC  H17X 6379   3.969   0.488   4.222  0.2446  1.5393  1.2284
   72SAPC  H17Y 6380   3.840   0.394   4.260 -0.0592  0.8009 -0.9615
   72SAPC  C318 6381   3.813   0.603   4.296 -0.0807  0.3216  0.2607
   72SAPC  H18X 6382   3.845   0.704   4.262 -2.3936  1.4290  1.1804
   72SAPC  H18Y 6383   3.855   0.588   4.398  0.0731 -1.6940 -0.0508
   72SAPC  H18Z 6384   3.702   0.602   4.298 -0.0827 -1.1382  1.5403
   73SLPC     N 6385   0.305   2.020   7.128 -0.0519 -0.1970 -0.0058
   73SLPC   C13 6386   0.299   2.166   7.162 -0.3581 -0.3957 -0.1591
   73SLPC  H13A 6387   0.296   2.218   7.068 -1.7460 -0.6880 -0.3087
   73SLPC  H13B 6388   0.214   2.192   7.225  0.4046 -1.3500  1.3280
   73SLPC  H13C 6389   0.383   2.202   7.219 -1.2681  2.5514 -0.5107
   73SLPC   C14 6390   0.188   1.981   7.042 -0.8502 -0.2508 -0.7619
   73SLPC  H14A 6391   0.196   2.045   6.955  0.2836  1.1136  0.2885
   73SLPC  H14B 6392   0.194   1.877   7.016 -1.6652 -1.2320  2.5636
   73SLPC  H14C 6393   0.097   2.006   7.094 -0.0938  1.5263 -0.1866
   73SLPC   C15 6394   0.287   1.949   7.259 -0.3510  0.5206  0.2331
   73SLPC  H15A 6395   0.189   1.969   7.301 -0.4316  1.9767 -0.5777
   73SLPC  H15B 6396   0.297   1.846   7.231 -2.1003  1.0239 -2.7678
   73SLPC  H15C 6397   0.362   1.978   7.332 -0.0928  0.2045  0.0934
   73SLPC   C12 6398   0.436   1.994   7.062 -0.1058 -0.4446  0.4608
   73SLPC  H12A 6399   0.514   2.029   7.128 -1.3683  0.9551  1.2798
   73SLPC  H12B 6400   0.436   2.046   6.967 -1.1366 -1.2494  0.0026
   73SLPC   C11 6401   0.473   1.849   7.019  0.3105 -0.1480  0.1232
   73SLPC  H11A 6402   0.475   1.790   7.113 -0.5444 -0.0634  0.2012
   73SLPC  H11B 6403   0.578   1.861   6.985 -0.1153 -2.2714 -2.2041
   73SLPC     P 6404   0.416   1.787   6.776 -0.6415  0.0453  0.4383
   73SLPC   O13 6405   0.531   1.695   6.769 -0.4781  0.5416 -0.6021
   73SLPC   O14 6406   0.293   1.754   6.705  0.0514 -0.2602  0.1552
   73SLPC   O12 6407   0.383   1.794   6.929 -0.5094  0.0400  0.0315
   73SLPC   O11 6408   0.465   1.934   6.740  0.3569 -0.5219 -0.0694
   73SLPC    C1 6409   0.383   2.034   6.681 -0.0930  0.6678  0.3672
   73SLPC    HA 6410   0.277   2.001   6.680 -0.2371  0.9362  2.3383
   73SLPC    HB 6411   0.386   2.124   6.746 -1.5772  0.7800  0.3063
   73SLPC    C2 6412   0.430   2.069   6.532 -0.5439 -0.0631  0.0645
   73SLPC    HS 6413   0.409   1.984   6.463  0.2258 -0.3840  0.2177
   73SLPC   O21 6414   0.556   2.128   6.529 -0.1281  0.3845  0.1900
   73SLPC   C21 6415   0.653   2.045   6.515 -0.8948 -0.3820 -0.0932
   73SLPC   O22 6416   0.640   1.923   6.493 -0.1454 -0.1393  0.1555
   73SLPC   C22 6417   0.791   2.112   6.538 -0.1447 -0.0562 -0.2340
   73SLPC   H2R 6418   0.790   2.222   6.525  1.8165 -0.1020 -1.0924
   73SLPC   H2S 6419   0.823   2.095   6.643 -0.5994 -0.2745 -0.1260
   73SLPC    C3 6420   0.330   2.182   6.481 -0.5093 -0.0002 -0.0873
   73SLPC    HX 6421   0.328   2.268   6.550 -2.9922  0.8853 -1.1570
   73SLPC    HY 6422   0.232   2.129   6.480 -0.5655  0.1034 -0.1216
   73SLPC   O31 6423   0.359   2.221   6.345 -0.0014 -0.0352  0.7977
   73SLPC   C31 6424   0.258   2.306   6.301 -0.0052  0.4191 -0.3815
   73SLPC   O32 6425   0.164   2.342   6.375 -0.1450  0.1373  0.0749
   73SLPC   C32 6426   0.279   2.329   6.153 -0.2211 -0.4818  0.1046
   73SLPC   H2X 6427   0.388   2.312   6.136  0.3098  2.4666 -0.0350
   73SLPC   H2Y 6428   0.263   2.435   6.121  0.4553 -0.7005 -1.0047
   73SLPC   C23 6429   0.896   2.060   6.442  0.8268  0.5379 -0.2070
   73SLPC   H3R 6430   0.909   1.950   6.448  2.3956  0.5154 -2.7247
   73SLPC   H3S 6431   0.998   2.093   6.474  1.2798 -1.4030  0.4905
   73SLPC   C24 6432   0.868   2.113   6.307 -0.5944  0.4074  0.3213
   73SLPC   H4R 6433   0.859   2.224   6.316 -0.7321  0.2716  2.4387
   73SLPC   H4S 6434   0.777   2.061   6.270 -0.1381 -1.1574  1.3018
   73SLPC   C25 6435   0.972   2.069   6.198  0.4721 -0.0852 -0.6716
   73SLPC   H5R 6436   0.974   1.958   6.204  1.3806 -0.0038  1.5486
   73SLPC   H5S 6437   1.079   2.094   6.214  0.2918 -0.2625  1.0313
   73SLPC   C26 6438   0.940   2.120   6.055 -0.0038  0.0867 -0.0940
   73SLPC   H6R 6439   0.978   2.224   6.045 -0.8708  0.9084  3.8003
   73SLPC   H6S 6440   0.829   2.118   6.048 -0.1648  0.9950  1.6539
   73SLPC   C27 6441   0.998   2.030   5.948 -0.1514  0.0119  0.0625
   73SLPC   H7R 6442   0.969   1.923   5.957 -1.1996  0.4650  2.6234
   73SLPC   H7S 6443   1.107   2.038   5.966 -0.1801 -1.8148  1.2329
   73SLPC   C28 6444   0.972   2.090   5.804  0.2122 -0.1760  0.7421
   73SLPC   H8R 6445   1.011   2.193   5.786 -0.1420 -0.5042 -2.6055
   73SLPC   H8S 6446   0.863   2.100   5.787  0.5006  1.7882 -0.3118
   73SLPC   C29 6447   1.026   1.987   5.706 -0.1288 -0.3242 -0.7843
   73SLPC   H9R 6448   1.035   1.885   5.745 -2.8692 -0.3619 -0.0327
   73SLPC  C210 6449   1.069   2.012   5.582 -0.1275  0.2926 -0.0868
   73SLPC  H10R 6450   1.101   1.923   5.525 -0.5553 -0.5081  0.8975
   73SLPC  C211 6451   1.063   2.142   5.499  0.2886  0.3758  0.8545
   73SLPC  H11R 6452   0.989   2.205   5.552  0.0916  1.1964 -0.3495
   73SLPC  H11S 6453   1.044   2.118   5.392  2.1022  0.6940  0.4358
   73SLPC  C212 6454   1.188   2.221   5.501  0.2802 -0.2943  0.1003
   73SLPC  H12R 6455   1.171   2.306   5.568  0.3461  0.6064 -0.9851
   73SLPC  C213 6456   1.306   2.195   5.447 -0.4741  1.2070 -0.7066
   73SLPC  H13R 6457   1.399   2.253   5.461  0.7150 -1.0327  1.3148
   73SLPC  C214 6458   1.323   2.081   5.345 -0.1277  0.4186 -0.6098
   73SLPC  H14R 6459   1.228   2.023   5.331 -0.5089  0.6242  0.9604
   73SLPC  H14S 6460   1.397   2.012   5.390  0.2876  0.6373 -0.9574
   73SLPC  C215 6461   1.376   2.133   5.212 -0.6396 -1.0290 -0.0752
   73SLPC  H15R 6462   1.416   2.051   5.149 -0.5665 -1.6436  0.7505
   73SLPC  H15S 6463   1.457   2.207   5.231 -0.1710 -1.3524 -0.7904
   73SLPC  C216 6464   1.256   2.199   5.141  0.1315  0.3363 -0.1958
   73SLPC  H16R 6465   1.218   2.281   5.206  0.1028  1.2574 -1.3390
   73SLPC  H16S 6466   1.174   2.126   5.127  0.4200  0.4260 -2.6205
   73SLPC  C217 6467   1.286   2.276   5.012 -0.2239  0.3007 -0.9298
   73SLPC  H17R 6468   1.367   2.350   5.027  2.0598 -2.3326  0.6548
   73SLPC  H17S 6469   1.187   2.314   4.978 -0.7391  0.8041  0.9528
   73SLPC  C218 6470   1.331   2.193   4.893  0.2384 -0.0245  0.7762
   73SLPC  H18R 6471   1.408   2.114   4.905  0.8760  0.3362 -0.7195
   73SLPC  H18S 6472   1.359   2.264   4.812 -1.0844  1.0277  1.1943
   73SLPC  H18T 6473   1.241   2.138   4.856  1.2359 -0.3700 -1.2441
   73SLPC   C33 6474   0.196   2.233   6.063  0.1823  0.7273 -0.2874
   73SLPC   H3X 6475   0.089   2.261   6.074 -0.3555 -0.5910 -1.8911
   73SLPC   H3Y 6476   0.210   2.128   6.096  1.5554  0.7351 -0.7644
   73SLPC   C34 6477   0.210   2.249   5.907 -0.1199 -0.3595 -0.2300
   73SLPC   H4X 6478   0.313   2.232   5.870 -0.0040  1.7858 -1.0864
   73SLPC   H4Y 6479   0.187   2.356   5.888 -0.2249  0.0950  2.1266
   73SLPC   C35 6480   0.117   2.157   5.830 -0.0681 -0.0463 -0.3167
   73SLPC   H5X 6481   0.096   2.203   5.731  0.1045 -1.9609 -1.2946
   73SLPC   H5Y 6482   0.020   2.162   5.883 -0.6172 -2.1002 -1.0332
   73SLPC   C36 6483   0.171   2.013   5.804  0.2664 -0.1972  0.1278
   73SLPC   H6X 6484   0.179   1.961   5.902 -1.1354  1.8407  1.3999
   73SLPC   H6Y 6485   0.269   2.023   5.754  0.4102  0.7569  0.5832
   73SLPC   C37 6486   0.079   1.942   5.705  0.9210  0.3188  0.2945
   73SLPC   H7X 6487  -0.022   1.987   5.706  0.9434  0.3499  1.2557
   73SLPC   H7Y 6488   0.074   1.834   5.728 -0.7653 -0.1723 -1.9524
   73SLPC   C38 6489   0.150   1.964   5.562  0.9158  0.5904  0.4886
   73SLPC   H8X 6490   0.250   1.916   5.570  1.7559  1.6709 -2.4736
   73SLPC   H8Y 6491   0.164   2.071   5.538  0.2506  0.6676  0.4449
   73SLPC   C39 6492   0.069   1.883   5.450  0.9260 -0.4130 -0.2931
   73SLPC   H9X 6493  -0.027   1.931   5.422  0.5440 -1.7784 -1.4000
   73SLPC   H9Y 6494   0.041   1.784   5.492 -1.4053  0.8920  1.4617
   73SLPC  C310 6495   0.145   1.882   5.320  1.0330  0.5159  0.2937
   73SLPC  H10X 6496   0.244   1.837   5.345  0.2155 -2.1824 -0.8901
   73SLPC  H10Y 6497   0.157   1.985   5.281  0.0835 -0.5622 -3.1881
   73SLPC  C311 6498   0.074   1.799   5.210 -0.0684 -0.8692  0.3206
   73SLPC  H11X 6499  -0.027   1.843   5.210  0.4378  0.5505 -3.0137
   73SLPC  H11Y 6500   0.065   1.691   5.236 -1.0607 -0.0192  4.2020
   73SLPC  C312 6501   0.141   1.812   5.077 -0.4793  0.7629  0.4193
   73SLPC  H12X 6502   0.165   1.920   5.065 -2.6517  1.2317 -0.1173
   73SLPC  H12Y 6503   0.101   1.768   4.983  3.0494 -0.0964 -0.8190
   73SLPC  C313 6504   0.280   1.738   5.065 -0.4662  0.1487  0.4214
   73SLPC  H13X 6505   0.263   1.630   5.084 -0.6470  0.5031  2.5352
   73SLPC  H13Y 6506   0.355   1.781   5.135 -1.4351  0.5312  1.2500
   73SLPC  C314 6507   0.349   1.752   4.933  1.0633 -0.3889  0.4129
   73SLPC  H14X 6508   0.457   1.730   4.950  1.8369  1.9763 -0.9273
   73SLPC  H14Y 6509   0.339   1.854   4.889 -0.8209 -1.9012 -3.0520
   73SLPC  C315 6510   0.305   1.657   4.820 -0.1452  0.1004 -0.1561
   73SLPC  H15X 6511   0.195   1.661   4.805 -0.1263 -0.6691 -0.5325
   73SLPC  H15Y 6512   0.337   1.552   4.835  1.1206  0.5549  0.5346
   73SLPC  C316 6513   0.375   1.686   4.686 -0.0457 -0.0893  0.3122
   73SLPC  H16X 6514   0.482   1.700   4.714 -0.5520  0.3357  2.1553
   73SLPC  H16Y 6515   0.339   1.780   4.641  0.3153 -0.4437 -0.7557
   73SLPC  C317 6516   0.360   1.563   4.591  0.5134 -0.5947 -0.3017
   73SLPC  H17X 6517   0.397   1.472   4.643  1.8826  0.8364  1.3513
   73SLPC  H17Y 6518   0.424   1.576   4.500 -1.8818  0.6564 -1.8989
   73SLPC  C318 6519   0.213   1.547   4.547 -0.7333  0.1544  0.7433
   73SLPC  H18X 6520   0.178   1.649   4.521  2.8896  1.6183  1.0050
   73SLPC  H18Y 6521   0.150   1.503   4.627 -0.3832  0.7586  1.3581
   73SLPC  H18Z 6522   0.216   1.472   4.465  0.5682 -0.4433  1.3005
   74SLPC     N 6523   4.306   0.754   6.474  0.3446 -0.1833 -0.1512
   74SLPC   C13 6524   4.281   0.745   6.622 -0.2578 -0.0656  0.1475
   74SLPC  H13A 6525   4.250   0.840   6.664 -0.0634 -0.4056  1.0861
   74SLPC  H13B 6526   4.221   0.659   6.648 -1.0367 -0.3111 -2.1997
   74SLPC  H13C 6527   4.375   0.730   6.672 -1.1701 -2.3423  1.3436
   74SLPC   C14 6528   4.347   0.621   6.421  0.0773  0.0849 -0.0703
   74SLPC  H14A 6529   4.451   0.602   6.443  0.0980 -1.2392 -1.1546
   74SLPC  H14B 6530   4.283   0.548   6.469 -0.2785  2.0564  2.7221
   74SLPC  H14C 6531   4.320   0.614   6.317 -0.8536 -1.0188  0.2229
   74SLPC   C15 6532   4.417   0.851   6.452 -0.4376 -0.3706 -0.5298
   74SLPC  H15A 6533   4.504   0.824   6.511 -0.8622  0.3119  0.4263
   74SLPC  H15B 6534   4.447   0.873   6.350  0.6313 -0.4384 -0.2466
   74SLPC  H15C 6535   4.392   0.945   6.497 -1.2385 -1.1402  0.6890
   74SLPC   C12 6536   4.181   0.807   6.410 -0.3131 -0.1852  0.1475
   74SLPC  H12A 6537   4.133   0.886   6.467 -0.1790  1.2341 -1.5801
   74SLPC  H12B 6538   4.102   0.733   6.413 -1.1312  0.6671  0.4056
   74SLPC   C11 6539   4.196   0.854   6.260  1.3154 -0.2934 -0.0193
   74SLPC  H11A 6540   4.293   0.904   6.238  1.5579 -0.9086 -0.3763
   74SLPC  H11B 6541   4.112   0.921   6.233  2.5045  0.9064 -0.8887
   74SLPC     P 6542   4.228   0.722   6.029 -0.1584 -0.1783 -0.1512
   74SLPC   O13 6543   4.373   0.750   6.012 -0.1338  0.1313  0.2922
   74SLPC   O14 6544   4.181   0.584   5.991  0.3386 -0.6229 -0.6761
   74SLPC   O12 6545   4.187   0.740   6.180  0.7679 -0.3295 -0.1576
   74SLPC   O11 6546   4.138   0.829   5.951 -0.1041 -0.9611 -0.3157
   74SLPC    C1 6547   4.003   0.827   5.919 -0.4796 -0.4409 -0.0762
   74SLPC    HA 6548   3.954   0.742   5.971  4.1398 -1.7237  2.7350
   74SLPC    HB 6549   3.951   0.916   5.959  0.3227 -0.8401  1.9589
   74SLPC    C2 6550   3.982   0.806   5.765  0.1365  0.3176 -0.1068
   74SLPC    HS 6551   4.019   0.705   5.738  2.0274  1.1611 -0.8433
   74SLPC   O21 6552   4.049   0.913   5.696 -0.0759 -0.0371  0.2328
   74SLPC   C21 6553   4.171   0.876   5.653  0.0355 -0.2749 -0.2756
   74SLPC   O22 6554   4.217   0.767   5.662 -0.1199  0.5407 -0.0159
   74SLPC   C22 6555   4.227   0.984   5.562  0.2490  0.0153  0.0199
   74SLPC   H2R 6556   4.250   1.072   5.626  1.4920  0.7007 -1.3099
   74SLPC   H2S 6557   4.327   0.947   5.531 -0.3136 -0.7505 -0.9318
   74SLPC    C3 6558   3.829   0.811   5.733 -0.9728  0.3464 -0.4290
   74SLPC    HX 6559   3.799   0.905   5.785 -1.6101  0.2491 -0.6161
   74SLPC    HY 6560   3.768   0.732   5.782  1.2310  0.4918  2.8871
   74SLPC   O31 6561   3.794   0.828   5.590  0.2798  0.0746 -0.7794
   74SLPC   C31 6562   3.824   0.726   5.510  0.3911  1.3063 -0.4466
   74SLPC   O32 6563   3.874   0.618   5.548  0.0879 -0.5976 -0.2234
   74SLPC   C32 6564   3.788   0.759   5.370 -1.0896 -0.4802  0.4614
   74SLPC   H2X 6565   3.862   0.825   5.321 -1.0429 -1.7164 -1.2423
   74SLPC   H2Y 6566   3.689   0.809   5.364 -0.9480 -0.1667  0.7435
   74SLPC   C23 6567   4.142   1.024   5.442  0.5058 -0.9380  0.0880
   74SLPC   H3R 6568   4.162   1.131   5.422  0.4859 -0.9245  0.1408
   74SLPC   H3S 6569   4.035   1.027   5.475 -0.0828 -0.7788 -1.7132
   74SLPC   C24 6570   4.166   0.942   5.313  0.4708  0.0557  0.4962
   74SLPC   H4R 6571   4.135   0.836   5.326 -1.7463  0.5545 -0.3733
   74SLPC   H4S 6572   4.273   0.958   5.286  0.1237  1.4743 -0.1464
   74SLPC   C25 6573   4.095   0.998   5.190  0.0930  0.0099 -0.3099
   74SLPC   H5R 6574   4.150   1.090   5.162 -1.0058  0.6780 -0.3178
   74SLPC   H5S 6575   3.992   1.021   5.225 -0.4279 -0.7478 -1.3156
   74SLPC   C26 6576   4.082   0.904   5.068  0.4585  0.2754 -0.7718
   74SLPC   H6R 6577   4.010   0.822   5.090  0.0202  0.6850 -0.6475
   74SLPC   H6S 6578   4.181   0.870   5.032  1.6391  2.4144  0.2499
   74SLPC   C27 6579   4.036   0.972   4.941  0.2524 -0.1508 -0.1381
   74SLPC   H7R 6580   4.104   1.059   4.927  0.3799  0.3296  2.8574
   74SLPC   H7S 6581   3.939   1.024   4.956  1.0091  0.9700  1.0886
   74SLPC   C28 6582   4.037   0.880   4.812 -0.2598  0.0781 -0.2732
   74SLPC   H8R 6583   3.978   0.787   4.829 -0.6902  0.6916  1.9077
   74SLPC   H8S 6584   4.142   0.848   4.801 -0.8693 -1.9411 -0.6375
   74SLPC   C29 6585   3.974   0.963   4.701 -0.4678  0.1713  0.3552
   74SLPC   H9R 6586   3.865   0.969   4.717 -0.5235  1.8604 -0.4900
   74SLPC  C210 6587   4.034   1.017   4.593 -0.5675 -0.3144 -0.0568
   74SLPC  H10R 6588   3.969   1.073   4.525 -1.5039 -1.7904 -0.4191
   74SLPC  C211 6589   4.185   0.996   4.558  0.1105 -1.0657  0.2122
   74SLPC  H11R 6590   4.213   0.889   4.561  0.1169 -1.0606  2.5353
   74SLPC  H11S 6591   4.245   1.047   4.638 -1.4232  1.4699 -0.1421
   74SLPC  C212 6592   4.221   1.080   4.438 -0.2619 -0.4383  0.4197
   74SLPC  H12R 6593   4.263   1.179   4.460  1.1403 -0.3128 -2.2581
   74SLPC  C213 6594   4.196   1.046   4.312 -1.0157 -0.6280  0.2700
   74SLPC  H13R 6595   4.231   1.108   4.229  0.1810 -1.2975  0.2586
   74SLPC  C214 6596   4.135   0.912   4.270  0.5223  0.1560 -0.5132
   74SLPC  H14R 6597   4.063   0.871   4.344  2.0508 -2.8643 -0.5815
   74SLPC  H14S 6598   4.210   0.832   4.250  0.7258 -0.3255  1.9390
   74SLPC  C215 6599   4.058   0.927   4.139 -0.8945  0.2710 -0.0196
   74SLPC  H15R 6600   4.015   1.029   4.128  0.0548  0.4445 -2.9048
   74SLPC  H15S 6601   3.981   0.848   4.130 -1.7019  1.0444 -0.1149
   74SLPC  C216 6602   4.148   0.907   4.015 -0.5883  0.0609  0.4316
   74SLPC  H16R 6603   4.201   0.809   4.019 -1.1297 -0.2060  1.7654
   74SLPC  H16S 6604   4.223   0.988   4.028 -0.3569 -0.4139  2.4290
   74SLPC  C217 6605   4.080   0.936   3.883 -0.2527  0.8864 -0.4235
   74SLPC  H17R 6606   3.991   1.000   3.893 -0.8489  0.1757 -1.0222
   74SLPC  H17S 6607   4.058   0.830   3.856  3.5179 -0.4296  1.0244
   74SLPC  C218 6608   4.178   0.999   3.778 -0.2502  0.5761 -0.9115
   74SLPC  H18R 6609   4.284   0.969   3.794  0.4297  3.9249  2.5740
   74SLPC  H18S 6610   4.187   1.104   3.814  1.3453 -0.2372  1.2952
   74SLPC  H18T 6611   4.137   0.978   3.677 -0.3316  0.5555 -0.8736
   74SLPC   C33 6612   3.791   0.636   5.270  0.0588 -0.2084 -0.1413
   74SLPC   H3X 6613   3.724   0.554   5.304  2.0106 -1.4593  0.8758
   74SLPC   H3Y 6614   3.896   0.601   5.257  0.4597  1.1835 -0.7253
   74SLPC   C34 6615   3.745   0.681   5.136 -0.0568  0.0874 -0.5789
   74SLPC   H4X 6616   3.786   0.783   5.123 -1.1408  0.9333  1.9754
   74SLPC   H4Y 6617   3.635   0.690   5.147  0.0411 -0.1030  0.6105
   74SLPC   C35 6618   3.783   0.592   5.022 -0.2880 -0.8808 -0.5099
   74SLPC   H5X 6619   3.779   0.483   5.047  0.8731 -1.1479 -1.4051
   74SLPC   H5Y 6620   3.890   0.610   4.996 -0.8904 -0.6381 -3.0547
   74SLPC   C36 6621   3.716   0.608   4.885 -0.6866 -0.2694  0.0745
   74SLPC   H6X 6622   3.775   0.684   4.829  0.3639 -0.1465  1.2900
   74SLPC   H6Y 6623   3.610   0.640   4.892 -0.0216  1.8478  1.1001
   74SLPC   C37 6624   3.713   0.476   4.811 -0.3189 -0.4023  0.1721
   74SLPC   H7X 6625   3.627   0.421   4.854 -0.5350 -0.2238 -0.0280
   74SLPC   H7Y 6626   3.804   0.417   4.831 -0.6699 -0.2799  2.3997
   74SLPC   C38 6627   3.683   0.487   4.661  0.4096  0.5135  0.5324
   74SLPC   H8X 6628   3.779   0.485   4.604  0.6755 -0.4841  0.9865
   74SLPC   H8Y 6629   3.620   0.576   4.642 -0.3580  0.0976  1.0947
   74SLPC   C39 6630   3.614   0.355   4.612 -0.1933 -0.1380 -0.1484
   74SLPC   H9X 6631   3.530   0.333   4.681  0.4612  0.7938  0.9798
   74SLPC   H9Y 6632   3.690   0.277   4.631  0.3868  0.5613  0.4431
   74SLPC  C310 6633   3.569   0.362   4.465 -0.0021 -0.1072  0.6469
   74SLPC  H10X 6634   3.628   0.297   4.397  0.5534 -0.2956  1.3023
   74SLPC  H10Y 6635   3.578   0.470   4.438  0.7150 -0.0793  0.9546
   74SLPC  C311 6636   3.424   0.328   4.450  0.0686 -0.2426  0.7039
   74SLPC  H11X 6637   3.371   0.391   4.525 -3.7249 -1.4545 -0.7060
   74SLPC  H11Y 6638   3.424   0.222   4.483  0.1368 -0.4627  0.0027
   74SLPC  C312 6639   3.356   0.358   4.315 -0.3875  0.6438 -0.2840
   74SLPC  H12X 6640   3.397   0.291   4.237 -1.2724 -0.6542  0.3298
   74SLPC  H12Y 6641   3.386   0.456   4.273 -1.6725  0.4619 -1.7133
   74SLPC  C313 6642   3.207   0.378   4.339  0.1935 -0.3721 -0.0122
   74SLPC  H13X 6643   3.186   0.429   4.435 -2.6289  0.1350 -0.7916
   74SLPC  H13Y 6644   3.150   0.282   4.341  0.1109 -0.3342 -0.4477
   74SLPC  C314 6645   3.139   0.457   4.218 -0.2097  0.1911 -0.4331
   74SLPC  H14X 6646   3.115   0.384   4.138 -0.6722 -0.1478  0.0015
   74SLPC  H14Y 6647   3.205   0.531   4.169  0.4240 -0.5448 -0.7118
   74SLPC  C315 6648   3.002   0.520   4.254 -0.1904  0.4079  0.3655
   74SLPC  H15X 6649   3.022   0.611   4.314  2.5222 -0.3919  0.8374
   74SLPC  H15Y 6650   2.935   0.457   4.317 -2.0182  2.1962  0.3050
   74SLPC  C316 6651   2.930   0.570   4.127 -0.1075  0.4445 -0.1899
   74SLPC  H16X 6652   2.944   0.495   4.045 -1.5558  0.5258 -0.5428
   74SLPC  H16Y 6653   2.981   0.662   4.093  1.9407 -0.2033  1.0061
   74SLPC  C317 6654   2.782   0.587   4.153 -0.3401 -0.3182 -0.3141
   74SLPC  H17X 6655   2.779   0.672   4.225  0.9048 -0.9169  0.4583
   74SLPC  H17Y 6656   2.747   0.489   4.191  1.1379 -0.9818 -0.5916
   74SLPC  C318 6657   2.704   0.616   4.026 -0.3114 -0.5273 -0.4578
   74SLPC  H18X 6658   2.732   0.709   3.972  0.0712  0.5154  1.4526
   74SLPC  H18Y 6659   2.593   0.618   4.035 -0.2444  1.1913  0.3295
   74SLPC  H18Z 6660   2.727   0.531   3.958  0.5344 -1.5874  1.0953
   75SLPC     N 6661   0.377   1.338   7.080 -0.0873  0.0122  0.9823
   75SLPC   C13 6662   0.317   1.474   7.088 -0.0301 -0.9789 -0.4657
   75SLPC  H13A 6663   0.391   1.547   7.116 -0.3913  0.0061 -1.9488
   75SLPC  H13B 6664   0.277   1.503   6.992 -0.7309  0.2814  0.1783
   75SLPC  H13C 6665   0.241   1.488   7.163  2.4870  0.3015  2.0163
   75SLPC   C14 6666   0.254   1.249   7.065 -0.3364 -0.1978  0.0035
   75SLPC  H14A 6667   0.187   1.259   7.149  1.2419  0.6543  1.2358
   75SLPC  H14B 6668   0.205   1.290   6.978 -1.0057  2.6770  1.5949
   75SLPC  H14C 6669   0.282   1.145   7.066  1.8651  0.3281  1.3307
   75SLPC   C15 6670   0.454   1.305   7.200 -0.3090  0.1263  0.8433
   75SLPC  H15A 6671   0.545   1.363   7.208 -0.0443 -0.4781  2.9319
   75SLPC  H15B 6672   0.386   1.330   7.280 -2.4366 -0.8974 -0.5786
   75SLPC  H15C 6673   0.477   1.200   7.198 -3.0619 -0.5331  0.3324
   75SLPC   C12 6674   0.453   1.317   6.947  0.2287 -0.3365 -0.0827
   75SLPC  H12A 6675   0.479   1.213   6.936  1.3737 -0.1113  0.3948
   75SLPC  H12B 6676   0.539   1.380   6.966  0.0157 -0.0267 -0.1250
   75SLPC   C11 6677   0.389   1.373   6.816 -0.3190 -0.1065 -0.4135
   75SLPC  H11A 6678   0.469   1.347   6.744  0.7195 -1.2972  1.0824
   75SLPC  H11B 6679   0.372   1.482   6.825  0.9606 -0.0655  3.7588
   75SLPC     P 6680   0.277   1.166   6.708  0.0369  0.1594 -0.0969
   75SLPC   O13 6681   0.356   1.074   6.794 -0.8725 -0.0747  0.0653
   75SLPC   O14 6682   0.137   1.116   6.682  0.5474  0.8925 -0.0823
   75SLPC   O12 6683   0.268   1.307   6.784  0.5064 -0.8306  0.1829
   75SLPC   O11 6684   0.350   1.210   6.573  0.1693 -0.1008  0.2337
   75SLPC    C1 6685   0.282   1.299   6.485 -0.1012  0.1766 -0.0646
   75SLPC    HA 6686   0.223   1.234   6.417  1.2661 -1.7298  0.4713
   75SLPC    HB 6687   0.237   1.385   6.539 -0.0481  1.1493 -1.5351
   75SLPC    C2 6688   0.376   1.375   6.381  0.6309 -0.0522  0.0279
   75SLPC    HS 6689   0.304   1.409   6.303  0.0984  0.0056  0.5410
   75SLPC   O21 6690   0.472   1.284   6.329 -0.0834 -0.0552  0.1574
   75SLPC   C21 6691   0.532   1.328   6.219  0.2445  0.3431 -0.6066
   75SLPC   O22 6692   0.488   1.408   6.145 -0.1910 -0.5211  0.1310
   75SLPC   C22 6693   0.645   1.226   6.192 -0.1272 -0.6252 -0.0801
   75SLPC   H2R 6694   0.733   1.248   6.256 -0.1989 -0.7639  0.0677
   75SLPC   H2S 6695   0.622   1.123   6.229  2.7246 -0.8793  1.2173
   75SLPC    C3 6696   0.435   1.503   6.445  0.6251 -0.0093 -0.2292
   75SLPC    HX 6697   0.520   1.468   6.508  0.8572 -1.5310 -1.3441
   75SLPC    HY 6698   0.368   1.561   6.512 -1.0424  0.0762 -1.8955
   75SLPC   O31 6699   0.494   1.587   6.350  0.3029  0.0545  0.0564
   75SLPC   C31 6700   0.440   1.696   6.314  0.3502 -0.0594  0.1106
   75SLPC   O32 6701   0.330   1.740   6.356 -0.3739  0.3131 -0.8259
   75SLPC   C32 6702   0.511   1.749   6.194 -0.1668  1.4431 -0.3494
   75SLPC   H2X 6703   0.511   1.673   6.114  1.0150  1.1700 -0.1070
   75SLPC   H2Y 6704   0.618   1.764   6.218  1.1430 -3.2679 -2.1459
   75SLPC   C23 6705   0.685   1.220   6.040 -0.8624  0.2937  0.6103
   75SLPC   H3R 6706   0.721   1.322   6.013  0.8952 -0.2344  0.8626
   75SLPC   H3S 6707   0.600   1.196   5.973 -0.3564  0.6400 -0.1792
   75SLPC   C24 6708   0.789   1.116   6.020  0.0456  0.4678  0.1244
   75SLPC   H4R 6709   0.772   1.032   6.092 -1.2882  1.0744  0.5569
   75SLPC   H4S 6710   0.888   1.156   6.047  1.3082 -2.3840  0.1266
   75SLPC   C25 6711   0.793   1.068   5.872 -0.2811  0.3056  0.3097
   75SLPC   H5R 6712   0.696   1.015   5.855 -0.5836  0.9265  0.0679
   75SLPC   H5S 6713   0.880   0.999   5.873 -0.7658 -0.3042  0.7624
   75SLPC   C26 6714   0.813   1.179   5.762  0.1662 -0.4495  0.0881
   75SLPC   H6R 6715   0.912   1.223   5.783 -0.9921  1.1853  2.5530
   75SLPC   H6S 6716   0.731   1.253   5.770  0.2897 -0.3700  0.6111
   75SLPC   C27 6717   0.816   1.114   5.628  0.1683  0.1772 -0.1822
   75SLPC   H7R 6718   0.713   1.071   5.624 -0.6864  1.9052  1.6631
   75SLPC   H7S 6719   0.896   1.037   5.636 -0.4228 -0.3597  0.7139
   75SLPC   C28 6720   0.837   1.204   5.511 -0.0760 -0.2159 -0.9914
   75SLPC   H8R 6721   0.937   1.248   5.530  1.0421 -3.2477  0.8887
   75SLPC   H8S 6722   0.762   1.285   5.528  0.6397 -0.1345  2.3723
   75SLPC   C29 6723   0.827   1.127   5.388  0.1417  0.3779  0.1584
   75SLPC   H9R 6724   0.761   1.039   5.390 -0.2456  0.6750  0.9145
   75SLPC  C210 6725   0.913   1.146   5.285 -0.2477 -0.1600  0.5441
   75SLPC  H10R 6726   0.899   1.095   5.189  0.8002 -1.4223  1.0389
   75SLPC  C211 6727   1.032   1.239   5.273  0.4976  0.8296 -0.0549
   75SLPC  H11R 6728   1.115   1.179   5.229  0.7686 -0.3362  1.9057
   75SLPC  H11S 6729   1.082   1.266   5.368 -1.5176  1.0854  0.9905
   75SLPC  C212 6730   0.991   1.355   5.183 -0.3595 -0.2904 -0.5046
   75SLPC  H12R 6731   0.906   1.420   5.207  1.7507  2.1553  0.8123
   75SLPC  C213 6732   1.067   1.406   5.092 -0.1788  0.2609  0.1287
   75SLPC  H13R 6733   1.027   1.490   5.033 -2.3797 -1.1177 -0.4491
   75SLPC  C214 6734   1.195   1.347   5.041 -0.0918  0.8434  0.1127
   75SLPC  H14R 6735   1.253   1.302   5.124  1.7673  2.3755 -0.3016
   75SLPC  H14S 6736   1.267   1.420   4.999  0.0692  0.9186  0.5149
   75SLPC  C215 6737   1.186   1.247   4.926 -0.3550 -0.1260 -0.1602
   75SLPC  H15R 6738   1.127   1.296   4.846 -0.4452  0.5605  0.3164
   75SLPC  H15S 6739   1.126   1.158   4.954 -2.5598  0.6030 -2.2135
   75SLPC  C216 6740   1.324   1.186   4.887  0.5401  0.1128 -0.1532
   75SLPC  H16R 6741   1.386   1.161   4.975 -0.2939 -0.4733  0.2754
   75SLPC  H16S 6742   1.380   1.270   4.840 -0.3465  0.2427 -1.0078
   75SLPC  C217 6743   1.312   1.066   4.795 -1.3893  0.3602 -0.0747
   75SLPC  H17R 6744   1.275   0.980   4.856 -1.2696 -0.2419 -0.8495
   75SLPC  H17S 6745   1.415   1.041   4.763 -0.9022  2.6188 -0.4550
   75SLPC  C218 6746   1.223   1.083   4.671  0.0787 -0.5898  0.2347
   75SLPC  H18R 6747   1.252   1.169   4.606 -0.2051 -0.5789  0.1211
   75SLPC  H18S 6748   1.113   1.085   4.684 -0.0349  0.9014 -0.7008
   75SLPC  H18T 6749   1.250   0.995   4.608 -0.0090  0.6363 -1.5987
   75SLPC   C33 6750   0.446   1.882   6.158  0.6963 -0.0047 -0.3868
   75SLPC   H3X 6751   0.433   1.948   6.246 -2.1647  2.2474 -2.3096
   75SLPC   H3Y 6752   0.340   1.879   6.123  1.0232  1.2389 -1.5787
   75SLPC   C34 6753   0.518   1.965   6.043 -0.7921  0.0911  0.2787
   75SLPC   H4X 6754   0.628   1.966   6.052 -0.7234  0.1595 -0.4961
   75SLPC   H4Y 6755   0.475   2.068   6.047  0.8861  1.0157 -2.3938
   75SLPC   C35 6756   0.489   1.908   5.909 -0.7497 -0.2560  0.6182
   75SLPC   H5X 6757   0.380   1.897   5.895 -0.5375 -0.1635 -1.4515
   75SLPC   H5Y 6758   0.542   1.811   5.896  0.1403  0.2907  0.0132
   75SLPC   C36 6759   0.543   2.015   5.813 -0.7713 -0.3994 -0.5342
   75SLPC   H6X 6760   0.652   2.033   5.829 -0.6821 -1.1774 -0.2313
   75SLPC   H6Y 6761   0.493   2.114   5.820  1.0558  0.5378 -0.1826
   75SLPC   C37 6762   0.536   1.952   5.675 -0.5807  0.6148 -0.1176
   75SLPC   H7X 6763   0.430   1.934   5.648 -0.2348  0.5553 -1.5151
   75SLPC   H7Y 6764   0.597   1.859   5.678 -2.1730 -0.4583  2.3843
   75SLPC   C38 6765   0.590   2.030   5.554  0.1181  0.1398  0.0561
   75SLPC   H8X 6766   0.700   2.014   5.556  0.2846  1.2671  0.7187
   75SLPC   H8Y 6767   0.574   2.137   5.579 -1.3755 -0.4799  1.9628
   75SLPC   C39 6768   0.523   1.994   5.424 -0.0894  0.2353  0.0168
   75SLPC   H9X 6769   0.413   1.994   5.437 -0.1760 -3.2601  0.0150
   75SLPC   H9Y 6770   0.554   1.892   5.395 -0.4965  0.6088 -1.8449
   75SLPC  C310 6771   0.567   2.095   5.314 -0.5082 -0.1924  0.1628
   75SLPC  H10X 6772   0.675   2.091   5.288 -1.1860  0.1208 -3.1326
   75SLPC  H10Y 6773   0.551   2.198   5.354  1.9197  0.4217 -0.2678
   75SLPC  C311 6774   0.493   2.075   5.181  0.5347 -0.1277 -0.2390
   75SLPC  H11X 6775   0.386   2.103   5.183  0.8360  1.0748  0.2484
   75SLPC  H11Y 6776   0.506   1.968   5.153 -0.6746  0.2882 -2.6036
   75SLPC  C312 6777   0.564   2.150   5.067 -0.6772  0.2653 -0.1424
   75SLPC  H12X 6778   0.628   2.077   5.014 -0.3729 -0.0353  0.6171
   75SLPC  H12Y 6779   0.631   2.228   5.111  0.9531 -1.6739  0.9927
   75SLPC  C313 6780   0.456   2.210   4.973 -0.3869  0.3342 -0.7261
   75SLPC  H13X 6781   0.408   2.299   5.019  2.8029  1.2561  1.1610
   75SLPC  H13Y 6782   0.376   2.134   4.962 -0.7315  0.5341  0.2894
   75SLPC  C314 6783   0.514   2.248   4.833  0.5217  0.2236 -0.3221
   75SLPC  H14X 6784   0.434   2.290   4.769 -0.2070 -0.8336 -0.1313
   75SLPC  H14Y 6785   0.551   2.152   4.791  0.5655  0.1634 -0.1494
   75SLPC  C315 6786   0.635   2.342   4.835 -0.5807 -0.1706 -0.0229
   75SLPC  H15X 6787   0.710   2.298   4.905  0.6778 -0.1387 -1.3056
   75SLPC  H15Y 6788   0.602   2.439   4.876 -1.7058 -0.2436 -0.7335
   75SLPC  C316 6789   0.698   2.371   4.695  0.0520 -0.3792  0.1936
   75SLPC  H16X 6790   0.624   2.424   4.631  2.0456 -0.2926 -2.2211
   75SLPC  H16Y 6791   0.721   2.273   4.649  2.1182 -0.7765  1.9023
   75SLPC  C317 6792   0.814   2.458   4.723  0.4105 -1.2095  0.5317
   75SLPC  H17X 6793   0.900   2.410   4.772  0.8419 -2.9074 -1.7396
   75SLPC  H17Y 6794   0.783   2.542   4.789 -0.9504  1.2177 -2.8716
   75SLPC  C318 6795   0.873   2.524   4.598  0.0884 -0.3401 -0.1570
   75SLPC  H18X 6796   0.890   2.454   4.514 -3.9508 -0.1006 -1.3757
   75SLPC  H18Y 6797   0.969   2.573   4.626 -0.7406  2.3726 -1.6438
   75SLPC  H18Z 6798   0.803   2.607   4.573 -2.6516 -1.6163  2.5246
   76SLPC     N 6799   2.524   3.873   6.943 -0.2599 -0.1425 -0.5346
   76SLPC   C13 6800   2.395   3.936   6.893 -0.3448  0.7476  0.5155
   76SLPC  H13A 6801   2.318   3.880   6.942 -1.1568  1.3731 -0.0228
   76SLPC  H13B 6802   2.388   4.040   6.923 -0.2742  0.8283  0.2602
   76SLPC  H13C 6803   2.384   3.930   6.786  1.3005 -1.0024  0.3836
   76SLPC   C14 6804   2.527   3.728   6.915 -0.0258  0.6825  0.2366
   76SLPC  H14A 6805   2.511   3.709   6.810  1.1019 -3.1882  0.6033
   76SLPC  H14B 6806   2.628   3.694   6.936  0.1495  1.4312  0.6263
   76SLPC  H14C 6807   2.446   3.671   6.959 -1.6443  1.7134 -1.2733
   76SLPC   C15 6808   2.527   3.898   7.091  0.5730  0.8675  0.2754
   76SLPC  H15A 6809   2.607   3.844   7.138 -0.7918 -1.9422 -0.4481
   76SLPC  H15B 6810   2.518   4.004   7.113 -1.3806  0.6977  0.4309
   76SLPC  H15C 6811   2.442   3.860   7.144  0.8799 -0.3081 -0.0548
   76SLPC   C12 6812   2.644   3.930   6.869  0.0681 -0.5422  0.1541
   76SLPC  H12A 6813   2.642   4.038   6.869 -1.6657 -0.4784 -2.3392
   76SLPC  H12B 6814   2.631   3.912   6.764 -0.0583  1.2506 -0.1620
   76SLPC   C11 6815   2.782   3.890   6.918  0.1911  0.3589 -0.0689
   76SLPC  H11A 6816   2.784   3.889   7.029  0.5589 -0.5757 -0.0732
   76SLPC  H11B 6817   2.854   3.962   6.873 -1.8226  1.7355 -1.2317
   76SLPC     P 6818   2.939   3.705   6.817 -0.3724 -0.1832 -0.2894
   76SLPC   O13 6819   2.961   3.767   6.682 -0.1267 -0.4816  0.1151
   76SLPC   O14 6820   3.045   3.723   6.920 -0.0761  0.4768  0.3775
   76SLPC   O12 6821   2.800   3.756   6.863  0.0368  0.5138  0.2566
   76SLPC   O11 6822   2.915   3.546   6.804 -0.6248  0.6886  0.5586
   76SLPC    C1 6823   2.806   3.514   6.714  0.0210 -0.6571 -0.1366
   76SLPC    HA 6824   2.706   3.553   6.741 -0.6047 -1.2533 -1.5415
   76SLPC    HB 6825   2.832   3.557   6.615  0.6076  0.2701  0.4044
   76SLPC    C2 6826   2.793   3.370   6.685 -0.3707  0.6914 -0.2061
   76SLPC    HS 6827   2.765   3.328   6.784 -0.3768 -1.0477 -0.9119
   76SLPC   O21 6828   2.924   3.323   6.647 -0.1744  0.7113 -0.0821
   76SLPC   C21 6829   2.946   3.191   6.641  0.1887 -0.5353 -0.0561
   76SLPC   O22 6830   2.858   3.113   6.676 -0.0076  0.3905 -0.4191
   76SLPC   C22 6831   3.091   3.157   6.606 -0.2361  0.0564 -0.5724
   76SLPC   H2R 6832   3.127   3.248   6.554 -1.0527  0.0342 -1.1818
   76SLPC   H2S 6833   3.147   3.159   6.703 -1.2168 -0.5011  0.0191
   76SLPC    C3 6834   2.684   3.332   6.580  0.6010 -0.3208  0.5639
   76SLPC    HX 6835   2.583   3.361   6.618  1.0618 -0.9825  2.4292
   76SLPC    HY 6836   2.669   3.223   6.564 -1.9584  0.1489 -0.8668
   76SLPC   O31 6837   2.707   3.396   6.451 -0.3240  0.3688 -0.2939
   76SLPC   C31 6838   2.758   3.320   6.356  0.7888  0.7874  0.4016
   76SLPC   O32 6839   2.749   3.196   6.357  0.5243  0.9380  0.5496
   76SLPC   C32 6840   2.841   3.403   6.259  0.4592 -0.0787 -0.2942
   76SLPC   H2X 6841   2.940   3.414   6.308  1.0229  1.8604 -1.7907
   76SLPC   H2Y 6842   2.804   3.506   6.246  2.0076  0.5567  0.1309
   76SLPC   C23 6843   3.119   3.029   6.534  0.5223  0.5749  0.5537
   76SLPC   H3R 6844   3.070   2.945   6.586 -0.3045  1.4498  1.2332
   76SLPC   H3S 6845   3.230   3.023   6.544  0.6135  1.0868 -0.0150
   76SLPC   C24 6846   3.082   3.034   6.386  0.0351  0.8393  0.4808
   76SLPC   H4R 6847   3.088   3.135   6.340 -1.1718  1.0254  0.6854
   76SLPC   H4S 6848   2.974   3.010   6.374 -0.2496  0.0915  3.7704
   76SLPC   C25 6849   3.169   2.942   6.298  0.9269  0.7625 -0.5403
   76SLPC   H5R 6850   3.163   2.843   6.347  1.8253  0.3535 -1.2220
   76SLPC   H5S 6851   3.273   2.976   6.319  1.0823 -0.6498  1.1817
   76SLPC   C26 6852   3.149   2.947   6.145 -0.4482 -0.0432  0.5319
   76SLPC   H6R 6853   3.135   3.056   6.126 -0.3836  0.0307  0.9037
   76SLPC   H6S 6854   3.058   2.893   6.112  0.9359 -1.5812 -0.9805
   76SLPC   C27 6855   3.266   2.895   6.059 -0.0492 -0.5176 -0.2277
   76SLPC   H7R 6856   3.306   2.799   6.098  0.4391 -0.2806 -0.1411
   76SLPC   H7S 6857   3.344   2.973   6.071 -0.7752  0.0341  1.1591
   76SLPC   C28 6858   3.228   2.867   5.915  0.5510 -0.5957 -0.6159
   76SLPC   H8R 6859   3.158   2.781   5.914  2.5738 -2.3147 -0.4183
   76SLPC   H8S 6860   3.318   2.825   5.866  0.6748  0.1537 -1.0439
   76SLPC   C29 6861   3.166   2.983   5.837 -0.4676 -0.0013  0.2856
   76SLPC   H9R 6862   3.102   3.053   5.891 -3.0070 -2.4737  0.7207
   76SLPC  C210 6863   3.172   2.993   5.704  0.0732 -1.1788 -0.3189
   76SLPC  H10R 6864   3.121   3.079   5.660  0.1180 -1.1830 -0.3805
   76SLPC  C211 6865   3.243   2.911   5.603 -0.7577  0.6934 -0.0418
   76SLPC  H11R 6866   3.292   2.819   5.642 -1.4999  0.4664  0.3826
   76SLPC  H11S 6867   3.332   2.966   5.565  2.3146 -2.1576  2.3881
   76SLPC  C212 6868   3.157   2.844   5.497 -0.4573  0.9876  0.2599
   76SLPC  H12R 6869   3.102   2.753   5.527 -1.9033  1.1008 -1.8587
   76SLPC  C213 6870   3.147   2.873   5.369 -0.5321 -0.3053 -0.2034
   76SLPC  H13R 6871   3.100   2.801   5.300  1.2856 -0.3599 -1.4647
   76SLPC  C214 6872   3.226   2.975   5.295 -0.4663 -0.1020  0.3273
   76SLPC  H14R 6873   3.300   3.024   5.362 -1.1731  0.8755  0.4282
   76SLPC  H14S 6874   3.157   3.054   5.258 -1.1263  0.2743  2.2467
   76SLPC  C215 6875   3.308   2.899   5.186 -0.0022 -0.4184 -0.1085
   76SLPC  H15R 6876   3.245   2.857   5.105  1.4502 -1.1559 -0.8941
   76SLPC  H15S 6877   3.373   2.831   5.245  1.8050  2.0550  0.8952
   76SLPC  C216 6878   3.398   3.000   5.113  0.9401 -0.5722 -0.3096
   76SLPC  H16R 6879   3.458   3.062   5.183 -1.5494  1.5403  0.1063
   76SLPC  H16S 6880   3.349   3.080   5.055 -0.1943 -0.3889  0.8404
   76SLPC  C217 6881   3.486   2.920   5.015  0.4803  0.6402 -0.3225
   76SLPC  H17R 6882   3.410   2.857   4.965  1.5559 -1.3260  0.4187
   76SLPC  H17S 6883   3.543   2.841   5.069  1.6062  1.2908 -0.5391
   76SLPC  C218 6884   3.575   3.006   4.933 -0.2330 -0.4399  0.1168
   76SLPC  H18R 6885   3.511   3.074   4.871  2.0870 -0.8324 -2.9388
   76SLPC  H18S 6886   3.634   2.949   4.858 -0.1116  0.7906 -0.7719
   76SLPC  H18T 6887   3.647   3.068   4.991 -2.4220  0.7101  1.7828
   76SLPC   C33 6888   2.856   3.332   6.125 -0.1438  0.4030  0.2065
   76SLPC   H3X 6889   2.755   3.306   6.085  0.1643  1.6122 -1.4672
   76SLPC   H3Y 6890   2.912   3.239   6.143 -0.4116  0.0904 -0.5356
   76SLPC   C34 6891   2.920   3.420   6.022 -0.3563  0.7411  0.8086
   76SLPC   H4X 6892   3.012   3.473   6.058  0.1847 -0.2912  0.9816
   76SLPC   H4Y 6893   2.848   3.497   5.988  0.3081  1.2340  0.4913
   76SLPC   C35 6894   2.943   3.355   5.888  0.0771  0.3918 -0.4101
   76SLPC   H5X 6895   2.846   3.320   5.845  1.2582 -1.8295 -1.4551
   76SLPC   H5Y 6896   3.006   3.264   5.894 -2.9619 -1.8107  0.5673
   76SLPC   C36 6897   3.010   3.450   5.786  0.1249 -0.4267  0.0174
   76SLPC   H6X 6898   3.104   3.496   5.822  0.3163  0.5570 -1.6079
   76SLPC   H6Y 6899   2.945   3.537   5.762  2.2975  0.3615 -3.8433
   76SLPC   C37 6900   3.034   3.370   5.659 -0.6189  0.7802  0.5187
   76SLPC   H7X 6901   2.931   3.341   5.630 -0.7263 -1.8831  3.0659
   76SLPC   H7Y 6902   3.091   3.278   5.686  1.7056  2.0674  0.3274
   76SLPC   C38 6903   3.121   3.447   5.557 -0.4561 -0.5882 -0.2399
   76SLPC   H8X 6904   3.200   3.506   5.609 -1.2795  0.2635  0.0720
   76SLPC   H8Y 6905   3.060   3.526   5.509 -2.7884 -3.0073 -1.4985
   76SLPC   C39 6906   3.166   3.354   5.446  0.0404 -0.2626  0.7946
   76SLPC   H9X 6907   3.086   3.279   5.428  0.3784 -1.2613  3.1114
   76SLPC   H9Y 6908   3.253   3.305   5.495  1.5583  3.1114  1.8265
   76SLPC  C310 6909   3.193   3.439   5.315  0.1949 -0.3243 -0.1261
   76SLPC  H10X 6910   3.262   3.519   5.348  0.8427 -1.0418  0.2928
   76SLPC  H10Y 6911   3.098   3.484   5.281  0.2723 -0.5396 -0.6306
   76SLPC  C311 6912   3.248   3.350   5.201  0.5994 -0.5604  0.4132
   76SLPC  H11X 6913   3.172   3.277   5.165 -2.4579  1.5961  2.0232
   76SLPC  H11Y 6914   3.340   3.299   5.237  0.6845 -2.8441 -2.6486
   76SLPC  C312 6915   3.279   3.426   5.066  0.2639  0.1024  0.0010
   76SLPC  H12X 6916   3.361   3.497   5.087 -0.5108  1.0580 -0.1496
   76SLPC  H12Y 6917   3.192   3.487   5.034  3.2284  3.2426 -2.8007
   76SLPC  C313 6918   3.327   3.339   4.951 -0.3521  0.8936 -0.5495
   76SLPC  H13X 6919   3.244   3.272   4.921 -0.2382  0.1946  0.6144
   76SLPC  H13Y 6920   3.416   3.283   4.988 -0.9669  0.0111 -0.3758
   76SLPC  C314 6921   3.372   3.421   4.828 -0.0711 -0.0804 -0.0075
   76SLPC  H14X 6922   3.466   3.468   4.863 -1.1869  0.2210  2.8943
   76SLPC  H14Y 6923   3.303   3.506   4.811  0.0081  0.2771  1.3816
   76SLPC  C315 6924   3.358   3.340   4.700  0.6184 -0.4364 -0.1475
   76SLPC  H15X 6925   3.250   3.327   4.675  0.6614  0.4310 -0.8587
   76SLPC  H15Y 6926   3.421   3.250   4.711  1.0802 -0.6067 -3.3173
   76SLPC  C316 6927   3.401   3.437   4.588  0.6233  0.5275 -0.7151
   76SLPC  H16X 6928   3.512   3.439   4.596  0.8524 -3.0894 -1.3640
   76SLPC  H16Y 6929   3.362   3.541   4.589  2.4835  1.2547 -0.1770
   76SLPC  C317 6930   3.389   3.384   4.437  0.3551 -0.2843  0.0322
   76SLPC  H17X 6931   3.463   3.441   4.376  1.3167 -1.9982 -0.4910
   76SLPC  H17Y 6932   3.283   3.398   4.407  0.5231  0.9284 -0.0335
   76SLPC  C318 6933   3.420   3.234   4.411  0.1256 -0.1814 -0.2660
   76SLPC  H18X 6934   3.409   3.211   4.303 -3.1387 -0.2295 -0.0203
   76SLPC  H18Y 6935   3.355   3.172   4.475  0.2765  0.3956  0.4581
   76SLPC  H18Z 6936   3.521   3.218   4.453 -1.9511  0.4751  6.0556
   77SLPC     N 6937   2.651   1.105   6.569 -0.0179 -0.1994  0.0672
   77SLPC   C13 6938   2.731   1.141   6.452 -1.1744 -0.0847  0.1150
   77SLPC  H13A 6939   2.834   1.159   6.481 -1.6483 -0.1561  1.9798
   77SLPC  H13B 6940   2.742   1.060   6.381  0.8996  0.4627 -0.2693
   77SLPC  H13C 6941   2.693   1.231   6.407 -0.8462  0.0326  0.0671
   77SLPC   C14 6942   2.628   1.230   6.649  0.4082 -0.2678 -0.1454
   77SLPC  H14A 6943   2.559   1.293   6.594 -0.0454 -1.3159 -0.8055
   77SLPC  H14B 6944   2.581   1.213   6.745 -0.0245 -0.0562 -0.3140
   77SLPC  H14C 6945   2.720   1.284   6.662 -1.0313  2.3751 -0.1244
   77SLPC   C15 6946   2.739   1.011   6.649 -0.2120  0.3808 -0.0430
   77SLPC  H15A 6947   2.680   0.995   6.738  0.3529 -0.3026  0.2191
   77SLPC  H15B 6948   2.750   0.915   6.600  0.5702  0.5666 -0.2387
   77SLPC  H15C 6949   2.839   1.046   6.667  0.1937 -0.5939 -0.3230
   77SLPC   C12 6950   2.520   1.030   6.523  0.2852 -0.0488 -0.4051
   77SLPC  H12A 6951   2.455   1.035   6.609 -0.7837 -2.7725 -0.9700
   77SLPC  H12B 6952   2.537   0.924   6.514  0.2515  0.0680 -2.0459
   77SLPC   C11 6953   2.443   1.093   6.410 -0.5985  0.5301  0.3534
   77SLPC  H11A 6954   2.348   1.035   6.405 -1.9838  2.4443  2.5035
   77SLPC  H11B 6955   2.502   1.071   6.319 -1.5965 -0.2744 -0.1221
   77SLPC     P 6956   2.300   1.289   6.516 -0.1558  0.7078  0.0441
   77SLPC   O13 6957   2.278   1.195   6.628  0.0898 -0.0268 -0.0516
   77SLPC   O14 6958   2.340   1.422   6.563 -0.6639 -0.6086  0.8367
   77SLPC   O12 6959   2.411   1.224   6.425 -0.0384  0.0693 -0.5421
   77SLPC   O11 6960   2.163   1.303   6.440 -0.2717 -0.7782  0.2675
   77SLPC    C1 6961   2.146   1.256   6.305  0.3796 -0.0631  0.1803
   77SLPC    HA 6962   2.222   1.181   6.274 -0.5631 -0.1914 -2.0350
   77SLPC    HB 6963   2.041   1.220   6.294  0.4732 -0.8086  1.5870
   77SLPC    C2 6964   2.152   1.370   6.203 -0.0278  0.4291 -1.1390
   77SLPC    HS 6965   2.247   1.412   6.242  0.4243 -2.7966  1.7000
   77SLPC   O21 6966   2.031   1.453   6.224 -0.2946  0.1358  1.1601
   77SLPC   C21 6967   2.054   1.584   6.213  0.1165  0.1914  0.5793
   77SLPC   O22 6968   2.164   1.629   6.201 -0.1254 -0.0437 -0.0096
   77SLPC   C22 6969   1.928   1.654   6.209  0.7938 -0.7932  0.7325
   77SLPC   H2R 6970   1.890   1.651   6.313 -0.9529  0.4639  0.1709
   77SLPC   H2S 6971   1.944   1.762   6.190 -1.9853 -0.6503 -1.5185
   77SLPC    C3 6972   2.171   1.329   6.062  0.2713 -0.1791  0.6498
   77SLPC    HX 6973   2.070   1.287   6.040  0.7893 -1.5987  0.8753
   77SLPC    HY 6974   2.250   1.251   6.052  0.8951  0.6866 -1.7880
   77SLPC   O31 6975   2.207   1.436   5.974 -0.3002 -0.2174  0.2915
   77SLPC   C31 6976   2.329   1.492   5.969 -0.7484 -0.3611  0.2691
   77SLPC   O32 6977   2.420   1.474   6.048  0.6160  0.6353 -0.6890
   77SLPC   C32 6978   2.349   1.592   5.848 -0.4255  1.0901 -0.8731
   77SLPC   H2X 6979   2.439   1.655   5.863  0.1575 -0.0364  0.5845
   77SLPC   H2Y 6980   2.268   1.668   5.858  0.1064  1.5543  0.0184
   77SLPC   C23 6981   1.835   1.598   6.096  0.5148  0.1386  0.0632
   77SLPC   H3R 6982   1.731   1.635   6.109  0.3972 -0.5883  1.4104
   77SLPC   H3S 6983   1.831   1.487   6.101  0.3964  0.1113 -0.5842
   77SLPC   C24 6984   1.891   1.627   5.961 -0.0487  0.1097 -0.2744
   77SLPC   H4R 6985   1.992   1.581   5.959 -0.0222  0.1651 -2.2558
   77SLPC   H4S 6986   1.904   1.737   5.947 -2.3180  0.4095 -0.4082
   77SLPC   C25 6987   1.816   1.564   5.848 -0.3235 -0.1971 -0.2439
   77SLPC   H5R 6988   1.718   1.615   5.853 -0.6109 -0.8012  0.4317
   77SLPC   H5S 6989   1.798   1.456   5.867 -0.1011 -0.1081  0.5105
   77SLPC   C26 6990   1.896   1.586   5.714  0.6838 -0.5084  0.8726
   77SLPC   H6R 6991   2.004   1.563   5.716  0.9793  0.0806 -2.4707
   77SLPC   H6S 6992   1.884   1.694   5.690 -1.5413 -0.7843  0.4857
   77SLPC   C27 6993   1.829   1.514   5.602 -0.4374  0.4728 -0.0786
   77SLPC   H7R 6994   1.727   1.548   5.576 -0.2204  0.8042 -0.5113
   77SLPC   H7S 6995   1.822   1.406   5.629  1.5970  0.5351  0.9116
   77SLPC   C28 6996   1.911   1.522   5.479  0.6418  0.1063  0.4003
   77SLPC   H8R 6997   1.876   1.435   5.420  2.2882 -0.3318  0.0077
   77SLPC   H8S 6998   2.022   1.514   5.487  0.7321  0.4013 -0.4389
   77SLPC   C29 6999   1.894   1.643   5.391  0.0588 -0.2674  0.1888
   77SLPC   H9R 7000   1.906   1.737   5.447  0.2017 -1.2376  1.8416
   77SLPC  C210 7001   1.879   1.652   5.256  0.1143  0.0799  0.7723
   77SLPC  H10R 7002   1.881   1.752   5.209  0.3024 -0.4670 -0.4086
   77SLPC  C211 7003   1.875   1.548   5.161 -0.2520  0.5476  0.7105
   77SLPC  H11R 7004   1.908   1.454   5.211  0.4174  0.8713  0.8855
   77SLPC  H11S 7005   1.943   1.566   5.075 -0.2920 -0.1607  0.5159
   77SLPC  C212 7006   1.735   1.516   5.125 -0.6487 -0.2421  0.1601
   77SLPC  H12R 7007   1.675   1.498   5.215  0.0529  1.7356  1.0819
   77SLPC  C213 7008   1.671   1.481   5.009 -0.2390  0.4407 -1.2020
   77SLPC  H13R 7009   1.568   1.442   5.012  0.3759 -1.2046 -0.2301
   77SLPC  C214 7010   1.738   1.479   4.875 -0.4380  0.5782 -0.0383
   77SLPC  H14R 7011   1.835   1.532   4.877 -0.0127  0.0412 -2.5581
   77SLPC  H14S 7012   1.671   1.529   4.803 -1.2878 -0.9583 -0.3539
   77SLPC  C215 7013   1.761   1.335   4.818 -0.6159  0.1451 -0.0157
   77SLPC  H15R 7014   1.670   1.273   4.827  0.4790 -1.3538  1.1325
   77SLPC  H15S 7015   1.840   1.288   4.880 -0.7823  0.1294  0.1847
   77SLPC  C216 7016   1.804   1.320   4.669  0.9498 -0.3566  0.0804
   77SLPC  H16R 7017   1.807   1.211   4.647  2.5614 -0.0829 -1.3127
   77SLPC  H16S 7018   1.905   1.364   4.653  0.7642  1.3907  3.0129
   77SLPC  C217 7019   1.710   1.382   4.570  0.3886 -0.1769  0.6867
   77SLPC  H17R 7020   1.750   1.391   4.467 -2.7641 -0.0141 -0.6499
   77SLPC  H17S 7021   1.694   1.489   4.595  0.2638 -0.1526  0.4996
   77SLPC  C218 7022   1.576   1.306   4.555  0.7877  0.0773 -0.2933
   77SLPC  H18R 7023   1.586   1.195   4.550  0.2161 -0.1758  2.4208
   77SLPC  H18S 7024   1.516   1.325   4.464  0.4112 -0.5771 -0.1944
   77SLPC  H18T 7025   1.516   1.333   4.645 -1.0513  1.9956 -1.9746
   77SLPC   C33 7026   2.344   1.519   5.711  0.1999  0.2317 -1.0012
   77SLPC   H3X 7027   2.258   1.448   5.718 -0.1568  0.8339  1.4622
   77SLPC   H3Y 7028   2.439   1.461   5.713  0.5511  0.7972  1.3819
   77SLPC   C34 7029   2.336   1.608   5.594  0.5055 -0.5874 -0.8331
   77SLPC   H4X 7030   2.411   1.689   5.606 -0.8542  0.5049  0.7823
   77SLPC   H4Y 7031   2.230   1.642   5.593  1.2667  2.0759  0.7087
   77SLPC   C35 7032   2.358   1.539   5.457  0.0448  0.0847 -0.1906
   77SLPC   H5X 7033   2.279   1.462   5.449  2.2655 -2.2582 -1.0849
   77SLPC   H5Y 7034   2.453   1.484   5.438 -0.4756 -1.0612  0.4243
   77SLPC   C36 7035   2.347   1.625   5.330 -0.0948 -0.5680  0.6393
   77SLPC   H6X 7036   2.434   1.692   5.323 -1.1138  0.5899 -1.7676
   77SLPC   H6Y 7037   2.252   1.683   5.330 -0.2442 -0.8108  0.6480
   77SLPC   C37 7038   2.336   1.535   5.206  0.0954  0.4638  0.0985
   77SLPC   H7X 7039   2.256   1.465   5.237 -1.4979  1.5780 -1.3027
   77SLPC   H7Y 7040   2.434   1.484   5.194  1.4191  3.0778 -1.3362
   77SLPC   C38 7041   2.297   1.607   5.071 -0.1132 -0.2452  0.3280
   77SLPC   H8X 7042   2.375   1.679   5.041  0.2710 -0.6491  0.3494
   77SLPC   H8Y 7043   2.203   1.661   5.095 -0.6046  0.0800 -2.0881
   77SLPC   C39 7044   2.279   1.517   4.951 -0.7766  0.0088  0.0638
   77SLPC   H9X 7045   2.230   1.422   4.980 -2.3088  1.1737  1.4667
   77SLPC   H9Y 7046   2.378   1.479   4.918 -1.0563 -0.5827 -0.1077
   77SLPC  C310 7047   2.218   1.579   4.823  0.3349 -0.1370  0.0507
   77SLPC  H10X 7048   2.272   1.673   4.798  0.0196 -0.1662 -0.7532
   77SLPC  H10Y 7049   2.118   1.612   4.857  0.9503 -0.6954  2.6939
   77SLPC  C311 7050   2.212   1.478   4.703 -0.1243 -0.0645  0.1708
   77SLPC  H11X 7051   2.163   1.392   4.753 -1.7911  0.6884 -0.1077
   77SLPC  H11Y 7052   2.313   1.453   4.664 -0.1340  1.5640 -0.9727
   77SLPC  C312 7053   2.126   1.536   4.596  0.1792  0.1529 -0.0126
   77SLPC  H12X 7054   2.147   1.645   4.586 -1.6342  0.4945 -0.4336
   77SLPC  H12Y 7055   2.018   1.530   4.622  0.2717 -0.7410  0.1907
   77SLPC  C313 7056   2.161   1.469   4.457 -0.2251 -0.1591  0.8562
   77SLPC  H13X 7057   2.158   1.358   4.461  1.6395 -0.2213  1.6379
   77SLPC  H13Y 7058   2.267   1.483   4.428  0.1866  0.1657  2.4435
   77SLPC  C314 7059   2.062   1.516   4.351 -0.7834  0.0893 -0.3721
   77SLPC  H14X 7060   1.957   1.499   4.383 -0.7901 -2.4318 -1.4994
   77SLPC  H14Y 7061   2.078   1.474   4.249  1.6906 -0.0953  0.0346
   77SLPC  C315 7062   2.074   1.670   4.313 -0.2561  0.4193  0.4641
   77SLPC  H15X 7063   2.176   1.683   4.271 -0.0589 -1.0954  0.4350
   77SLPC  H15Y 7064   2.076   1.739   4.401  1.7729 -1.8873  2.3979
   77SLPC  C316 7065   1.966   1.720   4.221 -0.4089 -0.2610 -0.2189
   77SLPC  H16X 7066   1.865   1.704   4.263  0.5564 -1.5549  1.7919
   77SLPC  H16Y 7067   1.973   1.657   4.130 -0.0099  0.8899 -1.0224
   77SLPC  C317 7068   2.003   1.855   4.169  0.1217 -0.4635  0.0133
   77SLPC  H17X 7069   1.944   1.877   4.078 -1.1025 -0.5370  0.7668
   77SLPC  H17Y 7070   2.105   1.850   4.126 -0.8763  0.6659 -2.7410
   77SLPC  C318 7071   1.992   1.973   4.263  0.2429 -0.4130 -0.2999
   77SLPC  H18X 7072   1.891   1.977   4.309  0.8026 -4.5151  1.7502
   77SLPC  H18Y 7073   2.019   2.065   4.208 -0.2537 -0.2722 -0.3112
   77SLPC  H18Z 7074   2.066   1.959   4.345  1.3189 -2.2662 -1.5301
   78SLPC     N 7075   3.506   5.621   6.947 -0.8870 -0.3276  0.0414
   78SLPC   C13 7076   3.458   5.491   6.909  0.0649  0.3515  0.2620
   78SLPC  H13A 7077   3.541   5.422   6.908 -0.1773 -0.0524  2.3330
   78SLPC  H13B 7078   3.394   5.445   6.983 -1.5542  0.4694 -1.0200
   78SLPC  H13C 7079   3.406   5.487   6.815  0.2505  1.9008  0.0671
   78SLPC   C14 7080   3.395   5.715   6.967 -0.3933 -0.2389  0.5961
   78SLPC  H14A 7081   3.301   5.663   6.981 -1.7826  2.4575  2.1239
   78SLPC  H14B 7082   3.410   5.777   7.054 -1.9679  1.2670 -0.1325
   78SLPC  H14C 7083   3.376   5.777   6.880  2.5520  1.5243  1.0740
   78SLPC   C15 7084   3.595   5.672   6.844  0.6522  0.4887 -0.1605
   78SLPC  H15A 7085   3.675   5.605   6.817  1.4954  3.0294 -5.0118
   78SLPC  H15B 7086   3.542   5.690   6.752 -0.2128 -1.6547 -0.1543
   78SLPC  H15C 7087   3.630   5.764   6.888  1.7969 -0.7606  1.7181
   78SLPC   C12 7088   3.573   5.606   7.088 -0.8096 -0.4213 -0.2277
   78SLPC  H12A 7089   3.493   5.607   7.161  0.5025 -0.8731  1.2600
   78SLPC  H12B 7090   3.631   5.696   7.103 -0.0894 -1.0114  0.5999
   78SLPC   C11 7091   3.672   5.491   7.114  0.6185  0.7047 -0.3818
   78SLPC  H11A 7092   3.627   5.390   7.105 -1.4668  1.2575  2.3004
   78SLPC  H11B 7093   3.701   5.490   7.221 -1.1360 -3.6670  0.2426
   78SLPC     P 7094   3.849   5.416   6.928  0.4252  0.2265  0.1986
   78SLPC   O13 7095   3.968   5.463   6.855  0.2162 -0.3430 -0.2903
   78SLPC   O14 7096   3.865   5.284   6.991  0.4834 -0.0945 -0.5318
   78SLPC   O12 7097   3.790   5.518   7.036  0.1222  0.2283 -0.0155
   78SLPC   O11 7098   3.730   5.401   6.823  0.2684 -0.0145 -0.3991
   78SLPC    C1 7099   3.748   5.319   6.711  0.2603  0.5988  0.2307
   78SLPC    HA 7100   3.812   5.231   6.734  0.5062  0.8775  0.6319
   78SLPC    HB 7101   3.656   5.274   6.669  1.3284  0.1375 -1.7408
   78SLPC    C2 7102   3.811   5.390   6.590 -0.6118  0.2403 -1.0251
   78SLPC    HS 7103   3.903   5.434   6.634 -1.6314 -2.0962  4.2611
   78SLPC   O21 7104   3.717   5.494   6.547  0.1699  0.2634 -0.0340
   78SLPC   C21 7105   3.769   5.584   6.461 -0.0498  0.1714 -0.3894
   78SLPC   O22 7106   3.883   5.595   6.420 -0.3171 -0.0397  0.0175
   78SLPC   C22 7107   3.659   5.697   6.451  0.4724  0.7371  0.4840
   78SLPC   H2R 7108   3.561   5.648   6.437  0.7837  0.6395 -1.7019
   78SLPC   H2S 7109   3.661   5.752   6.547 -3.9189  0.2755  1.0255
   78SLPC    C3 7110   3.835   5.290   6.484  0.7561  0.6067 -0.2861
   78SLPC    HX 7111   3.737   5.256   6.446  0.3029 -2.0414  2.8163
   78SLPC    HY 7112   3.888   5.204   6.531  0.7059  0.6657 -0.1183
   78SLPC   O31 7113   3.907   5.332   6.370 -0.0441 -0.2410  0.4252
   78SLPC   C31 7114   4.034   5.345   6.382 -0.1848  0.7939  0.5285
   78SLPC   O32 7115   4.096   5.324   6.482 -0.4515  0.3437 -0.4044
   78SLPC   C32 7116   4.085   5.401   6.251  0.3452  0.1246 -0.2107
   78SLPC   H2X 7117   4.136   5.499   6.265  2.3274 -0.8856 -0.0002
   78SLPC   H2Y 7118   4.001   5.408   6.178  2.2389 -3.0116 -3.0017
   78SLPC   C23 7119   3.685   5.782   6.327 -0.1592 -0.5951 -0.0658
   78SLPC   H3R 7120   3.793   5.805   6.339 -0.2324 -0.7988  1.0194
   78SLPC   H3S 7121   3.629   5.877   6.339 -0.5628 -0.9844  1.3359
   78SLPC   C24 7122   3.647   5.721   6.190 -0.3457 -0.1000 -0.5209
   78SLPC   H4R 7123   3.547   5.677   6.210 -0.9427  1.5217  0.2587
   78SLPC   H4S 7124   3.715   5.643   6.151  1.5566  1.3948 -0.3414
   78SLPC   C25 7125   3.619   5.830   6.077  0.1956 -0.3119 -0.3293
   78SLPC   H5R 7126   3.708   5.895   6.068  0.3517 -0.2016  1.6626
   78SLPC   H5S 7127   3.538   5.897   6.112  0.8028  0.0214  0.4652
   78SLPC   C26 7128   3.577   5.763   5.953  0.6414 -0.3462  0.2509
   78SLPC   H6R 7129   3.488   5.699   5.971 -0.5919  0.8668 -1.2132
   78SLPC   H6S 7130   3.660   5.694   5.924 -0.1767 -1.2491  0.0132
   78SLPC   C27 7131   3.541   5.870   5.838 -0.1822  0.4692 -0.0073
   78SLPC   H7R 7132   3.634   5.929   5.824  0.7437 -0.6216  1.2474
   78SLPC   H7S 7133   3.465   5.944   5.869 -1.5992 -1.4253  1.2674
   78SLPC   C28 7134   3.497   5.799   5.711 -0.7352 -0.5568  0.0652
   78SLPC   H8R 7135   3.432   5.715   5.742 -1.3693  0.0533  0.4064
   78SLPC   H8S 7136   3.585   5.749   5.665 -1.6921 -0.9120 -1.4456
   78SLPC   C29 7137   3.431   5.890   5.610 -0.0059  0.1081  0.3435
   78SLPC   H9R 7138   3.360   5.965   5.647  1.0167  1.0221  0.5183
   78SLPC  C210 7139   3.467   5.912   5.472  0.0147  0.5543  0.6134
   78SLPC  H10R 7140   3.410   5.983   5.411  0.5806 -1.3851 -2.3916
   78SLPC  C211 7141   3.572   5.851   5.381 -0.7141  0.0210  0.6601
   78SLPC  H11R 7142   3.639   5.781   5.434 -0.1296 -0.6103 -0.8735
   78SLPC  H11S 7143   3.637   5.925   5.330  0.6970 -0.8516  1.1356
   78SLPC  C212 7144   3.514   5.754   5.281  0.2204 -0.0993  0.1455
   78SLPC  H12R 7145   3.494   5.654   5.323 -1.8642 -0.6504 -1.9738
   78SLPC  C213 7146   3.500   5.757   5.148  0.0843 -1.1710  0.3399
   78SLPC  H13R 7147   3.452   5.679   5.087 -0.3876 -0.3897 -0.3056
   78SLPC  C214 7148   3.540   5.874   5.066  0.4362  0.2252  0.5399
   78SLPC  H14R 7149   3.620   5.835   5.001 -0.7315  2.2571 -2.2855
   78SLPC  H14S 7150   3.578   5.963   5.121  2.2364 -0.6367  0.7653
   78SLPC  C215 7151   3.431   5.920   4.971 -0.2287 -0.6487 -0.3961
   78SLPC  H15R 7152   3.387   5.835   4.914  0.3669 -1.3255  0.1285
   78SLPC  H15S 7153   3.475   5.999   4.907  1.2054 -0.9607  0.1778
   78SLPC  C216 7154   3.310   5.982   5.048 -0.6641  0.3474 -0.6009
   78SLPC  H16R 7155   3.354   6.056   5.118 -0.5341 -0.2637 -0.0399
   78SLPC  H16S 7156   3.257   5.902   5.104  0.4666  0.7277  1.0768
   78SLPC  C217 7157   3.215   6.066   4.961  0.1662 -0.1345 -0.3485
   78SLPC  H17R 7158   3.154   6.010   4.887 -1.5675  1.7845 -0.4590
   78SLPC  H17S 7159   3.274   6.132   4.893 -0.5104  0.6478 -0.1863
   78SLPC  C218 7160   3.130   6.160   5.040  0.0240 -0.7908 -1.0246
   78SLPC  H18R 7161   3.045   6.106   5.087 -1.1702 -0.0233 -2.2304
   78SLPC  H18S 7162   3.087   6.238   4.974 -1.5571 -1.7934 -1.2283
   78SLPC  H18T 7163   3.185   6.207   5.124  1.1257  0.3385 -2.3199
   78SLPC   C33 7164   4.196   5.314   6.190  0.1560  0.4939 -0.5095
   78SLPC   H3X 7165   4.165   5.207   6.181 -1.7006  0.6625  2.4370
   78SLPC   H3Y 7166   4.277   5.309   6.265 -0.1611  2.3469 -0.0150
   78SLPC   C34 7167   4.252   5.373   6.061  0.6568  0.2942  0.0105
   78SLPC   H4X 7168   4.278   5.480   6.075 -0.8525  0.7062 -0.1495
   78SLPC   H4Y 7169   4.173   5.357   5.984  0.3234 -0.6708  0.5303
   78SLPC   C35 7170   4.368   5.292   6.011  0.5951 -0.4521 -0.6012
   78SLPC   H5X 7171   4.341   5.189   5.981  2.3088 -0.9385 -0.5544
   78SLPC   H5Y 7172   4.456   5.283   6.079  2.2853  0.9488 -2.4884
   78SLPC   C36 7173   4.442   5.367   5.899  1.0227 -0.0158  0.1810
   78SLPC   H6X 7174   4.537   5.313   5.878  1.5985  1.2783 -0.6496
   78SLPC   H6Y 7175   4.471   5.472   5.919 -1.1754  0.9102 -1.2157
   78SLPC   C37 7176   4.361   5.384   5.772 -0.2552 -0.2210  1.3767
   78SLPC   H7X 7177   4.383   5.488   5.739 -1.3126  0.0452  1.4617
   78SLPC   H7Y 7178   4.252   5.387   5.795 -0.6977  0.4569 -0.6075
   78SLPC   C38 7179   4.397   5.300   5.648  0.3809 -0.6634 -0.7342
   78SLPC   H8X 7180   4.384   5.193   5.677 -0.2831 -0.3309  0.2251
   78SLPC   H8Y 7181   4.505   5.318   5.627  0.4588  0.2699  0.3693
   78SLPC   C39 7182   4.328   5.329   5.517  0.0772 -0.4766  0.0220
   78SLPC   H9X 7183   4.351   5.435   5.495  1.0126 -0.9905 -1.6694
   78SLPC   H9Y 7184   4.220   5.316   5.537  0.1406 -2.6562 -0.7546
   78SLPC  C310 7185   4.380   5.236   5.410 -0.2189  0.9413  0.5534
   78SLPC  H10X 7186   4.354   5.130   5.429  1.5183 -0.3183 -3.0831
   78SLPC  H10Y 7187   4.488   5.250   5.389 -0.4236  0.8289 -0.6696
   78SLPC  C311 7188   4.337   5.266   5.271 -0.4898 -0.1367 -0.3417
   78SLPC  H11X 7189   4.257   5.343   5.278  0.5512  1.0311 -0.8368
   78SLPC  H11Y 7190   4.283   5.177   5.232 -2.0666 -0.0553  1.5237
   78SLPC  C312 7191   4.441   5.322   5.167  0.2678 -0.1692 -0.6326
   78SLPC  H12X 7192   4.499   5.407   5.210  1.7831 -0.8316 -1.2862
   78SLPC  H12Y 7193   4.387   5.365   5.081  0.6750  0.1316 -0.7424
   78SLPC  C313 7194   4.534   5.208   5.113  0.4377 -0.5035 -0.4129
   78SLPC  H13X 7195   4.570   5.141   5.194 -0.6675  1.7039  2.0583
   78SLPC  H13Y 7196   4.620   5.258   5.062  1.4931 -0.6234  1.1880
   78SLPC  C314 7197   4.452   5.117   5.022 -0.3309  0.6675 -0.0816
   78SLPC  H14X 7198   4.435   5.166   4.924  0.4372  1.3280  0.1081
   78SLPC  H14Y 7199   4.347   5.095   5.052  0.0233 -3.4068 -1.2435
   78SLPC  C315 7200   4.521   4.988   4.984 -0.1237  0.3684  0.4375
   78SLPC  H15X 7201   4.451   4.908   4.953  2.4938 -1.9555  0.2019
   78SLPC  H15Y 7202   4.577   4.956   5.074  0.0203  4.0405  1.8640
   78SLPC  C316 7203   4.615   5.007   4.863  0.6476  0.6441 -0.1292
   78SLPC  H16X 7204   4.680   5.095   4.878  0.4222  0.9916 -1.1035
   78SLPC  H16Y 7205   4.542   5.025   4.781 -1.5741 -2.6076  0.9252
   78SLPC  C317 7206   4.691   4.873   4.823  0.2262 -0.0763  0.4971
   78SLPC  H17X 7207   4.612   4.795   4.830 -0.1146  0.2471  0.3203
   78SLPC  H17Y 7208   4.764   4.856   4.906  2.6606  0.7391 -1.3523
   78SLPC  C318 7209   4.768   4.869   4.693  0.2440 -0.3612 -0.5180
   78SLPC  H18X 7210   4.807   4.972   4.678 -0.2873 -0.1930 -0.7751
   78SLPC  H18Y 7211   4.706   4.846   4.604 -0.4213  0.3036 -0.2459
   78SLPC  H18Z 7212   4.848   4.795   4.714  0.4782 -0.0756 -0.3942
   79SLPC     N 7213   3.217   0.511   6.370 -0.5823  0.4727  0.1316
   79SLPC   C13 7214   3.259   0.428   6.492 -0.4584  0.2720  0.2087
   79SLPC  H13A 7215   3.233   0.324   6.474  3.6510 -0.5878 -1.9261
   79SLPC  H13B 7216   3.367   0.424   6.496 -0.5219 -0.1766  2.3088
   79SLPC  H13C 7217   3.220   0.472   6.582 -2.2153  0.6251 -0.6764
   79SLPC   C14 7218   3.274   0.432   6.255  0.7188  0.5464 -0.5408
   79SLPC  H14A 7219   3.237   0.469   6.160 -1.5539  1.2174  0.5427
   79SLPC  H14B 7220   3.382   0.439   6.252  0.6757  1.2814 -0.8460
   79SLPC  H14C 7221   3.246   0.330   6.275  1.3412  0.2051 -1.3612
   79SLPC   C15 7222   3.281   0.643   6.386 -0.3716 -0.3558 -1.4524
   79SLPC  H15A 7223   3.248   0.696   6.475  2.3543 -0.8496 -0.0431
   79SLPC  H15B 7224   3.387   0.637   6.405 -1.1046  0.0835  4.7679
   79SLPC  H15C 7225   3.269   0.708   6.300  1.5665  1.0174 -0.7482
   79SLPC   C12 7226   3.071   0.512   6.378 -0.1058 -0.8412  0.3929
   79SLPC  H12A 7227   3.034   0.548   6.473 -0.3844  1.6557 -0.5878
   79SLPC  H12B 7228   3.031   0.414   6.356 -1.2944 -0.3469  0.3171
   79SLPC   C11 7229   2.984   0.599   6.277 -0.6993 -0.3295  0.6262
   79SLPC  H11A 7230   2.879   0.563   6.287 -0.4929 -1.5715 -1.1187
   79SLPC  H11B 7231   3.010   0.567   6.173 -0.4032  1.1241  0.2248
   79SLPC     P 7232   2.962   0.801   6.428 -0.0618  0.2944  0.0571
   79SLPC   O13 7233   2.935   0.691   6.528  0.1364 -0.5248  0.1039
   79SLPC   O14 7234   3.062   0.900   6.460 -0.4705 -0.3547 -0.4819
   79SLPC   O12 7235   2.999   0.738   6.286 -0.8397 -0.7757 -0.0531
   79SLPC   O11 7236   2.832   0.877   6.395  0.4238  0.2659  0.2566
   79SLPC    C1 7237   2.727   0.810   6.331  0.1156  0.1835  0.1423
   79SLPC    HA 7238   2.726   0.703   6.359 -2.5068  0.6537  2.1460
   79SLPC    HB 7239   2.637   0.845   6.385 -0.2328 -0.4211 -0.0483
   79SLPC    C2 7240   2.713   0.839   6.184 -0.3681  0.1029 -0.1373
   79SLPC    HS 7241   2.796   0.789   6.129 -0.7685  0.6521 -1.2840
   79SLPC   O21 7242   2.718   0.982   6.172  0.2461  0.5447 -0.5211
   79SLPC   C21 7243   2.791   1.034   6.086 -0.5382  0.2532  0.3938
   79SLPC   O22 7244   2.876   0.980   6.020  0.4233  0.0973  0.0776
   79SLPC   C22 7245   2.762   1.180   6.074 -0.4142 -1.0636 -0.9164
   79SLPC   H2R 7246   2.654   1.198   6.054 -0.1931  1.2599 -0.3999
   79SLPC   H2S 7247   2.790   1.222   6.173  0.1927 -2.1535 -0.6149
   79SLPC    C3 7248   2.581   0.785   6.134  0.3328 -0.4494 -0.6916
   79SLPC    HX 7249   2.509   0.843   6.195  2.1011 -0.3572  1.4552
   79SLPC    HY 7250   2.579   0.676   6.158  0.8038 -0.2014  0.6110
   79SLPC   O31 7251   2.558   0.817   5.996 -0.2160 -0.6568 -0.2644
   79SLPC   C31 7252   2.629   0.743   5.908  0.1063  0.0579 -0.3673
   79SLPC   O32 7253   2.689   0.643   5.938 -0.2795  0.5831  0.2383
   79SLPC   C32 7254   2.610   0.796   5.767  0.4936  0.3372  0.0029
   79SLPC   H2X 7255   2.610   0.907   5.772 -0.3026  0.4244 -1.3913
   79SLPC   H2Y 7256   2.507   0.767   5.738  0.0131  1.5918  0.3900
   79SLPC   C23 7257   2.842   1.252   5.960 -0.1651 -0.1979 -0.3651
   79SLPC   H3R 7258   2.947   1.217   5.964 -0.4968 -1.2099  3.0808
   79SLPC   H3S 7259   2.837   1.359   5.991 -0.1741  0.1586 -1.5790
   79SLPC   C24 7260   2.769   1.236   5.828  0.1200  0.9050  0.5286
   79SLPC   H4R 7261   2.674   1.293   5.841  0.4446  1.1228  2.3001
   79SLPC   H4S 7262   2.745   1.128   5.820 -1.9120  1.2428  1.4761
   79SLPC   C25 7263   2.841   1.279   5.701 -0.2394  0.0313  0.6339
   79SLPC   H5R 7264   2.935   1.220   5.686 -1.3780 -1.5741 -0.4590
   79SLPC   H5S 7265   2.878   1.384   5.711  1.6868 -0.0428 -3.5015
   79SLPC   C26 7266   2.759   1.267   5.569 -0.5305  0.2499  0.0853
   79SLPC   H6R 7267   2.658   1.313   5.570 -0.9886 -0.7159 -0.2413
   79SLPC   H6S 7268   2.756   1.158   5.546 -2.0301  0.6971 -2.2161
   79SLPC   C27 7269   2.838   1.348   5.460 -0.4999 -0.3086  0.4646
   79SLPC   H7R 7270   2.940   1.306   5.446 -0.2809  0.5411 -0.6712
   79SLPC   H7S 7271   2.858   1.451   5.496  1.7307  0.7042 -3.1344
   79SLPC   C28 7272   2.778   1.357   5.318  0.0226 -0.0211  0.0026
   79SLPC   H8R 7273   2.842   1.419   5.252 -0.2409 -0.2891 -0.5095
   79SLPC   H8S 7274   2.681   1.410   5.331 -1.7091 -3.3741  2.3113
   79SLPC   C29 7275   2.748   1.220   5.267 -0.7963  0.4041  0.0382
   79SLPC   H9R 7276   2.728   1.142   5.341  2.5006 -0.1769  0.4623
   79SLPC  C210 7277   2.749   1.173   5.141  0.0040 -0.5180 -1.0502
   79SLPC  H10R 7278   2.728   1.068   5.117  1.1532 -0.4028 -2.7191
   79SLPC  C211 7279   2.770   1.249   5.012 -0.0331 -0.1116 -0.1941
   79SLPC  H11R 7280   2.870   1.219   4.974 -0.1457 -2.4198  1.1881
   79SLPC  H11S 7281   2.759   1.357   5.037  1.3451 -0.0696  0.3289
   79SLPC  C212 7282   2.679   1.214   4.902  0.0279 -0.2517  0.2374
   79SLPC  H12R 7283   2.582   1.172   4.933 -0.5411 -0.6972 -1.9775
   79SLPC  C213 7284   2.696   1.235   4.771  0.0090 -0.3989 -0.2245
   79SLPC  H13R 7285   2.610   1.204   4.709  1.0040 -0.8723 -1.4056
   79SLPC  C214 7286   2.817   1.300   4.708 -0.8946  0.4839 -0.1562
   79SLPC  H14R 7287   2.867   1.237   4.631  2.2776  1.9881  0.5226
   79SLPC  H14S 7288   2.900   1.319   4.780 -0.3760 -0.4648 -0.4818
   79SLPC  C215 7289   2.795   1.435   4.642 -0.3262 -0.3080 -0.5486
   79SLPC  H15R 7290   2.897   1.457   4.605 -0.3196  1.9676  0.6914
   79SLPC  H15S 7291   2.772   1.507   4.723  2.0609  0.5264 -0.5581
   79SLPC  C216 7292   2.696   1.426   4.531 -1.2073  0.1670 -0.0903
   79SLPC  H16R 7293   2.597   1.403   4.576  0.0756  0.4238  3.1030
   79SLPC  H16S 7294   2.719   1.345   4.458 -1.6718  1.7911 -2.1514
   79SLPC  C217 7295   2.703   1.555   4.444 -0.1277  0.4123  0.0763
   79SLPC  H17R 7296   2.797   1.564   4.386  1.0682 -0.2436  1.8215
   79SLPC  H17S 7297   2.703   1.640   4.516 -0.1057  0.1060  0.4426
   79SLPC  C218 7298   2.590   1.548   4.339 -0.1933  0.3153  0.0932
   79SLPC  H18R 7299   2.554   1.447   4.311 -2.0545  0.3109  2.1777
   79SLPC  H18S 7300   2.618   1.607   4.250  1.2359 -0.5176 -0.0390
   79SLPC  H18T 7301   2.508   1.601   4.392 -0.0405  1.5840 -0.8784
   79SLPC   C33 7302   2.729   0.744   5.687  0.4275  0.4478  0.9546
   79SLPC   H3X 7303   2.718   0.633   5.692  0.2429  0.5435  4.2312
   79SLPC   H3Y 7304   2.827   0.761   5.735  2.3939  0.5386 -2.7313
   79SLPC   C34 7305   2.734   0.793   5.546 -0.0453  0.7534 -0.0376
   79SLPC   H4X 7306   2.831   0.775   5.494  0.5340  3.7129 -0.1371
   79SLPC   H4Y 7307   2.728   0.903   5.540 -0.0163  0.8097  0.8462
   79SLPC   C35 7308   2.630   0.722   5.451 -0.0461 -1.1292 -0.1601
   79SLPC   H5X 7309   2.532   0.758   5.487  1.2701  0.3968  2.1880
   79SLPC   H5Y 7310   2.643   0.612   5.446 -0.0984 -1.1005 -1.1116
   79SLPC   C36 7311   2.665   0.770   5.318 -0.6318 -0.1241 -0.1599
   79SLPC   H6X 7312   2.764   0.725   5.295 -0.6065 -0.8850  1.2701
   79SLPC   H6Y 7313   2.679   0.880   5.316  1.2630 -0.3361 -2.5838
   79SLPC   C37 7314   2.558   0.729   5.218  0.1675  0.2523  0.9782
   79SLPC   H7X 7315   2.472   0.792   5.252  1.9837  1.3090  4.0272
   79SLPC   H7Y 7316   2.533   0.622   5.228  0.3809  0.1016 -0.0661
   79SLPC   C38 7317   2.609   0.754   5.074 -0.0433 -0.4439 -0.7892
   79SLPC   H8X 7318   2.701   0.692   5.069  0.3502  0.1710 -1.2940
   79SLPC   H8Y 7319   2.620   0.865   5.067 -2.5633  0.0191  1.1035
   79SLPC   C39 7320   2.511   0.700   4.975  0.1427  0.4824  1.0163
   79SLPC   H9X 7321   2.418   0.761   4.983  0.5833  0.9574  2.9367
   79SLPC   H9Y 7322   2.494   0.592   4.995 -1.2567  0.3478 -0.6080
   79SLPC  C310 7323   2.561   0.729   4.837 -0.7086 -1.0738 -0.3102
   79SLPC  H10X 7324   2.657   0.676   4.819  0.3280  1.5189 -3.2400
   79SLPC  H10Y 7325   2.593   0.835   4.833 -0.9987 -0.9834 -0.2080
   79SLPC  C311 7326   2.458   0.715   4.723 -0.0489  0.3632 -0.4191
   79SLPC  H11X 7327   2.362   0.769   4.742 -0.7396 -1.1240  0.5459
   79SLPC  H11Y 7328   2.434   0.607   4.719 -1.4962  0.5097  1.9739
   79SLPC  C312 7329   2.497   0.767   4.582  0.0732 -0.0730 -0.0401
   79SLPC  H12X 7330   2.423   0.711   4.521 -0.2909 -2.3741  2.3133
   79SLPC  H12Y 7331   2.603   0.739   4.563  0.2237 -0.5142  1.3466
   79SLPC  C313 7332   2.475   0.919   4.568 -1.1376 -0.1690  0.2266
   79SLPC  H13X 7333   2.521   0.970   4.655  1.1946 -0.5156 -0.7470
   79SLPC  H13Y 7334   2.370   0.953   4.552 -0.3042  2.2974 -0.3525
   79SLPC  C314 7335   2.539   0.961   4.438  0.1409  1.0406  0.6162
   79SLPC  H14X 7336   2.477   0.903   4.366  1.1232  0.8893 -0.1274
   79SLPC  H14Y 7337   2.646   0.935   4.424 -0.8636 -3.3098 -0.5082
   79SLPC  C315 7338   2.526   1.108   4.399  0.5158  0.2759  0.2331
   79SLPC  H15X 7339   2.567   1.154   4.491 -1.3515  1.2322  0.6517
   79SLPC  H15Y 7340   2.421   1.144   4.392  0.8460  1.5040  1.2291
   79SLPC  C316 7341   2.606   1.158   4.271 -0.8103  0.7387  1.2657
   79SLPC  H16X 7342   2.708   1.185   4.305  0.0304 -0.6543 -0.0131
   79SLPC  H16Y 7343   2.554   1.249   4.233  0.2860  1.2758  1.0111
   79SLPC  C317 7344   2.615   1.037   4.166  0.4417 -0.1786 -0.2959
   79SLPC  H17X 7345   2.516   0.988   4.151  1.1890 -1.6171 -0.7209
   79SLPC  H17Y 7346   2.689   0.965   4.205 -0.0752  0.1783  1.4084
   79SLPC  C318 7347   2.676   1.093   4.036  0.4985 -0.0096 -0.4366
   79SLPC  H18X 7348   2.785   1.095   4.053  0.5457 -0.2025 -0.7003
   79SLPC  H18Y 7349   2.639   1.183   3.983 -1.7220 -0.1363  0.7369
   79SLPC  H18Z 7350   2.663   1.016   3.956 -1.1064  1.0179 -1.2234
   80SLPC     N 7351   0.434   4.397   7.240  0.4475  0.8671 -0.0017
   80SLPC   C13 7352   0.476   4.360   7.378  0.3059  0.3479 -0.7306
   80SLPC  H13A 7353   0.400   4.306   7.432  2.0906  0.0240  1.6410
   80SLPC  H13B 7354   0.551   4.283   7.366 -0.2317  0.0565 -2.4161
   80SLPC  H13C 7355   0.499   4.452   7.430 -1.3334  0.8484 -0.8276
   80SLPC   C14 7356   0.555   4.454   7.170  0.6946  0.0319 -0.5477
   80SLPC  H14A 7357   0.585   4.555   7.195  2.0815 -0.6023  0.4231
   80SLPC  H14B 7358   0.636   4.387   7.193  0.4176 -0.6995 -1.6421
   80SLPC  H14C 7359   0.548   4.457   7.062  1.5794  1.0279 -0.5908
   80SLPC   C15 7360   0.327   4.501   7.244 -0.1469  0.4142  0.0027
   80SLPC  H15A 7361   0.298   4.530   7.144  0.9984  3.4853  0.4560
   80SLPC  H15B 7362   0.231   4.469   7.281  0.0215  1.0628  1.0275
   80SLPC  H15C 7363   0.354   4.585   7.306 -0.4110 -1.0226  2.1664
   80SLPC   C12 7364   0.391   4.273   7.168  0.0704 -0.3522 -0.2991
   80SLPC  H12A 7365   0.313   4.232   7.231 -0.4778  0.0265 -0.7215
   80SLPC  H12B 7366   0.465   4.195   7.164  2.0365  1.4691 -1.9816
   80SLPC   C11 7367   0.335   4.284   7.022  0.2403  0.3745 -0.5285
   80SLPC  H11A 7368   0.241   4.342   7.017 -0.7224 -0.9992  0.7110
   80SLPC  H11B 7369   0.298   4.189   6.979  0.4687  0.6589 -1.3661
   80SLPC     P 7370   0.513   4.273   6.821  0.0678 -0.6802  0.3027
   80SLPC   O13 7371   0.563   4.380   6.736 -0.4895  0.3556 -0.2671
   80SLPC   O14 7372   0.614   4.180   6.871  0.3054  0.2882  0.0892
   80SLPC   O12 7373   0.431   4.337   6.941 -0.4507 -0.2409 -0.1312
   80SLPC   O11 7374   0.399   4.193   6.743  0.4978  0.1121  0.5434
   80SLPC    C1 7375   0.289   4.255   6.678 -0.2151 -0.2455  0.3289
   80SLPC    HA 7376   0.217   4.174   6.657  1.1090 -0.9212 -2.0300
   80SLPC    HB 7377   0.239   4.334   6.737 -0.6900 -0.8165  0.6933
   80SLPC    C2 7378   0.334   4.297   6.535  0.3254 -0.0818  0.9440
   80SLPC    HS 7379   0.414   4.372   6.555 -0.1351  0.2128  1.7292
   80SLPC   O21 7380   0.219   4.355   6.471  0.2232 -0.2939  0.2489
   80SLPC   C21 7381   0.225   4.493   6.466 -0.0719 -0.4374  0.2680
   80SLPC   O22 7382   0.295   4.553   6.540 -0.1435 -0.5778  0.4713
   80SLPC   C22 7383   0.119   4.546   6.370  0.5887 -0.3890 -0.2568
   80SLPC   H2R 7384   0.067   4.458   6.327 -1.4918  1.5562 -1.9188
   80SLPC   H2S 7385   0.049   4.601   6.435 -2.1774 -2.2473 -1.4768
   80SLPC    C3 7386   0.404   4.187   6.453 -0.1994  0.3540  0.3424
   80SLPC    HX 7387   0.337   4.098   6.446 -1.9354  1.7068 -1.1276
   80SLPC    HY 7388   0.499   4.154   6.500  0.8195 -2.3383 -3.1661
   80SLPC   O31 7389   0.440   4.226   6.321  0.7537 -0.0681 -0.9406
   80SLPC   C31 7390   0.556   4.293   6.311  0.0254 -0.0153 -0.0636
   80SLPC   O32 7391   0.635   4.319   6.399  0.8210 -0.3015 -0.0089
   80SLPC   C32 7392   0.573   4.354   6.175  0.0252 -0.1002  0.1560
   80SLPC   H2X 7393   0.508   4.444   6.171  1.1825  0.7039 -1.6639
   80SLPC   H2Y 7394   0.535   4.286   6.095 -1.3823 -0.2349  0.9129
   80SLPC   C23 7395   0.185   4.638   6.267  0.5588  0.4604  0.6244
   80SLPC   H3R 7396   0.283   4.677   6.301 -0.2804  2.2308  1.1501
   80SLPC   H3S 7397   0.123   4.727   6.242  2.5711  2.2178  1.5021
   80SLPC   C24 7398   0.216   4.558   6.135  0.3987  0.1472  0.0457
   80SLPC   H4R 7399   0.125   4.506   6.096 -0.8185  0.5339  2.2294
   80SLPC   H4S 7400   0.276   4.470   6.168  1.8895  0.3589 -1.9407
   80SLPC   C25 7401   0.304   4.638   6.039 -0.0621 -0.1440  0.7673
   80SLPC   H5R 7402   0.395   4.671   6.094 -1.3807 -1.2680  3.8435
   80SLPC   H5S 7403   0.252   4.733   6.014  2.7162  1.1321 -0.5785
   80SLPC   C26 7404   0.329   4.564   5.914 -0.3949  0.2853 -0.0616
   80SLPC   H6R 7405   0.233   4.557   5.859  0.3197 -1.3570 -1.1945
   80SLPC   H6S 7406   0.377   4.466   5.935  0.1592  0.6859  0.5866
   80SLPC   C27 7407   0.429   4.636   5.820  0.1367  0.1467  0.7037
   80SLPC   H7R 7408   0.525   4.647   5.876  0.2276  1.1192  0.3806
   80SLPC   H7S 7409   0.392   4.739   5.800  0.3122  0.1431  0.3555
   80SLPC   C28 7410   0.440   4.561   5.685 -0.4945  0.5139  0.5592
   80SLPC   H8R 7411   0.346   4.572   5.626 -0.3556 -0.9874  0.0113
   80SLPC   H8S 7412   0.456   4.452   5.703 -1.5517  0.3170  0.3997
   80SLPC   C29 7413   0.558   4.599   5.601  0.6514  0.2901  0.1966
   80SLPC   H9R 7414   0.625   4.674   5.646 -1.3760  0.9533  2.2923
   80SLPC  C210 7415   0.592   4.542   5.486 -0.0825  0.1274 -0.3379
   80SLPC  H10R 7416   0.693   4.568   5.451 -0.2003  2.1401  0.6267
   80SLPC  C211 7417   0.518   4.441   5.406 -0.7458  0.0327  0.3123
   80SLPC  H11R 7418   0.428   4.407   5.462 -1.7995  3.4592  0.9703
   80SLPC  H11S 7419   0.592   4.360   5.390  0.5928  0.7636  2.2719
   80SLPC  C212 7420   0.464   4.511   5.286 -0.0812 -0.0526  1.0861
   80SLPC  H12R 7421   0.476   4.621   5.286  1.9636 -0.1818 -1.4414
   80SLPC  C213 7422   0.420   4.460   5.169 -0.6258  0.2018 -0.5711
   80SLPC  H13R 7423   0.397   4.532   5.089  2.4970  3.9839  1.5774
   80SLPC  C214 7424   0.409   4.312   5.137 -0.0503 -0.9555  0.1735
   80SLPC  H14R 7425   0.371   4.254   5.224  0.9923  0.1125  1.3661
   80SLPC  H14S 7426   0.509   4.266   5.126  0.2405 -0.5206  0.9653
   80SLPC  C215 7427   0.332   4.290   5.010  0.3727  0.0372  0.1297
   80SLPC  H15R 7428   0.377   4.341   4.922 -0.2288 -2.1195 -1.4985
   80SLPC  H15S 7429   0.228   4.326   5.024 -0.0799 -1.7396  1.6273
   80SLPC  C216 7430   0.325   4.145   4.972 -0.0580  0.1600 -0.0104
   80SLPC  H16R 7431   0.264   4.084   5.042 -0.2923  0.0973 -0.2640
   80SLPC  H16S 7432   0.425   4.109   4.941 -0.1153 -0.2449  0.2729
   80SLPC  C217 7433   0.258   4.118   4.830  0.1327  0.6953  0.1712
   80SLPC  H17R 7434   0.338   4.150   4.760 -0.1126 -0.7592 -0.8172
   80SLPC  H17S 7435   0.161   4.173   4.822 -1.4610 -2.1505 -1.8002
   80SLPC  C218 7436   0.222   3.964   4.800 -1.0359 -0.0732 -0.2434
   80SLPC  H18R 7437   0.145   3.922   4.868 -1.6947  0.1244 -0.8598
   80SLPC  H18S 7438   0.313   3.901   4.808  0.1982  1.3991 -1.8747
   80SLPC  H18T 7439   0.188   3.955   4.694 -0.0804  0.4331 -0.6055
   80SLPC   C33 7440   0.718   4.385   6.131  0.2652 -0.5550  0.2309
   80SLPC   H3X 7441   0.789   4.300   6.132  0.1589 -0.7469 -2.1055
   80SLPC   H3Y 7442   0.762   4.469   6.188 -1.4800  1.5126 -1.3306
   80SLPC   C34 7443   0.724   4.422   5.980  0.9119 -0.5239 -0.2873
   80SLPC   H4X 7444   0.657   4.510   5.977 -0.2818 -1.3140  1.1273
   80SLPC   H4Y 7445   0.678   4.345   5.915 -1.6177  0.9622 -0.3997
   80SLPC   C35 7446   0.863   4.457   5.933  0.3439 -0.0015 -0.1170
   80SLPC   H5X 7447   0.915   4.359   5.922 -0.6262 -0.4265 -1.0279
   80SLPC   H5Y 7448   0.921   4.522   6.002  0.2596 -0.6138  0.5445
   80SLPC   C36 7449   0.855   4.522   5.793  0.1862  0.4763 -0.2237
   80SLPC   H6X 7450   0.834   4.631   5.804  1.7756  0.7163  0.8018
   80SLPC   H6Y 7451   0.779   4.469   5.732  0.6208 -1.6005  0.9246
   80SLPC   C37 7452   0.989   4.525   5.720 -0.7114 -0.0983  0.7717
   80SLPC   H7X 7453   1.069   4.559   5.789 -1.9564  1.4975  1.4804
   80SLPC   H7Y 7454   0.996   4.610   5.649  0.7664  0.5689  1.6536
   80SLPC   C38 7455   1.032   4.397   5.646 -0.2613  0.2639 -0.3976
   80SLPC   H8X 7456   1.003   4.311   5.710  3.2993  0.5895  1.9491
   80SLPC   H8Y 7457   1.140   4.391   5.621  0.0607 -1.8265  1.2328
   80SLPC   C39 7458   0.948   4.377   5.517  0.0895  0.4612 -0.0735
   80SLPC   H9X 7459   0.945   4.473   5.459  0.4846  1.8663  2.1270
   80SLPC   H9Y 7460   0.843   4.352   5.545  0.0077 -1.2237 -1.6823
   80SLPC  C310 7461   0.984   4.257   5.425  0.0330 -0.3811 -0.1280
   80SLPC  H10X 7462   0.946   4.158   5.458 -1.2870  0.2174  0.2517
   80SLPC  H10Y 7463   1.095   4.263   5.426  0.0917 -1.3037  0.1279
   80SLPC  C311 7464   0.923   4.280   5.280 -0.1727 -0.0933  1.0792
   80SLPC  H11X 7465   0.964   4.373   5.236  2.1054 -2.4686 -2.2705
   80SLPC  H11Y 7466   0.812   4.285   5.282 -0.1634  1.5997 -0.3046
   80SLPC  C312 7467   0.977   4.172   5.180 -0.2367 -0.0039  0.6339
   80SLPC  H12X 7468   0.934   4.072   5.206 -1.5029 -0.4397 -2.7106
   80SLPC  H12Y 7469   1.087   4.169   5.187 -0.2283 -1.4220  0.1565
   80SLPC  C313 7470   0.946   4.210   5.033  0.5484  0.1908  0.3887
   80SLPC  H13X 7471   0.974   4.136   4.955  0.0343  2.2544 -1.9066
   80SLPC  H13Y 7472   1.001   4.304   5.007 -0.1638  0.5160  0.0352
   80SLPC  C314 7473   0.796   4.240   5.002  0.0508  0.0709  0.5902
   80SLPC  H14X 7474   0.757   4.312   5.077  0.6887  0.7060  0.3231
   80SLPC  H14Y 7475   0.735   4.148   5.014 -1.1993  0.2603 -3.0668
   80SLPC  C315 7476   0.782   4.305   4.871 -0.0622 -0.1809 -0.1530
   80SLPC  H15X 7477   0.807   4.242   4.782 -0.4747 -0.2459 -0.2257
   80SLPC  H15Y 7478   0.842   4.398   4.862  1.2778 -0.9815  0.2200
   80SLPC  C316 7479   0.635   4.349   4.838 -0.2786  0.1109  0.0523
   80SLPC  H16X 7480   0.586   4.415   4.912 -1.6183  0.2877 -0.9420
   80SLPC  H16Y 7481   0.575   4.256   4.844 -0.4815  0.3193  4.1433
   80SLPC  C317 7482   0.635   4.401   4.692  0.4606  0.0645  0.1079
   80SLPC  H17X 7483   0.699   4.338   4.627 -2.1230 -1.5134 -1.0715
   80SLPC  H17Y 7484   0.701   4.490   4.707  1.0883 -0.4646  0.5163
   80SLPC  C318 7485   0.499   4.445   4.626  0.0724  0.2643 -0.1035
   80SLPC  H18X 7486   0.424   4.367   4.649  0.4778  0.8108  3.5142
   80SLPC  H18Y 7487   0.522   4.468   4.519  1.3762 -1.3867 -0.2348
   80SLPC  H18Z 7488   0.464   4.539   4.673 -1.5304  1.1911 -2.8707
   81SLPC     N 7489   6.183   3.049   2.027 -0.3681 -0.5349 -0.0810
   81SLPC   C13 7490   6.187   2.906   1.987 -0.0002  0.4226  0.9407
   81SLPC  H13A 7491   6.268   2.855   2.037  1.6418 -0.5408 -2.3732
   81SLPC  H13B 7492   6.099   2.853   2.020 -0.3324 -0.3868 -1.0849
   81SLPC  H13C 7493   6.195   2.894   1.880  1.7844 -1.1114  1.1960
   81SLPC   C14 7494   6.062   3.118   1.963 -0.1923  0.0008  0.1281
   81SLPC  H14A 7495   6.043   3.213   2.010  0.5082  0.4255 -0.4364
   81SLPC  H14B 7496   6.069   3.131   1.856  1.9017 -0.7208  0.1340
   81SLPC  H14C 7497   5.977   3.053   1.979 -0.8111  0.8544  0.4075
   81SLPC   C15 7498   6.309   3.112   1.978  0.5343 -0.1794 -0.0894
   81SLPC  H15A 7499   6.391   3.050   2.011 -0.2025 -1.3487 -0.4102
   81SLPC  H15B 7500   6.308   3.141   1.874  1.3548  0.4113  0.0576
   81SLPC  H15C 7501   6.312   3.205   2.033  1.7676 -0.7683  0.8957
   81SLPC   C12 7502   6.181   3.063   2.179 -0.1184  0.5507  0.4880
   81SLPC  H12A 7503   6.274   3.021   2.214 -0.3940 -1.1889 -0.7633
   81SLPC  H12B 7504   6.100   3.003   2.219  1.4304 -1.0155  1.3982
   81SLPC   C11 7505   6.163   3.208   2.244  0.1410  1.4001  0.3141
   81SLPC  H11A 7506   6.140   3.195   2.352 -0.8423 -0.6069 -0.0886
   81SLPC  H11B 7507   6.072   3.250   2.198 -1.2800 -0.1599  1.5830
   81SLPC     P 7508   6.414   3.263   2.297  0.0896  0.3415  0.2942
   81SLPC   O13 7509   6.464   3.129   2.253  0.1298 -0.2800  0.1532
   81SLPC   O14 7510   6.506   3.373   2.260 -0.6227 -0.3939  0.1109
   81SLPC   O12 7511   6.273   3.291   2.218  0.7827 -0.2266  0.0341
   81SLPC   O11 7512   6.389   3.261   2.452  0.3821  0.1898 -0.3454
   81SLPC    C1 7513   6.316   3.372   2.505  0.5719 -0.0542  0.3757
   81SLPC    HA 7514   6.379   3.463   2.500  0.2017  0.2904  1.7378
   81SLPC    HB 7515   6.220   3.388   2.452  1.4180  2.1202 -0.6168
   81SLPC    C2 7516   6.279   3.354   2.651 -0.4009  0.3640 -0.6488
   81SLPC    HS 7517   6.257   3.453   2.697  0.4229  0.4384 -0.3922
   81SLPC   O21 7518   6.397   3.290   2.712 -0.1400 -0.3543  0.0800
   81SLPC   C21 7519   6.489   3.365   2.764 -0.5192 -0.8937 -0.6981
   81SLPC   O22 7520   6.492   3.490   2.768  0.4452  0.7265  0.5630
   81SLPC   C22 7521   6.595   3.275   2.834 -0.7176  0.5375  0.1022
   81SLPC   H2R 7522   6.562   3.170   2.847  1.4626 -0.0672  1.3254
   81SLPC   H2S 7523   6.691   3.293   2.780 -0.9565  1.2746 -0.0958
   81SLPC    C3 7524   6.158   3.257   2.685 -0.1538 -0.4560 -0.3922
   81SLPC    HX 7525   6.184   3.157   2.644 -0.8429 -0.3828 -1.0328
   81SLPC    HY 7526   6.075   3.306   2.629  1.4264  3.0354  0.0313
   81SLPC   O31 7527   6.128   3.236   2.825 -0.3354 -0.2025  0.5097
   81SLPC   C31 7528   6.053   3.332   2.887  0.2159  1.2565  0.1888
   81SLPC   O32 7529   5.991   3.422   2.835 -0.4230  0.0055  0.5008
   81SLPC   C32 7530   6.104   3.326   3.037  0.1981  0.2207 -0.5979
   81SLPC   H2X 7531   6.211   3.356   3.047  0.0986  0.2022  0.7595
   81SLPC   H2Y 7532   6.091   3.220   3.069  2.8720  0.1356  0.4717
   81SLPC   C23 7533   6.625   3.328   2.975 -0.9482 -0.0886  0.4068
   81SLPC   H3R 7534   6.654   3.434   2.954 -0.4397 -0.1588  0.7289
   81SLPC   H3S 7535   6.711   3.272   3.017 -1.1962 -0.2227  0.7353
   81SLPC   C24 7536   6.498   3.323   3.063 -0.1882  0.4725  0.2294
   81SLPC   H4R 7537   6.445   3.234   3.024  1.8437 -1.1683  1.0064
   81SLPC   H4S 7538   6.440   3.417   3.052  0.0922  0.5731 -0.4694
   81SLPC   C25 7539   6.538   3.318   3.207  0.1773  0.3351 -0.2772
   81SLPC   H5R 7540   6.612   3.397   3.228  2.1974 -1.6864  0.5595
   81SLPC   H5S 7541   6.589   3.222   3.230  1.8372  0.5237 -2.7802
   81SLPC   C26 7542   6.419   3.331   3.302  0.2068  0.2122 -0.2835
   81SLPC   H6R 7543   6.341   3.255   3.281  0.3143  0.3532 -1.2292
   81SLPC   H6S 7544   6.371   3.428   3.275  1.7846  0.8327 -0.9751
   81SLPC   C27 7545   6.464   3.330   3.448 -0.7624  0.1802  0.5521
   81SLPC   H7R 7546   6.421   3.415   3.506  0.6311  0.1751  1.6462
   81SLPC   H7S 7547   6.574   3.340   3.458 -0.8255  0.7892  0.6424
   81SLPC   C28 7548   6.424   3.199   3.529  0.2964 -0.1131  0.0004
   81SLPC   H8R 7549   6.487   3.210   3.620 -1.4912  0.9034  1.1771
   81SLPC   H8S 7550   6.453   3.107   3.473  0.8055 -0.3454  0.6320
   81SLPC   C29 7551   6.276   3.202   3.550 -0.0726  0.5779 -0.8085
   81SLPC   H9R 7552   6.238   3.287   3.607  0.0064 -0.5763  1.0521
   81SLPC  C210 7553   6.192   3.097   3.521 -0.3586 -0.1933 -0.2229
   81SLPC  H10R 7554   6.091   3.104   3.564  0.3437 -1.8081  1.8994
   81SLPC  C211 7555   6.221   2.970   3.442 -0.5489 -0.2791  0.0531
   81SLPC  H11R 7556   6.139   2.899   3.469 -0.4830 -1.1997 -1.9506
   81SLPC  H11S 7557   6.309   2.915   3.481 -1.2884 -1.8477 -0.4043
   81SLPC  C212 7558   6.243   2.969   3.294 -1.0147 -0.4112 -0.1403
   81SLPC  H12R 7559   6.344   3.002   3.267 -1.4958  1.4970  0.2597
   81SLPC  C213 7560   6.154   2.910   3.216  1.0651 -0.4708 -0.0864
   81SLPC  H13R 7561   6.184   2.906   3.110  1.7420 -1.0093  0.1224
   81SLPC  C214 7562   6.021   2.841   3.243 -0.7310 -0.1944  0.1078
   81SLPC  H14R 7563   5.953   2.861   3.157 -0.2780  1.0282  0.0147
   81SLPC  H14S 7564   5.980   2.890   3.334  2.9899  0.9322  1.3733
   81SLPC  C215 7565   6.027   2.695   3.269 -0.5406 -0.5995  0.7451
   81SLPC  H15R 7566   6.092   2.682   3.359  0.9575 -0.1767 -0.2449
   81SLPC  H15S 7567   6.084   2.643   3.189  1.7753 -0.7486  2.3947
   81SLPC  C216 7568   5.894   2.619   3.288  1.1433 -0.1086  0.5082
   81SLPC  H16R 7569   5.836   2.670   3.367 -1.1206  2.7065 -2.6508
   81SLPC  H16S 7570   5.911   2.516   3.326  1.2148 -0.3805 -0.2412
   81SLPC  C217 7571   5.804   2.613   3.163  0.0499  0.5735 -0.5385
   81SLPC  H17R 7572   5.861   2.562   3.083  1.6308 -1.7601  1.8933
   81SLPC  H17S 7573   5.790   2.719   3.132 -1.0301  0.1630 -1.5359
   81SLPC  C218 7574   5.684   2.539   3.199  0.3612  0.4209  0.0805
   81SLPC  H18R 7575   5.611   2.521   3.118 -0.3448  0.5077  0.6883
   81SLPC  H18S 7576   5.623   2.573   3.286 -0.3274 -1.0732  0.2041
   81SLPC  H18T 7577   5.719   2.441   3.239  0.0017  0.8035  1.4094
   81SLPC   C33 7578   6.019   3.422   3.126  0.1007 -0.3582  0.4684
   81SLPC   H3X 7579   5.911   3.415   3.099 -0.2517  1.5965  1.2394
   81SLPC   H3Y 7580   6.044   3.527   3.100 -1.6376 -0.3634 -1.5095
   81SLPC   C34 7581   6.039   3.404   3.277 -0.2408  0.0919  0.0027
   81SLPC   H4X 7582   6.025   3.508   3.314 -1.5926  0.1750 -0.6765
   81SLPC   H4Y 7583   6.140   3.363   3.295 -1.2260 -2.9370 -0.7423
   81SLPC   C35 7584   5.936   3.311   3.338 -0.3053 -0.0242 -0.3067
   81SLPC   H5X 7585   5.960   3.205   3.313 -0.6527  0.1478 -1.4250
   81SLPC   H5Y 7586   5.839   3.349   3.300  1.2978  2.3055 -2.4374
   81SLPC   C36 7587   5.907   3.322   3.484  0.5241  0.4570 -0.5977
   81SLPC   H6X 7588   5.905   3.433   3.499  0.2246  0.4698 -0.7205
   81SLPC   H6Y 7589   5.980   3.276   3.554 -0.1768 -1.4327 -1.0540
   81SLPC   C37 7590   5.767   3.269   3.510  0.4586  0.1194  0.3489
   81SLPC   H7X 7591   5.751   3.169   3.466 -2.2350 -0.1866  1.8067
   81SLPC   H7Y 7592   5.696   3.340   3.460 -0.9103 -1.4758 -0.0637
   81SLPC   C38 7593   5.722   3.267   3.655 -0.2447 -0.0673 -0.0218
   81SLPC   H8X 7594   5.611   3.278   3.657 -0.8223 -4.3864  0.2647
   81SLPC   H8Y 7595   5.753   3.368   3.691  0.5103  0.4456 -1.9716
   81SLPC   C39 7596   5.782   3.145   3.725  0.1143 -0.2190 -0.0393
   81SLPC   H9X 7597   5.887   3.141   3.689 -0.4685 -0.4561 -1.7897
   81SLPC   H9Y 7598   5.732   3.057   3.679  0.3891 -0.4373  0.0800
   81SLPC  C310 7599   5.770   3.138   3.878  0.2051 -0.0838 -0.9258
   81SLPC  H10X 7600   5.666   3.122   3.915  0.6299  1.5219  1.1357
   81SLPC  H10Y 7601   5.819   3.233   3.907 -1.0823  0.4350 -0.3423
   81SLPC  C311 7602   5.848   3.011   3.916 -0.4610  1.3610  0.7035
   81SLPC  H11X 7603   5.947   3.029   3.868 -0.2758  1.9650  1.2982
   81SLPC  H11Y 7604   5.803   2.928   3.858  2.9850 -0.5212  0.4619
   81SLPC  C312 7605   5.853   2.980   4.063 -0.2928 -0.5703  0.2038
   81SLPC  H12X 7606   5.758   2.930   4.091 -0.9260  1.3522  1.7054
   81SLPC  H12Y 7607   5.868   3.072   4.123  2.5243 -1.3311  0.8009
   81SLPC  C313 7608   5.971   2.889   4.098  0.6417  0.3905 -0.8547
   81SLPC  H13X 7609   6.074   2.926   4.081  0.7139  1.3846  1.3295
   81SLPC  H13Y 7610   5.962   2.795   4.040 -1.0093 -0.3885  0.5528
   81SLPC  C314 7611   5.970   2.851   4.243 -0.7512  0.4860 -0.2100
   81SLPC  H14X 7612   5.893   2.772   4.261  1.1713 -1.1285  1.3561
   81SLPC  H14Y 7613   5.951   2.941   4.305  0.6381  0.4653  0.2728
   81SLPC  C315 7614   6.108   2.800   4.284  0.3976  0.4077  0.4732
   81SLPC  H15X 7615   6.119   2.823   4.392  0.3822 -0.6601  0.7077
   81SLPC  H15Y 7616   6.184   2.852   4.221 -0.0440 -0.7466 -1.0823
   81SLPC  C316 7617   6.129   2.649   4.259 -0.6902  0.0465  0.5716
   81SLPC  H16X 7618   6.141   2.622   4.152  1.8274  2.1893  0.2254
   81SLPC  H16Y 7619   6.040   2.589   4.287  0.2009 -1.4440  0.3172
   81SLPC  C317 7620   6.247   2.610   4.345 -0.7117  0.6152 -0.5200
   81SLPC  H17X 7621   6.253   2.667   4.440 -2.0090 -0.5917  0.3154
   81SLPC  H17Y 7622   6.345   2.628   4.296 -0.1979 -3.5205 -1.3857
   81SLPC  C318 7623   6.252   2.463   4.384 -0.5046 -0.7969  0.1264
   81SLPC  H18X 7624   6.175   2.433   4.458 -0.5827  0.5345  0.6114
   81SLPC  H18Y 7625   6.355   2.425   4.400  0.1668  1.2806  1.1000
   81SLPC  H18Z 7626   6.217   2.400   4.299 -0.2942  0.9705 -1.3363
   82SLPC     N 7627   3.310   4.750   1.982  0.2968  0.2714  0.4301
   82SLPC   C13 7628   3.434   4.698   1.916 -0.3607 -0.0732  0.7040
   82SLPC  H13A 7629   3.450   4.755   1.826 -1.5506  0.8798  1.0676
   82SLPC  H13B 7630   3.515   4.725   1.982  1.7756  0.7166 -2.0327
   82SLPC  H13C 7631   3.422   4.593   1.896 -1.3062  0.5198 -2.3237
   82SLPC   C14 7632   3.195   4.708   1.893 -0.8752 -0.4391  0.3578
   82SLPC  H14A 7633   3.207   4.733   1.789 -2.8249  0.0223  0.1906
   82SLPC  H14B 7634   3.187   4.601   1.901 -0.0665 -0.3573  3.5489
   82SLPC  H14C 7635   3.103   4.755   1.926  0.8975  3.2416  0.5446
   82SLPC   C15 7636   3.325   4.898   1.986 -0.8787 -0.3811 -0.4904
   82SLPC  H15A 7637   3.409   4.927   2.048 -2.6357  1.6495  1.0797
   82SLPC  H15B 7638   3.335   4.946   1.890  0.6300  1.0925  0.3452
   82SLPC  H15C 7639   3.238   4.941   2.032 -0.6770  1.3370 -1.6615
   82SLPC   C12 7640   3.295   4.699   2.131  0.0961 -0.2827  0.0579
   82SLPC  H12A 7641   3.367   4.748   2.194 -0.7577  1.0658  0.0287
   82SLPC  H12B 7642   3.315   4.594   2.148 -1.4411 -0.5507  0.3554
   82SLPC   C11 7643   3.154   4.718   2.205 -0.2183  0.3380 -0.1667
   82SLPC  H11A 7644   3.151   4.654   2.297 -3.4448 -0.0643 -0.4164
   82SLPC  H11B 7645   3.073   4.675   2.142 -0.0773 -1.8641  1.0340
   82SLPC     P 7646   3.216   4.920   2.348 -0.1374  0.2622 -0.6891
   82SLPC   O13 7647   3.367   4.901   2.335  0.6083  0.0122 -0.4429
   82SLPC   O14 7648   3.159   5.053   2.374 -0.0348 -0.2984  0.2858
   82SLPC   O12 7649   3.139   4.856   2.229  0.4793 -0.2227 -0.1656
   82SLPC   O11 7650   3.172   4.832   2.469  0.5982 -1.0128  0.4931
   82SLPC    C1 7651   3.080   4.872   2.576 -0.0250  0.1247  0.1280
   82SLPC    HA 7652   3.141   4.922   2.654 -0.2490  1.2637 -0.4091
   82SLPC    HB 7653   3.004   4.946   2.543 -0.0299  0.5224  1.0073
   82SLPC    C2 7654   3.003   4.752   2.638 -0.3711 -0.3730  0.6456
   82SLPC    HS 7655   2.935   4.784   2.719  0.5503  1.3565  0.7851
   82SLPC   O21 7656   3.098   4.650   2.687  0.1861  0.3228 -0.0894
   82SLPC   C21 7657   3.156   4.681   2.801  0.9429 -0.3224  0.3559
   82SLPC   O22 7658   3.130   4.776   2.877  0.1727 -0.1900  0.2554
   82SLPC   C22 7659   3.265   4.581   2.831  0.0458  0.2530 -0.2202
   82SLPC   H2R 7660   3.220   4.481   2.848 -1.5929  0.9427 -0.3933
   82SLPC   H2S 7661   3.331   4.582   2.742  0.1782  2.3432 -0.1343
   82SLPC    C3 7662   2.922   4.691   2.516  0.5840  0.0830  0.3859
   82SLPC    HX 7663   2.998   4.671   2.438  2.1883  0.9605  1.6664
   82SLPC    HY 7664   2.875   4.779   2.466  2.6496  1.5578  0.9213
   82SLPC   O31 7665   2.839   4.580   2.548 -0.7047  0.3003  0.0029
   82SLPC   C31 7666   2.715   4.607   2.590  0.1374 -0.2390 -0.6314
   82SLPC   O32 7667   2.659   4.714   2.582  0.0799 -0.7226  0.2904
   82SLPC   C32 7668   2.648   4.476   2.642  0.1121  0.8506 -0.2456
   82SLPC   H2X 7669   2.669   4.388   2.578 -2.9794 -1.9877  2.2654
   82SLPC   H2Y 7670   2.538   4.492   2.639  0.4581  3.5637 -1.2427
   82SLPC   C23 7671   3.341   4.609   2.965 -0.3928 -0.1880  0.3031
   82SLPC   H3R 7672   3.272   4.634   3.048 -0.7270 -1.6555  0.4975
   82SLPC   H3S 7673   3.411   4.695   2.956 -1.0267  0.4200  1.0425
   82SLPC   C24 7674   3.425   4.489   3.017  0.0657 -0.4115  0.3438
   82SLPC   H4R 7675   3.526   4.489   2.971  0.2676  2.6697  0.5340
   82SLPC   H4S 7676   3.371   4.399   2.981  1.2342 -0.1487 -2.2801
   82SLPC   C25 7677   3.447   4.491   3.168 -0.1127  0.1606 -0.1205
   82SLPC   H5R 7678   3.373   4.568   3.199 -1.0831 -0.3662 -1.0707
   82SLPC   H5S 7679   3.546   4.540   3.182 -0.3513  0.7502 -0.4279
   82SLPC   C26 7680   3.437   4.360   3.248 -0.2462  0.1304  0.0159
   82SLPC   H6R 7681   3.511   4.285   3.213 -1.6403 -1.6216  0.6590
   82SLPC   H6S 7682   3.333   4.321   3.250 -0.3926  0.3763  3.1636
   82SLPC   C27 7683   3.481   4.382   3.390  0.2135 -0.4859 -0.9224
   82SLPC   H7R 7684   3.429   4.463   3.445  1.7571 -0.6978  0.9606
   82SLPC   H7S 7685   3.583   4.418   3.366  0.2147  0.1844  0.0336
   82SLPC   C28 7686   3.492   4.259   3.480  0.1451 -0.5447  0.4080
   82SLPC   H8R 7687   3.565   4.282   3.560  1.7037  0.3827 -1.2055
   82SLPC   H8S 7688   3.543   4.170   3.436  1.5905  0.8149 -0.8173
   82SLPC   C29 7689   3.352   4.222   3.527 -0.3939  0.6316  0.4747
   82SLPC   H9R 7690   3.274   4.257   3.458 -0.1839  0.3566  0.0920
   82SLPC  C210 7691   3.316   4.164   3.645  0.0367  0.5850 -0.0393
   82SLPC  H10R 7692   3.209   4.146   3.667 -0.0058 -0.3306 -0.9318
   82SLPC  C211 7693   3.406   4.131   3.754 -0.3874 -0.2703 -0.7787
   82SLPC  H11R 7694   3.510   4.105   3.724  1.2161  1.6698  2.5339
   82SLPC  H11S 7695   3.369   4.043   3.811  1.3280 -0.0276  0.8029
   82SLPC  C212 7696   3.427   4.249   3.840 -0.1782 -0.3839  0.0882
   82SLPC  H12R 7697   3.440   4.347   3.791  1.2712 -1.7189 -2.3736
   82SLPC  C213 7698   3.426   4.239   3.978 -0.8409  0.2097  0.9926
   82SLPC  H13R 7699   3.451   4.331   4.032  0.4487 -0.9895  2.5405
   82SLPC  C214 7700   3.415   4.118   4.061  1.3055  0.1076 -0.6952
   82SLPC  H14R 7701   3.506   4.107   4.125 -0.5832  0.4155  2.2289
   82SLPC  H14S 7702   3.396   4.027   4.000 -0.8454  0.9894 -1.4166
   82SLPC  C215 7703   3.284   4.129   4.143  0.2816  0.1981 -0.4149
   82SLPC  H15R 7704   3.194   4.120   4.080 -1.4315  4.5682  0.9689
   82SLPC  H15S 7705   3.272   4.227   4.196 -2.3596  0.7365 -1.8156
   82SLPC  C216 7706   3.275   4.022   4.248 -0.3071 -0.0835 -0.1226
   82SLPC  H16R 7707   3.349   4.045   4.328  0.1927  0.5375 -0.7536
   82SLPC  H16S 7708   3.292   3.924   4.200 -0.6477 -0.6532  0.8949
   82SLPC  C217 7709   3.138   4.014   4.323  0.1880  0.0615 -0.1061
   82SLPC  H17R 7710   3.062   4.014   4.241 -0.5717 -0.6698  0.5841
   82SLPC  H17S 7711   3.105   4.112   4.365  2.8151  0.7620  0.4521
   82SLPC  C218 7712   3.131   3.893   4.415 -0.0155 -0.4939 -0.5979
   82SLPC  H18R 7713   3.169   3.801   4.364 -0.3411 -0.1277 -1.5325
   82SLPC  H18S 7714   3.021   3.886   4.417 -0.2221  2.1055  1.0992
   82SLPC  H18T 7715   3.179   3.910   4.513  0.5576  0.1270 -0.9722
   82SLPC   C33 7716   2.668   4.433   2.793 -0.0243  0.7822  0.0274
   82SLPC   H3X 7717   2.603   4.349   2.828 -1.4302  2.5293  1.8327
   82SLPC   H3Y 7718   2.652   4.518   2.863 -3.6618  1.7576 -1.7417
   82SLPC   C34 7719   2.816   4.383   2.811  0.8065 -0.2495 -0.1596
   82SLPC   H4X 7720   2.887   4.469   2.817  2.3405 -1.5128  0.6032
   82SLPC   H4Y 7721   2.844   4.319   2.725  1.3677 -2.1636  1.3772
   82SLPC   C35 7722   2.838   4.312   2.941  0.3540 -0.1087 -0.3057
   82SLPC   H5X 7723   2.775   4.220   2.937 -1.8086  1.3111 -0.5500
   82SLPC   H5Y 7724   2.810   4.369   3.033  2.0431  1.5872 -0.7963
   82SLPC   C36 7725   2.978   4.255   2.953 -0.0876  0.1108  0.2399
   82SLPC   H6X 7726   3.044   4.328   2.901 -1.9502  0.3066 -2.0553
   82SLPC   H6Y 7727   2.975   4.160   2.895  1.4728  1.0029 -1.3871
   82SLPC   C37 7728   3.028   4.228   3.091 -0.1050  0.6014 -0.0591
   82SLPC   H7X 7729   3.051   4.327   3.137  1.6680  0.4396 -0.5252
   82SLPC   H7Y 7730   3.126   4.176   3.078 -0.9253 -0.4832 -2.3960
   82SLPC   C38 7731   2.927   4.147   3.177  0.2875 -0.4175 -0.4161
   82SLPC   H8X 7732   2.927   4.039   3.148 -0.9979 -0.7679  0.8234
   82SLPC   H8Y 7733   2.822   4.182   3.163  0.4599  0.1516 -0.3209
   82SLPC   C39 7734   2.975   4.154   3.320  0.2538  0.3905 -0.9034
   82SLPC   H9X 7735   2.947   4.249   3.370  2.0044  0.8726 -0.7696
   82SLPC   H9Y 7736   3.083   4.127   3.323 -0.1714 -1.2689  0.6584
   82SLPC  C310 7737   2.912   4.042   3.402 -0.4046  0.0342  0.0164
   82SLPC  H10X 7738   2.942   3.941   3.368 -1.7684 -0.4307  0.1080
   82SLPC  H10Y 7739   2.801   4.034   3.394 -0.3748 -1.0911  0.5686
   82SLPC  C311 7740   2.958   4.049   3.545  0.8280  0.1223 -0.0043
   82SLPC  H11X 7741   2.922   4.146   3.586 -1.6863 -0.4919 -0.5995
   82SLPC  H11Y 7742   3.067   4.041   3.564  0.8120  0.7895  0.3948
   82SLPC  C312 7743   2.915   3.926   3.625  0.1296  0.4767 -0.1659
   82SLPC  H12X 7744   2.988   3.849   3.591  0.5789  1.5415 -1.7471
   82SLPC  H12Y 7745   2.818   3.887   3.589 -0.6218  1.1306  1.0859
   82SLPC  C313 7746   2.920   3.948   3.774  0.6204 -0.3462 -0.3056
   82SLPC  H13X 7747   2.847   4.030   3.789  1.2955  0.2810 -0.4136
   82SLPC  H13Y 7748   3.016   3.985   3.815  1.0215 -2.1787  0.5066
   82SLPC  C314 7749   2.871   3.832   3.858  0.1090  0.4350 -0.3830
   82SLPC  H14X 7750   2.934   3.742   3.839  0.6574  0.8639 -0.6441
   82SLPC  H14Y 7751   2.770   3.798   3.826 -0.0145  1.7943 -1.5405
   82SLPC  C315 7752   2.889   3.864   4.004 -0.1232 -0.1611 -0.4157
   82SLPC  H15X 7753   2.869   3.971   4.026  1.2501 -0.3185  2.0101
   82SLPC  H15Y 7754   2.996   3.848   4.031 -0.1829  1.3648  0.8633
   82SLPC  C316 7755   2.790   3.781   4.084 -0.0070  0.5744  0.4897
   82SLPC  H16X 7756   2.804   3.674   4.057 -0.5995  0.4756  0.5570
   82SLPC  H16Y 7757   2.681   3.801   4.071 -0.1971 -0.6353  0.0554
   82SLPC  C317 7758   2.816   3.789   4.234 -0.7172 -0.8721  0.4678
   82SLPC  H17X 7759   2.851   3.891   4.257  1.2028 -1.7250  1.6111
   82SLPC  H17Y 7760   2.895   3.716   4.264 -1.1244 -0.3372  3.0495
   82SLPC  C318 7761   2.699   3.777   4.323  0.6719 -0.2287 -1.1076
   82SLPC  H18X 7762   2.645   3.682   4.304  0.7193 -1.1294  2.4229
   82SLPC  H18Y 7763   2.622   3.856   4.310 -0.1484 -0.9659 -0.8353
   82SLPC  H18Z 7764   2.723   3.781   4.432 -1.3204  0.4746 -0.6505
   83SLPC     N 7765   4.708   3.930   2.202 -0.3069 -0.1965 -0.1941
   83SLPC   C13 7766   4.615   3.893   2.091  0.2639  0.3079  0.4594
   83SLPC  H13A 7767   4.514   3.871   2.122 -0.0496 -0.9167 -1.2410
   83SLPC  H13B 7768   4.625   3.964   2.010  1.2426 -1.4283 -1.0195
   83SLPC  H13C 7769   4.652   3.807   2.038  0.4669  0.0422  1.0381
   83SLPC   C14 7770   4.712   4.080   2.220  0.2600  0.6972 -0.2398
   83SLPC  H14A 7771   4.609   4.105   2.240 -0.6674 -1.8581 -1.4547
   83SLPC  H14B 7772   4.782   4.118   2.293  2.0406  0.3041 -1.6879
   83SLPC  H14C 7773   4.735   4.129   2.127 -1.6276 -0.8884 -1.6326
   83SLPC   C15 7774   4.853   3.884   2.177  0.2906 -1.2963  0.0355
   83SLPC  H15A 7775   4.861   3.778   2.198  1.0334 -1.6819 -1.9502
   83SLPC  H15B 7776   4.882   3.904   2.075  1.9181  0.4690  0.7755
   83SLPC  H15C 7777   4.922   3.943   2.235 -0.6717 -0.3222  0.2132
   83SLPC   C12 7778   4.664   3.858   2.332 -0.4773  0.8005 -0.1223
   83SLPC  H12A 7779   4.742   3.861   2.407  1.0454  0.6465 -1.6493
   83SLPC  H12B 7780   4.659   3.753   2.307 -0.6627  0.8072 -0.1162
   83SLPC   C11 7781   4.530   3.902   2.406  0.4437 -0.2880  0.2444
   83SLPC  H11A 7782   4.531   4.012   2.420 -1.2429 -0.3436  1.1572
   83SLPC  H11B 7783   4.501   3.857   2.504 -2.2023 -0.9796 -0.7544
   83SLPC     P 7784   4.359   3.743   2.300  0.3161 -0.1643  0.1224
   83SLPC   O13 7785   4.284   3.739   2.171  0.2527 -0.1660 -0.3109
   83SLPC   O14 7786   4.459   3.636   2.321 -0.7617 -0.1533 -0.6185
   83SLPC   O12 7787   4.424   3.881   2.317 -0.1589  0.2118  0.3032
   83SLPC   O11 7788   4.251   3.738   2.412 -0.2172  0.0381  0.5614
   83SLPC    C1 7789   4.182   3.853   2.463  0.1146 -0.5692 -0.7754
   83SLPC    HA 7790   4.252   3.938   2.475  0.5270 -1.1499  1.3671
   83SLPC    HB 7791   4.114   3.901   2.389  1.3332  2.7837  0.1027
   83SLPC    C2 7792   4.102   3.842   2.602  0.0070 -0.2359  0.1810
   83SLPC    HS 7793   4.057   3.941   2.624 -2.9625 -0.8564 -2.3730
   83SLPC   O21 7794   4.176   3.777   2.705 -0.1790  0.4511 -0.5056
   83SLPC   C21 7795   4.266   3.844   2.769 -0.4756  0.5507  0.1140
   83SLPC   O22 7796   4.290   3.965   2.758  0.5246  0.3583  0.0916
   83SLPC   C22 7797   4.340   3.755   2.862  0.2888 -0.0619 -0.2581
   83SLPC   H2R 7798   4.267   3.716   2.937  1.7735 -0.1144  1.2388
   83SLPC   H2S 7799   4.386   3.667   2.811 -1.9683 -0.4609 -1.7506
   83SLPC    C3 7800   3.980   3.746   2.578 -0.5020 -0.5480  0.0263
   83SLPC    HX 7801   4.008   3.641   2.557 -2.3343 -1.0561 -0.0115
   83SLPC    HY 7802   3.930   3.782   2.485  1.4081 -0.4776 -1.0317
   83SLPC   O31 7803   3.885   3.759   2.688  0.1746 -0.1999 -0.2328
   83SLPC   C31 7804   3.881   3.652   2.779 -0.4388 -0.6704  0.4011
   83SLPC   O32 7805   3.938   3.546   2.774  0.1605  0.3955  0.6029
   83SLPC   C32 7806   3.783   3.680   2.892 -0.5891 -0.2541  0.0453
   83SLPC   H2X 7807   3.681   3.654   2.855 -0.4322 -4.7626  2.2114
   83SLPC   H2Y 7808   3.793   3.787   2.920 -1.5981 -0.3424  0.8122
   83SLPC   C23 7809   4.460   3.826   2.933 -0.6853 -0.0006  0.1215
   83SLPC   H3R 7810   4.511   3.902   2.870 -0.4430 -0.3823 -0.1503
   83SLPC   H3S 7811   4.533   3.743   2.949 -1.1264 -0.4369 -0.1082
   83SLPC   C24 7812   4.430   3.883   3.070 -0.1929 -0.3087  0.3805
   83SLPC   H4R 7813   4.367   3.973   3.049 -1.1567 -1.3178 -1.4026
   83SLPC   H4S 7814   4.519   3.941   3.101 -0.8216  2.7778 -2.8802
   83SLPC   C25 7815   4.377   3.780   3.174  0.3204  0.0210  0.1979
   83SLPC   H5R 7816   4.438   3.688   3.166  1.6195  0.9955 -1.7761
   83SLPC   H5S 7817   4.273   3.747   3.150  0.2533 -0.6153  1.3250
   83SLPC   C26 7818   4.385   3.829   3.319 -0.8179 -0.8176 -0.1166
   83SLPC   H6R 7819   4.313   3.913   3.333  1.0188  0.8636 -0.2358
   83SLPC   H6S 7820   4.489   3.864   3.340  0.7130 -3.4855 -2.5364
   83SLPC   C27 7821   4.353   3.727   3.427 -0.1650  0.2983  0.2434
   83SLPC   H7R 7822   4.431   3.648   3.438  0.9416  1.2867 -0.3395
   83SLPC   H7S 7823   4.254   3.695   3.387 -0.6656  2.2697 -0.1936
   83SLPC   C28 7824   4.351   3.796   3.567 -0.5723 -0.2135  0.2562
   83SLPC   H8R 7825   4.303   3.895   3.548 -0.0561 -0.1657 -0.8812
   83SLPC   H8S 7826   4.457   3.818   3.590 -0.7940 -0.6612  1.8175
   83SLPC   C29 7827   4.285   3.708   3.670 -0.9793  0.2245 -0.2579
   83SLPC   H9R 7828   4.288   3.601   3.645 -0.5757  0.2210 -0.1933
   83SLPC  C210 7829   4.262   3.753   3.790  0.6232 -0.8859  0.1451
   83SLPC  H10R 7830   4.204   3.688   3.858  0.2301 -1.4084 -0.6736
   83SLPC  C211 7831   4.249   3.901   3.827  0.4478  0.2872  0.1148
   83SLPC  H11R 7832   4.147   3.933   3.857  0.1699  0.9686 -1.4675
   83SLPC  H11S 7833   4.280   3.972   3.748 -1.4730  1.8887  0.7266
   83SLPC  C212 7834   4.347   3.927   3.940 -0.1538 -0.0818 -0.5165
   83SLPC  H12R 7835   4.437   3.975   3.900 -0.8065  0.3870 -1.4605
   83SLPC  C213 7836   4.329   3.894   4.071  0.3471 -0.5941  0.1509
   83SLPC  H13R 7837   4.414   3.902   4.140 -1.2925 -1.4657  2.4115
   83SLPC  C214 7838   4.204   3.818   4.118 -0.2073 -0.5439 -0.0895
   83SLPC  H14R 7839   4.141   3.776   4.037  0.0988 -3.0079  0.8599
   83SLPC  H14S 7840   4.142   3.893   4.172 -0.6332 -0.6108 -0.4772
   83SLPC  C215 7841   4.241   3.708   4.221 -0.5414  0.0390 -0.2055
   83SLPC  H15R 7842   4.145   3.664   4.253  0.8712 -2.8870  0.2832
   83SLPC  H15S 7843   4.302   3.767   4.293 -2.1058  1.3161  0.1319
   83SLPC  C216 7844   4.328   3.589   4.169 -0.1254 -0.4179  0.0663
   83SLPC  H16R 7845   4.433   3.623   4.163  0.3360 -1.8445 -0.4050
   83SLPC  H16S 7846   4.290   3.565   4.067  1.2024 -2.1091 -0.0822
   83SLPC  C217 7847   4.321   3.467   4.262  0.5183 -0.6749  0.6405
   83SLPC  H17R 7848   4.346   3.374   4.206 -2.4233 -1.3701  0.3306
   83SLPC  H17S 7849   4.211   3.455   4.273  0.5530 -0.6841  1.0065
   83SLPC  C218 7850   4.398   3.488   4.391  0.1372  0.1943 -0.0553
   83SLPC  H18R 7851   4.503   3.522   4.383  0.3682  0.5898  3.3474
   83SLPC  H18S 7852   4.385   3.391   4.444 -0.7370  0.8349  0.9464
   83SLPC  H18T 7853   4.342   3.563   4.451  2.7439  1.8152  0.5178
   83SLPC   C33 7854   3.804   3.593   3.006 -0.2911  0.4840 -0.6563
   83SLPC   H3X 7855   3.910   3.600   3.037 -0.6303  1.7835  0.2966
   83SLPC   H3Y 7856   3.800   3.488   2.969  2.9281  0.8789 -2.4895
   83SLPC   C34 7857   3.702   3.616   3.119  0.1939  0.2215  0.2886
   83SLPC   H4X 7858   3.605   3.630   3.066 -1.1765 -2.1573  1.9608
   83SLPC   H4Y 7859   3.734   3.709   3.170  2.4117 -0.7801  0.8462
   83SLPC   C35 7860   3.697   3.501   3.211  0.1031  0.4290 -0.0147
   83SLPC   H5X 7861   3.794   3.502   3.265 -0.6515 -0.4965  1.4164
   83SLPC   H5Y 7862   3.697   3.405   3.155 -0.8887  2.0812 -3.1010
   83SLPC   C36 7863   3.574   3.523   3.299  0.0974 -0.3018 -0.1735
   83SLPC   H6X 7864   3.477   3.528   3.245 -0.3745 -2.8285  0.3290
   83SLPC   H6Y 7865   3.586   3.622   3.347 -2.0541  0.6170 -1.4007
   83SLPC   C37 7866   3.582   3.413   3.406 -0.0945 -0.4654 -0.1078
   83SLPC   H7X 7867   3.685   3.410   3.448  0.7735  1.5848 -1.9027
   83SLPC   H7Y 7868   3.584   3.312   3.359  1.2150 -0.0676 -0.9648
   83SLPC   C38 7869   3.485   3.419   3.521 -0.0191  0.1502  0.2376
   83SLPC   H8X 7870   3.380   3.398   3.493 -0.4926  0.8668  1.3787
   83SLPC   H8Y 7871   3.480   3.523   3.560  0.6501 -0.0040  0.7505
   83SLPC   C39 7872   3.524   3.309   3.622  0.6015 -0.6124  0.5513
   83SLPC   H9X 7873   3.629   3.322   3.655  1.0092 -2.2632  0.0165
   83SLPC   H9Y 7874   3.500   3.210   3.578  2.0211 -1.3376  1.3273
   83SLPC  C310 7875   3.424   3.321   3.742  0.3015 -0.3959  0.7128
   83SLPC  H10X 7876   3.321   3.295   3.710 -0.5558  1.3064  1.8904
   83SLPC  H10Y 7877   3.418   3.426   3.779 -1.1036  0.1267 -0.8695
   83SLPC  C311 7878   3.465   3.237   3.864 -0.6742  0.8759 -0.2851
   83SLPC  H11X 7879   3.428   3.275   3.961  1.6482  2.2895  0.1249
   83SLPC  H11Y 7880   3.574   3.248   3.885 -0.4888 -1.8064  0.5758
   83SLPC  C312 7881   3.450   3.088   3.830 -0.4028 -0.1340 -0.2567
   83SLPC  H12X 7882   3.504   3.076   3.734  2.5320  1.1963  1.0770
   83SLPC  H12Y 7883   3.341   3.070   3.822 -1.1978  2.1319  3.0602
   83SLPC  C313 7884   3.523   3.010   3.939 -0.5027  0.0229  0.2441
   83SLPC  H13X 7885   3.630   3.031   3.918  0.1209 -2.7542  0.2701
   83SLPC  H13Y 7886   3.505   2.903   3.914  0.4043  0.2003 -1.3111
   83SLPC  C314 7887   3.489   3.046   4.088  0.3333  0.2791 -0.8033
   83SLPC  H14X 7888   3.378   3.044   4.098  0.2591 -1.6413 -1.5562
   83SLPC  H14Y 7889   3.524   3.146   4.122 -1.4422  1.4745 -2.2651
   83SLPC  C315 7890   3.546   2.944   4.188  0.5255 -0.6602 -0.7729
   83SLPC  H15X 7891   3.500   2.845   4.165 -0.7033 -1.1269  3.0245
   83SLPC  H15Y 7892   3.531   2.959   4.297 -2.6145 -0.4793 -1.1386
   83SLPC  C316 7893   3.701   2.929   4.167  0.5043  0.0869  0.6840
   83SLPC  H16X 7894   3.749   3.027   4.186  2.6725 -0.9016  0.5801
   83SLPC  H16Y 7895   3.726   2.913   4.060 -0.4408 -2.6854  0.7917
   83SLPC  C317 7896   3.766   2.822   4.258  0.3176 -0.5745  0.7010
   83SLPC  H17X 7897   3.875   2.819   4.232  0.2826  0.5043  0.3929
   83SLPC  H17Y 7898   3.719   2.724   4.236  0.1596 -1.1200  3.2648
   83SLPC  C318 7899   3.758   2.852   4.406 -0.0783 -0.1336  0.2389
   83SLPC  H18X 7900   3.655   2.852   4.448 -0.7416  0.1202 -1.3431
   83SLPC  H18Y 7901   3.806   2.950   4.427 -0.0608 -0.1582  0.3164
   83SLPC  H18Z 7902   3.815   2.779   4.467  1.8235  0.7841 -0.3543
   84SLPC     N 7903   4.831   2.176   2.081  1.0100  0.4321  0.1001
   84SLPC   C13 7904   4.860   2.306   2.004  0.5400  0.7675 -0.0983
   84SLPC  H13A 7905   4.812   2.308   1.907 -0.9805  3.4022  0.6285
   84SLPC  H13B 7906   4.818   2.387   2.062  4.2935  0.4697  3.5142
   84SLPC  H13C 7907   4.964   2.334   1.992  0.4054  1.5168  0.4763
   84SLPC   C14 7908   4.921   2.179   2.199  0.1250  0.9065  0.1858
   84SLPC  H14A 7909   5.021   2.157   2.165 -0.8345 -0.4984 -1.9817
   84SLPC  H14B 7910   4.928   2.277   2.244 -0.6858  2.1423 -2.2069
   84SLPC  H14C 7911   4.888   2.099   2.263  0.8160  0.5328  0.0827
   84SLPC   C15 7912   4.861   2.054   2.009 -0.6680  0.3843 -0.5719
   84SLPC  H15A 7913   4.812   2.046   1.913 -1.0583  0.0163 -0.3411
   84SLPC  H15B 7914   4.968   2.040   1.996 -0.7358 -0.8267  0.0681
   84SLPC  H15C 7915   4.827   1.968   2.064  2.1938 -0.7204 -0.3309
   84SLPC   C12 7916   4.686   2.176   2.116 -0.1462 -0.1460  0.0045
   84SLPC  H12A 7917   4.629   2.154   2.027 -0.5606 -0.2041  0.2781
   84SLPC  H12B 7918   4.663   2.275   2.154  3.0495  0.3409  0.9317
   84SLPC   C11 7919   4.633   2.081   2.227  0.5115 -0.3067 -0.2417
   84SLPC  H11A 7920   4.526   2.099   2.250  0.9468 -0.6143  2.3501
   84SLPC  H11B 7921   4.676   2.110   2.325 -1.3803 -1.0567  0.8644
   84SLPC     P 7922   4.541   1.860   2.132  0.0694 -0.4729  0.1943
   84SLPC   O13 7923   4.491   1.937   2.015  0.0438  0.5891 -1.0865
   84SLPC   O14 7924   4.604   1.728   2.104 -0.2975  1.0210 -0.1232
   84SLPC   O12 7925   4.664   1.945   2.200  0.1949  0.0808 -0.2095
   84SLPC   O11 7926   4.433   1.845   2.255  0.2787  0.4910  0.1585
   84SLPC    C1 7927   4.466   1.766   2.367 -0.2383 -1.0096 -0.0672
   84SLPC    HA 7928   4.433   1.661   2.353 -0.5821 -0.7420 -1.4255
   84SLPC    HB 7929   4.576   1.771   2.382 -0.3520  1.2691  0.3363
   84SLPC    C2 7930   4.399   1.813   2.501  0.4403 -0.1497  0.3336
   84SLPC    HS 7931   4.448   1.743   2.572  3.0687  0.4191 -0.8091
   84SLPC   O21 7932   4.253   1.811   2.501  0.2985  0.1158  0.4980
   84SLPC   C21 7933   4.210   1.688   2.529  0.1150  0.1449 -0.8285
   84SLPC   O22 7934   4.275   1.586   2.514 -0.3498 -0.0405 -0.1180
   84SLPC   C22 7935   4.062   1.700   2.555  0.0791  0.5957 -0.4418
   84SLPC   H2R 7936   4.023   1.783   2.492 -0.7042 -1.6074 -3.0155
   84SLPC   H2S 7937   4.018   1.602   2.526  3.0089 -0.6243 -1.0208
   84SLPC    C3 7938   4.450   1.960   2.539 -0.5690  0.2145  0.4613
   84SLPC    HX 7939   4.388   2.030   2.479  1.4351 -0.4353 -2.5693
   84SLPC    HY 7940   4.555   1.964   2.503 -1.1336  1.2739 -1.1844
   84SLPC   O31 7941   4.431   1.978   2.682 -0.2092 -0.1435  0.3545
   84SLPC   C31 7942   4.453   2.092   2.730  0.2367 -0.6788 -0.2130
   84SLPC   O32 7943   4.495   2.191   2.669  0.2398 -0.0515 -0.4324
   84SLPC   C32 7944   4.414   2.093   2.878  0.4861 -0.7475 -0.2624
   84SLPC   H2X 7945   4.497   2.050   2.938  2.0248  1.7335 -0.4733
   84SLPC   H2Y 7946   4.324   2.030   2.893  0.2763 -0.9462 -2.2121
   84SLPC   C23 7947   4.036   1.714   2.714 -0.1443 -0.4483  0.2806
   84SLPC   H3R 7948   4.080   1.628   2.769 -1.9357 -0.3136  2.0329
   84SLPC   H3S 7949   3.928   1.705   2.735  0.1320 -2.8096  0.9869
   84SLPC   C24 7950   4.097   1.855   2.757 -0.1318 -0.2823 -0.2653
   84SLPC   H4R 7951   4.110   1.929   2.675  3.0384 -1.0571 -0.5932
   84SLPC   H4S 7952   4.202   1.834   2.787  0.3533  1.0168 -0.9489
   84SLPC   C25 7953   4.034   1.919   2.886  0.0671 -0.7816  0.2046
   84SLPC   H5R 7954   3.937   1.960   2.851 -0.1606 -1.1250  0.4201
   84SLPC   H5S 7955   4.101   2.002   2.916  0.1441 -0.5848 -0.5126
   84SLPC   C26 7956   4.017   1.815   2.999 -0.1252 -1.1109  0.4542
   84SLPC   H6R 7957   4.114   1.763   3.013 -0.3602 -1.1316  2.2068
   84SLPC   H6S 7958   3.938   1.739   2.986  0.0148 -1.2704  0.5352
   84SLPC   C27 7959   3.982   1.902   3.121 -1.1368  0.2061  0.9945
   84SLPC   H7R 7960   3.897   1.967   3.091 -0.4117  0.4349 -0.7221
   84SLPC   H7S 7961   4.074   1.964   3.136 -1.8101  1.7443 -0.7900
   84SLPC   C28 7962   3.957   1.809   3.241 -0.3189  0.0871  0.1726
   84SLPC   H8R 7963   3.879   1.739   3.203 -1.1891  1.1716 -0.0940
   84SLPC   H8S 7964   3.911   1.859   3.329  0.8586  1.4088  0.0650
   84SLPC   C29 7965   4.072   1.722   3.290  0.7743  0.3637  0.6495
   84SLPC   H9R 7966   4.115   1.658   3.212 -0.5650 -1.5441  1.3959
   84SLPC  C210 7967   4.116   1.714   3.414  0.1463  0.0338 -0.5501
   84SLPC  H10R 7968   4.193   1.639   3.439 -1.7674 -1.6769  0.4867
   84SLPC  C211 7969   4.065   1.803   3.530 -0.3376 -0.2350  0.7277
   84SLPC  H11R 7970   3.963   1.766   3.555 -0.7399 -0.0474 -0.5523
   84SLPC  H11S 7971   4.047   1.906   3.494 -1.8740  0.1330  2.4153
   84SLPC  C212 7972   4.153   1.799   3.648  0.7290  0.3466 -0.8608
   84SLPC  H12R 7973   4.162   1.898   3.696 -1.0805  0.0690  0.1514
   84SLPC  C213 7974   4.177   1.695   3.733  0.5901 -0.6856  0.3647
   84SLPC  H13R 7975   4.253   1.714   3.810 -1.8699 -1.3477  3.1560
   84SLPC  C214 7976   4.143   1.551   3.720  0.0008 -0.3502  0.7226
   84SLPC  H14R 7977   4.119   1.522   3.615  0.9561  2.5607 -0.4196
   84SLPC  H14S 7978   4.049   1.524   3.772 -0.8097 -2.5371 -1.6364
   84SLPC  C215 7979   4.253   1.445   3.768  0.5577  0.1143 -0.9558
   84SLPC  H15R 7980   4.357   1.470   3.738  1.4035 -1.0699  0.8276
   84SLPC  H15S 7981   4.216   1.348   3.727 -0.8968  0.1488  0.1847
   84SLPC  C216 7982   4.271   1.429   3.922 -0.7675  0.2327  0.4236
   84SLPC  H16R 7983   4.182   1.388   3.975  0.3640 -2.0250  0.6873
   84SLPC  H16S 7984   4.288   1.531   3.965 -3.3460  1.0761 -0.3823
   84SLPC  C217 7985   4.394   1.332   3.949  0.4962  0.2929 -0.1056
   84SLPC  H17R 7986   4.481   1.367   3.889 -0.0343  0.3450 -0.8673
   84SLPC  H17S 7987   4.369   1.234   3.903  0.1797  0.9754 -1.4597
   84SLPC  C218 7988   4.443   1.319   4.092 -0.2714 -0.1420 -0.3435
   84SLPC  H18R 7989   4.497   1.407   4.131 -1.8733  0.6094  0.2455
   84SLPC  H18S 7990   4.519   1.238   4.096  0.2361  0.3863  1.0388
   84SLPC  H18T 7991   4.370   1.282   4.167 -0.2155  1.9862  0.8110
   84SLPC   C33 7992   4.385   2.233   2.943 -0.7384 -0.5129 -0.3816
   84SLPC   H3X 7993   4.311   2.292   2.885 -0.7215 -0.3211 -0.2109
   84SLPC   H3Y 7994   4.481   2.290   2.938 -1.9417  1.8661  1.5253
   84SLPC   C34 7995   4.336   2.232   3.093  0.1398  0.8631 -0.6941
   84SLPC   H4X 7996   4.254   2.156   3.097  0.9672 -0.0170 -0.1296
   84SLPC   H4Y 7997   4.292   2.329   3.123  1.7694  1.0895  1.1528
   84SLPC   C35 7998   4.440   2.193   3.192 -0.6203 -0.4016 -0.0921
   84SLPC   H5X 7999   4.538   2.239   3.171 -0.6772  0.5204  1.5076
   84SLPC   H5Y 8000   4.442   2.084   3.171  0.0615 -0.5375  0.6364
   84SLPC   C36 8001   4.389   2.217   3.334  0.1383 -0.1181 -0.4024
   84SLPC   H6X 8002   4.302   2.152   3.359 -1.4979  1.7944 -0.8416
   84SLPC   H6Y 8003   4.361   2.321   3.359 -0.2956 -0.2496 -0.3291
   84SLPC   C37 8004   4.495   2.171   3.434 -0.2277 -0.1346  0.4220
   84SLPC   H7X 8005   4.592   2.220   3.411 -0.4707 -0.1726 -0.7364
   84SLPC   H7Y 8006   4.508   2.063   3.414 -1.5988 -0.2454  0.0403
   84SLPC   C38 8007   4.459   2.189   3.576  0.4096 -0.7379 -1.0331
   84SLPC   H8X 8008   4.369   2.130   3.604  0.0730 -0.0345 -0.5987
   84SLPC   H8Y 8009   4.419   2.293   3.576 -0.2167 -0.9021  1.9512
   84SLPC   C39 8010   4.571   2.164   3.678 -0.2177 -0.0011  0.1947
   84SLPC   H9X 8011   4.659   2.203   3.623 -0.1037 -0.0647  0.3315
   84SLPC   H9Y 8012   4.579   2.053   3.685 -0.7694 -0.0209  0.6083
   84SLPC  C310 8013   4.545   2.231   3.816 -0.0269  0.6633  0.0366
   84SLPC  H10X 8014   4.453   2.189   3.861 -0.3090 -0.0701 -1.1908
   84SLPC  H10Y 8015   4.520   2.338   3.794 -0.3495  0.5400 -0.2008
   84SLPC  C311 8016   4.659   2.200   3.918 -0.3501  0.2316 -0.1113
   84SLPC  H11X 8017   4.755   2.240   3.881 -1.4002  2.8372 -0.2771
   84SLPC  H11Y 8018   4.651   2.090   3.908 -0.2638  0.3099 -1.2075
   84SLPC  C312 8019   4.623   2.244   4.057  0.5747 -0.5561 -0.2448
   84SLPC  H12X 8020   4.695   2.202   4.130  1.8397 -0.3142 -1.3186
   84SLPC  H12Y 8021   4.526   2.203   4.093  0.8435  0.1614  1.3585
   84SLPC  C313 8022   4.628   2.401   4.068 -0.5037 -0.0215  0.3387
   84SLPC  H13X 8023   4.558   2.444   3.993  1.0715 -0.9318 -1.7514
   84SLPC  H13Y 8024   4.729   2.439   4.040 -1.0262  1.2070  0.0723
   84SLPC  C314 8025   4.617   2.455   4.211  0.7555  0.7831 -0.2616
   84SLPC  H14X 8026   4.694   2.402   4.272  0.3387 -1.3147 -1.4503
   84SLPC  H14Y 8027   4.515   2.436   4.251  0.9829 -1.7345 -0.7061
   84SLPC  C315 8028   4.651   2.608   4.225  0.2795 -0.3261  0.4173
   84SLPC  H15X 8029   4.587   2.677   4.166 -1.2142 -1.5629  0.5155
   84SLPC  H15Y 8030   4.748   2.630   4.175 -0.3466  1.5753 -0.0237
   84SLPC  C316 8031   4.648   2.659   4.363 -0.5900  0.0954 -0.5093
   84SLPC  H16X 8032   4.544   2.647   4.401 -0.8695  0.7445 -1.0335
   84SLPC  H16Y 8033   4.656   2.770   4.365  0.0083  0.0622  2.3813
   84SLPC  C317 8034   4.758   2.601   4.459 -0.1300 -0.2855  0.2089
   84SLPC  H17X 8035   4.857   2.641   4.428  0.2598 -1.1436  0.2968
   84SLPC  H17Y 8036   4.768   2.490   4.453  0.2582 -0.4377  2.7171
   84SLPC  C318 8037   4.735   2.644   4.601 -0.3916  0.5973 -0.5401
   84SLPC  H18X 8038   4.839   2.652   4.640 -1.6897  3.4854  2.9919
   84SLPC  H18Y 8039   4.679   2.567   4.659 -2.4886  1.4382 -1.3465
   84SLPC  H18Z 8040   4.698   2.749   4.608  0.2111  0.7305  1.2296
   85SLPC     N 8041   1.441   3.818   2.127 -0.2766  0.2322 -0.0534
   85SLPC   C13 8042   1.573   3.838   2.053  0.6651  0.6943 -0.2186
   85SLPC  H13A 8043   1.579   3.751   1.989 -1.1991 -1.7253  2.6355
   85SLPC  H13B 8044   1.570   3.921   1.983  0.0334  0.7373 -0.1463
   85SLPC  H13C 8045   1.664   3.841   2.111  0.4103 -0.4711  0.2512
   85SLPC   C14 8046   1.472   3.712   2.234  0.1989 -0.6505  0.0960
   85SLPC  H14A 8047   1.391   3.694   2.304 -0.0967 -0.8507 -0.2991
   85SLPC  H14B 8048   1.485   3.627   2.169 -0.0046  0.4272 -1.3831
   85SLPC  H14C 8049   1.561   3.736   2.290  0.2527  0.3341 -0.3890
   85SLPC   C15 8050   1.342   3.763   2.028  0.1260  0.0495 -0.2270
   85SLPC  H15A 8051   1.316   3.842   1.959  1.8302  0.8524 -0.0201
   85SLPC  H15B 8052   1.379   3.680   1.970  0.1740 -0.9641  1.2049
   85SLPC  H15C 8053   1.249   3.746   2.081 -1.4292  3.5389 -1.4765
   85SLPC   C12 8054   1.397   3.949   2.191  0.5537 -0.4312 -0.5489
   85SLPC  H12A 8055   1.309   3.932   2.251  1.6460 -1.4160  0.8393
   85SLPC  H12B 8056   1.372   4.016   2.110 -0.0983 -0.4911 -0.4100
   85SLPC   C11 8057   1.483   4.025   2.298 -0.2328  0.5400 -0.0613
   85SLPC  H11A 8058   1.587   4.008   2.264 -0.8092 -1.8585 -0.8205
   85SLPC  H11B 8059   1.456   3.974   2.393 -1.6301  0.8395 -0.2685
   85SLPC     P 8060   1.339   4.226   2.390  0.4499 -0.1820 -0.0575
   85SLPC   O13 8061   1.366   4.370   2.383 -0.2204 -0.5161  0.0220
   85SLPC   O14 8062   1.207   4.185   2.332  0.0819 -0.3677  0.3411
   85SLPC   O12 8063   1.455   4.162   2.304 -0.0805  0.3297 -0.0356
   85SLPC   O11 8064   1.359   4.165   2.532  1.2300  0.1485 -0.2570
   85SLPC    C1 8065   1.480   4.156   2.606 -0.0274  0.3459  1.0183
   85SLPC    HA 8066   1.500   4.057   2.650  2.3591  1.1438  1.9225
   85SLPC    HB 8067   1.570   4.181   2.544  0.0572  0.2233  1.0917
   85SLPC    C2 8068   1.483   4.258   2.722 -0.6996  0.1998  0.0347
   85SLPC    HS 8069   1.439   4.349   2.675  0.8490 -0.1097 -2.2122
   85SLPC   O21 8070   1.622   4.287   2.746  0.0534  0.0177 -0.3378
   85SLPC   C21 8071   1.650   4.408   2.785  0.3235  0.5354 -0.2755
   85SLPC   O22 8072   1.565   4.496   2.810  0.9322  0.4451 -0.0579
   85SLPC   C22 8073   1.799   4.417   2.800 -0.3759 -0.3686  0.0026
   85SLPC   H2R 8074   1.832   4.320   2.842  0.2185 -0.8065 -1.4231
   85SLPC   H2S 8075   1.846   4.423   2.699 -2.2024  0.0153 -0.8788
   85SLPC    C3 8076   1.406   4.217   2.849  0.1500  0.5917  0.4946
   85SLPC    HX 8077   1.305   4.179   2.823 -0.1013  1.4580  0.1759
   85SLPC    HY 8078   1.395   4.307   2.913 -1.2803  0.7262  0.1018
   85SLPC   O31 8079   1.482   4.110   2.904  0.0402 -0.4412 -0.5242
   85SLPC   C31 8080   1.456   4.079   3.029 -0.1474 -0.3402 -0.0969
   85SLPC   O32 8081   1.379   4.135   3.106  0.1884  0.1419 -0.1174
   85SLPC   C32 8082   1.542   3.949   3.056  0.1779  0.2618  0.0550
   85SLPC   H2X 8083   1.649   3.979   3.066  0.3212 -0.3763  0.4737
   85SLPC   H2Y 8084   1.547   3.889   2.963  1.6674  0.2824  0.0861
   85SLPC   C23 8085   1.846   4.539   2.883  0.0972  0.0408  0.3102
   85SLPC   H3R 8086   1.803   4.632   2.839  0.2338  0.1362  0.3734
   85SLPC   H3S 8087   1.957   4.544   2.876  0.0276  1.6818 -0.0276
   85SLPC   C24 8088   1.809   4.541   3.032 -0.4981 -0.0775 -0.4034
   85SLPC   H4R 8089   1.829   4.441   3.077  0.9870  0.1924 -0.4365
   85SLPC   H4S 8090   1.701   4.567   3.037 -0.1251  1.2529  2.0708
   85SLPC   C25 8091   1.887   4.652   3.100 -0.1164 -0.4873 -0.1275
   85SLPC   H5R 8092   1.992   4.616   3.106 -0.4249 -1.2057  2.6603
   85SLPC   H5S 8093   1.890   4.744   3.038  0.7530 -0.0855  0.4818
   85SLPC   C26 8094   1.843   4.671   3.250  0.1703 -0.1613  0.9228
   85SLPC   H6R 8095   1.846   4.574   3.305 -0.7843 -0.0840  1.1262
   85SLPC   H6S 8096   1.740   4.712   3.261  0.6025  0.7480  1.6901
   85SLPC   C27 8097   1.937   4.776   3.320  0.2501 -0.5135 -0.0843
   85SLPC   H7R 8098   1.898   4.783   3.424  1.1031 -1.7908  0.3383
   85SLPC   H7S 8099   1.920   4.874   3.270 -0.3872 -0.2977  0.5376
   85SLPC   C28 8100   2.088   4.741   3.334  0.0307 -0.2720 -0.2585
   85SLPC   H8R 8101   2.132   4.785   3.242 -0.5850  1.7071  0.3338
   85SLPC   H8S 8102   2.082   4.631   3.339 -2.9173 -0.1324  2.1516
   85SLPC   C29 8103   2.145   4.809   3.459  0.2711  0.4009  0.6205
   85SLPC   H9R 8104   2.210   4.895   3.437  1.3585 -0.4871  0.2849
   85SLPC  C210 8105   2.143   4.756   3.584  0.4915  0.1600  0.4408
   85SLPC  H10R 8106   2.201   4.815   3.657  1.8135 -0.2584 -0.2343
   85SLPC  C211 8107   2.067   4.641   3.630  0.4233 -0.1881 -0.1132
   85SLPC  H11R 8108   2.019   4.591   3.543  2.1136 -0.5219 -0.8888
   85SLPC  H11S 8109   1.982   4.688   3.685  1.3912 -0.4725  1.7144
   85SLPC  C212 8110   2.142   4.537   3.701 -0.0772  0.3500 -0.0865
   85SLPC  H12R 8111   2.203   4.478   3.631 -0.9524 -0.1646 -0.4291
   85SLPC  C213 8112   2.133   4.497   3.831  0.0971 -0.6380 -0.3568
   85SLPC  H13R 8113   2.208   4.424   3.867 -1.8212 -2.5866 -0.0969
   85SLPC  C214 8114   2.037   4.559   3.931 -1.2965 -0.2786 -0.4738
   85SLPC  H14R 8115   1.963   4.485   3.968 -2.2734  1.2690  0.8147
   85SLPC  H14S 8116   1.972   4.636   3.884 -0.0693 -0.5167 -2.6947
   85SLPC  C215 8117   2.119   4.626   4.045 -0.2329 -0.0470 -0.1961
   85SLPC  H15R 8118   2.167   4.725   4.035  1.4666 -0.5979  1.8443
   85SLPC  H15S 8119   2.190   4.553   4.089 -0.5776 -1.3626 -1.7015
   85SLPC  C216 8120   2.024   4.650   4.163 -0.3792  0.0550 -0.0635
   85SLPC  H16R 8121   1.975   4.555   4.196 -0.3331 -0.4152 -1.3101
   85SLPC  H16S 8122   1.940   4.717   4.136 -2.0391 -1.1467  1.7759
   85SLPC  C217 8123   2.072   4.736   4.280  0.2792 -0.4390 -0.3039
   85SLPC  H17R 8124   2.101   4.834   4.235  1.4444 -0.8990 -0.5668
   85SLPC  H17S 8125   2.169   4.704   4.323  0.1899 -2.2534 -1.3568
   85SLPC  C218 8126   1.977   4.767   4.400  0.4281  0.2533  0.6669
   85SLPC  H18R 8127   1.890   4.829   4.371  0.9613  0.7673  0.1085
   85SLPC  H18S 8128   2.029   4.829   4.477  0.6698  2.0780 -0.8838
   85SLPC  H18T 8129   1.945   4.669   4.440 -0.3663 -0.4606 -1.5553
   85SLPC   C33 8130   1.493   3.858   3.175  0.8864  0.2337  0.3374
   85SLPC   H3X 8131   1.526   3.752   3.166 -0.6001 -0.0939 -2.2193
   85SLPC   H3Y 8132   1.384   3.839   3.178  1.1369 -1.0894  1.9864
   85SLPC   C34 8133   1.537   3.907   3.312 -0.5917 -0.5411 -0.0990
   85SLPC   H4X 8134   1.499   4.011   3.320 -2.4796 -1.0405 -1.8434
   85SLPC   H4Y 8135   1.648   3.911   3.317 -0.5952 -1.0097  0.4375
   85SLPC   C35 8136   1.491   3.829   3.433 -0.2451 -0.4614 -0.2726
   85SLPC   H5X 8137   1.562   3.745   3.448  2.5279  1.5732 -1.3918
   85SLPC   H5Y 8138   1.390   3.798   3.398 -0.6196  0.7780 -0.3094
   85SLPC   C36 8139   1.491   3.916   3.564 -0.1103  0.3759 -0.2570
   85SLPC   H6X 8140   1.425   4.003   3.543  0.2700  0.6930 -0.1425
   85SLPC   H6Y 8141   1.591   3.960   3.584 -0.3785  0.3822  1.2473
   85SLPC   C37 8142   1.450   3.829   3.684  0.3777  0.3189  0.3896
   85SLPC   H7X 8143   1.527   3.749   3.692 -0.0938 -0.3522 -1.3720
   85SLPC   H7Y 8144   1.347   3.801   3.653  1.2026 -0.9835 -1.3831
   85SLPC   C38 8145   1.464   3.923   3.801  0.3221 -0.0881 -1.1789
   85SLPC   H8X 8146   1.428   4.024   3.770  3.2197  0.6976 -2.2505
   85SLPC   H8Y 8147   1.569   3.941   3.830 -0.3964  2.0712  0.3029
   85SLPC   C39 8148   1.384   3.887   3.926  0.4219  0.2948 -0.1166
   85SLPC   H9X 8149   1.401   3.780   3.950  0.6122  0.2371 -0.5137
   85SLPC   H9Y 8150   1.276   3.881   3.903  0.6780 -0.3039 -1.2436
   85SLPC  C310 8151   1.395   3.995   4.042  0.0860 -0.2451  0.0510
   85SLPC  H10X 8152   1.353   4.089   3.999 -3.2767 -1.9359 -0.7199
   85SLPC  H10Y 8153   1.503   4.014   4.060  0.0352 -0.6188  0.7506
   85SLPC  C311 8154   1.309   3.962   4.164 -0.1755  0.5676  0.2734
   85SLPC  H11X 8155   1.207   3.927   4.137 -0.7654  1.4946  1.2296
   85SLPC  H11Y 8156   1.296   4.059   4.218 -0.2043 -1.1232  3.6097
   85SLPC  C312 8157   1.364   3.867   4.265  0.1482 -0.4202 -0.5654
   85SLPC  H12X 8158   1.472   3.894   4.269  0.1220 -0.0745 -1.7915
   85SLPC  H12Y 8159   1.358   3.763   4.226 -0.7129 -0.4758 -0.3120
   85SLPC  C313 8160   1.302   3.882   4.409 -0.2050 -0.4483  0.6337
   85SLPC  H13X 8161   1.327   3.792   4.471 -0.2328 -1.2137 -0.4467
   85SLPC  H13Y 8162   1.192   3.882   4.394 -0.1394 -0.2930  0.1456
   85SLPC  C314 8163   1.344   4.018   4.479 -0.1619 -0.2046  0.6742
   85SLPC  H14X 8164   1.312   4.108   4.422 -3.1079 -0.5040  1.6926
   85SLPC  H14Y 8165   1.454   4.030   4.482  0.0635 -1.5237 -1.0179
   85SLPC  C315 8166   1.315   4.029   4.627 -0.0462 -0.0345 -0.7850
   85SLPC  H15X 8167   1.332   4.133   4.663 -0.0266 -0.7657  1.4391
   85SLPC  H15Y 8168   1.381   3.960   4.683  0.7047  1.8655  0.7878
   85SLPC  C316 8169   1.166   4.009   4.660 -0.9210  0.5952  0.4181
   85SLPC  H16X 8170   1.125   3.929   4.595 -1.4483  2.0663 -1.1511
   85SLPC  H16Y 8171   1.110   4.100   4.627 -0.9547 -0.2001 -1.8734
   85SLPC  C317 8172   1.136   3.985   4.806 -0.0734  0.2985 -0.2972
   85SLPC  H17X 8173   1.027   3.977   4.827 -0.5182  1.5297 -1.9580
   85SLPC  H17Y 8174   1.167   4.074   4.866  2.6398 -0.6765 -0.1126
   85SLPC  C318 8175   1.211   3.859   4.866 -0.0424 -0.4223  0.0721
   85SLPC  H18X 8176   1.322   3.864   4.864  0.0864 -2.5792  0.0058
   85SLPC  H18Y 8177   1.187   3.769   4.806  1.0566 -0.4615 -0.3405
   85SLPC  H18Z 8178   1.195   3.850   4.976  0.0600  1.0514  0.2288
   86SLPC     N 8179   1.248   1.748   2.007  0.5976 -0.5088  0.2348
   86SLPC   C13 8180   1.178   1.694   1.890 -0.1346 -0.2310  0.6992
   86SLPC  H13A 8181   1.243   1.707   1.805 -1.0489  0.5223  0.0946
   86SLPC  H13B 8182   1.169   1.586   1.890 -0.8673 -0.2699 -2.1836
   86SLPC  H13C 8183   1.083   1.744   1.878  1.0138  1.9452  0.0660
   86SLPC   C14 8184   1.251   1.897   1.996 -0.0215  0.3566 -0.4307
   86SLPC  H14A 8185   1.299   1.930   1.905  0.8550 -1.3746 -0.6445
   86SLPC  H14B 8186   1.151   1.933   2.013  0.4547  1.4700  0.0947
   86SLPC  H14C 8187   1.304   1.943   2.078  1.2404 -2.8863  0.7481
   86SLPC   C15 8188   1.389   1.702   2.007  0.5251 -0.3854  0.4425
   86SLPC  H15A 8189   1.377   1.595   2.003 -1.1519 -0.2141  0.1094
   86SLPC  H15B 8190   1.452   1.716   1.920 -1.4329 -1.1445 -1.1915
   86SLPC  H15C 8191   1.440   1.741   2.094  0.2451  0.6394  0.1700
   86SLPC   C12 8192   1.180   1.706   2.141  0.1203  0.3612 -0.6141
   86SLPC  H12A 8193   1.241   1.751   2.218  0.0613  1.5301 -1.2279
   86SLPC  H12B 8194   1.189   1.599   2.143 -0.7327  0.2937  1.1657
   86SLPC   C11 8195   1.031   1.742   2.145 -0.4843  0.3602 -0.1988
   86SLPC  H11A 8196   0.996   1.700   2.242  0.7124  2.4195  1.2037
   86SLPC  H11B 8197   0.973   1.690   2.065 -0.2238  1.3341 -1.0364
   86SLPC     P 8198   1.044   1.971   2.260 -0.1181  0.1483  0.4281
   86SLPC   O13 8199   1.195   1.971   2.281  0.4727  0.3698  0.0022
   86SLPC   O14 8200   0.974   2.104   2.246 -0.2651 -0.4461  0.2200
   86SLPC   O12 8201   1.004   1.878   2.133  0.4223  0.0930 -0.4819
   86SLPC   O11 8202   0.985   1.888   2.386  0.5061 -0.0089 -0.0668
   86SLPC    C1 8203   1.018   1.930   2.521 -0.6861  0.2478  0.4061
   86SLPC    HA 8204   1.036   2.039   2.528 -2.0172  0.7503 -2.4168
   86SLPC    HB 8205   0.935   1.912   2.593 -0.0940 -0.0412  1.0259
   86SLPC    C2 8206   1.142   1.857   2.574  0.7447  0.3092 -0.4278
   86SLPC    HS 8207   1.219   1.850   2.495 -3.0408  0.2576 -4.5254
   86SLPC   O21 8208   1.106   1.723   2.615  0.1139  0.3702  0.5442
   86SLPC   C21 8209   1.209   1.650   2.659 -0.1731 -0.8990  0.8183
   86SLPC   O22 8210   1.326   1.670   2.636 -0.1338  0.5708  0.2605
   86SLPC   C22 8211   1.165   1.528   2.733  0.0052  0.6201 -0.1164
   86SLPC   H2R 8212   1.102   1.463   2.668  0.9202  0.2759 -0.6690
   86SLPC   H2S 8213   1.257   1.468   2.751 -0.7719 -0.4909  0.3141
   86SLPC    C3 8214   1.205   1.934   2.689 -0.2674  0.2647  0.3984
   86SLPC    HX 8215   1.243   2.029   2.646 -0.6582  0.7229  1.0344
   86SLPC    HY 8216   1.294   1.886   2.735 -1.7779 -1.4357  1.6834
   86SLPC   O31 8217   1.105   1.976   2.784 -0.2116  0.2239 -0.1614
   86SLPC   C31 8218   1.153   2.016   2.897 -0.6127  0.4401 -0.6331
   86SLPC   O32 8219   1.267   2.064   2.909 -0.6117  0.2971 -0.2341
   86SLPC   C32 8220   1.052   2.017   3.015 -0.1947 -0.1134  0.0914
   86SLPC   H2X 8221   1.008   1.915   3.023  2.0523 -1.1213  0.4379
   86SLPC   H2Y 8222   0.972   2.091   2.994  0.8539  1.4486  1.3481
   86SLPC   C23 8223   1.091   1.563   2.865  0.8092  0.0720  0.1171
   86SLPC   H3R 8224   1.045   1.473   2.909  1.9349  0.7372  2.8522
   86SLPC   H3S 8225   1.021   1.648   2.853 -0.2972 -0.8156  0.2269
   86SLPC   C24 8226   1.195   1.616   2.964  0.3716  0.1488  0.2593
   86SLPC   H4R 8227   1.211   1.722   2.935  0.0491  0.2619  0.4933
   86SLPC   H4S 8228   1.291   1.559   2.956  1.1521  1.2237  1.4460
   86SLPC   C25 8229   1.146   1.604   3.108 -0.1033  0.2686  0.1410
   86SLPC   H5R 8230   1.105   1.502   3.120  1.7256 -0.6235 -0.7502
   86SLPC   H5S 8231   1.064   1.676   3.130 -0.2321  0.1982 -0.0947
   86SLPC   C26 8232   1.249   1.612   3.220  0.8669  0.9405 -0.2053
   86SLPC   H6R 8233   1.292   1.714   3.209 -0.3185  1.5879  0.9893
   86SLPC   H6S 8234   1.330   1.537   3.204 -0.9627 -1.1233 -0.2398
   86SLPC   C27 8235   1.184   1.601   3.359 -0.1410 -0.1092 -1.0639
   86SLPC   H7R 8236   1.183   1.493   3.384  0.1136  0.3875  1.3906
   86SLPC   H7S 8237   1.087   1.656   3.367  0.9359  1.6513  1.0053
   86SLPC   C28 8238   1.282   1.669   3.458  0.0274 -0.6807  0.0386
   86SLPC   H8R 8239   1.312   1.764   3.409  0.9730 -0.7078  0.5353
   86SLPC   H8S 8240   1.381   1.619   3.458  0.1413 -0.4596  0.3048
   86SLPC   C29 8241   1.218   1.715   3.589 -0.0801  0.0065  0.2649
   86SLPC   H9R 8242   1.133   1.784   3.578 -1.0286 -1.5247 -4.4151
   86SLPC  C210 8243   1.283   1.695   3.705  0.3346 -0.7624 -0.1744
   86SLPC  H10R 8244   1.235   1.735   3.796  0.2250 -0.7624 -0.2327
   86SLPC  C211 8245   1.415   1.622   3.724  0.7309  0.2542  1.1767
   86SLPC  H11R 8246   1.497   1.691   3.696  0.9278 -0.1692  0.6625
   86SLPC  H11S 8247   1.418   1.531   3.660 -2.4468 -1.0325  2.6590
   86SLPC  C212 8248   1.417   1.565   3.864  0.3866 -0.1928 -0.2447
   86SLPC  H12R 8249   1.325   1.517   3.901  2.3534 -3.5068  0.7743
   86SLPC  C213 8250   1.531   1.544   3.933  0.2268 -0.5034 -0.0130
   86SLPC  H13R 8251   1.527   1.502   4.035 -0.1229  2.4083  1.2772
   86SLPC  C214 8252   1.669   1.586   3.887 -0.8277  0.4120 -0.7282
   86SLPC  H14R 8253   1.703   1.674   3.946  2.5879 -1.0324 -0.2862
   86SLPC  H14S 8254   1.676   1.602   3.778  0.8709  0.5148 -0.6380
   86SLPC  C215 8255   1.773   1.472   3.906 -0.0741 -0.6503 -0.0681
   86SLPC  H15R 8256   1.866   1.509   3.859 -0.0142 -1.8258 -0.9364
   86SLPC  H15S 8257   1.739   1.393   3.836 -0.6833 -1.9349  1.5875
   86SLPC  C216 8258   1.810   1.416   4.040 -0.0999  0.3137  0.1613
   86SLPC  H16R 8259   1.735   1.342   4.075  2.0993 -1.4225  1.4943
   86SLPC  H16S 8260   1.813   1.499   4.114  2.0453 -0.0353  0.5276
   86SLPC  C217 8261   1.952   1.345   4.035  0.1397 -0.4663 -0.4022
   86SLPC  H17R 8262   1.993   1.292   4.123  0.4443  0.0520 -0.2284
   86SLPC  H17S 8263   2.025   1.426   4.013 -1.0953  0.9711  0.5668
   86SLPC  C218 8264   1.947   1.234   3.925  0.2065  0.2305  0.6461
   86SLPC  H18R 8265   2.055   1.208   3.915  0.3158  1.5685 -3.2784
   86SLPC  H18S 8266   1.918   1.273   3.826 -0.8576 -0.6008  0.6056
   86SLPC  H18T 8267   1.878   1.151   3.954  0.4360  0.0846  0.7769
   86SLPC   C33 8268   1.125   2.044   3.151  0.3307 -0.4588 -0.1594
   86SLPC   H3X 8269   1.157   2.149   3.132 -0.6240 -0.3590 -1.2994
   86SLPC   H3Y 8270   1.215   1.979   3.163  1.2604  0.9800  1.2149
   86SLPC   C34 8271   1.031   2.032   3.272  0.3102  0.1705  0.4835
   86SLPC   H4X 8272   0.966   1.942   3.263 -2.1561  1.8705  0.3204
   86SLPC   H4Y 8273   0.960   2.117   3.259  2.1441  1.5189 -1.5028
   86SLPC   C35 8274   1.110   2.037   3.409  0.1440 -0.0320  0.7008
   86SLPC   H5X 8275   1.217   2.054   3.386 -0.0475  2.2859  1.1996
   86SLPC   H5Y 8276   1.101   1.940   3.462  0.4038 -0.1735  0.4888
   86SLPC   C36 8277   1.058   2.142   3.516  0.0261  0.6307  0.9184
   86SLPC   H6X 8278   0.947   2.154   3.511  0.1383  1.3816 -0.1950
   86SLPC   H6Y 8279   1.116   2.236   3.512  3.5119 -1.4108 -0.3477
   86SLPC   C37 8280   1.090   2.093   3.652  0.3002 -0.0835 -0.5946
   86SLPC   H7X 8281   1.201   2.094   3.658  0.2194 -0.4318  2.4687
   86SLPC   H7Y 8282   1.056   1.988   3.662 -1.3678  0.2864 -1.8001
   86SLPC   C38 8283   1.027   2.174   3.768 -0.2477 -0.0186 -0.3903
   86SLPC   H8X 8284   0.918   2.156   3.760 -0.4530  1.0489 -0.1385
   86SLPC   H8Y 8285   1.057   2.278   3.743 -1.1690  0.2143 -0.5585
   86SLPC   C39 8286   1.084   2.142   3.912  0.4536 -0.4217  0.0056
   86SLPC   H9X 8287   1.020   2.192   3.987  1.7264 -1.7045  2.0509
   86SLPC   H9Y 8288   1.182   2.190   3.935  1.2640 -1.5505 -0.9392
   86SLPC  C310 8289   1.069   1.989   3.949  0.1304 -0.2345 -0.4323
   86SLPC  H10X 8290   1.145   1.926   3.898  0.1768 -0.0631 -0.5784
   86SLPC  H10Y 8291   0.967   1.960   3.915 -0.7956  0.1008  1.9162
   86SLPC  C311 8292   1.101   1.961   4.094 -0.0308 -0.1334 -0.5392
   86SLPC  H11X 8293   1.087   1.853   4.115 -0.6751 -0.1416 -0.9898
   86SLPC  H11Y 8294   1.046   2.017   4.172  4.3439  1.6917  1.5413
   86SLPC  C312 8295   1.247   1.993   4.143  1.1536  0.3958  0.0312
   86SLPC  H12X 8296   1.257   2.103   4.157  2.0546  0.6722 -2.3383
   86SLPC  H12Y 8297   1.312   1.966   4.057 -0.0257 -0.3413 -0.6448
   86SLPC  C313 8298   1.281   1.924   4.278 -0.9935 -0.3213  0.2173
   86SLPC  H13X 8299   1.276   1.816   4.255 -0.7205 -0.6241  1.5297
   86SLPC  H13Y 8300   1.199   1.947   4.349 -0.4002 -0.6301  1.0225
   86SLPC  C314 8301   1.410   1.977   4.336  0.5608 -0.2312 -0.0995
   86SLPC  H14X 8302   1.410   2.088   4.330  0.6469 -0.2267 -0.0093
   86SLPC  H14Y 8303   1.494   1.949   4.269  2.4446  0.7516  1.7854
   86SLPC  C315 8304   1.434   1.929   4.487 -0.1408  0.0472  0.2222
   86SLPC  H15X 8305   1.474   1.826   4.475  2.0741  1.0246 -1.6329
   86SLPC  H15Y 8306   1.340   1.930   4.545 -0.5269  1.2040 -0.3917
   86SLPC  C316 8307   1.544   2.004   4.562 -0.9134 -0.2289 -0.0444
   86SLPC  H16X 8308   1.640   1.973   4.516 -1.1938  0.8457 -1.4341
   86SLPC  H16Y 8309   1.545   1.968   4.667  1.2432 -0.1911 -0.0119
   86SLPC  C317 8310   1.535   2.153   4.553 -1.1037  0.5224  0.1695
   86SLPC  H17X 8311   1.433   2.189   4.576 -0.9738  0.7020  0.4701
   86SLPC  H17Y 8312   1.579   2.176   4.454 -2.6519 -0.9160 -0.9157
   86SLPC  C318 8313   1.616   2.225   4.662  0.0878 -0.6811  0.7714
   86SLPC  H18X 8314   1.604   2.333   4.641  2.9769 -0.3252  0.5782
   86SLPC  H18Y 8315   1.722   2.193   4.658  1.1914  2.7286 -0.7235
   86SLPC  H18Z 8316   1.580   2.205   4.765 -0.0188  4.1824  1.9353
   87SLPC     N 8317   5.969   0.694   1.682 -0.0947 -0.1685 -0.3917
   87SLPC   C13 8318   5.942   0.819   1.602  0.4733  0.6844  0.2604
   87SLPC  H13A 8319   6.017   0.837   1.526  2.5143 -2.8142  1.2000
   87SLPC  H13B 8320   5.841   0.815   1.564  1.0940 -2.5331 -1.5122
   87SLPC  H13C 8321   5.952   0.900   1.672  0.0325 -1.0366  2.4182
   87SLPC   C14 8322   6.113   0.712   1.728  0.3636 -0.2502 -0.2785
   87SLPC  H14A 8323   6.122   0.811   1.771 -0.0434 -1.1223  1.9899
   87SLPC  H14B 8324   6.144   0.640   1.802 -1.1913 -0.0357  0.6352
   87SLPC  H14C 8325   6.174   0.694   1.641 -1.9575  0.7253 -2.2196
   87SLPC   C15 8326   5.966   0.579   1.594  0.0935  0.3987 -0.0124
   87SLPC  H15A 8327   6.023   0.587   1.503  0.0170 -0.3301 -0.1254
   87SLPC  H15B 8328   5.998   0.487   1.641 -0.1187  0.6779  0.6951
   87SLPC  H15C 8329   5.866   0.562   1.557  0.1625 -1.9199  0.7193
   87SLPC   C12 8330   5.864   0.691   1.790 -0.2376  0.4686  0.3407
   87SLPC  H12A 8331   5.889   0.611   1.858 -1.3420 -0.7232 -0.6132
   87SLPC  H12B 8332   5.769   0.670   1.743  1.3191 -1.9951 -1.9752
   87SLPC   C11 8333   5.867   0.816   1.876  0.2307  0.5804  0.1914
   87SLPC  H11A 8334   5.849   0.910   1.820 -0.0004 -0.1985 -1.0846
   87SLPC  H11B 8335   5.956   0.837   1.939  1.4861  0.0854 -1.3350
   87SLPC     P 8336   5.631   0.830   1.969  0.1057  0.1345 -0.4594
   87SLPC   O13 8337   5.619   0.974   1.954  0.4897 -0.5672 -0.0941
   87SLPC   O14 8338   5.569   0.735   1.870  0.5924 -0.2267 -0.2371
   87SLPC   O12 8339   5.775   0.790   1.982  0.6324  0.6340  0.2013
   87SLPC   O11 8340   5.579   0.794   2.123  0.4461  0.7002  0.4828
   87SLPC    C1 8341   5.580   0.659   2.154 -0.1481  0.1758 -0.6486
   87SLPC    HA 8342   5.502   0.597   2.104  0.3623  0.5327 -1.9202
   87SLPC    HB 8343   5.680   0.615   2.138  0.0213  0.0762  0.5670
   87SLPC    C2 8344   5.563   0.628   2.306 -0.2393  0.3210 -0.1230
   87SLPC    HS 8345   5.455   0.616   2.329  0.4498  1.2076  4.4826
   87SLPC   O21 8346   5.636   0.721   2.390  0.5151 -0.5015 -0.3651
   87SLPC   C21 8347   5.567   0.795   2.481 -0.4258 -0.1145  0.1619
   87SLPC   O22 8348   5.442   0.785   2.490  0.4269  0.7749  0.3722
   87SLPC   C22 8349   5.657   0.878   2.572 -0.1544  0.5492 -0.0564
   87SLPC   H2R 8350   5.751   0.892   2.515  0.8345  1.2627  1.7002
   87SLPC   H2S 8351   5.610   0.978   2.583  1.3273  1.1870  0.6513
   87SLPC    C3 8352   5.615   0.485   2.345  0.0982  0.2099 -0.7041
   87SLPC    HX 8353   5.720   0.469   2.312  0.5836  1.1662  0.3029
   87SLPC    HY 8354   5.558   0.422   2.273  1.0762 -1.9812  0.3264
   87SLPC   O31 8355   5.605   0.452   2.489  0.5602  0.4163  0.3219
   87SLPC   C31 8356   5.512   0.369   2.525 -0.0911  0.2348  0.8212
   87SLPC   O32 8357   5.431   0.306   2.458  0.2985 -0.7621 -0.0698
   87SLPC   C32 8358   5.500   0.380   2.677  0.5427  0.4059  0.1479
   87SLPC   H2X 8359   5.513   0.487   2.704  1.5156  0.6449 -1.1137
   87SLPC   H2Y 8360   5.587   0.326   2.721  0.8428  1.8830  1.4435
   87SLPC   C23 8361   5.690   0.794   2.702  0.4250 -0.5134 -0.3205
   87SLPC   H3R 8362   5.797   0.818   2.720  0.1151 -0.6321  2.0848
   87SLPC   H3S 8363   5.676   0.685   2.686 -0.5294 -0.3984 -0.3421
   87SLPC   C24 8364   5.613   0.837   2.834 -0.4113  0.4504 -0.3306
   87SLPC   H4R 8365   5.638   0.942   2.860  0.2254 -0.1726  1.7707
   87SLPC   H4S 8366   5.654   0.782   2.921  0.5638  2.4459  0.5282
   87SLPC   C25 8367   5.462   0.824   2.814 -0.2876  0.4448  0.0452
   87SLPC   H5R 8368   5.435   0.729   2.763 -0.2265  0.4618 -0.0207
   87SLPC   H5S 8369   5.422   0.899   2.742 -0.0059  1.0291  0.4897
   87SLPC   C26 8370   5.373   0.842   2.941 -0.2543  0.0627  0.2510
   87SLPC   H6R 8371   5.396   0.771   3.023 -1.2561 -0.3635  0.1850
   87SLPC   H6S 8372   5.267   0.825   2.913 -0.2516  0.5980 -0.0970
   87SLPC   C27 8373   5.381   0.985   2.998  0.2820  0.0388  1.2854
   87SLPC   H7R 8374   5.363   1.059   2.917  1.7525 -0.1307  0.7740
   87SLPC   H7S 8375   5.489   1.002   3.018  0.3382 -0.4069  1.3604
   87SLPC   C28 8376   5.288   1.016   3.111  0.3512  0.3009 -0.5281
   87SLPC   H8R 8377   5.185   0.989   3.077  0.0219 -1.2498  1.4923
   87SLPC   H8S 8378   5.283   1.124   3.136 -2.6184  0.0581  0.3215
   87SLPC   C29 8379   5.324   0.934   3.233  0.4751  0.3006 -0.3605
   87SLPC   H9R 8380   5.419   0.881   3.218  0.7257  0.6587 -0.0773
   87SLPC  C210 8381   5.257   0.924   3.351 -0.4656 -0.5821 -0.4164
   87SLPC  H10R 8382   5.285   0.844   3.422  2.0063  1.4451  1.0650
   87SLPC  C211 8383   5.137   1.004   3.382  0.3056 -0.1027 -0.4386
   87SLPC  H11R 8384   5.042   0.958   3.348  1.0782 -1.6150 -0.6136
   87SLPC  H11S 8385   5.147   1.099   3.324  1.3539 -0.8406 -1.5184
   87SLPC  C212 8386   5.131   1.050   3.527  0.6551  0.9752 -0.1962
   87SLPC  H12R 8387   5.087   0.967   3.584  0.4758 -0.4752 -2.3088
   87SLPC  C213 8388   5.167   1.167   3.584  0.3159  0.4495 -0.0417
   87SLPC  H13R 8389   5.151   1.185   3.691  2.2847  0.0408  0.3545
   87SLPC  C214 8390   5.221   1.280   3.504 -0.0510  0.1807 -0.6821
   87SLPC  H14R 8391   5.295   1.239   3.432 -0.6770  0.1689 -1.3263
   87SLPC  H14S 8392   5.283   1.355   3.558  0.0447 -0.6648  0.4059
   87SLPC  C215 8393   5.115   1.356   3.429  0.6475 -0.1946  0.0634
   87SLPC  H15R 8394   5.054   1.421   3.496  0.8020 -0.1921  0.2032
   87SLPC  H15S 8395   5.034   1.288   3.395 -2.6687  1.5758  3.6130
   87SLPC  C216 8396   5.175   1.442   3.312 -0.0227  0.3253 -0.1162
   87SLPC  H16R 8397   5.272   1.392   3.288 -0.5487 -0.7980  0.0296
   87SLPC  H16S 8398   5.193   1.542   3.358  0.7597 -0.9308  2.4942
   87SLPC  C217 8399   5.082   1.448   3.188  0.4879 -0.0654 -0.2716
   87SLPC  H17R 8400   5.055   1.345   3.156 -3.5258  0.5589  0.5619
   87SLPC  H17S 8401   5.157   1.500   3.123  0.4501  0.3609  0.0214
   87SLPC  C218 8402   4.951   1.519   3.215  0.3251 -0.2907 -0.0156
   87SLPC  H18R 8403   4.965   1.620   3.258  0.9049  0.4421 -1.8251
   87SLPC  H18S 8404   4.901   1.458   3.293  1.3236  0.1023  0.9621
   87SLPC  H18T 8405   4.878   1.521   3.132 -1.9570  1.0259  1.8866
   87SLPC   C33 8406   5.361   0.329   2.733 -0.1670 -0.2386  0.4586
   87SLPC   H3X 8407   5.362   0.219   2.715  0.3333  0.0506 -1.5030
   87SLPC   H3Y 8408   5.279   0.365   2.667 -1.2909 -1.0036  1.4027
   87SLPC   C34 8409   5.353   0.375   2.874 -0.1140  0.6132 -0.2556
   87SLPC   H4X 8410   5.246   0.368   2.903  0.3486  0.2420  1.4634
   87SLPC   H4Y 8411   5.396   0.475   2.891  3.1274 -0.7419  0.2118
   87SLPC   C35 8412   5.439   0.285   2.971 -0.0621 -0.5921  0.0414
   87SLPC   H5X 8413   5.545   0.284   2.939  0.1998  0.3274  0.8409
   87SLPC   H5Y 8414   5.411   0.179   2.951  1.8076 -0.9058 -1.1386
   87SLPC   C36 8415   5.423   0.329   3.117  0.4978 -0.1309  0.1166
   87SLPC   H6X 8416   5.466   0.245   3.177  1.5703  0.4834  0.2295
   87SLPC   H6Y 8417   5.316   0.351   3.139  0.3111 -0.2172 -0.6940
   87SLPC   C37 8418   5.491   0.463   3.146  0.0117 -0.4828  0.3600
   87SLPC   H7X 8419   5.454   0.538   3.073  0.7316 -2.2812 -1.9632
   87SLPC   H7Y 8420   5.600   0.456   3.125  0.2976  1.8466  0.7021
   87SLPC   C38 8421   5.480   0.494   3.298 -0.5884 -1.1765  0.3056
   87SLPC   H8X 8422   5.437   0.409   3.356 -4.7309 -1.3083 -2.5863
   87SLPC   H8Y 8423   5.408   0.578   3.309  0.7867  0.1042 -0.1547
   87SLPC   C39 8424   5.607   0.568   3.336  0.3834 -0.1262 -0.0095
   87SLPC   H9X 8425   5.653   0.621   3.249  0.3774  1.7431  1.0733
   87SLPC   H9Y 8426   5.676   0.491   3.376  0.0465 -0.0295  0.7748
   87SLPC  C310 8427   5.590   0.676   3.445  0.1671  0.3451 -0.1428
   87SLPC  H10X 8428   5.531   0.763   3.408  0.5301  0.0821 -1.3914
   87SLPC  H10Y 8429   5.694   0.709   3.468  0.5339 -0.8626 -0.0050
   87SLPC  C311 8430   5.530   0.623   3.577  0.3635 -0.0681 -0.4396
   87SLPC  H11X 8431   5.594   0.543   3.623 -0.4560 -0.0683  0.7536
   87SLPC  H11Y 8432   5.428   0.581   3.570  0.4061 -0.3785  0.6009
   87SLPC  C312 8433   5.534   0.724   3.685  0.1696 -0.5735 -0.0825
   87SLPC  H12X 8434   5.490   0.822   3.659 -0.7149 -1.1613 -0.8908
   87SLPC  H12Y 8435   5.642   0.738   3.709  0.1272 -0.9879  0.3778
   87SLPC  C313 8436   5.466   0.662   3.805  0.1321 -0.1763 -0.1866
   87SLPC  H13X 8437   5.524   0.570   3.826  0.7185 -0.2394 -1.9150
   87SLPC  H13Y 8438   5.367   0.623   3.774  1.2404 -2.2991 -1.2713
   87SLPC  C314 8439   5.457   0.746   3.935  0.0718 -0.3420  0.8271
   87SLPC  H14X 8440   5.536   0.824   3.940 -0.6760  0.3752  1.9939
   87SLPC  H14Y 8441   5.467   0.678   4.022  0.6890 -0.1496  0.9084
   87SLPC  C315 8442   5.310   0.797   3.949 -0.0151  0.5935 -0.1047
   87SLPC  H15X 8443   5.244   0.709   3.964  0.4037  0.0482 -1.4044
   87SLPC  H15Y 8444   5.271   0.851   3.860 -1.1434  1.1098  0.6607
   87SLPC  C316 8445   5.301   0.897   4.062  0.7153 -0.1417 -0.2819
   87SLPC  H16X 8446   5.342   0.848   4.152 -0.4722 -2.2959 -0.8409
   87SLPC  H16Y 8447   5.192   0.922   4.066  0.6248 -0.5870  0.0629
   87SLPC  C317 8448   5.372   1.032   4.036 -0.3211 -0.0744  0.8265
   87SLPC  H17X 8449   5.350   1.058   3.931 -2.0348  0.6024  1.3218
   87SLPC  H17Y 8450   5.481   1.014   4.037 -0.2536  0.2880  0.1419
   87SLPC  C318 8451   5.327   1.135   4.138 -0.2926 -0.0905  0.5988
   87SLPC  H18X 8452   5.381   1.123   4.234 -0.5474  1.2489  0.9282
   87SLPC  H18Y 8453   5.218   1.140   4.159 -0.6632  3.3374 -1.3885
   87SLPC  H18Z 8454   5.344   1.236   4.094 -0.4945 -0.9872 -1.6663
   88SLPC     N 8455   2.306   1.241   1.404 -0.5730  0.9318 -0.0554
   88SLPC   C13 8456   2.320   1.111   1.479 -0.8174  0.1060 -0.3668
   88SLPC  H13A 8457   2.417   1.119   1.525  0.5876  0.6330 -3.2086
   88SLPC  H13B 8458   2.239   1.089   1.548  0.1307  0.4542  0.9015
   88SLPC  H13C 8459   2.330   1.027   1.412 -1.6857 -1.1036  0.9492
   88SLPC   C14 8460   2.198   1.215   1.298  1.0193  0.1726  0.5067
   88SLPC  H14A 8461   2.182   1.302   1.237  0.9373  0.0018  0.2834
   88SLPC  H14B 8462   2.228   1.132   1.235  0.2631 -0.8191  1.4101
   88SLPC  H14C 8463   2.110   1.173   1.345  1.0888  0.7273  1.1554
   88SLPC   C15 8464   2.436   1.275   1.339  0.5857  0.0635  0.7514
   88SLPC  H15A 8465   2.511   1.269   1.416 -1.5188 -0.2832  2.8840
   88SLPC  H15B 8466   2.472   1.207   1.263  0.9021  1.1002 -0.0442
   88SLPC  H15C 8467   2.447   1.375   1.299  2.5620 -1.2979 -2.4599
   88SLPC   C12 8468   2.277   1.358   1.499  0.5435 -0.4968  0.7841
   88SLPC  H12A 8469   2.199   1.320   1.564  0.0590 -0.4312  0.2484
   88SLPC  H12B 8470   2.246   1.433   1.427  2.3334 -0.0769  0.4156
   88SLPC   C11 8471   2.381   1.428   1.587  0.3962  0.0121  0.2498
   88SLPC  H11A 8472   2.327   1.516   1.629 -0.1767 -1.4451  2.8230
   88SLPC  H11B 8473   2.459   1.473   1.522 -0.3448 -0.1336 -0.7619
   88SLPC     P 8474   2.373   1.284   1.798 -0.2642  0.1939 -0.2546
   88SLPC   O13 8475   2.237   1.338   1.803 -0.5102  0.0039  0.4571
   88SLPC   O14 8476   2.386   1.140   1.799 -0.0826  0.7330 -0.2530
   88SLPC   O12 8477   2.451   1.347   1.678  0.1037  0.3587  0.3022
   88SLPC   O11 8478   2.465   1.352   1.909 -0.1836 -0.5181 -0.0467
   88SLPC    C1 8479   2.439   1.484   1.958 -0.0243 -0.7597 -0.2739
   88SLPC    HA 8480   2.516   1.559   1.931 -0.5862 -0.0683  0.0259
   88SLPC    HB 8481   2.343   1.525   1.919  0.1894  0.2099  0.2026
   88SLPC    C2 8482   2.407   1.481   2.112 -0.2418  0.3188 -0.3412
   88SLPC    HS 8483   2.381   1.585   2.141 -0.2484 -0.3999  2.5661
   88SLPC   O21 8484   2.518   1.436   2.193 -0.4547  0.4583 -0.1792
   88SLPC   C21 8485   2.610   1.530   2.211 -0.4393  0.0761  0.6494
   88SLPC   O22 8486   2.606   1.642   2.160 -0.1755 -0.6506 -0.2160
   88SLPC   C22 8487   2.721   1.465   2.283  0.3235  0.3940  0.5853
   88SLPC   H2R 8488   2.682   1.378   2.341 -0.2818 -0.2514 -0.7179
   88SLPC   H2S 8489   2.796   1.421   2.214 -1.1889 -1.6552  0.1366
   88SLPC    C3 8490   2.274   1.396   2.143 -0.2740 -0.3266  0.1347
   88SLPC    HX 8491   2.300   1.294   2.106  0.4393 -0.5379  1.1842
   88SLPC    HY 8492   2.204   1.436   2.067  0.2094 -0.1611 -0.2324
   88SLPC   O31 8493   2.229   1.409   2.280  0.3852 -0.1114 -0.3070
   88SLPC   C31 8494   2.103   1.361   2.280 -0.5279  0.0442 -0.6989
   88SLPC   O32 8495   2.042   1.322   2.187  0.3084  0.1320  0.3404
   88SLPC   C32 8496   2.054   1.360   2.425 -0.8972  0.1285  0.1323
   88SLPC   H2X 8497   2.079   1.263   2.471 -0.1924  0.5206  0.5910
   88SLPC   H2Y 8498   1.944   1.373   2.425 -1.3017 -2.6716 -0.8601
   88SLPC   C23 8499   2.792   1.558   2.382  0.5677 -0.1647  0.7293
   88SLPC   H3R 8500   2.860   1.625   2.324  1.1711  0.7666  2.4460
   88SLPC   H3S 8501   2.861   1.497   2.444 -0.2852 -1.4321  0.4611
   88SLPC   C24 8502   2.697   1.636   2.476 -0.2738 -0.0368 -0.0148
   88SLPC   H4R 8503   2.615   1.693   2.425 -0.3235 -0.0229  0.0810
   88SLPC   H4S 8504   2.756   1.718   2.522  0.4721 -0.8187  0.4346
   88SLPC   C25 8505   2.630   1.555   2.589 -0.6377 -0.1278  0.3280
   88SLPC   H5R 8506   2.710   1.524   2.659 -0.7651  0.1829  0.6158
   88SLPC   H5S 8507   2.604   1.457   2.544 -1.1822 -0.6141  1.6650
   88SLPC   C26 8508   2.514   1.628   2.658  0.6618  0.2452 -0.1599
   88SLPC   H6R 8509   2.439   1.676   2.591 -0.8364  0.4696  1.5836
   88SLPC   H6S 8510   2.571   1.696   2.725  0.6098  0.1543 -0.0229
   88SLPC   C27 8511   2.441   1.531   2.750 -0.3245  0.4233  0.1328
   88SLPC   H7R 8512   2.521   1.464   2.788 -0.6087 -0.6372 -1.1011
   88SLPC   H7S 8513   2.361   1.486   2.688  0.4780  1.5379 -1.7964
   88SLPC   C28 8514   2.374   1.592   2.874 -0.2011  0.0019  0.1443
   88SLPC   H8R 8515   2.462   1.635   2.927 -0.6137 -2.0390  2.6720
   88SLPC   H8S 8516   2.329   1.519   2.945 -1.0833  1.6485  1.3628
   88SLPC   C29 8517   2.268   1.686   2.837 -0.4708 -0.8971  0.2587
   88SLPC   H9R 8518   2.237   1.690   2.731 -0.5679  2.7336  0.2936
   88SLPC  C210 8519   2.191   1.762   2.923 -0.0017  0.2727 -0.0793
   88SLPC  H10R 8520   2.101   1.814   2.884  0.9235  0.6183 -1.8711
   88SLPC  C211 8521   2.219   1.761   3.071  0.5142 -0.1070  0.3130
   88SLPC  H11R 8522   2.314   1.713   3.101  0.4495  0.7164  1.9504
   88SLPC  H11S 8523   2.141   1.702   3.123  0.5771  1.6437  2.5498
   88SLPC  C212 8524   2.216   1.905   3.120  0.1531  0.2010 -0.3916
   88SLPC  H12R 8525   2.246   1.991   3.057  0.3376 -1.4986 -2.7522
   88SLPC  C213 8526   2.172   1.937   3.245  0.4512  0.2783 -0.2071
   88SLPC  H13R 8527   2.172   2.043   3.274 -1.0376  0.2203  0.0747
   88SLPC  C214 8528   2.128   1.832   3.345  0.5229 -0.7619 -0.2688
   88SLPC  H14R 8529   2.199   1.747   3.350  1.0524 -0.2660  2.5228
   88SLPC  H14S 8530   2.035   1.779   3.314  0.1676  0.3799 -1.2336
   88SLPC  C215 8531   2.107   1.894   3.483 -0.3931  0.6778  0.0594
   88SLPC  H15R 8532   2.022   1.967   3.483  0.3552  1.9759 -5.3133
   88SLPC  H15S 8533   2.200   1.951   3.506  0.7291 -1.7781  2.0446
   88SLPC  C216 8534   2.081   1.782   3.593 -0.4722  0.7381 -0.2858
   88SLPC  H16R 8535   2.145   1.691   3.590  0.3608  1.3412 -1.2001
   88SLPC  H16S 8536   1.976   1.747   3.583 -0.3833 -0.1122  1.4238
   88SLPC  C217 8537   2.110   1.836   3.736  0.6006  0.2118 -0.2766
   88SLPC  H17R 8538   2.191   1.911   3.735  1.0945 -0.3203 -1.2581
   88SLPC  H17S 8539   2.146   1.750   3.795  1.4186  1.1142  0.5680
   88SLPC  C218 8540   1.997   1.896   3.816  0.3419 -0.2584  0.1732
   88SLPC  H18R 8541   1.948   1.973   3.752  0.1089 -0.6133 -0.0818
   88SLPC  H18S 8542   2.037   1.942   3.909 -1.4695 -0.2597  1.0017
   88SLPC  H18T 8543   1.918   1.822   3.840  0.1031 -0.7861 -2.0028
   88SLPC   C33 8544   2.103   1.483   2.505 -0.0032 -0.1328 -0.5527
   88SLPC   H3X 8545   2.128   1.574   2.446 -0.7175  0.8734  0.6425
   88SLPC   H3Y 8546   2.199   1.447   2.549 -0.5258 -0.3779  0.4156
   88SLPC   C34 8547   2.012   1.513   2.621 -0.1176 -0.6869  0.0424
   88SLPC   H4X 8548   1.910   1.544   2.591 -1.0173 -2.3263  1.2838
   88SLPC   H4Y 8549   2.060   1.600   2.672  0.0015 -2.0672  2.4124
   88SLPC   C35 8550   1.997   1.397   2.725 -0.9211  0.6079  0.2731
   88SLPC   H5X 8551   2.092   1.340   2.721  0.9038  3.4837 -0.6106
   88SLPC   H5Y 8552   1.923   1.320   2.694  1.8284 -2.0242 -0.1671
   88SLPC   C36 8553   1.991   1.447   2.867 -0.7750  0.0450  0.0881
   88SLPC   H6X 8554   1.898   1.508   2.876  0.8403  2.8949 -1.1438
   88SLPC   H6Y 8555   2.070   1.519   2.897  0.5503 -2.5877  3.4892
   88SLPC   C37 8556   2.008   1.339   2.977  0.1174 -0.0288  0.3007
   88SLPC   H7X 8557   1.918   1.275   2.979  0.5174 -0.5921  0.3671
   88SLPC   H7Y 8558   2.021   1.399   3.070 -1.0726  1.4645 -0.4464
   88SLPC   C38 8559   2.136   1.257   2.968 -0.5379 -0.0917 -0.6556
   88SLPC   H8X 8560   2.208   1.339   2.948  0.9527 -1.8969 -3.1953
   88SLPC   H8Y 8561   2.126   1.182   2.887  1.9905 -0.7993 -0.4087
   88SLPC   C39 8562   2.176   1.192   3.102 -0.1291  0.8137 -0.1887
   88SLPC   H9X 8563   2.119   1.097   3.115 -0.5830  0.9482 -1.1225
   88SLPC   H9Y 8564   2.155   1.237   3.202  1.8583 -2.2268  1.7740
   88SLPC  C310 8565   2.329   1.159   3.108  0.6413  0.6842 -0.4512
   88SLPC  H10X 8566   2.377   1.260   3.108  0.7049  0.6809  1.6682
   88SLPC  H10Y 8567   2.350   1.099   3.017 -1.8256 -2.0130  0.5967
   88SLPC  C311 8568   2.361   1.096   3.241  0.1998 -0.9619 -0.0839
   88SLPC  H11X 8569   2.301   1.004   3.256  1.0991 -2.0112 -2.5255
   88SLPC  H11Y 8570   2.355   1.169   3.325  0.7544 -1.9650  0.8429
   88SLPC  C312 8571   2.508   1.061   3.243  0.0709  0.6154 -0.5366
   88SLPC  H12X 8572   2.573   1.133   3.189  1.3113  0.3709  0.5804
   88SLPC  H12Y 8573   2.526   0.963   3.194  3.6513  0.3327  1.0891
   88SLPC  C313 8574   2.567   1.054   3.386  0.0462 -0.0244  0.6148
   88SLPC  H13X 8575   2.519   0.978   3.452 -0.2915  0.9433  1.5070
   88SLPC  H13Y 8576   2.547   1.153   3.431  1.3573  0.6856 -0.3065
   88SLPC  C314 8577   2.716   1.034   3.383  0.0160 -0.1090 -0.0845
   88SLPC  H14X 8578   2.758   1.107   3.309 -1.1494  0.3427 -0.3218
   88SLPC  H14Y 8579   2.744   0.942   3.327 -0.3866  0.9936 -2.2316
   88SLPC  C315 8580   2.783   1.037   3.521 -0.3151  0.1803  0.1964
   88SLPC  H15X 8581   2.740   0.955   3.582  2.1064 -0.5185  1.0631
   88SLPC  H15Y 8582   2.768   1.132   3.577 -2.0435  2.1960 -3.3622
   88SLPC  C316 8583   2.935   1.014   3.519 -0.3653  0.9126 -0.2433
   88SLPC  H16X 8584   2.984   1.095   3.460  1.6805  2.7006  3.4952
   88SLPC  H16Y 8585   2.959   0.919   3.467 -0.0027  1.6759 -1.5102
   88SLPC  C317 8586   2.995   1.048   3.656 -0.5476  0.8643 -0.6336
   88SLPC  H17X 8587   2.994   1.153   3.692  0.0168  0.3199  1.1069
   88SLPC  H17Y 8588   3.102   1.017   3.646 -0.1787  0.9029  2.2090
   88SLPC  C318 8589   2.937   0.966   3.768  0.4966 -0.6780  0.7537
   88SLPC  H18X 8590   2.999   0.970   3.860  1.2330 -2.8807  0.4132
   88SLPC  H18Y 8591   2.912   0.860   3.744  1.0861  0.1439 -4.8386
   88SLPC  H18Z 8592   2.840   1.006   3.805  0.2605 -0.9556  0.4393
   89SAPE     N 8593   5.253   0.065   7.134 -0.3177 -0.0730 -0.3029
   89SAPE   HN1 8594   5.242   0.126   7.050 -2.0767  1.7587  1.1601
   89SAPE   HN2 8595   5.216   0.113   7.218  1.7012 -0.1704  0.7078
   89SAPE   HN3 8596   5.356   0.058   7.150 -0.0961  0.4367 -1.3750
   89SAPE   C12 8597   5.203  -0.074   7.098 -0.7930 -0.0810  0.4346
   89SAPE  H12A 8598   5.094  -0.078   7.119 -0.8044 -0.1149  0.3662
   89SAPE  H12B 8599   5.250  -0.147   7.168  0.7320 -0.3422 -0.8213
   89SAPE   C11 8600   5.249  -0.107   6.956  0.1647  0.7783  0.3752
   89SAPE  H11A 8601   5.235  -0.215   6.933  1.0039  0.1733  2.4927
   89SAPE  H11B 8602   5.357  -0.084   6.945 -0.4324  3.4029 -0.7503
   89SAPE     P 8603   5.204   0.099   6.797 -0.1435  0.5508  0.1125
   89SAPE   O13 8604   5.082   0.149   6.736  0.7011 -0.0970  0.0298
   89SAPE   O14 8605   5.267   0.180   6.901  0.2273  0.0134 -0.1917
   89SAPE   O12 8606   5.163  -0.035   6.866 -0.2926 -0.0613  0.5231
   89SAPE   O11 8607   5.309   0.053   6.689  0.3858  0.0976 -0.2476
   89SAPE    C1 8608   5.313  -0.086   6.642 -0.1251 -0.4443  0.1652
   89SAPE    HA 8609   5.368  -0.140   6.722 -1.1322 -1.6488  0.0852
   89SAPE    HB 8610   5.212  -0.130   6.630 -0.0989 -0.3272 -0.5076
   89SAPE    C2 8611   5.381  -0.072   6.501  0.1198 -0.5023 -0.0025
   89SAPE    HS 8612   5.476  -0.014   6.502  1.0121 -1.8996 -0.6766
   89SAPE   O21 8613   5.276  -0.007   6.425  0.0927  0.1010  0.4775
   89SAPE   C21 8614   5.321   0.065   6.317 -0.3889  0.5384 -0.4591
   89SAPE   O22 8615   5.440   0.084   6.294  0.8066 -0.0979  0.0668
   89SAPE   C22 8616   5.198   0.124   6.252 -0.3843 -0.1983 -0.2012
   89SAPE   H2R 8617   5.115   0.051   6.257 -0.0485 -0.5017  2.1548
   89SAPE   H2S 8618   5.174   0.219   6.305 -1.5696  0.2530 -1.4823
   89SAPE    C3 8619   5.398  -0.216   6.448  1.0715  0.1419 -0.1572
   89SAPE    HX 8620   5.304  -0.272   6.467  0.7707  0.6893 -0.0332
   89SAPE    HY 8621   5.467  -0.274   6.513  0.7837  0.1215  0.1254
   89SAPE   O31 8622   5.430  -0.226   6.310  0.4489 -0.5154  0.7261
   89SAPE   C31 8623   5.559  -0.199   6.284 -0.3343 -0.1711  0.1209
   89SAPE   O32 8624   5.645  -0.172   6.368 -0.0007  0.1480  0.6186
   89SAPE   C32 8625   5.563  -0.192   6.131  0.4392  0.2938  0.3740
   89SAPE   H2X 8626   5.458  -0.171   6.102  0.2851 -0.9970 -0.0600
   89SAPE   H2Y 8627   5.593  -0.292   6.094  0.0991  0.1521  0.4795
   89SAPE   C23 8628   5.241   0.186   6.118 -0.0670  0.1374  0.2895
   89SAPE   H3R 8629   5.323   0.260   6.126 -1.0128  1.4209 -1.2640
   89SAPE   H3S 8630   5.151   0.234   6.074  0.4696 -0.4460 -1.5476
   89SAPE   C24 8631   5.284   0.078   6.013 -0.0867  0.5570 -0.2271
   89SAPE   H4R 8632   5.364   0.016   6.058 -0.6802 -0.2915 -0.3061
   89SAPE   H4S 8633   5.331   0.140   5.933 -0.0115  0.5216 -0.2101
   89SAPE   C25 8634   5.183  -0.019   5.955  0.3663 -0.0541  0.5716
   89SAPE   H5R 8635   5.141  -0.094   6.024 -0.1505  0.9043  1.3315
   89SAPE   C26 8636   5.157  -0.026   5.825  0.4802 -0.3024  0.2340
   89SAPE   H6R 8637   5.077  -0.091   5.786  0.7272  0.3673 -1.4629
   89SAPE   C27 8638   5.208   0.068   5.715 -0.0716 -0.7316 -0.8148
   89SAPE   H7R 8639   5.192   0.013   5.620  0.3036  0.9242 -1.8837
   89SAPE   H7S 8640   5.317   0.091   5.722 -0.5957  1.6701  0.7572
   89SAPE   C28 8641   5.131   0.198   5.716  0.2382  0.7191  0.8764
   89SAPE   H8R 8642   5.118   0.252   5.811 -0.3324  1.2852  0.4838
   89SAPE   C29 8643   5.075   0.253   5.612  0.8955 -0.9194  1.0382
   89SAPE   H9R 8644   5.020   0.347   5.619  0.1537 -1.3809  1.6345
   89SAPE  C210 8645   5.071   0.205   5.465  0.0639 -0.0583 -0.1478
   89SAPE  H10R 8646   5.008   0.276   5.407  0.3129 -0.9051 -1.5050
   89SAPE  H10S 8647   5.017   0.108   5.458  1.8302 -0.9968 -1.8371
   89SAPE  C211 8648   5.201   0.196   5.395  0.3174  0.3129  0.4031
   89SAPE  H11R 8649   5.272   0.135   5.453  0.6132  0.8250  0.5839
   89SAPE  C212 8650   5.240   0.247   5.278 -0.5845 -0.0379  0.0303
   89SAPE  H12R 8651   5.346   0.255   5.251 -0.6128  3.8744  0.4677
   89SAPE  C213 8652   5.154   0.331   5.184 -0.7183 -0.3727  0.3145
   89SAPE  H13R 8653   5.226   0.394   5.127 -0.1359 -0.5682  0.8254
   89SAPE  H13S 8654   5.088   0.406   5.233  1.9877  2.5405 -0.1828
   89SAPE  C214 8655   5.063   0.260   5.084 -0.0884 -0.4880 -0.8718
   89SAPE  H14R 8656   4.957   0.282   5.099  0.1459 -0.6705  1.3329
   89SAPE  C215 8657   5.101   0.174   4.989 -0.7418  0.3253  0.4296
   89SAPE  H15R 8658   5.024   0.120   4.933  0.0999  0.1797 -0.6159
   89SAPE  C216 8659   5.242   0.131   4.946 -0.0818  0.5787  0.3098
   89SAPE  H16R 8660   5.232   0.039   4.885  0.8786  1.1543 -0.7622
   89SAPE  H16S 8661   5.311   0.103   5.029  0.0628  1.0810  0.3652
   89SAPE  C217 8662   5.302   0.244   4.856  0.9916  0.1574 -0.0575
   89SAPE  H17R 8663   5.398   0.194   4.831  0.6713 -0.7224  0.4364
   89SAPE  H17S 8664   5.325   0.330   4.922 -2.4125  0.9620  0.2470
   89SAPE  C218 8665   5.230   0.294   4.739  0.2542  0.0257 -0.8327
   89SAPE  H18R 8666   5.132   0.332   4.774  0.4755 -0.0274 -0.1411
   89SAPE  H18S 8667   5.209   0.215   4.665 -0.2779  0.4864 -1.1731
   89SAPE  C219 8668   5.294   0.421   4.674  0.5961  0.0667 -0.0874
   89SAPE  H19R 8669   5.282   0.494   4.756 -1.2746 -0.3318  0.0341
   89SAPE  H19S 8670   5.219   0.447   4.595  3.2479 -1.6598 -3.4639
   89SAPE  C220 8671   5.427   0.403   4.614 -0.2834  0.2575  0.3481
   89SAPE  H20R 8672   5.441   0.300   4.573 -0.2658  0.5728 -0.4423
   89SAPE  H20S 8673   5.508   0.427   4.685  0.9280 -1.3038 -0.4419
   89SAPE  H20T 8674   5.441   0.466   4.524  2.2870 -0.8825 -0.1327
   89SAPE   C33 8675   5.665  -0.096   6.072  0.2981 -0.4162 -0.0031
   89SAPE   H3X 8676   5.770  -0.126   6.092  0.3479  0.0174  0.4097
   89SAPE   H3Y 8677   5.652   0.008   6.108 -0.1712 -0.0269 -1.2238
   89SAPE   C34 8678   5.639  -0.087   5.924  0.0987 -0.7109 -1.2420
   89SAPE   H4X 8679   5.675   0.010   5.884 -2.3618  1.6502  1.7242
   89SAPE   H4Y 8680   5.531  -0.089   5.900  0.1297 -3.0839 -1.4340
   89SAPE   C35 8681   5.708  -0.202   5.837  0.3309 -0.3083  0.1607
   89SAPE   H5X 8682   5.677  -0.306   5.856  0.0690 -0.4153 -0.7877
   89SAPE   H5Y 8683   5.810  -0.215   5.879  0.8541  1.3093 -0.4986
   89SAPE   C36 8684   5.730  -0.171   5.691 -0.7157 -0.2335  0.6857
   89SAPE   H6X 8685   5.822  -0.219   5.653 -0.6731 -0.3518  0.9366
   89SAPE   H6Y 8686   5.730  -0.060   5.687 -2.5508 -0.2259  0.1362
   89SAPE   C37 8687   5.611  -0.221   5.608 -0.5901 -0.4182  0.6856
   89SAPE   H7X 8688   5.515  -0.169   5.631 -2.2093 -1.0951 -3.6130
   89SAPE   H7Y 8689   5.599  -0.327   5.636 -0.3944 -0.4530  0.6414
   89SAPE   C38 8690   5.640  -0.217   5.458  1.0973 -0.1257 -0.3145
   89SAPE   H8X 8691   5.554  -0.271   5.413  1.8004 -1.5110 -0.0491
   89SAPE   H8Y 8692   5.732  -0.273   5.429  1.9097 -0.5190  2.7040
   89SAPE   C39 8693   5.645  -0.078   5.389 -0.2708 -0.1125 -0.9309
   89SAPE   H9X 8694   5.738  -0.028   5.421 -0.8436  0.3206  0.0922
   89SAPE   H9Y 8695   5.557  -0.025   5.432 -1.1157 -2.6176  0.6398
   89SAPE  C310 8696   5.636  -0.079   5.242  0.2046 -0.6991  0.6599
   89SAPE  H10X 8697   5.605   0.020   5.202 -1.7767 -0.5833  2.3235
   89SAPE  H10Y 8698   5.556  -0.153   5.220 -1.5798  0.8584  1.5952
   89SAPE  C311 8699   5.769  -0.131   5.185  0.7958  1.4283 -0.2107
   89SAPE  H11X 8700   5.794  -0.236   5.207  3.3357  2.3761  1.8562
   89SAPE  H11Y 8701   5.850  -0.075   5.237  1.3077 -0.6528  1.3694
   89SAPE  C312 8702   5.783  -0.110   5.032  0.9006  0.5059  0.1605
   89SAPE  H12X 8703   5.867  -0.173   4.995 -0.5126 -0.9355 -0.6648
   89SAPE  H12Y 8704   5.791  -0.002   5.006 -0.7979  0.8499  0.9273
   89SAPE  C313 8705   5.659  -0.164   4.952 -0.1051 -0.0982  0.4549
   89SAPE  H13X 8706   5.569  -0.108   4.984 -0.5510 -0.5455  0.0038
   89SAPE  H13Y 8707   5.635  -0.268   4.984 -1.6798 -0.0503 -0.4975
   89SAPE  C314 8708   5.659  -0.157   4.798  0.4087  0.0656 -0.6620
   89SAPE  H14X 8709   5.556  -0.141   4.759  0.2323  0.3751 -0.0754
   89SAPE  H14Y 8710   5.699  -0.250   4.751  1.0528  0.8030 -1.6174
   89SAPE  C315 8711   5.742  -0.035   4.740 -0.3844 -0.2265 -0.1762
   89SAPE  H15X 8712   5.736   0.057   4.801  4.0952  0.6635 -0.7119
   89SAPE  H15Y 8713   5.706  -0.010   4.638 -1.3919  0.7172  0.3925
   89SAPE  C316 8714   5.893  -0.067   4.729 -0.4295  0.2309  0.0980
   89SAPE  H16X 8715   5.913  -0.176   4.734 -0.2657  0.1532 -1.6079
   89SAPE  H16Y 8716   5.952  -0.020   4.811  1.4537  0.3479 -1.2346
   89SAPE  C317 8717   5.952  -0.021   4.598  0.2341  0.1307 -0.0486
   89SAPE  H17X 8718   5.883  -0.043   4.514 -0.0975  1.2326 -0.0804
   89SAPE  H17Y 8719   6.042  -0.078   4.567 -1.4763 -2.8345  0.0245
   89SAPE  C318 8720   5.971   0.126   4.599 -0.4495 -0.5911  0.1253
   89SAPE  H18X 8721   5.881   0.188   4.622  2.4103  3.0971  2.6943
   89SAPE  H18Y 8722   5.998   0.173   4.502  2.8028  0.5565  1.4388
   89SAPE  H18Z 8723   6.031   0.167   4.683 -1.5742  0.9264  0.2438
   90SAPE     N 8724   0.489   4.638   6.743 -0.0334  0.5554 -0.1018
   90SAPE   HN1 8725   0.512   4.537   6.733  1.1549  0.9915 -2.4634
   90SAPE   HN2 8726   0.426   4.658   6.662 -2.3283 -3.2509  0.5364
   90SAPE   HN3 8727   0.573   4.700   6.744 -0.4288  1.1339  2.4811
   90SAPE   C12 8728   0.421   4.666   6.872 -0.6317 -0.0273 -0.9991
   90SAPE  H12A 8729   0.498   4.646   6.949 -0.7134  0.4968 -0.7736
   90SAPE  H12B 8730   0.335   4.597   6.887 -0.3175 -0.0809  0.7045
   90SAPE   C11 8731   0.361   4.812   6.880  0.3372  0.7175  0.4539
   90SAPE  H11A 8732   0.311   4.820   6.979  2.0674 -0.2899  1.4662
   90SAPE  H11B 8733   0.290   4.816   6.795  1.0653 -0.9425 -0.2900
   90SAPE     P 8734   0.449   5.056   6.863 -0.1173  0.2212 -0.2093
   90SAPE   O13 8735   0.389   5.117   6.984  0.1491 -0.8643 -0.0138
   90SAPE   O14 8736   0.580   5.112   6.820 -0.4438 -0.0659  0.0990
   90SAPE   O12 8737   0.466   4.900   6.872  0.0647  0.2991 -0.0047
   90SAPE   O11 8738   0.346   5.084   6.748 -0.4703  0.0053  0.7299
   90SAPE    C1 8739   0.345   5.201   6.663 -0.4177 -0.7501 -0.2690
   90SAPE    HA 8740   0.255   5.265   6.676  0.7390  0.9675 -0.4119
   90SAPE    HB 8741   0.427   5.272   6.687 -0.1827 -0.6853 -1.2264
   90SAPE    C2 8742   0.355   5.164   6.509 -0.2038 -0.4081 -0.8054
   90SAPE    HS 8743   0.256   5.125   6.477 -1.0674  0.8873  0.1395
   90SAPE   O21 8744   0.472   5.093   6.480  0.1026  0.1322  0.1820
   90SAPE   C21 8745   0.469   4.961   6.485  0.1629 -0.3989 -0.3023
   90SAPE   O22 8746   0.373   4.897   6.521 -0.2697  0.2256 -0.3610
   90SAPE   C22 8747   0.614   4.919   6.479  0.2212  0.5566  0.0303
   90SAPE   H2R 8748   0.675   4.995   6.425  0.6030  1.2525  1.3790
   90SAPE   H2S 8749   0.659   4.926   6.581  0.0876 -0.3410  0.1582
   90SAPE    C3 8750   0.375   5.292   6.428  0.1427  0.0200  0.0405
   90SAPE    HX 8751   0.363   5.273   6.319  4.3974  3.2017 -1.2464
   90SAPE    HY 8752   0.481   5.323   6.435  0.2254 -0.4749  1.1942
   90SAPE   O31 8753   0.275   5.390   6.472 -0.4038  0.1221 -0.0426
   90SAPE   C31 8754   0.271   5.509   6.408 -0.4075 -0.0423 -0.1791
   90SAPE   O32 8755   0.329   5.531   6.297  0.6231  0.4336 -0.8101
   90SAPE   C32 8756   0.184   5.605   6.479  0.0032  0.5110  0.2832
   90SAPE   H2X 8757   0.238   5.701   6.491 -1.4186  1.5291 -1.0325
   90SAPE   H2Y 8758   0.161   5.583   6.585 -1.1297  1.4224  0.2455
   90SAPE   C23 8759   0.629   4.775   6.436  0.3753 -0.1124 -0.0348
   90SAPE   H3R 8760   0.550   4.719   6.490 -2.3354  1.4458 -2.1173
   90SAPE   H3S 8761   0.733   4.738   6.453  0.7019  0.6909 -0.2307
   90SAPE   C24 8762   0.606   4.752   6.286  0.4366 -0.5889  1.1543
   90SAPE   H4R 8763   0.504   4.786   6.260  0.4104  0.1359  2.1502
   90SAPE   H4S 8764   0.618   4.642   6.277  2.8931 -0.2245 -1.1036
   90SAPE   C25 8765   0.706   4.820   6.196 -0.6077 -0.2366 -0.1007
   90SAPE   H5R 8766   0.805   4.774   6.213 -1.7577 -2.8219  0.0630
   90SAPE   C26 8767   0.695   4.924   6.118  0.2035 -0.7121  0.6719
   90SAPE   H6R 8768   0.777   4.962   6.055 -1.2770 -2.1627 -2.3690
   90SAPE   C27 8769   0.562   4.999   6.107 -0.1736 -0.4557  0.9154
   90SAPE   H7R 8770   0.578   5.103   6.072 -0.6592  0.0586  2.1653
   90SAPE   H7S 8771   0.527   5.016   6.211 -1.0481  0.3174  0.5147
   90SAPE   C28 8772   0.456   4.954   6.007 -0.2075 -0.4363 -0.2539
   90SAPE   H8R 8773   0.481   4.901   5.914  1.2889 -0.1269 -0.0538
   90SAPE   C29 8774   0.322   4.990   6.013 -0.1434  0.3177 -0.3516
   90SAPE   H9R 8775   0.252   4.955   5.936 -0.7218  0.4740  0.0983
   90SAPE  C210 8776   0.262   5.067   6.126 -0.3505  0.4611 -0.5473
   90SAPE  H10R 8777   0.310   5.167   6.133  0.9521 -0.1103 -0.9838
   90SAPE  H10S 8778   0.301   5.020   6.218 -1.6554 -2.1350 -1.2232
   90SAPE  C211 8779   0.108   5.058   6.126 -0.5795 -0.2621 -0.3030
   90SAPE  H11R 8780   0.071   4.973   6.185  0.9026  0.2303  1.4242
   90SAPE  C212 8781   0.021   5.146   6.063 -0.3769 -0.0637 -0.4957
   90SAPE  H12R 8782  -0.088   5.134   6.059 -0.5514  0.3545  1.6285
   90SAPE  C213 8783   0.069   5.271   5.995 -0.2171  0.8851  0.0678
   90SAPE  H13R 8784   0.179   5.270   5.980 -0.4455 -1.0780 -2.0537
   90SAPE  H13S 8785   0.052   5.361   6.058  0.3825 -0.7541  2.7346
   90SAPE  C214 8786  -0.014   5.289   5.868 -0.5233 -0.2759 -0.1276
   90SAPE  H14R 8787  -0.108   5.343   5.884  0.0877  0.0519  2.9161
   90SAPE  C215 8788   0.013   5.228   5.749  0.2489 -0.2821  0.0572
   90SAPE  H15R 8789  -0.056   5.238   5.663 -0.3538  1.2945  0.6907
   90SAPE  C216 8790   0.133   5.144   5.717 -0.2057  0.0981 -0.5199
   90SAPE  H16R 8791   0.095   5.042   5.693 -1.4388  0.4423 -0.1333
   90SAPE  H16S 8792   0.198   5.139   5.807  1.2536 -2.3294 -1.6014
   90SAPE  C217 8793   0.213   5.191   5.593 -0.1112  1.3685 -0.4468
   90SAPE  H17R 8794   0.254   5.293   5.606  0.2036  0.9742  2.2341
   90SAPE  H17S 8795   0.145   5.187   5.505  0.7369  1.1109 -1.1086
   90SAPE  C218 8796   0.334   5.102   5.570  0.2714  0.4204 -0.3178
   90SAPE  H18R 8797   0.385   5.071   5.664 -0.2379 -0.9600 -0.4679
   90SAPE  H18S 8798   0.408   5.169   5.520  1.3941 -0.5363  0.0125
   90SAPE  C219 8799   0.304   4.978   5.485  0.4046 -0.1810  0.4100
   90SAPE  H19R 8800   0.255   5.014   5.392  0.6770 -1.3824 -0.2070
   90SAPE  H19S 8801   0.231   4.907   5.529  0.5835 -1.3620 -1.1242
   90SAPE  C220 8802   0.435   4.907   5.438 -0.7162 -0.3343  0.1662
   90SAPE  H20R 8803   0.495   4.881   5.528  1.7262  2.0806 -0.6311
   90SAPE  H20S 8804   0.491   4.962   5.360  1.5574  0.7869  2.4446
   90SAPE  H20T 8805   0.395   4.820   5.383 -0.6524 -0.7241  0.7209
   90SAPE   C33 8806   0.043   5.634   6.405 -0.1719  0.1760 -0.2161
   90SAPE   H3X 8807   0.002   5.717   6.466  3.1827  2.7667 -1.1652
   90SAPE   H3Y 8808  -0.023   5.545   6.400 -0.0188  0.1384 -2.6205
   90SAPE   C34 8809   0.061   5.684   6.263  0.2202  0.2105 -0.3095
   90SAPE   H4X 8810   0.111   5.607   6.199 -1.0459 -0.4072 -0.5945
   90SAPE   H4Y 8811   0.125   5.774   6.273 -0.4685  0.6327  0.3853
   90SAPE   C35 8812  -0.066   5.722   6.197 -0.0335  0.8517  0.0637
   90SAPE   H5X 8813  -0.118   5.807   6.244 -0.2404  1.4457 -1.2010
   90SAPE   H5Y 8814  -0.124   5.627   6.189  1.2066  0.1188 -0.5762
   90SAPE   C36 8815  -0.031   5.763   6.051 -0.4326 -0.2562  0.1080
   90SAPE   H6X 8816   0.053   5.834   6.043 -0.7753  1.0656  5.1263
   90SAPE   H6Y 8817  -0.122   5.813   6.010  0.6901  1.1688 -0.7340
   90SAPE   C37 8818   0.001   5.636   5.962  0.3219 -0.4909 -0.5625
   90SAPE   H7X 8819  -0.090   5.579   5.934 -0.8752  1.0659  0.0401
   90SAPE   H7Y 8820   0.072   5.565   6.011 -0.9689 -2.7273 -1.7843
   90SAPE   C38 8821   0.062   5.692   5.832 -0.1333  0.4487  0.5349
   90SAPE   H8X 8822   0.162   5.739   5.850  0.5272 -0.0907 -1.4425
   90SAPE   H8Y 8823  -0.014   5.768   5.806  0.0962  1.1794  1.8929
   90SAPE   C39 8824   0.076   5.591   5.714  0.1611  0.4186  0.6753
   90SAPE   H9X 8825  -0.019   5.534   5.706 -0.4157  1.5842 -1.7855
   90SAPE   H9Y 8826   0.161   5.520   5.719 -0.2783 -0.1571  0.1730
   90SAPE  C310 8827   0.092   5.663   5.580  0.2184 -0.4162  0.5126
   90SAPE  H10X 8828   0.187   5.719   5.570  0.4088 -0.8852 -0.3749
   90SAPE  H10Y 8829   0.010   5.737   5.565  0.2055 -0.6252 -0.5074
   90SAPE  C311 8830   0.082   5.567   5.466  0.2852  0.2866  0.5510
   90SAPE  H11X 8831  -0.022   5.530   5.476 -1.1183  3.9028  1.1227
   90SAPE  H11Y 8832   0.155   5.485   5.481 -0.8023 -0.9534 -0.7518
   90SAPE  C312 8833   0.085   5.641   5.329 -0.7039  0.4978 -0.0205
   90SAPE  H12X 8834   0.187   5.678   5.307 -1.1326  0.5907 -2.0227
   90SAPE  H12Y 8835   0.020   5.730   5.342  0.2436  1.0239  1.3682
   90SAPE  C313 8836   0.044   5.554   5.211  0.6097  0.0355 -0.1436
   90SAPE  H13X 8837   0.016   5.615   5.123 -0.5304 -2.4770 -1.6251
   90SAPE  H13Y 8838  -0.050   5.498   5.232 -0.3226  0.5239 -2.6573
   90SAPE  C314 8839   0.143   5.442   5.167 -0.0641  0.1378 -0.1969
   90SAPE  H14X 8840   0.166   5.383   5.258 -1.0476 -0.5444 -0.3814
   90SAPE  H14Y 8841   0.236   5.483   5.121  0.1611 -0.1111  0.0291
   90SAPE  C315 8842   0.085   5.333   5.072  1.0702  0.0010  1.1499
   90SAPE  H15X 8843   0.031   5.393   4.995 -0.5525 -1.7275  0.8649
   90SAPE  H15Y 8844   0.008   5.264   5.112 -2.0499  0.9390 -2.5186
   90SAPE  C316 8845   0.189   5.251   5.000  0.0970  0.3176 -0.4434
   90SAPE  H16X 8846   0.250   5.316   4.934  0.9885  1.9856  1.8907
   90SAPE  H16Y 8847   0.135   5.187   4.927  3.2238 -2.8457 -0.2003
   90SAPE  C317 8848   0.276   5.156   5.087  0.1317 -0.6587  0.3703
   90SAPE  H17X 8849   0.213   5.079   5.136  0.6866 -0.5187  1.3317
   90SAPE  H17Y 8850   0.323   5.210   5.173 -0.2210 -2.6959  1.9223
   90SAPE  C318 8851   0.377   5.081   5.012 -0.6075  0.1546  0.0789
   90SAPE  H18X 8852   0.322   4.995   4.968 -0.3629 -1.2897  2.4397
   90SAPE  H18Y 8853   0.466   5.056   5.074 -0.6057 -1.3683 -0.4896
   90SAPE  H18Z 8854   0.414   5.138   4.924  1.2076  0.3205  0.8841
   91SAPE     N 8855   4.762   1.094   6.430  0.0077  0.0314  0.2590
   91SAPE   HN1 8856   4.664   1.124   6.447  0.2209 -0.4934  2.8957
   91SAPE   HN2 8857   4.788   1.061   6.526  1.5606  0.4718  0.0145
   91SAPE   HN3 8858   4.805   1.185   6.404  0.1064 -0.5754 -1.8929
   91SAPE   C12 8859   4.779   1.006   6.302  0.6709  0.2921 -0.5636
   91SAPE  H12A 8860   4.726   1.060   6.221 -0.5527 -0.4903 -0.3126
   91SAPE  H12B 8861   4.727   0.913   6.332  2.5747 -0.2680  1.2136
   91SAPE   C11 8862   4.926   0.986   6.265  0.3485 -0.2530  0.6672
   91SAPE  H11A 8863   4.984   1.078   6.241  0.1820 -0.5001 -0.7266
   91SAPE  H11B 8864   4.929   0.918   6.177  1.4985 -0.0497  0.5293
   91SAPE     P 8865   5.034   0.758   6.362  0.0593  0.1025 -0.0670
   91SAPE   O13 8866   5.149   0.729   6.448  0.6338  0.1165  0.1178
   91SAPE   O14 8867   4.911   0.675   6.379 -0.4678 -0.2041  0.9085
   91SAPE   O12 8868   4.991   0.915   6.370  0.4993  0.3873  0.8431
   91SAPE   O11 8869   5.083   0.751   6.208  0.0101 -0.0022  0.3267
   91SAPE    C1 8870   5.213   0.814   6.189 -0.1291 -0.0370  0.2316
   91SAPE    HA 8871   5.224   0.919   6.221  2.7154 -0.6994  1.7978
   91SAPE    HB 8872   5.302   0.758   6.227  1.7649  2.3955 -0.3326
   91SAPE    C2 8873   5.236   0.813   6.030 -0.3717 -0.0537  0.0295
   91SAPE    HS 8874   5.330   0.864   6.001  0.2109  0.1901  2.1716
   91SAPE   O21 8875   5.123   0.871   5.967  0.8057 -0.3244 -0.1720
   91SAPE   C21 8876   5.110   1.003   5.981 -0.7620  0.5203 -0.5604
   91SAPE   O22 8877   5.190   1.081   6.025 -1.0297  0.0583 -0.0827
   91SAPE   C22 8878   4.983   1.040   5.910  0.0909 -0.0114 -0.5553
   91SAPE   H2R 8879   4.906   0.964   5.933 -0.6054  0.8548  0.0308
   91SAPE   H2S 8880   4.934   1.133   5.946  0.4166 -0.1479  0.2722
   91SAPE    C3 8881   5.251   0.676   5.969 -0.0365 -0.0498 -0.1396
   91SAPE    HX 8882   5.154   0.621   5.975 -1.4304  2.2906  0.1599
   91SAPE    HY 8883   5.337   0.630   6.021  0.0092  1.6563  1.4265
   91SAPE   O31 8884   5.282   0.685   5.828 -0.3522 -0.1827  0.3239
   91SAPE   C31 8885   5.204   0.619   5.735  0.3693  0.0212  0.1402
   91SAPE   O32 8886   5.102   0.560   5.763  0.9577  0.0113 -0.0836
   91SAPE   C32 8887   5.270   0.625   5.594 -0.3394  0.2309 -0.2399
   91SAPE   H2X 8888   5.326   0.532   5.574 -0.3529  0.1485  0.0992
   91SAPE   H2Y 8889   5.341   0.710   5.605  1.6676 -1.3331 -0.4811
   91SAPE   C23 8890   4.985   1.064   5.747  0.0835  0.2518 -0.4578
   91SAPE   H3R 8891   4.884   1.078   5.702  0.8544  0.6342 -2.1571
   91SAPE   H3S 8892   5.028   0.968   5.709  1.3637 -0.7133  3.0383
   91SAPE   C24 8893   5.086   1.162   5.692  0.7025 -0.2028 -0.5693
   91SAPE   H4R 8894   5.096   1.154   5.582  3.4714 -0.6048 -0.3662
   91SAPE   H4S 8895   5.185   1.128   5.730 -0.6538 -1.8627  1.7427
   91SAPE   C25 8896   5.047   1.292   5.748 -0.3633  0.0045 -0.7543
   91SAPE   H5R 8897   5.068   1.314   5.854 -1.6478  2.7535 -0.9874
   91SAPE   C26 8898   4.976   1.383   5.682 -0.2146  0.4214  0.0650
   91SAPE   H6R 8899   4.953   1.481   5.727 -0.8829  0.6744 -0.8025
   91SAPE   C27 8900   4.925   1.368   5.544 -0.5528 -0.1024 -0.3339
   91SAPE   H7R 8901   4.829   1.422   5.532  0.0688  1.4990  1.4008
   91SAPE   H7S 8902   4.893   1.263   5.527 -2.7763  0.7068 -1.5160
   91SAPE   C28 8903   5.013   1.417   5.430 -0.2034  0.0675  0.6768
   91SAPE   H8R 8904   5.101   1.475   5.462 -0.0347 -0.9637  2.1773
   91SAPE   C29 8905   4.996   1.379   5.301  0.3987 -0.1029 -0.2444
   91SAPE   H9R 8906   5.077   1.402   5.230 -0.6299 -0.6520 -1.6497
   91SAPE  C210 8907   4.882   1.310   5.236  0.0439  0.1111 -0.2651
   91SAPE  H10R 8908   4.859   1.366   5.143  1.2359 -0.1228 -0.7134
   91SAPE  H10S 8909   4.790   1.322   5.298  0.0396 -0.3001 -0.1873
   91SAPE  C211 8910   4.906   1.164   5.212 -0.8355 -0.7352 -0.0249
   91SAPE  H11R 8911   4.911   1.105   5.305  1.2404  1.6974  1.5169
   91SAPE  C212 8912   4.934   1.105   5.097  0.2227 -0.1935  0.9133
   91SAPE  H12R 8913   4.974   1.003   5.089  2.8709  0.7646  0.9969
   91SAPE  C213 8914   4.941   1.172   4.959  0.2528  0.1447 -0.4185
   91SAPE  H13R 8915   5.026   1.111   4.919 -0.8922 -3.3235  1.9189
   91SAPE  H13S 8916   4.978   1.276   4.970  1.5543 -0.4574  1.3753
   91SAPE  C214 8917   4.828   1.179   4.856 -0.0585 -0.1765  0.1814
   91SAPE  H14R 8918   4.743   1.244   4.881  1.9360  1.1320  4.4279
   91SAPE  C215 8919   4.828   1.124   4.732  0.2205 -0.6848  0.4619
   91SAPE  H15R 8920   4.736   1.138   4.674  0.1413 -0.9494  0.5242
   91SAPE  C216 8921   4.922   1.031   4.662  0.4824  0.0289 -0.1316
   91SAPE  H16R 8922   4.870   0.935   4.641  1.5965 -0.1731 -2.2589
   91SAPE  H16S 8923   5.008   0.996   4.724 -0.1844 -1.4045  0.0284
   91SAPE  C217 8924   4.976   1.095   4.537 -0.3597  0.1538  0.3013
   91SAPE  H17R 8925   4.904   1.130   4.460  0.3589  0.7108 -0.1311
   91SAPE  H17S 8926   5.027   1.013   4.482 -0.4618  0.7314 -0.6681
   91SAPE  C218 8927   5.089   1.197   4.566  0.3067 -0.2552 -0.0357
   91SAPE  H18R 8928   5.177   1.168   4.628 -0.4777  1.0423  1.7810
   91SAPE  H18S 8929   5.052   1.289   4.616  0.4120 -0.6474  0.7913
   91SAPE  C219 8930   5.158   1.255   4.445  0.4020 -0.2552 -0.3487
   91SAPE  H19R 8931   5.078   1.317   4.400  1.2639  1.0603 -0.1059
   91SAPE  H19S 8932   5.204   1.178   4.379  1.4437  0.1551 -0.1235
   91SAPE  C220 8933   5.273   1.350   4.478  0.0218 -0.2800 -0.2371
   91SAPE  H20R 8934   5.294   1.413   4.389 -2.0934 -1.4262 -1.6192
   91SAPE  H20S 8935   5.360   1.288   4.509  0.5578  0.4913 -0.1472
   91SAPE  H20T 8936   5.252   1.423   4.559  2.4031 -1.2147  1.3451
   91SAPE   C33 8937   5.162   0.650   5.495  0.0644 -0.8487 -0.0329
   91SAPE   H3X 8938   5.104   0.738   5.529 -2.4993 -2.6376  0.4895
   91SAPE   H3Y 8939   5.100   0.559   5.511  1.7923 -1.6022  3.6937
   91SAPE   C34 8940   5.201   0.673   5.354  0.1010 -0.5909 -0.2103
   91SAPE   H4X 8941   5.253   0.590   5.301 -0.5482 -0.1510 -1.5771
   91SAPE   H4Y 8942   5.261   0.766   5.349 -2.1276  0.8396 -3.3061
   91SAPE   C35 8943   5.079   0.715   5.270  0.0923  0.2765 -0.0222
   91SAPE   H5X 8944   5.041   0.816   5.294 -0.2118  1.1846 -3.7329
   91SAPE   H5Y 8945   4.999   0.639   5.281  0.8473 -0.3346  1.6481
   91SAPE   C36 8946   5.099   0.712   5.112  0.0832 -0.5587 -0.6076
   91SAPE   H6X 8947   5.005   0.736   5.059  0.2659  0.9858 -0.2562
   91SAPE   H6Y 8948   5.116   0.607   5.078 -1.1603 -1.4070  1.2664
   91SAPE   C37 8949   5.217   0.797   5.063 -0.2791 -0.6592 -0.2464
   91SAPE   H7X 8950   5.305   0.785   5.130  0.4852 -1.3288 -1.3262
   91SAPE   H7Y 8951   5.183   0.902   5.079  0.0875 -0.4152 -1.0037
   91SAPE   C38 8952   5.248   0.783   4.914 -0.1867  0.3859  0.0976
   91SAPE   H8X 8953   5.154   0.777   4.855 -1.1937 -1.7356  1.8115
   91SAPE   H8Y 8954   5.288   0.680   4.908 -0.1040  0.5092 -2.5073
   91SAPE   C39 8955   5.340   0.894   4.861  0.5226 -0.0696  0.4926
   91SAPE   H9X 8956   5.446   0.866   4.878 -0.0247 -3.4960 -0.8987
   91SAPE   H9Y 8957   5.321   0.980   4.929  0.5961 -0.1467  0.6113
   91SAPE  C310 8958   5.322   0.923   4.713  0.1566 -1.0473  0.4161
   91SAPE  H10X 8959   5.365   1.025   4.701  0.5329 -1.3806 -1.3506
   91SAPE  H10Y 8960   5.217   0.920   4.677  0.7230 -0.4517 -1.4109
   91SAPE  C311 8961   5.401   0.822   4.620  0.3572 -0.2878  0.1123
   91SAPE  H11X 8962   5.352   0.723   4.626 -0.0584 -0.0469  0.7726
   91SAPE  H11Y 8963   5.500   0.795   4.663  1.1093  0.8779 -0.7989
   91SAPE  C312 8964   5.427   0.863   4.479  0.5330  0.2837 -0.1804
   91SAPE  H12X 8965   5.483   0.959   4.473  1.4577 -0.2645 -0.4917
   91SAPE  H12Y 8966   5.327   0.877   4.432  0.2853 -0.5291  0.0886
   91SAPE  C313 8967   5.489   0.763   4.390  0.2042 -0.4750 -0.3096
   91SAPE  H13X 8968   5.479   0.808   4.290 -0.7764 -0.1254 -0.0646
   91SAPE  H13Y 8969   5.424   0.673   4.393  1.2309 -1.2262  0.9237
   91SAPE  C314 8970   5.630   0.731   4.422 -0.2618  0.0004 -0.0001
   91SAPE  H14X 8971   5.648   0.679   4.519 -3.1329 -2.2919 -0.5346
   91SAPE  H14Y 8972   5.681   0.829   4.423  0.8888 -0.5777  0.0584
   91SAPE  C315 8973   5.699   0.645   4.321 -0.3350 -0.6977 -0.5676
   91SAPE  H15X 8974   5.809   0.645   4.334 -0.2154 -4.6226 -0.1570
   91SAPE  H15Y 8975   5.665   0.677   4.220 -4.5219 -1.6910  0.3351
   91SAPE  C316 8976   5.659   0.500   4.336 -0.5966 -0.5994  0.6539
   91SAPE  H16X 8977   5.548   0.492   4.337 -0.5357 -1.5913 -0.3193
   91SAPE  H16Y 8978   5.695   0.464   4.435  1.2501  1.3429  0.7648
   91SAPE  C317 8979   5.718   0.404   4.235  0.7363 -0.0746 -0.7489
   91SAPE  H17X 8980   5.819   0.379   4.275  1.1415  0.1851 -1.5764
   91SAPE  H17Y 8981   5.725   0.450   4.134  0.3293  0.0177 -0.7339
   91SAPE  C318 8982   5.636   0.278   4.223 -0.0897 -0.0307 -0.4528
   91SAPE  H18X 8983   5.683   0.209   4.150  1.3743 -1.0333  1.3221
   91SAPE  H18Y 8984   5.532   0.299   4.192 -0.1102 -2.4799 -2.2796
   91SAPE  H18Z 8985   5.643   0.218   4.317  2.5079 -0.1448 -0.6385
   92SAPE     N 8986   6.013   2.442   6.677 -0.0445  0.8858 -0.7436
   92SAPE   HN1 8987   6.045   2.416   6.772 -2.3471 -2.3269 -0.6754
   92SAPE   HN2 8988   6.051   2.362   6.622  1.1160  0.0102  1.2296
   92SAPE   HN3 8989   6.063   2.530   6.650 -0.0279  0.9788 -0.4119
   92SAPE   C12 8990   5.866   2.462   6.672  0.7019 -0.6835 -0.3901
   92SAPE  H12A 8991   5.843   2.556   6.618 -2.1755 -0.2560  1.3917
   92SAPE  H12B 8992   5.834   2.476   6.777  1.5876  3.5726 -0.4873
   92SAPE   C11 8993   5.799   2.340   6.612 -0.3660 -0.1519 -0.0296
   92SAPE  H11A 8994   5.851   2.303   6.521 -0.5249  1.2676 -0.7289
   92SAPE  H11B 8995   5.690   2.358   6.598 -1.2349 -0.9692  4.1769
   92SAPE     P 8996   5.719   2.119   6.721  0.1853  0.3063  0.3129
   92SAPE   O13 8997   5.781   2.014   6.804  0.2201  0.0203 -0.0672
   92SAPE   O14 8998   5.584   2.163   6.759 -0.2509 -0.0836  0.5873
   92SAPE   O12 8999   5.817   2.241   6.710  0.4708 -0.2584 -0.0183
   92SAPE   O11 9000   5.719   2.067   6.569  0.0576 -0.3393 -0.1588
   92SAPE    C1 9001   5.836   2.001   6.517 -0.1833  0.9027 -0.6436
   92SAPE    HA 9002   5.921   2.070   6.533 -0.4450  1.2901 -0.8917
   92SAPE    HB 9003   5.861   1.905   6.566 -0.7712  0.1680 -1.7434
   92SAPE    C2 9004   5.824   1.977   6.361  0.3923 -0.3233 -0.2713
   92SAPE    HS 9005   5.743   1.902   6.350  1.0093 -1.2054  0.8616
   92SAPE   O21 9006   5.944   1.937   6.298  0.0919 -0.1479  0.3775
   92SAPE   C21 9007   5.944   1.799   6.286 -0.1103  0.2607 -0.5662
   92SAPE   O22 9008   5.856   1.725   6.324  0.1282 -0.2874 -0.3361
   92SAPE   C22 9009   6.055   1.767   6.178  0.5535  0.4806 -0.1058
   92SAPE   H2R 9010   6.094   1.863   6.137  0.6345  0.7332  0.5465
   92SAPE   H2S 9011   6.132   1.712   6.235 -1.2246 -0.2741  1.6789
   92SAPE    C3 9012   5.777   2.107   6.290  0.1474  0.4868 -0.3682
   92SAPE    HX 9013   5.865   2.173   6.279  0.6936 -0.3062 -0.8808
   92SAPE    HY 9014   5.707   2.155   6.362 -0.5567 -1.5417  0.3897
   92SAPE   O31 9015   5.717   2.084   6.161 -0.4522  0.2978  0.0416
   92SAPE   C31 9016   5.610   2.149   6.120  0.2573 -0.0112  0.1235
   92SAPE   O32 9017   5.559   2.243   6.181 -0.1777 -0.8362  0.1121
   92SAPE   C32 9018   5.586   2.120   5.972 -0.3156  0.6792 -0.4129
   92SAPE   H2X 9019   5.508   2.190   5.937 -1.9125 -0.7457  0.1343
   92SAPE   H2Y 9020   5.543   2.018   5.959  1.9388 -0.5034  0.6285
   92SAPE   C23 9021   6.010   1.663   6.071  0.0360 -0.0252 -0.6316
   92SAPE   H3R 9022   5.958   1.576   6.116  0.7629  0.1704  0.6332
   92SAPE   H3S 9023   6.095   1.614   6.019 -1.1232 -1.8159 -0.9019
   92SAPE   C24 9024   5.920   1.727   5.973 -0.0403 -0.2887 -0.5983
   92SAPE   H4R 9025   5.841   1.774   6.035  2.2262  0.3789  1.9731
   92SAPE   H4S 9026   5.882   1.641   5.914 -0.0325 -0.1700 -0.7774
   92SAPE   C25 9027   5.968   1.826   5.868 -0.5311 -0.3355  0.5269
   92SAPE   H5R 9028   5.996   1.928   5.894  3.6314 -0.4866 -2.4075
   92SAPE   C26 9029   5.990   1.790   5.743  0.0905  0.0357 -0.0072
   92SAPE   H6R 9030   6.014   1.874   5.676 -0.4671  1.1223  1.0996
   92SAPE   C27 9031   5.976   1.652   5.671  0.0268  0.3904  0.4507
   92SAPE   H7R 9032   5.969   1.572   5.747 -0.1419  0.5947  0.6539
   92SAPE   H7S 9033   6.066   1.629   5.611  0.6216  0.9358  1.1088
   92SAPE   C28 9034   5.857   1.660   5.582  0.1765 -0.2958  0.4921
   92SAPE   H8R 9035   5.764   1.687   5.634  0.9436 -0.7107  2.1183
   92SAPE   C29 9036   5.851   1.634   5.447  0.0531 -0.0496 -0.3753
   92SAPE   H9R 9037   5.760   1.661   5.391 -0.0931 -0.7311 -0.4786
   92SAPE  C210 9038   5.967   1.578   5.364  0.1321 -0.9354  1.2526
   92SAPE  H10R 9039   5.941   1.510   5.279  3.3069 -1.9177  0.9143
   92SAPE  H10S 9040   6.030   1.510   5.426  0.6307  0.7487  2.6448
   92SAPE  C211 9041   6.063   1.686   5.317 -0.5908  0.1293  0.8266
   92SAPE  H11R 9042   6.096   1.762   5.389 -1.0331 -1.0932  2.3608
   92SAPE  C212 9043   6.112   1.700   5.190  0.0225  0.7107  0.3260
   92SAPE  H12R 9044   6.184   1.782   5.175  1.9144 -1.1496 -1.3632
   92SAPE  C213 9045   6.086   1.605   5.072 -0.0106  0.3453  0.3851
   92SAPE  H13R 9046   6.089   1.499   5.104 -0.5453  0.6217  1.3841
   92SAPE  H13S 9047   6.169   1.618   4.999  0.8853  0.1022  1.3314
   92SAPE  C214 9048   5.954   1.616   5.005  0.2529 -0.0635 -0.0535
   92SAPE  H14R 9049   5.884   1.652   5.083  0.7972  0.7668  0.0598
   92SAPE  C215 9050   5.918   1.606   4.873 -0.7358  0.7480 -0.3194
   92SAPE  H15R 9051   5.815   1.635   4.844 -1.1520  1.3598  1.6202
   92SAPE  C216 9052   6.020   1.571   4.767  0.3333 -0.5033 -0.7387
   92SAPE  H16R 9053   5.992   1.468   4.735 -0.8026 -1.1796  2.1384
   92SAPE  H16S 9054   6.126   1.579   4.800  0.1174  0.5302 -0.2557
   92SAPE  C217 9055   6.011   1.659   4.644 -0.3081  0.3731  1.0866
   92SAPE  H17R 9056   6.030   1.766   4.670  0.2887 -0.2427  3.3749
   92SAPE  H17S 9057   5.911   1.662   4.595 -0.6590  0.1953  1.7831
   92SAPE  C218 9058   6.116   1.613   4.547  0.1064 -0.5039  0.4959
   92SAPE  H18R 9059   6.090   1.509   4.518 -2.2560  0.3148 -0.5891
   92SAPE  H18S 9060   6.217   1.614   4.594 -0.2027 -0.8218  1.1842
   92SAPE  C219 9061   6.132   1.698   4.421 -0.6085  0.1058  0.4499
   92SAPE  H19R 9062   6.115   1.806   4.436  0.7964  0.8623 -2.6118
   92SAPE  H19S 9063   6.045   1.659   4.363 -0.9381 -1.4130  1.8707
   92SAPE  C220 9064   6.258   1.679   4.344 -0.3275  0.1691  0.4901
   92SAPE  H20R 9065   6.336   1.757   4.362 -2.0987  2.0790  0.2258
   92SAPE  H20S 9066   6.233   1.687   4.236 -0.2417  0.7116  0.5072
   92SAPE  H20T 9067   6.295   1.579   4.375  0.5572  1.0879  2.6017
   92SAPE   C33 9068   5.723   2.112   5.894 -0.6539 -0.2421 -0.6173
   92SAPE   H3X 9069   5.796   2.037   5.931  1.0558  1.8827  0.5727
   92SAPE   H3Y 9070   5.766   2.214   5.905 -2.3986  0.2427  3.6477
   92SAPE   C34 9071   5.711   2.071   5.749 -0.0765  0.3750  0.1672
   92SAPE   H4X 9072   5.633   2.135   5.701 -0.7468 -1.1100 -0.8229
   92SAPE   H4Y 9073   5.676   1.965   5.746 -0.5446  0.5405 -0.6031
   92SAPE   C35 9074   5.834   2.099   5.672 -0.2932  0.3097  1.0600
   92SAPE   H5X 9075   5.933   2.068   5.713  1.0634  1.2704 -1.3159
   92SAPE   H5Y 9076   5.840   2.210   5.670  0.6695  0.2650  0.6232
   92SAPE   C36 9077   5.823   2.042   5.527 -0.5694  0.3471  0.0010
   92SAPE   H6X 9078   5.738   2.094   5.478 -0.4464 -0.3611 -1.0024
   92SAPE   H6Y 9079   5.796   1.934   5.538  0.0869  0.0154 -1.4478
   92SAPE   C37 9080   5.946   2.056   5.437 -0.4280  0.5673 -0.5724
   92SAPE   H7X 9081   6.021   1.981   5.468  0.2125  1.3777 -0.1168
   92SAPE   H7Y 9082   5.992   2.156   5.455  2.0165 -0.7190  0.7946
   92SAPE   C38 9083   5.909   2.040   5.291 -0.5609 -0.1412 -0.3513
   92SAPE   H8X 9084   5.827   2.111   5.266  1.5979  2.9022  0.6013
   92SAPE   H8Y 9085   5.876   1.936   5.273  0.6368 -0.9491  1.7367
   92SAPE   C39 9086   6.027   2.070   5.191 -0.1160 -0.5309 -0.0278
   92SAPE   H9X 9087   6.109   1.996   5.201  1.1198  0.9692  1.4267
   92SAPE   H9Y 9088   6.069   2.170   5.211 -0.2059 -0.7121  1.1385
   92SAPE  C310 9089   5.968   2.059   5.046 -0.3019  0.8780 -0.5914
   92SAPE  H10X 9090   5.879   2.122   5.028 -1.1485 -0.5376 -1.6040
   92SAPE  H10Y 9091   5.930   1.955   5.037 -3.6214  2.0269 -1.0068
   92SAPE  C311 9092   6.060   2.082   4.927  0.5742  1.1741  1.0104
   92SAPE  H11X 9093   6.162   2.037   4.919  0.3781  0.7569  0.8427
   92SAPE  H11Y 9094   6.081   2.190   4.910 -0.8280  1.1841 -0.9519
   92SAPE  C312 9095   5.982   2.037   4.797  0.0519 -0.0663 -0.2420
   92SAPE  H12X 9096   5.874   2.025   4.819 -0.5967  1.4863 -2.2551
   92SAPE  H12Y 9097   6.025   1.942   4.758 -0.5936  0.3284 -1.9997
   92SAPE  C313 9098   5.980   2.137   4.683  0.3134  0.1654 -0.4913
   92SAPE  H13X 9099   6.074   2.131   4.624  1.0494  0.4857  0.5936
   92SAPE  H13Y 9100   5.979   2.234   4.737 -0.3587  0.6481 -1.3569
   92SAPE  C314 9101   5.851   2.138   4.604 -0.0039  0.1413 -0.4689
   92SAPE  H14X 9102   5.778   2.183   4.674 -1.4059 -0.8015 -1.2638
   92SAPE  H14Y 9103   5.816   2.034   4.585 -1.7650  0.5427  0.3661
   92SAPE  C315 9104   5.844   2.229   4.480 -0.3118 -0.2262  0.5348
   92SAPE  H15X 9105   5.885   2.327   4.515  0.8480 -0.6319  0.3694
   92SAPE  H15Y 9106   5.740   2.242   4.445 -0.1416  1.4270  0.5320
   92SAPE  C316 9107   5.932   2.174   4.366  0.0410  0.8678  0.2176
   92SAPE  H16X 9108   5.902   2.072   4.337  0.5677  0.1302  2.1191
   92SAPE  H16Y 9109   6.035   2.158   4.404  0.1117 -1.3200 -0.7696
   92SAPE  C317 9110   5.946   2.268   4.240  0.1001 -0.5343 -0.0278
   92SAPE  H17X 9111   5.982   2.371   4.265 -0.6341  0.0735 -1.3564
   92SAPE  H17Y 9112   5.840   2.280   4.209  0.1228 -0.4014 -0.0583
   92SAPE  C318 9113   6.017   2.205   4.117  0.3446  0.3245 -0.5236
   92SAPE  H18X 9114   6.044   2.281   4.040 -1.5451 -0.1478 -1.7114
   92SAPE  H18Y 9115   5.949   2.129   4.073 -1.1446  1.1940  0.1708
   92SAPE  H18Z 9116   6.107   2.149   4.148 -0.1090  0.5445  1.3058
   93SAPE     N 9117   1.822   1.622   6.790 -0.8096 -0.5365  0.1866
   93SAPE   HN1 9118   1.899   1.553   6.804  0.6377  0.5878 -1.7357
   93SAPE   HN2 9119   1.789   1.657   6.882 -0.3191 -1.2793  0.6617
   93SAPE   HN3 9120   1.741   1.585   6.736 -0.2456  2.0140 -2.6531
   93SAPE   C12 9121   1.870   1.724   6.695 -0.3634 -0.1495  0.7688
   93SAPE  H12A 9122   1.845   1.702   6.589  1.5015  0.9382  0.0576
   93SAPE  H12B 9123   1.981   1.736   6.697 -0.2420 -1.0931  0.3604
   93SAPE   C11 9124   1.804   1.858   6.734  0.7919 -0.0289 -0.5450
   93SAPE  H11A 9125   1.837   1.935   6.661 -1.4126  0.6276 -0.9300
   93SAPE  H11B 9126   1.853   1.901   6.824  1.2984 -0.7094 -0.4879
   93SAPE     P 9127   1.569   1.979   6.696 -0.1971 -0.2237 -0.3994
   93SAPE   O13 9128   1.426   1.955   6.734  0.1436  0.0021  0.5172
   93SAPE   O14 9129   1.635   2.101   6.742  0.7427 -0.4675  0.2768
   93SAPE   O12 9130   1.653   1.858   6.746  0.0940  0.4818  0.1723
   93SAPE   O11 9131   1.570   1.970   6.537  0.8344  0.1914 -0.6507
   93SAPE    C1 9132   1.566   1.837   6.482  0.1842  0.4121 -0.1376
   93SAPE    HA 9133   1.669   1.821   6.443 -0.7963  1.7290 -3.7185
   93SAPE    HB 9134   1.550   1.751   6.549 -1.1596  0.7971  0.0549
   93SAPE    C2 9135   1.477   1.838   6.357 -0.0259  0.3848  0.2081
   93SAPE    HS 9136   1.525   1.769   6.285 -3.7247 -1.6602 -0.5980
   93SAPE   O21 9137   1.456   1.978   6.305  0.2991  0.2737 -0.1648
   93SAPE   C21 9138   1.568   2.030   6.259  0.1612 -0.4424  0.0250
   93SAPE   O22 9139   1.671   1.967   6.245  0.2349 -0.0204 -0.1638
   93SAPE   C22 9140   1.554   2.171   6.218  0.5134 -0.2617 -0.0513
   93SAPE   H2R 9141   1.459   2.208   6.262 -2.9330 -3.7794 -3.6704
   93SAPE   H2S 9142   1.645   2.227   6.247 -0.6742  0.8483  1.7487
   93SAPE    C3 9143   1.343   1.781   6.400 -0.2058  0.4577 -0.0275
   93SAPE    HX 9144   1.286   1.855   6.460  0.0748 -1.1602  2.4038
   93SAPE    HY 9145   1.359   1.691   6.464 -0.9875 -1.3788 -2.2969
   93SAPE   O31 9146   1.269   1.724   6.292 -0.1959 -0.2131  0.3364
   93SAPE   C31 9147   1.140   1.713   6.309 -0.0530  0.1773  0.7486
   93SAPE   O32 9148   1.071   1.767   6.395  0.1459  0.3931 -0.1281
   93SAPE   C32 9149   1.076   1.633   6.190 -0.1704  0.4132  0.4059
   93SAPE   H2X 9150   1.122   1.532   6.190  0.0517  0.3739 -3.5124
   93SAPE   H2Y 9151   1.120   1.678   6.098 -0.4174 -0.1791 -0.0082
   93SAPE   C23 9152   1.509   2.189   6.070 -0.2759 -0.4617  0.2661
   93SAPE   H3R 9153   1.589   2.153   6.002 -0.7785 -0.6603 -0.2262
   93SAPE   H3S 9154   1.508   2.300   6.066 -0.0166 -0.4389  0.7475
   93SAPE   C24 9155   1.383   2.116   6.032 -0.1632 -0.5613 -0.0440
   93SAPE   H4R 9156   1.294   2.150   6.090 -0.0222  0.7489 -0.5571
   93SAPE   H4S 9157   1.395   2.010   6.061 -0.6479 -1.4493 -2.7673
   93SAPE   C25 9158   1.345   2.108   5.884 -0.6215  0.5870 -0.2197
   93SAPE   H5R 9159   1.287   2.193   5.844 -0.1622  0.9666 -0.0890
   93SAPE   C26 9160   1.392   2.011   5.802  0.9239 -0.2493 -0.0063
   93SAPE   H6R 9161   1.366   2.012   5.695 -1.9058  2.1133  0.5957
   93SAPE   C27 9162   1.479   1.893   5.853  0.5794  0.4042  0.2882
   93SAPE   H7R 9163   1.424   1.819   5.916  1.1451 -0.7783 -0.5703
   93SAPE   H7S 9164   1.558   1.934   5.919  0.2673  0.6701  0.5027
   93SAPE   C28 9165   1.546   1.821   5.740 -0.4747 -0.5127 -0.1982
   93SAPE   H8R 9166   1.507   1.719   5.723  0.9432 -0.6635 -3.0965
   93SAPE   C29 9167   1.646   1.862   5.661  0.4437  0.4858  0.1211
   93SAPE   H9R 9168   1.680   1.795   5.580 -0.5995 -1.3557  1.1460
   93SAPE  C210 9169   1.713   1.998   5.671 -0.6896  0.4232  0.3677
   93SAPE  H10R 9170   1.822   1.984   5.651  0.0680 -1.5354  4.7312
   93SAPE  H10S 9171   1.710   2.029   5.777  2.0738 -0.9888  0.9501
   93SAPE  C211 9172   1.664   2.109   5.584  0.1518 -0.0069 -0.0563
   93SAPE  H11R 9173   1.583   2.163   5.636 -0.1107  1.5684 -2.0009
   93SAPE  C212 9174   1.692   2.138   5.456  0.4537  0.1775  0.5602
   93SAPE  H12R 9175   1.636   2.223   5.413 -1.0420 -0.7444  0.6130
   93SAPE  C213 9176   1.775   2.063   5.358  0.1776  0.0341 -0.2718
   93SAPE  H13R 9177   1.838   1.992   5.417 -3.3588  0.9339  5.3058
   93SAPE  H13S 9178   1.842   2.135   5.305 -0.6435  0.8579 -0.2073
   93SAPE  C214 9179   1.687   1.984   5.269  0.3312 -1.2884  0.0286
   93SAPE  H14R 9180   1.594   1.944   5.312 -1.0143 -1.3122 -2.6357
   93SAPE  C215 9181   1.698   1.965   5.137  0.3597 -0.1196  0.3238
   93SAPE  H15R 9182   1.630   1.895   5.088  0.5026 -0.8735  1.1792
   93SAPE  C216 9183   1.810   2.007   5.047 -0.1342 -0.3836  0.2619
   93SAPE  H16R 9184   1.911   1.990   5.091 -0.4843 -1.9672  0.5066
   93SAPE  H16S 9185   1.781   2.114   5.047 -1.2346 -0.6465  1.9236
   93SAPE  C217 9186   1.822   1.984   4.897 -0.2909  1.2496  0.1016
   93SAPE  H17R 9187   1.895   2.060   4.863 -0.8623  2.6108  1.7705
   93SAPE  H17S 9188   1.726   2.015   4.849 -0.7554 -0.8375 -0.4159
   93SAPE  C218 9189   1.841   1.837   4.864  0.3269 -0.2246 -0.6763
   93SAPE  H18R 9190   1.770   1.785   4.932  0.6941  0.1682  0.0213
   93SAPE  H18S 9191   1.938   1.806   4.908 -0.5345  1.6300  2.8844
   93SAPE  C219 9192   1.824   1.783   4.719  0.5788  0.6672  0.7706
   93SAPE  H19R 9193   1.717   1.767   4.695  0.6595  2.3364 -0.9475
   93SAPE  H19S 9194   1.869   1.682   4.716  0.6681  0.7266 -0.6482
   93SAPE  C220 9195   1.897   1.851   4.601 -0.6142 -0.0059 -0.1417
   93SAPE  H20R 9196   1.865   1.957   4.590  0.6049  0.2422 -1.7997
   93SAPE  H20S 9197   1.875   1.801   4.504  2.0625 -1.5870 -0.0316
   93SAPE  H20T 9198   2.005   1.855   4.627 -0.8495  1.0749  0.7697
   93SAPE   C33 9199   0.925   1.620   6.198 -0.6983 -0.7284 -0.3827
   93SAPE   H3X 9200   0.872   1.715   6.221  0.6820 -0.0587  0.1596
   93SAPE   H3Y 9201   0.892   1.550   6.278 -0.0282 -0.0287  0.5197
   93SAPE   C34 9202   0.872   1.552   6.066  0.1157  0.2080 -0.5633
   93SAPE   H4X 9203   0.772   1.508   6.088  0.2142  0.0323 -0.4634
   93SAPE   H4Y 9204   0.943   1.470   6.044  0.0669 -0.0748  0.3176
   93SAPE   C35 9205   0.874   1.645   5.946 -0.0528  0.2265 -0.1811
   93SAPE   H5X 9206   0.981   1.672   5.937  0.0349  0.1096  0.4989
   93SAPE   H5Y 9207   0.807   1.732   5.956  0.1322  0.2738  0.7494
   93SAPE   C36 9208   0.846   1.581   5.808 -0.0010  0.1008 -0.3820
   93SAPE   H6X 9209   0.743   1.538   5.802  0.0249 -0.3029  1.3785
   93SAPE   H6Y 9210   0.911   1.491   5.807 -0.1339 -0.1259  2.2991
   93SAPE   C37 9211   0.873   1.676   5.698  0.4516  0.1823 -0.3114
   93SAPE   H7X 9212   0.984   1.689   5.696  0.4713  0.0119 -0.3837
   93SAPE   H7Y 9213   0.815   1.767   5.723  1.4146  0.0704  2.6103
   93SAPE   C38 9214   0.823   1.623   5.562  0.2045 -0.2020 -0.3589
   93SAPE   H8X 9215   0.713   1.605   5.556  0.1020  0.2519  0.0642
   93SAPE   H8Y 9216   0.874   1.526   5.545 -0.8396 -0.5641 -1.5959
   93SAPE   C39 9217   0.862   1.730   5.451  0.2578 -0.1422  0.6232
   93SAPE   H9X 9218   0.973   1.735   5.444  0.3323 -1.0282  1.0514
   93SAPE   H9Y 9219   0.818   1.828   5.477  0.3581  0.5597 -1.6315
   93SAPE  C310 9220   0.819   1.691   5.310  0.3763 -0.0719 -0.0882
   93SAPE  H10X 9221   0.709   1.702   5.312  0.6334  3.5548  0.7001
   93SAPE  H10Y 9222   0.857   1.593   5.273 -0.6125 -0.9816  1.2300
   93SAPE  C311 9223   0.866   1.809   5.220  0.2255 -0.0546 -0.2493
   93SAPE  H11X 9224   0.975   1.793   5.213  0.4047  0.7636  0.4455
   93SAPE  H11Y 9225   0.843   1.904   5.274  1.1825  0.1901 -0.2646
   93SAPE  C312 9226   0.813   1.820   5.076  0.5747 -0.3840  0.6504
   93SAPE  H12X 9227   0.846   1.910   5.020  0.3344  0.0233  1.1550
   93SAPE  H12Y 9228   0.703   1.831   5.086 -0.0486 -3.3989 -1.6793
   93SAPE  C313 9229   0.840   1.705   4.978  0.6214  0.2219 -0.1345
   93SAPE  H13X 9230   0.785   1.617   5.018 -0.9203  0.5650 -1.4066
   93SAPE  H13Y 9231   0.950   1.693   4.968  0.6124 -3.0400  1.9617
   93SAPE  C314 9232   0.774   1.739   4.840  0.3720 -0.1741  0.1226
   93SAPE  H14X 9233   0.810   1.841   4.812  2.9454 -0.3652  2.3389
   93SAPE  H14Y 9234   0.664   1.734   4.850  0.6321 -1.6217  3.1924
   93SAPE  C315 9235   0.813   1.636   4.733  0.2236 -0.0803  0.0872
   93SAPE  H15X 9236   0.920   1.609   4.738  0.0299 -0.9768 -0.4194
   93SAPE  H15Y 9237   0.798   1.657   4.625  2.5796  0.6270 -0.1647
   93SAPE  C316 9238   0.736   1.502   4.750  0.2365  0.3504  0.3525
   93SAPE  H16X 9239   0.628   1.526   4.752  0.1747  0.6830 -2.4945
   93SAPE  H16Y 9240   0.760   1.449   4.844 -0.6669  0.8467  0.8701
   93SAPE  C317 9241   0.763   1.388   4.648 -0.0159  0.2917  0.3579
   93SAPE  H17X 9242   0.789   1.427   4.547  0.5352  0.9907  0.7539
   93SAPE  H17Y 9243   0.671   1.329   4.633 -0.9010  1.3318  1.4715
   93SAPE  C318 9244   0.859   1.293   4.709 -0.1832 -0.0997  0.7160
   93SAPE  H18X 9245   0.820   1.226   4.789 -0.2353 -1.6665 -0.5580
   93SAPE  H18Y 9246   0.936   1.361   4.750  1.4326 -0.6821 -1.1665
   93SAPE  H18Z 9247   0.913   1.225   4.639  1.1582  0.3173  1.3228
   94SAPE     N 9248   6.630   3.029   6.304  0.3364  0.2351  0.0739
   94SAPE   HN1 9249   6.610   2.959   6.377  2.9808 -0.1583  0.5217
   94SAPE   HN2 9250   6.658   3.102   6.373  3.0951  0.1602 -0.8314
   94SAPE   HN3 9251   6.552   3.060   6.243  0.2037  2.5921  1.3107
   94SAPE   C12 9252   6.745   2.975   6.219 -0.6409  0.1871  0.1276
   94SAPE  H12A 9253   6.798   3.065   6.181  1.8773  0.4909  3.7543
   94SAPE  H12B 9254   6.700   2.909   6.142  0.1495  1.7049 -1.7217
   94SAPE   C11 9255   6.844   2.902   6.315 -0.5378  0.0853  0.3604
   94SAPE  H11A 9256   6.941   2.885   6.264  1.1484  4.0645  1.8507
   94SAPE  H11B 9257   6.808   2.799   6.332 -3.6654  0.2011 -3.7969
   94SAPE     P 9258   6.986   3.054   6.459 -0.0585 -0.4000 -0.1122
   94SAPE   O13 9259   6.979   3.174   6.369  0.6541  0.5438 -0.2860
   94SAPE   O14 9260   7.013   3.083   6.598  0.0486 -0.0956 -0.3708
   94SAPE   O12 9261   6.859   2.967   6.440 -0.7060 -0.5257 -0.4750
   94SAPE   O11 9262   7.105   2.961   6.403 -0.1414 -0.2007  0.1345
   94SAPE    C1 9263   7.131   2.826   6.436 -0.2794 -0.3855 -0.2844
   94SAPE    HA 9264   7.145   2.822   6.546 -3.0755  1.8449  0.2488
   94SAPE    HB 9265   7.048   2.755   6.417 -0.7096 -1.1970  3.8419
   94SAPE    C2 9266   7.262   2.767   6.369 -0.2761  0.2521  0.0501
   94SAPE    HS 9267   7.345   2.835   6.398 -0.6258  1.6346 -1.9843
   94SAPE   O21 9268   7.236   2.769   6.224 -0.5600 -0.4078  0.0069
   94SAPE   C21 9269   7.309   2.847   6.155 -0.6826 -0.1783 -0.4926
   94SAPE   O22 9270   7.391   2.929   6.193 -0.7153  1.0752  0.3468
   94SAPE   C22 9271   7.275   2.816   6.007  0.3443  0.2762  0.1017
   94SAPE   H2R 9272   7.354   2.876   5.956  2.4874  0.1136  2.9218
   94SAPE   H2S 9273   7.282   2.707   5.988 -0.3882  0.4590 -1.3171
   94SAPE    C3 9274   7.289   2.629   6.428 -0.7467  0.2011  0.0448
   94SAPE    HX 9275   7.194   2.573   6.416 -0.7543 -0.4002  2.4303
   94SAPE    HY 9276   7.305   2.639   6.538 -2.1407  0.9503  0.2083
   94SAPE   O31 9277   7.392   2.553   6.370 -0.0147 -1.0915  0.2083
   94SAPE   C31 9278   7.520   2.588   6.380 -0.1729 -0.5657  0.1710
   94SAPE   O32 9279   7.565   2.679   6.450  0.3212  0.9965  0.3522
   94SAPE   C32 9280   7.618   2.487   6.308  0.4229 -0.8122 -0.2979
   94SAPE   H2X 9281   7.634   2.397   6.372  2.6324  0.0555  0.4766
   94SAPE   H2Y 9282   7.715   2.538   6.291  0.4533 -0.6372  0.3591
   94SAPE   C23 9283   7.139   2.876   5.967 -0.3870  0.2121  0.4631
   94SAPE   H3R 9284   7.138   2.889   5.857 -2.1535  1.0473  0.5344
   94SAPE   H3S 9285   7.124   2.970   6.025  1.0135  0.2433  0.8026
   94SAPE   C24 9286   7.019   2.788   5.994  0.4693  0.0155  0.4337
   94SAPE   H4R 9287   6.947   2.872   6.008 -0.8325 -0.6184 -1.9880
   94SAPE   H4S 9288   7.036   2.727   6.085 -0.1592 -2.7790 -1.1964
   94SAPE   C25 9289   6.988   2.696   5.880  0.2262  0.7067  0.0829
   94SAPE   H5R 9290   7.039   2.599   5.886 -0.6739  0.1553 -0.8991
   94SAPE   C26 9291   6.917   2.721   5.770  0.3230 -0.1761  0.0557
   94SAPE   H6R 9292   6.896   2.650   5.689 -0.9818  0.3038 -0.0510
   94SAPE   C27 9293   6.850   2.853   5.744 -0.1001 -0.1034 -0.0017
   94SAPE   H7R 9294   6.895   2.913   5.662 -3.7977  3.4381  0.2397
   94SAPE   H7S 9295   6.862   2.918   5.833  0.2637 -0.9662  0.5948
   94SAPE   C28 9296   6.701   2.837   5.730  0.5760 -0.0926  0.7001
   94SAPE   H8R 9297   6.634   2.849   5.817  0.6205  1.4378  0.5403
   94SAPE   C29 9298   6.636   2.802   5.615 -0.1762 -0.2968 -0.1022
   94SAPE   H9R 9299   6.526   2.801   5.615 -0.1748 -0.4538 -0.3550
   94SAPE  C210 9300   6.699   2.789   5.483  0.3269 -0.3151 -0.4667
   94SAPE  H10R 9301   6.768   2.702   5.489 -1.5300 -1.7743  2.2617
   94SAPE  H10S 9302   6.771   2.873   5.472 -1.6945  1.4575 -0.7882
   94SAPE  C211 9303   6.594   2.796   5.373 -0.5265  0.6269  0.2694
   94SAPE  H11R 9304   6.487   2.801   5.399 -0.4467  0.7199  0.5732
   94SAPE  C212 9305   6.625   2.793   5.240  1.3267 -0.3153 -0.3005
   94SAPE  H12R 9306   6.540   2.800   5.171 -0.3153 -2.0821  1.4415
   94SAPE  C213 9307   6.759   2.778   5.176 -0.7325  0.8863 -0.1650
   94SAPE  H13R 9308   6.745   2.695   5.104  0.7703  0.3268  0.1622
   94SAPE  H13S 9309   6.837   2.739   5.245  0.4894  0.8207 -1.5501
   94SAPE  C214 9310   6.805   2.906   5.108  0.0502 -0.6221 -0.1831
   94SAPE  H14R 9311   6.829   2.992   5.171  2.0031  2.2965 -4.4558
   94SAPE  C215 9312   6.821   2.923   4.974  0.5231 -0.2036  0.1585
   94SAPE  H15R 9313   6.830   3.028   4.944 -1.1557 -0.7827 -2.6926
   94SAPE  C216 9314   6.820   2.812   4.867  0.6468 -0.3445 -0.2790
   94SAPE  H16R 9315   6.801   2.850   4.764 -1.6093  0.6671  0.4648
   94SAPE  H16S 9316   6.731   2.748   4.882  1.1837 -0.7047  1.5966
   94SAPE  C217 9317   6.957   2.735   4.854 -0.0467  0.3590  0.2347
   94SAPE  H17R 9318   6.943   2.644   4.791  0.9412 -0.6725  1.4600
   94SAPE  H17S 9319   6.998   2.711   4.955  1.6387  0.6991 -0.3381
   94SAPE  C218 9320   7.069   2.819   4.785 -0.0439 -0.9724  0.4612
   94SAPE  H18R 9321   7.069   2.926   4.817  2.3956 -0.3524 -1.2526
   94SAPE  H18S 9322   7.048   2.835   4.677  2.8890 -1.5785 -0.2911
   94SAPE  C219 9323   7.210   2.766   4.805 -0.0927 -0.1183  0.3626
   94SAPE  H19R 9324   7.198   2.656   4.797  2.0777 -0.4730  1.2737
   94SAPE  H19S 9325   7.239   2.792   4.909  1.5354 -0.8101  0.1046
   94SAPE  C220 9326   7.317   2.804   4.702 -0.2193  0.8950 -0.2978
   94SAPE  H20R 9327   7.299   2.750   4.607  3.2191 -0.1252 -0.4937
   94SAPE  H20S 9328   7.414   2.764   4.741 -1.0205 -2.0596 -1.1309
   94SAPE  H20T 9329   7.314   2.915   4.690  0.3183  0.8468 -0.9032
   94SAPE   C33 9330   7.561   2.449   6.162 -0.0376  0.2446 -0.7990
   94SAPE   H3X 9331   7.463   2.399   6.174  0.0210  0.1876 -0.5530
   94SAPE   H3Y 9332   7.635   2.376   6.123  0.2233  0.2796 -0.3741
   94SAPE   C34 9333   7.565   2.569   6.066  0.0948  0.1631  0.0635
   94SAPE   H4X 9334   7.671   2.593   6.045 -0.5849  2.6753 -0.8517
   94SAPE   H4Y 9335   7.531   2.667   6.107 -1.2656  0.2786 -1.2645
   94SAPE   C35 9336   7.483   2.531   5.941 -0.2311  0.6156  0.0555
   94SAPE   H5X 9337   7.488   2.615   5.869 -0.5441  0.1972 -0.4629
   94SAPE   H5Y 9338   7.380   2.503   5.970 -0.1534  1.3559  1.0990
   94SAPE   C36 9339   7.543   2.416   5.848  0.3182 -0.6170 -0.7221
   94SAPE   H6X 9340   7.495   2.321   5.877  1.3015 -1.0505 -0.4680
   94SAPE   H6Y 9341   7.651   2.416   5.873 -0.3518 -2.6254  2.8081
   94SAPE   C37 9342   7.511   2.447   5.702  0.6693 -0.3385 -0.7345
   94SAPE   H7X 9343   7.559   2.372   5.636  1.2729 -3.0060  2.4384
   94SAPE   H7Y 9344   7.556   2.541   5.665 -0.4869 -0.1009 -1.6021
   94SAPE   C38 9345   7.359   2.459   5.673 -0.0838  0.6782 -0.1193
   94SAPE   H8X 9346   7.318   2.556   5.709 -2.5427 -1.3140  3.0969
   94SAPE   H8Y 9347   7.300   2.375   5.715 -0.9918 -0.6121 -3.6641
   94SAPE   C39 9348   7.330   2.447   5.522 -0.2443 -0.0433 -0.0447
   94SAPE   H9X 9349   7.360   2.343   5.498 -1.7690 -1.3721  3.1833
   94SAPE   H9Y 9350   7.378   2.526   5.460  1.7656 -0.6742  0.6373
   94SAPE  C310 9351   7.177   2.447   5.498 -0.3406 -0.7952  0.0917
   94SAPE  H10X 9352   7.128   2.542   5.528  0.6014 -0.3689  0.3287
   94SAPE  H10Y 9353   7.137   2.364   5.559 -1.9495  0.6389  1.0533
   94SAPE  C311 9354   7.154   2.423   5.345  0.0910  0.0794 -0.0455
   94SAPE  H11X 9355   7.195   2.324   5.318 -2.0469 -0.5500 -1.3082
   94SAPE  H11Y 9356   7.206   2.493   5.276 -0.8026 -0.0354 -0.8691
   94SAPE  C312 9357   6.995   2.445   5.327 -0.4146 -0.3772 -0.3051
   94SAPE  H12X 9358   6.965   2.547   5.360  1.2556 -0.4837  1.7136
   94SAPE  H12Y 9359   6.942   2.373   5.392 -0.4272 -0.5146 -0.4651
   94SAPE  C313 9360   6.946   2.421   5.185  0.6554 -0.4298  0.0677
   94SAPE  H13X 9361   7.013   2.486   5.125  1.5252 -0.6217  0.8266
   94SAPE  H13Y 9362   6.845   2.464   5.167  0.8555  0.7196  1.5377
   94SAPE  C314 9363   6.956   2.284   5.126  0.8209  0.2390 -0.0896
   94SAPE  H14X 9364   6.883   2.227   5.188 -1.2802  3.8596  1.0637
   94SAPE  H14Y 9365   7.053   2.230   5.128 -1.0719 -3.5169  0.0053
   94SAPE  C315 9366   6.915   2.281   4.977 -0.2095  0.5372  0.2841
   94SAPE  H15X 9367   6.990   2.347   4.928  1.6719 -1.3206  0.4966
   94SAPE  H15Y 9368   6.822   2.342   4.980  0.2109  1.3565 -1.5868
   94SAPE  C316 9369   6.904   2.142   4.919  0.0344 -0.1191  0.3490
   94SAPE  H16X 9370   6.841   2.078   4.984 -0.7303  0.1751 -0.0794
   94SAPE  H16Y 9371   7.011   2.112   4.916  0.1810  0.3810  0.4828
   94SAPE  C317 9372   6.842   2.151   4.784 -0.3072 -0.3560 -0.3885
   94SAPE  H17X 9373   6.863   2.250   4.737  0.7986 -0.5095 -0.2373
   94SAPE  H17Y 9374   6.731   2.144   4.790 -0.3447  1.0609  1.1629
   94SAPE  C318 9375   6.883   2.038   4.688  0.4910  0.2790  0.9225
   94SAPE  H18X 9376   6.872   1.941   4.739  0.2440 -0.5291 -0.5990
   94SAPE  H18Y 9377   6.990   2.058   4.663  0.4374  2.0344  1.9141
   94SAPE  H18Z 9378   6.825   2.026   4.594  2.8930  0.4899 -0.7058
   95SAPE     N 9379   5.414   1.808   6.633  0.1931 -0.1731 -0.6567
   95SAPE   HN1 9380   5.334   1.867   6.664 -1.8214 -0.9618 -3.9069
   95SAPE   HN2 9381   5.491   1.807   6.703  1.2777  0.5198 -1.7914
   95SAPE   HN3 9382   5.455   1.835   6.542  1.0464  0.0650 -0.2138
   95SAPE   C12 9383   5.352   1.669   6.616  0.0772 -0.3750 -0.1216
   95SAPE  H12A 9384   5.425   1.586   6.614  0.0873 -0.3665 -0.1041
   95SAPE  H12B 9385   5.297   1.674   6.520  0.9021  1.8226 -0.5452
   95SAPE   C11 9386   5.256   1.653   6.736 -0.1253 -0.1667  0.3654
   95SAPE  H11A 9387   5.326   1.649   6.822  0.4461  0.0527 -0.0811
   95SAPE  H11B 9388   5.204   1.555   6.733  0.1407 -0.2841 -0.5675
   95SAPE     P 9389   5.022   1.771   6.710  0.2262  0.0677  0.1153
   95SAPE   O13 9390   4.962   1.650   6.761  0.0178  0.5851 -0.2335
   95SAPE   O14 9391   4.969   1.903   6.743 -0.3544  0.3410  0.8306
   95SAPE   O12 9392   5.173   1.766   6.760 -0.0951  0.2127  0.3680
   95SAPE   O11 9393   5.041   1.771   6.547  0.1278  1.1902 -0.5815
   95SAPE    C1 9394   5.049   1.883   6.468  0.0870 -0.3282  0.2103
   95SAPE    HA 9395   5.093   1.971   6.520 -0.2728  1.1513 -1.8439
   95SAPE    HB 9396   5.116   1.854   6.384  0.1412 -3.7468  1.2901
   95SAPE    C2 9397   4.919   1.919   6.404  0.5190 -0.0477  0.1494
   95SAPE    HS 9398   4.849   1.939   6.488 -0.2569 -0.8602 -0.2843
   95SAPE   O21 9399   4.875   1.808   6.325 -0.2369  0.0751  0.0247
   95SAPE   C21 9400   4.740   1.798   6.325 -0.2429  0.0666 -1.0903
   95SAPE   O22 9401   4.659   1.877   6.376 -0.6972  0.4711 -0.5859
   95SAPE   C22 9402   4.695   1.672   6.253 -0.7164 -0.0265  0.2729
   95SAPE   H2R 9403   4.777   1.616   6.204 -1.3259  0.2118 -1.0957
   95SAPE   H2S 9404   4.633   1.610   6.322 -0.6422 -1.8775 -1.2308
   95SAPE    C3 9405   4.929   2.054   6.321  0.1777  0.5488 -0.3619
   95SAPE    HX 9406   5.026   2.048   6.267  0.3451 -1.1377  0.0802
   95SAPE    HY 9407   4.934   2.127   6.404  1.7446  1.9188 -1.5840
   95SAPE   O31 9408   4.815   2.067   6.227 -0.2841 -0.6607 -0.1237
   95SAPE   C31 9409   4.720   2.151   6.258  0.5132 -0.3259 -0.1114
   95SAPE   O32 9410   4.718   2.210   6.368  0.0866  0.3838 -0.5382
   95SAPE   C32 9411   4.607   2.167   6.159 -0.0692  0.0318  0.2940
   95SAPE   H2X 9412   4.555   2.264   6.173 -0.8106 -0.1657 -0.9959
   95SAPE   H2Y 9413   4.534   2.087   6.185 -0.4290 -0.0546 -0.9410
   95SAPE   C23 9414   4.603   1.709   6.136  0.0849 -0.3471 -0.3712
   95SAPE   H3R 9415   4.532   1.789   6.166  0.3067 -1.0406  2.2263
   95SAPE   H3S 9416   4.535   1.626   6.108  0.5760 -0.2437 -2.0122
   95SAPE   C24 9417   4.674   1.751   6.009 -0.2019  0.6232  0.1818
   95SAPE   H4R 9418   4.755   1.816   6.049  0.7541  0.5842 -1.5808
   95SAPE   H4S 9419   4.614   1.826   5.954  1.7109  1.1984 -1.2033
   95SAPE   C25 9420   4.726   1.633   5.930 -0.8614  0.0180  0.8057
   95SAPE   H5R 9421   4.781   1.563   5.994 -1.1991  0.9423  2.1681
   95SAPE   C26 9422   4.685   1.589   5.806 -0.0819  0.4808 -0.5511
   95SAPE   H6R 9423   4.706   1.491   5.761  2.2260  0.8787 -0.4955
   95SAPE   C27 9424   4.571   1.665   5.731  0.2838 -0.0236  0.0032
   95SAPE   H7R 9425   4.584   1.655   5.621  2.1705 -0.4171  0.2362
   95SAPE   H7S 9426   4.583   1.773   5.755 -2.1343  0.2763  0.1165
   95SAPE   C28 9427   4.435   1.600   5.768  0.0068 -0.5047 -0.7296
   95SAPE   H8R 9428   4.421   1.616   5.876 -1.9002  1.2226 -1.1740
   95SAPE   C29 9429   4.329   1.564   5.692  0.7016 -0.1142 -0.3749
   95SAPE   H9R 9430   4.240   1.523   5.741  1.3917  0.6664  1.6102
   95SAPE  C210 9431   4.325   1.557   5.541 -0.4659 -0.5314 -0.1228
   95SAPE  H10R 9432   4.289   1.455   5.518 -1.0939 -0.9322  2.3048
   95SAPE  H10S 9433   4.424   1.566   5.493 -0.8322  2.1521 -0.5490
   95SAPE  C211 9434   4.235   1.657   5.479 -0.4361 -0.5114  0.7788
   95SAPE  H11R 9435   4.266   1.757   5.514  2.3695  0.2572 -3.2721
   95SAPE  C212 9436   4.115   1.639   5.420  0.2961 -0.0743  0.1074
   95SAPE  H12R 9437   4.063   1.725   5.374  0.3149  0.6752  1.4456
   95SAPE  C213 9438   4.058   1.501   5.384  0.2419 -0.8395 -0.8676
   95SAPE  H13R 9439   3.947   1.505   5.393  0.2862  1.8422 -0.7043
   95SAPE  H13S 9440   4.095   1.427   5.458  0.3152 -0.0233 -0.0768
   95SAPE  C214 9441   4.104   1.463   5.240  0.6899 -0.3595  0.2531
   95SAPE  H14R 9442   4.210   1.433   5.234  1.2138  1.4544 -0.2772
   95SAPE  C215 9443   4.026   1.431   5.130  0.0586  0.3045  0.3491
   95SAPE  H15R 9444   4.081   1.405   5.038  0.4350  1.9054  0.0855
   95SAPE  C216 9445   3.878   1.443   5.110  0.6303 -0.3333 -0.1123
   95SAPE  H16R 9446   3.867   1.552   5.092  1.6006 -0.0538  0.9034
   95SAPE  H16S 9447   3.836   1.398   5.202  2.2576 -0.6912  0.4739
   95SAPE  C217 9448   3.839   1.355   4.995  0.6161  0.1417 -0.0118
   95SAPE  H17R 9449   3.735   1.389   4.972  0.9309  1.9325  1.0074
   95SAPE  H17S 9450   3.836   1.248   5.024 -0.9704 -0.5186 -2.3205
   95SAPE  C218 9451   3.919   1.371   4.862 -0.3754 -0.2085 -0.1169
   95SAPE  H18R 9452   4.015   1.317   4.876  1.0063  1.6456 -1.8320
   95SAPE  H18S 9453   3.940   1.480   4.852 -2.4023  0.4514  1.8959
   95SAPE  C219 9454   3.866   1.320   4.735 -0.2554  0.7575 -0.2671
   95SAPE  H19R 9455   3.766   1.366   4.720 -1.1230 -0.4720  1.3668
   95SAPE  H19S 9456   3.841   1.212   4.736 -2.3836  1.2209 -0.2459
   95SAPE  C220 9457   3.955   1.331   4.616  0.8603 -0.6531 -0.1557
   95SAPE  H20R 9458   3.994   1.431   4.591 -0.6939 -0.0640 -0.3516
   95SAPE  H20S 9459   3.900   1.282   4.533  0.6955 -1.0538  0.1845
   95SAPE  H20T 9460   4.052   1.285   4.644  1.1756  0.3474  0.4350
   95SAPE   C33 9461   4.659   2.153   6.016 -0.1432  0.0919 -0.4137
   95SAPE   H3X 9462   4.731   2.070   5.999 -0.0968  0.2853 -1.2004
   95SAPE   H3Y 9463   4.704   2.248   5.979 -0.7519  1.0784  1.2587
   95SAPE   C34 9464   4.534   2.133   5.927  0.1286  0.0046  0.6526
   95SAPE   H4X 9465   4.480   2.224   5.960  0.4923 -0.4246  2.5723
   95SAPE   H4Y 9466   4.473   2.044   5.955 -1.8269  1.4434  1.2000
   95SAPE   C35 9467   4.575   2.124   5.784  0.6706  0.3331  0.7295
   95SAPE   H5X 9468   4.653   2.045   5.785 -0.1727 -0.5336  0.1440
   95SAPE   H5Y 9469   4.635   2.210   5.749  1.9136 -1.3051 -1.4107
   95SAPE   C36 9470   4.458   2.104   5.694  0.0894  0.4572 -0.3655
   95SAPE   H6X 9471   4.371   2.163   5.732 -1.1634 -0.4154 -1.7740
   95SAPE   H6Y 9472   4.428   1.998   5.698  0.3911  0.3714 -0.3748
   95SAPE   C37 9473   4.482   2.153   5.547  0.2368  0.1296  0.4814
   95SAPE   H7X 9474   4.564   2.092   5.503 -0.5879  0.5920 -1.8196
   95SAPE   H7Y 9475   4.500   2.263   5.549 -1.9685  0.5399  0.5417
   95SAPE   C38 9476   4.365   2.133   5.457 -0.4038 -0.3595  0.7442
   95SAPE   H8X 9477   4.274   2.160   5.514  0.6101 -1.3475  2.9769
   95SAPE   H8Y 9478   4.360   2.023   5.441  1.4037 -0.4680  0.6265
   95SAPE   C39 9479   4.378   2.209   5.321  0.3972 -0.1099  0.4265
   95SAPE   H9X 9480   4.376   2.317   5.343 -1.2913 -0.3603  1.7051
   95SAPE   H9Y 9481   4.286   2.191   5.261  0.7097  0.3043 -0.1835
   95SAPE  C310 9482   4.496   2.175   5.228 -0.2341 -0.1501  0.6014
   95SAPE  H10X 9483   4.491   2.067   5.202 -1.6134  0.0574 -0.1084
   95SAPE  H10Y 9484   4.587   2.205   5.284  1.3900  1.3395 -2.5649
   95SAPE  C311 9485   4.484   2.248   5.096 -0.1612 -0.9490  0.2143
   95SAPE  H11X 9486   4.582   2.270   5.050  0.4072  0.5133  2.0381
   95SAPE  H11Y 9487   4.445   2.347   5.126  0.1447 -0.3236 -1.3310
   95SAPE  C312 9488   4.388   2.185   4.997  0.4482  0.1348 -0.3849
   95SAPE  H12X 9489   4.296   2.153   5.050  0.0516 -1.3150 -1.8643
   95SAPE  H12Y 9490   4.437   2.094   4.957  0.2013 -0.3374  0.3678
   95SAPE  C313 9491   4.349   2.276   4.888  0.2169 -0.7344  0.9855
   95SAPE  H13X 9492   4.445   2.319   4.851 -0.4852 -0.2429 -0.3267
   95SAPE  H13Y 9493   4.283   2.360   4.917  0.9702 -0.4651  1.9854
   95SAPE  C314 9494   4.300   2.217   4.760  0.2014  0.0581  0.1893
   95SAPE  H14X 9495   4.195   2.187   4.778 -0.3513  0.6921 -1.6839
   95SAPE  H14Y 9496   4.347   2.122   4.727 -1.0191 -0.0453 -1.3847
   95SAPE  C315 9497   4.283   2.317   4.633 -0.1246  0.4220 -0.5712
   95SAPE  H15X 9498   4.235   2.406   4.678 -1.6266 -1.1975  1.1676
   95SAPE  H15Y 9499   4.211   2.268   4.564 -1.6452  0.5275  0.8779
   95SAPE  C316 9500   4.421   2.359   4.563 -0.4149 -0.3569  0.1226
   95SAPE  H16X 9501   4.491   2.409   4.634 -0.5645  0.4623 -0.3065
   95SAPE  H16Y 9502   4.389   2.437   4.491 -0.1681  0.4766  0.8932
   95SAPE  C317 9503   4.494   2.246   4.493 -0.2215  0.6117 -0.5515
   95SAPE  H17X 9504   4.555   2.198   4.572  0.2966  0.6380 -0.9284
   95SAPE  H17Y 9505   4.558   2.288   4.412 -0.7684  0.1079 -1.2588
   95SAPE  C318 9506   4.401   2.140   4.428  0.0299 -0.0928  0.1274
   95SAPE  H18X 9507   4.376   2.071   4.512  0.5878  1.3673  1.5567
   95SAPE  H18Y 9508   4.452   2.081   4.349 -0.0264  0.0190  0.0079
   95SAPE  H18Z 9509   4.308   2.179   4.383 -1.0308 -1.0777  1.3626
   96SAPE     N 9510   5.637   3.148   6.490 -0.6976 -0.3204 -0.6298
   96SAPE   HN1 9511   5.601   3.223   6.428 -0.8204 -1.3266 -1.8286
   96SAPE   HN2 9512   5.558   3.080   6.501 -0.6590 -0.2702 -0.0457
   96SAPE   HN3 9513   5.670   3.187   6.580  0.7312 -2.8872  0.0425
   96SAPE   C12 9514   5.746   3.085   6.420 -0.2808  0.1095  0.1571
   96SAPE  H12A 9515   5.706   3.053   6.321 -0.1188  1.3157 -0.3088
   96SAPE  H12B 9516   5.770   2.993   6.478 -0.8209  0.6391  1.2275
   96SAPE   C11 9517   5.860   3.183   6.413 -0.3552  0.1996 -0.3250
   96SAPE  H11A 9518   5.857   3.252   6.326 -0.2405 -0.7701 -1.1123
   96SAPE  H11B 9519   5.948   3.121   6.387  0.7685  2.2463 -1.6971
   96SAPE     P 9520   5.972   3.377   6.550  0.3854 -0.1230  0.0658
   96SAPE   O13 9521   5.920   3.468   6.656  0.1608  0.0916 -0.7684
   96SAPE   O14 9522   6.107   3.320   6.559  0.0919 -0.7698 -0.2092
   96SAPE   O12 9523   5.865   3.260   6.540  0.2926 -0.6640  0.0118
   96SAPE   O11 9524   5.969   3.443   6.407 -0.2929  0.0243  0.0632
   96SAPE    C1 9525   6.046   3.560   6.375 -0.1976  0.5497 -0.0286
   96SAPE    HA 9526   6.058   3.628   6.462  3.4827  0.3933 -0.2554
   96SAPE    HB 9527   6.151   3.535   6.351  0.4335  1.2407  1.8051
   96SAPE    C2 9528   5.981   3.628   6.258  0.9729  0.3083  0.5292
   96SAPE    HS 9529   5.871   3.631   6.266  0.8688  0.1076 -0.6108
   96SAPE   O21 9530   6.018   3.554   6.144 -0.5281 -0.2324  0.0975
   96SAPE   C21 9531   5.932   3.470   6.100  0.1252 -0.1112  0.5062
   96SAPE   O22 9532   5.819   3.451   6.143 -0.5196  0.2862 -0.0295
   96SAPE   C22 9533   5.988   3.389   5.980  0.0680 -0.5027  0.8501
   96SAPE   H2R 9534   6.096   3.409   5.965 -0.3160 -0.1397 -1.9191
   96SAPE   H2S 9535   5.981   3.282   6.007 -0.9816 -0.9663 -1.1005
   96SAPE    C3 9536   6.027   3.776   6.249  0.1580 -0.5474  0.6507
   96SAPE    HX 9537   6.138   3.783   6.245  0.1414 -0.8641 -0.9325
   96SAPE    HY 9538   5.993   3.821   6.344 -1.2195  1.7303 -0.8337
   96SAPE   O31 9539   5.969   3.840   6.132 -0.6540 -0.3285  0.2220
   96SAPE   C31 9540   5.857   3.913   6.150  0.0188  0.7287 -0.0286
   96SAPE   O32 9541   5.791   3.913   6.252 -0.4737  0.3733  0.3343
   96SAPE   C32 9542   5.822   4.003   6.030 -0.4635  0.0548  0.0481
   96SAPE   H2X 9543   5.785   4.087   6.093 -1.1622 -0.6063  0.5358
   96SAPE   H2Y 9544   5.729   3.961   5.986 -0.0399  1.0555 -1.9092
   96SAPE   C23 9545   5.912   3.419   5.843 -0.3376 -0.2163 -0.0593
   96SAPE   H3R 9546   5.804   3.392   5.851 -0.7433  0.2582 -3.0025
   96SAPE   H3S 9547   5.951   3.355   5.761 -1.7160 -0.7757 -0.3052
   96SAPE   C24 9548   5.899   3.569   5.810 -0.0637 -0.1427 -0.5099
   96SAPE   H4R 9549   5.845   3.613   5.896  1.2740 -0.7808  0.7086
   96SAPE   H4S 9550   5.838   3.567   5.718  0.1643  1.3154 -0.7115
   96SAPE   C25 9551   6.029   3.634   5.783 -0.3764 -0.0550 -0.1386
   96SAPE   H5R 9552   6.088   3.670   5.868  2.0683 -2.3469 -0.7574
   96SAPE   C26 9553   6.083   3.665   5.660  0.0899  0.0141 -1.0731
   96SAPE   H6R 9554   6.177   3.723   5.656  2.0637 -2.3780  3.4468
   96SAPE   C27 9555   6.028   3.633   5.522 -0.1415  0.0527 -1.0495
   96SAPE   H7R 9556   5.993   3.727   5.474 -2.4476 -0.3531 -0.2909
   96SAPE   H7S 9557   5.938   3.570   5.541 -0.7784  1.5804  1.4800
   96SAPE   C28 9558   6.137   3.560   5.447  0.1852 -0.5354  0.0210
   96SAPE   H8R 9559   6.161   3.459   5.483 -1.5450 -1.4497 -1.2385
   96SAPE   C29 9560   6.176   3.591   5.321 -0.4612 -0.0449  0.2999
   96SAPE   H9R 9561   6.252   3.527   5.273  0.1624  1.9374 -1.5492
   96SAPE  C210 9562   6.137   3.708   5.228  0.1138 -0.0524 -0.8433
   96SAPE  H10R 9563   6.233   3.758   5.204 -0.2313  0.5149 -1.0455
   96SAPE  H10S 9564   6.061   3.774   5.275 -1.3751 -0.7380 -2.1788
   96SAPE  C211 9565   6.076   3.650   5.099  0.4690 -0.2709 -0.0748
   96SAPE  H11R 9566   6.039   3.547   5.092 -1.1908  0.3990 -1.8078
   96SAPE  C212 9567   6.093   3.713   4.983 -0.0505 -0.5839  0.8715
   96SAPE  H12R 9568   6.052   3.657   4.897  1.3915 -1.7832  0.9294
   96SAPE  C213 9569   6.138   3.857   4.951 -0.6585 -0.0202  1.0909
   96SAPE  H13R 9570   6.211   3.858   4.867  0.6411 -1.6865  2.1222
   96SAPE  H13S 9571   6.193   3.904   5.036 -1.4181  0.4125  1.3483
   96SAPE  C214 9572   6.015   3.935   4.907 -0.4631 -0.6227  0.4782
   96SAPE  H14R 9573   5.932   3.929   4.979  0.2243  0.4641  1.3910
   96SAPE  C215 9574   6.018   4.028   4.814 -0.4384 -0.4161  0.5348
   96SAPE  H15R 9575   5.929   4.087   4.787  0.3155  0.1706 -0.7091
   96SAPE  C216 9576   6.145   4.064   4.730 -0.8046  0.1441  0.1573
   96SAPE  H16R 9577   6.244   4.023   4.759 -0.1411  0.1614 -1.8993
   96SAPE  H16S 9578   6.147   4.175   4.728  0.5219  0.1557  1.1891
   96SAPE  C217 9579   6.145   4.000   4.587  1.0382  0.3013  0.0409
   96SAPE  H17R 9580   6.242   4.013   4.536  0.9665 -2.2566 -0.9095
   96SAPE  H17S 9581   6.062   4.038   4.523 -1.1475 -1.8022  1.4053
   96SAPE  C218 9582   6.132   3.847   4.585 -0.7133  0.2555  0.7364
   96SAPE  H18R 9583   6.048   3.820   4.653 -0.2894  0.8156  1.5059
   96SAPE  H18S 9584   6.222   3.806   4.636 -0.9341 -2.1740 -0.6702
   96SAPE  C219 9585   6.108   3.785   4.442 -0.2795  0.1186  0.0358
   96SAPE  H19R 9586   6.171   3.823   4.359  1.7241 -2.1478  0.4122
   96SAPE  H19S 9587   6.001   3.806   4.420 -0.2207 -0.2174 -0.5549
   96SAPE  C220 9588   6.134   3.642   4.444 -0.1536  0.5364  0.1581
   96SAPE  H20R 9589   6.065   3.605   4.523 -0.9869  2.3911  0.3466
   96SAPE  H20S 9590   6.234   3.611   4.482 -1.8585 -2.1237  2.9819
   96SAPE  H20T 9591   6.112   3.595   4.346 -0.0755 -1.0376  0.8571
   96SAPE   C33 9592   5.932   4.028   5.938  0.0294 -0.0910 -0.6893
   96SAPE   H3X 9593   5.976   3.949   5.874  0.7422  0.1083 -0.4521
   96SAPE   H3Y 9594   6.018   4.048   6.006 -1.9428  0.3398  1.8183
   96SAPE   C34 9595   5.895   4.147   5.850 -0.1687 -0.2230  0.0847
   96SAPE   H4X 9596   5.885   4.240   5.911 -1.0707  0.4826 -1.0931
   96SAPE   H4Y 9597   5.793   4.128   5.811 -0.6370  2.6142 -0.2723
   96SAPE   C35 9598   5.987   4.174   5.735 -0.5268 -0.1247  0.4103
   96SAPE   H5X 9599   6.094   4.166   5.767 -0.7460 -0.1011  1.1730
   96SAPE   H5Y 9600   5.965   4.278   5.704 -0.7239  0.0119  1.0041
   96SAPE   C36 9601   5.967   4.066   5.637 -0.2752 -0.1074  0.5698
   96SAPE   H6X 9602   5.859   4.056   5.615 -0.5774  2.3736  0.6463
   96SAPE   H6Y 9603   6.010   3.971   5.675 -0.7681 -0.8509 -0.6743
   96SAPE   C37 9604   6.050   4.090   5.506  0.3037 -0.2606  0.3364
   96SAPE   H7X 9605   6.020   4.189   5.466 -0.7396 -0.1821  1.2533
   96SAPE   H7Y 9606   6.023   4.011   5.433  2.3249 -1.0506  0.3793
   96SAPE   C38 9607   6.205   4.078   5.518  0.2248 -0.1137  0.5769
   96SAPE   H8X 9608   6.234   3.985   5.572  1.2067 -0.0904  0.0956
   96SAPE   H8Y 9609   6.232   4.163   5.584 -1.6168  0.6284  0.4429
   96SAPE   C39 9610   6.271   4.089   5.383  0.1421 -0.2898 -0.0378
   96SAPE   H9X 9611   6.269   4.196   5.356  0.4217 -0.4575 -0.7325
   96SAPE   H9Y 9612   6.222   4.025   5.307 -0.3605 -0.9924  0.8524
   96SAPE  C310 9613   6.420   4.058   5.383  0.3842 -0.1767 -0.5401
   96SAPE  H10X 9614   6.462   4.054   5.280 -1.4327 -2.4713 -1.2758
   96SAPE  H10Y 9615   6.449   3.953   5.404  1.5735 -0.0311 -1.3506
   96SAPE  C311 9616   6.504   4.154   5.471 -0.1370  0.1794 -0.6516
   96SAPE  H11X 9617   6.609   4.122   5.452 -1.0078 -3.3158 -0.3066
   96SAPE  H11Y 9618   6.478   4.153   5.579 -0.1500  1.6124 -0.6263
   96SAPE  C312 9619   6.504   4.298   5.420  0.1465  0.9885  0.6142
   96SAPE  H12X 9620   6.399   4.329   5.438  0.1973 -0.0487  3.0067
   96SAPE  H12Y 9621   6.534   4.285   5.313  1.2972  3.0397  0.6187
   96SAPE  C313 9622   6.598   4.400   5.490 -0.0241  0.6309  0.2419
   96SAPE  H13X 9623   6.675   4.335   5.538  0.3551  0.2786 -0.7972
   96SAPE  H13Y 9624   6.545   4.466   5.561  0.4881  0.3608  0.8804
   96SAPE  C314 9625   6.674   4.489   5.383 -0.7688 -0.2659  0.0217
   96SAPE  H14X 9626   6.618   4.581   5.352  1.6019  0.5743 -2.1315
   96SAPE  H14Y 9627   6.689   4.435   5.287 -0.8596 -0.3425  0.0506
   96SAPE  C315 9628   6.803   4.556   5.440 -1.0239  0.4868 -0.2604
   96SAPE  H15X 9629   6.882   4.477   5.437 -0.5818  0.9670 -2.1538
   96SAPE  H15Y 9630   6.774   4.576   5.546  0.4608 -1.8729  0.6939
   96SAPE  C316 9631   6.873   4.674   5.373  0.3289  0.2865  0.8766
   96SAPE  H16X 9632   6.966   4.694   5.432  0.8773 -0.8508  0.4168
   96SAPE  H16Y 9633   6.812   4.767   5.365 -0.7074 -0.5378 -2.4875
   96SAPE  C317 9634   6.920   4.632   5.232 -0.6586  0.0979 -0.5589
   96SAPE  H17X 9635   6.826   4.619   5.174 -1.6627 -1.2253  1.2801
   96SAPE  H17Y 9636   6.983   4.541   5.239  0.7985  1.0439 -0.9880
   96SAPE  C318 9637   6.988   4.752   5.156  0.1736  0.0679  0.3744
   96SAPE  H18X 9638   6.917   4.837   5.157  0.6742  0.6756 -3.1293
   96SAPE  H18Y 9639   7.006   4.733   5.048 -0.0624 -0.3084  0.3972
   96SAPE  H18Z 9640   7.080   4.781   5.210  0.1085  1.4443 -0.2235
   97SAPE     N 9641   6.806   6.078   6.525  0.3094  0.0593 -0.5113
   97SAPE   HN1 9642   6.725   6.021   6.557  0.9937 -0.7301 -0.1517
   97SAPE   HN2 9643   6.832   6.142   6.603  2.1654  0.5675 -1.4777
   97SAPE   HN3 9644   6.779   6.140   6.446  1.0200  1.9491  0.6387
   97SAPE   C12 9645   6.917   5.995   6.487  0.3159  0.1132  0.3989
   97SAPE  H12A 9646   6.893   5.942   6.392 -3.8246  2.0004  0.1816
   97SAPE  H12B 9647   6.930   5.921   6.568  1.0128 -1.1009 -0.7742
   97SAPE   C11 9648   7.041   6.080   6.472 -0.9249  0.5669  0.1610
   97SAPE  H11A 9649   7.032   6.176   6.417  0.3926  1.4554  1.4087
   97SAPE  H11B 9650   7.114   6.021   6.412 -0.4500  1.2879  0.0149
   97SAPE     P 9651   7.251   6.128   6.627 -0.2460  0.2947  0.1780
   97SAPE   O13 9652   7.268   6.236   6.729 -0.0256  0.0228 -0.0818
   97SAPE   O14 9653   7.294   5.995   6.671  0.6257 -0.4710 -0.5584
   97SAPE   O12 9654   7.101   6.120   6.595  0.0517  0.3226 -0.0091
   97SAPE   O11 9655   7.324   6.158   6.492  0.2509  0.5814  0.2206
   97SAPE    C1 9656   7.322   6.285   6.418 -0.1166 -0.4720 -0.2485
   97SAPE    HA 9657   7.248   6.360   6.455 -0.9300 -0.9285 -0.9158
   97SAPE    HB 9658   7.422   6.331   6.428  1.0960 -3.2988  2.5200
   97SAPE    C2 9659   7.286   6.267   6.276 -0.7556  0.0356  0.2670
   97SAPE    HS 9660   7.176   6.253   6.277 -1.0380  1.8616 -0.5343
   97SAPE   O21 9661   7.357   6.152   6.229 -0.2018 -0.3624  0.3693
   97SAPE   C21 9662   7.285   6.056   6.176  0.1615 -0.8019 -0.3221
   97SAPE   O22 9663   7.173   6.067   6.127 -0.4446  0.0981 -0.5377
   97SAPE   C22 9664   7.345   5.916   6.178  0.1279 -0.2145  0.1246
   97SAPE   H2R 9665   7.415   5.913   6.264 -0.1138 -3.0915  0.3138
   97SAPE   H2S 9666   7.260   5.850   6.206  0.8392 -1.2951 -0.2013
   97SAPE    C3 9667   7.332   6.389   6.186 -0.3990 -0.2725  0.4263
   97SAPE    HX 9668   7.441   6.400   6.198 -0.5223  1.3914  0.2246
   97SAPE    HY 9669   7.274   6.476   6.225 -0.4988 -0.5133  0.8309
   97SAPE   O31 9670   7.285   6.371   6.050 -0.0294  0.4221 -0.0850
   97SAPE   C31 9671   7.386   6.328   5.966  0.6085 -0.4578  0.4018
   97SAPE   O32 9672   7.499   6.298   6.002  0.0272 -0.7187 -0.3701
   97SAPE   C32 9673   7.320   6.307   5.820  0.0803 -0.0684  0.3862
   97SAPE   H2X 9674   7.381   6.368   5.749 -0.7006  0.3261  0.0388
   97SAPE   H2Y 9675   7.215   6.345   5.814 -0.3968 -1.0089  2.1898
   97SAPE   C23 9676   7.436   5.890   6.056  0.0876  0.6534 -0.7730
   97SAPE   H3R 9677   7.517   5.818   6.080  0.9441  1.0190 -2.4114
   97SAPE   H3S 9678   7.486   5.981   6.018 -0.2172  1.3090  0.3521
   97SAPE   C24 9679   7.361   5.832   5.935 -0.1196 -0.1366  0.0362
   97SAPE   H4R 9680   7.434   5.847   5.852 -2.3793  0.1672 -2.0181
   97SAPE   H4S 9681   7.274   5.897   5.913 -0.2415  0.0372  1.0047
   97SAPE   C25 9682   7.337   5.686   5.951  0.4599  0.0261  0.8621
   97SAPE   H5R 9683   7.291   5.655   6.046  1.1493  2.6392  2.1436
   97SAPE   C26 9684   7.352   5.591   5.848  0.6004 -0.5175  0.0501
   97SAPE   H6R 9685   7.334   5.485   5.870 -0.7921 -0.5484 -1.0933
   97SAPE   C27 9686   7.421   5.616   5.711 -0.3331 -0.3569  0.0872
   97SAPE   H7R 9687   7.463   5.719   5.700 -1.3079 -0.0864 -1.3411
   97SAPE   H7S 9688   7.349   5.605   5.628 -1.1470 -3.6383  1.0780
   97SAPE   C28 9689   7.531   5.518   5.684  0.3833  0.0726  0.0437
   97SAPE   H8R 9690   7.600   5.495   5.767  2.4709  0.9662 -1.3598
   97SAPE   C29 9691   7.563   5.456   5.563  0.5930  0.8628 -0.4615
   97SAPE   H9R 9692   7.653   5.393   5.561  1.2752  1.8121 -2.5288
   97SAPE  C210 9693   7.509   5.502   5.428 -0.1689  0.0101  0.4201
   97SAPE  H10R 9694   7.597   5.534   5.368  0.0636 -0.1067  0.6939
   97SAPE  H10S 9695   7.449   5.595   5.440 -0.4310 -0.0308 -0.5279
   97SAPE  C211 9696   7.423   5.406   5.372  0.2588  1.2818  0.4531
   97SAPE  H11R 9697   7.343   5.375   5.441  0.7401 -0.8172  0.1175
   97SAPE  C212 9698   7.427   5.370   5.243  0.7521  1.1425  0.5807
   97SAPE  H12R 9699   7.348   5.301   5.207  0.8681  1.2746  0.0672
   97SAPE  C213 9700   7.514   5.412   5.129 -0.5649 -0.9068 -0.7447
   97SAPE  H13R 9701   7.616   5.415   5.172 -0.0917 -2.1325 -1.7096
   97SAPE  H13S 9702   7.474   5.506   5.083  0.2619 -1.0392 -1.7853
   97SAPE  C214 9703   7.520   5.302   5.030 -0.4872  0.2456 -0.0678
   97SAPE  H14R 9704   7.538   5.200   5.069  0.0026  0.3530 -0.0088
   97SAPE  C215 9705   7.497   5.314   4.897 -0.3054  0.3161 -0.6129
   97SAPE  H15R 9706   7.492   5.224   4.835 -0.7558 -0.1725  0.1263
   97SAPE  C216 9707   7.465   5.440   4.818  0.5625 -0.3123 -0.2941
   97SAPE  H16R 9708   7.514   5.436   4.719 -0.7594  0.8626 -1.0251
   97SAPE  H16S 9709   7.512   5.533   4.857 -1.7112  0.3721  0.9926
   97SAPE  C217 9710   7.306   5.449   4.802  0.4341  1.2925  0.5721
   97SAPE  H17R 9711   7.272   5.446   4.908  1.0951 -1.3878  0.7928
   97SAPE  H17S 9712   7.273   5.360   4.745  0.4391 -0.1520  2.6709
   97SAPE  C218 9713   7.270   5.571   4.719 -0.1131  0.1815 -1.0146
   97SAPE  H18R 9714   7.305   5.551   4.616 -0.4155 -1.1899 -0.8682
   97SAPE  H18S 9715   7.317   5.658   4.770  0.9495 -0.5724 -0.6883
   97SAPE  C219 9716   7.121   5.603   4.708  0.2419 -0.3159 -0.5966
   97SAPE  H19R 9717   7.107   5.698   4.653  0.3617 -0.8738 -1.6130
   97SAPE  H19S 9718   7.080   5.630   4.808 -0.2734  1.0825 -1.1659
   97SAPE  C220 9719   7.029   5.499   4.642 -0.2137 -0.3713  0.5292
   97SAPE  H20R 9720   6.943   5.538   4.583 -0.0396  0.2883  0.7029
   97SAPE  H20S 9721   6.979   5.442   4.723 -3.1441  0.1518 -0.7516
   97SAPE  H20T 9722   7.093   5.430   4.584  0.6752  0.4410  0.5109
   97SAPE   C33 9723   7.326   6.161   5.760 -0.2169 -0.2229  0.6595
   97SAPE   H3X 9724   7.259   6.091   5.814 -1.1392  0.9026  1.0229
   97SAPE   H3Y 9725   7.429   6.119   5.769  0.5516  0.4100 -3.3522
   97SAPE   C34 9726   7.309   6.161   5.606 -0.5223 -0.2925  0.0978
   97SAPE   H4X 9727   7.379   6.239   5.569 -2.6295  1.4183 -0.5132
   97SAPE   H4Y 9728   7.212   6.210   5.581  0.0095  2.2801  2.5458
   97SAPE   C35 9729   7.308   6.026   5.538  0.2953 -0.4202 -0.5346
   97SAPE   H5X 9730   7.236   5.954   5.582  0.6544 -0.2728  0.3046
   97SAPE   H5Y 9731   7.412   5.987   5.530  1.8525  3.3450 -0.6026
   97SAPE   C36 9732   7.267   6.025   5.388  0.5359 -0.3071  0.0754
   97SAPE   H6X 9733   7.344   6.078   5.329 -0.7144 -1.0353 -2.3546
   97SAPE   H6Y 9734   7.167   6.071   5.368  0.8491 -0.0166 -0.8548
   97SAPE   C37 9735   7.277   5.882   5.336  1.1261  0.9565  0.9507
   97SAPE   H7X 9736   7.197   5.823   5.385  0.5566  1.0208  0.1062
   97SAPE   H7Y 9737   7.380   5.843   5.351  1.5706  1.4705 -0.5922
   97SAPE   C38 9738   7.261   5.875   5.188  0.5131 -0.0381  0.2423
   97SAPE   H8X 9739   7.289   5.777   5.145  2.4454 -0.2044  1.7364
   97SAPE   H8Y 9740   7.336   5.949   5.152  1.0037 -0.2531  0.8050
   97SAPE   C39 9741   7.131   5.944   5.139 -0.2916  0.1247  0.7144
   97SAPE   H9X 9742   7.129   6.053   5.156  0.0232  0.5022 -1.3829
   97SAPE   H9Y 9743   7.056   5.887   5.198  0.8925 -1.5480  0.6906
   97SAPE  C310 9744   7.100   5.918   4.986 -0.1014 -0.1377 -0.0889
   97SAPE  H10X 9745   7.117   5.809   4.970 -0.4473 -0.3413  0.8484
   97SAPE  H10Y 9746   7.175   5.972   4.925 -0.3421  1.4628  0.9721
   97SAPE  C311 9747   6.962   5.975   4.942  0.3115 -0.3632 -0.4335
   97SAPE  H11X 9748   6.952   6.085   4.953  1.4459 -0.0983 -1.9333
   97SAPE  H11Y 9749   6.892   5.913   5.004  0.5291 -0.1831 -0.0017
   97SAPE  C312 9750   6.934   5.941   4.796 -0.5856 -0.2914  1.0871
   97SAPE  H12X 9751   6.828   5.967   4.776  0.2395  1.0690 -2.1459
   97SAPE  H12Y 9752   6.960   5.833   4.791  0.4039 -0.0336  0.2886
   97SAPE  C313 9753   7.017   6.023   4.685  0.6703 -0.1259 -0.1441
   97SAPE  H13X 9754   7.122   5.987   4.693  0.4819 -0.8802 -0.8921
   97SAPE  H13Y 9755   7.014   6.130   4.713 -1.3974 -0.4361  1.0426
   97SAPE  C314 9756   6.954   6.018   4.541  0.7824 -0.2932  0.5447
   97SAPE  H14X 9757   6.999   6.095   4.475 -0.9747  0.6630  0.4207
   97SAPE  H14Y 9758   6.849   6.053   4.547  0.4129 -1.0428 -1.1027
   97SAPE  C315 9759   6.936   5.877   4.488 -0.6961  0.4963  0.2736
   97SAPE  H15X 9760   6.881   5.805   4.552  0.9837 -0.4052  0.7575
   97SAPE  H15Y 9761   7.034   5.825   4.481 -0.7660  0.4092 -0.0634
   97SAPE  C316 9762   6.873   5.873   4.351  0.2058  0.5674  0.1147
   97SAPE  H16X 9763   6.888   5.774   4.303  1.1471  0.5643  0.3968
   97SAPE  H16Y 9764   6.917   5.947   4.281 -0.0694  0.7081  0.0910
   97SAPE  C317 9765   6.721   5.894   4.359 -0.3507 -0.0914 -0.2013
   97SAPE  H17X 9766   6.687   5.998   4.376 -4.0920 -1.3902  1.5340
   97SAPE  H17Y 9767   6.677   5.832   4.440 -0.3536  1.6243  1.1482
   97SAPE  C318 9768   6.663   5.863   4.224 -0.7410  0.2261  1.0191
   97SAPE  H18X 9769   6.554   5.885   4.218 -0.5094  1.0541 -2.1570
   97SAPE  H18Y 9770   6.679   5.756   4.199  3.5525  0.6859  0.9739
   97SAPE  H18Z 9771   6.715   5.917   4.142 -0.4633 -0.1136  0.9698
   98SAPE     N 9772   6.402   4.415   6.830  0.2309 -0.4120 -0.0241
   98SAPE   HN1 9773   6.464   4.484   6.878 -0.9372 -0.2418  1.2789
   98SAPE   HN2 9774   6.312   4.465   6.837  1.1630  1.1302  2.1379
   98SAPE   HN3 9775   6.389   4.330   6.889  1.0321 -0.0597  0.6867
   98SAPE   C12 9776   6.450   4.387   6.693  0.3849  0.5478 -0.0352
   98SAPE  H12A 9777   6.413   4.296   6.643  1.3250 -0.4966  1.1030
   98SAPE  H12B 9778   6.561   4.384   6.698  0.3556  1.1226  2.1467
   98SAPE   C11 9779   6.410   4.519   6.608 -0.1229  0.1476 -0.3459
   98SAPE  H11A 9780   6.447   4.479   6.511 -2.9218 -3.5750 -0.0953
   98SAPE  H11B 9781   6.483   4.595   6.643  2.5679 -0.0772 -4.7926
   98SAPE     P 9782   6.165   4.526   6.516 -0.3468  0.0147 -0.2811
   98SAPE   O13 9783   6.148   4.383   6.547  0.0672  0.4034 -0.8706
   98SAPE   O14 9784   6.052   4.616   6.541 -0.5197 -0.1280  0.5021
   98SAPE   O12 9785   6.278   4.574   6.608  0.2044  0.0818 -0.5515
   98SAPE   O11 9786   6.231   4.544   6.372  0.2584 -0.1308  0.5987
   98SAPE    C1 9787   6.292   4.670   6.341  0.4731 -0.0261  0.0134
   98SAPE    HA 9788   6.305   4.742   6.425 -0.7506 -0.3541  0.5014
   98SAPE    HB 9789   6.398   4.656   6.313  0.3481  0.9217 -1.0323
   98SAPE    C2 9790   6.220   4.747   6.221  0.2649 -0.3853 -0.0174
   98SAPE    HS 9791   6.114   4.768   6.247  0.5883 -0.4078  1.4188
   98SAPE   O21 9792   6.226   4.669   6.101  0.3074  0.0516 -0.0024
   98SAPE   C21 9793   6.126   4.596   6.061 -0.1908  0.4315 -0.3858
   98SAPE   O22 9794   6.023   4.594   6.124  0.5329 -0.1643  0.2362
   98SAPE   C22 9795   6.152   4.514   5.933  0.1771  0.6256 -0.0132
   98SAPE   H2R 9796   6.263   4.515   5.930  0.2027  2.8284  0.0319
   98SAPE   H2S 9797   6.107   4.413   5.948 -1.3058  0.8694 -2.4006
   98SAPE    C3 9798   6.299   4.882   6.194  0.6057  0.1503 -0.5675
   98SAPE    HX 9799   6.405   4.868   6.222  0.3345 -0.6873  0.0853
   98SAPE    HY 9800   6.248   4.954   6.263  0.6307 -1.3875  1.1347
   98SAPE   O31 9801   6.280   4.915   6.050  0.1269  0.0702  0.1941
   98SAPE   C31 9802   6.173   4.994   6.020 -0.3778 -0.0518 -0.3602
   98SAPE   O32 9803   6.100   5.054   6.097 -0.2224  0.0254 -0.2708
   98SAPE   C32 9804   6.174   5.020   5.867 -0.2893  0.4717  0.4849
   98SAPE   H2X 9805   6.186   4.922   5.817 -4.9759  0.6279 -1.4286
   98SAPE   H2Y 9806   6.267   5.080   5.855  0.2757 -0.5899 -0.6754
   98SAPE   C23 9807   6.081   4.592   5.820 -0.1422  0.3263 -0.3326
   98SAPE   H3R 9808   6.106   4.700   5.826  0.7019  0.1763 -0.9726
   98SAPE   H3S 9809   5.971   4.591   5.839 -0.2089  0.2765 -0.7180
   98SAPE   C24 9810   6.106   4.563   5.673 -0.1726  0.3268  0.0307
   98SAPE   H4R 9811   6.041   4.620   5.604  0.1225 -0.3605 -0.8583
   98SAPE   H4S 9812   6.083   4.454   5.665  5.2031 -1.2459  1.4260
   98SAPE   C25 9813   6.248   4.580   5.646  0.5095 -0.5219 -0.4283
   98SAPE   H5R 9814   6.319   4.546   5.722 -0.6540  0.8626  1.3588
   98SAPE   C26 9815   6.305   4.628   5.531  0.6415 -0.0353 -0.0734
   98SAPE   H6R 9816   6.414   4.632   5.522  0.6353 -2.0079 -1.8135
   98SAPE   C27 9817   6.242   4.679   5.401  0.3422  0.5510  0.6779
   98SAPE   H7R 9818   6.205   4.783   5.409  2.0628  1.2243  0.2114
   98SAPE   H7S 9819   6.143   4.629   5.391  0.5366 -0.3693  2.7030
   98SAPE   C28 9820   6.321   4.660   5.275  0.5395  0.0814 -0.6270
   98SAPE   H8R 9821   6.379   4.749   5.248  0.6234  1.2020  2.7727
   98SAPE   C29 9822   6.316   4.561   5.186  1.0102  0.0070 -0.0176
   98SAPE   H9R 9823   6.379   4.577   5.097  0.4240 -2.6675 -0.9955
   98SAPE  C210 9824   6.255   4.429   5.191  0.0957  0.4546 -0.4150
   98SAPE  H10R 9825   6.203   4.424   5.289 -1.4344  0.2050 -1.1950
   98SAPE  H10S 9826   6.342   4.362   5.210  1.9168  2.5562 -1.0069
   98SAPE  C211 9827   6.180   4.373   5.071 -0.1441  0.3414 -0.8514
   98SAPE  H11R 9828   6.076   4.355   5.102  0.8361  0.8863  3.2919
   98SAPE  C212 9829   6.238   4.332   4.959  0.1481 -0.6021  0.2190
   98SAPE  H12R 9830   6.170   4.295   4.880 -0.0762 -0.7609  0.4833
   98SAPE  C213 9831   6.381   4.333   4.924  0.0132  0.2326  0.0987
   98SAPE  H13R 9832   6.401   4.233   4.879 -3.6743  0.3730 -2.2830
   98SAPE  H13S 9833   6.434   4.332   5.022 -1.4589 -0.4194  0.9127
   98SAPE  C214 9834   6.421   4.448   4.831  0.0222 -0.0666  0.1974
   98SAPE  H14R 9835   6.350   4.470   4.751  1.1717  1.2226 -0.5275
   98SAPE  C215 9836   6.524   4.531   4.852  0.4165 -0.2981 -0.3865
   98SAPE  H15R 9837   6.555   4.603   4.775  2.1600 -0.1229  0.4352
   98SAPE  C216 9838   6.633   4.527   4.957  0.6248 -0.4146  0.0275
   98SAPE  H16R 9839   6.581   4.504   5.053  0.0334  1.4720  0.1899
   98SAPE  H16S 9840   6.675   4.629   4.965 -1.8346  0.8099 -1.2612
   98SAPE  C217 9841   6.737   4.430   4.904  0.3015  0.2150  0.1132
   98SAPE  H17R 9842   6.691   4.329   4.898 -0.3067  0.4524  0.7800
   98SAPE  H17S 9843   6.814   4.426   4.984 -0.4203 -1.2073  0.7798
   98SAPE  C218 9844   6.811   4.459   4.764 -0.5435  0.2153  0.3441
   98SAPE  H18R 9845   6.751   4.522   4.696  2.3728  1.8698 -0.8741
   98SAPE  H18S 9846   6.842   4.363   4.718 -0.0587 -0.5304  2.1177
   98SAPE  C219 9847   6.944   4.537   4.778 -0.4642  0.1888 -0.1375
   98SAPE  H19R 9848   7.013   4.480   4.844  0.4960  1.9332  0.4196
   98SAPE  H19S 9849   6.906   4.631   4.824 -0.5719  0.5373 -0.9207
   98SAPE  C220 9850   7.005   4.554   4.645 -0.1087 -0.9754 -0.1818
   98SAPE  H20R 9851   7.058   4.652   4.642 -0.1814 -0.9195  0.3849
   98SAPE  H20S 9852   6.938   4.560   4.556  0.8443  0.3880 -0.8493
   98SAPE  H20T 9853   7.083   4.481   4.614  0.9685  1.2758 -3.2894
   98SAPE   C33 9854   6.053   5.086   5.813  1.3499  0.3314  1.0696
   98SAPE   H3X 9855   6.072   5.137   5.717 -0.7283  0.4878  0.7080
   98SAPE   H3Y 9856   6.003   5.164   5.875 -0.0114  1.2701 -1.1122
   98SAPE   C34 9857   5.942   4.981   5.781  0.3282 -0.1290 -0.1672
   98SAPE   H4X 9858   5.838   5.021   5.780 -0.3600 -1.8370 -1.0516
   98SAPE   H4Y 9859   5.952   4.908   5.863  0.6378  0.4063  0.2764
   98SAPE   C35 9860   5.963   4.914   5.640  0.6498  0.2774  0.1067
   98SAPE   H5X 9861   5.919   4.814   5.659  0.4215  0.1196 -1.1797
   98SAPE   H5Y 9862   6.072   4.904   5.618  0.4936  1.7733 -1.5514
   98SAPE   C36 9863   5.891   4.976   5.523  0.2383 -0.0077  0.3737
   98SAPE   H6X 9864   5.806   5.043   5.548  1.4755  2.6237 -1.9244
   98SAPE   H6Y 9865   5.856   4.889   5.463  1.3971 -1.7402  2.0893
   98SAPE   C37 9866   5.986   5.052   5.435 -0.4117  0.1307 -0.6419
   98SAPE   H7X 9867   6.087   5.049   5.481  0.4253  0.0916 -2.3995
   98SAPE   H7Y 9868   5.953   5.158   5.430  1.0995  0.5750 -2.6275
   98SAPE   C38 9869   5.984   4.998   5.291 -0.0164 -0.3534 -0.0388
   98SAPE   H8X 9870   5.900   5.031   5.226  0.9502 -0.2813 -1.3033
   98SAPE   H8Y 9871   5.986   4.887   5.290 -0.5972 -0.3711 -1.5062
   98SAPE   C39 9872   6.110   5.043   5.216 -0.5623 -0.1357 -0.4911
   98SAPE   H9X 9873   6.189   4.979   5.261  0.3610  0.2169 -1.5635
   98SAPE   H9Y 9874   6.138   5.149   5.234 -1.2972  0.1781 -1.1262
   98SAPE  C310 9875   6.092   5.014   5.061  0.0050 -0.6901 -0.1178
   98SAPE  H10X 9876   6.193   5.046   5.026  1.5861 -1.6673  3.1967
   98SAPE  H10Y 9877   6.012   5.081   5.023 -0.8133 -1.2254  0.6265
   98SAPE  C311 9878   6.064   4.873   5.014  0.2095  0.3019  0.8877
   98SAPE  H11X 9879   5.959   4.856   5.044  0.1209 -0.7811  0.0258
   98SAPE  H11Y 9880   6.138   4.806   5.064  0.2877  0.7845  1.4228
   98SAPE  C312 9881   6.080   4.869   4.865  0.4475  0.4700 -0.0378
   98SAPE  H12X 9882   6.042   4.965   4.825 -2.0442  0.0822  1.2402
   98SAPE  H12Y 9883   6.015   4.791   4.820 -1.6456  0.5266  2.6279
   98SAPE  C313 9884   6.224   4.851   4.832 -1.0765 -0.7295  0.1884
   98SAPE  H13X 9885   6.269   4.762   4.882  0.8870 -0.1350 -0.4364
   98SAPE  H13Y 9886   6.289   4.935   4.864  1.0474 -2.3538  0.3898
   98SAPE  C314 9887   6.244   4.839   4.675  0.5575  0.7266  0.2471
   98SAPE  H14X 9888   6.202   4.930   4.628 -1.1907 -0.0415  0.2293
   98SAPE  H14Y 9889   6.183   4.749   4.649  0.3802  1.1959 -1.0675
   98SAPE  C315 9890   6.388   4.813   4.626 -0.3610 -0.0504 -0.3597
   98SAPE  H15X 9891   6.424   4.729   4.689  0.4964  0.0879 -0.6406
   98SAPE  H15Y 9892   6.457   4.898   4.649 -2.5748  1.4253  1.2433
   98SAPE  C316 9893   6.394   4.777   4.477  1.4022 -0.1960 -1.0608
   98SAPE  H16X 9894   6.333   4.861   4.435  1.1710 -0.3314 -0.9955
   98SAPE  H16Y 9895   6.341   4.682   4.458  0.4749 -0.2784  1.6068
   98SAPE  C317 9896   6.535   4.781   4.420 -0.1853  0.2040 -0.7668
   98SAPE  H17X 9897   6.584   4.881   4.425  1.3045 -0.4654 -1.3407
   98SAPE  H17Y 9898   6.530   4.764   4.311 -0.0798 -1.5048 -0.5446
   98SAPE  C318 9899   6.640   4.681   4.476  0.5045 -0.1272  0.3068
   98SAPE  H18X 9900   6.602   4.576   4.484  0.5816 -0.2019 -0.2831
   98SAPE  H18Y 9901   6.674   4.726   4.571  1.4204  0.8105 -0.4390
   98SAPE  H18Z 9902   6.734   4.672   4.417  0.5750 -1.2871  0.5693
   99SAPE     N 9903   0.083   3.445   6.405  0.2715 -0.4417  0.5617
   99SAPE   HN1 9904   0.030   3.469   6.319  1.0109  0.2041  0.2775
   99SAPE   HN2 9905   0.107   3.346   6.385 -0.9406 -0.2415 -2.3902
   99SAPE   HN3 9906   0.018   3.439   6.487 -1.9313 -1.0667 -1.1354
   99SAPE   C12 9907   0.212   3.520   6.420 -0.0057  0.2913 -0.1970
   99SAPE  H12A 9908   0.288   3.478   6.350  0.5867 -1.2230  1.2645
   99SAPE  H12B 9909   0.249   3.503   6.524 -1.7541 -0.0549  0.4015
   99SAPE   C11 9910   0.203   3.673   6.411  0.2535  0.7725  0.0876
   99SAPE  H11A 9911   0.160   3.702   6.313  0.7253  0.5163 -0.1956
   99SAPE  H11B 9912   0.304   3.718   6.413  1.6927 -2.0761 -2.0288
   99SAPE     P 9913   0.107   3.857   6.593  0.0928  0.1367 -0.1124
   99SAPE   O13 9914   0.033   3.820   6.714 -0.3344 -0.7344 -0.0946
   99SAPE   O14 9915   0.248   3.908   6.606 -0.5705  0.0027  0.3012
   99SAPE   O12 9916   0.107   3.721   6.511 -0.4171 -0.6065 -0.1004
   99SAPE   O11 9917   0.018   3.952   6.504  0.4087  0.1688 -0.4301
   99SAPE    C1 9918  -0.090   3.901   6.425 -0.0461 -0.1759 -0.0306
   99SAPE    HA 9919  -0.047   3.838   6.344  1.0083  0.1980  0.2254
   99SAPE    HB 9920  -0.152   3.833   6.488  0.0929 -0.6582 -0.4061
   99SAPE    C2 9921  -0.182   4.004   6.367 -0.2151  0.1217  0.1896
   99SAPE    HS 9922  -0.246   4.057   6.440 -1.4337 -0.4140 -0.4597
   99SAPE   O21 9923  -0.264   3.927   6.279  0.2774  0.3219  0.3951
   99SAPE   C21 9924  -0.378   3.982   6.241 -0.1399 -0.0135 -0.4093
   99SAPE   O22 9925  -0.411   4.094   6.272 -0.1554  0.1943  0.1892
   99SAPE   C22 9926  -0.451   3.882   6.146  0.0505  0.1425 -0.3848
   99SAPE   H2R 9927  -0.384   3.818   6.085 -0.7426  0.5823 -1.7536
   99SAPE   H2S 9928  -0.506   3.814   6.215  1.2581 -1.1091 -0.6091
   99SAPE    C3 9929  -0.087   4.098   6.286 -0.1044  0.0271  0.2606
   99SAPE    HX 9930  -0.032   4.037   6.211 -0.8258  1.0711 -1.1628
   99SAPE    HY 9931  -0.014   4.140   6.358 -1.2895  0.2443  1.3872
   99SAPE   O31 9932  -0.160   4.198   6.214  0.5208 -0.0476  0.3004
   99SAPE   C31 9933  -0.204   4.305   6.278  0.0709  0.7847 -0.3805
   99SAPE   O32 9934  -0.178   4.334   6.395  0.4239 -0.5018  0.2415
   99SAPE   C32 9935  -0.285   4.387   6.171  0.2795  0.4012 -0.2055
   99SAPE   H2X 9936  -0.372   4.421   6.231 -1.2611  0.7573 -2.5300
   99SAPE   H2Y 9937  -0.326   4.311   6.102 -0.0314  0.1633  0.2330
   99SAPE   C23 9938  -0.551   3.965   6.057 -0.0218  0.1677  0.6633
   99SAPE   H3R 9939  -0.622   4.023   6.119  2.0037  2.8715  0.6831
   99SAPE   H3S 9940  -0.616   3.889   6.008 -1.2148  2.5227 -1.6518
   99SAPE   C24 9941  -0.484   4.038   5.941  0.4315  0.2882 -0.8054
   99SAPE   H4R 9942  -0.437   4.128   5.984 -0.0640  1.2516 -2.2122
   99SAPE   H4S 9943  -0.565   4.084   5.879  0.4683  1.4680 -0.0073
   99SAPE   C25 9944  -0.398   3.955   5.851 -0.0950 -0.0665  0.2982
   99SAPE   H5R 9945  -0.446   3.868   5.806 -0.4590 -1.0948  2.5328
   99SAPE   C26 9946  -0.264   3.982   5.831 -0.1143  0.0353 -0.1375
   99SAPE   H6R 9947  -0.210   3.906   5.773  1.4999  1.9958 -1.3530
   99SAPE   C27 9948  -0.176   4.090   5.879  0.0040 -0.2962  0.2374
   99SAPE   H7R 9949  -0.069   4.061   5.880  0.4383  1.0257  3.3922
   99SAPE   H7S 9950  -0.195   4.099   5.988  0.9001 -0.4175  0.4138
   99SAPE   C28 9951  -0.200   4.234   5.836  0.3634  0.3114  0.6050
   99SAPE   H8R 9952  -0.306   4.260   5.818 -0.1028 -0.7942  1.6691
   99SAPE   C29 9953  -0.104   4.315   5.793 -0.3386 -0.1681  0.0927
   99SAPE   H9R 9954  -0.128   4.420   5.768 -0.1212 -0.1473 -0.0295
   99SAPE  C210 9955   0.045   4.288   5.811  0.0334  0.8737  0.4571
   99SAPE  H10R 9956   0.074   4.204   5.877  0.0920  0.7498  0.2730
   99SAPE  H10S 9957   0.093   4.373   5.866  1.2391  0.6151 -0.1578
   99SAPE  C211 9958   0.124   4.276   5.686 -0.2839  0.1415  0.6844
   99SAPE  H11R 9959   0.084   4.340   5.606  1.3580  0.0295 -0.2865
   99SAPE  C212 9960   0.246   4.216   5.670 -0.7904  0.0523 -0.3037
   99SAPE  H12R 9961   0.304   4.229   5.577 -1.4556  0.2518 -0.7020
   99SAPE  C213 9962   0.319   4.166   5.787  0.3477  0.0298  0.3750
   99SAPE  H13R 9963   0.308   4.057   5.804  0.0737  0.1717  1.1543
   99SAPE  H13S 9964   0.288   4.212   5.883  0.2874 -2.1475  1.4661
   99SAPE  C214 9965   0.467   4.196   5.770 -0.2532 -0.3712  0.0450
   99SAPE  H14R 9966   0.510   4.279   5.827  0.4363 -0.2070 -0.6939
   99SAPE  C215 9967   0.549   4.123   5.694 -0.1780  0.0686 -0.9408
   99SAPE  H15R 9968   0.652   4.161   5.706 -0.6038  0.4716  2.6461
   99SAPE  C216 9969   0.520   4.003   5.606 -0.8350  0.0907 -0.6591
   99SAPE  H16R 9970   0.416   3.965   5.620 -0.5283  0.0126  1.9092
   99SAPE  H16S 9971   0.587   3.924   5.645 -0.9743 -0.1787 -0.9547
   99SAPE  C217 9972   0.569   4.028   5.459  0.1719  0.6513  0.7147
   99SAPE  H17R 9973   0.679   4.036   5.458  0.5768 -2.8784 -1.4991
   99SAPE  H17S 9974   0.516   4.124   5.437 -1.6336 -0.3249  0.6096
   99SAPE  C218 9975   0.517   3.923   5.365 -0.2233 -0.3293 -0.1871
   99SAPE  H18R 9976   0.410   3.903   5.384 -0.3103  0.7834  0.5468
   99SAPE  H18S 9977   0.565   3.824   5.385  1.0391  0.0578 -1.1440
   99SAPE  C219 9978   0.546   3.952   5.216  0.7532  0.1739 -0.2279
   99SAPE  H19R 9979   0.655   3.963   5.195  0.8236 -0.9594 -0.5158
   99SAPE  H19S 9980   0.501   4.044   5.174  0.8942 -0.0952 -0.9864
   99SAPE  C220 9981   0.499   3.840   5.125  0.1155  0.2500 -0.4048
   99SAPE  H20R 9982   0.562   3.749   5.140 -1.2287 -0.5699  0.4580
   99SAPE  H20S 9983   0.511   3.868   5.018  3.0773 -0.0692 -0.2452
   99SAPE  H20T 9984   0.394   3.810   5.144  0.6980 -0.2262  2.5456
   99SAPE   C33 9985  -0.199   4.507   6.118  0.0915 -0.0564 -0.1922
   99SAPE   H3X 9986  -0.099   4.475   6.084 -0.5292 -2.1155 -0.2019
   99SAPE   H3Y 9987  -0.178   4.582   6.198  2.7483  0.3816 -1.1895
   99SAPE   C34 9988  -0.266   4.588   6.009 -0.5787  0.5610  0.3357
   99SAPE   H4X 9989  -0.338   4.651   6.065 -1.7138 -1.6845  1.5636
   99SAPE   H4Y 9990  -0.318   4.517   5.940 -1.0644  0.0936  1.1670
   99SAPE   C35 9991  -0.169   4.681   5.936  0.1235 -0.1260 -0.7062
   99SAPE   H5X 9992  -0.082   4.618   5.903  0.9716 -0.3638  1.7547
   99SAPE   H5Y 9993  -0.125   4.750   6.010  0.5152 -1.3607  0.2568
   99SAPE   C36 9994  -0.244   4.751   5.819 -0.7425  0.4695  0.3712
   99SAPE   H6X 9995  -0.350   4.778   5.840 -0.4847  2.0498 -0.1924
   99SAPE   H6Y 9996  -0.228   4.689   5.728  0.5318  1.0042  0.1996
   99SAPE   C37 9997  -0.177   4.888   5.781 -0.3039 -0.5047  0.2058
   99SAPE   H7X 9998  -0.068   4.869   5.769 -0.4208 -0.3839 -1.2138
   99SAPE   H7Y 9999  -0.195   4.972   5.852  0.1253 -0.9111  0.8105
   99SAPE   C3810000  -0.220   4.938   5.638 -0.4695 -0.8737 -0.1510
   99SAPE   H8X10001  -0.193   4.868   5.556 -1.2016  1.2019 -2.2704
   99SAPE   H8Y10002  -0.164   5.031   5.617  0.8557 -1.4399  0.7578
   99SAPE   C3910003  -0.369   4.971   5.617  0.0582 -0.3585  0.4967
   99SAPE   H9X10004  -0.393   5.063   5.673  2.5144 -0.4954  1.9068
   99SAPE   H9Y10005  -0.445   4.894   5.644 -3.0546  0.9974 -3.2919
   99SAPE  C31010006  -0.403   5.000   5.467  0.4112  0.3475 -0.5203
   99SAPE  H10X10007  -0.511   5.026   5.462  1.0951  3.4792 -1.3742
   99SAPE  H10Y10008  -0.395   4.901   5.418  0.4047  0.8770 -1.6287
   99SAPE  C31110009  -0.313   5.102   5.406 -0.0202 -0.3322  0.5567
   99SAPE  H11X10010  -0.210   5.060   5.407  0.7001  1.3573  0.2729
   99SAPE  H11Y10011  -0.316   5.194   5.468 -0.5786  1.1573 -1.5804
   99SAPE  C31210012  -0.340   5.138   5.259  0.3985 -0.2173  0.7584
   99SAPE  H12X10013  -0.256   5.207   5.235 -0.0252  0.4756  1.2017
   99SAPE  H12Y10014  -0.435   5.197   5.258  1.0546  0.9019  1.8244
   99SAPE  C31310015  -0.367   5.030   5.151  0.0645  1.0532  0.4210
   99SAPE  H13X10016  -0.473   4.996   5.145  0.3868  0.2407 -1.9549
   99SAPE  H13Y10017  -0.312   4.948   5.202  1.6504  0.8317 -1.5096
   99SAPE  C31410018  -0.302   5.042   5.021  0.5896  1.2208  0.7401
   99SAPE  H14X10019  -0.205   5.093   5.041  0.2306  2.7604 -1.2134
   99SAPE  H14Y10020  -0.368   5.101   4.954 -1.1272  0.2883  1.5293
   99SAPE  C31510021  -0.266   4.906   4.950 -0.2864  0.9229  0.0123
   99SAPE  H15X10022  -0.362   4.849   4.948 -1.6514  3.0836 -0.3901
   99SAPE  H15Y10023  -0.215   4.846   5.028  1.1666  2.4833  0.3191
   99SAPE  C31610024  -0.174   4.905   4.823  0.3045 -0.0398  0.3616
   99SAPE  H16X10025  -0.212   4.978   4.748 -0.1422 -1.9416 -1.3491
   99SAPE  H16Y10026  -0.198   4.807   4.778 -2.9471  0.2142  1.3024
   99SAPE  C31710027  -0.022   4.912   4.848  0.8465 -0.5435  0.1685
   99SAPE  H17X10028   0.009   4.834   4.920 -0.8266 -0.7887  0.6799
   99SAPE  H17Y10029  -0.000   5.012   4.890  0.5634 -1.0045  1.4639
   99SAPE  C31810030   0.051   4.895   4.725  0.2218  0.3564 -0.2944
   99SAPE  H18X10031   0.039   4.792   4.685 -2.4503  1.2733 -2.1913
   99SAPE  H18Y10032   0.158   4.911   4.748  0.6828 -2.0808 -0.5103
   99SAPE  H18Z10033   0.021   4.964   4.643 -0.2387  0.6361  0.1041
  100SAPE     N10034   1.773   3.993   6.795 -0.0028  0.6733  0.1677
  100SAPE   HN110035   1.856   4.050   6.817  1.3251 -0.8703 -0.5673
  100SAPE   HN210036   1.687   4.047   6.816  0.4843  2.0545 -1.2041
  100SAPE   HN310037   1.779   3.911   6.859  1.4045 -0.6454 -1.5411
  100SAPE   C1210038   1.759   3.933   6.658  0.3405  0.7150  0.3417
  100SAPE  H12A10039   1.742   4.003   6.574  0.2021  0.3725  0.0810
  100SAPE  H12B10040   1.659   3.885   6.651  0.7102 -0.0502  0.2446
  100SAPE   C1110041   1.873   3.827   6.625  0.5803 -0.6699  0.0860
  100SAPE  H11A10042   1.965   3.887   6.609  1.5852 -1.4859  2.2954
  100SAPE  H11B10043   1.847   3.771   6.533  1.2611 -0.7942 -0.0397
  100SAPE     P10044   1.778   3.624   6.759  0.2358  0.2212  0.4016
  100SAPE   O1310045   1.833   3.526   6.851 -0.2651  0.3171  0.5233
  100SAPE   O1410046   1.648   3.691   6.798 -0.2136  0.2128 -0.0433
  100SAPE   O1210047   1.884   3.731   6.734 -0.0669  0.1592 -0.3139
  100SAPE   O1110048   1.767   3.568   6.613 -0.7363 -0.0134 -0.3882
  100SAPE    C110049   1.880   3.483   6.572  0.2408 -0.1897 -0.0415
  100SAPE    HA10050   1.971   3.547   6.571  0.9986 -1.1691 -3.3452
  100SAPE    HB10051   1.899   3.391   6.631  1.8818  0.8720  1.1820
  100SAPE    C210052   1.867   3.446   6.418 -0.5684 -0.7702  0.0557
  100SAPE    HS10053   1.944   3.370   6.394 -0.9412 -2.0326  2.4352
  100SAPE   O2110054   1.860   3.561   6.331  0.3598 -0.0589 -0.3537
  100SAPE   C2110055   1.986   3.594   6.296 -0.0927  0.4641  0.2800
  100SAPE   O2210056   2.086   3.538   6.345  0.1540  0.0799  0.5399
  100SAPE   C2210057   1.981   3.701   6.187  0.1307  0.1850  0.0438
  100SAPE   H2R10058   1.876   3.724   6.162 -0.4021 -2.9602 -1.0499
  100SAPE   H2S10059   2.052   3.778   6.225  2.0724  0.1377 -3.1772
  100SAPE    C310060   1.745   3.356   6.393  0.2180 -0.7080 -0.0341
  100SAPE    HX10061   1.657   3.421   6.415  0.2940 -0.0593 -1.5005
  100SAPE    HY10062   1.738   3.273   6.466 -0.4013 -0.7768 -0.1675
  100SAPE   O3110063   1.741   3.317   6.252 -0.1371 -0.1599 -0.1082
  100SAPE   C3110064   1.810   3.207   6.232  0.0602  0.0779 -0.2058
  100SAPE   O3210065   1.869   3.134   6.308  0.6197  0.5602  0.4590
  100SAPE   C3210066   1.808   3.179   6.080  0.0128  0.4766 -0.2522
  100SAPE   H2X10067   1.843   3.277   6.040 -0.7459  0.7313 -0.3193
  100SAPE   H2Y10068   1.707   3.151   6.044  0.4315 -1.4640  0.0076
  100SAPE   C2310069   2.045   3.636   6.063 -0.4321 -0.6671  0.1244
  100SAPE   H3R10070   1.993   3.541   6.037 -0.2563 -0.6743 -0.1903
  100SAPE   H3S10071   2.153   3.621   6.084  0.1340 -0.1860 -2.1735
  100SAPE   C2410072   2.042   3.731   5.938  0.8572  0.3656  0.0837
  100SAPE   H4R10073   1.935   3.749   5.915  0.0855 -0.8533  2.4036
  100SAPE   H4S10074   2.073   3.669   5.851 -1.6167 -0.5411 -0.2321
  100SAPE   C2510075   2.116   3.860   5.948 -0.5575 -0.5457  0.0690
  100SAPE   H5R10076   2.164   3.885   6.044 -1.6297 -0.1836  0.5252
  100SAPE   C2610077   2.131   3.944   5.842  0.0849 -0.7927 -0.4310
  100SAPE   H6R10078   2.192   4.035   5.850 -0.4287 -0.5955  1.7237
  100SAPE   C2710079   2.066   3.923   5.707 -0.0139  0.0404 -0.4082
  100SAPE   H7R10080   2.086   3.820   5.673 -1.8561  0.2848 -2.4732
  100SAPE   H7S10081   2.119   3.986   5.632 -0.1344 -1.4340 -1.7739
  100SAPE   C2810082   1.917   3.952   5.706 -0.0998  0.0466 -0.7879
  100SAPE   H8R10083   1.858   3.889   5.774  0.7881  0.0290 -0.0081
  100SAPE   C2910084   1.856   4.048   5.636 -0.1707 -0.7464  0.4244
  100SAPE   H9R10085   1.747   4.056   5.647 -0.3989 -0.2538 -1.6526
  100SAPE  C21010086   1.917   4.164   5.552 -0.0529  0.4193 -0.0240
  100SAPE  H10R10087   2.025   4.174   5.574 -0.4610  1.4961  1.6724
  100SAPE  H10S10088   1.881   4.265   5.581  1.3712  0.5590  1.3359
  100SAPE  C21110089   1.892   4.152   5.403  0.7382  0.6088  0.2813
  100SAPE  H11R10090   1.828   4.234   5.368 -0.1669  0.3755  1.3078
  100SAPE  C21210091   1.929   4.047   5.316  0.3807  0.3130  0.1390
  100SAPE  H12R10092   1.911   4.070   5.210  0.5881 -0.1475 -0.0005
  100SAPE  C21310093   2.001   3.919   5.348  0.5919 -0.0846 -0.5241
  100SAPE  H13R10094   1.930   3.846   5.392 -1.4212  2.5147  0.7819
  100SAPE  H13S10095   2.086   3.930   5.420  0.1060 -2.6701  0.5552
  100SAPE  C21410096   2.046   3.851   5.218 -0.6205 -0.0481 -0.3235
  100SAPE  H14R10097   1.979   3.771   5.183 -0.8448 -0.4795  1.0436
  100SAPE  C21510098   2.163   3.872   5.150  0.1798  0.3519 -0.1179
  100SAPE  H15R10099   2.178   3.823   5.053 -0.8494  0.8734 -0.5435
  100SAPE  C21610100   2.270   3.979   5.187 -0.5651 -0.0498  0.5271
  100SAPE  H16R10101   2.270   3.991   5.298  0.3899 -0.8377  0.6302
  100SAPE  H16S10102   2.234   4.073   5.141 -1.1368 -0.8490 -0.6969
  100SAPE  C21710103   2.421   3.950   5.131  0.2641 -0.4973 -0.1747
  100SAPE  H17R10104   2.408   3.876   5.049 -2.2396  0.0137 -0.3181
  100SAPE  H17S10105   2.462   3.892   5.215 -0.7337  1.7418  1.9982
  100SAPE  C21810106   2.525   4.061   5.105  0.2612 -0.0684  0.9962
  100SAPE  H18R10107   2.514   4.146   5.177  1.6123 -0.4110  1.6252
  100SAPE  H18S10108   2.496   4.106   5.007 -1.4106  0.6665  1.7717
  100SAPE  C21910109   2.671   4.018   5.106  0.3133 -0.1578  0.3132
  100SAPE  H19R10110   2.697   3.950   5.022 -0.6284  1.3155 -1.2448
  100SAPE  H19S10111   2.688   3.966   5.202  3.7032  0.3764  0.1350
  100SAPE  C22010112   2.763   4.141   5.101  0.2301  0.2682  0.0271
  100SAPE  H20R10113   2.863   4.101   5.128  0.9179  1.1572 -1.1196
  100SAPE  H20S10114   2.740   4.221   5.174  0.7330 -0.2830  0.8159
  100SAPE  H20T10115   2.773   4.186   5.000  0.9954  0.0423 -0.0086
  100SAPE   C3310116   1.903   3.069   6.024 -0.7018  0.7806 -0.0228
  100SAPE   H3X10117   1.868   2.970   6.060  1.6867  0.8154  2.7840
  100SAPE   H3Y10118   2.000   3.080   6.077 -1.1528  0.2442  0.9488
  100SAPE   C3410119   1.923   3.070   5.871  0.3159 -0.6867  0.0960
  100SAPE   H4X10120   2.000   2.996   5.840  0.4038 -0.3215 -0.5822
  100SAPE   H4Y10121   1.954   3.175   5.852  0.6058 -0.5671  1.1854
  100SAPE   C3510122   1.804   3.040   5.776 -0.4402  0.8267  0.2694
  100SAPE   H5X10123   1.712   3.095   5.803 -1.3140 -1.2050  1.6584
  100SAPE   H5Y10124   1.787   2.934   5.804  1.7049  0.6650  1.1358
  100SAPE   C3610125   1.828   3.028   5.625 -0.2368 -0.1248  0.1474
  100SAPE   H6X10126   1.760   2.947   5.591 -1.2231  0.5922  0.3710
  100SAPE   H6Y10127   1.930   2.993   5.599  0.5295  0.9278  1.6040
  100SAPE   C3710128   1.792   3.143   5.530  0.1975  0.4523 -0.9324
  100SAPE   H7X10129   1.850   3.231   5.565 -1.6201  2.2105 -2.0815
  100SAPE   H7Y10130   1.683   3.161   5.547  0.2646  0.1266 -0.1027
  100SAPE   C3810131   1.832   3.125   5.377  0.0094  0.1417 -0.3273
  100SAPE   H8X10132   1.928   3.070   5.376 -0.8856 -1.4788 -0.1949
  100SAPE   H8Y10133   1.829   3.226   5.330  1.4199  0.7249  0.7645
  100SAPE   C3910134   1.722   3.043   5.307 -0.2391  0.1268  0.3907
  100SAPE   H9X10135   1.628   3.100   5.296 -0.8574 -0.7555  0.9063
  100SAPE   H9Y10136   1.709   2.942   5.353 -0.4520 -0.1771 -0.3241
  100SAPE  C31010137   1.768   3.005   5.162  0.6540 -0.4029 -0.1916
  100SAPE  H10X10138   1.693   2.944   5.107  4.1627 -1.2489 -4.6847
  100SAPE  H10Y10139   1.867   2.956   5.158  0.7446 -0.3636  1.1280
  100SAPE  C31110140   1.790   3.124   5.074  0.0497  0.2432  0.2049
  100SAPE  H11X10141   1.865   3.189   5.124 -1.3376  1.0175  1.3923
  100SAPE  H11Y10142   1.698   3.186   5.071 -0.2174 -0.1776 -2.2840
  100SAPE  C31210143   1.831   3.090   4.925  0.2305  0.5643 -0.2718
  100SAPE  H12X10144   1.923   3.028   4.921 -2.7840 -4.6175  1.4738
  100SAPE  H12Y10145   1.859   3.188   4.879  1.5740  1.5493  2.4193
  100SAPE  C31310146   1.723   3.037   4.833  0.4683  0.2955  0.1321
  100SAPE  H13X10147   1.638   3.107   4.845 -0.7194 -1.3437  1.8649
  100SAPE  H13Y10148   1.689   2.936   4.866  0.4929 -0.0602 -0.8850
  100SAPE  C31410149   1.777   3.030   4.688  0.2702  0.0049  0.5505
  100SAPE  H14X10150   1.861   2.957   4.693  0.3748 -0.1284 -1.8956
  100SAPE  H14Y10151   1.801   3.132   4.652  0.1810 -0.0236  0.4110
  100SAPE  C31510152   1.675   2.965   4.584 -0.1404  0.6066 -0.2866
  100SAPE  H15X10153   1.712   2.991   4.482  2.3607 -1.4500  0.0011
  100SAPE  H15Y10154   1.578   3.016   4.606 -0.3619  0.5210 -1.0076
  100SAPE  C31610155   1.675   2.816   4.591  0.6720  0.1788 -1.1741
  100SAPE  H16X10156   1.674   2.788   4.699 -1.1717  1.2848 -0.8451
  100SAPE  H16Y10157   1.767   2.777   4.544  1.0032  1.0354 -1.2507
  100SAPE  C31710158   1.560   2.751   4.523  0.6894  0.6876  0.8961
  100SAPE  H17X10159   1.545   2.804   4.426  1.5942  1.2623  1.0560
  100SAPE  H17Y10160   1.469   2.763   4.585  0.9407  1.3341  1.1533
  100SAPE  C31810161   1.576   2.597   4.487 -0.0432 -0.8524  0.2054
  100SAPE  H18X10162   1.605   2.554   4.586  2.7097  0.2944  0.0140
  100SAPE  H18Y10163   1.668   2.590   4.425  0.2026  1.2697  0.2488
  100SAPE  H18Z10164   1.486   2.563   4.432 -1.0287 -0.9537  1.8121
  101SAPE     N10165   2.113   0.177   6.951  0.1492 -0.0375  1.3168
  101SAPE   HN110166   2.055   0.254   6.989  1.7377  0.6389  2.4825
  101SAPE   HN210167   2.100   0.094   7.012 -0.6777 -1.2444 -0.4209
  101SAPE   HN310168   2.210   0.216   6.959  1.2549 -1.7573 -1.8780
  101SAPE   C1210169   2.083   0.156   6.807  0.0172  0.6176  1.0742
  101SAPE  H12A10170   1.973   0.143   6.798  0.0874  0.9653 -0.7231
  101SAPE  H12B10171   2.142   0.066   6.781  0.6977  0.9127  1.5842
  101SAPE   C1110172   2.126   0.282   6.734 -0.0831 -0.1897 -0.3456
  101SAPE  H11A10173   2.045   0.356   6.749  1.1817  0.9248  1.3518
  101SAPE  H11B10174   2.130   0.283   6.623 -0.0094  1.0102 -0.3502
  101SAPE     P10175   2.303   0.474   6.778 -0.3237  0.0608 -0.0309
  101SAPE   O1310176   2.203   0.568   6.843  0.7729 -0.3450  0.4174
  101SAPE   O1410177   2.440   0.474   6.845  0.3015  0.0171  0.2165
  101SAPE   O1210178   2.255   0.324   6.776 -0.5307 -0.2797 -0.2066
  101SAPE   O1110179   2.313   0.498   6.624  0.3139  0.5816 -0.2785
  101SAPE    C110180   2.370   0.397   6.540 -0.6280  0.4340  0.2129
  101SAPE    HA10181   2.474   0.429   6.518 -1.0145  1.4938 -0.1243
  101SAPE    HB10182   2.371   0.292   6.577 -1.7634  0.1504 -0.5068
  101SAPE    C210183   2.295   0.394   6.406 -0.4775  0.1198 -0.0648
  101SAPE    HS10184   2.191   0.360   6.426 -0.4074  0.8778  1.7868
  101SAPE   O2110185   2.366   0.306   6.320 -0.0948  0.5771  0.2599
  101SAPE   C2110186   2.317   0.180   6.319 -0.4051 -0.0693 -0.9200
  101SAPE   O2210187   2.228   0.141   6.393 -0.0061 -0.1761 -0.3262
  101SAPE   C2210188   2.407   0.096   6.223 -0.0854  0.7405  0.3534
  101SAPE   H2R10189   2.472   0.170   6.172  0.6863 -0.6388 -0.7206
  101SAPE   H2S10190   2.483   0.039   6.280  1.0835  1.0602 -0.8247
  101SAPE    C310191   2.277   0.531   6.336 -0.2473  0.3643  0.3393
  101SAPE    HX10192   2.380   0.554   6.303  0.1191 -2.0222 -0.3787
  101SAPE    HY10193   2.234   0.604   6.407  0.2924 -0.0295  1.0841
  101SAPE   O3110194   2.206   0.523   6.213  0.6351  0.4704 -0.0159
  101SAPE   C3110195   2.235   0.620   6.123  0.0421  0.3767 -0.2781
  101SAPE   O3210196   2.308   0.715   6.131 -0.6172  0.3332 -0.2560
  101SAPE   C3210197   2.169   0.587   5.994 -0.1509  0.4383 -0.1783
  101SAPE   H2X10198   2.111   0.679   5.974  0.8540  1.6162  2.0384
  101SAPE   H2Y10199   2.116   0.489   5.998  0.8120 -0.0553  1.8517
  101SAPE   C2310200   2.325   0.011   6.125 -0.1106  0.1483  0.1354
  101SAPE   H3R10201   2.253  -0.057   6.175  0.4164 -0.7552 -0.3013
  101SAPE   H3S10202   2.406  -0.053   6.083  0.5556  1.8162 -1.2363
  101SAPE   C2410203   2.240   0.090   6.030  0.0992 -0.1053  1.1498
  101SAPE   H4R10204   2.152   0.142   6.072 -0.9212 -0.1541 -0.7943
  101SAPE   H4S10205   2.188   0.027   5.954  0.1910  2.8130 -1.5259
  101SAPE   C2510206   2.337   0.181   5.947  0.7450 -0.4554  0.7731
  101SAPE   H5R10207   2.372   0.270   6.001 -0.3022 -0.7967  2.0612
  101SAPE   C2610208   2.386   0.153   5.818 -0.2460  0.1178 -0.0446
  101SAPE   H6R10209   2.453   0.224   5.768 -0.0454 -0.3338 -0.4349
  101SAPE   C2710210   2.335   0.035   5.738 -0.2562 -0.3133 -0.2211
  101SAPE   H7R10211   2.225   0.048   5.747 -0.4058  0.7096 -2.7388
  101SAPE   H7S10212   2.378  -0.057   5.784  0.6645  0.7816  1.2069
  101SAPE   C2810213   2.370   0.044   5.591  0.3528  0.3959  0.2240
  101SAPE   H8R10214   2.479   0.053   5.580  0.6893 -0.0067  2.6147
  101SAPE   C2910215   2.270   0.049   5.496 -0.0006  0.4065  0.0270
  101SAPE   H9R10216   2.292   0.031   5.390  0.0292 -0.2764  0.1450
  101SAPE  C21010217   2.118   0.046   5.509 -0.8537  0.1805 -0.6911
  101SAPE  H10R10218   2.082   0.041   5.614  2.4690  0.1504  0.5640
  101SAPE  H10S10219   2.084  -0.048   5.459 -0.9478  0.7947 -1.8089
  101SAPE  C21110220   2.055   0.168   5.443  0.4820  0.4407  0.4911
  101SAPE  H11R10221   2.109   0.255   5.482  1.8965 -0.2074  0.0811
  101SAPE  C21210222   1.952   0.170   5.360  0.3461 -1.0170  0.9196
  101SAPE  H12R10223   1.908   0.263   5.320  0.1960 -2.1495 -1.7595
  101SAPE  C21310224   1.875   0.049   5.299 -0.2003 -0.8653 -0.5290
  101SAPE  H13R10225   1.828  -0.007   5.382  3.3138 -0.1078  2.2136
  101SAPE  H13S10226   1.953  -0.016   5.254  1.0020  0.9368 -1.1856
  101SAPE  C21410227   1.766   0.081   5.197  0.9610 -0.4514  0.3848
  101SAPE  H14R10228   1.669   0.065   5.246 -0.3281  0.9706 -1.5478
  101SAPE  C21510229   1.768   0.123   5.070 -0.5644 -0.6834 -0.0922
  101SAPE  H15R10230   1.670   0.124   5.018 -0.8744 -1.9370  0.4290
  101SAPE  C21610231   1.892   0.141   4.987 -0.0638  0.1700 -0.0339
  101SAPE  H16R10232   1.987   0.141   5.043  0.1964  1.9322 -0.3914
  101SAPE  H16S10233   1.893   0.236   4.929 -0.2345  0.8783  1.1010
  101SAPE  C21710234   1.921   0.030   4.884  0.5538  0.0687  0.3551
  101SAPE  H17R10235   1.948  -0.070   4.924 -0.8105 -1.2987 -1.8874
  101SAPE  H17S10236   2.007   0.054   4.818  0.2945  2.1624  0.7255
  101SAPE  C21810237   1.797  -0.000   4.789  0.2244 -0.2847 -0.5105
  101SAPE  H18R10238   1.723  -0.053   4.852 -0.8419  2.3480  0.5680
  101SAPE  H18S10239   1.814  -0.069   4.704 -1.6065 -1.2691 -0.1192
  101SAPE  C21910240   1.731   0.123   4.735 -0.6987 -0.4080 -0.4982
  101SAPE  H19R10241   1.801   0.178   4.669 -2.8991  4.2474  0.5608
  101SAPE  H19S10242   1.715   0.204   4.810  0.6303  0.6717 -1.3316
  101SAPE  C22010243   1.608   0.096   4.652  0.3995 -0.0007 -0.0979
  101SAPE  H20R10244   1.532   0.043   4.712 -1.1496  0.5037 -1.5322
  101SAPE  H20S10245   1.632   0.040   4.559 -0.5459 -0.5617 -0.0127
  101SAPE  H20T10246   1.552   0.189   4.629  0.3733  0.5737  2.0691
  101SAPE   C3310247   2.275   0.582   5.885  0.1280  0.0468 -0.5709
  101SAPE   H3X10248   2.363   0.522   5.918 -0.2301 -0.3964 -0.4171
  101SAPE   H3Y10249   2.296   0.690   5.871 -0.2020  0.3643  1.1999
  101SAPE   C3410250   2.225   0.532   5.744 -0.0779  0.2166  0.1874
  101SAPE   H4X10251   2.137   0.594   5.714  0.3637  0.6206 -0.3131
  101SAPE   H4Y10252   2.181   0.431   5.757  0.3758  0.0179  0.1943
  101SAPE   C3510253   2.339   0.545   5.641 -0.2342  0.5254  0.0062
  101SAPE   H5X10254   2.435   0.512   5.686 -0.4231 -1.7779 -1.1081
  101SAPE   H5Y10255   2.354   0.654   5.631  2.0921  0.0856 -2.4627
  101SAPE   C3610256   2.324   0.485   5.505 -0.1666 -0.2404  0.7482
  101SAPE   H6X10257   2.309   0.375   5.514  0.6268 -0.5686 -1.4077
  101SAPE   H6Y10258   2.421   0.494   5.451 -0.4591 -1.5487 -0.0470
  101SAPE   C3710259   2.216   0.537   5.416  0.0512  0.0308  0.5547
  101SAPE   H7X10260   2.262   0.617   5.354 -0.8151  0.8734  0.9654
  101SAPE   H7Y10261   2.132   0.579   5.476  0.4265  2.1715 -0.3372
  101SAPE   C3810262   2.167   0.452   5.298  0.2327  0.5758 -0.0113
  101SAPE   H8X10263   2.056   0.442   5.300  0.4277 -2.0850  0.5732
  101SAPE   H8Y10264   2.205   0.348   5.300  0.0017  0.4909  1.5879
  101SAPE   C3910265   2.203   0.515   5.159  0.5162  0.7771 -0.0086
  101SAPE   H9X10266   2.307   0.551   5.169  1.1918 -1.0909  0.0970
  101SAPE   H9Y10267   2.137   0.601   5.134  0.2453  0.7346  0.5545
  101SAPE  C31010268   2.203   0.398   5.055  0.2517 -0.5663  0.1313
  101SAPE  H10X10269   2.111   0.337   5.061 -1.2029  1.6570  3.1755
  101SAPE  H10Y10270   2.292   0.335   5.079  1.7317  0.6146 -1.9205
  101SAPE  C31110271   2.220   0.453   4.912 -0.8806 -0.4973  0.9483
  101SAPE  H11X10272   2.266   0.366   4.859  1.1327  0.7901  0.4752
  101SAPE  H11Y10273   2.290   0.539   4.917 -1.2588 -0.0908 -0.3319
  101SAPE  C31210274   2.083   0.494   4.848 -0.4697  0.5384 -0.4321
  101SAPE  H12X10275   2.031   0.564   4.916 -1.7319  0.3105 -1.1294
  101SAPE  H12Y10276   2.028   0.398   4.840  0.4855  0.1214 -2.8907
  101SAPE  C31310277   2.105   0.558   4.709 -0.0083  0.3411  0.6478
  101SAPE  H13X10278   2.143   0.483   4.636  0.8483  1.5405 -0.1777
  101SAPE  H13Y10279   2.178   0.642   4.713 -0.0799  0.4182  0.3849
  101SAPE  C31410280   1.971   0.631   4.659 -0.3941  0.3502  0.8214
  101SAPE  H14X10281   1.993   0.697   4.572 -2.8523 -0.2332 -0.3323
  101SAPE  H14Y10282   1.942   0.705   4.736 -0.8582  2.4324 -1.2517
  101SAPE  C31510283   1.864   0.537   4.598 -0.2802 -0.2623  0.0729
  101SAPE  H15X10284   1.859   0.444   4.659 -0.7630 -0.8563 -0.8478
  101SAPE  H15Y10285   1.907   0.504   4.501  0.1886  0.1258  0.1488
  101SAPE  C31610286   1.730   0.605   4.575 -0.4837 -0.2159  0.2658
  101SAPE  H16X10287   1.664   0.529   4.528 -0.5881 -0.6051  1.0166
  101SAPE  H16Y10288   1.751   0.691   4.508  1.2470  0.1481  1.2171
  101SAPE  C31710289   1.671   0.655   4.708  0.0117 -0.3134 -0.1584
  101SAPE  H17X10290   1.743   0.724   4.757 -1.1877  1.8901 -1.3103
  101SAPE  H17Y10291   1.672   0.575   4.785 -0.0942  1.4487  1.7737
  101SAPE  C31810292   1.532   0.726   4.700 -0.5527  0.3463 -0.7039
  101SAPE  H18X10293   1.456   0.656   4.660 -1.6527  0.8103  0.5335
  101SAPE  H18Y10294   1.535   0.817   4.636  3.9388  1.2284  0.3572
  101SAPE  H18Z10295   1.512   0.758   4.804  0.0518 -0.9591 -0.1652
  102SAPE     N10296   1.656   6.544   6.920  0.4181  0.0472  0.6411
  102SAPE   HN110297   1.745   6.581   6.881  1.4867 -1.7740  1.2564
  102SAPE   HN210298   1.586   6.619   6.901 -0.0865 -0.8199 -1.1111
  102SAPE   HN310299   1.677   6.532   7.021  0.7721 -2.0014  0.3597
  102SAPE   C1210300   1.617   6.404   6.882 -0.3424 -0.3225 -0.4983
  102SAPE  H12A10301   1.506   6.402   6.883 -0.3455 -1.0515 -1.6738
  102SAPE  H12B10302   1.647   6.339   6.967  1.7327 -0.9544 -1.6671
  102SAPE   C1110303   1.674   6.353   6.751  0.5891 -0.6168 -0.9737
  102SAPE  H11A10304   1.625   6.404   6.666 -0.9147  0.9155  0.7205
  102SAPE  H11B10305   1.646   6.246   6.745 -2.4697  0.0138  0.3028
  102SAPE     P10306   1.922   6.268   6.732 -0.1300 -0.0401  0.4967
  102SAPE   O1310307   2.053   6.320   6.765 -0.2153 -0.2584 -0.1884
  102SAPE   O1410308   1.881   6.150   6.804  0.4272  0.0757  0.3756
  102SAPE   O1210309   1.814   6.380   6.743 -0.4428 -0.0648 -0.4979
  102SAPE   O1110310   1.910   6.231   6.579 -0.0457  0.1232 -0.4002
  102SAPE    C110311   1.890   6.324   6.471 -0.6234  0.0601  0.3410
  102SAPE    HA10312   1.794   6.303   6.421 -0.0813 -0.0491 -0.6690
  102SAPE    HB10313   1.915   6.431   6.488  1.9453 -0.0765 -1.8829
  102SAPE    C210314   1.990   6.293   6.353 -0.4862 -0.0215 -0.7164
  102SAPE    HS10315   1.942   6.338   6.264  0.0537  0.7865 -0.6069
  102SAPE   O2110316   2.008   6.153   6.328 -0.2516  0.2755 -0.1714
  102SAPE   C2110317   1.903   6.086   6.283 -0.0266  0.1576  0.1720
  102SAPE   O2210318   1.796   6.132   6.256 -0.4829  0.2322  0.1353
  102SAPE   C2210319   1.934   5.937   6.264 -0.5333  0.0394 -0.2269
  102SAPE   H2R10320   2.014   5.899   6.331  0.6962  0.8528 -1.1913
  102SAPE   H2S10321   1.842   5.876   6.275 -0.7982  0.3425 -0.7305
  102SAPE    C310322   2.128   6.359   6.373  0.0998  0.4214 -0.8054
  102SAPE    HX10323   2.204   6.285   6.405 -0.7711  0.0652  0.5052
  102SAPE    HY10324   2.115   6.424   6.462 -1.1086 -0.7710 -0.0821
  102SAPE   O3110325   2.176   6.437   6.265 -0.2021 -0.7671 -0.6632
  102SAPE   C3110326   2.231   6.374   6.163  0.0919 -0.5066  0.2272
  102SAPE   O3210327   2.214   6.255   6.136  0.4865 -0.0394  0.0326
  102SAPE   C3210328   2.327   6.471   6.092  0.3503  0.2292  0.9334
  102SAPE   H2X10329   2.429   6.459   6.134  1.5174 -0.9184 -2.0409
  102SAPE   H2Y10330   2.304   6.577   6.118  0.9603  0.3045  1.1845
  102SAPE   C2310331   1.990   5.914   6.118  0.1539 -0.5611 -0.3752
  102SAPE   H3R10332   2.073   5.986   6.104 -1.3876  1.9332  2.3119
  102SAPE   H3S10333   1.917   5.949   6.042  0.8249  0.8362 -0.3978
  102SAPE   C2410334   2.044   5.776   6.084 -0.2690 -0.0802 -0.7272
  102SAPE   H4R10335   2.130   5.742   6.145 -1.1987 -1.1790  0.0116
  102SAPE   H4S10336   2.085   5.777   5.981  0.5369 -0.8989 -0.4187
  102SAPE   C2510337   1.940   5.671   6.080 -0.7024  0.5147  0.9727
  102SAPE   H5R10338   1.941   5.623   6.179  0.7181  0.4803  0.9626
  102SAPE   C2610339   1.859   5.641   5.981 -1.1058  0.1969  0.0675
  102SAPE   H6R10340   1.794   5.552   5.988 -0.9973  0.0483 -0.6490
  102SAPE   C2710341   1.883   5.701   5.840  0.4235  0.2934 -0.2069
  102SAPE   H7R10342   1.914   5.808   5.844  0.7040  0.2069 -0.0465
  102SAPE   H7S10343   1.781   5.717   5.798 -1.0359  1.4323  3.3357
  102SAPE   C2810344   1.976   5.622   5.746  0.2614  0.1391 -0.2948
  102SAPE   H8R10345   2.065   5.599   5.807  0.6675  1.6820 -0.2602
  102SAPE   C2910346   1.967   5.591   5.615 -0.0632 -0.1426  0.2387
  102SAPE   H9R10347   2.049   5.540   5.563  0.3120  2.5150 -1.9986
  102SAPE  C21010348   1.857   5.632   5.520 -0.0973 -0.1622  0.2313
  102SAPE  H10R10349   1.898   5.659   5.420  1.1622 -0.0743  0.7482
  102SAPE  H10S10350   1.811   5.729   5.551 -0.4941 -0.1813 -0.2887
  102SAPE  C21110351   1.756   5.519   5.514  0.2880 -0.1378 -0.2945
  102SAPE  H11R10352   1.718   5.484   5.611  2.7423 -0.8812  0.4814
  102SAPE  C21210353   1.690   5.465   5.403 -0.4974 -0.7958  1.1053
  102SAPE  H12R10354   1.631   5.374   5.420 -0.6893 -0.3578  2.9436
  102SAPE  C21310355   1.713   5.493   5.254  0.2675 -1.0236 -0.2283
  102SAPE  H13R10356   1.709   5.392   5.207 -3.1907 -1.3630  0.4663
  102SAPE  H13S10357   1.807   5.549   5.239  0.5201 -1.2167  0.5850
  102SAPE  C21410358   1.590   5.574   5.202 -0.2806  0.2780  0.7948
  102SAPE  H14R10359   1.496   5.567   5.258 -1.5231 -1.7514 -1.3202
  102SAPE  C21510360   1.584   5.651   5.091 -0.4467  0.1871  0.2534
  102SAPE  H15R10361   1.488   5.692   5.057 -1.8602 -2.5566  0.5934
  102SAPE  C21610362   1.692   5.669   4.988 -0.3564 -0.1746 -0.6252
  102SAPE  H16R10363   1.784   5.609   5.006  0.5664  0.0756 -3.8743
  102SAPE  H16S10364   1.724   5.776   4.986 -0.3294 -0.1773 -0.3843
  102SAPE  C21710365   1.642   5.658   4.839  0.8101  0.4549  0.0960
  102SAPE  H17R10366   1.732   5.689   4.781  2.6171 -0.8403  2.0535
  102SAPE  H17S10367   1.557   5.730   4.836  1.1258  0.8200 -0.3039
  102SAPE  C21810368   1.611   5.518   4.808  0.4648 -0.2733  0.1939
  102SAPE  H18R10369   1.520   5.491   4.864 -0.0263 -0.3429 -0.6208
  102SAPE  H18S10370   1.700   5.458   4.838  0.2005 -0.1350  1.2853
  102SAPE  C21910371   1.585   5.486   4.654 -0.0500  0.0236 -0.7274
  102SAPE  H19R10372   1.678   5.466   4.597 -0.1562  0.0940 -0.9257
  102SAPE  H19S10373   1.533   5.570   4.604  0.2237  0.4896 -0.2294
  102SAPE  C22010374   1.508   5.355   4.629 -0.4484 -0.1149 -0.8183
  102SAPE  H20R10375   1.565   5.271   4.675 -0.0506 -0.4533 -1.9127
  102SAPE  H20S10376   1.509   5.347   4.519  0.7174  1.5029 -0.9518
  102SAPE  H20T10377   1.406   5.367   4.672  0.4601  0.1068  1.4173
  102SAPE   C3310378   2.313   6.440   5.940  0.0330 -0.4915  0.3641
  102SAPE   H3X10379   2.310   6.331   5.920 -3.1498 -0.3888 -0.2648
  102SAPE   H3Y10380   2.395   6.493   5.888 -0.4559  0.9007  0.9512
  102SAPE   C3410381   2.180   6.496   5.880 -0.4133 -0.3545 -0.1520
  102SAPE   H4X10382   2.163   6.604   5.899  1.4162 -0.0028 -0.3904
  102SAPE   H4Y10383   2.091   6.443   5.921  0.2321 -0.1312  1.6266
  102SAPE   C3510384   2.179   6.461   5.723 -0.7538  0.3024 -0.2304
  102SAPE   H5X10385   2.198   6.353   5.707  0.3379  0.6105 -1.1156
  102SAPE   H5Y10386   2.262   6.512   5.670 -1.4171  1.0387 -0.5841
  102SAPE   C3610387   2.050   6.513   5.644  0.2754 -0.3035 -0.1451
  102SAPE   H6X10388   2.031   6.622   5.656 -0.3455 -0.3345 -0.7962
  102SAPE   H6Y10389   1.955   6.461   5.671  0.0675  0.8443  1.4941
  102SAPE   C3710390   2.052   6.493   5.491 -0.9527 -0.2871 -0.9403
  102SAPE   H7X10391   2.068   6.385   5.468 -1.4300 -0.7444  0.7330
  102SAPE   H7Y10392   2.142   6.534   5.441  1.2240 -3.3857  0.1533
  102SAPE   C3810393   1.931   6.535   5.406  0.1767 -0.5092  0.2922
  102SAPE   H8X10394   1.930   6.646   5.407 -1.1595 -0.4413 -2.2746
  102SAPE   H8Y10395   1.838   6.501   5.456  0.2548 -1.7902 -0.3903
  102SAPE   C3910396   1.932   6.492   5.262 -0.5532 -0.3149 -0.3755
  102SAPE   H9X10397   1.911   6.383   5.250 -2.3460 -0.0532 -0.0023
  102SAPE   H9Y10398   2.029   6.508   5.211 -0.5681  1.2119  0.0351
  102SAPE  C31010399   1.815   6.571   5.193 -0.3037  0.4822 -0.6206
  102SAPE  H10X10400   1.856   6.669   5.160  0.4551  0.6566  0.7752
  102SAPE  H10Y10401   1.733   6.600   5.261  0.1878  2.0849 -0.6746
  102SAPE  C31110402   1.765   6.495   5.067  0.3354 -0.2708 -0.1022
  102SAPE  H11X10403   1.679   6.548   5.020 -0.4131 -0.7280  0.7027
  102SAPE  H11Y10404   1.734   6.392   5.094 -1.0733  0.4070  1.0182
  102SAPE  C31210405   1.866   6.468   4.957 -0.0852  0.2150 -0.0269
  102SAPE  H12X10406   1.945   6.406   5.003  0.3140  1.0487  0.4479
  102SAPE  H12Y10407   1.930   6.556   4.932  0.7453 -0.2972  0.2601
  102SAPE  C31310408   1.822   6.397   4.828 -0.5905  0.5677 -0.2412
  102SAPE  H13X10409   1.762   6.305   4.839 -1.2088  0.5360 -3.0624
  102SAPE  H13Y10410   1.920   6.370   4.781  0.2675 -0.8556  2.2043
  102SAPE  C31410411   1.749   6.503   4.747 -0.1486  0.7429 -0.3198
  102SAPE  H14X10412   1.829   6.577   4.725  0.3352  0.6983  1.2030
  102SAPE  H14Y10413   1.669   6.539   4.815  1.4477  0.2574  1.9143
  102SAPE  C31510414   1.683   6.454   4.619  0.4970 -0.0235 -0.0042
  102SAPE  H15X10415   1.769   6.412   4.564  2.2598 -1.7220  3.6634
  102SAPE  H15Y10416   1.637   6.538   4.563  0.3459  2.0037  2.9228
  102SAPE  C31610417   1.583   6.344   4.651 -0.1360 -0.3130 -0.4868
  102SAPE  H16X10418   1.518   6.369   4.737 -0.1476 -4.1141  0.7877
  102SAPE  H16Y10419   1.637   6.257   4.692  0.2551  0.5759  0.9567
  102SAPE  C31710420   1.485   6.300   4.543  0.6592  0.2938 -0.7125
  102SAPE  H17X10421   1.548   6.285   4.453  0.3698  0.5387 -0.9572
  102SAPE  H17Y10422   1.426   6.393   4.526  0.4129  0.1342 -0.7384
  102SAPE  C31810423   1.393   6.189   4.578  0.1727  0.7729 -0.4607
  102SAPE  H18X10424   1.333   6.137   4.501  0.5084 -2.9658  1.5967
  102SAPE  H18Y10425   1.321   6.232   4.651 -2.8327 -2.0009 -1.5393
  102SAPE  H18Z10426   1.449   6.108   4.629 -0.7802 -0.3507 -1.1565
  103SAPE     N10427   0.631   4.497   2.389 -0.6130  0.4550 -0.2794
  103SAPE   HN110428   0.597   4.559   2.313 -1.4105  0.4093  0.0365
  103SAPE   HN210429   0.643   4.408   2.335  0.0374 -0.0098  0.6088
  103SAPE   HN310430   0.551   4.488   2.454  0.4597 -4.2429  0.7724
  103SAPE   C1210431   0.762   4.542   2.437  0.3983 -0.0332  0.2848
  103SAPE  H12A10432   0.763   4.634   2.499  0.4838  0.1653 -0.0122
  103SAPE  H12B10433   0.837   4.565   2.358  0.1699  2.0940  0.6329
  103SAPE   C1110434   0.829   4.421   2.506 -0.0499 -0.7571 -0.4118
  103SAPE  H11A10435   0.785   4.391   2.603  1.5027  1.4481  1.0407
  103SAPE  H11B10436   0.926   4.465   2.535 -0.4664  0.6176 -1.0344
  103SAPE     P10437   0.762   4.175   2.425  0.6134 -0.1009 -0.4608
  103SAPE   O1310438   0.623   4.213   2.401 -0.0305  0.1109 -0.6405
  103SAPE   O1410439   0.821   4.072   2.339 -0.2377 -0.4048  0.4731
  103SAPE   O1210440   0.850   4.308   2.420 -0.1420  0.0282 -0.1421
  103SAPE   O1110441   0.764   4.132   2.580  0.7712  0.1633  0.3716
  103SAPE    C110442   0.885   4.128   2.656  0.2734 -0.3174 -0.1530
  103SAPE    HA10443   0.962   4.203   2.628 -1.9112  2.4426  0.7394
  103SAPE    HB10444   0.856   4.171   2.755 -2.1383 -0.1792 -0.8563
  103SAPE    C210445   0.953   4.001   2.686 -0.3318  0.3695  0.0451
  103SAPE    HS10446   0.988   3.970   2.585  1.4276  4.1123 -0.6627
  103SAPE   O2110447   0.864   3.908   2.752 -0.7793  1.0755 -0.0842
  103SAPE   C2110448   0.907   3.785   2.746  0.4110 -0.3229  0.7343
  103SAPE   O2210449   1.006   3.748   2.684 -0.3434  0.1235 -0.1540
  103SAPE   C2210450   0.817   3.703   2.837  0.3354 -0.7135  0.2710
  103SAPE   H2R10451   0.862   3.698   2.939 -0.1612  0.3782  0.5616
  103SAPE   H2S10452   0.715   3.746   2.852  0.7287 -0.2748  1.8978
  103SAPE    C310453   1.093   4.023   2.754 -0.4150  0.4118 -0.4268
  103SAPE    HX10454   1.150   4.096   2.692 -0.0087  0.2483 -0.2476
  103SAPE    HY10455   1.162   3.936   2.749 -0.9074  0.0029 -0.2195
  103SAPE   O3110456   1.082   4.093   2.880 -0.5096 -0.5087  0.1076
  103SAPE   C3110457   1.080   4.010   2.992 -0.2765 -0.7125 -0.3569
  103SAPE   O3210458   1.076   3.888   2.989  0.2362 -0.3737 -0.0588
  103SAPE   C3210459   1.061   4.097   3.119 -0.0509  0.6809  0.8529
  103SAPE   H2X10460   0.955   4.128   3.128  0.2034  1.2957  1.8906
  103SAPE   H2Y10461   1.119   4.190   3.099  0.8269 -0.2623 -1.3166
  103SAPE   C2310462   0.794   3.556   2.796  0.3136 -0.2041  0.1182
  103SAPE   H3R10463   0.886   3.494   2.790  1.1106  0.8913  0.7892
  103SAPE   H3S10464   0.747   3.547   2.695 -1.9608 -1.8580  1.2133
  103SAPE   C2410465   0.696   3.470   2.878 -0.0707 -0.2669 -0.6083
  103SAPE   H4R10466   0.665   3.378   2.823  0.9949 -0.0285 -1.6592
  103SAPE   H4S10467   0.614   3.537   2.912  2.6975  3.0279  0.0716
  103SAPE   C2510468   0.764   3.427   3.010  0.6075 -0.0141  0.1786
  103SAPE   H5R10469   0.838   3.346   3.004  1.3285  0.3055  3.2413
  103SAPE   C2610470   0.741   3.468   3.136  0.0297 -1.0152  0.9919
  103SAPE   H6R10471   0.791   3.409   3.214  1.4272 -0.3451  0.6362
  103SAPE   C2710472   0.673   3.595   3.182 -0.1558  0.7340 -0.3059
  103SAPE   H7R10473   0.576   3.570   3.228  0.0309  0.8773  0.1728
  103SAPE   H7S10474   0.624   3.662   3.108 -2.4535 -0.0324  0.4605
  103SAPE   C2810475   0.754   3.687   3.269 -0.2426 -0.0636  0.1012
  103SAPE   H8R10476   0.815   3.755   3.208  1.9046 -3.0560 -1.3541
  103SAPE   C2910477   0.741   3.696   3.404 -0.1556  0.0996  0.3217
  103SAPE   H9R10478   0.816   3.760   3.453  1.6445 -1.1491 -0.6706
  103SAPE  C21010479   0.660   3.602   3.502  0.0254 -0.2584  0.0755
  103SAPE  H10R10480   0.738   3.533   3.540  3.3202  2.2944 -1.4324
  103SAPE  H10S10481   0.585   3.539   3.450 -0.2113  0.1512 -0.0863
  103SAPE  C21110482   0.596   3.686   3.607  0.3525 -0.4329 -0.6576
  103SAPE  H11R10483   0.560   3.779   3.563 -1.8742 -0.6549  0.5615
  103SAPE  C21210484   0.583   3.656   3.739  0.4998  0.1688  0.3167
  103SAPE  H12R10485   0.537   3.734   3.802 -0.3311  1.2025 -1.4971
  103SAPE  C21310486   0.624   3.530   3.809  0.3962 -0.0723 -0.2831
  103SAPE  H13R10487   0.701   3.552   3.887  1.3437 -0.1518 -1.1786
  103SAPE  H13S10488   0.679   3.461   3.742 -1.3673 -0.5846 -1.2721
  103SAPE  C21410489   0.511   3.441   3.868  0.1642  0.3639 -0.4357
  103SAPE  H14R10490   0.421   3.432   3.806  0.2257 -0.3655 -0.4206
  103SAPE  C21510491   0.512   3.373   3.985  0.2225 -0.2206  0.4355
  103SAPE  H15R10492   0.428   3.316   4.026 -0.4518  0.1761 -0.3692
  103SAPE  C21610493   0.627   3.385   4.085 -0.4916  0.6025 -0.2866
  103SAPE  H16R10494   0.712   3.443   4.042  0.5435  0.3337  1.3112
  103SAPE  H16S10495   0.665   3.284   4.112  0.9434  0.8791 -1.1415
  103SAPE  C21710496   0.591   3.457   4.215 -0.3449 -0.6082  0.0869
  103SAPE  H17R10497   0.542   3.553   4.192 -2.5143 -1.4932  0.7440
  103SAPE  H17S10498   0.683   3.484   4.272 -1.2420  1.4077  0.6757
  103SAPE  C21810499   0.489   3.381   4.301 -0.7878  1.1474 -0.8893
  103SAPE  H18R10500   0.512   3.272   4.306 -0.9273  1.1642  0.7006
  103SAPE  H18S10501   0.389   3.396   4.255 -1.6103 -2.6323 -0.6327
  103SAPE  C21910502   0.508   3.426   4.446 -0.3969 -0.5161 -0.7323
  103SAPE  H19R10503   0.498   3.536   4.434 -0.7772 -0.4742 -0.0665
  103SAPE  H19S10504   0.603   3.393   4.492 -0.3881 -0.1094 -0.4505
  103SAPE  C22010505   0.390   3.384   4.527  0.1112 -0.4925 -0.0328
  103SAPE  H20R10506   0.395   3.452   4.615 -0.0585 -1.8285  1.0349
  103SAPE  H20S10507   0.395   3.278   4.560  0.3045 -1.0952 -1.8848
  103SAPE  H20T10508   0.295   3.399   4.472  1.1208 -0.0175 -1.7137
  103SAPE   C3310509   1.112   4.020   3.252  0.8065 -0.1967  0.0415
  103SAPE   H3X10510   1.221   4.008   3.238  0.7837  2.1847 -3.5029
  103SAPE   H3Y10511   1.063   3.921   3.242 -1.1272  0.8525 -1.6633
  103SAPE   C3410512   1.061   4.102   3.375 -0.6359 -0.0130 -0.5113
  103SAPE   H4X10513   0.951   4.100   3.384 -0.5218  1.2432  2.4278
  103SAPE   H4Y10514   1.097   4.206   3.356 -1.4173  0.4319  0.3470
  103SAPE   C3510515   1.116   4.043   3.501  0.0203  0.2148  0.4390
  103SAPE   H5X10516   1.225   4.058   3.508 -0.3701  2.7779  3.2644
  103SAPE   H5Y10517   1.100   3.934   3.489  1.5498 -0.0641  0.8007
  103SAPE   C3610518   1.039   4.106   3.623 -0.4153  0.4855  0.5571
  103SAPE   H6X10519   0.932   4.081   3.611 -0.5345  0.6659  1.2161
  103SAPE   H6Y10520   1.044   4.216   3.610  2.9006  0.3880  0.1638
  103SAPE   C3710521   1.084   4.074   3.765  0.4574  0.0174 -0.5916
  103SAPE   H7X10522   1.179   4.118   3.801  1.8222 -3.3544  0.2376
  103SAPE   H7Y10523   1.117   3.970   3.782  1.2862 -0.0203 -2.2429
  103SAPE   C3810524   0.985   4.130   3.873  0.1348 -0.0011  0.5173
  103SAPE   H8X10525   0.880   4.119   3.837 -0.3761  0.6482  1.7523
  103SAPE   H8Y10526   1.017   4.236   3.879 -2.1809  0.8918 -1.1776
  103SAPE   C3910527   1.008   4.089   4.015 -0.0559 -0.4688 -0.0734
  103SAPE   H9X10528   1.119   4.084   4.017 -0.0122  0.3550 -0.0663
  103SAPE   H9Y10529   0.944   3.999   4.028 -0.4550  0.1505  2.8905
  103SAPE  C31010530   0.954   4.197   4.111  0.6893  0.3667  0.4891
  103SAPE  H10X10531   0.844   4.210   4.120  0.4400 -0.7653 -0.6696
  103SAPE  H10Y10532   0.992   4.293   4.069 -1.3460  1.1752  0.3776
  103SAPE  C31110533   0.982   4.175   4.261 -0.6628  0.4513  0.2125
  103SAPE  H11X10534   0.963   4.268   4.318  0.8637  0.6026  0.5262
  103SAPE  H11Y10535   1.093   4.170   4.264 -0.7292 -1.4455  2.8118
  103SAPE  C31210536   0.925   4.050   4.321 -0.0607  0.6229 -0.0769
  103SAPE  H12X10537   0.963   4.051   4.425 -0.7016  3.6198  0.2470
  103SAPE  H12Y10538   0.964   3.959   4.271 -0.3290 -0.2446  1.2603
  103SAPE  C31310539   0.773   4.056   4.328  0.2535  0.5586 -0.1644
  103SAPE  H13X10540   0.737   4.000   4.239  2.5655 -1.2337 -0.0687
  103SAPE  H13Y10541   0.746   4.164   4.322  0.0118  0.5309  0.4071
  103SAPE  C31410542   0.727   3.985   4.451 -0.0952  0.1965  0.9240
  103SAPE  H14X10543   0.617   3.989   4.467 -0.1603 -1.7335  1.2435
  103SAPE  H14Y10544   0.786   4.034   4.531  1.7956  2.3541 -1.6278
  103SAPE  C31510545   0.778   3.841   4.453 -0.0202  0.7990 -1.0512
  103SAPE  H15X10546   0.887   3.841   4.474 -0.5112 -0.5950  2.0307
  103SAPE  H15Y10547   0.754   3.789   4.358 -1.1922  0.7042 -0.7138
  103SAPE  C31610548   0.701   3.755   4.554 -0.0602  0.4290 -0.3856
  103SAPE  H16X10549   0.748   3.654   4.550 -0.3097  0.2294  1.0381
  103SAPE  H16Y10550   0.594   3.752   4.524 -0.5766 -4.2174  1.0619
  103SAPE  C31710551   0.716   3.798   4.698  0.0326 -0.7558  0.0717
  103SAPE  H17X10552   0.649   3.748   4.772 -0.6722  2.0246  1.4671
  103SAPE  H17Y10553   0.686   3.905   4.703 -0.4130 -0.7431 -1.8981
  103SAPE  C31810554   0.854   3.775   4.762 -0.6219 -0.6175  0.1832
  103SAPE  H18X10555   0.867   3.831   4.857  1.6213  0.3702 -0.6343
  103SAPE  H18Y10556   0.924   3.819   4.688  0.6310  1.4883  2.4684
  103SAPE  H18Z10557   0.864   3.667   4.786  0.2412 -0.4044  0.8399
  104SAPE     N10558   2.413   3.434   2.305  0.2325  0.3707 -0.1862
  104SAPE   HN110559   2.378   3.532   2.298  1.0167  0.6370 -0.5383
  104SAPE   HN210560   2.327   3.375   2.304 -0.4336  1.2749 -3.0164
  104SAPE   HN310561   2.456   3.439   2.400 -1.0566 -0.1118  0.4447
  104SAPE   C1210562   2.513   3.401   2.201  0.1614 -0.2352 -0.3174
  104SAPE  H12A10563   2.473   3.415   2.098  0.8325 -1.0491 -0.7041
  104SAPE  H12B10564   2.533   3.292   2.210 -1.5784 -0.5711 -0.0918
  104SAPE   C1110565   2.641   3.491   2.212  0.7616  0.4510  0.1048
  104SAPE  H11A10566   2.663   3.516   2.318  0.3759 -0.4939  0.4200
  104SAPE  H11B10567   2.617   3.588   2.162  0.8461  0.9841  1.0693
  104SAPE     P10568   2.832   3.301   2.203  0.2563  0.0268 -0.4039
  104SAPE   O1310569   2.782   3.174   2.142 -0.5981 -0.0559  0.5002
  104SAPE   O1410570   2.978   3.322   2.190  0.3394 -0.9054 -0.0782
  104SAPE   O1210571   2.748   3.428   2.143  0.5689  0.3813 -0.5488
  104SAPE   O1110572   2.783   3.301   2.356  0.1458 -0.1137 -0.0759
  104SAPE    C110573   2.880   3.314   2.464  0.3566 -0.9550  0.7374
  104SAPE    HA10574   2.980   3.346   2.429 -0.7206  0.4058 -1.3359
  104SAPE    HB10575   2.852   3.399   2.531 -0.0634 -0.8070  0.3803
  104SAPE    C210576   2.899   3.184   2.553 -0.0790 -0.1529  0.0104
  104SAPE    HS10577   2.981   3.129   2.501  1.8452  1.3198  1.3004
  104SAPE   O2110578   2.776   3.115   2.564 -0.2155  0.0504 -0.0943
  104SAPE   C2110579   2.803   2.993   2.592  0.4191  0.4070  0.6941
  104SAPE   O2210580   2.910   2.935   2.600  0.0231 -0.1891 -0.1572
  104SAPE   C2210581   2.663   2.925   2.620 -0.0873 -0.1448  0.4704
  104SAPE   H2R10582   2.599   3.006   2.660 -1.5203 -1.7044  1.4449
  104SAPE   H2S10583   2.632   2.892   2.518 -0.8713  2.9563 -0.4252
  104SAPE    C310584   2.952   3.214   2.695  0.2421 -0.1623  0.1212
  104SAPE    HX10585   3.047   3.266   2.673 -1.0422  1.2147 -2.7689
  104SAPE    HY10586   2.976   3.129   2.762  0.1337 -1.7113 -1.7137
  104SAPE   O3110587   2.868   3.309   2.772  0.6217  0.7283  1.2303
  104SAPE   C3110588   2.768   3.252   2.843 -0.1527  0.0371  0.2070
  104SAPE   O3210589   2.733   3.136   2.849  0.1089  0.4736  0.3051
  104SAPE   C3210590   2.689   3.357   2.917  0.6432 -0.1394 -0.0368
  104SAPE   H2X10591   2.601   3.373   2.850  0.3923 -3.1300 -0.5708
  104SAPE   H2Y10592   2.755   3.446   2.921  0.1513  0.1888  1.4828
  104SAPE   C2310593   2.662   2.818   2.729 -0.0948 -0.4094 -0.2290
  104SAPE   H3R10594   2.694   2.877   2.817  0.2531 -0.6039 -0.2211
  104SAPE   H3S10595   2.741   2.740   2.724  0.6205  0.3657 -2.0604
  104SAPE   C2410596   2.522   2.749   2.757  0.1372  0.3258 -0.0700
  104SAPE   H4R10597   2.451   2.834   2.764 -0.9921 -0.5308 -0.8532
  104SAPE   H4S10598   2.530   2.718   2.863 -1.9346  2.2003  0.7147
  104SAPE   C2510599   2.464   2.649   2.665  0.1614 -0.3126 -0.6686
  104SAPE   H5R10600   2.450   2.679   2.560  0.0004  1.0557 -0.2715
  104SAPE   C2610601   2.384   2.536   2.694 -0.1828  0.0126 -0.2792
  104SAPE   H6R10602   2.328   2.482   2.616  0.5531 -0.6926 -0.3343
  104SAPE   C2710603   2.350   2.474   2.828  0.6810 -1.1397  0.4884
  104SAPE   H7R10604   2.276   2.391   2.828 -0.1252 -0.4411  0.2738
  104SAPE   H7S10605   2.307   2.556   2.889 -0.5977 -0.6766 -0.9626
  104SAPE   C2810606   2.470   2.434   2.912 -0.3742 -0.4193  0.1558
  104SAPE   H8R10607   2.564   2.428   2.855  0.1829 -0.5214  1.0642
  104SAPE   C2910608   2.472   2.412   3.049 -0.0367  0.4147  0.1112
  104SAPE   H9R10609   2.566   2.395   3.104  1.1346  3.3889 -0.7544
  104SAPE  C21010610   2.359   2.420   3.148  0.4234 -0.3208 -1.0410
  104SAPE  H10R10611   2.377   2.345   3.228  0.1822  0.6144 -0.0940
  104SAPE  H10S10612   2.260   2.384   3.114 -0.0258  0.5108 -0.6217
  104SAPE  C21110613   2.337   2.557   3.205  0.1186 -0.8227  0.5972
  104SAPE  H11R10614   2.250   2.613   3.169  0.3520 -0.0170  1.2380
  104SAPE  C21210615   2.405   2.603   3.312  0.2551  0.0797 -0.0477
  104SAPE  H12R10616   2.391   2.708   3.343  0.7849 -0.4234  2.0489
  104SAPE  C21310617   2.516   2.532   3.387  0.4081 -0.5709 -0.2572
  104SAPE  H13R10618   2.601   2.604   3.389  0.2209 -0.3606  1.5930
  104SAPE  H13S10619   2.553   2.439   3.339  1.3193 -1.0339  1.2810
  104SAPE  C21410620   2.467   2.487   3.527 -0.2745 -0.5228  0.2279
  104SAPE  H14R10621   2.398   2.402   3.526 -0.5688 -0.3674  2.2204
  104SAPE  C21510622   2.483   2.554   3.643 -0.3415  0.1183 -0.3590
  104SAPE  H15R10623   2.438   2.521   3.738  0.9630 -0.6868  0.0087
  104SAPE  C21610624   2.560   2.684   3.653 -0.3873 -0.3597  0.5316
  104SAPE  H16R10625   2.485   2.760   3.682 -0.9929 -0.5477 -0.4905
  104SAPE  H16S10626   2.616   2.711   3.561  0.4459 -0.3624  1.0232
  104SAPE  C21710627   2.668   2.691   3.756 -0.2053  0.5832 -0.4176
  104SAPE  H17R10628   2.725   2.786   3.750 -1.1739  1.4826  2.4757
  104SAPE  H17S10629   2.745   2.612   3.744 -0.5018  0.0686  0.8375
  104SAPE  C21810630   2.620   2.696   3.909 -0.4918 -0.5505  0.1390
  104SAPE  H18R10631   2.703   2.669   3.977 -0.9440 -0.5315  0.7015
  104SAPE  H18S10632   2.547   2.612   3.912 -0.6838 -0.4406 -0.9988
  104SAPE  C21910633   2.556   2.827   3.942 -0.0420 -0.3367  0.2716
  104SAPE  H19R10634   2.484   2.865   3.866  2.2169 -1.8005 -2.8178
  104SAPE  H19S10635   2.643   2.896   3.935 -0.3732  0.0577  0.0031
  104SAPE  C22010636   2.481   2.831   4.077 -0.2170  0.3531 -0.7089
  104SAPE  H20R10637   2.409   2.747   4.086  0.6460 -0.3385  0.1159
  104SAPE  H20S10638   2.423   2.920   4.108 -2.5266 -1.4185  0.2864
  104SAPE  H20T10639   2.548   2.815   4.164 -1.4891 -0.5645  0.1399
  104SAPE   C3310640   2.644   3.314   3.066 -0.1134 -0.5116  0.4318
  104SAPE   H3X10641   2.733   3.294   3.129  1.1651  0.6131 -0.9634
  104SAPE   H3Y10642   2.589   3.217   3.065  1.4285 -1.4557 -2.2345
  104SAPE   C3410643   2.564   3.421   3.138  0.2798 -0.1766 -0.1608
  104SAPE   H4X10644   2.496   3.466   3.062 -0.7560  1.0562  1.4274
  104SAPE   H4Y10645   2.634   3.506   3.151  1.0548 -1.2442  4.3275
  104SAPE   C3510646   2.499   3.390   3.274  0.3686  0.0560 -0.0615
  104SAPE   H5X10647   2.576   3.340   3.336 -0.0205 -1.5154 -0.7833
  104SAPE   H5Y10648   2.417   3.316   3.262  1.8109 -1.4289 -1.3999
  104SAPE   C3610649   2.439   3.518   3.342  0.2082 -0.0903 -0.5275
  104SAPE   H6X10650   2.391   3.582   3.265 -1.7857 -0.4912  0.3189
  104SAPE   H6Y10651   2.516   3.580   3.394 -0.8807  0.7581  0.1343
  104SAPE   C3710652   2.324   3.491   3.436 -0.1946  0.9205 -0.1183
  104SAPE   H7X10653   2.341   3.411   3.511  1.8782 -0.6534 -2.1329
  104SAPE   H7Y10654   2.240   3.460   3.370  0.5813  0.1257 -0.7353
  104SAPE   C3810655   2.284   3.611   3.516  0.1649  0.0670 -0.2301
  104SAPE   H8X10656   2.176   3.611   3.541 -0.7340  0.1299 -3.6121
  104SAPE   H8Y10657   2.285   3.695   3.443 -1.8385 -0.4760 -0.9690
  104SAPE   C3910658   2.367   3.641   3.641 -0.0806  0.5345  0.2126
  104SAPE   H9X10659   2.476   3.653   3.621 -0.3503  0.1141 -1.6580
  104SAPE   H9Y10660   2.359   3.561   3.718  0.3208 -0.1159 -0.4106
  104SAPE  C31010661   2.319   3.759   3.728 -0.0266  0.8015 -0.1182
  104SAPE  H10X10662   2.249   3.823   3.669 -2.4483 -0.3078  1.4128
  104SAPE  H10Y10663   2.408   3.824   3.741 -0.9189  2.4825 -1.8266
  104SAPE  C31110664   2.264   3.728   3.867  1.0754  0.4303 -0.4983
  104SAPE  H11X10665   2.177   3.661   3.855  0.5418  0.8550  0.7905
  104SAPE  H11Y10666   2.227   3.822   3.914  0.5829  0.1055 -0.2232
  104SAPE  C31210667   2.371   3.670   3.968  0.1624 -0.8116 -1.0063
  104SAPE  H12X10668   2.463   3.730   3.954 -0.8972  0.4492 -3.1595
  104SAPE  H12Y10669   2.391   3.569   3.926 -0.4285 -0.0882 -3.1910
  104SAPE  C31310670   2.328   3.652   4.115 -0.3736 -0.2229  0.2354
  104SAPE  H13X10671   2.408   3.595   4.166 -2.3256 -1.8781  1.5926
  104SAPE  H13Y10672   2.233   3.595   4.120  0.0698 -0.9114  1.0506
  104SAPE  C31410673   2.309   3.780   4.191  0.5874 -0.5661  0.1963
  104SAPE  H14X10674   2.231   3.838   4.137  1.8681  1.7462  0.7146
  104SAPE  H14Y10675   2.402   3.840   4.197  1.4272 -1.8655  0.4437
  104SAPE  C31510676   2.249   3.752   4.333  0.2244  0.3862  0.7354
  104SAPE  H15X10677   2.176   3.669   4.323  2.5291 -1.5146 -2.4660
  104SAPE  H15Y10678   2.199   3.844   4.369  1.1010  1.0128  0.3791
  104SAPE  C31610679   2.346   3.717   4.443  0.1453 -0.1242 -0.1783
  104SAPE  H16X10680   2.420   3.799   4.450 -1.4767  1.5168 -1.2317
  104SAPE  H16Y10681   2.398   3.621   4.422  0.0883  0.5738 -4.6228
  104SAPE  C31710682   2.293   3.695   4.580  0.0980 -0.6058  0.0069
  104SAPE  H17X10683   2.264   3.794   4.622  2.6152 -0.4089  1.4609
  104SAPE  H17Y10684   2.370   3.649   4.644  1.3769 -0.7030 -1.5334
  104SAPE  C31810685   2.168   3.605   4.574  0.4041 -0.3421 -0.4497
  104SAPE  H18X10686   2.083   3.656   4.525  0.7530 -0.0504 -0.7527
  104SAPE  H18Y10687   2.139   3.575   4.677  0.7485 -1.0778 -0.5570
  104SAPE  H18Z10688   2.195   3.514   4.516  2.8592 -1.6521  2.4774
  105SAPE     N10689   6.583   2.884   2.255 -0.0731 -0.0691  0.6606
  105SAPE   HN110690   6.558   2.826   2.172 -1.0469  0.5355  0.5156
  105SAPE   HN210691   6.541   2.979   2.254 -0.3163 -0.1787  0.0049
  105SAPE   HN310692   6.687   2.892   2.251 -0.1309  0.3831 -1.7780
  105SAPE   C1210693   6.536   2.822   2.386 -0.5248  0.6645 -0.1893
  105SAPE  H12A10694   6.568   2.888   2.469 -2.8068  0.9599  0.5208
  105SAPE  H12B10695   6.591   2.725   2.391  2.3360  2.1951  0.3128
  105SAPE   C1110696   6.378   2.812   2.385  0.1268  0.5389 -0.2761
  105SAPE  H11A10697   6.339   2.916   2.389 -2.2586 -0.2736 -0.7789
  105SAPE  H11B10698   6.339   2.758   2.474  1.0577 -1.6865 -1.1604
  105SAPE     P10699   6.271   2.616   2.243 -0.2762 -0.3247 -0.0666
  105SAPE   O1310700   6.170   2.621   2.132 -0.3167 -0.3964 -0.0938
  105SAPE   O1410701   6.384   2.522   2.231  0.0555  0.4551  0.0186
  105SAPE   O1210702   6.341   2.762   2.255 -0.6962 -0.1775 -0.1594
  105SAPE   O1110703   6.194   2.593   2.376 -0.4396  0.2541  0.2178
  105SAPE    C110704   6.128   2.472   2.405 -0.1413  0.2916  0.0221
  105SAPE    HA10705   6.027   2.474   2.357  0.2713 -0.8173 -0.9563
  105SAPE    HB10706   6.178   2.385   2.357 -1.3324  0.4928 -1.6949
  105SAPE    C210707   6.122   2.448   2.556  0.4095  0.1644  0.2420
  105SAPE    HS10708   6.043   2.374   2.578 -0.1103  1.2878  2.4033
  105SAPE   O2110709   6.106   2.568   2.625 -0.0786 -0.3658  0.0719
  105SAPE   C2110710   5.995   2.643   2.607  0.0171  0.5575  0.1212
  105SAPE   O2210711   5.898   2.610   2.542  0.5299  0.1714 -0.4170
  105SAPE   C2210712   6.015   2.775   2.679 -0.1719  0.2264  0.4957
  105SAPE   H2R10713   6.120   2.805   2.656 -0.1286 -0.2772  0.0108
  105SAPE   H2S10714   5.954   2.848   2.623  1.8824  1.6807  0.0537
  105SAPE    C310715   6.251   2.382   2.619 -0.4344  0.4447 -0.2069
  105SAPE    HX10716   6.251   2.380   2.730 -0.8936 -2.5505 -0.1749
  105SAPE    HY10717   6.329   2.449   2.576 -1.9814  1.0933 -2.1961
  105SAPE   O3110718   6.262   2.243   2.567 -0.2047 -0.0525  0.4813
  105SAPE   C3110719   6.374   2.199   2.534  0.0417  0.2930  0.1967
  105SAPE   O3210720   6.477   2.267   2.529  0.1453  0.1097  0.3898
  105SAPE   C3210721   6.357   2.058   2.472  0.4147 -0.0153  0.5699
  105SAPE   H2X10722   6.462   2.022   2.475  0.0392 -1.6704 -2.1247
  105SAPE   H2Y10723   6.321   2.075   2.368 -0.3630 -0.6029  0.7336
  105SAPE   C2310724   5.987   2.798   2.831  0.5014  0.7815  0.3033
  105SAPE   H3R10725   6.062   2.748   2.895  0.4116  1.3712  0.8799
  105SAPE   H3S10726   5.883   2.764   2.854  0.5977  0.4097  0.1905
  105SAPE   C2410727   6.000   2.949   2.862  0.1600 -0.4300  0.2071
  105SAPE   H4R10728   6.101   2.983   2.832  0.6511  0.4404  2.6286
  105SAPE   H4S10729   6.005   2.963   2.972 -1.3130 -0.2899  0.2791
  105SAPE   C2510730   5.876   3.024   2.802  0.4449  0.1803 -0.6536
  105SAPE   H5R10731   5.898   3.076   2.708 -0.4894  1.7127 -0.0522
  105SAPE   C2610732   5.766   3.059   2.878 -0.0532 -0.2861 -0.4722
  105SAPE   H6R10733   5.687   3.115   2.827 -0.7697 -1.1860 -0.3651
  105SAPE   C2710734   5.742   3.029   3.027  0.5230 -0.3428 -0.5372
  105SAPE   H7R10735   5.837   2.994   3.072 -0.4327 -2.3154  0.0254
  105SAPE   H7S10736   5.662   2.953   3.038 -1.3773  1.6094 -0.1867
  105SAPE   C2810737   5.712   3.162   3.099  0.3252  0.5070 -0.5131
  105SAPE   H8R10738   5.802   3.224   3.106  2.5433 -2.4367 -1.1754
  105SAPE   C2910739   5.603   3.180   3.190  0.6331 -0.1371  0.4352
  105SAPE   H9R10740   5.592   3.285   3.221 -2.6013  0.0245 -0.8712
  105SAPE  C21010741   5.484   3.085   3.212  0.6742  0.8211  0.6889
  105SAPE  H10R10742   5.509   2.980   3.184 -2.1101 -0.1867  1.6449
  105SAPE  H10S10743   5.398   3.117   3.149  1.4927 -0.4200 -1.1453
  105SAPE  C21110744   5.453   3.095   3.356 -0.1430 -0.1818 -0.1168
  105SAPE  H11R10745   5.370   3.161   3.386 -2.7190 -2.5992 -1.4138
  105SAPE  C21210746   5.506   3.020   3.454  0.1691 -0.1009 -0.0387
  105SAPE  H12R10747   5.469   3.022   3.557 -0.2725  1.9909 -0.1853
  105SAPE  C21310748   5.618   2.911   3.437 -0.7406 -0.2347 -0.5244
  105SAPE  H13R10749   5.710   2.940   3.491 -0.5934  0.3776 -1.0846
  105SAPE  H13S10750   5.645   2.889   3.332 -1.0905 -0.4688 -0.5662
  105SAPE  C21410751   5.565   2.776   3.479 -0.2748 -0.6402 -0.0163
  105SAPE  H14R10752   5.485   2.741   3.412 -0.1338 -0.9752 -0.0132
  105SAPE  C21510753   5.610   2.692   3.580  0.4787 -0.5589  0.2879
  105SAPE  H15R10754   5.573   2.589   3.588 -0.5467 -0.1487  1.0743
  105SAPE  C21610755   5.721   2.732   3.678  0.1133  0.2560  0.3842
  105SAPE  H16R10756   5.695   2.831   3.723 -0.0035 -0.0673  1.0402
  105SAPE  H16S10757   5.820   2.739   3.629 -0.0244  3.0309  0.3043
  105SAPE  C21710758   5.733   2.641   3.800 -0.2591 -0.4115 -0.0847
  105SAPE  H17R10759   5.837   2.636   3.839  0.7095 -2.1747 -2.6004
  105SAPE  H17S10760   5.712   2.533   3.784 -2.8534 -0.2602  1.7061
  105SAPE  C21810761   5.633   2.684   3.916  0.1969  0.3292 -0.0117
  105SAPE  H18R10762   5.529   2.680   3.879 -0.4930  1.6045  1.6743
  105SAPE  H18S10763   5.646   2.793   3.931  1.0959  0.1888  0.3725
  105SAPE  C21910764   5.647   2.602   4.046  0.2529 -0.1180  0.3006
  105SAPE  H19R10765   5.584   2.659   4.118 -0.4961  0.7807 -1.0226
  105SAPE  H19S10766   5.751   2.615   4.082  0.2154 -0.4088  0.5179
  105SAPE  C22010767   5.612   2.452   4.031 -0.4508 -0.3995 -0.4022
  105SAPE  H20R10768   5.606   2.399   4.129 -0.2248  0.8623  0.3176
  105SAPE  H20S10769   5.689   2.397   3.974  1.8203  0.2707  1.7959
  105SAPE  H20T10770   5.516   2.435   3.978 -0.4610 -0.0344 -0.5091
  105SAPE   C3310771   6.257   1.969   2.545 -0.4886 -0.3503 -0.1642
  105SAPE   H3X10772   6.153   2.006   2.537  0.2192  1.9297  0.4069
  105SAPE   H3Y10773   6.283   1.967   2.653 -2.1677  2.3566  0.3661
  105SAPE   C3410774   6.276   1.819   2.501 -0.7346 -0.5239  0.4708
  105SAPE   H4X10775   6.377   1.785   2.533 -1.1896 -0.9140  1.5604
  105SAPE   H4Y10776   6.269   1.825   2.391  0.5352  3.4032  0.4571
  105SAPE   C3510777   6.171   1.725   2.565 -0.4046  0.3582 -0.0689
  105SAPE   H5X10778   6.177   1.625   2.518  0.7063  0.7537 -0.8227
  105SAPE   H5Y10779   6.069   1.764   2.542 -0.7358 -1.0025 -1.0192
  105SAPE   C3610780   6.186   1.710   2.716 -0.1336  0.1842  0.4122
  105SAPE   H6X10781   6.210   1.809   2.761 -0.3099  0.0525  0.8012
  105SAPE   H6Y10782   6.279   1.650   2.728  1.3034  2.3128  0.5763
  105SAPE   C3710783   6.064   1.641   2.777 -0.5712 -1.2036  0.4175
  105SAPE   H7X10784   6.054   1.546   2.720  1.4991 -0.7077 -0.8711
  105SAPE   H7Y10785   5.974   1.705   2.764  0.0623  0.1912  2.4906
  105SAPE   C3810786   6.059   1.628   2.923 -0.2598 -0.4812  0.4726
  105SAPE   H8X10787   6.152   1.576   2.957  0.0619 -1.1589 -1.3223
  105SAPE   H8Y10788   5.976   1.561   2.954  0.1794 -1.1095  0.3280
  105SAPE   C3910789   6.034   1.764   2.997 -0.4506  0.4245 -0.2865
  105SAPE   H9X10790   5.931   1.796   2.967  0.1281  1.0815 -1.6764
  105SAPE   H9Y10791   6.105   1.839   2.955 -1.2029  1.2228 -0.1825
  105SAPE  C31010792   6.052   1.757   3.151  0.3971  0.3775 -0.0651
  105SAPE  H10X10793   6.030   1.856   3.195  0.9560  0.0732  0.9328
  105SAPE  H10Y10794   6.155   1.730   3.180  0.7192  2.7725  1.2801
  105SAPE  C31110795   5.945   1.663   3.223 -0.1385  0.3066 -0.5418
  105SAPE  H11X10796   5.962   1.563   3.177  1.3555  0.9379 -1.4363
  105SAPE  H11Y10797   5.848   1.699   3.182 -0.5103 -1.0589 -0.9334
  105SAPE  C31210798   5.960   1.662   3.371 -0.5167  0.1330 -0.1895
  105SAPE  H12X10799   5.938   1.766   3.402 -0.1465 -0.0504  0.7258
  105SAPE  H12Y10800   6.065   1.631   3.391 -0.5291  0.1203 -0.1464
  105SAPE  C31310801   5.869   1.560   3.450  0.1019 -0.0985  0.2431
  105SAPE  H13X10802   5.890   1.461   3.405 -0.0221  0.3496 -0.8281
  105SAPE  H13Y10803   5.761   1.577   3.431 -0.7835 -3.0652  2.0232
  105SAPE  C31410804   5.903   1.567   3.600  0.3652 -0.5920 -0.8411
  105SAPE  H14X10805   5.906   1.665   3.652 -0.6303 -1.7023  1.4621
  105SAPE  H14Y10806   6.007   1.530   3.597  0.1147 -1.2394 -1.8235
  105SAPE  C31510807   5.812   1.478   3.691 -0.0414  0.4296  0.2034
  105SAPE  H15X10808   5.822   1.374   3.654  0.9522  0.2109  1.0395
  105SAPE  H15Y10809   5.710   1.519   3.681  0.0134  0.2292 -1.4065
  105SAPE  C31610810   5.870   1.483   3.833 -0.4923  0.5073 -0.3777
  105SAPE  H16X10811   5.810   1.417   3.899  2.3351 -2.1694 -0.2530
  105SAPE  H16Y10812   5.869   1.586   3.873 -0.1540  0.9753 -1.5329
  105SAPE  C31710813   6.012   1.423   3.840 -0.3190 -0.9826  0.4335
  105SAPE  H17X10814   6.080   1.491   3.784 -0.0809 -1.3221  0.3031
  105SAPE  H17Y10815   6.034   1.330   3.783 -0.9505 -1.5965  1.1801
  105SAPE  C31810816   6.062   1.410   3.985  0.6467  1.1554  0.1599
  105SAPE  H18X10817   5.998   1.354   4.057  0.8287  2.3341  1.2790
  105SAPE  H18Y10818   6.075   1.508   4.036 -0.0184  1.2975  0.0739
  105SAPE  H18Z10819   6.167   1.376   3.976  0.3238  0.2082 -0.1564
  106SAPE     N10820   4.853   2.886   2.359 -0.2406 -0.4894 -0.4379
  106SAPE   HN110821   4.803   2.902   2.269 -0.9985  0.3044  0.1081
  106SAPE   HN210822   4.835   2.792   2.398  0.0435  0.4011  1.9835
  106SAPE   HN310823   4.819   2.962   2.421  0.7343 -1.1283  0.9431
  106SAPE   C1210824   5.002   2.921   2.355 -0.1723 -1.2535  0.3037
  106SAPE  H12A10825   5.014   3.030   2.339 -1.8565 -1.3566 -2.2243
  106SAPE  H12B10826   5.052   2.876   2.266 -0.6066 -0.1858 -0.4974
  106SAPE   C1110827   5.091   2.881   2.479  0.2924  0.7668 -0.5831
  106SAPE  H11A10828   5.095   2.770   2.489 -1.7499  0.6399 -0.6699
  106SAPE  H11B10829   5.042   2.917   2.572 -1.7761 -0.2591 -1.2086
  106SAPE     P10830   5.348   2.847   2.428  0.2815  0.0926  0.4036
  106SAPE   O1310831   5.298   2.727   2.352 -0.7377 -0.2593  0.1419
  106SAPE   O1410832   5.457   2.931   2.363  0.5052 -0.1385 -0.1166
  106SAPE   O1210833   5.221   2.937   2.466 -0.0247 -0.3513  0.0693
  106SAPE   O1110834   5.402   2.782   2.566 -0.1625 -0.2990  0.1773
  106SAPE    C110835   5.423   2.857   2.687  0.4278 -0.0342 -0.2657
  106SAPE    HA10836   5.525   2.842   2.727 -0.8493 -3.3329  2.2540
  106SAPE    HB10837   5.407   2.966   2.676  0.9923  0.2967  1.7166
  106SAPE    C210838   5.332   2.812   2.806 -0.4036  0.4914  0.4721
  106SAPE    HS10839   5.358   2.711   2.845  1.5281  1.5304  2.1005
  106SAPE   O2110840   5.197   2.821   2.772  0.0408 -0.3567  0.8525
  106SAPE   C2110841   5.115   2.740   2.824 -0.3318 -0.3401 -0.6256
  106SAPE   O2210842   5.145   2.646   2.902 -0.2267  0.1181 -0.2842
  106SAPE   C2210843   4.971   2.767   2.779  0.6189 -0.2284 -0.2662
  106SAPE   H2R10844   4.957   2.877   2.782 -0.4380 -0.3515 -0.1657
  106SAPE   H2S10845   4.961   2.733   2.674  0.0200 -1.1644  0.0773
  106SAPE    C310846   5.364   2.903   2.928  0.3413  0.3727 -0.0792
  106SAPE    HX10847   5.351   3.012   2.909 -3.4408  0.1637  0.4324
  106SAPE    HY10848   5.472   2.907   2.951  0.0906  4.7618  1.2491
  106SAPE   O3110849   5.279   2.871   3.046  0.2459  0.3449  0.0585
  106SAPE   C3110850   5.324   2.758   3.107 -0.5021  0.5182  0.1228
  106SAPE   O3210851   5.423   2.695   3.071  0.0830  0.1044  0.0617
  106SAPE   C3210852   5.232   2.725   3.228  0.1687  0.2508 -0.0572
  106SAPE   H2X10853   5.129   2.704   3.193 -0.3119  1.7354  0.4097
  106SAPE   H2Y10854   5.230   2.823   3.280  1.1819 -0.4409  1.3411
  106SAPE   C2310855   4.864   2.684   2.859  0.3914 -0.3342  0.8627
  106SAPE   H3R10856   4.879   2.575   2.844 -0.4221 -0.1353 -1.9142
  106SAPE   H3S10857   4.772   2.704   2.801  0.8745  1.0883  0.5609
  106SAPE   C2410858   4.843   2.746   3.003 -0.0972  0.0280 -0.4495
  106SAPE   H4R10859   4.804   2.849   2.990  0.6964  0.2039 -1.4745
  106SAPE   H4S10860   4.940   2.748   3.056  0.3575 -2.4483 -1.0547
  106SAPE   C2510861   4.731   2.669   3.064  0.3014 -0.1918  0.0856
  106SAPE   H5R10862   4.637   2.677   3.007  1.3344  0.2712 -1.6203
  106SAPE   C2610863   4.722   2.592   3.170  0.2875  0.0036 -0.8372
  106SAPE   H6R10864   4.629   2.535   3.189  1.3629 -1.9111 -1.1001
  106SAPE   C2710865   4.831   2.559   3.266  0.1438  0.2821 -0.9988
  106SAPE   H7R10866   4.917   2.539   3.198  0.5011  0.6915 -0.6774
  106SAPE   H7S10867   4.816   2.461   3.317 -3.7084  0.3184 -1.7631
  106SAPE   C2810868   4.868   2.662   3.365  0.1068  0.1116  0.1598
  106SAPE   H8R10869   4.892   2.755   3.312  2.2587 -0.9749 -0.9158
  106SAPE   C2910870   4.861   2.670   3.500  0.3017  0.5508 -0.4147
  106SAPE   H9R10871   4.892   2.767   3.543  0.0352  0.2221  0.5517
  106SAPE  C21010872   4.818   2.570   3.603  0.3461 -0.5314  0.4189
  106SAPE  H10R10873   4.897   2.562   3.680 -0.8220 -1.5231  1.5566
  106SAPE  H10S10874   4.803   2.467   3.563 -2.5360 -0.1512  0.2811
  106SAPE  C21110875   4.683   2.589   3.658  0.3130 -0.5285 -0.0043
  106SAPE  H11R10876   4.600   2.542   3.603  0.1024  0.4041 -0.5055
  106SAPE  C21210877   4.667   2.659   3.772 -0.4374  0.4090  0.1111
  106SAPE  H12R10878   4.567   2.665   3.817 -0.4648 -0.5894  0.2117
  106SAPE  C21310879   4.780   2.716   3.856  0.7856 -0.7080  0.2307
  106SAPE  H13R10880   4.869   2.734   3.791  0.4083 -0.2002 -0.1513
  106SAPE  H13S10881   4.812   2.648   3.938 -1.5724 -0.1967  1.6584
  106SAPE  C21410882   4.741   2.849   3.913  0.4630  0.9781  1.4058
  106SAPE  H14R10883   4.728   2.837   4.022 -0.3003 -1.2856  1.1091
  106SAPE  C21510884   4.717   2.967   3.854  0.3924 -0.1806  0.5081
  106SAPE  H15R10885   4.689   3.054   3.916  0.7176  0.5816 -0.3864
  106SAPE  C21610886   4.737   3.009   3.708  0.1259 -0.1983  0.2539
  106SAPE  H16R10887   4.833   2.964   3.674 -0.3489 -1.9697  1.1298
  106SAPE  H16S10888   4.752   3.119   3.705  0.6227 -0.1986  1.8526
  106SAPE  C21710889   4.614   2.970   3.625 -0.3151  0.2238 -0.1490
  106SAPE  H17R10890   4.529   3.037   3.646 -0.2045  0.2891  0.1010
  106SAPE  H17S10891   4.579   2.865   3.638  0.6163 -0.0548  0.2139
  106SAPE  C21810892   4.644   3.001   3.479  0.1431  0.3808  0.4519
  106SAPE  H18R10893   4.719   2.931   3.437 -1.7209 -1.0177 -0.7076
  106SAPE  H18S10894   4.669   3.109   3.467  0.5864 -0.0160 -3.3314
  106SAPE  C21910895   4.522   2.963   3.391 -0.0567 -0.6610  1.3914
  106SAPE  H19R10896   4.444   3.039   3.413 -0.9145 -0.9403 -0.5588
  106SAPE  H19S10897   4.479   2.865   3.418 -1.3631 -0.3753  0.4280
  106SAPE  C22010898   4.554   2.973   3.242  0.2566  0.1211 -0.1774
  106SAPE  H20R10899   4.589   3.073   3.208  1.4077  0.4793  1.9224
  106SAPE  H20S10900   4.460   2.962   3.184 -0.7753 -0.2068  1.4729
  106SAPE  H20T10901   4.621   2.889   3.214  0.7766  0.7162 -0.7315
  106SAPE   C3310902   5.291   2.608   3.304  0.4965  0.9210  0.0396
  106SAPE   H3X10903   5.401   2.602   3.319  1.0359 -0.4296 -3.4512
  106SAPE   H3Y10904   5.260   2.519   3.245 -1.3074  1.9151 -0.5857
  106SAPE   C3410905   5.228   2.586   3.441  0.8278  0.0255  0.2229
  106SAPE   H4X10906   5.118   2.570   3.438  0.7827 -0.0573  1.5752
  106SAPE   H4Y10907   5.217   2.676   3.505 -1.2170  1.3514 -1.8565
  106SAPE   C3510908   5.288   2.475   3.517 -0.4081  0.5411  0.3212
  106SAPE   H5X10909   5.385   2.495   3.567 -0.4950  2.0564 -0.0515
  106SAPE   H5Y10910   5.290   2.390   3.446 -2.6857  3.2846 -3.3995
  106SAPE   C3610911   5.202   2.430   3.637 -1.1196 -0.4072  0.4015
  106SAPE   H6X10912   5.098   2.444   3.601 -1.2327  1.4871  1.3096
  106SAPE   H6Y10913   5.218   2.487   3.731 -1.2370  0.7481 -0.2497
  106SAPE   C3710914   5.232   2.284   3.677  0.2780  1.1603 -0.0973
  106SAPE   H7X10915   5.337   2.269   3.710 -0.1920 -3.0152  0.0189
  106SAPE   H7Y10916   5.212   2.218   3.590 -1.0135  1.6046 -0.1651
  106SAPE   C3810917   5.141   2.238   3.791  0.3455  0.1182 -0.0898
  106SAPE   H8X10918   5.067   2.159   3.762  0.4430 -0.4305  1.0670
  106SAPE   H8Y10919   5.081   2.318   3.840 -2.6690 -1.6645 -0.5658
  106SAPE   C3910920   5.222   2.167   3.910  0.3026  0.2618 -0.6937
  106SAPE   H9X10921   5.289   2.239   3.961 -0.5687  0.5554  0.0733
  106SAPE   H9Y10922   5.283   2.087   3.863  2.4860  0.9248  0.8504
  106SAPE  C31010923   5.127   2.104   4.016  1.0416  0.4356 -0.3420
  106SAPE  H10X10924   5.027   2.090   3.971  0.5798 -1.7415  1.2254
  106SAPE  H10Y10925   5.099   2.176   4.097 -2.0337 -0.7574 -0.2333
  106SAPE  C31110926   5.163   1.971   4.077 -0.2717 -0.0735 -0.1641
  106SAPE  H11X10927   5.251   1.983   4.144 -0.6139  1.6841  0.0180
  106SAPE  H11Y10928   5.181   1.901   3.993  2.4037  2.9526 -2.3989
  106SAPE  C31210929   5.053   1.919   4.161 -0.0431 -0.6911 -0.1760
  106SAPE  H12X10930   4.962   1.905   4.100 -0.1285 -1.4936  0.1187
  106SAPE  H12Y10931   5.030   1.997   4.236  0.0509  0.4217 -1.2817
  106SAPE  C31310932   5.082   1.795   4.235  0.0364 -0.3077 -0.2240
  106SAPE  H13X10933   5.156   1.815   4.315  0.1571 -0.9516 -0.1657
  106SAPE  H13Y10934   5.132   1.727   4.162  2.6089  0.8137  0.3940
  106SAPE  C31410935   4.958   1.735   4.300 -0.2912  0.3901 -0.2041
  106SAPE  H14X10936   4.978   1.653   4.372 -0.9676  2.9888  3.1770
  106SAPE  H14Y10937   4.888   1.687   4.228 -1.6968  2.4859 -0.3412
  106SAPE  C31510938   4.879   1.831   4.390 -0.1512  0.1717  0.2631
  106SAPE  H15X10939   4.826   1.916   4.342  0.3663  1.2951  1.5979
  106SAPE  H15Y10940   4.962   1.875   4.450 -1.8848  0.1509  2.8586
  106SAPE  C31610941   4.783   1.770   4.493 -1.2086 -0.4152  0.1444
  106SAPE  H16X10942   4.838   1.683   4.533  1.1991 -0.2228 -2.4092
  106SAPE  H16Y10943   4.691   1.729   4.447 -0.9579  1.2095 -1.9824
  106SAPE  C31710944   4.749   1.873   4.597 -0.1782  0.0847 -0.4697
  106SAPE  H17X10945   4.714   1.967   4.550  1.1626  0.7155 -0.2770
  106SAPE  H17Y10946   4.844   1.886   4.655  0.8077 -2.5059 -1.3944
  106SAPE  C31810947   4.645   1.825   4.691  0.3160  0.2586  0.0957
  106SAPE  H18X10948   4.656   1.863   4.795  2.0723  0.7624 -0.2377
  106SAPE  H18Y10949   4.638   1.714   4.694  0.9679  0.2240  2.6772
  106SAPE  H18Z10950   4.547   1.862   4.654  0.7880  0.3126 -1.1476
  107SAPE     N10951   2.382   2.320   1.630 -0.5213 -0.2341  0.2372
  107SAPE   HN110952   2.435   2.367   1.553  0.3427 -0.7808  0.4828
  107SAPE   HN210953   2.317   2.392   1.665 -0.6155 -0.1434 -0.1178
  107SAPE   HN310954   2.448   2.303   1.708 -0.5430 -3.7275 -0.3174
  107SAPE   C1210955   2.307   2.201   1.595 -0.3167  0.1387 -0.0626
  107SAPE  H12A10956   2.367   2.163   1.509 -0.3171  1.2556 -0.5704
  107SAPE  H12B10957   2.206   2.233   1.561 -0.3233  0.1956  0.0123
  107SAPE   C1110958   2.301   2.105   1.713 -0.0018  0.0579  0.3611
  107SAPE  H11A10959   2.404   2.088   1.749  0.9140 -1.2874 -2.5778
  107SAPE  H11B10960   2.258   2.007   1.680 -2.4929  0.6144  1.6652
  107SAPE     P10961   2.087   2.113   1.870 -0.2372  0.0316  0.0367
  107SAPE   O1310962   1.980   2.215   1.878 -0.1074 -0.2975  0.5638
  107SAPE   O1410963   2.046   1.986   1.805  0.3218 -0.3397 -0.1663
  107SAPE   O1210964   2.209   2.181   1.798  0.5303 -0.6012  0.0560
  107SAPE   O1110965   2.137   2.077   2.017  0.1917 -0.6358 -0.2125
  107SAPE    C110966   2.226   1.966   2.038  0.5401  0.4476 -0.2056
  107SAPE    HA10967   2.165   1.877   2.013  0.3595 -0.0263  1.8233
  107SAPE    HB10968   2.314   1.957   1.971  0.3132  0.8390 -0.5660
  107SAPE    C210969   2.274   1.957   2.191 -0.2384 -0.3911  0.2704
  107SAPE    HS10970   2.346   1.873   2.205 -0.4881 -0.2953  2.3604
  107SAPE   O2110971   2.171   1.931   2.292 -0.4161 -0.1942  0.5811
  107SAPE   C2110972   2.094   1.831   2.280  0.0331 -0.4466  0.8038
  107SAPE   O2210973   2.100   1.745   2.190 -0.6494 -0.0939 -0.1938
  107SAPE   C2210974   1.973   1.860   2.370 -0.1277  0.3794  0.6674
  107SAPE   H2R10975   1.901   1.926   2.318  0.4425  1.5241  1.3075
  107SAPE   H2S10976   1.919   1.764   2.385 -1.6789  1.2224  0.7104
  107SAPE    C310977   2.362   2.080   2.226  0.7864  0.0353 -0.5009
  107SAPE    HX10978   2.296   2.169   2.233 -0.9001 -1.2810  1.3430
  107SAPE    HY10979   2.433   2.095   2.142 -0.7660  0.3721 -1.8054
  107SAPE   O3110980   2.434   2.064   2.352  0.2832  0.5524 -0.0807
  107SAPE   C3110981   2.386   2.084   2.471  0.3983 -0.2055  1.1147
  107SAPE   O3210982   2.271   2.130   2.486 -0.1861 -0.0724 -0.3359
  107SAPE   C3210983   2.479   2.044   2.589  0.0592  0.2880  0.4425
  107SAPE   H2X10984   2.582   2.077   2.562 -0.2982  0.5744 -0.5987
  107SAPE   H2Y10985   2.487   1.933   2.580 -2.3541  0.1450 -0.3839
  107SAPE   C2310986   2.009   1.914   2.507  0.0445  0.2834 -0.6690
  107SAPE   H3R10987   2.057   2.012   2.488  2.2478 -0.6999 -0.3976
  107SAPE   H3S10988   2.089   1.844   2.538 -0.1059  0.1236 -0.6439
  107SAPE   C2410989   1.891   1.915   2.611  0.1147 -0.4398  0.1883
  107SAPE   H4R10990   1.862   1.814   2.647 -0.4671  0.0680  1.1787
  107SAPE   H4S10991   1.806   1.966   2.561 -0.8700 -1.0049  1.2322
  107SAPE   C2510992   1.929   2.002   2.733 -0.3637  0.1224  0.0656
  107SAPE   H5R10993   2.001   2.082   2.712 -1.1211  0.6805 -0.4728
  107SAPE   C2610994   1.893   1.982   2.860 -0.6571  0.1962  0.4139
  107SAPE   H6R10995   1.929   2.039   2.947  1.7156 -0.0057 -0.3706
  107SAPE   C2710996   1.802   1.870   2.905 -0.5738  0.6729  0.2391
  107SAPE   H7R10997   1.806   1.870   3.016 -0.0701 -0.0438  0.2245
  107SAPE   H7S10998   1.844   1.770   2.883  0.7072  0.9733  1.1576
  107SAPE   C2810999   1.660   1.876   2.859 -0.3509 -0.8171  0.0625
  107SAPE   H8R11000   1.650   1.888   2.750  1.7974 -0.6579 -0.1710
  107SAPE   C2911001   1.547   1.874   2.935  0.1981 -0.0959 -0.2524
  107SAPE   H9R11002   1.455   1.883   2.875  0.0619  0.2270 -0.0044
  107SAPE  C21011003   1.531   1.847   3.081  0.8352 -0.6619  0.1456
  107SAPE  H10R11004   1.626   1.798   3.113  0.6594 -0.7415  0.5575
  107SAPE  H10S11005   1.442   1.780   3.092 -2.7731  3.5026 -0.9714
  107SAPE  C21111006   1.507   1.980   3.146  0.2030 -0.2827 -0.4702
  107SAPE  H11R11007   1.425   2.045   3.111 -0.0625  0.9544  2.2109
  107SAPE  C21211008   1.586   2.038   3.245  0.4847  0.2274  0.4826
  107SAPE  H12R11009   1.542   2.122   3.302 -2.6654 -0.5936 -0.5668
  107SAPE  C21311010   1.710   1.969   3.306 -0.1521 -0.1466  0.2374
  107SAPE  H13R11011   1.764   2.037   3.375 -1.0498 -2.1120  3.0499
  107SAPE  H13S11012   1.783   1.945   3.226  1.2334  0.1442  1.3799
  107SAPE  C21411013   1.707   1.854   3.401  0.0421  0.3656 -0.1651
  107SAPE  H14R11014   1.742   1.759   3.359  0.3993  0.5989 -0.3977
  107SAPE  C21511015   1.646   1.839   3.525 -0.3429  0.5757  0.3769
  107SAPE  H15R11016   1.659   1.741   3.574 -0.2705  0.5534  0.3132
  107SAPE  C21611017   1.560   1.939   3.595 -0.1100 -0.1806  0.6239
  107SAPE  H16R11018   1.459   1.908   3.631 -0.9959  2.9160  1.2054
  107SAPE  H16S11019   1.537   2.027   3.530 -0.0002 -1.3934 -1.1064
  107SAPE  C21711020   1.633   1.982   3.726  0.1946  0.0501 -0.3175
  107SAPE  H17R11021   1.730   2.024   3.694  1.9449 -3.8832 -0.7576
  107SAPE  H17S11022   1.664   1.895   3.788  0.5425 -1.1594 -2.1020
  107SAPE  C21811023   1.553   2.088   3.812 -0.0215  0.0239 -0.2707
  107SAPE  H18R11024   1.442   2.077   3.811 -0.1687  0.6163  2.2475
  107SAPE  H18S11025   1.568   2.189   3.769 -0.3969  0.2142  0.0309
  107SAPE  C21911026   1.614   2.116   3.947  0.9434  0.3283 -1.0257
  107SAPE  H19R11027   1.589   2.023   4.003  0.0363  0.8290 -0.5700
  107SAPE  H19S11028   1.560   2.198   3.999  0.6409  1.3336 -2.8356
  107SAPE  C22011029   1.760   2.151   3.950  0.1165  0.4691 -1.1927
  107SAPE  H20R11030   1.816   2.104   3.866  1.0706  0.2487 -0.4504
  107SAPE  H20S11031   1.807   2.120   4.046 -0.7447  1.7888 -0.3198
  107SAPE  H20T11032   1.775   2.261   3.947  0.1205  0.4653 -1.3137
  107SAPE   C3311033   2.446   2.070   2.736  0.1236 -0.2950  0.1444
  107SAPE   H3X11034   2.379   1.989   2.771  1.1283 -1.5308 -0.6868
  107SAPE   H3Y11035   2.404   2.170   2.759  0.2238  0.0149 -0.9590
  107SAPE   C3411036   2.576   2.070   2.830  0.1444  0.0292 -0.0182
  107SAPE   H4X11037   2.638   2.159   2.809  1.1647 -0.7620 -0.4874
  107SAPE   H4Y11038   2.630   1.976   2.803 -1.9379 -0.5257 -2.7897
  107SAPE   C3511039   2.529   2.055   2.977 -0.5756 -0.1070 -0.2929
  107SAPE   H5X11040   2.459   1.970   2.987 -1.1595  0.5220  1.2222
  107SAPE   H5Y11041   2.469   2.147   2.995  0.5222  0.3359  1.3796
  107SAPE   C3611042   2.650   2.032   3.074  0.7697 -0.4340 -0.1098
  107SAPE   H6X11043   2.705   2.127   3.094  1.5537 -0.9497  0.2407
  107SAPE   H6Y11044   2.711   1.951   3.027 -0.5257 -0.9633 -0.9376
  107SAPE   C3711045   2.609   1.988   3.219 -0.7137  0.2035  0.1760
  107SAPE   H7X11046   2.705   1.983   3.275  0.0086 -0.0082 -1.0590
  107SAPE   H7Y11047   2.553   1.892   3.215 -0.7411  0.2609 -1.4455
  107SAPE   C3811048   2.520   2.090   3.293  0.2259 -0.0397  0.0302
  107SAPE   H8X11049   2.433   2.112   3.227  0.1754 -0.2289  0.0340
  107SAPE   H8Y11050   2.572   2.189   3.296 -0.7784  0.5194 -0.5804
  107SAPE   C3911051   2.476   2.069   3.441  0.1706 -0.3247  0.9958
  107SAPE   H9X11052   2.432   1.967   3.453  2.1053 -1.2749  0.4626
  107SAPE   H9Y11053   2.396   2.142   3.464 -1.3342 -0.1718 -3.6926
  107SAPE  C31011054   2.592   2.089   3.533 -1.1695  0.2275 -0.2532
  107SAPE  H10X11055   2.649   2.184   3.522 -1.0358  0.4031  1.6333
  107SAPE  H10Y11056   2.655   1.999   3.518 -2.3438 -0.5361 -0.7542
  107SAPE  C31111057   2.556   2.089   3.679 -0.9067 -0.0575  0.4914
  107SAPE  H11X11058   2.488   2.168   3.717 -0.3898  0.2313  0.8268
  107SAPE  H11Y11059   2.651   2.092   3.736  0.5471 -1.5158 -1.7259
  107SAPE  C31211060   2.472   1.970   3.724 -0.6063  0.2950  0.2794
  107SAPE  H12X11061   2.503   1.877   3.672 -0.2434 -0.1033  1.1908
  107SAPE  H12Y11062   2.371   1.995   3.686 -0.8416 -0.8094  0.1497
  107SAPE  C31311063   2.496   1.955   3.877  0.3690 -0.3207 -0.0077
  107SAPE  H13X11064   2.463   2.053   3.919 -0.0077 -0.8783  1.0470
  107SAPE  H13Y11065   2.604   1.935   3.895  0.4262 -2.3866 -2.2353
  107SAPE  C31411066   2.404   1.850   3.954 -0.3283  0.1021  0.2205
  107SAPE  H14X11067   2.298   1.874   3.931 -0.3708 -0.1954  0.1038
  107SAPE  H14Y11068   2.416   1.860   4.064  0.7132  3.5485 -0.0990
  107SAPE  C31511069   2.434   1.707   3.920 -0.0726 -0.0593 -0.0630
  107SAPE  H15X11070   2.545   1.695   3.919  0.2666  2.1041 -3.1388
  107SAPE  H15Y11071   2.411   1.674   3.816  3.2775  2.9195 -2.0159
  107SAPE  C31611072   2.372   1.598   4.012  0.5452  0.2234 -0.1927
  107SAPE  H16X11073   2.267   1.575   3.985  1.0530  1.5472 -3.7239
  107SAPE  H16Y11074   2.377   1.633   4.118  0.3073  1.8464 -0.6937
  107SAPE  C31711075   2.440   1.464   4.009  0.0254  0.7303 -1.1950
  107SAPE  H17X11076   2.541   1.475   4.054 -0.9050  2.3265  0.6707
  107SAPE  H17Y11077   2.448   1.417   3.909  0.1763  0.9125 -1.2677
  107SAPE  C31811078   2.357   1.361   4.089  0.0715  0.9084  0.2230
  107SAPE  H18X11079   2.261   1.345   4.035 -0.3848 -2.6208  1.8245
  107SAPE  H18Y11080   2.348   1.394   4.194 -0.5421  2.2351 -0.2183
  107SAPE  H18Z11081   2.412   1.265   4.079 -1.9228 -0.2576 -0.1608
  108SAPE     N11082   0.303   2.808   1.897  0.1427  0.4732 -0.4642
  108SAPE   HN111083   0.367   2.862   1.835  2.3870  0.1545  1.4590
  108SAPE   HN211084   0.269   2.722   1.849  0.4952 -0.6305  1.2041
  108SAPE   HN311085   0.218   2.864   1.921 -0.4447  0.5321 -2.4834
  108SAPE   C1211086   0.383   2.790   2.025  1.2020  0.2182  0.2512
  108SAPE  H12A11087   0.422   2.891   2.053  3.2289 -1.1813  2.9008
  108SAPE  H12B11088   0.463   2.718   2.000 -0.4681 -0.9020 -2.2182
  108SAPE   C1111089   0.299   2.736   2.142 -0.0639  0.2163 -0.3814
  108SAPE  H11A11090   0.380   2.726   2.217  0.3282 -0.3049 -0.8716
  108SAPE  H11B11091   0.259   2.635   2.120 -0.5812  0.4725 -0.6471
  108SAPE     P11092   0.096   2.774   2.288 -0.2783  0.2638  0.1266
  108SAPE   O1311093  -0.002   2.877   2.318  0.0503 -0.0611  0.1359
  108SAPE   O1411094   0.042   2.637   2.247 -0.0563 -0.0331 -0.1804
  108SAPE   O1211095   0.194   2.831   2.184 -0.1035  0.6662 -0.5495
  108SAPE   O1111096   0.181   2.770   2.421 -0.0238  0.4331  0.8918
  108SAPE    C111097   0.275   2.882   2.443 -0.9748  0.3876 -0.5573
  108SAPE    HA11098   0.378   2.858   2.408 -1.1728  1.5740 -2.0391
  108SAPE    HB11099   0.248   2.983   2.405 -1.6168  0.0590 -1.0009
  108SAPE    C211100   0.293   2.897   2.593  0.1529 -0.1678 -0.5548
  108SAPE    HS11101   0.348   2.811   2.637 -0.2984  0.3146  1.0032
  108SAPE   O2111102   0.167   2.919   2.665 -0.5047 -0.3382 -0.1783
  108SAPE   C2111103   0.102   2.820   2.722  0.1333  0.9320  0.6644
  108SAPE   O2211104   0.143   2.703   2.721 -0.0201 -0.4888  0.5908
  108SAPE   C2211105  -0.025   2.876   2.791  0.0701 -0.3910  0.5361
  108SAPE   H2R11106   0.003   2.969   2.845 -0.6711 -0.5104  1.1455
  108SAPE   H2S11107  -0.102   2.898   2.715  1.3250 -1.9609 -1.2953
  108SAPE    C311108   0.402   3.014   2.621  1.4060  0.0393 -0.2003
  108SAPE    HX11109   0.369   3.110   2.576 -0.2827 -0.1349  0.6009
  108SAPE    HY11110   0.495   2.985   2.567  1.1140  1.0900 -1.3163
  108SAPE   O3111111   0.439   3.010   2.765 -0.0004 -0.3959 -0.0823
  108SAPE   C3111112   0.351   3.079   2.834 -0.0042  0.1864 -0.7203
  108SAPE   O3211113   0.263   3.152   2.795 -0.0845 -0.1940  0.3154
  108SAPE   C3211114   0.380   3.064   2.988 -0.0464  0.1452 -0.1975
  108SAPE   H2X11115   0.335   3.154   3.035  4.2157  1.8684  1.1456
  108SAPE   H2Y11116   0.491   3.057   2.997 -0.0327  0.1117 -0.3857
  108SAPE   C2311117  -0.094   2.779   2.888  0.0778  0.6947 -0.7512
  108SAPE   H3R11118  -0.011   2.761   2.960  0.8530  0.0280 -1.7730
  108SAPE   H3S11119  -0.137   2.687   2.842 -2.7412  0.3486  2.1710
  108SAPE   C2411120  -0.209   2.840   2.975 -0.4520 -0.4399 -0.2842
  108SAPE   H4R11121  -0.272   2.769   3.034  0.7855 -1.6906 -0.4165
  108SAPE   H4S11122  -0.283   2.894   2.912 -1.3228  2.1968  2.7304
  108SAPE   C2511123  -0.165   2.945   3.072  0.4488 -0.1386  0.6171
  108SAPE   H5R11124  -0.152   3.036   3.011 -3.1790  0.3119  0.2866
  108SAPE   C2611125  -0.135   2.934   3.203 -0.5588 -0.8436 -0.7143
  108SAPE   H6R11126  -0.100   3.028   3.247 -2.7118  0.3101 -1.3275
  108SAPE   C2711127  -0.117   2.812   3.295  0.6253  0.2265 -0.0457
  108SAPE   H7R11128  -0.023   2.817   3.355  0.2499  2.5051  0.4448
  108SAPE   H7S11129  -0.130   2.718   3.237  1.2501 -0.4161  0.8333
  108SAPE   C2811130  -0.232   2.837   3.393 -0.7217 -0.5473 -0.1893
  108SAPE   H8R11131  -0.321   2.879   3.345  0.4640  0.9694 -1.1552
  108SAPE   C2911132  -0.225   2.811   3.524 -0.1032 -0.0081  0.5266
  108SAPE   H9R11133  -0.304   2.843   3.592  0.5439  0.6465  0.9857
  108SAPE  C21011134  -0.128   2.731   3.607 -0.2948 -0.0713  0.1178
  108SAPE  H10R11135  -0.071   2.804   3.669 -0.1505 -1.7835  2.1189
  108SAPE  H10S11136  -0.048   2.685   3.546  0.7785  0.8669  0.7667
  108SAPE  C21111137  -0.187   2.624   3.699 -0.5257  0.6811 -0.2705
  108SAPE  H11R11138  -0.205   2.653   3.803 -0.7849  1.1009 -0.4319
  108SAPE  C21211139  -0.231   2.503   3.657  0.7164 -0.1243 -0.7132
  108SAPE  H12R11140  -0.268   2.429   3.731 -1.6681 -0.1924 -1.8969
  108SAPE  C21311141  -0.237   2.469   3.513  0.1552 -0.2613 -0.1930
  108SAPE  H13R11142  -0.146   2.410   3.490  0.8123  0.0832  1.3779
  108SAPE  H13S11143  -0.224   2.556   3.445  0.0733 -0.7039 -0.7809
  108SAPE  C21411144  -0.362   2.388   3.478  0.1650  0.4090 -0.1364
  108SAPE  H14R11145  -0.361   2.289   3.526 -0.6421  0.9494  1.0279
  108SAPE  C21511146  -0.460   2.429   3.397  0.9743  0.7891 -0.1671
  108SAPE  H15R11147  -0.536   2.356   3.364  2.0966 -1.5609  2.0987
  108SAPE  C21611148  -0.471   2.556   3.326 -0.2657 -0.4691 -0.4549
  108SAPE  H16R11149  -0.388   2.628   3.343  0.0710 -1.3401  2.2302
  108SAPE  H16S11150  -0.553   2.611   3.376  0.7945 -1.0769  2.1779
  108SAPE  C21711151  -0.485   2.531   3.170  0.5642  0.2060  0.1398
  108SAPE  H17R11152  -0.514   2.631   3.129 -2.4009 -1.0066 -1.0572
  108SAPE  H17S11153  -0.582   2.477   3.158  0.2010  0.8429  0.1390
  108SAPE  C21811154  -0.366   2.469   3.093  0.4752 -0.0125  0.6194
  108SAPE  H18R11155  -0.354   2.364   3.127  3.3050 -0.0658 -0.3260
  108SAPE  H18S11156  -0.283   2.539   3.116  1.0354 -0.1972 -0.7564
  108SAPE  C21911157  -0.404   2.485   2.943  0.5910 -0.1572 -0.2005
  108SAPE  H19R11158  -0.408   2.594   2.921  0.4499 -0.3157 -0.9975
  108SAPE  H19S11159  -0.508   2.446   2.930  0.2027  0.8637 -0.2742
  108SAPE  C22011160  -0.309   2.405   2.848 -0.5770 -0.3475 -0.1523
  108SAPE  H20R11161  -0.307   2.298   2.880  1.7315 -0.2033  0.4145
  108SAPE  H20S11162  -0.202   2.435   2.850 -0.7063  0.0944  0.5180
  108SAPE  H20T11163  -0.342   2.402   2.742  2.6054  0.1044 -1.2652
  108SAPE   C3311164   0.309   2.937   3.046 -0.2240 -0.1372 -0.6624
  108SAPE   H3X11165   0.383   2.854   3.035 -0.6708 -0.3564 -2.3239
  108SAPE   H3Y11166   0.217   2.907   2.991 -0.1869  0.0316 -0.8191
  108SAPE   C3411167   0.254   2.951   3.189  0.4797 -0.1877  0.1948
  108SAPE   H4X11168   0.190   2.863   3.211 -1.6451  1.3238  0.4051
  108SAPE   H4Y11169   0.191   3.043   3.179  0.1541 -0.5279 -1.0935
  108SAPE   C3511170   0.362   2.963   3.302 -0.6277  0.4550  0.3130
  108SAPE   H5X11171   0.436   2.883   3.282  0.4143  1.3193  0.6293
  108SAPE   H5Y11172   0.415   3.061   3.299  0.5007  0.1225  3.9645
  108SAPE   C3611173   0.303   2.955   3.444  0.0161 -0.2123 -0.1337
  108SAPE   H6X11174   0.246   2.860   3.456 -1.1146  0.5920  1.1943
  108SAPE   H6Y11175   0.230   3.036   3.464 -1.6391 -1.8882  1.0303
  108SAPE   C3711176   0.412   2.947   3.541 -0.5525 -0.8487 -0.2014
  108SAPE   H7X11177   0.462   3.044   3.564 -0.3869 -0.3951 -2.2786
  108SAPE   H7Y11178   0.487   2.880   3.492  1.6608  0.3706  1.3310
  108SAPE   C3811179   0.385   2.876   3.675  0.5802 -0.3404  0.2764
  108SAPE   H8X11180   0.473   2.851   3.738  1.0377  0.3618 -0.0783
  108SAPE   H8Y11181   0.338   2.777   3.656  0.6407 -0.0539 -1.5132
  108SAPE   C3911182   0.282   2.957   3.755 -0.3252 -0.7764 -0.8201
  108SAPE   H9X11183   0.183   2.959   3.705  0.9457  1.3563 -3.5868
  108SAPE   H9Y11184   0.327   3.059   3.765  0.0237 -1.0659  0.8680
  108SAPE  C31011185   0.258   2.898   3.895  0.0745  0.3785 -0.6805
  108SAPE  H10X11186   0.356   2.872   3.941 -0.0128  1.4010  0.1122
  108SAPE  H10Y11187   0.194   2.807   3.885  1.1362 -0.4207 -0.3141
  108SAPE  C31111188   0.185   3.000   3.990 -0.1198  0.5384  0.4064
  108SAPE  H11X11189   0.090   3.023   3.937  1.0788  0.9369 -1.6738
  108SAPE  H11Y11190   0.240   3.097   3.988 -0.5747  0.7941  0.0343
  108SAPE  C31211191   0.163   2.953   4.135  0.0337 -0.1298  0.9251
  108SAPE  H12X11192   0.267   2.953   4.175  0.2068 -0.9774  0.4955
  108SAPE  H12Y11193   0.131   2.849   4.157  1.1348 -0.1336  2.7369
  108SAPE  C31311194   0.075   3.048   4.221 -0.3002  0.0174  0.3791
  108SAPE  H13X11195  -0.031   3.048   4.188 -0.8191 -1.6301  1.9004
  108SAPE  H13Y11196   0.114   3.152   4.220  0.2280 -0.1560 -1.6330
  108SAPE  C31411197   0.071   3.000   4.364  0.3936 -0.3231  0.1749
  108SAPE  H14X11198   0.043   3.088   4.427 -1.0439 -0.2528 -0.5173
  108SAPE  H14Y11199   0.167   2.956   4.396  0.4509 -1.0585 -0.9584
  108SAPE  C31511200  -0.030   2.880   4.398 -0.3425 -0.4965  0.7304
  108SAPE  H15X11201  -0.028   2.874   4.509 -1.6373  1.3792  0.9126
  108SAPE  H15Y11202   0.014   2.788   4.355 -0.1262 -0.1253  0.1401
  108SAPE  C31611203  -0.183   2.890   4.362 -0.1195 -0.2991 -0.0761
  108SAPE  H16X11204  -0.197   2.863   4.255  0.8742  0.9183 -0.5433
  108SAPE  H16Y11205  -0.212   2.996   4.377 -1.4431 -0.5091 -0.9601
  108SAPE  C31711206  -0.264   2.801   4.444  0.6724  0.0864 -0.2194
  108SAPE  H17X11207  -0.369   2.826   4.415  0.7580  0.3368 -0.3191
  108SAPE  H17Y11208  -0.240   2.827   4.549  1.2482 -0.8436 -0.1079
  108SAPE  C31811209  -0.248   2.652   4.429  0.1208 -0.0727 -0.1085
  108SAPE  H18X11210  -0.324   2.599   4.490 -1.9981  2.4584 -0.4040
  108SAPE  H18Y11211  -0.143   2.627   4.455 -0.5568 -1.6839  1.3095
  108SAPE  H18Z11212  -0.269   2.625   4.324  3.6214 -0.1455 -0.9106
  109SAPE     N11213   3.585   5.873   2.495 -0.2044 -0.6386  0.6296
  109SAPE   HN111214   3.576   5.809   2.577  1.3550 -0.0513  1.2953
  109SAPE   HN211215   3.499   5.862   2.437  0.4156 -0.0949 -0.4118
  109SAPE   HN311216   3.667   5.840   2.441  1.4530  3.3565  0.3598
  109SAPE   C1211217   3.593   6.017   2.527  0.1642 -0.0520 -0.0330
  109SAPE  H12A11218   3.686   6.047   2.579 -0.7092  2.2212  0.3327
  109SAPE  H12B11219   3.512   6.052   2.596  0.1163  2.9433 -1.4377
  109SAPE   C1111220   3.573   6.098   2.393  0.2802 -0.0885 -0.2446
  109SAPE  H11A11221   3.566   6.206   2.418 -1.4566  0.9759 -4.4427
  109SAPE  H11B11222   3.478   6.067   2.344  0.4902 -0.8674 -0.1812
  109SAPE     P11223   3.836   6.114   2.310  0.1065  0.2918 -0.3351
  109SAPE   O1311224   3.914   6.002   2.250  0.3212 -0.1401 -0.0864
  109SAPE   O1411225   3.855   6.248   2.243 -0.1092 -0.1639  0.5283
  109SAPE   O1211226   3.685   6.066   2.304 -0.1549 -0.0570 -0.1887
  109SAPE   O1111227   3.869   6.119   2.468  0.0299  0.2091  0.2229
  109SAPE    C111228   3.876   6.253   2.524 -0.1397  1.0176  0.2554
  109SAPE    HA11229   3.790   6.314   2.491 -2.5236 -2.1979  0.0242
  109SAPE    HB11230   3.863   6.245   2.634 -0.9250 -0.5134  0.0726
  109SAPE    C211231   4.020   6.312   2.491 -0.3326  0.5782 -0.3180
  109SAPE    HS11232   4.041   6.295   2.383 -1.9778 -1.1539 -0.4302
  109SAPE   O2111233   4.121   6.233   2.557  0.2224 -0.0100  0.2744
  109SAPE   C2111234   4.241   6.216   2.507  0.1073  0.2831 -0.6124
  109SAPE   O2211235   4.286   6.276   2.410  0.9595  0.2050 -0.1833
  109SAPE   C2211236   4.331   6.131   2.594  0.3548  0.2977  0.2846
  109SAPE   H2R11237   4.298   6.125   2.700  3.0585  1.2613  1.2658
  109SAPE   H2S11238   4.315   6.029   2.553 -0.0116  1.3333 -2.3073
  109SAPE    C311239   4.050   6.458   2.524  0.3419  0.3169  0.3056
  109SAPE    HX11240   3.979   6.519   2.465  1.3576  1.6168  0.3993
  109SAPE    HY11241   4.154   6.483   2.495  1.1153 -0.1922  2.4579
  109SAPE   O3111242   4.036   6.489   2.663 -0.1164  0.0467  0.4439
  109SAPE   C3111243   4.077   6.616   2.687  0.4804 -0.4849  0.5460
  109SAPE   O3211244   4.115   6.695   2.602  0.4207  0.1742 -0.2962
  109SAPE   C3211245   4.069   6.654   2.827 -0.0506 -0.0909 -0.5780
  109SAPE   H2X11246   4.039   6.564   2.884 -0.3607  1.0855  1.2060
  109SAPE   H2Y11247   3.998   6.737   2.851 -1.1007 -1.7416  2.5357
  109SAPE   C2311248   4.485   6.161   2.606  0.0893 -0.1342 -0.0783
  109SAPE   H3R11249   4.500   6.269   2.629  0.5475  0.1696 -1.6952
  109SAPE   H3S11250   4.527   6.154   2.503 -1.4012 -0.9632 -0.6590
  109SAPE   C2411251   4.554   6.067   2.707 -0.0280 -0.1567 -0.5118
  109SAPE   H4R11252   4.567   5.960   2.678 -0.3381 -1.1014  2.5239
  109SAPE   H4S11253   4.494   6.065   2.800  2.6293  0.9213  1.3859
  109SAPE   C2511254   4.698   6.106   2.750  0.8677 -0.1589  0.6109
  109SAPE   H5R11255   4.751   6.147   2.663  1.3773 -1.1712  0.4373
  109SAPE   C2611256   4.771   6.094   2.861  0.1937  0.6515 -0.2200
  109SAPE   H6R11257   4.877   6.122   2.871  0.1946 -0.0469  2.5378
  109SAPE   C2711258   4.708   6.037   2.990  0.8532 -0.1848  0.2935
  109SAPE   H7R11259   4.686   5.929   2.974  1.8821 -0.3493 -0.1321
  109SAPE   H7S11260   4.618   6.097   3.015  1.8484  0.3989  2.8011
  109SAPE   C2811261   4.809   6.062   3.097  0.2363  0.3801  0.3734
  109SAPE   H8R11262   4.909   6.095   3.066  0.1226  0.3933  0.0132
  109SAPE   C2911263   4.787   6.044   3.230 -0.2358 -0.0139  0.4184
  109SAPE   H9R11264   4.878   6.052   3.293  0.6395 -1.8139 -0.5423
  109SAPE  C21011265   4.661   5.996   3.298  0.0238  0.5539  0.1990
  109SAPE  H10R11266   4.683   5.932   3.386  1.6302  0.7646 -0.0199
  109SAPE  H10S11267   4.600   5.931   3.232  2.9979 -0.8145 -1.4087
  109SAPE  C21111268   4.585   6.120   3.340  0.3771  0.1614  0.0689
  109SAPE  H11R11269   4.592   6.208   3.274 -0.4487 -1.1157 -1.8287
  109SAPE  C21211270   4.502   6.131   3.445  1.1664  0.4607  0.5393
  109SAPE  H12R11271   4.443   6.220   3.470  0.0918  0.0912 -0.5960
  109SAPE  C21311272   4.475   6.017   3.548  0.0190 -0.3282  0.2530
  109SAPE  H13R11273   4.557   6.013   3.623 -0.4901 -0.9352  0.7846
  109SAPE  H13S11274   4.486   5.920   3.496 -0.4073  0.1421 -0.7497
  109SAPE  C21411275   4.333   6.035   3.601  0.5241  1.3399  0.0744
  109SAPE  H14R11276   4.263   6.060   3.520 -0.7366 -3.5476 -0.6401
  109SAPE  C21511277   4.278   6.021   3.724  0.2005  0.6909  0.8008
  109SAPE  H15R11278   4.170   6.038   3.736 -0.0944 -0.7669  0.4258
  109SAPE  C21611279   4.347   5.966   3.850  0.6595 -0.2478  0.1237
  109SAPE  H16R11280   4.317   6.020   3.942 -0.1548 -1.0307  0.3311
  109SAPE  H16S11281   4.456   5.988   3.850  0.3020  1.6741  0.0083
  109SAPE  C21711282   4.324   5.817   3.886 -0.1369 -0.5169 -0.5922
  109SAPE  H17R11283   4.381   5.790   3.978  1.2069  0.1431 -1.2134
  109SAPE  H17S11284   4.356   5.752   3.802  1.4245 -2.1288  1.1457
  109SAPE  C21811285   4.177   5.785   3.916 -0.7482  0.0505  0.0822
  109SAPE  H18R11286   4.157   5.684   3.875 -0.5355  0.1602 -0.2968
  109SAPE  H18S11287   4.118   5.862   3.861 -2.1058 -0.6404  0.5420
  109SAPE  C21911288   4.146   5.770   4.060  0.2533  0.1125  0.0794
  109SAPE  H19R11289   4.037   5.779   4.079  0.5406 -0.4124  2.2221
  109SAPE  H19S11290   4.192   5.854   4.116  0.6757 -0.5475  0.7253
  109SAPE  C22011291   4.198   5.643   4.134 -0.0062 -0.3336  0.0149
  109SAPE  H20R11292   4.308   5.649   4.151  0.2002  2.1003 -1.7475
  109SAPE  H20S11293   4.182   5.556   4.067 -0.8310 -2.7043  3.0288
  109SAPE  H20T11294   4.136   5.633   4.226 -0.0225  0.1993  0.0613
  109SAPE   C3311295   4.201   6.708   2.883 -0.5320 -0.0337 -0.0550
  109SAPE   H3X11296   4.178   6.761   2.978  2.3579  0.3820  0.5155
  109SAPE   H3Y11297   4.241   6.780   2.808 -0.7189  2.3207  1.9783
  109SAPE   C3411298   4.306   6.601   2.918 -0.1502 -0.5817  0.2803
  109SAPE   H4X11299   4.404   6.650   2.937  0.1123 -0.6136 -0.8973
  109SAPE   H4Y11300   4.323   6.523   2.840  2.0494  2.3718 -2.4727
  109SAPE   C3511301   4.266   6.515   3.043 -0.0280  0.0004  1.0271
  109SAPE   H5X11302   4.238   6.412   3.013 -1.2449  0.3066  1.0464
  109SAPE   H5Y11303   4.175   6.558   3.089  0.4184  1.5896  0.4949
  109SAPE   C3611304   4.382   6.502   3.146 -0.4163 -0.4034 -0.4190
  109SAPE   H6X11305   4.405   6.604   3.183  0.3987 -0.5025 -0.6353
  109SAPE   H6Y11306   4.468   6.466   3.085  2.1857  0.7329  2.3313
  109SAPE   C3711307   4.365   6.390   3.250 -0.4797 -0.6898  0.4806
  109SAPE   H7X11308   4.463   6.354   3.289 -0.7640 -0.6926  1.1956
  109SAPE   H7Y11309   4.320   6.307   3.191 -0.1031  0.0929 -0.9737
  109SAPE   C3811310   4.278   6.426   3.368 -0.2735  0.3383 -0.3178
  109SAPE   H8X11311   4.270   6.329   3.423  1.2062  0.2893 -0.1456
  109SAPE   H8Y11312   4.177   6.459   3.336 -2.0171 -2.3898  1.8672
  109SAPE   C3911313   4.344   6.526   3.462 -0.1104 -0.4826  0.5012
  109SAPE   H9X11314   4.364   6.622   3.410  1.0922 -0.5539  0.8016
  109SAPE   H9Y11315   4.443   6.486   3.495  0.7133 -0.0731 -1.3210
  109SAPE  C31011316   4.270   6.549   3.595  0.1288  0.7875  0.3850
  109SAPE  H10X11317   4.270   6.452   3.649 -1.0735  0.4015 -0.2587
  109SAPE  H10Y11318   4.168   6.578   3.560 -0.0378 -0.6413 -0.3673
  109SAPE  C31111319   4.338   6.659   3.679 -0.1498 -0.1158  0.6414
  109SAPE  H11X11320   4.344   6.748   3.612  2.0042  1.4031  2.7107
  109SAPE  H11Y11321   4.446   6.634   3.688  0.2152  0.4945 -1.4580
  109SAPE  C31211322   4.271   6.696   3.803  0.4074  0.5509 -0.5583
  109SAPE  H12X11323   4.163   6.708   3.780  0.1782  0.3406  0.3421
  109SAPE  H12Y11324   4.301   6.798   3.836  0.6372 -0.4162  2.5323
  109SAPE  C31311325   4.294   6.602   3.927 -0.5504  0.7342 -0.3842
  109SAPE  H13X11326   4.234   6.509   3.939  1.5848 -0.6587 -0.0032
  109SAPE  H13Y11327   4.264   6.657   4.020 -1.3825 -1.7113  0.8868
  109SAPE  C31411328   4.441   6.563   3.935  0.0078  0.1230  0.3466
  109SAPE  H14X11329   4.504   6.655   3.943  0.6629 -0.3576  0.8389
  109SAPE  H14Y11330   4.470   6.493   3.854 -2.7515 -1.3420  0.5148
  109SAPE  C31511331   4.470   6.501   4.078 -0.1358  0.1132 -0.3074
  109SAPE  H15X11332   4.402   6.414   4.092 -1.4434  0.8506 -1.7631
  109SAPE  H15Y11333   4.453   6.581   4.153 -0.3530  0.6860 -0.9544
  109SAPE  C31611334   4.606   6.426   4.094  0.0533 -0.5171 -0.2723
  109SAPE  H16X11335   4.687   6.489   4.052  1.0093 -3.3093 -2.9958
  109SAPE  H16Y11336   4.603   6.337   4.028 -1.2856 -1.6924  1.2916
  109SAPE  C31711337   4.634   6.380   4.240 -0.2587 -0.1726 -0.6445
  109SAPE  H17X11338   4.715   6.304   4.240 -1.4262 -1.5337  1.7611
  109SAPE  H17Y11339   4.550   6.317   4.275  0.0789 -0.3001 -0.0408
  109SAPE  C31811340   4.674   6.492   4.339  0.0342  0.0403  0.3426
  109SAPE  H18X11341   4.697   6.449   4.439  2.6493 -1.1996 -0.6924
  109SAPE  H18Y11342   4.597   6.570   4.356 -1.6246 -1.3012 -0.6815
  109SAPE  H18Z11343   4.763   6.538   4.291 -0.8225  1.1547 -0.2167
  110SAPE     N11344   3.852   5.262   2.119  0.1784  0.6117 -0.3049
  110SAPE   HN111345   3.757   5.302   2.104  0.0734 -0.0260 -1.4999
  110SAPE   HN211346   3.920   5.340   2.107  0.4796  0.5876  1.0421
  110SAPE   HN311347   3.872   5.194   2.044 -1.8819 -0.1699 -0.2174
  110SAPE   C1211348   3.859   5.206   2.263 -0.0664  0.0259  0.3035
  110SAPE  H12A11349   3.966   5.194   2.289  0.9714  3.0989 -1.8754
  110SAPE  H12B11350   3.813   5.105   2.258  3.6083 -1.7756 -0.5099
  110SAPE   C1111351   3.797   5.302   2.372 -0.3963  0.8333  0.4046
  110SAPE  H11A11352   3.872   5.381   2.393 -0.0760  0.7554 -0.4128
  110SAPE  H11B11353   3.784   5.240   2.464 -1.6617 -1.8526 -1.4552
  110SAPE     P11354   3.536   5.279   2.360 -0.3979  0.1644 -0.2919
  110SAPE   O1311355   3.432   5.349   2.285 -0.2643 -0.1279 -0.0866
  110SAPE   O1411356   3.547   5.132   2.342  0.2060  0.1879 -0.6596
  110SAPE   O1211357   3.672   5.352   2.327 -0.3090 -0.3895 -0.1655
  110SAPE   O1111358   3.523   5.315   2.511 -0.4388 -1.1790 -0.1044
  110SAPE    C111359   3.464   5.446   2.539  0.7505 -1.0867  0.7325
  110SAPE    HA11360   3.517   5.523   2.480  0.9018 -1.1848  0.7395
  110SAPE    HB11361   3.355   5.454   2.521  0.6888 -1.6108  0.8585
  110SAPE    C211362   3.484   5.481   2.687 -0.8447 -0.8469 -0.0835
  110SAPE    HS11363   3.441   5.577   2.724  0.7782 -0.3657  0.6593
  110SAPE   O2111364   3.625   5.466   2.717 -0.0739  0.1838  0.2337
  110SAPE   C2111365   3.702   5.573   2.685  0.3123  0.7281 -1.1306
  110SAPE   O2211366   3.655   5.683   2.669 -0.1582 -0.3406 -0.0288
  110SAPE   C2211367   3.851   5.542   2.676 -0.3584  0.7288 -0.3171
  110SAPE   H2R11368   3.871   5.433   2.668 -0.5875  0.7133 -0.7139
  110SAPE   H2S11369   3.876   5.605   2.587 -2.4194  2.9034  0.5300
  110SAPE    C311370   3.408   5.374   2.771  0.2021 -0.3561 -0.4800
  110SAPE    HX11371   3.314   5.355   2.716 -0.8249  1.3855  0.5554
  110SAPE    HY11372   3.484   5.293   2.762  1.5758  0.4824  2.2066
  110SAPE   O3111373   3.390   5.418   2.909  0.2609 -0.3186 -0.5184
  110SAPE   C3111374   3.350   5.327   2.999  0.5713  0.3470  0.1886
  110SAPE   O3211375   3.334   5.207   2.982 -0.1576 -0.5286 -0.1141
  110SAPE   C3211376   3.343   5.389   3.134 -0.3650 -0.8707  0.2463
  110SAPE   H2X11377   3.271   5.473   3.134  0.8009  0.1725  1.0633
  110SAPE   H2Y11378   3.442   5.433   3.161 -0.5198 -0.8243  0.7623
  110SAPE   C2311379   3.928   5.598   2.796  0.5988  0.5018 -0.3093
  110SAPE   H3R11380   3.903   5.705   2.808  0.5021  0.2699  2.2380
  110SAPE   H3S11381   4.038   5.598   2.780  0.7070  0.1877  0.3560
  110SAPE   C2411382   3.880   5.526   2.930 -0.7304 -0.7514  0.6165
  110SAPE   H4R11383   3.773   5.548   2.946 -0.4136  2.0399 -0.4573
  110SAPE   H4S11384   3.927   5.577   3.017 -0.9498  0.8307 -0.1525
  110SAPE   C2511385   3.925   5.382   2.929  0.0753  0.3687  0.0490
  110SAPE   H5R11386   4.025   5.347   2.898 -0.5182 -0.2010 -1.2917
  110SAPE   C2611387   3.838   5.286   2.964  0.4066 -0.2308  0.2662
  110SAPE   H6R11388   3.875   5.183   2.969  1.6040  0.1314 -0.8421
  110SAPE   C2711389   3.700   5.295   3.024 -0.2969  0.0679 -1.2615
  110SAPE   H7R11390   3.630   5.237   2.961  0.9927 -0.3094 -2.3954
  110SAPE   H7S11391   3.666   5.399   3.043 -2.3288 -0.9662  1.5991
  110SAPE   C2811392   3.706   5.233   3.160 -0.6690  0.2330  0.7691
  110SAPE   H8R11393   3.696   5.123   3.160  0.5306  0.0560 -1.5694
  110SAPE   C2911394   3.745   5.286   3.277  0.4465 -0.2397 -0.7052
  110SAPE   H9R11395   3.743   5.220   3.365  0.3441 -0.6668 -1.0230
  110SAPE  C21011396   3.780   5.426   3.301  0.2674  0.0676 -0.5852
  110SAPE  H10R11397   3.722   5.498   3.240 -0.3028  1.6996  1.7761
  110SAPE  H10S11398   3.885   5.440   3.267  0.1242  0.4599 -0.8787
  110SAPE  C21111399   3.754   5.461   3.450  0.5456 -0.0340  0.7590
  110SAPE  H11R11400   3.648   5.474   3.474  0.0869  0.4917 -1.3597
  110SAPE  C21211401   3.844   5.494   3.544  0.3188  0.5783  0.8787
  110SAPE  H12R11402   3.814   5.523   3.646 -0.2103 -0.3983  1.0193
  110SAPE  C21311403   3.996   5.490   3.529 -0.2902 -0.3062  0.4911
  110SAPE  H13R11404   4.030   5.469   3.426  2.2273  1.3495  0.9207
  110SAPE  H13S11405   4.033   5.403   3.588  0.9410 -1.5528 -1.9539
  110SAPE  C21411406   4.065   5.613   3.579 -0.3555  0.2672 -0.2300
  110SAPE  H14R11407   4.096   5.614   3.684 -0.4842  2.0624 -0.1809
  110SAPE  C21511408   4.098   5.725   3.511 -0.2500 -0.3945 -0.6926
  110SAPE  H15R11409   4.145   5.804   3.571 -2.0851  1.4645 -1.5728
  110SAPE  C21611410   4.075   5.761   3.366 -0.1421 -0.6323  0.2436
  110SAPE  H16R11411   3.997   5.836   3.345  0.2472 -0.8515 -2.2573
  110SAPE  H16S11412   4.030   5.672   3.316  1.1016 -1.6583  0.8798
  110SAPE  C21711413   4.199   5.803   3.280  0.5839 -0.5641 -0.5205
  110SAPE  H17R11414   4.275   5.721   3.277  1.1073 -0.2099  1.5329
  110SAPE  H17S11415   4.243   5.891   3.331 -4.0967  2.5112 -1.2304
  110SAPE  C21811416   4.158   5.854   3.139 -0.3570 -0.3508  0.3820
  110SAPE  H18R11417   4.069   5.918   3.155 -2.0211 -2.4658  0.0662
  110SAPE  H18S11418   4.137   5.773   3.066  0.1618  1.6021 -2.0783
  110SAPE  C21911419   4.268   5.947   3.072  0.5589 -0.0653  0.1711
  110SAPE  H19R11420   4.352   5.876   3.059 -0.7391 -2.3817  3.0674
  110SAPE  H19S11421   4.305   6.025   3.142  0.8034  2.1974 -2.3238
  110SAPE  C22011422   4.218   6.009   2.945 -0.0332  0.8335 -0.9577
  110SAPE  H20R11423   4.284   6.095   2.921  2.5117 -0.7586 -0.1287
  110SAPE  H20S11424   4.119   6.049   2.974 -0.0573 -0.2028  0.5323
  110SAPE  H20T11425   4.209   5.947   2.854 -0.8429 -1.5453  0.6373
  110SAPE   C3311426   3.297   5.288   3.241 -0.0422 -0.3532  0.7798
  110SAPE   H3X11427   3.373   5.209   3.258  0.6961 -0.7405 -3.3318
  110SAPE   H3Y11428   3.199   5.248   3.207  0.6867 -1.6348  0.1001
  110SAPE   C3411429   3.271   5.361   3.367 -0.5427  0.2024  0.2884
  110SAPE   H4X11430   3.197   5.434   3.328  0.2872  0.2688 -1.2869
  110SAPE   H4Y11431   3.364   5.418   3.391  0.0750 -0.5391 -0.2626
  110SAPE   C3511432   3.224   5.284   3.488 -0.5439  0.2889  0.0780
  110SAPE   H5X11433   3.166   5.193   3.460 -1.0882  1.1679 -1.7908
  110SAPE   H5Y11434   3.163   5.351   3.551  1.6034  0.8452  1.6705
  110SAPE   C3611435   3.345   5.254   3.585 -0.5104 -0.6505  0.0297
  110SAPE   H6X11436   3.401   5.347   3.608 -0.0191 -1.0533  0.4756
  110SAPE   H6Y11437   3.409   5.185   3.527 -2.0868 -1.9734 -0.2049
  110SAPE   C3711438   3.295   5.202   3.718  0.4018  0.1941 -0.5571
  110SAPE   H7X11439   3.231   5.111   3.728  0.3594  0.3933  1.2736
  110SAPE   H7Y11440   3.225   5.279   3.754 -1.1160 -0.6215 -1.6673
  110SAPE   C3811441   3.415   5.182   3.822  0.5741  0.1399  0.0841
  110SAPE   H8X11442   3.439   5.283   3.861 -0.3868  0.2741  0.3429
  110SAPE   H8Y11443   3.503   5.138   3.770 -0.4715  0.1358 -1.7787
  110SAPE   C3911444   3.370   5.090   3.938  0.0919  0.1833  0.1586
  110SAPE   H9X11445   3.338   4.998   3.886  0.9924  1.5441 -3.0935
  110SAPE   H9Y11446   3.286   5.143   3.989 -0.7503  0.3628 -1.3471
  110SAPE  C31011447   3.476   5.063   4.045 -0.1260 -0.2341  0.9678
  110SAPE  H10X11448   3.491   5.156   4.103  1.4385  0.5285 -0.5689
  110SAPE  H10Y11449   3.579   5.039   4.011 -0.9144  0.0122 -1.9273
  110SAPE  C31111450   3.412   4.961   4.130 -0.6318  0.0062 -0.7836
  110SAPE  H11X11451   3.366   4.883   4.066 -1.6106 -0.5290  0.5266
  110SAPE  H11Y11452   3.326   5.006   4.183 -0.4068  0.4807 -0.8166
  110SAPE  C31211453   3.500   4.886   4.241 -0.3846  0.8310  0.2847
  110SAPE  H12X11454   3.568   4.814   4.190 -2.5202 -0.2619 -1.1824
  110SAPE  H12Y11455   3.432   4.818   4.297  0.2608 -0.0879 -0.0246
  110SAPE  C31311456   3.556   4.983   4.339 -0.5295 -0.1660  0.2114
  110SAPE  H13X11457   3.469   5.044   4.371 -1.5779 -1.6278  0.2273
  110SAPE  H13Y11458   3.624   5.065   4.304 -2.4779  0.1422 -3.3516
  110SAPE  C31411459   3.614   4.919   4.463  0.4824 -0.1213  0.5389
  110SAPE  H14X11460   3.722   4.944   4.464  0.0595  1.9756 -0.6357
  110SAPE  H14Y11461   3.605   4.808   4.464  1.3101 -0.2219 -0.8692
  110SAPE  C31511462   3.538   4.961   4.587  0.2998 -0.0464  0.1716
  110SAPE  H15X11463   3.433   4.929   4.567 -0.5365  2.5740 -0.0782
  110SAPE  H15Y11464   3.520   5.070   4.601  0.8566 -0.1483  1.7933
  110SAPE  C31611465   3.595   4.910   4.717  0.3408 -0.3235  0.0332
  110SAPE  H16X11466   3.702   4.937   4.701  0.2308  0.6132  0.7612
  110SAPE  H16Y11467   3.595   4.800   4.732  0.3241 -0.1757  1.2556
  110SAPE  C31711468   3.550   4.978   4.850 -0.0871 -0.6511 -0.0597
  110SAPE  H17X11469   3.546   5.087   4.830 -3.1760 -0.5374  0.6134
  110SAPE  H17Y11470   3.628   4.945   4.921  0.2449 -0.7849 -0.4843
  110SAPE  C31811471   3.407   4.944   4.886 -0.2810  0.0961 -0.4613
  110SAPE  H18X11472   3.331   4.948   4.806  1.0473 -0.5511 -1.7965
  110SAPE  H18Y11473   3.382   5.027   4.956  4.5473  1.1895  0.3438
  110SAPE  H18Z11474   3.399   4.843   4.931  0.7792  0.2236  0.0473
  111SAPE     N11475   2.189   6.189   2.408 -0.1844  0.1983 -0.2180
  111SAPE   HN111476   2.122   6.136   2.348  0.0953 -0.1132 -0.2576
  111SAPE   HN211477   2.137   6.258   2.467  0.2501 -1.4422  2.2414
  111SAPE   HN311478   2.256   6.241   2.349  1.8422 -1.2812  0.6684
  111SAPE   C1211479   2.273   6.096   2.492 -0.0001  0.2933 -1.3398
  111SAPE  H12A11480   2.307   6.006   2.437  1.1406 -0.3834  0.4046
  111SAPE  H12B11481   2.207   6.067   2.576  2.5834 -2.2327 -0.0197
  111SAPE   C1111482   2.401   6.179   2.529  1.5698 -0.1662 -0.3147
  111SAPE  H11A11483   2.457   6.107   2.592 -0.7947 -0.1980  1.9126
  111SAPE  H11B11484   2.378   6.265   2.596  1.9239 -1.0698  1.0012
  111SAPE     P11485   2.626   6.233   2.407  0.0206 -0.0129 -0.0852
  111SAPE   O1311486   2.665   6.092   2.424 -0.4386  0.1108 -0.7443
  111SAPE   O1411487   2.668   6.299   2.282  0.4004 -0.5377 -0.2072
  111SAPE   O1211488   2.471   6.231   2.412  0.5083 -0.2968 -0.3030
  111SAPE   O1111489   2.667   6.317   2.539  0.4383  0.3360  0.0637
  111SAPE    C111490   2.653   6.458   2.546 -0.7719  0.4920  0.2318
  111SAPE    HA11491   2.746   6.502   2.504 -0.0070 -2.3778 -1.3242
  111SAPE    HB11492   2.573   6.487   2.475  0.5792 -0.6410 -1.8349
  111SAPE    C211493   2.627   6.508   2.690 -0.2609  0.1724 -0.1092
  111SAPE    HS11494   2.589   6.612   2.691 -0.1928  0.2050 -0.6324
  111SAPE   O2111495   2.733   6.495   2.780 -0.0977 -0.3226 -0.4631
  111SAPE   C2111496   2.774   6.591   2.867  0.5664  0.3102 -0.2968
  111SAPE   O2211497   2.734   6.705   2.875  0.1706  0.7805 -0.6414
  111SAPE   C2211498   2.885   6.530   2.950 -0.5096 -0.4007 -0.0209
  111SAPE   H2R11499   2.843   6.441   3.001  2.1916 -0.3291  2.5701
  111SAPE   H2S11500   2.970   6.501   2.884  0.4069 -0.0185  0.9510
  111SAPE    C311501   2.510   6.429   2.752  0.2201  0.0019  0.4344
  111SAPE    HX11502   2.548   6.325   2.754 -0.5024 -0.2610  1.8468
  111SAPE    HY11503   2.424   6.439   2.681  0.7614 -0.2282 -0.2676
  111SAPE   O3111504   2.487   6.481   2.882  0.2724  0.4535 -0.4947
  111SAPE   C3111505   2.508   6.394   2.986 -0.0205 -0.2364  0.1262
  111SAPE   O3211506   2.530   6.278   2.977  0.1784 -0.5485 -0.4741
  111SAPE   C3211507   2.511   6.484   3.114 -0.2191 -0.1124  0.3510
  111SAPE   H2X11508   2.410   6.525   3.130 -0.1254  0.2361  0.0763
  111SAPE   H2Y11509   2.585   6.566   3.096  1.7816 -1.6459  1.1843
  111SAPE   C2311510   2.966   6.635   3.045  0.5326  0.5348 -0.4131
  111SAPE   H3R11511   2.983   6.727   2.986 -2.4566  0.7497 -1.0707
  111SAPE   H3S11512   3.064   6.593   3.076 -0.3171 -1.0001  0.3433
  111SAPE   C2411513   2.896   6.681   3.171  0.1666 -0.2514 -0.0938
  111SAPE   H4R11514   2.799   6.729   3.143  0.7802  1.4605  0.5706
  111SAPE   H4S11515   2.951   6.766   3.217 -1.7265  2.1452 -1.9862
  111SAPE   C2511516   2.878   6.568   3.268  0.5611  0.4294  0.4001
  111SAPE   H5R11517   2.882   6.463   3.236  1.6342  0.4772  0.3654
  111SAPE   C2611518   2.886   6.593   3.396 -0.0235 -0.2814  0.1192
  111SAPE   H6R11519   2.880   6.510   3.468 -1.7795 -0.0152  0.3176
  111SAPE   C2711520   2.900   6.722   3.470  0.7028 -0.4285 -0.2464
  111SAPE   H7R11521   2.851   6.808   3.419 -3.8616 -0.3382  3.6114
  111SAPE   H7S11522   3.009   6.742   3.483  1.2157 -0.2892 -3.8073
  111SAPE   C2811523   2.826   6.719   3.602  0.1321  0.3924 -0.0637
  111SAPE   H8R11524   2.720   6.748   3.605  0.3492  1.2029  3.0091
  111SAPE   C2911525   2.888   6.674   3.720  0.7822 -0.5767  0.5354
  111SAPE   H9R11526   2.835   6.688   3.815 -1.4243 -0.6790 -0.6278
  111SAPE  C21011527   3.024   6.617   3.737 -0.6411 -0.0183  0.4585
  111SAPE  H10R11528   3.088   6.683   3.800 -1.6492 -0.6364  2.2154
  111SAPE  H10S11529   3.075   6.594   3.641 -0.3971  0.9813  0.3356
  111SAPE  C21111530   3.022   6.489   3.819 -0.8833 -0.7376 -0.0117
  111SAPE  H11R11531   3.068   6.402   3.770  1.2784 -0.8998  2.1292
  111SAPE  C21211532   3.020   6.482   3.958  0.2660 -0.1941 -0.3763
  111SAPE  H12R11533   3.018   6.383   4.006  1.1839  0.7152  1.6798
  111SAPE  C21311534   2.996   6.610   4.050  0.4789  0.6129  0.7786
  111SAPE  H13R11535   2.954   6.697   3.996  1.5380  0.4587 -0.3286
  111SAPE  H13S11536   3.089   6.656   4.089 -1.0180  1.7312  3.2667
  111SAPE  C21411537   2.909   6.578   4.172 -0.4326 -0.7196 -0.3748
  111SAPE  H14R11538   2.806   6.611   4.153 -0.5454 -1.5889 -1.4043
  111SAPE  C21511539   2.952   6.517   4.286  0.0562 -0.7533  0.1553
  111SAPE  H15R11540   2.887   6.485   4.369  0.1244 -1.7364 -0.1546
  111SAPE  C21611541   3.088   6.464   4.315 -0.5651 -0.0608 -0.1028
  111SAPE  H16R11542   3.116   6.509   4.412 -0.7255  1.1568 -0.5971
  111SAPE  H16S11543   3.158   6.502   4.237 -0.2078  0.2333  0.3536
  111SAPE  C21711544   3.089   6.312   4.318  0.2835 -0.6257 -0.0597
  111SAPE  H17R11545   3.191   6.267   4.324 -0.7007 -2.9632  0.2646
  111SAPE  H17S11546   3.073   6.274   4.215  1.3197  0.4591 -0.6408
  111SAPE  C21811547   3.003   6.249   4.426  0.4925 -0.0774  0.0074
  111SAPE  H18R11548   3.030   6.141   4.430  1.4384  0.1839  2.2711
  111SAPE  H18S11549   2.893   6.258   4.417  0.2422  1.9627  3.3070
  111SAPE  C21911550   3.030   6.301   4.567  0.1256 -0.3629 -0.5777
  111SAPE  H19R11551   2.986   6.403   4.567  0.9790  0.0136 -0.9014
  111SAPE  H19S11552   3.139   6.297   4.587  0.0091 -2.2982 -0.1612
  111SAPE  C22011553   2.973   6.219   4.684  0.1144 -0.5014 -0.4004
  111SAPE  H20R11554   2.979   6.113   4.651 -0.1660 -0.1191 -1.7475
  111SAPE  H20S11555   2.871   6.259   4.701  0.0699 -0.3528 -0.9936
  111SAPE  H20T11556   3.028   6.249   4.776 -1.1883 -0.6865  0.4647
  111SAPE   C3311557   2.536   6.396   3.239 -0.1589  0.5252  0.5119
  111SAPE   H3X11558   2.636   6.348   3.232  0.7171  2.1652  1.2581
  111SAPE   H3Y11559   2.453   6.323   3.244 -0.7313  0.9397 -1.7877
  111SAPE   C3411560   2.524   6.474   3.373  0.6291  0.4718  0.3327
  111SAPE   H4X11561   2.421   6.514   3.379  0.4190  0.3832 -1.7964
  111SAPE   H4Y11562   2.602   6.552   3.385  1.4533 -0.4760  1.3516
  111SAPE   C3511563   2.557   6.373   3.492  0.5674 -0.0582  0.5843
  111SAPE   H5X11564   2.653   6.319   3.477  1.0939  0.3239  2.3435
  111SAPE   H5Y11565   2.483   6.290   3.492  0.4894  0.0099  0.3829
  111SAPE   C3611566   2.547   6.443   3.630  0.2499 -0.6687  0.5079
  111SAPE   H6X11567   2.447   6.486   3.653 -0.3048 -1.4107 -0.4124
  111SAPE   H6Y11568   2.626   6.521   3.626 -0.6992  0.2855 -1.8997
  111SAPE   C3711569   2.572   6.349   3.757  0.5408  0.0581  0.3388
  111SAPE   H7X11570   2.680   6.325   3.743 -0.0666 -3.1271  0.4617
  111SAPE   H7Y11571   2.520   6.253   3.738 -0.2831  0.8716 -1.8961
  111SAPE   C3811572   2.537   6.425   3.886 -0.3533  0.3660  0.6597
  111SAPE   H8X11573   2.427   6.436   3.896 -0.3363  1.8674 -0.5413
  111SAPE   H8Y11574   2.578   6.527   3.872  1.9072 -0.6145 -0.3032
  111SAPE   C3911575   2.586   6.354   4.019  0.5353 -0.1946  0.1036
  111SAPE   H9X11576   2.566   6.425   4.102 -1.7473  0.8689 -1.2400
  111SAPE   H9Y11577   2.695   6.332   4.019  0.5674 -0.1174  1.6118
  111SAPE  C31011578   2.507   6.226   4.054  0.3089  0.6514  0.4863
  111SAPE  H10X11579   2.516   6.156   3.968  1.6111 -0.8353  1.7698
  111SAPE  H10Y11580   2.398   6.233   4.074 -0.2591 -2.6178 -0.7800
  111SAPE  C31111581   2.564   6.137   4.175 -0.0192  0.9638 -0.4082
  111SAPE  H11X11582   2.491   6.057   4.200  2.1525 -1.0624 -0.1004
  111SAPE  H11Y11583   2.568   6.217   4.252 -2.4970  1.0227 -0.2781
  111SAPE  C31211584   2.695   6.061   4.149  0.6048  0.1392  0.1651
  111SAPE  H12X11585   2.778   6.135   4.145  1.2997 -0.5859  0.7992
  111SAPE  H12Y11586   2.696   6.025   4.044 -1.5168 -1.6173  0.6778
  111SAPE  C31311587   2.726   5.961   4.264 -0.3281 -0.0192 -0.0349
  111SAPE  H13X11588   2.638   5.892   4.263 -1.9604  1.9473  0.1306
  111SAPE  H13Y11589   2.711   6.020   4.356 -0.4055  1.5950 -1.0385
  111SAPE  C31411590   2.862   5.885   4.257 -0.4577 -0.0437  0.3636
  111SAPE  H14X11591   2.898   5.847   4.355  1.6664  0.0838 -0.3233
  111SAPE  H14Y11592   2.945   5.953   4.229  0.3127 -0.6642  1.0790
  111SAPE  C31511593   2.874   5.761   4.164 -0.2597 -0.3719 -0.1811
  111SAPE  H15X11594   2.971   5.752   4.112 -1.0488  0.3544 -1.8531
  111SAPE  H15Y11595   2.798   5.767   4.083  0.7313  0.2187 -1.0822
  111SAPE  C31611596   2.835   5.630   4.244 -0.2505 -0.5147  0.2436
  111SAPE  H16X11597   2.852   5.543   4.176 -0.0722 -1.4465  1.4609
  111SAPE  H16Y11598   2.726   5.629   4.269 -1.2299  0.1998 -3.3357
  111SAPE  C31711599   2.931   5.587   4.361  0.8898  0.2382  0.2595
  111SAPE  H17X11600   2.956   5.672   4.430 -0.7417  0.7943  0.2021
  111SAPE  H17Y11601   3.031   5.570   4.315 -0.4656 -0.2265 -2.7302
  111SAPE  C31811602   2.888   5.460   4.428  0.8134  0.5673  0.2124
  111SAPE  H18X11603   2.795   5.418   4.384  1.1775  0.2397 -0.2641
  111SAPE  H18Y11604   2.882   5.482   4.537  2.4048 -2.9154  1.1279
  111SAPE  H18Z11605   2.973   5.388   4.422 -1.6811 -2.4932 -0.7506
  112SAPE     N11606   1.206   6.367   2.537  0.1635  0.2059  0.0511
  112SAPE   HN111607   1.212   6.265   2.516 -0.0545  0.6487 -2.5245
  112SAPE   HN211608   1.251   6.420   2.459 -0.9197 -0.0255 -0.7641
  112SAPE   HN311609   1.258   6.389   2.624  0.4929  2.1020 -0.5846
  112SAPE   C1211610   1.061   6.400   2.554 -0.9132 -0.4578 -0.3646
  112SAPE  H12A11611   1.041   6.508   2.571 -1.6918 -0.8704  1.5732
  112SAPE  H12B11612   1.023   6.353   2.646 -0.5631  0.4605  0.2626
  112SAPE   C1111613   0.975   6.356   2.442 -0.5950 -0.4138  0.4893
  112SAPE  H11A11614   1.011   6.402   2.347 -1.7359 -1.2357 -0.3674
  112SAPE  H11B11615   0.875   6.403   2.447 -0.6805 -0.4798 -0.4343
  112SAPE     P11616   1.019   6.112   2.355  0.2721  0.2028  0.1926
  112SAPE   O1311617   0.937   6.122   2.232  0.0684  0.0678  0.5643
  112SAPE   O1411618   1.166   6.134   2.345 -0.3501 -0.4537 -0.6567
  112SAPE   O1211619   0.963   6.217   2.449  0.1799  0.0553  0.4397
  112SAPE   O1111620   0.999   5.977   2.428  0.2536 -0.3467 -0.3830
  112SAPE    C111621   0.891   5.891   2.391 -0.8589  0.3010  0.3638
  112SAPE    HA11622   0.898   5.856   2.286 -0.2646  1.8027 -0.1324
  112SAPE    HB11623   0.898   5.793   2.443 -0.0702 -0.1692 -0.6017
  112SAPE    C211624   0.753   5.954   2.435  0.4793  0.4803  0.7667
  112SAPE    HS11625   0.733   6.035   2.362  1.3942  0.5154  0.5503
  112SAPE   O2111626   0.762   6.008   2.568 -0.1881 -0.4255 -0.2510
  112SAPE   C2111627   0.656   6.088   2.589 -0.1815  0.5731 -0.4525
  112SAPE   O2211628   0.560   6.111   2.513 -0.3728 -0.2575 -0.3066
  112SAPE   C2211629   0.671   6.140   2.732  0.3657  0.1610  0.2660
  112SAPE   H2R11630   0.581   6.115   2.793 -0.7835  0.7429 -1.1476
  112SAPE   H2S11631   0.754   6.085   2.782 -0.3814  0.9442  2.5056
  112SAPE    C311632   0.638   5.847   2.422  0.2807 -0.0706  0.5517
  112SAPE    HX11633   0.654   5.793   2.327 -0.6183  1.8049 -0.7184
  112SAPE    HY11634   0.535   5.888   2.418  1.0037  1.8131  0.2649
  112SAPE   O3111635   0.642   5.754   2.531  0.5460 -0.2569 -0.1227
  112SAPE   C3111636   0.698   5.633   2.511 -0.4136  0.6045  0.4227
  112SAPE   O3211637   0.731   5.586   2.400  0.0025 -0.2144  0.7723
  112SAPE   C3211638   0.692   5.547   2.640  0.2782 -0.2216  0.4236
  112SAPE   H2X11639   0.620   5.467   2.612  1.3360 -0.2712 -2.5028
  112SAPE   H2Y11640   0.659   5.611   2.724 -0.2590  0.3014 -0.1823
  112SAPE   C2311641   0.701   6.293   2.728  0.3035  0.2015  0.1829
  112SAPE   H3R11642   0.603   6.343   2.718 -1.6044 -2.8265  2.1152
  112SAPE   H3S11643   0.774   6.324   2.650  0.7412 -0.6604  0.2395
  112SAPE   C2411644   0.765   6.348   2.856  0.4916 -0.0311  0.6017
  112SAPE   H4R11645   0.869   6.313   2.875  0.7083 -0.0757 -0.5950
  112SAPE   H4S11646   0.708   6.310   2.943  1.0047 -2.2915  0.0112
  112SAPE   C2511647   0.760   6.502   2.852  0.1642  0.5361 -0.2946
  112SAPE   H5R11648   0.818   6.543   2.769  1.3552 -0.7213 -0.1258
  112SAPE   C2611649   0.709   6.581   2.945  0.9078 -0.4791 -0.4028
  112SAPE   H6R11650   0.703   6.689   2.923 -0.8697 -0.8006 -1.6885
  112SAPE   C2711651   0.635   6.538   3.072  0.3989 -0.7255 -0.3353
  112SAPE   H7R11652   0.649   6.610   3.155 -2.9007 -1.0044  0.6046
  112SAPE   H7S11653   0.673   6.439   3.104 -0.6710 -1.3178 -0.8429
  112SAPE   C2811654   0.486   6.520   3.052 -0.2752 -0.7055  0.0082
  112SAPE   H8R11655   0.448   6.496   2.951 -0.6222 -2.7245  0.5773
  112SAPE   C2911656   0.395   6.526   3.150  0.1344  0.7083  0.2022
  112SAPE   H9R11657   0.291   6.499   3.126  0.5258 -1.1119  0.3775
  112SAPE  C21011658   0.426   6.544   3.298 -0.1810  0.1512  0.6337
  112SAPE  H10R11659   0.347   6.606   3.347 -0.2654  1.2362 -0.7898
  112SAPE  H10S11660   0.509   6.617   3.309  1.2822 -1.4648  0.7486
  112SAPE  C21111661   0.449   6.416   3.375 -0.2672 -0.1601  0.5010
  112SAPE  H11R11662   0.414   6.328   3.319 -0.4557 -0.2240  0.7204
  112SAPE  C21211663   0.498   6.403   3.498  0.5777  0.1765 -0.1003
  112SAPE  H12R11664   0.515   6.300   3.532  0.3482  0.1231 -0.1444
  112SAPE  C21311665   0.544   6.516   3.588 -0.1546 -0.1604  0.9915
  112SAPE  H13R11666   0.468   6.596   3.580  1.1872  1.0295 -0.6840
  112SAPE  H13S11667   0.638   6.565   3.554 -1.1107  0.0243 -1.6612
  112SAPE  C21411668   0.540   6.472   3.731 -0.6681 -0.0592  0.2897
  112SAPE  H14R11669   0.443   6.430   3.762 -0.8275  0.9826  1.3095
  112SAPE  C21511670   0.642   6.459   3.815  0.0903 -0.1152 -0.0191
  112SAPE  H15R11671   0.624   6.408   3.910 -0.9753 -0.5125 -0.4180
  112SAPE  C21611672   0.783   6.503   3.784  0.6154 -0.1814  0.3125
  112SAPE  H16R11673   0.807   6.486   3.677 -0.7807 -3.3778  0.3953
  112SAPE  H16S11674   0.859   6.444   3.839  0.0846  1.4775  3.0185
  112SAPE  C21711675   0.807   6.652   3.823  0.1287  0.5052 -0.1488
  112SAPE  H17R11676   0.737   6.718   3.768  0.9397  0.0921 -1.7522
  112SAPE  H17S11677   0.914   6.669   3.799  1.1778 -2.4426  1.8176
  112SAPE  C21811678   0.788   6.673   3.981  0.3296 -0.8142 -0.2330
  112SAPE  H18R11679   0.841   6.593   4.037  0.1644 -0.5336  0.3287
  112SAPE  H18S11680   0.679   6.663   4.003 -0.0858 -0.6066 -2.0482
  112SAPE  C21911681   0.839   6.816   4.017 -0.0108 -0.0279  0.3082
  112SAPE  H19R11682   0.777   6.898   3.974 -1.3335  0.7512  3.3439
  112SAPE  H19S11683   0.941   6.827   3.975 -0.9931 -1.4891 -2.7358
  112SAPE  C22011684   0.827   6.833   4.168 -0.3075 -1.4640 -1.0466
  112SAPE  H20R11685   0.865   6.935   4.190  0.9666 -2.3190  0.9912
  112SAPE  H20S11686   0.905   6.767   4.211 -0.2059 -0.5574  0.2336
  112SAPE  H20T11687   0.722   6.806   4.193  0.0030 -2.8744 -1.1489
  112SAPE   C3311688   0.827   5.482   2.677  0.6290 -0.0662 -0.4799
  112SAPE   H3X11689   0.902   5.563   2.681 -0.6568  1.1152  2.0530
  112SAPE   H3Y11690   0.874   5.418   2.599  1.5729  0.5038 -0.3962
  112SAPE   C3411691   0.815   5.397   2.806 -0.0153  0.9139 -0.1380
  112SAPE   H4X11692   0.741   5.314   2.807 -0.1399  0.9040  3.1950
  112SAPE   H4Y11693   0.787   5.478   2.877 -0.3577  1.1785 -0.5715
  112SAPE   C3511694   0.948   5.345   2.859  0.3131  0.0106 -0.3521
  112SAPE   H5X11695   1.025   5.424   2.854  0.6144 -0.2285  0.2984
  112SAPE   H5Y11696   0.973   5.258   2.795  0.7684  1.2055 -1.8485
  112SAPE   C3611697   0.948   5.302   3.000 -0.0117 -0.0141 -0.5259
  112SAPE   H6X11698   1.051   5.262   3.011  1.0254  1.9871 -2.1819
  112SAPE   H6Y11699   0.871   5.222   3.005 -0.2109  0.2442  0.9783
  112SAPE   C3711700   0.916   5.416   3.099 -0.3946 -0.6671  0.1496
  112SAPE   H7X11701   0.822   5.470   3.077 -0.1182 -0.0489  0.4595
  112SAPE   H7Y11702   1.000   5.487   3.086 -0.4900 -0.8426 -1.5738
  112SAPE   C3811703   0.908   5.361   3.236  0.1620  0.6772  0.8116
  112SAPE   H8X11704   0.996   5.294   3.241 -0.5917 -0.6023 -1.6487
  112SAPE   H8Y11705   0.834   5.279   3.236  1.5824 -0.6402  1.1463
  112SAPE   C3911706   0.909   5.458   3.355  0.6408  0.5464 -0.7006
  112SAPE   H9X11707   0.817   5.520   3.349 -0.0405 -0.3353  0.1664
  112SAPE   H9Y11708   0.995   5.528   3.344 -0.4798  1.8548 -1.4655
  112SAPE  C31011709   0.909   5.383   3.488  0.2310  0.2370 -0.1739
  112SAPE  H10X11710   1.007   5.338   3.513  1.5379  2.4976 -0.8926
  112SAPE  H10Y11711   0.829   5.308   3.472 -0.9646  1.4128  0.1293
  112SAPE  C31111712   0.860   5.479   3.599 -0.7173 -0.5021  0.0843
  112SAPE  H11X11713   0.784   5.543   3.550  0.9575  1.6573  0.1382
  112SAPE  H11Y11714   0.947   5.546   3.618 -0.6815 -0.9131  1.4447
  112SAPE  C31211715   0.819   5.414   3.724 -0.1123 -0.0736  0.3065
  112SAPE  H12X11716   0.901   5.350   3.762 -0.9106 -1.5059 -0.3235
  112SAPE  H12Y11717   0.730   5.349   3.709 -0.6107  0.6870 -0.0935
  112SAPE  C31311718   0.759   5.498   3.840 -0.4521 -0.2274  0.3053
  112SAPE  H13X11719   0.727   5.435   3.926 -1.5309  1.8199  1.4976
  112SAPE  H13Y11720   0.670   5.558   3.808 -1.7126 -1.3445  1.5946
  112SAPE  C31411721   0.863   5.602   3.898  0.5167  0.5717  0.4339
  112SAPE  H14X11722   0.881   5.673   3.814 -0.0828 -1.9502 -1.9869
  112SAPE  H14Y11723   0.962   5.551   3.899  0.5918  0.1317 -4.2017
  112SAPE  C31511724   0.805   5.670   4.021 -0.4079  0.0649  0.5683
  112SAPE  H15X11725   0.700   5.696   3.994 -0.1982  0.4925  0.1519
  112SAPE  H15Y11726   0.869   5.754   4.054  0.0398  0.4541 -1.1993
  112SAPE  C31611727   0.807   5.587   4.151  0.1212 -0.4904  0.1888
  112SAPE  H16X11728   0.914   5.579   4.181  0.9188 -0.0685 -2.2559
  112SAPE  H16Y11729   0.760   5.487   4.138  0.1687 -0.4799 -0.0756
  112SAPE  C31711730   0.730   5.646   4.268  0.2196 -0.0656 -0.3060
  112SAPE  H17X11731   0.633   5.681   4.228  0.8564  0.0433 -1.8030
  112SAPE  H17Y11732   0.791   5.731   4.306  0.9241 -2.0899  3.6985
  112SAPE  C31811733   0.715   5.555   4.385  0.0741  0.1253 -0.0921
  112SAPE  H18X11734   0.817   5.520   4.413 -0.5633  0.2020  2.5387
  112SAPE  H18Y11735   0.639   5.475   4.379  1.2705 -1.1378  0.8509
  112SAPE  H18Z11736   0.681   5.619   4.469 -1.8434 -2.2134  1.0517
  113SAPE     N11737   1.439   4.608   2.479  0.2914  0.2293 -0.2604
  113SAPE   HN111738   1.460   4.662   2.393 -4.2417  1.9778 -0.5499
  113SAPE   HN211739   1.512   4.602   2.553 -1.6187  3.4343  2.1356
  113SAPE   HN311740   1.417   4.509   2.457 -0.4720  0.6545 -1.4762
  113SAPE   C1211741   1.335   4.688   2.562  0.2829  0.5141 -0.2714
  113SAPE  H12A11742   1.360   4.795   2.547  0.6745  0.4002 -0.4346
  113SAPE  H12B11743   1.347   4.653   2.666  1.5836  2.6144  0.3342
  113SAPE   C1111744   1.191   4.654   2.518 -0.0382 -0.4689 -0.2594
  113SAPE  H11A11745   1.120   4.708   2.584 -0.3612 -0.7215 -0.3966
  113SAPE  H11B11746   1.172   4.547   2.542 -1.9446  0.2100  1.4854
  113SAPE     P11747   1.101   4.809   2.329 -0.1278  0.1756  0.0176
  113SAPE   O1311748   1.169   4.926   2.391  0.1178  1.0421  0.0639
  113SAPE   O1411749   1.083   4.801   2.182  0.0180 -0.0656  0.1461
  113SAPE   O1211750   1.168   4.677   2.378 -0.2834  0.1458 -0.1102
  113SAPE   O1111751   0.965   4.797   2.393 -0.3599 -0.2346 -0.4108
  113SAPE    C111752   0.864   4.895   2.381  0.6007 -0.4516  0.4849
  113SAPE    HA11753   0.888   4.976   2.308 -0.8534 -0.0173  0.4582
  113SAPE    HB11754   0.767   4.850   2.351  2.1638 -2.2588 -2.3415
  113SAPE    C211755   0.842   4.961   2.516  0.3213 -0.1890 -0.1805
  113SAPE    HS11756   0.934   5.007   2.559 -0.7636  0.6808  1.2868
  113SAPE   O2111757   0.802   4.854   2.601 -0.4789 -0.0591  0.5514
  113SAPE   C2111758   0.815   4.892   2.724  0.0685  0.2497  0.5532
  113SAPE   O2211759   0.861   5.000   2.769 -0.5095  0.1340 -0.0908
  113SAPE   C2211760   0.738   4.786   2.811  0.6689  0.4274  0.6689
  113SAPE   H2R11761   0.703   4.843   2.899 -0.3477 -0.2321  0.7088
  113SAPE   H2S11762   0.645   4.752   2.760  1.1973 -0.2243  0.1100
  113SAPE    C311763   0.733   5.075   2.510  0.1470  1.2421 -0.0902
  113SAPE    HX11764   0.780   5.152   2.444 -1.2001  1.7326 -0.5071
  113SAPE    HY11765   0.725   5.110   2.615 -0.6983  1.9647 -0.3743
  113SAPE   O3111766   0.607   5.021   2.458 -0.4163  0.2318 -0.0042
  113SAPE   C3111767   0.520   4.974   2.549  0.6204 -0.7004  0.4078
  113SAPE   O3211768   0.542   4.964   2.666 -0.1051 -0.7898  0.0893
  113SAPE   C3211769   0.390   4.925   2.478 -0.6545  0.0248  0.1355
  113SAPE   H2X11770   0.436   4.876   2.389 -0.8465 -1.3395  0.7568
  113SAPE   H2Y11771   0.332   5.017   2.457 -0.3215 -0.1311 -1.6716
  113SAPE   C2311772   0.812   4.649   2.850  0.3053  0.5088 -0.3952
  113SAPE   H3R11773   0.890   4.664   2.928 -0.5630 -0.4868  0.6977
  113SAPE   H3S11774   0.843   4.600   2.755 -0.8614  1.7832 -1.4751
  113SAPE   C2411775   0.701   4.560   2.913 -0.5271 -0.0016  1.0236
  113SAPE   H4R11776   0.730   4.453   2.915 -1.2832 -0.3180 -1.7155
  113SAPE   H4S11777   0.603   4.554   2.862 -0.3767 -2.4245  0.8911
  113SAPE   C2511778   0.673   4.602   3.050  0.4412 -0.2640  0.1856
  113SAPE   H5R11779   0.592   4.676   3.058  1.7432  1.1252  1.1292
  113SAPE   C2611780   0.722   4.561   3.170 -0.5645  0.3581  1.0481
  113SAPE   H6R11781   0.673   4.610   3.255 -2.1522  0.9921 -0.1986
  113SAPE   C2711782   0.821   4.451   3.192 -0.0099  0.6011 -0.4616
  113SAPE   H7R11783   0.870   4.417   3.098 -1.2252 -0.1726 -0.8416
  113SAPE   H7S11784   0.760   4.366   3.231  0.5301  0.6098  0.4236
  113SAPE   C2811785   0.930   4.477   3.292 -0.0650  0.4389  0.6222
  113SAPE   H8R11786   1.030   4.484   3.248 -0.2352 -1.1382 -0.0798
  113SAPE   C2911787   0.906   4.484   3.428  0.2084  0.2029  0.3032
  113SAPE   H9R11788   0.983   4.497   3.505 -0.0024  1.7058  0.2993
  113SAPE  C21011789   0.768   4.457   3.483 -0.1463  0.3794  0.5207
  113SAPE  H10R11790   0.700   4.397   3.419 -0.8986  0.6560  1.0475
  113SAPE  H10S11791   0.726   4.557   3.510 -0.0222  0.7496 -0.6274
  113SAPE  C21111792   0.780   4.381   3.614  0.6226  0.7324  0.6104
  113SAPE  H11R11793   0.765   4.274   3.596  3.5476  0.4858 -0.9557
  113SAPE  C21211794   0.831   4.426   3.729  0.1992 -0.6662 -0.7310
  113SAPE  H12R11795   0.840   4.353   3.811  0.6186 -0.7041 -0.8061
  113SAPE  C21311796   0.893   4.559   3.761  0.2373  0.0555  0.0155
  113SAPE  H13R11797   0.942   4.605   3.672  1.7251  1.3054  1.4145
  113SAPE  H13S11798   0.984   4.538   3.822  1.2340  1.9956 -0.7055
  113SAPE  C21411799   0.800   4.657   3.818 -0.3117 -0.3930 -0.3494
  113SAPE  H14R11800   0.769   4.731   3.742 -2.4615  1.6827  2.3429
  113SAPE  C21511801   0.735   4.654   3.932  0.0317  0.0930  1.2248
  113SAPE  H15R11802   0.675   4.745   3.945  0.3459  0.9562 -2.3792
  113SAPE  C21611803   0.759   4.575   4.059  0.0447 -0.1963 -0.5230
  113SAPE  H16R11804   0.857   4.525   4.046  0.3403  0.1952  0.1409
  113SAPE  H16S11805   0.678   4.500   4.078  0.5825 -0.5056  0.6926
  113SAPE  C21711806   0.768   4.665   4.175 -0.0466 -0.5970  0.5821
  113SAPE  H17R11807   0.809   4.613   4.264 -1.6133  0.1876  1.8317
  113SAPE  H17S11808   0.669   4.701   4.213 -0.2139 -1.1529  0.6859
  113SAPE  C21811809   0.859   4.796   4.154  0.6838 -0.7297 -0.4827
  113SAPE  H18R11810   0.814   4.866   4.081 -1.7708  0.1448  1.7109
  113SAPE  H18S11811   0.956   4.763   4.111  0.6388  0.1509 -1.3033
  113SAPE  C21911812   0.882   4.868   4.291  0.5033 -0.0607 -0.3291
  113SAPE  H19R11813   0.965   4.941   4.279 -0.5392  1.3876  0.8860
  113SAPE  H19S11814   0.927   4.800   4.366  1.6295  1.2113  0.2027
  113SAPE  C22011815   0.762   4.937   4.349 -0.3201  0.5073  0.3781
  113SAPE  H20R11816   0.682   4.860   4.356 -0.2468  0.4543  0.6620
  113SAPE  H20S11817   0.725   5.012   4.275 -0.8586 -0.4440 -0.3432
  113SAPE  H20T11818   0.784   4.970   4.453  1.3544 -2.5829  1.1233
  113SAPE   C3311819   0.303   4.834   2.562 -0.6649  0.0486  0.5642
  113SAPE   H3X11820   0.365   4.765   2.622  2.9909  0.6381 -2.2326
  113SAPE   H3Y11821   0.233   4.777   2.497 -1.1698  1.2132  0.0359
  113SAPE   C3411822   0.215   4.923   2.653 -0.0491 -0.2474  0.2414
  113SAPE   H4X11823   0.145   4.981   2.590 -0.2821 -0.3328  0.4211
  113SAPE   H4Y11824   0.271   4.995   2.715  0.7207 -1.0574  0.5164
  113SAPE   C3511825   0.147   4.839   2.753 -0.2930 -0.1114 -0.1142
  113SAPE   H5X11826   0.138   4.737   2.708  0.2566  0.6273 -2.0014
  113SAPE   H5Y11827   0.051   4.883   2.787  0.4423  0.6926  0.9976
  113SAPE   C3611828   0.230   4.824   2.883 -0.3704  0.7381 -1.2457
  113SAPE   H6X11829   0.205   4.920   2.933 -3.0218  0.3666 -1.7285
  113SAPE   H6Y11830   0.338   4.818   2.856 -0.0789  0.8313 -0.1209
  113SAPE   C3711831   0.178   4.710   2.978  0.3711 -0.3621  0.0100
  113SAPE   H7X11832   0.162   4.617   2.918  0.5045 -0.1274 -0.3947
  113SAPE   H7Y11833   0.078   4.745   3.010 -1.2709 -0.4245 -4.3431
  113SAPE   C3811834   0.272   4.677   3.100 -0.2774  0.6912  0.1534
  113SAPE   H8X11835   0.366   4.642   3.052 -0.0714  2.6758 -0.9933
  113SAPE   H8Y11836   0.286   4.779   3.139 -0.4181  1.8668 -2.6289
  113SAPE   C3911837   0.215   4.570   3.200  0.1692  0.6285 -0.0879
  113SAPE   H9X11838   0.174   4.492   3.134 -0.7843  1.9865 -1.1517
  113SAPE   H9Y11839   0.133   4.620   3.257  0.1189  1.2489 -0.6989
  113SAPE  C31011840   0.312   4.496   3.295 -0.1050 -0.9466 -0.0163
  113SAPE  H10X11841   0.390   4.438   3.241  0.5730  0.8315 -1.0035
  113SAPE  H10Y11842   0.244   4.428   3.352 -0.6120  0.2397  0.8381
  113SAPE  C31111843   0.401   4.586   3.389 -0.6559  0.3432  0.3854
  113SAPE  H11X11844   0.438   4.669   3.325  2.5616 -0.5359  0.9012
  113SAPE  H11Y11845   0.487   4.531   3.433 -0.3611  0.9326  0.5607
  113SAPE  C31211846   0.319   4.651   3.501  0.2037  0.4398 -0.0843
  113SAPE  H12X11847   0.232   4.709   3.463 -1.0199  0.4091  2.4574
  113SAPE  H12Y11848   0.395   4.721   3.542 -0.2271  0.8239  0.0728
  113SAPE  C31311849   0.263   4.562   3.614 -0.2210 -0.0097 -0.1795
  113SAPE  H13X11850   0.200   4.486   3.563  1.2296  0.5412 -3.0368
  113SAPE  H13Y11851   0.203   4.612   3.693  3.2111  1.3794  1.7762
  113SAPE  C31411852   0.374   4.489   3.693 -0.3621  0.5162  0.0403
  113SAPE  H14X11853   0.464   4.554   3.690 -0.5862  0.9509  1.6693
  113SAPE  H14Y11854   0.404   4.406   3.625  0.8907  0.3367  0.7811
  113SAPE  C31511855   0.337   4.442   3.829 -0.0775 -0.1561 -0.5413
  113SAPE  H15X11856   0.250   4.373   3.831  1.2609 -1.9146  1.0713
  113SAPE  H15Y11857   0.324   4.536   3.887  1.5757 -0.6408  0.6782
  113SAPE  C31611858   0.450   4.363   3.895 -0.5111  0.0777  0.1582
  113SAPE  H16X11859   0.542   4.420   3.868  0.4103 -1.3678  0.1638
  113SAPE  H16Y11860   0.455   4.256   3.868  0.0661  0.4766 -1.4241
  113SAPE  C31711861   0.452   4.367   4.047  0.3672 -0.0758 -0.4825
  113SAPE  H17X11862   0.347   4.361   4.083 -0.9371  0.0150 -3.8937
  113SAPE  H17Y11863   0.493   4.465   4.079  1.8968 -1.4042  1.9592
  113SAPE  C31811864   0.536   4.259   4.107 -0.3324  0.6372  0.4439
  113SAPE  H18X11865   0.642   4.264   4.075  0.5056 -3.7137  1.8044
  113SAPE  H18Y11866   0.497   4.158   4.081  1.3315 -0.2277  1.1638
  113SAPE  H18Z11867   0.537   4.267   4.218  0.9498  2.5989  0.3374
  114SAPE     N11868   1.779   6.824   2.041 -1.0798 -0.2741 -0.4616
  114SAPE   HN111869   1.769   6.850   1.941 -0.8755  1.3105 -0.0937
  114SAPE   HN211870   1.853   6.881   2.088 -0.9097  0.1242 -1.1999
  114SAPE   HN311871   1.816   6.727   2.050 -1.4781 -0.3139  1.0699
  114SAPE   C1211872   1.651   6.826   2.133 -0.4935 -0.3183 -0.1175
  114SAPE  H12A11873   1.584   6.746   2.096 -0.8806 -0.1648  0.2476
  114SAPE  H12B11874   1.602   6.921   2.106  1.0132  1.5080  3.0277
  114SAPE   C1111875   1.677   6.801   2.286  0.0712  0.2374  0.4019
  114SAPE  H11A11876   1.584   6.789   2.346 -0.0756 -0.4269  0.0427
  114SAPE  H11B11877   1.725   6.895   2.322  0.4187 -0.0889  0.8008
  114SAPE     P11878   1.714   6.539   2.307  0.4624  0.4770 -0.2373
  114SAPE   O1311879   1.610   6.517   2.205 -0.4432 -0.6223 -0.1912
  114SAPE   O1411880   1.834   6.454   2.296 -0.0552  0.3865  0.0359
  114SAPE   O1211881   1.758   6.689   2.311 -0.0175  0.2945  0.5479
  114SAPE   O1111882   1.650   6.510   2.453 -0.2891  0.0155 -0.0775
  114SAPE    C111883   1.735   6.540   2.562  0.0170  0.3005 -0.7116
  114SAPE    HA11884   1.814   6.463   2.574 -0.6155 -0.0206  1.8617
  114SAPE    HB11885   1.783   6.640   2.554  0.0694  0.5244  1.7290
  114SAPE    C211886   1.646   6.551   2.685 -0.6256  0.2119  0.5395
  114SAPE    HS11887   1.711   6.602   2.759  1.5957 -1.2928 -0.2823
  114SAPE   O2111888   1.608   6.428   2.727  0.1024  0.5055 -0.1372
  114SAPE   C2111889   1.694   6.349   2.794  0.7111 -0.1517  0.0117
  114SAPE   O2211890   1.811   6.369   2.818  0.3187 -0.2331 -0.0046
  114SAPE   C2211891   1.635   6.206   2.802  0.0218  0.4636 -0.0642
  114SAPE   H2R11892   1.677   6.155   2.713 -0.5165  1.6797 -1.0390
  114SAPE   H2S11893   1.681   6.160   2.892  0.8755  2.7928  0.7533
  114SAPE    C311894   1.518   6.630   2.663  0.3606 -0.1954 -0.0034
  114SAPE    HX11895   1.457   6.582   2.583 -0.3159  0.9931 -0.2276
  114SAPE    HY11896   1.560   6.725   2.624  0.2347  0.8291  2.2055
  114SAPE   O3111897   1.450   6.658   2.789  0.0957 -0.3073  0.0224
  114SAPE   C3111898   1.352   6.585   2.819 -0.8219  0.0537 -0.3589
  114SAPE   O3211899   1.307   6.492   2.757 -0.2530  0.5584 -0.0083
  114SAPE   C3211900   1.289   6.631   2.950  0.1995 -0.6802 -0.2930
  114SAPE   H2X11901   1.256   6.736   2.933  0.8048 -0.1601  1.5159
  114SAPE   H2Y11902   1.372   6.635   3.024 -1.1995  0.9428  1.3046
  114SAPE   C2311903   1.483   6.191   2.810 -0.2142 -0.0425  0.4430
  114SAPE   H3R11904   1.447   6.090   2.781 -0.0170  0.1101 -0.3561
  114SAPE   H3S11905   1.442   6.254   2.728  1.6242  1.0940  0.3416
  114SAPE   C2411906   1.414   6.215   2.950 -0.1739  0.2576 -0.1887
  114SAPE   H4R11907   1.312   6.244   2.917  0.4973  0.7965 -1.9243
  114SAPE   H4S11908   1.462   6.306   2.992  0.4540 -0.4351  0.6372
  114SAPE   C2511909   1.416   6.096   3.045 -0.2822 -0.4936 -0.0280
  114SAPE   H5R11910   1.362   6.008   3.006  1.5728 -1.8701  0.3609
  114SAPE   C2611911   1.466   6.095   3.172  0.0347 -0.0167 -0.3519
  114SAPE   H6R11912   1.472   5.994   3.216  3.0370  1.5075  3.2593
  114SAPE   C2711913   1.553   6.189   3.241  0.7809  0.4967 -0.0303
  114SAPE   H7R11914   1.610   6.256   3.173 -0.5067  0.3421 -1.3048
  114SAPE   H7S11915   1.639   6.129   3.275  0.3412 -0.8518 -1.1722
  114SAPE   C2811916   1.493   6.264   3.350 -0.0776  0.2477 -0.2674
  114SAPE   H8R11917   1.446   6.361   3.331  1.0959  1.1701  1.2627
  114SAPE   C2911918   1.525   6.230   3.477 -0.1523  0.0710  0.0283
  114SAPE   H9R11919   1.472   6.282   3.559  2.2894  1.4455  0.8336
  114SAPE  C21011920   1.617   6.117   3.532 -0.0967 -0.5016 -0.3681
  114SAPE  H10R11921   1.650   6.144   3.635 -1.6892  1.7062 -0.3873
  114SAPE  H10S11922   1.712   6.122   3.474  1.0073  3.5022  1.4494
  114SAPE  C21111923   1.556   5.980   3.526 -0.3116 -0.3744  0.5609
  114SAPE  H11R11924   1.520   5.941   3.430 -1.4319  0.7410  0.5034
  114SAPE  C21211925   1.538   5.903   3.634  0.3048 -0.0868 -0.0905
  114SAPE  H12R11926   1.500   5.802   3.616 -1.5636  0.2304  1.7662
  114SAPE  C21311927   1.573   5.923   3.778  0.4668 -0.4004  0.5364
  114SAPE  H13R11928   1.499   5.859   3.829 -0.7384 -1.2710 -2.1727
  114SAPE  H13S11929   1.557   6.031   3.801  0.9835  0.1190 -1.3503
  114SAPE  C21411930   1.713   5.879   3.813  0.0434 -0.9883 -0.4162
  114SAPE  H14R11931   1.775   5.843   3.730 -1.0407 -1.9571 -0.8275
  114SAPE  C21511932   1.755   5.861   3.936 -0.3385 -0.1319  0.4855
  114SAPE  H15R11933   1.861   5.838   3.951 -0.3788  0.5809  2.1049
  114SAPE  C21611934   1.683   5.914   4.060  0.7888 -0.3576  0.6356
  114SAPE  H16R11935   1.584   5.863   4.059  1.0753 -0.9259 -1.0869
  114SAPE  H16S11936   1.664   6.020   4.033  1.9702 -0.5332 -1.0180
  114SAPE  C21711937   1.754   5.911   4.192  0.2535  0.0470  0.8776
  114SAPE  H17R11938   1.853   5.960   4.181 -0.8702  2.1335 -0.5897
  114SAPE  H17S11939   1.765   5.802   4.214 -3.0160 -0.3908  0.7954
  114SAPE  C21811940   1.676   5.955   4.310 -0.6750  0.6876  0.8517
  114SAPE  H18R11941   1.594   5.881   4.324  0.8189 -1.4789 -1.0628
  114SAPE  H18S11942   1.642   6.060   4.298  0.5700  0.8889 -1.5224
  114SAPE  C21911943   1.753   5.942   4.442 -0.3943  0.2682 -0.4949
  114SAPE  H19R11944   1.685   5.961   4.527 -0.8072 -2.4438 -0.1098
  114SAPE  H19S11945   1.828   6.022   4.457 -2.6782  2.0238  2.4008
  114SAPE  C22011946   1.820   5.800   4.476  0.5664 -0.3135 -0.5581
  114SAPE  H20R11947   1.881   5.814   4.568 -0.5228  0.6966  0.0391
  114SAPE  H20S11948   1.890   5.769   4.396  2.1320 -1.1717  1.0777
  114SAPE  H20T11949   1.735   5.730   4.491  1.1360 -0.7016  1.1427
  114SAPE   C3311950   1.181   6.540   2.999  0.0555 -0.0869  0.0356
  114SAPE   H3X11951   1.191   6.432   2.972 -1.2778 -1.5089  4.3441
  114SAPE   H3Y11952   1.080   6.570   2.964  0.3715  0.7222 -0.2031
  114SAPE   C3411953   1.174   6.540   3.154  0.2405  0.1153 -0.4400
  114SAPE   H4X11954   1.128   6.636   3.184  2.0822  1.3725 -1.4230
  114SAPE   H4Y11955   1.273   6.531   3.203  0.5379 -0.8008 -1.1679
  114SAPE   C3511956   1.081   6.424   3.201 -0.5442  0.1139 -0.6013
  114SAPE   H5X11957   1.112   6.322   3.169 -0.5738  0.3156 -1.2914
  114SAPE   H5Y11958   0.983   6.447   3.154  0.3470  2.2086 -1.5430
  114SAPE   C3611959   1.044   6.431   3.351 -0.0498  0.2251 -0.2803
  114SAPE   H6X11960   0.963   6.357   3.369  0.4892 -0.5924 -1.1444
  114SAPE   H6Y11961   1.014   6.538   3.360  4.9773  1.7669  2.5222
  114SAPE   C3711962   1.164   6.423   3.451  1.1038  0.0139 -0.8294
  114SAPE   H7X11963   1.249   6.489   3.426  1.1389  0.7113  0.9616
  114SAPE   H7Y11964   1.203   6.319   3.448 -0.9560 -0.8707  0.3523
  114SAPE   C3811965   1.115   6.434   3.589  0.1732  0.3753 -0.6113
  114SAPE   H8X11966   1.046   6.349   3.605  0.6444 -0.3167 -2.0393
  114SAPE   H8Y11967   1.047   6.521   3.600 -0.4741 -0.2806  0.8299
  114SAPE   C3911968   1.227   6.441   3.695 -0.2130  0.5771 -0.3643
  114SAPE   H9X11969   1.293   6.526   3.670  1.5195 -0.6264 -0.0294
  114SAPE   H9Y11970   1.294   6.353   3.695 -1.3854 -0.5632  3.9391
  114SAPE  C31011971   1.159   6.447   3.832  0.3058  1.0690 -0.3683
  114SAPE  H10X11972   1.097   6.357   3.852  0.2038  1.1578 -0.2871
  114SAPE  H10Y11973   1.092   6.534   3.845 -1.8402 -0.1607 -2.5457
  114SAPE  C31111974   1.275   6.449   3.937 -0.7339 -0.7110  0.0022
  114SAPE  H11X11975   1.225   6.448   4.037  1.3485 -0.0197  1.1191
  114SAPE  H11Y11976   1.337   6.541   3.934  0.3761 -1.4526 -0.4776
  114SAPE  C31211977   1.368   6.331   3.938 -0.5370  0.3142  0.3170
  114SAPE  H12X11978   1.449   6.372   3.873  1.4442 -2.8260  0.5866
  114SAPE  H12Y11979   1.316   6.252   3.880  1.7729 -0.4939 -0.7769
  114SAPE  C31311980   1.421   6.288   4.080 -0.1075 -0.2857  0.5724
  114SAPE  H13X11981   1.464   6.379   4.128 -1.3344 -0.0830  1.3273
  114SAPE  H13Y11982   1.504   6.213   4.079  0.2455  0.0355  2.5414
  114SAPE  C31411983   1.320   6.231   4.179 -0.2931 -0.2127 -0.4059
  114SAPE  H14X11984   1.260   6.321   4.207 -0.6775 -0.9192  1.1236
  114SAPE  H14Y11985   1.370   6.194   4.270  2.3430  0.1738 -1.5975
  114SAPE  C31511986   1.222   6.126   4.129  0.3768 -0.3580 -0.0421
  114SAPE  H15X11987   1.179   6.160   4.033  1.6547 -0.0278 -0.5276
  114SAPE  H15Y11988   1.145   6.116   4.208  0.8426  2.6865  0.9422
  114SAPE  C31611989   1.289   5.990   4.105 -0.1466  0.2284  0.3299
  114SAPE  H16X11990   1.341   5.965   4.200 -0.1721  0.7129  0.4710
  114SAPE  H16Y11991   1.377   6.002   4.038 -0.9897  1.3084 -0.6164
  114SAPE  C31711992   1.184   5.886   4.072 -0.2454 -0.1435  0.4202
  114SAPE  H17X11993   1.145   5.900   3.968  0.2377 -1.2665  0.0798
  114SAPE  H17Y11994   1.095   5.896   4.137 -1.1635 -3.3913 -0.1694
  114SAPE  C31811995   1.238   5.739   4.081  0.0248 -0.1147 -0.0145
  114SAPE  H18X11996   1.313   5.715   4.003 -0.3082 -1.7570  0.1492
  114SAPE  H18Y11997   1.161   5.659   4.074  0.2950 -0.5215  1.4193
  114SAPE  H18Z11998   1.299   5.728   4.173  1.3881 -0.8945 -0.9657
  115SAPE     N11999   1.052   0.340   2.631  0.5789 -0.5412 -0.1184
  115SAPE   HN112000   0.992   0.421   2.605 -0.0925 -0.1412  2.3945
  115SAPE   HN212001   1.003   0.289   2.707 -0.3367 -2.3146 -1.7894
  115SAPE   HN312002   1.140   0.383   2.666  0.0998 -0.8532  1.5551
  115SAPE   C1212003   1.080   0.241   2.514  0.1433 -0.2986 -0.1564
  115SAPE  H12A12004   0.987   0.180   2.513  0.2669 -0.4825 -0.9490
  115SAPE  H12B12005   1.179   0.202   2.545  0.6931 -0.3248 -1.8784
  115SAPE   C1112006   1.099   0.326   2.385  0.3405 -0.0338 -0.3222
  115SAPE  H11A12007   0.996   0.362   2.367  0.6173  0.5475 -0.7798
  115SAPE  H11B12008   1.122   0.272   2.291 -0.2147 -0.9123  0.0396
  115SAPE     P12009   1.241   0.530   2.298  0.1344  0.3008  0.2166
  115SAPE   O1312010   1.303   0.456   2.184  0.0125  0.4704  0.2780
  115SAPE   O1412011   1.125   0.609   2.249 -0.9714  0.1072  0.0313
  115SAPE   O1212012   1.195   0.430   2.408 -0.3617 -0.5879 -0.9295
  115SAPE   O1112013   1.352   0.621   2.361  0.2149 -0.1011 -0.2341
  115SAPE    C112014   1.478   0.569   2.397  0.6211 -0.8678  0.2639
  115SAPE    HA12015   1.517   0.500   2.319  1.5483 -0.4673  0.3605
  115SAPE    HB12016   1.537   0.663   2.397  0.3433 -0.6591 -1.2591
  115SAPE    C212017   1.484   0.489   2.533  0.2628  0.1497  0.1552
  115SAPE    HS12018   1.402   0.415   2.521 -1.7616  2.4628 -1.3211
  115SAPE   O2112019   1.464   0.579   2.645  0.4253 -0.9017 -0.2425
  115SAPE   C2112020   1.349   0.562   2.713  0.7835  0.3028  0.1149
  115SAPE   O2212021   1.266   0.472   2.701  0.0301 -0.5150  0.3201
  115SAPE   C2212022   1.336   0.669   2.816 -0.2653 -0.1698 -0.2974
  115SAPE   H2R12023   1.419   0.643   2.886 -1.7371  0.6911  1.8923
  115SAPE   H2S12024   1.356   0.772   2.781 -0.4002  0.2205  0.7400
  115SAPE    C312025   1.619   0.410   2.540 -0.4824  0.0611  0.1029
  115SAPE    HX12026   1.699   0.480   2.510  0.8329 -1.0501  0.8901
  115SAPE    HY12027   1.623   0.328   2.465  0.6838  1.0511 -0.9579
  115SAPE   O3112028   1.640   0.365   2.674  0.4760 -0.1426 -0.6054
  115SAPE   C3112029   1.600   0.240   2.691 -0.1331  0.6062 -0.4669
  115SAPE   O3212030   1.525   0.178   2.615  0.4956 -0.3858 -0.3933
  115SAPE   C3212031   1.646   0.189   2.827  0.1366 -0.0443 -0.5839
  115SAPE   H2X12032   1.753   0.218   2.835 -0.0143  0.2108  0.7831
  115SAPE   H2Y12033   1.621   0.081   2.822  0.6819 -0.2987  1.1991
  115SAPE   C2312034   1.200   0.673   2.888 -0.0610 -0.1733 -0.3070
  115SAPE   H3R12035   1.178   0.576   2.938 -0.3002 -0.2675 -0.5976
  115SAPE   H3S12036   1.112   0.698   2.826 -0.1319  0.2924 -0.0254
  115SAPE   C2412037   1.205   0.777   3.002  0.0318  0.1224 -0.5984
  115SAPE   H4R12038   1.246   0.871   2.961  1.5623  1.0478  2.7086
  115SAPE   H4S12039   1.288   0.756   3.072  0.1684  3.1080  0.2565
  115SAPE   C2512040   1.072   0.806   3.053  0.1706 -0.2835 -0.4796
  115SAPE   H5R12041   1.013   0.864   2.981 -0.9284  1.6594  1.8701
  115SAPE   C2612042   1.011   0.774   3.168 -0.1128  0.2829 -0.2570
  115SAPE   H6R12043   0.903   0.793   3.181 -0.4451  0.0755 -2.3461
  115SAPE   C2712044   1.073   0.682   3.279  0.5084  0.1783 -0.2030
  115SAPE   H7R12045   1.120   0.595   3.229 -0.9065  0.7886 -2.7308
  115SAPE   H7S12046   0.984   0.651   3.338  2.4596 -4.2695  0.8096
  115SAPE   C2812047   1.179   0.748   3.361 -0.6384 -0.1017 -0.1518
  115SAPE   H8R12048   1.276   0.734   3.311 -0.8987 -0.0379 -0.6843
  115SAPE   C2912049   1.159   0.798   3.483  0.9343 -0.9777  0.6258
  115SAPE   H9R12050   1.236   0.845   3.547 -0.3189  0.7196  0.9631
  115SAPE  C21012051   1.027   0.810   3.556  0.1402 -0.2637  0.0259
  115SAPE  H10R12052   0.946   0.850   3.491 -0.6803  1.1897  1.8451
  115SAPE  H10S12053   1.020   0.884   3.639 -0.8455 -1.2411  0.8524
  115SAPE  C21112054   0.973   0.680   3.612  0.4571  0.5675 -0.4928
  115SAPE  H11R12055   1.042   0.595   3.617  0.7393  0.8628  1.5364
  115SAPE  C21212056   0.858   0.675   3.686  0.1747  0.0114  0.2927
  115SAPE  H12R12057   0.825   0.576   3.722  2.0735 -0.8030 -0.1160
  115SAPE  C21312058   0.764   0.791   3.709  0.0396  0.3959 -0.0148
  115SAPE  H13R12059   0.831   0.879   3.694  0.9501 -0.4421 -0.9280
  115SAPE  H13S12060   0.720   0.790   3.811 -1.0412  2.4582 -0.3859
  115SAPE  C21412061   0.648   0.795   3.608  0.7110 -0.5039 -0.0653
  115SAPE  H14R12062   0.673   0.860   3.523  0.7241  1.4281  1.3565
  115SAPE  C21512063   0.526   0.740   3.630  0.4040 -0.1116  0.2540
  115SAPE  H15R12064   0.448   0.743   3.551 -0.2245  4.0859  0.7524
  115SAPE  C21612065   0.486   0.676   3.759  0.2806 -0.2724  0.2256
  115SAPE  H16R12066   0.575   0.626   3.803  0.3177 -2.1991 -1.8654
  115SAPE  H16S12067   0.404   0.602   3.745 -1.4122  1.5165  0.2962
  115SAPE  C21712068   0.440   0.785   3.850  0.2901 -0.6786 -0.3392
  115SAPE  H17R12069   0.340   0.817   3.812  0.7615 -0.1923 -1.1854
  115SAPE  H17S12070   0.492   0.883   3.845  1.4754 -1.3566 -2.3093
  115SAPE  C21812071   0.434   0.752   4.000  0.3921 -0.8161  0.5697
  115SAPE  H18R12072   0.539   0.738   4.034  0.3516 -1.2282  0.5238
  115SAPE  H18S12073   0.388   0.653   4.021 -3.7359  1.3382  2.9934
  115SAPE  C21912074   0.378   0.864   4.092  0.1482 -0.2122  0.2018
  115SAPE  H19R12075   0.268   0.879   4.084  0.2559  0.4766 -0.0287
  115SAPE  H19S12076   0.431   0.959   4.071  1.5094 -1.4674 -2.4797
  115SAPE  C22012077   0.399   0.838   4.243 -0.5131  0.0541 -0.2492
  115SAPE  H20R12078   0.343   0.746   4.270 -2.9905  1.6155  0.2512
  115SAPE  H20S12079   0.346   0.926   4.285 -0.1534  0.0892  0.1380
  115SAPE  H20T12080   0.508   0.831   4.262 -0.2822 -2.2119 -1.9728
  115SAPE   C3312081   1.553   0.251   2.934 -1.0511  0.3444 -0.4308
  115SAPE   H3X12082   1.563   0.186   3.024  0.6067  0.6315 -0.3788
  115SAPE   H3Y12083   1.448   0.251   2.899 -1.8582 -1.9104  1.6914
  115SAPE   C3412084   1.587   0.395   2.972  0.6138 -0.9498 -0.4141
  115SAPE   H4X12085   1.562   0.454   2.881 -0.5084 -0.0595  0.4489
  115SAPE   H4Y12086   1.693   0.422   2.989  1.0812 -1.4211 -2.3512
  115SAPE   C3512087   1.495   0.464   3.078  0.9777  0.3027  0.5019
  115SAPE   H5X12088   1.389   0.442   3.054  1.8437 -1.0850 -2.5947
  115SAPE   H5Y12089   1.498   0.574   3.064 -1.2983  0.4022  0.4145
  115SAPE   C3612090   1.534   0.432   3.226  0.0293 -0.2506 -0.4521
  115SAPE   H6X12091   1.640   0.463   3.240 -0.7404  2.0755  0.8084
  115SAPE   H6Y12092   1.525   0.321   3.228 -2.5356 -0.1103 -0.5716
  115SAPE   C3712093   1.449   0.511   3.336 -0.6759  0.4743  0.0477
  115SAPE   H7X12094   1.346   0.471   3.332 -0.5221  0.1753 -1.5647
  115SAPE   H7Y12095   1.457   0.618   3.307  3.4965  0.7432  1.4768
  115SAPE   C3812096   1.511   0.483   3.477 -0.8839 -0.2052  0.1171
  115SAPE   H8X12097   1.620   0.504   3.476 -1.1410  1.2886 -0.9793
  115SAPE   H8Y12098   1.488   0.378   3.503 -1.3016  0.2554  1.7504
  115SAPE   C3912099   1.442   0.561   3.594 -0.2004 -0.6071  0.0943
  115SAPE   H9X12100   1.334   0.546   3.575 -0.4311  1.2576 -0.2931
  115SAPE   H9Y12101   1.462   0.669   3.579 -2.5027  0.4863  3.6901
  115SAPE  C31012102   1.492   0.534   3.738 -0.1120 -0.1329 -0.2227
  115SAPE  H10X12103   1.602   0.550   3.748 -0.0426 -0.6739 -0.0622
  115SAPE  H10Y12104   1.473   0.425   3.746  0.8508 -0.3917 -1.1741
  115SAPE  C31112105   1.420   0.615   3.852  0.6575 -0.2627  0.4313
  115SAPE  H11X12106   1.439   0.723   3.837  0.5258 -0.6083 -2.9454
  115SAPE  H11Y12107   1.465   0.581   3.948  1.1760 -1.5006 -0.2332
  115SAPE  C31212108   1.270   0.581   3.866  0.0073 -0.3468  0.7263
  115SAPE  H12X12109   1.272   0.470   3.875 -1.2913 -0.2683  2.4250
  115SAPE  H12Y12110   1.216   0.587   3.769 -0.0991  2.6154  0.8950
  115SAPE  C31312111   1.184   0.643   3.976 -0.0496  0.0378  0.7870
  115SAPE  H13X12112   1.141   0.740   3.942  0.2859  0.2181  0.8760
  115SAPE  H13Y12113   1.248   0.664   4.063 -1.6151 -2.1366  2.5764
  115SAPE  C31412114   1.075   0.544   4.018  0.9973 -0.4032 -0.7629
  115SAPE  H14X12115   1.112   0.444   4.050  1.3789  0.4724  1.7700
  115SAPE  H14Y12116   0.996   0.529   3.942  2.6602 -0.2221 -2.5979
  115SAPE  C31512117   1.014   0.597   4.151 -0.3694  0.2639 -0.7404
  115SAPE  H15X12118   0.962   0.693   4.131  1.8858  1.8550  0.5734
  115SAPE  H15Y12119   1.104   0.632   4.205 -0.6350 -0.5017  0.2320
  115SAPE  C31612120   0.933   0.494   4.219  0.0454  0.0497 -0.5432
  115SAPE  H16X12121   1.010   0.433   4.270 -0.1386  0.6711  0.5131
  115SAPE  H16Y12122   0.888   0.438   4.134 -0.3188  0.0050 -0.3243
  115SAPE  C31712123   0.818   0.542   4.317 -0.3359 -0.6122  0.7916
  115SAPE  H17X12124   0.762   0.625   4.269  3.0221  2.9371  2.4324
  115SAPE  H17Y12125   0.872   0.595   4.399 -1.0914  1.4449  0.0290
  115SAPE  C31812126   0.730   0.435   4.366  0.4131 -0.6723  0.5059
  115SAPE  H18X12127   0.673   0.466   4.455 -1.5436 -1.8209 -0.2868
  115SAPE  H18Y12128   0.791   0.348   4.399 -1.4201 -2.6371 -1.0270
  115SAPE  H18Z12129   0.667   0.405   4.280  1.0403 -0.4029 -0.0581
  116SAPE     N12130   1.674   2.243   2.122  0.3928 -0.6544  0.6100
  116SAPE   HN112131   1.777   2.249   2.129  0.2403  2.9895  2.1304
  116SAPE   HN212132   1.624   2.288   2.202 -2.1520  1.8772 -2.1485
  116SAPE   HN312133   1.643   2.144   2.117 -0.4066 -0.5452  2.5651
  116SAPE   C1212134   1.634   2.322   1.997  0.5718  0.4257 -0.5785
  116SAPE  H12A12135   1.687   2.271   1.914 -0.0480  1.3001 -1.5474
  116SAPE  H12B12136   1.660   2.430   2.007 -2.1387  1.0602  0.5532
  116SAPE   C1112137   1.483   2.310   1.976 -0.5456 -0.3575  0.0185
  116SAPE  H11A12138   1.470   2.206   1.938  0.1595 -0.3711 -0.1936
  116SAPE  H11B12139   1.460   2.378   1.892  0.1809  0.1533  0.2318
  116SAPE     P12140   1.318   2.451   2.132 -0.0076  0.3706  0.4492
  116SAPE   O1312141   1.374   2.571   2.065 -0.2508 -0.1317  0.3010
  116SAPE   O1412142   1.179   2.402   2.100 -0.1516 -0.1098  0.3065
  116SAPE   O1212143   1.411   2.327   2.100 -0.7757 -0.1835  0.5953
  116SAPE   O1112144   1.330   2.469   2.290  0.8394  0.0418 -0.3150
  116SAPE    C112145   1.332   2.340   2.362  0.8421 -0.4817  0.0149
  116SAPE    HA12146   1.279   2.254   2.317  0.3713 -0.7048  0.9708
  116SAPE    HB12147   1.438   2.308   2.371  0.9180 -0.0219  0.8901
  116SAPE    C212148   1.269   2.342   2.503 -0.5262 -0.1720  0.0450
  116SAPE    HS12149   1.269   2.447   2.539  2.2294  0.1706 -0.7058
  116SAPE   O2112150   1.350   2.256   2.584 -0.0026  0.1186 -0.3322
  116SAPE   C2112151   1.469   2.307   2.638  0.4117 -0.4721  0.3776
  116SAPE   O2212152   1.524   2.412   2.596 -0.9427  0.8039  0.2367
  116SAPE   C2212153   1.511   2.216   2.747  0.7072  0.2622  0.4601
  116SAPE   H2R12154   1.423   2.153   2.774  0.0549  0.0999 -1.8225
  116SAPE   H2S12155   1.588   2.151   2.700  0.5032  0.8555 -0.7396
  116SAPE    C312156   1.113   2.303   2.500 -0.1630 -0.1832 -0.1107
  116SAPE    HX12157   1.108   2.204   2.450 -2.9237 -0.6454  0.9536
  116SAPE    HY12158   1.058   2.375   2.437 -2.3195 -0.4356  1.3975
  116SAPE   O3112159   1.060   2.274   2.637  0.4637 -1.0440 -0.0390
  116SAPE   C3112160   1.042   2.389   2.709  0.0133 -0.0673  0.5459
  116SAPE   O3212161   1.058   2.498   2.661  0.6165 -0.1014 -0.6361
  116SAPE   C3212162   0.999   2.360   2.853 -0.6289  0.2661  0.5689
  116SAPE   H2X12163   1.083   2.312   2.908 -1.8594 -2.3739  0.3098
  116SAPE   H2Y12164   0.918   2.284   2.842 -1.3387  1.2910 -2.2409
  116SAPE   C2312165   1.590   2.278   2.867 -0.7060  0.1363 -0.7000
  116SAPE   H3R12166   1.653   2.361   2.829  3.4890 -2.2198  0.5535
  116SAPE   H3S12167   1.648   2.200   2.920 -1.5379  0.9451  1.5357
  116SAPE   C2412168   1.508   2.323   2.988  0.2291 -0.3611  0.2503
  116SAPE   H4R12169   1.576   2.373   3.061  0.0585 -1.8505  1.4715
  116SAPE   H4S12170   1.464   2.239   3.046  0.3288 -0.0581  0.7692
  116SAPE   C2512171   1.405   2.420   2.941 -0.1770 -0.3107 -0.2890
  116SAPE   H5R12172   1.362   2.408   2.841  1.4464  0.1253 -1.0760
  116SAPE   C2612173   1.371   2.527   3.017  0.0036 -0.6429  0.7069
  116SAPE   H6R12174   1.294   2.592   2.974  2.0820  0.4241 -1.6719
  116SAPE   C2712175   1.420   2.571   3.146 -0.4325  0.1252 -0.4772
  116SAPE   H7R12176   1.474   2.667   3.131 -2.6867  1.4461 -0.5679
  116SAPE   H7S12177   1.490   2.495   3.187  0.0560 -0.9602 -3.0891
  116SAPE   C2812178   1.312   2.586   3.260 -0.1966 -0.0209 -0.2515
  116SAPE   H8R12179   1.221   2.639   3.228  0.9174  1.8962 -0.3853
  116SAPE   C2912180   1.300   2.537   3.389  0.2027  0.4294 -0.2731
  116SAPE   H9R12181   1.209   2.568   3.443 -2.0730  0.2209 -3.6700
  116SAPE  C21012182   1.410   2.467   3.466  0.2857 -0.3261  0.2099
  116SAPE  H10R12183   1.455   2.555   3.517  1.5479 -0.2613 -0.9386
  116SAPE  H10S12184   1.485   2.432   3.392  0.6038 -0.3497  0.5395
  116SAPE  C21112185   1.375   2.355   3.558 -0.0954 -0.0684 -0.5960
  116SAPE  H11R12186   1.348   2.266   3.500  1.0531 -0.0770 -1.1354
  116SAPE  C21212187   1.375   2.351   3.692  0.1311  0.1938 -0.4299
  116SAPE  H12R12188   1.330   2.260   3.736 -0.7209  0.2986 -1.0484
  116SAPE  C21312189   1.419   2.465   3.781  0.2892  0.2601 -0.3684
  116SAPE  H13R12190   1.387   2.431   3.882 -0.4660 -0.2067 -0.7573
  116SAPE  H13S12191   1.362   2.556   3.753  3.8345  2.4695 -1.0511
  116SAPE  C21412192   1.567   2.496   3.784 -0.1971  0.3182  0.3892
  116SAPE  H14R12193   1.615   2.489   3.685 -3.1162 -0.5948 -1.0736
  116SAPE  C21512194   1.638   2.519   3.897 -0.3306 -0.4950 -0.1411
  116SAPE  H15R12195   1.745   2.544   3.893 -0.1965 -1.1075 -0.4436
  116SAPE  C21612196   1.581   2.530   4.039 -0.6816  0.2911  0.0604
  116SAPE  H16R12197   1.625   2.455   4.108  2.0971  1.5007 -0.2584
  116SAPE  H16S12198   1.471   2.521   4.049 -0.7851 -0.6995 -1.4976
  116SAPE  C21712199   1.623   2.665   4.103  0.2057  0.6844  0.2280
  116SAPE  H17R12200   1.591   2.644   4.208  1.3204  0.2589  0.4916
  116SAPE  H17S12201   1.576   2.755   4.059  1.1994  0.3064 -1.7160
  116SAPE  C21812202   1.778   2.681   4.113 -0.2343 -0.3086 -0.3896
  116SAPE  H18R12203   1.825   2.687   4.013 -0.5824  2.4831 -0.4647
  116SAPE  H18S12204   1.819   2.596   4.171  1.7418  0.1380 -1.0514
  116SAPE  C21912205   1.821   2.803   4.196 -0.0112 -0.5255  0.4223
  116SAPE  H19R12206   1.770   2.823   4.293  1.0039 -0.6304  0.9897
  116SAPE  H19S12207   1.806   2.895   4.135  0.5302 -0.1592  0.8301
  116SAPE  C22012208   1.973   2.806   4.226  0.8855 -0.6317 -0.5145
  116SAPE  H20R12209   2.020   2.765   4.134  1.3781 -0.6368 -0.2632
  116SAPE  H20S12210   1.986   2.742   4.317 -0.7249 -0.2704  0.0038
  116SAPE  H20T12211   2.011   2.905   4.260 -0.1252 -0.6919  0.9098
  116SAPE   C3312212   0.957   2.481   2.939  0.1901  0.1051 -0.9122
  116SAPE   H3X12213   0.855   2.511   2.908 -0.2368  2.8341  2.4904
  116SAPE   H3Y12214   1.032   2.557   2.909  3.9032 -2.6775  0.5783
  116SAPE   C3412215   0.967   2.452   3.092 -0.4287  0.2643  0.5517
  116SAPE   H4X12216   1.068   2.415   3.120  0.3525  1.2160 -0.8984
  116SAPE   H4Y12217   0.896   2.368   3.106 -0.1198 -0.0304  0.3666
  116SAPE   C3512218   0.930   2.566   3.177 -0.6766 -0.5552 -0.1729
  116SAPE   H5X12219   0.829   2.604   3.152 -1.0390 -0.6799  1.0048
  116SAPE   H5Y12220   1.008   2.644   3.169 -0.8055 -0.6424 -3.5562
  116SAPE   C3612221   0.923   2.514   3.319  0.7886 -0.6595  0.4547
  116SAPE   H6X12222   1.017   2.476   3.364  2.2476  0.1860 -1.6808
  116SAPE   H6Y12223   0.851   2.430   3.324 -1.9445  1.4781 -0.5999
  116SAPE   C3712224   0.864   2.617   3.413  0.4791 -0.0161 -0.7006
  116SAPE   H7X12225   0.768   2.654   3.373 -0.0708 -0.7902 -0.1315
  116SAPE   H7Y12226   0.931   2.702   3.439 -0.2965 -0.3144  2.8106
  116SAPE   C3812227   0.830   2.562   3.547  0.9397  0.1188  0.4201
  116SAPE   H8X12228   0.919   2.507   3.585  0.6371 -0.3771  0.4216
  116SAPE   H8Y12229   0.758   2.477   3.545  3.1803 -1.9212  1.5341
  116SAPE   C3912230   0.764   2.662   3.649  1.1159 -0.4929  0.6568
  116SAPE   H9X12231   0.694   2.715   3.581  4.2576  1.7736 -1.0637
  116SAPE   H9Y12232   0.840   2.738   3.677  1.8523  0.4228 -3.2682
  116SAPE  C31012233   0.689   2.598   3.762  0.1833  1.3692  0.8478
  116SAPE  H10X12234   0.621   2.517   3.727  1.3879 -0.5960  2.7876
  116SAPE  H10Y12235   0.627   2.684   3.797 -1.5280  0.5487 -0.0276
  116SAPE  C31112236   0.779   2.545   3.874 -0.9357 -0.7050  0.4652
  116SAPE  H11X12237   0.812   2.627   3.941  0.0855 -0.7302  0.0107
  116SAPE  H11Y12238   0.859   2.488   3.823 -0.7002  0.2376 -0.2573
  116SAPE  C31212239   0.700   2.451   3.968  0.3804  0.2574 -0.0669
  116SAPE  H12X12240   0.765   2.405   4.046 -0.0842 -3.4883 -1.6596
  116SAPE  H12Y12241   0.662   2.371   3.902 -0.4851  0.1393  0.5543
  116SAPE  C31312242   0.591   2.518   4.043 -0.0794 -0.1159  0.2699
  116SAPE  H13X12243   0.517   2.563   3.974  0.6167  0.4222 -0.1382
  116SAPE  H13Y12244   0.646   2.593   4.104 -0.1676  2.2188 -2.3113
  116SAPE  C31412245   0.518   2.434   4.145  0.0539 -0.2426  0.4039
  116SAPE  H14X12246   0.587   2.382   4.215  1.7333  1.6764  0.2841
  116SAPE  H14Y12247   0.466   2.355   4.087  2.4208 -1.7654  0.2548
  116SAPE  C31512248   0.428   2.531   4.232 -0.1066  0.4172 -0.7563
  116SAPE  H15X12249   0.367   2.581   4.153  0.1978 -1.9576 -2.6126
  116SAPE  H15Y12250   0.483   2.618   4.273  0.7448 -0.2043 -0.5483
  116SAPE  C31612251   0.335   2.457   4.328  0.0565 -0.4856 -1.1830
  116SAPE  H16X12252   0.401   2.411   4.404  0.9159 -0.6677 -2.0180
  116SAPE  H16Y12253   0.263   2.387   4.280 -0.2673  0.1598 -1.6643
  116SAPE  C31712254   0.244   2.556   4.405 -0.7469  0.1022  0.4728
  116SAPE  H17X12255   0.176   2.599   4.328 -0.0754 -3.1436 -2.1579
  116SAPE  H17Y12256   0.315   2.625   4.455  0.3946 -0.6815 -0.0346
  116SAPE  C31812257   0.148   2.500   4.510 -0.3616  0.0454  0.6664
  116SAPE  H18X12258   0.194   2.433   4.586  1.0549 -1.1460 -1.1774
  116SAPE  H18Y12259   0.064   2.438   4.473  0.1864 -1.5524  1.9702
  116SAPE  H18Z12260   0.102   2.583   4.569 -0.5746  1.3918 -1.3039
  117SOPE     N12261   6.365   6.450   6.696  0.0141  0.2732 -0.1190
  117SOPE   HN112262   6.370   6.386   6.614 -1.0433 -0.0833  0.0749
  117SOPE   HN212263   6.264   6.452   6.722 -1.2046  0.6516 -4.2717
  117SOPE   HN312264   6.381   6.544   6.654 -0.3144  0.0555 -0.7442
  117SOPE   C1212265   6.467   6.413   6.790 -0.6491 -0.3475 -0.1100
  117SOPE  H12A12266   6.457   6.306   6.819 -2.2190 -0.0370  0.5874
  117SOPE  H12B12267   6.439   6.466   6.884  1.1949 -2.4295  1.7299
  117SOPE   C1112268   6.614   6.453   6.752  0.4360 -0.9245  0.3075
  117SOPE  H11A12269   6.642   6.378   6.676  1.5252 -0.0962 -0.1429
  117SOPE  H11B12270   6.688   6.446   6.835  1.2499  3.0085  0.1261
  117SOPE     P12271   6.694   6.698   6.748 -0.3533 -0.5360 -0.3669
  117SOPE   O1312272   6.834   6.681   6.701  0.1828  0.9967 -0.4505
  117SOPE   O1412273   6.672   6.721   6.897 -0.1807  0.4275 -0.2477
  117SOPE   O1212274   6.610   6.580   6.691 -0.0496 -0.1800 -0.0886
  117SOPE   O1112275   6.626   6.821   6.673 -0.3284 -0.3353 -0.1695
  117SOPE    C112276   6.517   6.898   6.723  0.2912 -0.6327  0.8193
  117SOPE    HA12277   6.547   7.004   6.720  0.4612 -0.7105 -0.8710
  117SOPE    HB12278   6.493   6.868   6.827  2.3513  1.6057  2.0329
  117SOPE    C212279   6.382   6.868   6.656  0.1887 -0.6798 -0.3923
  117SOPE    HS12280   6.353   6.764   6.683 -0.7312  0.5779  4.3455
  117SOPE   O2112281   6.391   6.890   6.514 -0.3663 -0.1853 -0.5414
  117SOPE   C2112282   6.420   6.791   6.442 -0.4544  0.2733  0.3487
  117SOPE   O2212283   6.432   6.675   6.475 -0.8547 -0.1273 -0.4695
  117SOPE   C2212284   6.433   6.842   6.298 -0.2822 -0.0766 -0.7175
  117SOPE   H2R12285   6.490   6.938   6.297  1.3829 -1.0340 -0.5110
  117SOPE   H2S12286   6.329   6.854   6.261 -0.1906 -0.5524 -1.1462
  117SOPE    C312287   6.274   6.956   6.715  0.1434  0.3295  0.5821
  117SOPE    HX12288   6.263   6.930   6.822 -0.5553  1.4584  0.8120
  117SOPE    HY12289   6.170   6.945   6.675  0.3257  1.4137 -0.2636
  117SOPE   O3112290   6.310   7.092   6.724  0.4535 -0.4576  0.2155
  117SOPE   C3112291   6.280   7.165   6.605 -0.4622  0.0620  1.0697
  117SOPE   O3212292   6.195   7.117   6.533 -0.2080 -0.1673  0.2461
  117SOPE   C3212293   6.355   7.290   6.585 -0.1807 -0.1100 -0.6394
  117SOPE   H2X12294   6.461   7.272   6.614  0.0558 -0.6227 -1.7602
  117SOPE   H2Y12295   6.305   7.369   6.646 -1.7866 -1.6574  0.1569
  117SOPE   C2312296   6.501   6.751   6.194 -0.4259 -0.0083 -0.2184
  117SOPE   H3R12297   6.464   6.647   6.206 -0.4371  0.2349  2.2879
  117SOPE   H3S12298   6.611   6.748   6.208 -0.5584  0.2168  0.9273
  117SOPE   C2412299   6.484   6.796   6.054 -0.2306  0.1786 -0.2345
  117SOPE   H4R12300   6.375   6.816   6.048 -0.2139  0.7691  1.1011
  117SOPE   H4S12301   6.548   6.885   6.038  0.9534 -0.4611  0.7691
  117SOPE   C2512302   6.527   6.688   5.955 -0.4002  0.2220 -0.3809
  117SOPE   H5R12303   6.636   6.669   5.961 -0.3464 -0.4569 -2.5562
  117SOPE   H5S12304   6.485   6.587   5.974 -0.4981  0.6482  1.9486
  117SOPE   C2612305   6.483   6.725   5.812  0.2166 -0.2355  0.0691
  117SOPE   H6R12306   6.462   6.630   5.757 -1.3487  0.6256 -0.9122
  117SOPE   H6S12307   6.397   6.794   5.796 -0.3267 -0.8154  0.4778
  117SOPE   C2712308   6.602   6.802   5.738  0.7119 -0.7855 -0.6258
  117SOPE   H7R12309   6.644   6.885   5.799 -0.7221  0.5996 -1.4389
  117SOPE   H7S12310   6.678   6.722   5.726  0.8860 -0.7379  0.0842
  117SOPE   C2812311   6.551   6.854   5.605 -0.0289  0.3098  0.7058
  117SOPE   H8R12312   6.470   6.926   5.630  0.4271  1.3446 -0.6888
  117SOPE   H8S12313   6.642   6.895   5.557  0.0540 -0.8217 -0.1523
  117SOPE   C2912314   6.478   6.753   5.510 -0.4126  0.3282  0.0429
  117SOPE   H9112315   6.369   6.742   5.520 -0.1734 -3.0413  0.2959
  117SOPE  C21012316   6.533   6.674   5.416  0.5310  0.5742 -0.1928
  117SOPE  H10112317   6.461   6.616   5.356  2.9376 -2.2372 -0.5731
  117SOPE  C21112318   6.680   6.654   5.395  0.5315 -0.0550 -0.8269
  117SOPE  H11R12319   6.696   6.545   5.400  1.4575  0.1325  2.1114
  117SOPE  H11S12320   6.735   6.685   5.487  2.5968 -1.2600 -1.6137
  117SOPE  C21212321   6.754   6.711   5.264 -0.8173  0.2496  0.0178
  117SOPE  H12R12322   6.845   6.654   5.238 -1.7376 -1.7354  1.0034
  117SOPE  H12S12323   6.788   6.814   5.290  0.8483 -0.1267 -0.5331
  117SOPE  C21312324   6.670   6.724   5.143  0.5022  0.0188  0.3055
  117SOPE  H13R12325   6.733   6.786   5.076  0.6684 -0.2836  0.1814
  117SOPE  H13S12326   6.584   6.793   5.161 -0.7968 -0.9971 -1.5860
  117SOPE  C21412327   6.642   6.596   5.060  0.1442  0.0418  0.4276
  117SOPE  H14R12328   6.575   6.624   4.976  2.6544  0.9795 -1.3717
  117SOPE  H14S12329   6.596   6.517   5.124  2.2893 -0.6203  1.2532
  117SOPE  C21512330   6.765   6.528   4.997  0.4256 -0.4695 -0.1212
  117SOPE  H15R12331   6.812   6.465   5.076  1.1331  1.2258  0.8585
  117SOPE  H15S12332   6.840   6.604   4.965 -0.2865  0.4862  0.4379
  117SOPE  C21612333   6.720   6.451   4.872 -0.9221 -0.9705  0.3464
  117SOPE  H16R12334   6.694   6.529   4.797  0.8430  0.8310  1.5146
  117SOPE  H16S12335   6.632   6.386   4.892 -0.3305 -1.1918  2.6121
  117SOPE  C21712336   6.843   6.374   4.806 -0.0613  0.1210 -1.0728
  117SOPE  H17R12337   6.814   6.311   4.719  0.8954  1.1355 -2.1640
  117SOPE  H17S12338   6.885   6.298   4.876 -0.7853  0.0107 -0.7502
  117SOPE  C21812339   6.957   6.463   4.750  0.4264  0.2751  0.0280
  117SOPE  H18R12340   6.913   6.549   4.696  1.8657  0.8777 -0.2225
  117SOPE  H18S12341   7.027   6.402   4.690  1.0241  1.3199 -0.3648
  117SOPE  H18T12342   7.016   6.508   4.833  0.0023 -1.4028  1.3030
  117SOPE   C3312343   6.360   7.333   6.439 -0.2533  0.3185  0.5638
  117SOPE   H3X12344   6.412   7.427   6.408 -1.0077 -0.1938 -2.5844
  117SOPE   H3Y12345   6.257   7.356   6.406  0.5184  0.4772 -2.0227
  117SOPE   C3412346   6.404   7.225   6.335 -0.6823 -0.0619 -0.2651
  117SOPE   H4X12347   6.342   7.134   6.347  0.7732 -0.9429  0.9913
  117SOPE   H4Y12348   6.512   7.199   6.344 -0.4547  0.8587 -0.2776
  117SOPE   C3512349   6.384   7.282   6.196 -0.6108  0.3434  0.9398
  117SOPE   H5X12350   6.423   7.385   6.181  0.8563 -0.1593  1.1325
  117SOPE   H5Y12351   6.274   7.279   6.176  0.0033 -3.3865 -3.2781
  117SOPE   C3612352   6.428   7.199   6.074 -0.0554  0.3677  0.4467
  117SOPE   H6X12353   6.365   7.107   6.078  2.3521 -1.3892  0.2337
  117SOPE   H6Y12354   6.536   7.176   6.083  0.1728  0.3507 -1.8072
  117SOPE   C3712355   6.415   7.273   5.938 -0.4642 -0.7997 -0.1257
  117SOPE   H7X12356   6.481   7.362   5.935 -3.3563  1.4653 -0.9815
  117SOPE   H7Y12357   6.314   7.304   5.905 -1.3156 -3.3021 -0.0722
  117SOPE   C3812358   6.462   7.192   5.814  0.5967 -0.0032 -0.3244
  117SOPE   H8X12359   6.385   7.114   5.799 -1.7342  2.2173 -0.5444
  117SOPE   H8Y12360   6.549   7.125   5.833 -0.8010 -1.9212 -0.3531
  117SOPE   C3912361   6.486   7.278   5.691 -0.8383  0.0070  0.0229
  117SOPE   H9X12362   6.571   7.346   5.712 -0.3959 -0.3978 -0.4617
  117SOPE   H9Y12363   6.400   7.347   5.675 -0.5193  0.2249 -0.7895
  117SOPE  C31012364   6.511   7.202   5.562 -0.1638 -0.7178  0.1796
  117SOPE  H10X12365   6.419   7.152   5.526 -0.7976 -1.8876  3.1513
  117SOPE  H10Y12366   6.594   7.128   5.577  1.2842  0.2979 -2.2559
  117SOPE  C31112367   6.572   7.286   5.444  0.0216 -0.1538 -0.6790
  117SOPE  H11X12368   6.666   7.337   5.474 -0.0267 -0.6306  0.3332
  117SOPE  H11Y12369   6.498   7.367   5.424 -1.3870 -1.5974 -1.6498
  117SOPE  C31212370   6.590   7.210   5.317  0.5845 -0.1197  0.6677
  117SOPE  H12X12371   6.499   7.147   5.301  2.1293 -2.7772  1.7439
  117SOPE  H12Y12372   6.670   7.135   5.335 -0.4233 -1.2102  0.8007
  117SOPE  C31312373   6.625   7.290   5.197  0.7551 -0.2003  0.0474
  117SOPE  H13X12374   6.670   7.383   5.238 -0.5781  0.3899  0.2302
  117SOPE  H13Y12375   6.532   7.328   5.149  1.5505  1.8429  0.0118
  117SOPE  C31412376   6.721   7.207   5.100 -0.3704  0.8432 -0.2343
  117SOPE  H14X12377   6.673   7.111   5.072 -2.8499  1.3300  1.9394
  117SOPE  H14Y12378   6.802   7.173   5.167 -2.3859 -1.0166  1.4339
  117SOPE  C31512379   6.780   7.298   4.988  0.1589 -0.0419  0.4253
  117SOPE  H15X12380   6.878   7.336   5.024 -0.4318 -0.4307  2.5600
  117SOPE  H15Y12381   6.714   7.382   4.958  1.4355  0.7192 -0.3314
  117SOPE  C31612382   6.811   7.212   4.862  0.0829 -0.1482  0.5886
  117SOPE  H16X12383   6.817   7.276   4.771 -4.5973  0.2986  0.3853
  117SOPE  H16Y12384   6.718   7.154   4.846  0.6627 -1.2033  0.9588
  117SOPE  C31712385   6.932   7.115   4.867  0.3479  0.1542 -0.3458
  117SOPE  H17X12386   6.922   7.052   4.958 -2.0474 -0.3650 -0.9065
  117SOPE  H17Y12387   7.027   7.172   4.878  0.1859  0.3121  0.2666
  117SOPE  C31812388   6.944   7.014   4.757 -0.1388 -0.3307 -0.7807
  117SOPE  H18X12389   6.962   7.067   4.662 -0.0362 -1.5562 -1.4696
  117SOPE  H18Y12390   6.846   6.962   4.749  1.0160 -2.9647  0.6066
  117SOPE  H18Z12391   7.025   6.941   4.780  1.3569  1.7433  1.0256
  118SOPE     N12392   6.394   1.365   6.528  0.0159  0.9317 -0.0616
  118SOPE   HN112393   6.340   1.278   6.547  1.0194  0.2850 -0.1299
  118SOPE   HN212394   6.472   1.347   6.462 -1.6327 -1.1294 -1.6195
  118SOPE   HN312395   6.433   1.401   6.617  1.4263 -2.0737  0.6638
  118SOPE   C1212396   6.302   1.454   6.454  0.3378 -0.1908  0.0877
  118SOPE  H12A12397   6.295   1.409   6.353  0.3956  1.1615 -0.5407
  118SOPE  H12B12398   6.348   1.554   6.439  0.1070 -0.2605 -1.1553
  118SOPE   C1112399   6.161   1.442   6.514  0.1819  0.6222  0.5461
  118SOPE  H11A12400   6.141   1.334   6.530  0.8896  0.1948 -1.2318
  118SOPE  H11B12401   6.085   1.456   6.434 -0.2321 -1.8543  0.4180
  118SOPE     P12402   6.045   1.632   6.640  0.0999 -0.2247  0.3035
  118SOPE   O1312403   6.068   1.694   6.770 -0.4486  0.4152 -0.8879
  118SOPE   O1412404   5.908   1.586   6.602 -0.2560 -0.0562  0.1247
  118SOPE   O1212405   6.142   1.512   6.637  0.2706 -0.1627  0.4316
  118SOPE   O1112406   6.094   1.733   6.530 -0.2490 -0.0762  0.6983
  118SOPE    C112407   6.216   1.806   6.538  0.0550 -0.1544  0.7999
  118SOPE    HA12408   6.272   1.801   6.442  2.5692  1.0664  2.1027
  118SOPE    HB12409   6.275   1.767   6.623 -0.1777 -1.1844  0.4949
  118SOPE    C212410   6.198   1.952   6.557 -0.1248 -0.1943  0.2708
  118SOPE    HS12411   6.107   1.980   6.612 -0.3806  2.2372 -1.2428
  118SOPE   O2112412   6.201   2.026   6.433 -0.5833 -0.5724 -0.0774
  118SOPE   C2112413   6.162   2.151   6.442  0.2875 -0.4925  0.7316
  118SOPE   O2212414   6.130   2.218   6.539 -1.0142  0.4796  0.3270
  118SOPE   C2212415   6.172   2.214   6.303  0.4625 -0.2590  0.1316
  118SOPE   H2R12416   6.157   2.137   6.225 -2.7939 -1.3615  1.6858
  118SOPE   H2S12417   6.281   2.234   6.294  0.6264 -1.6047 -1.2285
  118SOPE    C312418   6.313   2.008   6.649 -0.0199  0.0472  0.3183
  118SOPE    HX12419   6.312   1.947   6.742  0.9862  0.5569  0.6801
  118SOPE    HY12420   6.293   2.115   6.673 -0.1329  0.5002 -1.6335
  118SOPE   O3112421   6.447   1.997   6.597 -0.6310  0.0471  0.5414
  118SOPE   C3112422   6.496   2.088   6.508  1.1363  0.3777 -0.1404
  118SOPE   O3212423   6.452   2.200   6.495  0.0484  0.2864 -0.0814
  118SOPE   C3212424   6.612   2.022   6.435 -0.3822  0.7169  0.3784
  118SOPE   H2X12425   6.590   1.919   6.402  3.0630  0.2952 -0.9825
  118SOPE   H2Y12426   6.692   1.994   6.507 -1.1442 -3.3871 -0.1489
  118SOPE   C2312427   6.102   2.349   6.287  0.0793 -0.4954  0.2079
  118SOPE   H3R12428   6.133   2.419   6.367  1.0864 -0.0628 -0.5463
  118SOPE   H3S12429   5.997   2.327   6.317 -0.1893  2.7369  2.0698
  118SOPE   C2412430   6.105   2.403   6.142 -0.2957 -0.0771 -0.1420
  118SOPE   H4R12431   6.063   2.505   6.133 -1.3345 -0.3107  1.6143
  118SOPE   H4S12432   6.213   2.401   6.113  0.4284 -2.0516  2.2398
  118SOPE   C2512433   6.024   2.313   6.059 -0.7492  0.3753  0.4751
  118SOPE   H5R12434   6.035   2.203   6.073 -2.0295  0.2029  0.2624
  118SOPE   H5S12435   5.921   2.342   6.086 -0.5426  1.8836 -0.2616
  118SOPE   C2612436   6.053   2.343   5.910  0.0354 -0.5962  0.5192
  118SOPE   H6R12437   5.975   2.300   5.844  0.9397 -0.6126 -0.5633
  118SOPE   H6S12438   6.057   2.452   5.890 -1.0162 -0.3697  1.4321
  118SOPE   C2712439   6.185   2.279   5.860 -0.0803  0.4039  0.3256
  118SOPE   H7R12440   6.273   2.294   5.926 -0.2907 -3.3880  1.7420
  118SOPE   H7S12441   6.152   2.173   5.852  1.4760 -0.0510 -0.6052
  118SOPE   C2812442   6.214   2.309   5.710 -0.0222 -0.2258 -0.0663
  118SOPE   H8R12443   6.299   2.246   5.676  0.8620  0.6962  0.3805
  118SOPE   H8S12444   6.121   2.272   5.662  0.3140 -1.7768  0.4071
  118SOPE   C2912445   6.251   2.453   5.678 -0.4555  0.1654  0.3359
  118SOPE   H9112446   6.290   2.505   5.767  0.0565  0.8456 -0.2829
  118SOPE  C21012447   6.239   2.514   5.557  0.5356  0.3287  0.0213
  118SOPE  H10112448   6.238   2.623   5.549 -2.7652  0.3844 -0.2641
  118SOPE  C21112449   6.209   2.457   5.429  0.4647 -0.0355 -0.1780
  118SOPE  H11R12450   6.100   2.466   5.410  0.6480 -0.2452 -1.4395
  118SOPE  H11S12451   6.230   2.348   5.421 -0.6752 -0.1799 -1.6780
  118SOPE  C21212452   6.291   2.523   5.313 -0.1569 -0.5366 -0.4288
  118SOPE  H12R12453   6.399   2.494   5.314  0.0665  0.2826  0.1435
  118SOPE  H12S12454   6.291   2.633   5.327  1.1641 -0.2836 -2.1165
  118SOPE  C21312455   6.234   2.498   5.172  0.5051  0.5973  0.4039
  118SOPE  H13R12456   6.249   2.388   5.167 -0.9230  0.2595  2.4484
  118SOPE  H13S12457   6.299   2.549   5.098  1.4570  1.2517  1.6536
  118SOPE  C21412458   6.091   2.535   5.148  0.3706 -0.4246 -0.6022
  118SOPE  H14R12459   6.078   2.645   5.153  4.0614  0.1104  1.6062
  118SOPE  H14S12460   6.037   2.491   5.234 -2.2995  0.8000 -1.5635
  118SOPE  C21512461   6.035   2.487   5.011 -0.5412  0.3899 -0.2178
  118SOPE  H15R12462   5.934   2.443   5.025 -0.2393  0.3877  2.3425
  118SOPE  H15S12463   6.099   2.401   4.981  0.7247  0.8228  1.1567
  118SOPE  C21612464   6.043   2.592   4.903  0.4509 -0.2379 -0.0263
  118SOPE  H16R12465   6.147   2.630   4.893  0.8775 -1.5360 -0.8089
  118SOPE  H16S12466   5.988   2.685   4.930  1.5926  0.2176  0.7934
  118SOPE  C21712467   5.987   2.544   4.766 -0.8924  0.4259  0.2078
  118SOPE  H17R12468   5.878   2.532   4.781 -0.8758  0.9442  0.7877
  118SOPE  H17S12469   6.029   2.443   4.748 -1.1328  0.6401 -1.7433
  118SOPE  C21812470   6.001   2.641   4.647 -0.4017  0.0913  0.5075
  118SOPE  H18R12471   5.953   2.593   4.559  0.4098  0.7115 -0.2927
  118SOPE  H18S12472   6.104   2.674   4.626 -0.9681  1.5852 -0.0464
  118SOPE  H18T12473   5.945   2.730   4.683 -1.5201  0.4779 -1.9896
  118SOPE   C3312474   6.687   2.095   6.316  0.2022  0.1570 -0.1891
  118SOPE   H3X12475   6.793   2.062   6.311  0.2684 -0.3601  2.7440
  118SOPE   H3Y12476   6.695   2.205   6.328  1.3126  0.3425 -2.2801
  118SOPE   C3412477   6.616   2.059   6.181 -0.4776  0.3400 -0.4300
  118SOPE   H4X12478   6.643   1.953   6.161  0.2390  0.3571  0.4075
  118SOPE   H4Y12479   6.650   2.120   6.094  0.4234  0.0108 -0.3217
  118SOPE   C3512480   6.464   2.078   6.175  0.0089 -0.0602  0.0050
  118SOPE   H5X12481   6.450   2.188   6.169  1.4119  0.0864 -0.9418
  118SOPE   H5Y12482   6.406   2.037   6.261 -1.1257 -0.5640 -0.9822
  118SOPE   C3612483   6.404   2.031   6.035  0.1229 -0.3471 -0.3404
  118SOPE   H6X12484   6.460   2.078   5.951  1.5490 -0.6058  0.4347
  118SOPE   H6Y12485   6.300   2.068   6.037  0.4365  0.7085 -1.7410
  118SOPE   C3712486   6.394   1.879   6.038  0.1446  0.4936 -0.1625
  118SOPE   H7X12487   6.337   1.853   6.130  1.2502 -0.4623  0.2736
  118SOPE   H7Y12488   6.491   1.826   6.050  0.4165  0.0828 -3.3450
  118SOPE   C3812489   6.315   1.824   5.911 -0.1997  0.5977  0.4952
  118SOPE   H8X12490   6.240   1.903   5.891  2.8643  3.1748 -1.9751
  118SOPE   H8Y12491   6.269   1.726   5.936 -2.0397  1.1615 -0.5011
  118SOPE   C3912492   6.414   1.806   5.791 -0.6075 -0.1881  0.5172
  118SOPE   H9X12493   6.499   1.743   5.824 -0.1024 -0.0459 -0.4576
  118SOPE   H9Y12494   6.447   1.910   5.770 -1.3100 -0.0114  0.2420
  118SOPE  C31012495   6.362   1.752   5.652  0.0876 -0.1492  0.1675
  118SOPE  H10X12496   6.297   1.832   5.611 -0.6781 -1.1126 -0.5338
  118SOPE  H10Y12497   6.296   1.663   5.656 -2.3020  1.4984 -0.2243
  118SOPE  C31112498   6.476   1.738   5.554  0.1951  0.2756  0.4461
  118SOPE  H11X12499   6.552   1.668   5.595 -0.5031  1.0728  3.2687
  118SOPE  H11Y12500   6.517   1.841   5.551 -1.3355  1.0355  2.8239
  118SOPE  C31212501   6.435   1.688   5.411  0.1615  0.4776  0.1484
  118SOPE  H12X12502   6.372   1.762   5.356 -0.2759 -0.1108 -0.1608
  118SOPE  H12Y12503   6.370   1.598   5.422  1.5505 -0.7090 -0.8148
  118SOPE  C31312504   6.558   1.661   5.323  0.4272  0.0180 -0.2655
  118SOPE  H13X12505   6.636   1.612   5.385  0.4011  0.3616  0.0417
  118SOPE  H13Y12506   6.594   1.761   5.289  1.4876  0.2928  1.4862
  118SOPE  C31412507   6.532   1.560   5.215 -0.2044  0.4822 -0.0053
  118SOPE  H14X12508   6.472   1.595   5.128 -0.4334  1.9605  0.7229
  118SOPE  H14Y12509   6.479   1.471   5.257  1.6962 -1.1572 -0.9012
  118SOPE  C31512510   6.661   1.504   5.146  0.2054  0.1230  0.0768
  118SOPE  H15X12511   6.712   1.442   5.223 -1.5071  0.8689  1.9259
  118SOPE  H15Y12512   6.718   1.584   5.094 -2.2154  1.5503 -0.5156
  118SOPE  C31612513   6.623   1.414   5.032  0.1815  0.1535  0.2250
  118SOPE  H16X12514   6.568   1.467   4.952 -0.3892 -0.9384 -0.1268
  118SOPE  H16Y12515   6.544   1.347   5.073  0.1530 -0.1422 -0.3155
  118SOPE  C31712516   6.737   1.341   4.961 -0.1041  0.0909  0.4912
  118SOPE  H17X12517   6.698   1.296   4.867  0.2064 -1.4415  1.0593
  118SOPE  H17Y12518   6.779   1.254   5.017 -1.3469 -1.5544 -1.0267
  118SOPE  C31812519   6.861   1.419   4.913  0.0826 -0.3669 -0.8150
  118SOPE  H18X12520   6.925   1.459   4.994  1.5571 -0.4848 -1.8815
  118SOPE  H18Y12521   6.830   1.502   4.845 -0.0304  1.2100  1.0754
  118SOPE  H18Z12522   6.930   1.358   4.852  1.4448  0.8477 -0.5461
  119SOPE     N12523   2.378   2.852   6.723  0.1064 -0.2896  0.9633
  119SOPE   HN112524   2.289   2.892   6.757 -1.4135 -2.5158 -0.0945
  119SOPE   HN212525   2.453   2.910   6.765 -1.0765  0.6399  1.8429
  119SOPE   HN312526   2.380   2.858   6.619 -0.2698  1.1016  1.0265
  119SOPE   C1212527   2.378   2.713   6.777  0.7299  0.1196  0.2833
  119SOPE  H12A12528   2.366   2.708   6.888 -0.7760  1.1960  0.1864
  119SOPE  H12B12529   2.464   2.648   6.749  0.0379 -0.7215  0.0701
  119SOPE   C1112530   2.259   2.631   6.724 -0.1704  0.4193  0.4425
  119SOPE  H11A12531   2.240   2.614   6.615 -1.1743  0.3834  0.6144
  119SOPE  H11B12532   2.171   2.697   6.733  0.8546  2.0618 -0.7990
  119SOPE     P12533   2.297   2.372   6.762 -0.3477 -0.3163 -0.4635
  119SOPE   O1312534   2.254   2.270   6.861  0.3392 -0.9772 -0.5186
  119SOPE   O1412535   2.445   2.387   6.736 -0.1111  0.8847 -0.0888
  119SOPE   O1212536   2.236   2.515   6.801  0.2060  0.9134  0.0343
  119SOPE   O1112537   2.210   2.350   6.629 -0.3112  0.2453  0.2304
  119SOPE    C112538   2.252   2.276   6.518  0.6847 -0.1665  0.6246
  119SOPE    HA12539   2.169   2.210   6.484  2.2347 -1.3240 -1.1207
  119SOPE    HB12540   2.337   2.209   6.546 -0.7515 -1.7123  1.4760
  119SOPE    C212541   2.279   2.367   6.396  0.6740  0.4265  0.5796
  119SOPE    HS12542   2.361   2.431   6.433  2.5769 -0.1231 -2.3369
  119SOPE   O2112543   2.163   2.447   6.354  0.2447  0.4824 -0.1374
  119SOPE   C2112544   2.195   2.564   6.287 -0.1207  0.1278 -0.0341
  119SOPE   O2212545   2.303   2.610   6.290  0.3890  0.4792  0.2667
  119SOPE   C2212546   2.066   2.642   6.260  0.4905  0.0565  0.4894
  119SOPE   H2R12547   2.025   2.661   6.361  1.6380  0.8792  0.8195
  119SOPE   H2S12548   1.996   2.578   6.202  0.1314  0.1955  0.7684
  119SOPE    C312549   2.338   2.281   6.282 -0.7423 -0.5821  0.3064
  119SOPE    HX12550   2.427   2.228   6.321  0.2807  0.9940  0.2060
  119SOPE    HY12551   2.383   2.348   6.205 -3.4595 -0.3997 -1.2616
  119SOPE   O3112552   2.249   2.186   6.228 -0.3706  0.2324 -0.5764
  119SOPE   C3112553   2.163   2.226   6.131 -0.5967  0.5607  0.2885
  119SOPE   O3212554   2.167   2.334   6.080  0.0091 -0.1793 -0.4109
  119SOPE   C3212555   2.047   2.124   6.111  0.0129 -0.3491 -0.1318
  119SOPE   H2X12556   1.958   2.170   6.158 -1.0607 -0.8313 -1.6404
  119SOPE   H2Y12557   2.061   2.033   6.174 -0.6824 -1.4073 -1.4741
  119SOPE   C2312558   2.092   2.778   6.182  0.2134  0.2257  0.1159
  119SOPE   H3R12559   2.176   2.821   6.240  0.6348 -0.3571 -0.0504
  119SOPE   H3S12560   2.011   2.853   6.192 -0.1142 -0.3769  2.6905
  119SOPE   C2412561   2.115   2.749   6.027  0.1713 -0.1769 -0.1190
  119SOPE   H4R12562   2.162   2.650   6.011  0.3508 -0.1430  0.1872
  119SOPE   H4S12563   2.011   2.735   5.991 -0.4894 -2.1550  2.2983
  119SOPE   C2512564   2.198   2.841   5.949 -0.2556 -1.0169 -0.6206
  119SOPE   H5R12565   2.153   2.940   5.972  0.3419 -1.0916  0.9841
  119SOPE   H5S12566   2.302   2.852   5.984 -0.1655 -2.2159 -0.4621
  119SOPE   C2612567   2.205   2.791   5.801  1.0723 -0.6461  0.2577
  119SOPE   H6R12568   2.285   2.715   5.794  1.0597 -0.5143 -1.6154
  119SOPE   H6S12569   2.114   2.749   5.752 -0.1443  2.8119 -0.7963
  119SOPE   C2712570   2.260   2.900   5.704  0.3085 -0.8844 -1.0777
  119SOPE   H7R12571   2.216   2.998   5.732  1.6359 -0.9268  1.4135
  119SOPE   H7S12572   2.368   2.901   5.726  0.5843 -0.4043 -2.3530
  119SOPE   C2812573   2.239   2.879   5.552  0.5538 -0.0613  0.4898
  119SOPE   H8R12574   2.270   2.773   5.539 -0.9704 -0.2760 -1.9110
  119SOPE   H8S12575   2.131   2.899   5.539  1.0883  4.0549  0.8116
  119SOPE   C2912576   2.331   2.967   5.467  0.2605  0.3776 -0.2382
  119SOPE   H9112577   2.430   2.980   5.513 -0.2838 -0.3739  1.2199
  119SOPE  C21012578   2.302   3.027   5.355 -0.1902  0.1148 -0.1153
  119SOPE  H10112579   2.388   3.066   5.298  1.5731  0.4846  2.6109
  119SOPE  C21112580   2.184   3.017   5.271 -0.1078  0.6330  0.2698
  119SOPE  H11R12581   2.115   3.096   5.309 -0.1251  0.1402  1.3014
  119SOPE  H11S12582   2.134   2.918   5.274  0.1459  0.5187  0.9130
  119SOPE  C21212583   2.204   3.037   5.123  0.9168  0.5825 -0.3143
  119SOPE  H12R12584   2.232   3.144   5.114 -0.1339  0.8702 -0.2729
  119SOPE  H12S12585   2.113   3.021   5.062  1.5802 -2.5386 -0.6780
  119SOPE  C21312586   2.317   2.954   5.053  0.3005  0.8351  0.0748
  119SOPE  H13R12587   2.310   2.844   5.071  1.1047  0.3821 -2.0902
  119SOPE  H13S12588   2.416   2.993   5.083  0.6210 -1.0487  1.6955
  119SOPE  C21412589   2.317   2.963   4.898 -0.9501  0.3385 -0.3897
  119SOPE  H14R12590   2.225   2.914   4.860 -1.9449  1.9514 -0.1037
  119SOPE  H14S12591   2.401   2.902   4.858 -0.5013  0.0933  0.8962
  119SOPE  C21512592   2.330   3.102   4.832  0.0731 -0.0128 -0.1322
  119SOPE  H15R12593   2.419   3.149   4.878 -1.3388  1.3054  1.4051
  119SOPE  H15S12594   2.240   3.164   4.851  0.1545  0.3511 -0.8867
  119SOPE  C21612595   2.347   3.106   4.674  0.4505  0.2100  0.0723
  119SOPE  H16R12596   2.436   3.044   4.653 -1.1635 -2.5800  0.9125
  119SOPE  H16S12597   2.358   3.210   4.635 -3.0617  1.1992  1.3316
  119SOPE  C21712598   2.228   3.047   4.595  0.7195  0.1451 -0.3500
  119SOPE  H17R12599   2.147   3.094   4.654  2.3072 -0.1185  2.2125
  119SOPE  H17S12600   2.226   2.936   4.609  0.6264  0.1491 -0.3326
  119SOPE  C21812601   2.236   3.075   4.446 -0.2256 -0.4522  0.4988
  119SOPE  H18R12602   2.324   3.018   4.408  0.0770  0.5231 -0.3183
  119SOPE  H18S12603   2.260   3.181   4.422  0.5554 -1.0302 -1.4384
  119SOPE  H18T12604   2.144   3.041   4.395  0.4072 -0.3976 -0.7093
  119SOPE   C3312605   2.018   2.091   5.964 -0.1252  0.0778 -0.1564
  119SOPE   H3X12606   2.040   2.181   5.902  0.8704  0.1725  0.3098
  119SOPE   H3Y12607   1.913   2.061   5.945  0.8525 -2.8020 -1.5550
  119SOPE   C3412608   2.117   1.985   5.916 -0.5474  0.2619 -0.0952
  119SOPE   H4X12609   2.092   1.889   5.966  1.5413 -1.3483 -1.9600
  119SOPE   H4Y12610   2.223   2.007   5.939 -0.3336 -0.1770 -0.6525
  119SOPE   C3512611   2.101   1.960   5.757  1.1009  0.3856 -0.3744
  119SOPE   H5X12612   1.992   1.964   5.737  0.8110 -1.4862  0.6737
  119SOPE   H5Y12613   2.127   1.854   5.734  1.0008  0.5620 -1.3444
  119SOPE   C3612614   2.204   2.031   5.679 -0.0161 -0.5322  0.1899
  119SOPE   H6X12615   2.301   1.983   5.699  1.0361  0.9718 -1.0398
  119SOPE   H6Y12616   2.217   2.136   5.712 -0.4052 -0.0039 -1.2333
  119SOPE   C3712617   2.180   2.027   5.532 -0.2197 -0.3382  0.9453
  119SOPE   H7X12618   2.124   2.117   5.498 -1.0244 -1.2857 -0.3233
  119SOPE   H7Y12619   2.116   1.940   5.506 -0.4386  0.1292 -0.1552
  119SOPE   C3812620   2.312   2.019   5.450 -0.1890  0.0173  0.9513
  119SOPE   H8X12621   2.361   1.923   5.480  0.8545  0.8705  2.0806
  119SOPE   H8Y12622   2.375   2.102   5.489  0.6309  0.8653 -1.9844
  119SOPE   C3912623   2.291   2.047   5.301  0.0191  0.0399  0.1271
  119SOPE   H9X12624   2.215   1.971   5.273  1.3590 -1.7066  1.0334
  119SOPE   H9Y12625   2.380   2.013   5.244  1.8078  2.4528  1.3172
  119SOPE  C31012626   2.259   2.195   5.272  0.1896 -0.1911 -0.3813
  119SOPE  H10X12627   2.326   2.262   5.330  1.2579 -1.2255 -0.3989
  119SOPE  H10Y12628   2.158   2.236   5.296  0.0072  1.3098 -3.2831
  119SOPE  C31112629   2.280   2.237   5.126 -0.4731  0.4072  0.5466
  119SOPE  H11X12630   2.379   2.205   5.088 -1.0045  0.0008 -0.5453
  119SOPE  H11Y12631   2.280   2.348   5.112 -1.2207  0.0312 -3.5307
  119SOPE  C31212632   2.180   2.171   5.031 -0.1540 -0.0238 -0.2636
  119SOPE  H12X12633   2.078   2.203   5.060 -1.3779  0.5120 -4.4040
  119SOPE  H12Y12634   2.179   2.061   5.049  1.4926 -0.0752 -0.2822
  119SOPE  C31312635   2.202   2.208   4.887 -0.0763  0.4867 -0.1480
  119SOPE  H13X12636   2.196   2.319   4.885  0.3877  0.5928  1.6435
  119SOPE  H13Y12637   2.139   2.150   4.817  0.8833  0.0652 -0.6812
  119SOPE  C31412638   2.337   2.164   4.824  0.3077  0.2764  0.3956
  119SOPE  H14X12639   2.361   2.058   4.848  1.4998  0.4805  0.1703
  119SOPE  H14Y12640   2.413   2.228   4.875  1.1204  1.0711 -1.7073
  119SOPE  C31512641   2.351   2.196   4.669 -0.3911  0.6353  0.4180
  119SOPE  H15X12642   2.459   2.206   4.645 -0.7803 -1.6413 -3.0020
  119SOPE  H15Y12643   2.314   2.300   4.654 -0.8505  0.4532  0.2763
  119SOPE  C31612644   2.293   2.081   4.585 -0.1132 -0.6782 -0.1470
  119SOPE  H16X12645   2.184   2.093   4.605 -0.2471 -0.0336 -1.2108
  119SOPE  H16Y12646   2.319   1.981   4.627  1.8988 -1.1996 -2.3969
  119SOPE  C31712647   2.339   2.081   4.437  0.6395 -0.8153  0.5839
  119SOPE  H17X12648   2.323   2.186   4.405  1.9219 -1.0411 -0.9319
  119SOPE  H17Y12649   2.269   2.011   4.387  1.0403 -0.3440 -0.6769
  119SOPE  C31812650   2.484   2.028   4.406  0.4987  0.0612 -0.1725
  119SOPE  H18X12651   2.546   2.065   4.490  0.3238  1.8467 -0.8021
  119SOPE  H18Y12652   2.524   2.078   4.315  1.5733 -1.3233 -0.4993
  119SOPE  H18Z12653   2.497   1.917   4.411 -0.5656 -0.0926 -0.4583
  120SOPE     N12654   1.970   5.521   6.839 -0.0583 -0.9979  0.5401
  120SOPE   HN112655   1.994   5.420   6.825 -0.2705 -1.0324  0.4295
  120SOPE   HN212656   2.028   5.550   6.920  0.8077 -3.3981  0.8765
  120SOPE   HN312657   1.873   5.534   6.873 -0.1400  0.8229 -0.3030
  120SOPE   C1212658   1.980   5.590   6.700 -0.8954  0.2994 -0.0682
  120SOPE  H12A12659   1.944   5.695   6.714 -1.6136 -0.1372  1.5494
  120SOPE  H12B12660   1.917   5.532   6.630 -0.8256  0.1111  0.0267
  120SOPE   C1112661   2.122   5.596   6.632 -0.9866  0.6945 -0.7829
  120SOPE  H11A12662   2.101   5.658   6.542 -2.2927  0.0529 -0.9391
  120SOPE  H11B12663   2.162   5.501   6.591  1.4816  1.8606 -1.2716
  120SOPE     P12664   2.342   5.586   6.781  0.3015 -0.0338  0.2213
  120SOPE   O1312665   2.306   5.479   6.881 -0.4382  0.1184  0.1792
  120SOPE   O1412666   2.429   5.693   6.832 -0.1747 -0.0231  0.0948
  120SOPE   O1212667   2.211   5.651   6.731  0.5748  0.5538 -0.1316
  120SOPE   O1112668   2.408   5.520   6.650 -0.0875 -0.3896  1.0208
  120SOPE    C112669   2.435   5.611   6.543 -0.4080  0.1843 -1.0105
  120SOPE    HA12670   2.524   5.671   6.568 -1.6504  2.1825 -1.1508
  120SOPE    HB12671   2.356   5.685   6.517  0.1943  1.9149  1.6814
  120SOPE    C212672   2.478   5.543   6.412  0.1368  0.2514  0.4628
  120SOPE    HS12673   2.476   5.620   6.332  0.0966 -0.2459 -0.0292
  120SOPE   O2112674   2.392   5.432   6.381 -0.1716 -0.5833  0.0293
  120SOPE   C2112675   2.277   5.447   6.323 -0.1292  0.3691  0.3263
  120SOPE   O2212676   2.232   5.550   6.280 -0.7548 -0.3366  0.3884
  120SOPE   C2212677   2.212   5.314   6.313 -0.0927  0.6245 -0.1816
  120SOPE   H2R12678   2.149   5.302   6.404  0.3536  4.3510  0.7855
  120SOPE   H2S12679   2.285   5.230   6.311 -0.8528 -0.1726  2.0801
  120SOPE    C312680   2.622   5.500   6.412 -0.2428 -0.1156 -0.4392
  120SOPE    HX12681   2.622   5.440   6.506 -4.0001 -1.1352 -0.9344
  120SOPE    HY12682   2.684   5.592   6.419 -0.6246  0.0385  1.7479
  120SOPE   O3112683   2.649   5.416   6.298  0.2828 -0.5037  0.2498
  120SOPE   C3112684   2.784   5.407   6.271 -0.0710 -0.4300 -0.5135
  120SOPE   O3212685   2.867   5.471   6.327 -0.4723  0.4895 -0.0081
  120SOPE   C3212686   2.799   5.310   6.160 -0.0865  0.1713 -0.4694
  120SOPE   H2X12687   2.730   5.326   6.074  1.2987 -0.0314 -1.6444
  120SOPE   H2Y12688   2.771   5.211   6.202 -0.6380  1.4068  2.3056
  120SOPE   C2312689   2.114   5.300   6.198 -0.2694  0.5057  0.3298
  120SOPE   H3R12690   2.035   5.377   6.210 -0.0866  0.8689 -0.7381
  120SOPE   H3S12691   2.053   5.207   6.204 -0.0445  0.4066  1.4664
  120SOPE   C2412692   2.171   5.312   6.052  0.4313 -0.0246 -0.6534
  120SOPE   H4R12693   2.217   5.411   6.031 -1.6212  0.9411 -0.9380
  120SOPE   H4S12694   2.247   5.231   6.047  0.1048 -0.4095  0.3940
  120SOPE   C2512695   2.062   5.280   5.945 -0.6392 -1.0257  0.0155
  120SOPE   H5R12696   2.022   5.180   5.971  0.5879 -1.0420  2.0079
  120SOPE   H5S12697   1.970   5.343   5.956 -1.3685 -2.4194  2.5113
  120SOPE   C2612698   2.136   5.278   5.806  0.0577 -0.3260 -0.4664
  120SOPE   H6R12699   2.178   5.380   5.798 -1.5044  0.7486  3.1003
  120SOPE   H6S12700   2.214   5.198   5.806 -0.2896 -0.6997  1.3252
  120SOPE   C2712701   2.027   5.261   5.701  0.3808 -0.1272  0.2676
  120SOPE   H7R12702   1.954   5.182   5.729  1.9727 -1.3988  1.0385
  120SOPE   H7S12703   1.970   5.353   5.678 -1.2245 -1.4333 -1.2253
  120SOPE   C2812704   2.093   5.215   5.571 -0.0276  0.2154 -0.6245
  120SOPE   H8R12705   2.172   5.286   5.538 -0.1329  0.5650 -0.1382
  120SOPE   H8S12706   2.140   5.117   5.597 -1.6391 -0.4130  0.0778
  120SOPE   C2912707   2.001   5.187   5.459 -0.6505 -0.7701  0.0957
  120SOPE   H9112708   1.939   5.097   5.469 -1.4362 -0.0217  3.4817
  120SOPE  C21012709   1.990   5.265   5.352 -0.5794 -0.2409  0.1434
  120SOPE  H10112710   1.909   5.237   5.283  0.8954 -2.6596 -0.7111
  120SOPE  C21112711   2.063   5.388   5.311  0.3199 -0.4519  0.2254
  120SOPE  H11R12712   2.172   5.385   5.333  0.0821 -3.4642  1.5669
  120SOPE  H11S12713   2.021   5.481   5.354  0.5855 -0.4259  0.4307
  120SOPE  C21212714   2.068   5.407   5.159 -0.3007  0.6604  0.4110
  120SOPE  H12R12715   1.969   5.408   5.108 -1.9867  1.1700  3.4512
  120SOPE  H12S12716   2.130   5.327   5.113 -1.1764 -1.2588  2.4106
  120SOPE  C21312717   2.127   5.546   5.123 -0.3840 -0.5234  0.4382
  120SOPE  H13R12718   2.223   5.565   5.176  0.6757  0.4699 -1.7327
  120SOPE  H13S12719   2.058   5.624   5.159 -1.0528 -0.2731 -1.3084
  120SOPE  C21412720   2.159   5.562   4.973 -0.3503 -0.8002  0.2014
  120SOPE  H14R12721   2.224   5.477   4.942  0.1611 -0.2290 -0.2860
  120SOPE  H14S12722   2.224   5.651   4.968 -0.8789 -0.4534 -0.7401
  120SOPE  C21512723   2.048   5.605   4.877  0.2569  0.7097 -0.6776
  120SOPE  H15R12724   2.018   5.710   4.896  0.5046  0.6437  0.0722
  120SOPE  H15S12725   1.951   5.553   4.897  0.5729 -0.3414 -1.7584
  120SOPE  C21612726   2.064   5.580   4.726 -0.2180  0.3095 -0.0689
  120SOPE  H16R12727   2.159   5.627   4.691 -0.5240  0.7302 -0.3327
  120SOPE  H16S12728   1.969   5.604   4.675 -0.1634 -1.0933 -0.8858
  120SOPE  C21712729   2.092   5.435   4.678  0.1147 -0.0892  0.2041
  120SOPE  H17R12730   2.200   5.418   4.694  0.4374  1.3769 -0.2805
  120SOPE  H17S12731   2.073   5.430   4.569 -1.2023 -2.5107  0.4825
  120SOPE  C21812732   2.004   5.335   4.743  0.6715  0.3052  0.0278
  120SOPE  H18R12733   1.896   5.358   4.731  0.0577 -2.3455 -0.0947
  120SOPE  H18S12734   2.020   5.345   4.853  0.0536  0.9054  0.0738
  120SOPE  H18T12735   2.008   5.230   4.709 -1.6294 -0.2047  1.1474
  120SOPE   C3312736   2.942   5.296   6.117  0.3995 -0.3103 -0.9281
  120SOPE   H3X12737   3.016   5.271   6.196  0.5958  2.7240 -0.0139
  120SOPE   H3Y12738   2.983   5.389   6.073 -2.2787  1.2252 -0.4022
  120SOPE   C3412739   2.955   5.181   6.009 -0.3314 -0.0542 -0.7545
  120SOPE   H4X12740   2.872   5.108   6.020  0.1914 -0.5282  0.2230
  120SOPE   H4Y12741   3.053   5.129   6.019 -0.3458 -0.0619 -0.6449
  120SOPE   C3512742   2.942   5.253   5.874 -0.5496 -0.0342 -0.4329
  120SOPE   H5X12743   3.037   5.309   5.856  0.9568 -2.9127 -2.3848
  120SOPE   H5Y12744   2.850   5.315   5.875  0.7038  1.9497  1.2232
  120SOPE   C3612745   2.960   5.165   5.753 -0.6811 -0.0844 -0.5787
  120SOPE   H6X12746   2.871   5.099   5.745  0.7031 -2.2128  0.5927
  120SOPE   H6Y12747   3.049   5.099   5.764  0.0752  0.7016 -1.6947
  120SOPE   C3712748   2.951   5.245   5.617 -0.0927  0.2993 -0.2814
  120SOPE   H7X12749   3.035   5.315   5.601  1.3807 -0.1951  4.1552
  120SOPE   H7Y12750   2.853   5.296   5.628  0.2798  1.0856 -0.5491
  120SOPE   C3812751   2.948   5.157   5.485 -0.8359  0.0507 -0.0564
  120SOPE   H8X12752   2.852   5.101   5.487  1.5546 -4.4659  0.9754
  120SOPE   H8Y12753   3.036   5.089   5.494  2.1097  3.5952  0.2011
  120SOPE   C3912754   2.960   5.235   5.360  0.1159 -0.2617 -0.1427
  120SOPE   H9X12755   3.044   5.307   5.353 -0.4542  0.4536  0.2722
  120SOPE   H9Y12756   2.870   5.299   5.348 -1.1783 -2.1821 -1.3680
  120SOPE  C31012757   2.937   5.146   5.236  0.1357  0.4133  0.1457
  120SOPE  H10X12758   2.844   5.088   5.255  0.0884  0.8970  1.5059
  120SOPE  H10Y12759   3.018   5.070   5.235 -1.2615 -1.1587 -2.1714
  120SOPE  C31112760   2.955   5.230   5.103  0.1036 -0.2780 -0.0450
  120SOPE  H11X12761   3.054   5.282   5.106 -0.4889  0.8346  0.5975
  120SOPE  H11Y12762   2.874   5.305   5.101  1.7929  1.6670 -3.1913
  120SOPE  C31212763   2.922   5.143   4.978 -0.8196  0.3722  0.2176
  120SOPE  H12X12764   2.827   5.087   4.997 -1.2586  0.8545 -0.5076
  120SOPE  H12Y12765   3.002   5.066   4.972  0.2439  1.3349  1.6411
  120SOPE  C31312766   2.911   5.224   4.852  0.1919 -0.0875 -0.1287
  120SOPE  H13X12767   2.999   5.288   4.833  0.8209 -0.2610  1.9582
  120SOPE  H13Y12768   2.842   5.310   4.863  1.2516  0.6318  1.0994
  120SOPE  C31412769   2.877   5.136   4.732  0.6824  0.5262  0.3837
  120SOPE  H14X12770   2.842   5.198   4.647  2.8009 -1.1216 -1.8316
  120SOPE  H14Y12771   2.783   5.080   4.752 -0.5225  2.4763  0.4060
  120SOPE  C31512772   2.988   5.050   4.680 -0.0741  1.0881  0.2854
  120SOPE  H15X12773   3.034   4.989   4.760  0.3639 -0.1469 -0.8801
  120SOPE  H15Y12774   3.072   5.118   4.654  0.3161  0.4237 -0.1977
  120SOPE  C31612775   2.952   4.955   4.567 -0.2243  1.2830  0.5647
  120SOPE  H16X12776   2.900   4.999   4.480  2.1025  0.0580 -1.5891
  120SOPE  H16Y12777   2.891   4.880   4.622 -0.6843  2.3844  1.5949
  120SOPE  C31712778   3.075   4.881   4.506 -0.2142 -0.1790  0.0668
  120SOPE  H17X12779   3.105   4.799   4.574  0.0507  0.9038  1.2938
  120SOPE  H17Y12780   3.163   4.947   4.494 -1.1568  0.7545 -2.4577
  120SOPE  C31812781   3.038   4.805   4.371 -0.1323  0.1538 -0.5087
  120SOPE  H18X12782   3.129   4.757   4.329 -1.0209 -1.9589 -0.1944
  120SOPE  H18Y12783   2.996   4.866   4.288  0.9933 -0.6199 -1.6812
  120SOPE  H18Z12784   2.956   4.734   4.396 -0.8449  0.8329 -0.8786
  121SOPE     N12785   0.661   3.902   6.972  0.2425  0.0743 -0.1163
  121SOPE   HN112786   0.578   3.956   7.003 -0.9380 -1.7738  0.0903
  121SOPE   HN212787   0.690   3.842   7.052  2.3401  2.8489  1.4196
  121SOPE   HN312788   0.741   3.969   6.965 -1.7998  2.5727 -1.2520
  121SOPE   C1212789   0.611   3.831   6.851  0.7387  0.5696 -0.3315
  121SOPE  H12A12790   0.564   3.901   6.778 -0.8463  0.1870  0.2854
  121SOPE  H12B12791   0.536   3.753   6.877 -2.4704  2.1472 -3.8122
  121SOPE   C1112792   0.725   3.750   6.781 -0.6827 -0.3399  0.2514
  121SOPE  H11A12793   0.788   3.815   6.717 -0.2094 -0.9978  0.0364
  121SOPE  H11B12794   0.677   3.676   6.715 -0.0313  0.5074 -1.2272
  121SOPE     P12795   0.959   3.647   6.856 -0.1334  0.2167 -0.2537
  121SOPE   O1312796   0.975   3.505   6.895  0.3191  0.2719 -0.2594
  121SOPE   O1412797   1.045   3.746   6.930 -0.1043 -0.0742  0.4368
  121SOPE   O1212798   0.804   3.690   6.876  0.2434  0.0495  0.4273
  121SOPE   O1112799   0.982   3.664   6.701  0.5127  0.1737 -0.0214
  121SOPE    C112800   0.917   3.584   6.604 -0.2154  0.0919  0.8026
  121SOPE    HA12801   0.858   3.652   6.539  1.5337  1.0725  0.1694
  121SOPE    HB12802   0.847   3.514   6.654 -2.1639  0.5181 -1.1664
  121SOPE    C212803   1.019   3.508   6.519 -0.6211  1.6089  0.0456
  121SOPE    HS12804   1.109   3.572   6.505  0.9504 -0.0385  2.0197
  121SOPE   O2112805   0.956   3.468   6.397 -0.1714  0.4752 -0.1546
  121SOPE   C2112806   0.948   3.553   6.292 -0.7934 -0.4646 -0.6345
  121SOPE   O2212807   1.004   3.663   6.290 -0.0360  0.0624 -0.8186
  121SOPE   C2212808   0.857   3.481   6.187 -0.3679  1.0252 -0.3136
  121SOPE   H2R12809   0.770   3.438   6.241 -0.1282  0.8472 -0.0667
  121SOPE   H2S12810   0.918   3.393   6.158 -2.5054 -0.3090 -1.0549
  121SOPE    C312811   1.085   3.384   6.584  0.0576  0.5085 -0.5935
  121SOPE    HX12812   1.003   3.316   6.613  0.5495  0.4226  0.6230
  121SOPE    HY12813   1.134   3.414   6.679  0.6875 -1.3052 -0.3047
  121SOPE   O3112814   1.170   3.311   6.498  0.3701 -0.0728 -0.1722
  121SOPE   C3112815   1.297   3.335   6.516  0.2152 -0.5965 -0.7713
  121SOPE   O3212816   1.343   3.408   6.604  0.1405 -0.1271 -0.0383
  121SOPE   C3212817   1.377   3.288   6.405  0.2605  0.3170  0.5225
  121SOPE   H2X12818   1.355   3.181   6.384 -1.5751  0.9763 -1.2058
  121SOPE   H2Y12819   1.479   3.298   6.448  1.3329  3.4830 -2.3346
  121SOPE   C2312820   0.833   3.550   6.061  0.9022  0.5945 -0.0252
  121SOPE   H3R12821   0.927   3.562   6.005  0.7253 -0.2923 -0.5310
  121SOPE   H3S12822   0.789   3.647   6.092  1.2293  0.9346 -0.6288
  121SOPE   C2412823   0.734   3.476   5.970 -0.2676 -0.0207  0.9560
  121SOPE   H4R12824   0.777   3.378   5.940  1.1801  0.6859  0.6227
  121SOPE   H4S12825   0.641   3.454   6.026 -0.1356 -1.1038  0.7829
  121SOPE   C2512826   0.695   3.558   5.839  0.5062  0.8883 -0.0760
  121SOPE   H5R12827   0.666   3.660   5.872 -2.1378 -0.3199  1.6598
  121SOPE   H5S12828   0.779   3.557   5.766 -1.5419  0.2393 -2.5730
  121SOPE   C2612829   0.568   3.495   5.762 -0.0028 -0.3477 -0.2019
  121SOPE   H6R12830   0.589   3.402   5.704  0.6640 -0.0813 -0.4012
  121SOPE   H6S12831   0.487   3.476   5.835 -0.6465 -0.8384 -1.0298
  121SOPE   C2712832   0.509   3.604   5.670 -0.0792  0.3535 -0.1180
  121SOPE   H7R12833   0.488   3.694   5.731 -1.3689 -0.7921  1.1778
  121SOPE   H7S12834   0.577   3.643   5.591  0.6118  2.3673  1.3938
  121SOPE   C2812835   0.373   3.551   5.607 -0.4245 -0.2037  0.2489
  121SOPE   H8R12836   0.401   3.458   5.555  1.1072 -0.4671  1.4691
  121SOPE   H8S12837   0.308   3.537   5.697 -1.3134  1.0834 -0.1654
  121SOPE   C2912838   0.301   3.647   5.513 -1.2660 -0.1955 -0.6598
  121SOPE   H9112839   0.279   3.741   5.567 -1.0160 -1.5727  1.9898
  121SOPE  C21012840   0.277   3.636   5.384 -1.0462 -0.0826  0.5247
  121SOPE  H10112841   0.222   3.717   5.333  0.7929  1.0091  0.1718
  121SOPE  C21112842   0.314   3.520   5.297 -0.1240  0.0443  0.6892
  121SOPE  H11R12843   0.292   3.429   5.357 -1.6016  0.6200  1.0514
  121SOPE  H11S12844   0.422   3.520   5.270 -0.1216  1.5747  0.6621
  121SOPE  C21212845   0.234   3.509   5.167  0.6213 -0.2342 -0.8263
  121SOPE  H12R12846   0.239   3.604   5.109 -0.0641 -0.8006 -1.8337
  121SOPE  H12S12847   0.126   3.496   5.188  0.3251  1.9192 -0.7162
  121SOPE  C21312848   0.274   3.385   5.087 -0.5899  0.3975 -0.2803
  121SOPE  H13R12849   0.282   3.300   5.159  2.2623  1.4132  0.7681
  121SOPE  H13S12850   0.373   3.396   5.036 -1.3134  3.0152 -1.2687
  121SOPE  C21412851   0.178   3.350   4.970 -0.0708  0.1750 -0.8675
  121SOPE  H14R12852   0.076   3.324   5.005 -0.0025 -0.7404 -1.3162
  121SOPE  H14S12853   0.229   3.265   4.920  0.3339  0.3657 -0.7840
  121SOPE  C21512854   0.170   3.466   4.871  0.2564 -0.3091 -0.3069
  121SOPE  H15R12855   0.253   3.484   4.800 -1.2014  1.5379 -1.6492
  121SOPE  H15S12856   0.173   3.564   4.923  3.2791 -0.2617 -0.3926
  121SOPE  C21612857   0.040   3.464   4.788 -0.4293  0.8159 -0.0184
  121SOPE  H16R12858   0.038   3.561   4.733  0.9348  2.3081  2.4153
  121SOPE  H16S12859  -0.051   3.462   4.851  1.0312  1.1484  2.2145
  121SOPE  C21712860   0.045   3.350   4.687 -0.1572  0.4990  0.2481
  121SOPE  H17R12861   0.034   3.254   4.743  1.2663 -1.3501 -2.4391
  121SOPE  H17S12862   0.143   3.340   4.637 -0.2558  1.7723 -0.2230
  121SOPE  C21812863  -0.066   3.346   4.585 -0.4447  0.5052  0.2900
  121SOPE  H18R12864  -0.059   3.259   4.515 -1.6435  0.3919  0.2958
  121SOPE  H18S12865  -0.051   3.434   4.519  1.7933 -1.1653 -1.6056
  121SOPE  H18T12866  -0.169   3.353   4.624 -0.6694 -2.7399  0.5901
  121SOPE   C3312867   1.377   3.372   6.269 -0.0071  0.5297 -0.0256
  121SOPE   H3X12868   1.475   3.343   6.227 -0.1752 -1.0365  0.5841
  121SOPE   H3Y12869   1.372   3.480   6.298 -1.7054  0.5071 -0.1093
  121SOPE   C3412870   1.262   3.341   6.173  0.7800  0.4090  0.1779
  121SOPE   H4X12871   1.166   3.353   6.229  0.9355  0.8691  0.3515
  121SOPE   H4Y12872   1.286   3.236   6.146  0.5483  0.0249  1.3897
  121SOPE   C3512873   1.253   3.432   6.048  0.5830  0.3117 -0.4846
  121SOPE   H5X12874   1.358   3.462   6.030  0.8843 -0.6134 -0.3524
  121SOPE   H5Y12875   1.189   3.517   6.079 -0.1043  0.5037 -2.2883
  121SOPE   C3612876   1.197   3.379   5.914 -0.6252  0.0781  0.0055
  121SOPE   H6X12877   1.104   3.320   5.926 -2.5454  2.5426 -1.6895
  121SOPE   H6Y12878   1.275   3.307   5.882 -0.0822  0.7564 -0.2436
  121SOPE   C3712879   1.191   3.490   5.799 -0.5318  0.2131 -0.4820
  121SOPE   H7X12880   1.291   3.535   5.784  0.3996 -1.5694  0.0970
  121SOPE   H7Y12881   1.133   3.572   5.847  0.1924  0.2631  0.3205
  121SOPE   C3812882   1.121   3.432   5.679  0.3639 -0.8156  0.3553
  121SOPE   H8X12883   1.086   3.515   5.615 -2.6727 -3.1702 -1.2920
  121SOPE   H8Y12884   1.027   3.384   5.712  0.6911 -0.8583  1.2686
  121SOPE   C3912885   1.215   3.343   5.594  0.0607  0.1303  0.0237
  121SOPE   H9X12886   1.158   3.319   5.502 -0.9025  1.5293  0.2245
  121SOPE   H9Y12887   1.222   3.246   5.648  2.1951  0.6682  0.8434
  121SOPE  C31012888   1.348   3.402   5.564 -0.0688  0.8416  0.1788
  121SOPE  H10X12889   1.418   3.357   5.638 -1.2705  0.5655  1.1925
  121SOPE  H10Y12890   1.347   3.511   5.587  0.7435  0.7252  0.8175
  121SOPE  C31112891   1.406   3.390   5.425  0.4005 -0.1117  0.0167
  121SOPE  H11X12892   1.424   3.285   5.396 -2.1322 -0.6031 -0.0093
  121SOPE  H11Y12893   1.507   3.437   5.416  0.4802 -0.3936 -0.6288
  121SOPE  C31212894   1.318   3.442   5.308 -0.4484  0.5271 -0.1638
  121SOPE  H12X12895   1.278   3.545   5.324 -1.7349 -0.0451  0.4369
  121SOPE  H12Y12896   1.235   3.368   5.304  1.8583 -2.4117  1.7896
  121SOPE  C31312897   1.393   3.448   5.176 -1.1749 -0.5551 -0.2209
  121SOPE  H13X12898   1.455   3.358   5.157 -0.0843  0.7814 -3.6746
  121SOPE  H13Y12899   1.474   3.522   5.190 -1.1216 -1.0011  2.2814
  121SOPE  C31412900   1.309   3.493   5.055  0.1324  0.3777 -0.2250
  121SOPE  H14X12901   1.366   3.502   4.960  2.8761 -0.9258  1.1881
  121SOPE  H14Y12902   1.268   3.592   5.083 -1.3953 -0.3237  0.1588
  121SOPE  C31512903   1.196   3.400   5.017 -0.2325 -0.5883 -0.3545
  121SOPE  H15X12904   1.130   3.388   5.106  0.6815  3.2627  1.0463
  121SOPE  H15Y12905   1.238   3.302   4.989  1.4362  0.3867 -1.4102
  121SOPE  C31612906   1.105   3.469   4.917 -0.8319  0.1801  0.0847
  121SOPE  H16X12907   1.164   3.485   4.825 -0.7062 -0.4974  0.0433
  121SOPE  H16Y12908   1.058   3.562   4.958 -0.8345  0.4346 -0.4822
  121SOPE  C31712909   0.980   3.391   4.868  0.0547  0.3375  0.6350
  121SOPE  H17X12910   0.912   3.458   4.811  0.9342  0.7535  0.0639
  121SOPE  H17Y12911   0.927   3.353   4.958 -0.1357 -0.5475  0.1676
  121SOPE  C31812912   0.994   3.271   4.780  0.2588  0.5640  0.7800
  121SOPE  H18X12913   1.078   3.206   4.814 -0.5224  0.0252  1.7282
  121SOPE  H18Y12914   1.025   3.306   4.679 -0.1660  0.2245  0.5278
  121SOPE  H18Z12915   0.895   3.223   4.768  0.4228  0.5535 -0.6579
  122SOPE     N12916   1.297   6.312   7.104 -0.2654  0.3834  0.1451
  122SOPE   HN112917   1.378   6.246   7.102  0.4387  1.2474 -1.6005
  122SOPE   HN212918   1.336   6.407   7.088  1.1648 -0.3419 -0.8771
  122SOPE   HN312919   1.257   6.297   7.199 -0.2275 -3.3076 -0.2649
  122SOPE   C1212920   1.191   6.279   7.004  0.6129 -0.0193  0.2692
  122SOPE  H12A12921   1.095   6.330   7.023 -0.2049 -1.7562  0.9720
  122SOPE  H12B12922   1.169   6.171   7.018 -2.8757  0.7313  1.3675
  122SOPE   C1112923   1.242   6.297   6.854  0.1101 -0.1729  0.3337
  122SOPE  H11A12924   1.275   6.402   6.845 -0.7998  0.2400  1.5522
  122SOPE  H11B12925   1.163   6.289   6.775  0.8075  0.2330 -0.4172
  122SOPE     P12926   1.354   6.074   6.765  0.4620  0.0578  0.2657
  122SOPE   O1312927   1.231   6.000   6.795  0.2932 -0.5025 -0.0923
  122SOPE   O1412928   1.489   6.017   6.780 -0.1359  0.3340  0.0146
  122SOPE   O1212929   1.357   6.212   6.841 -0.1246  0.3620  0.4801
  122SOPE   O1112930   1.341   6.134   6.618 -0.2182  0.6897  0.0407
  122SOPE    C112931   1.455   6.164   6.525  0.8084  0.0779 -0.3044
  122SOPE    HA12932   1.550   6.144   6.579  0.0051  2.3172  2.1134
  122SOPE    HB12933   1.458   6.274   6.513 -1.4267  0.0497 -1.6046
  122SOPE    C212934   1.462   6.082   6.388 -0.2029  0.5820  0.0002
  122SOPE    HS12935   1.538   6.134   6.326  1.1035  0.5754  1.5184
  122SOPE   O2112936   1.338   6.077   6.319 -0.4351 -0.6723 -0.2971
  122SOPE   C2112937   1.294   6.198   6.275 -1.0102  1.3666 -0.1661
  122SOPE   O2212938   1.357   6.301   6.291  0.5388  0.0525  0.0794
  122SOPE   C2212939   1.164   6.176   6.198 -0.0388 -0.2264 -0.4895
  122SOPE   H2R12940   1.085   6.175   6.277  0.9513 -1.2493  0.5311
  122SOPE   H2S12941   1.164   6.071   6.162  1.7315 -0.4099 -0.0380
  122SOPE    C312942   1.517   5.929   6.405  0.0851  0.0495  0.5602
  122SOPE    HX12943   1.447   5.866   6.465  0.9454 -0.5315  0.9625
  122SOPE    HY12944   1.609   5.917   6.466 -0.6745 -0.3444  1.6689
  122SOPE   O3112945   1.543   5.877   6.276  0.0398 -0.7862  0.0304
  122SOPE   C3112946   1.445   5.817   6.205  0.3468  0.6775 -0.4071
  122SOPE   O3212947   1.325   5.810   6.223 -0.1271  0.6286 -0.0213
  122SOPE   C3212948   1.521   5.768   6.075  0.3589  0.0533  0.8185
  122SOPE   H2X12949   1.595   5.696   6.114  0.6556 -1.2817 -1.9290
  122SOPE   H2Y12950   1.569   5.854   6.024 -1.2731  1.3524  1.3706
  122SOPE   C2312951   1.148   6.278   6.077  0.1773  0.6911  0.7098
  122SOPE   H3R12952   1.250   6.294   6.034  0.9680 -1.9237  1.3792
  122SOPE   H3S12953   1.104   6.375   6.107  1.2941  1.7068 -0.7862
  122SOPE   C2412954   1.053   6.218   5.974 -0.2810  0.4946  0.3329
  122SOPE   H4R12955   1.116   6.140   5.926  2.6344  3.3610 -0.8238
  122SOPE   H4S12956   0.970   6.160   6.020  0.3950  1.9918  3.7628
  122SOPE   C2512957   1.015   6.322   5.867  0.3960 -0.1023 -0.4751
  122SOPE   H5R12958   0.920   6.368   5.902  1.3021  0.8197  0.8687
  122SOPE   H5S12959   1.083   6.409   5.855  1.4949 -0.9604 -0.6049
  122SOPE   C2612960   1.001   6.269   5.723  0.3443 -0.4456 -0.2868
  122SOPE   H6R12961   1.107   6.267   5.690  0.6780  0.5733  0.6464
  122SOPE   H6S12962   0.944   6.174   5.731 -1.1263  0.3861 -0.4972
  122SOPE   C2712963   0.923   6.365   5.628  0.1907 -1.0629 -0.3144
  122SOPE   H7R12964   0.866   6.445   5.679  2.4470 -0.0550  0.7603
  122SOPE   H7S12965   0.994   6.432   5.575  0.4424  0.6161  2.0061
  122SOPE   C2812966   0.836   6.297   5.516 -0.2113  0.3013  0.0678
  122SOPE   H8R12967   0.776   6.226   5.577  0.5182 -2.0628 -1.8207
  122SOPE   H8S12968   0.764   6.373   5.482 -0.8071 -0.2907 -0.0143
  122SOPE   C2912969   0.913   6.226   5.408 -0.0158 -0.4517  0.9517
  122SOPE   H9112970   0.988   6.157   5.449  1.9497 -0.5825 -2.4662
  122SOPE  C21012971   0.906   6.242   5.278 -0.3019  0.4919  0.8233
  122SOPE  H10112972   0.955   6.168   5.213 -1.8445 -0.7665  1.0202
  122SOPE  C21112973   0.811   6.329   5.199  1.1400  0.6823  0.7579
  122SOPE  H11R12974   0.740   6.383   5.265  0.6863  0.3830  0.5203
  122SOPE  H11S12975   0.759   6.266   5.123  1.2502  0.6266  0.7299
  122SOPE  C21212976   0.900   6.439   5.133 -0.1193  0.5794 -0.1011
  122SOPE  H12R12977   0.990   6.391   5.090 -0.5181  0.0694 -0.3806
  122SOPE  H12S12978   0.939   6.522   5.196  0.9583  0.5431 -0.7071
  122SOPE  C21312979   0.838   6.508   5.021 -0.6943  0.6463 -0.0663
  122SOPE  H13R12980   0.742   6.548   5.058  0.1260  0.3071  2.6511
  122SOPE  H13S12981   0.807   6.426   4.953 -0.4178 -1.2060  1.9433
  122SOPE  C21412982   0.933   6.619   4.971  0.0205  0.3935 -0.0845
  122SOPE  H14R12983   1.019   6.562   4.931 -0.6926 -2.0966  1.7345
  122SOPE  H14S12984   0.985   6.679   5.049 -0.9279  1.3672 -0.1843
  122SOPE  C21512985   0.887   6.715   4.857 -0.5458  0.5768 -0.5443
  122SOPE  H15R12986   0.957   6.801   4.848 -0.7850  1.1327  1.9747
  122SOPE  H15S12987   0.791   6.762   4.887 -0.5956  0.3633 -0.3653
  122SOPE  C21612988   0.861   6.647   4.725 -0.4832  0.0660  0.2423
  122SOPE  H16R12989   0.782   6.569   4.732 -1.2395  0.7688 -0.3001
  122SOPE  H16S12990   0.952   6.599   4.683 -0.5685 -0.6285  0.8169
  122SOPE  C21712991   0.793   6.740   4.621 -0.7164 -0.4710 -0.9319
  122SOPE  H17R12992   0.709   6.794   4.670  1.8383  2.3757  0.6912
  122SOPE  H17S12993   0.746   6.683   4.538 -1.7456 -0.3642 -0.4440
  122SOPE  C21812994   0.889   6.853   4.571 -1.1574  0.4099  0.0299
  122SOPE  H18R12995   0.990   6.808   4.569 -1.4515 -0.2122 -1.5521
  122SOPE  H18S12996   0.888   6.929   4.653 -1.6579 -1.6024  1.9901
  122SOPE  H18T12997   0.866   6.884   4.467 -1.7176 -3.6620 -1.2189
  122SOPE   C3312998   1.417   5.706   5.978 -0.7437 -0.5064 -0.7606
  122SOPE   H3X12999   1.340   5.784   5.960 -0.1090  0.2528 -0.2402
  122SOPE   H3Y13000   1.370   5.622   6.035 -2.3093 -0.2671 -1.6305
  122SOPE   C3413001   1.478   5.648   5.850  0.2164 -0.5380  0.1719
  122SOPE   H4X13002   1.551   5.565   5.865  2.3942  0.8865 -1.7436
  122SOPE   H4Y13003   1.536   5.730   5.801 -0.5860  1.0331  1.7558
  122SOPE   C3513004   1.365   5.618   5.758  0.7467  0.2027 -0.4272
  122SOPE   H5X13005   1.305   5.711   5.751  1.7186  0.8728 -0.0532
  122SOPE   H5Y13006   1.297   5.534   5.785  2.0479 -0.3300  1.3859
  122SOPE   C3613007   1.409   5.588   5.609  0.5718 -0.3731 -0.1770
  122SOPE   H6X13008   1.455   5.487   5.605 -0.8100 -1.0021 -1.2598
  122SOPE   H6Y13009   1.478   5.666   5.572  0.4988  0.1851  0.8190
  122SOPE   C3713010   1.284   5.580   5.514  0.2948 -0.1475  0.0840
  122SOPE   H7X13011   1.303   5.570   5.405 -1.0019 -1.1950 -0.0671
  122SOPE   H7Y13012   1.218   5.669   5.525 -0.0171 -0.2195 -1.0954
  122SOPE   C3813013   1.184   5.455   5.543 -0.5713 -1.3815 -0.2944
  122SOPE   H8X13014   1.149   5.485   5.644 -0.4092  1.3235 -0.9504
  122SOPE   H8Y13015   1.237   5.358   5.546  1.4414 -0.3186  1.6092
  122SOPE   C3913016   1.062   5.449   5.450 -0.2285  0.0942  0.9521
  122SOPE   H9X13017   1.015   5.550   5.444  0.9343  0.5777 -2.9135
  122SOPE   H9Y13018   0.988   5.378   5.491  0.3437 -1.0295  0.0713
  122SOPE  C31013019   1.106   5.400   5.304 -0.6155  0.3462 -0.5028
  122SOPE  H10X13020   1.064   5.298   5.295 -0.5007  0.4122 -2.0702
  122SOPE  H10Y13021   1.217   5.394   5.302 -0.6887 -1.7041 -0.6602
  122SOPE  C31113022   1.054   5.481   5.186 -0.4954  0.0264  0.3287
  122SOPE  H11X13023   0.953   5.525   5.203  0.5194  3.0247 -0.7632
  122SOPE  H11Y13024   1.052   5.407   5.103 -3.0134 -0.7420  0.9840
  122SOPE  C31213025   1.153   5.593   5.153 -0.2651 -0.8783  0.3474
  122SOPE  H12X13026   1.256   5.561   5.176 -0.9112 -1.5964  2.4294
  122SOPE  H12Y13027   1.125   5.679   5.219  3.0104 -0.0225  0.8245
  122SOPE  C31313028   1.160   5.645   5.008 -0.1333  0.4982  0.0500
  122SOPE  H13X13029   1.252   5.707   5.000 -0.7734  1.3462 -0.9422
  122SOPE  H13Y13030   1.071   5.704   4.979  0.6246  0.8948 -1.5754
  122SOPE  C31413031   1.162   5.528   4.903  0.6841  0.1958 -0.0403
  122SOPE  H14X13032   1.063   5.483   4.882  1.3737 -0.8686 -1.2150
  122SOPE  H14Y13033   1.237   5.452   4.935  1.0128  1.2283  1.7656
  122SOPE  C31513034   1.226   5.580   4.769  0.4102 -0.8146  0.8336
  122SOPE  H15X13035   1.237   5.489   4.706 -0.5619 -1.6232  1.7884
  122SOPE  H15Y13036   1.321   5.637   4.784  0.0185 -0.1091  0.6700
  122SOPE  C31613037   1.123   5.668   4.696  0.0830 -0.0483 -0.5190
  122SOPE  H16X13038   1.102   5.767   4.742 -0.3570 -0.0144 -0.7906
  122SOPE  H16Y13039   1.030   5.609   4.691 -0.9119  1.3933  0.2373
  122SOPE  C31713040   1.147   5.694   4.545  0.0161 -0.0044 -0.8072
  122SOPE  H17X13041   1.147   5.595   4.493 -1.3118 -0.3273 -0.2229
  122SOPE  H17Y13042   1.247   5.742   4.542  0.5619 -1.0977 -0.7292
  122SOPE  C31813043   1.042   5.767   4.471  0.2058 -0.0777 -0.3942
  122SOPE  H18X13044   1.043   5.877   4.484 -1.4220 -0.0264 -0.4471
  122SOPE  H18Y13045   0.939   5.732   4.496 -0.4783  1.1289 -1.4187
  122SOPE  H18Z13046   1.051   5.749   4.362  0.7042 -1.7505 -0.1026
  123SOPE     N13047   2.900   6.246   2.148 -0.3150  0.1681 -0.1965
  123SOPE   HN113048   2.937   6.283   2.058  0.7365 -2.0992 -0.7735
  123SOPE   HN213049   2.889   6.145   2.123  1.0151  0.2806 -1.3822
  123SOPE   HN313050   2.807   6.283   2.176  0.7581  1.0513  2.4765
  123SOPE   C1213051   3.010   6.263   2.247 -0.5718 -0.6285 -0.5232
  123SOPE  H12A13052   3.107   6.266   2.193 -0.5055 -0.3622 -0.3909
  123SOPE  H12B13053   2.998   6.181   2.321 -0.4986  0.5604  0.8668
  123SOPE   C1113054   3.010   6.398   2.319  0.1373  0.3976  0.2761
  123SOPE  H11A13055   3.076   6.401   2.408  1.6031  1.0756 -0.8019
  123SOPE  H11B13056   2.912   6.411   2.370  0.0728 -2.1722  0.9545
  123SOPE     P13057   3.075   6.646   2.284 -0.2959  0.0661  0.0258
  123SOPE   O1313058   2.946   6.712   2.304 -0.2775 -0.5418  0.0970
  123SOPE   O1413059   3.174   6.705   2.191  0.4563  0.5751  0.3649
  123SOPE   O1213060   3.045   6.502   2.233  0.1854  0.4534 -0.2549
  123SOPE   O1113061   3.136   6.616   2.429 -0.2575  0.5729 -0.1229
  123SOPE    C113062   3.276   6.584   2.434  0.5466  0.0642  0.3647
  123SOPE    HA13063   3.344   6.658   2.386 -0.9122  1.4756  0.4154
  123SOPE    HB13064   3.292   6.495   2.369  0.8317  0.9500 -0.8164
  123SOPE    C213065   3.321   6.575   2.580  0.4773  0.5097  0.3308
  123SOPE    HS13066   3.240   6.525   2.637 -1.6606  1.6908 -1.5337
  123SOPE   O2113067   3.353   6.709   2.628  0.0825 -0.0945  0.5982
  123SOPE   C2113068   3.250   6.777   2.679 -0.9240 -0.3912  0.2029
  123SOPE   O2213069   3.142   6.732   2.701  0.0068 -0.5091 -0.1859
  123SOPE   C2213070   3.297   6.915   2.717 -0.0072 -0.0985 -0.8339
  123SOPE   H2R13071   3.251   6.983   2.642  2.0868  1.0612 -1.1419
  123SOPE   H2S13072   3.408   6.920   2.715  0.0879 -0.2678  1.4758
  123SOPE    C313073   3.452   6.484   2.586  0.9559 -0.0191  0.3000
  123SOPE    HX13074   3.506   6.499   2.490 -2.0422 -2.0924 -1.9360
  123SOPE    HY13075   3.417   6.378   2.591 -0.2640  0.3989  1.2522
  123SOPE   O3113076   3.532   6.515   2.704  0.0930 -0.3209 -0.2303
  123SOPE   C3113077   3.604   6.410   2.749  0.3931  0.0274  0.9942
  123SOPE   O3213078   3.614   6.303   2.702  0.0933  0.0137  0.5410
  123SOPE   C3213079   3.686   6.454   2.873 -0.2752 -0.8191 -0.7770
  123SOPE   H2X13080   3.624   6.447   2.965 -1.1019  2.8321 -0.9124
  123SOPE   H2Y13081   3.724   6.558   2.868 -3.0194  0.4608  1.9788
  123SOPE   C2313082   3.255   6.956   2.859 -0.0706 -0.4359  0.2638
  123SOPE   H3R13083   3.151   6.924   2.880  0.1665 -0.7941  0.9305
  123SOPE   H3S13084   3.254   7.067   2.862  0.9653 -0.3059 -1.8117
  123SOPE   C2413085   3.346   6.908   2.969 -0.3161  0.6090 -0.4205
  123SOPE   H4R13086   3.346   6.797   2.964  2.0670  0.4908  1.0433
  123SOPE   H4S13087   3.451   6.933   2.942  0.4110 -1.7132  0.0629
  123SOPE   C2513088   3.297   6.953   3.109  0.4689  0.0529 -0.4218
  123SOPE   H5R13089   3.296   7.064   3.109  1.3874  0.0776 -1.3822
  123SOPE   H5S13090   3.194   6.911   3.120  0.1846  0.7396 -0.4370
  123SOPE   C2613091   3.359   6.893   3.226 -0.7891 -0.4133 -0.4960
  123SOPE   H6R13092   3.385   6.787   3.207  0.7964  0.0021 -0.8320
  123SOPE   H6S13093   3.457   6.943   3.211 -1.4484  1.1201  0.0814
  123SOPE   C2713094   3.288   6.907   3.361  0.3392 -0.6236  0.4438
  123SOPE   H7R13095   3.275   7.015   3.383  2.3045 -0.3678  0.4936
  123SOPE   H7S13096   3.184   6.866   3.363 -0.1497  0.3695 -1.4650
  123SOPE   C2813097   3.371   6.851   3.480  0.2652 -0.7602 -0.1981
  123SOPE   H8R13098   3.401   6.749   3.450 -1.6431 -0.8780 -1.9000
  123SOPE   H8S13099   3.461   6.913   3.499 -0.6681  0.8891 -0.9388
  123SOPE   C2913100   3.282   6.855   3.597 -0.3369  0.1190 -1.0817
  123SOPE   H9113101   3.185   6.806   3.581 -0.5145  0.4947 -1.1776
  123SOPE  C21013102   3.311   6.911   3.716 -0.0478 -0.4883 -0.1718
  123SOPE  H10113103   3.239   6.895   3.797 -0.3989  0.4061 -0.3015
  123SOPE  C21113104   3.440   6.980   3.755 -0.1233  0.2501 -0.3003
  123SOPE  H11R13105   3.495   7.020   3.667 -0.3785  1.5060  0.0956
  123SOPE  H11S13106   3.502   6.910   3.815  0.3910  0.9779  0.0361
  123SOPE  C21213107   3.419   7.103   3.843 -0.4922 -0.7155 -0.5615
  123SOPE  H12R13108   3.518   7.139   3.877  0.0020 -2.5616  0.0724
  123SOPE  H12S13109   3.376   7.064   3.937 -0.7885  1.7474  0.3735
  123SOPE  C21313110   3.331   7.211   3.773  0.3968  0.2493 -0.6559
  123SOPE  H13R13111   3.234   7.159   3.763  0.5525 -0.2496  0.2534
  123SOPE  H13S13112   3.367   7.228   3.669  2.7910 -0.4595 -0.0281
  123SOPE  C21413113   3.319   7.336   3.859 -0.4470  0.3345 -0.6653
  123SOPE  H14R13114   3.419   7.383   3.869 -1.8274  3.0602  1.7797
  123SOPE  H14S13115   3.303   7.309   3.966  5.6671 -2.2743  0.0293
  123SOPE  C21513116   3.214   7.432   3.799 -0.6542  0.1444  0.6376
  123SOPE  H15R13117   3.116   7.382   3.780  0.1092 -0.1285 -3.6868
  123SOPE  H15S13118   3.245   7.458   3.696 -1.1849  2.1821  0.9526
  123SOPE  C21613119   3.198   7.557   3.889  0.6143 -0.3773  0.3055
  123SOPE  H16R13120   3.143   7.527   3.981  1.0331  1.1552  1.0862
  123SOPE  H16S13121   3.136   7.629   3.830  1.6628  0.6549  0.4223
  123SOPE  C21713122   3.325   7.625   3.918  0.2698 -0.2521  0.5391
  123SOPE  H17R13123   3.380   7.662   3.829  0.5232 -1.6392  0.0952
  123SOPE  H17S13124   3.387   7.550   3.972 -0.9329 -1.4040  0.3860
  123SOPE  C21813125   3.306   7.749   4.004 -0.3359  0.1249 -0.3570
  123SOPE  H18R13126   3.225   7.810   3.960 -1.9318 -2.5432 -1.3892
  123SOPE  H18S13127   3.401   7.806   4.009  0.1834 -0.5906 -1.7298
  123SOPE  H18T13128   3.279   7.725   4.110  2.1454  0.1357  0.3465
  123SOPE   C3313129   3.791   6.343   2.900 -0.0555  0.1576 -0.4841
  123SOPE   H3X13130   3.867   6.329   2.820 -0.0402  2.3387 -0.9369
  123SOPE   H3Y13131   3.739   6.247   2.919  0.5412  0.2374  1.9009
  123SOPE   C3413132   3.882   6.368   3.024  0.0813 -0.8824 -0.1804
  123SOPE   H4X13133   3.911   6.474   3.033  1.9653 -1.4171  0.5036
  123SOPE   H4Y13134   3.977   6.313   3.005  0.7555 -0.6774  2.2027
  123SOPE   C3513135   3.817   6.324   3.150  0.4308  0.1864  0.0655
  123SOPE   H5X13136   3.799   6.214   3.149  1.6617 -0.0518  1.2422
  123SOPE   H5Y13137   3.716   6.371   3.155  1.5796  2.7412  0.4770
  123SOPE   C3613138   3.901   6.373   3.264  0.6154  0.3772 -0.0029
  123SOPE   H6X13139   3.924   6.481   3.254 -0.4046  0.4129 -2.6468
  123SOPE   H6Y13140   3.997   6.319   3.253 -0.0102 -0.4148 -2.0104
  123SOPE   C3713141   3.829   6.347   3.397  0.1354  0.1792  0.2311
  123SOPE   H7X13142   3.794   6.242   3.405 -1.7387  0.6063 -1.5909
  123SOPE   H7Y13143   3.740   6.413   3.392  0.6887  0.8725 -0.7843
  123SOPE   C3813144   3.902   6.402   3.521  0.5808 -0.4194 -0.1274
  123SOPE   H8X13145   3.928   6.510   3.516 -1.6877  0.0935 -2.4636
  123SOPE   H8Y13146   3.984   6.331   3.545 -0.1342 -1.8584 -1.7163
  123SOPE   C3913147   3.807   6.399   3.642 -0.6059  1.0891  0.4190
  123SOPE   H9X13148   3.773   6.296   3.666 -0.0006  0.7359 -0.2156
  123SOPE   H9Y13149   3.719   6.458   3.608 -2.7366 -1.5141  1.1170
  123SOPE  C31013150   3.868   6.460   3.774 -0.0609 -0.0109  0.1779
  123SOPE  H10X13151   3.784   6.490   3.840  1.2165 -0.1533  1.9508
  123SOPE  H10Y13152   3.937   6.545   3.753  0.0620 -0.1968 -0.1833
  123SOPE  C31113153   3.949   6.358   3.851  0.6444 -0.6876 -0.7173
  123SOPE  H11X13154   4.032   6.331   3.783 -0.5724 -1.7286 -1.8479
  123SOPE  H11Y13155   3.878   6.273   3.853 -0.3458  0.1191 -0.6703
  123SOPE  C31213156   3.979   6.401   3.997 -0.6645  0.0717 -0.0369
  123SOPE  H12X13157   3.880   6.417   4.043 -0.1426  0.3478  1.0139
  123SOPE  H12Y13158   4.034   6.497   4.003 -1.0634  0.2152  2.0544
  123SOPE  C31313159   4.051   6.288   4.080  0.2461  0.1508 -1.0390
  123SOPE  H13X13160   4.145   6.262   4.029  1.5457 -0.5293  1.5555
  123SOPE  H13Y13161   3.987   6.197   4.085  1.7913 -1.0030 -1.5162
  123SOPE  C31413162   4.076   6.323   4.231 -0.3355 -0.1944 -0.3243
  123SOPE  H14X13163   3.983   6.376   4.263  0.2576  1.4924 -1.2408
  123SOPE  H14Y13164   4.164   6.389   4.243  0.8914 -1.4163 -2.0924
  123SOPE  C31513165   4.100   6.199   4.324  0.0731  0.5679 -0.0339
  123SOPE  H15X13166   4.022   6.120   4.318  2.5582 -1.9209 -1.9153
  123SOPE  H15Y13167   4.098   6.237   4.428 -4.3175  1.5494 -0.2890
  123SOPE  C31613168   4.234   6.127   4.304  0.4991  0.0320  0.5546
  123SOPE  H16X13169   4.317   6.200   4.303  0.4641  0.0718 -0.2772
  123SOPE  H16Y13170   4.234   6.066   4.211 -1.3145  1.9741 -0.8246
  123SOPE  C31713171   4.268   6.025   4.416  0.2074  0.0290 -0.4613
  123SOPE  H17X13172   4.327   6.084   4.489  1.3667  1.6942 -2.6022
  123SOPE  H17Y13173   4.342   5.948   4.385 -0.0902 -0.3628 -0.2032
  123SOPE  C31813174   4.153   5.950   4.475  0.7802 -0.2365  0.0789
  123SOPE  H18X13175   4.171   5.877   4.557 -3.2701 -1.1351  0.4024
  123SOPE  H18Y13176   4.098   5.891   4.399  0.1123 -1.8350  1.7293
  123SOPE  H18Z13177   4.088   6.019   4.533  0.5920  0.0582 -0.4732
  124SOPE     N13178   5.879   5.293   2.322  0.8294  0.0996  0.3112
  124SOPE   HN113179   5.855   5.357   2.244  3.8148 -1.1773 -1.8747
  124SOPE   HN213180   5.838   5.199   2.303  2.9293 -0.7057 -0.6104
  124SOPE   HN313181   5.849   5.339   2.410 -0.5045 -1.6310  0.8095
  124SOPE   C1213182   6.028   5.285   2.335  0.2570  0.0478  0.1103
  124SOPE  H12A13183   6.075   5.385   2.344  0.2541  0.1438 -0.8411
  124SOPE  H12B13184   6.066   5.233   2.244  0.9493 -0.1786  0.5251
  124SOPE   C1113185   6.076   5.193   2.453 -0.0241 -0.4974  0.0360
  124SOPE  H11A13186   6.022   5.208   2.549  0.9132 -1.3259  0.7120
  124SOPE  H11B13187   6.184   5.215   2.470 -0.0892 -1.0406  1.3131
  124SOPE     P13188   5.987   4.948   2.481 -0.2447 -0.0317 -0.1048
  124SOPE   O1313189   5.963   4.829   2.395 -0.0241 -0.2414 -0.2790
  124SOPE   O1413190   5.862   5.009   2.537  0.4553  0.2043  0.2514
  124SOPE   O1213191   6.075   5.062   2.408  0.6526  0.0878 -0.4644
  124SOPE   O1113192   6.076   4.898   2.599 -0.1075  0.4512  0.8920
  124SOPE    C113193   6.040   4.787   2.679  0.2282  0.7924  0.2175
  124SOPE    HA13194   6.078   4.690   2.640  0.3275 -0.9420  4.1041
  124SOPE    HB13195   5.930   4.782   2.695  0.0779  1.1069 -0.6787
  124SOPE    C213196   6.114   4.805   2.818 -0.6491  0.5665 -0.2208
  124SOPE    HS13197   6.223   4.820   2.799 -0.2908 -1.9976 -0.6103
  124SOPE   O2113198   6.096   4.680   2.881 -0.1493  0.2862 -0.1592
  124SOPE   C2113199   6.181   4.585   2.860  0.3068  0.2825 -0.0393
  124SOPE   O2213200   6.257   4.574   2.770 -0.3075 -0.4230  0.0640
  124SOPE   C2213201   6.155   4.476   2.975 -0.5612 -0.1685 -0.4600
  124SOPE   H2R13202   6.058   4.422   2.966 -0.9206  0.1602  1.1204
  124SOPE   H2S13203   6.154   4.537   3.068 -1.6929  1.0308 -1.2252
  124SOPE    C313204   6.058   4.923   2.908 -0.0654  0.4314  0.0436
  124SOPE    HX13205   5.948   4.918   2.915 -0.0033 -0.1932  0.6852
  124SOPE    HY13206   6.089   5.015   2.854  1.1716  1.2887  2.0603
  124SOPE   O3113207   6.109   4.931   3.044  0.5716  0.5932  0.0715
  124SOPE   C3113208   6.235   4.953   3.060 -0.4641 -0.9977 -0.6157
  124SOPE   O3213209   6.315   4.975   2.966  0.1628  0.0101 -0.1495
  124SOPE   C3213210   6.277   4.946   3.208 -0.2212  0.1945 -0.1108
  124SOPE   H2X13211   6.217   5.013   3.273  0.4552  1.8290 -1.0994
  124SOPE   H2Y13212   6.383   4.981   3.212  0.1540 -1.0298  1.1154
  124SOPE   C2313213   6.254   4.361   2.978  0.1509  0.6195 -0.6858
  124SOPE   H3R13214   6.356   4.392   3.009 -0.4373  2.5538 -0.5877
  124SOPE   H3S13215   6.269   4.310   2.880  2.5375 -0.0332 -0.0584
  124SOPE   C2413216   6.210   4.261   3.084  0.4411 -0.3124 -0.9506
  124SOPE   H4R13217   6.102   4.235   3.076  0.9859 -4.1745  1.4373
  124SOPE   H4S13218   6.256   4.161   3.068  1.0942 -0.0190 -0.9225
  124SOPE   C2513219   6.239   4.308   3.224  0.2809 -0.3927 -0.0093
  124SOPE   H5R13220   6.347   4.329   3.237  0.7471 -2.8080  0.4096
  124SOPE   H5S13221   6.179   4.401   3.238  0.0772 -0.3648 -0.9834
  124SOPE   C2613222   6.199   4.210   3.331  0.0197  0.4292  0.9714
  124SOPE   H6R13223   6.108   4.155   3.296 -0.5698  0.2854  2.6478
  124SOPE   H6S13224   6.283   4.138   3.341  0.4341  0.3883 -1.9249
  124SOPE   C2713225   6.184   4.270   3.467  0.5222 -0.6055 -0.6897
  124SOPE   H7R13226   6.266   4.344   3.479 -2.6183  2.9392  0.7847
  124SOPE   H7S13227   6.091   4.330   3.463  0.9571  0.0471 -1.4030
  124SOPE   C2813228   6.181   4.160   3.577 -0.3240  0.0484  1.0386
  124SOPE   H8R13229   6.105   4.079   3.570  1.4487 -1.6575  0.5669
  124SOPE   H8S13230   6.282   4.114   3.570 -0.7377 -0.8892  1.0893
  124SOPE   C2913231   6.164   4.231   3.714 -0.3371 -0.1377  0.5186
  124SOPE   H9113232   6.134   4.336   3.718  1.9222  0.5252  3.5161
  124SOPE  C21013233   6.152   4.173   3.832 -0.2110 -0.0797 -1.1244
  124SOPE  H10113234   6.163   4.235   3.922  2.4392 -1.1154 -0.6246
  124SOPE  C21113235   6.170   4.026   3.859 -0.0924  0.1449  0.4463
  124SOPE  H11R13236   6.264   4.013   3.918  1.3333 -0.0362 -1.7643
  124SOPE  H11S13237   6.191   3.968   3.767 -1.6540 -0.1845  0.2847
  124SOPE  C21213238   6.050   3.957   3.930  0.4036  0.1165 -0.1084
  124SOPE  H12R13239   6.084   3.853   3.950  4.2117  1.0394 -0.8983
  124SOPE  H12S13240   5.972   3.955   3.852  3.1263  1.3860 -3.1073
  124SOPE  C21313241   6.007   4.026   4.067 -0.1973  0.3416 -0.4653
  124SOPE  H13R13242   5.958   4.125   4.050  1.1497  0.9467 -1.0110
  124SOPE  H13S13243   6.096   4.039   4.133 -1.0255  2.1868  0.3659
  124SOPE  C21413244   5.897   3.935   4.132 -0.4951 -0.3942  0.3553
  124SOPE  H14R13245   5.930   3.830   4.145 -0.8302 -0.2195  3.2126
  124SOPE  H14S13246   5.806   3.940   4.067  0.5199 -0.1661 -1.0943
  124SOPE  C21513247   5.850   3.989   4.269  0.0113  0.3121 -0.1132
  124SOPE  H15R13248   5.928   4.026   4.339  1.1858  0.9065 -1.6790
  124SOPE  H15S13249   5.802   3.903   4.321  0.9146  0.0420  0.3062
  124SOPE  C21613250   5.739   4.097   4.256 -0.1669  0.0147 -0.5771
  124SOPE  H16R13251   5.641   4.053   4.228  0.6664 -1.9287 -0.5731
  124SOPE  H16S13252   5.783   4.164   4.178  0.0427 -0.2693 -0.7039
  124SOPE  C21713253   5.730   4.208   4.365 -0.3894 -0.4829  0.9089
  124SOPE  H17R13254   5.668   4.292   4.328  1.0110  0.4183  0.5139
  124SOPE  H17S13255   5.830   4.257   4.375  0.0331 -1.4358  1.5272
  124SOPE  C21813256   5.675   4.158   4.496  0.1174 -0.3154 -0.4071
  124SOPE  H18R13257   5.746   4.086   4.542  0.2811 -0.4232 -0.8251
  124SOPE  H18S13258   5.575   4.109   4.497  0.0853 -0.2726  1.3832
  124SOPE  H18T13259   5.668   4.243   4.567  1.7731  0.3480 -0.9962
  124SOPE   C3313260   6.275   4.808   3.273 -0.0769 -0.7977  0.3149
  124SOPE   H3X13261   6.319   4.733   3.204  0.4319  0.1211 -0.3763
  124SOPE   H3Y13262   6.169   4.781   3.293  0.3869 -2.6872  0.3571
  124SOPE   C3413263   6.347   4.816   3.408 -0.1228 -0.1916 -0.3654
  124SOPE   H4X13264   6.321   4.916   3.450  0.3473 -0.0368 -0.4337
  124SOPE   H4Y13265   6.457   4.810   3.397 -0.0994  0.1978 -0.3669
  124SOPE   C3513266   6.300   4.703   3.504  0.7460 -0.1956 -0.1185
  124SOPE   H5X13267   6.323   4.608   3.450  0.4053 -0.0639 -0.4973
  124SOPE   H5Y13268   6.190   4.696   3.509  0.6738 -1.1872 -1.9860
  124SOPE   C3613269   6.371   4.697   3.637 -0.4626 -0.5784 -1.1647
  124SOPE   H6X13270   6.346   4.794   3.686  0.2818 -1.9121  2.0338
  124SOPE   H6Y13271   6.481   4.696   3.622 -0.2371  1.0343  0.0674
  124SOPE   C3713272   6.315   4.605   3.747 -0.7998  0.1249 -0.0683
  124SOPE   H7X13273   6.343   4.504   3.712 -0.8503  0.5001 -1.2289
  124SOPE   H7Y13274   6.206   4.618   3.766 -0.6139 -0.6080  1.7255
  124SOPE   C3813275   6.381   4.634   3.882 -0.2603 -0.1513 -0.3782
  124SOPE   H8X13276   6.359   4.736   3.920  1.6630  0.3335 -0.4834
  124SOPE   H8Y13277   6.490   4.621   3.865 -0.3101 -1.4718  0.1530
  124SOPE   C3913278   6.349   4.525   3.987 -0.0922 -0.7636 -1.4169
  124SOPE   H9X13279   6.366   4.428   3.935  2.2773 -0.8992 -0.4868
  124SOPE   H9Y13280   6.241   4.533   4.013  0.5331 -0.7248  1.5384
  124SOPE  C31013281   6.439   4.544   4.109  0.4907 -0.2654  0.0219
  124SOPE  H10X13282   6.427   4.648   4.147 -0.7039  0.3365 -1.9153
  124SOPE  H10Y13283   6.544   4.538   4.073  0.5898  0.7345  0.1183
  124SOPE  C31113284   6.411   4.447   4.228 -0.2751 -0.1882  0.4145
  124SOPE  H11X13285   6.478   4.482   4.310 -0.7430  1.2059  0.2273
  124SOPE  H11Y13286   6.444   4.347   4.192 -1.9671 -0.5985 -0.1239
  124SOPE  C31213287   6.265   4.446   4.274 -0.1089  0.0467  0.0171
  124SOPE  H12X13288   6.195   4.417   4.193 -0.7203 -4.4741  1.8770
  124SOPE  H12Y13289   6.228   4.546   4.306 -3.8083 -0.6310 -1.5686
  124SOPE  C31313290   6.227   4.345   4.388 -0.1810  0.4223 -0.1722
  124SOPE  H13X13291   6.306   4.354   4.465  0.9696  0.6971 -1.3494
  124SOPE  H13Y13292   6.222   4.243   4.345 -1.1576 -0.8024  2.5962
  124SOPE  C31413293   6.096   4.363   4.463 -0.1372  0.2143 -0.6855
  124SOPE  H14X13294   6.070   4.279   4.531  1.0612  0.5521  0.2211
  124SOPE  H14Y13295   6.009   4.373   4.394 -0.8915  0.2420  0.2471
  124SOPE  C31513296   6.092   4.489   4.553 -0.1453 -0.4553 -0.0723
  124SOPE  H15X13297   6.145   4.570   4.499 -0.2578 -0.3259  0.0116
  124SOPE  H15Y13298   6.160   4.471   4.639 -1.0935  0.7355  0.9710
  124SOPE  C31613299   5.960   4.548   4.582 -0.4561 -0.1800  0.4789
  124SOPE  H16X13300   5.908   4.560   4.485 -0.7590 -0.0428  0.6586
  124SOPE  H16Y13301   5.977   4.644   4.635  0.4821  0.3056 -0.6395
  124SOPE  C31713302   5.881   4.464   4.678 -0.4220  0.0206 -0.8003
  124SOPE  H17X13303   5.950   4.452   4.764  2.6944  0.6406 -3.0623
  124SOPE  H17Y13304   5.862   4.362   4.638 -0.9945 -0.6834  1.1422
  124SOPE  C31813305   5.756   4.534   4.723 -0.1444  0.3035 -0.6402
  124SOPE  H18X13306   5.684   4.520   4.640 -1.1184  1.5755 -0.0251
  124SOPE  H18Y13307   5.782   4.641   4.738  0.3216  0.2945 -1.3225
  124SOPE  H18Z13308   5.716   4.483   4.813  1.7026 -1.6869 -0.8488
  125SOPE     N13309   3.154   3.513   2.196 -0.2734 -0.0461  0.3066
  125SOPE   HN113310   3.194   3.542   2.288 -1.6035 -1.2229  1.3022
  125SOPE   HN213311   3.084   3.440   2.218 -2.6477  2.4215  1.4949
  125SOPE   HN313312   3.223   3.477   2.126  0.6118  0.3580  0.9437
  125SOPE   C1213313   3.089   3.633   2.141  0.1895  0.4047 -0.3544
  125SOPE  H12A13314   3.024   3.610   2.054  0.0673  0.1601 -0.1991
  125SOPE  H12B13315   3.168   3.703   2.105 -0.8582  1.9404  0.2465
  125SOPE   C1113316   3.015   3.711   2.253  0.2389  0.1322 -0.2092
  125SOPE  H11A13317   2.934   3.641   2.282 -0.7068  1.1259 -0.3332
  125SOPE  H11B13318   2.955   3.789   2.201  0.2895 -1.5630 -3.0253
  125SOPE     P13319   3.112   3.682   2.497  0.2284 -0.2040 -0.3898
  125SOPE   O1313320   3.180   3.775   2.592 -0.2493  0.4004  0.1093
  125SOPE   O1413321   3.176   3.548   2.474  0.1588  0.4814  0.0766
  125SOPE   O1213322   3.097   3.767   2.361  0.1828  0.9369 -0.2729
  125SOPE   O1113323   2.967   3.657   2.539 -0.3025  0.0381 -0.3602
  125SOPE    C113324   2.866   3.759   2.512 -0.6729 -0.6477  0.6567
  125SOPE    HA13325   2.805   3.729   2.424  1.9855 -0.6030 -1.3093
  125SOPE    HB13326   2.905   3.860   2.488 -0.8811 -0.5377  0.7761
  125SOPE    C213327   2.760   3.766   2.627  0.1898  0.4332 -0.4418
  125SOPE    HS13328   2.702   3.859   2.613 -3.0313 -1.4846 -0.9829
  125SOPE   O2113329   2.827   3.749   2.757  0.4457  0.2098  0.0421
  125SOPE   C2113330   2.883   3.854   2.805 -0.3471  0.2171  0.2073
  125SOPE   O2213331   2.887   3.962   2.749 -0.2572  0.0360  0.3655
  125SOPE   C2213332   2.952   3.820   2.934 -0.1944  0.0602  0.2605
  125SOPE   H2R13333   2.969   3.915   2.991 -0.7271  1.2539 -1.4877
  125SOPE   H2S13334   3.050   3.771   2.917  0.7741  1.2461  1.9820
  125SOPE    C313335   2.663   3.644   2.610  0.7060 -0.6784  0.5367
  125SOPE    HX13336   2.720   3.549   2.617  1.3029 -0.5370 -1.6870
  125SOPE    HY13337   2.627   3.655   2.505  0.9042  0.3091  0.5680
  125SOPE   O3113338   2.559   3.649   2.709  0.2164 -0.2838  0.3694
  125SOPE   C3113339   2.435   3.609   2.677 -0.6760 -0.1759  0.2902
  125SOPE   O3213340   2.405   3.553   2.573 -0.8536  0.2253  0.4065
  125SOPE   C3213341   2.350   3.621   2.801  0.2267 -0.0211 -0.2499
  125SOPE   H2X13342   2.359   3.728   2.827 -1.0552  0.2726 -0.9511
  125SOPE   H2Y13343   2.389   3.564   2.889 -1.2067 -0.2257  0.2835
  125SOPE   C2313344   2.868   3.719   3.017 -0.4658  0.3204  0.3306
  125SOPE   H3R13345   2.891   3.618   2.979  0.3745  0.7811 -0.4109
  125SOPE   H3S13346   2.758   3.734   3.009 -0.3522  0.1158 -2.4093
  125SOPE   C2413347   2.903   3.740   3.164 -0.3507 -0.0602 -0.7135
  125SOPE   H4R13348   3.012   3.726   3.178 -0.1698  2.0717  0.5048
  125SOPE   H4S13349   2.878   3.843   3.198  0.4758  0.1798 -0.7897
  125SOPE   C2513350   2.827   3.638   3.245  0.5311 -0.3835  0.4041
  125SOPE   H5R13351   2.725   3.666   3.279  1.4137  1.4918  1.7269
  125SOPE   H5S13352   2.837   3.539   3.197 -0.1225 -0.2675  0.0235
  125SOPE   C2613353   2.895   3.615   3.384  0.4189 -0.4842  0.3877
  125SOPE   H6R13354   2.998   3.581   3.364  0.1808 -0.2962 -1.2493
  125SOPE   H6S13355   2.902   3.714   3.433 -1.5439  0.6731 -1.4731
  125SOPE   C2713356   2.826   3.502   3.468  0.3226 -0.4617 -0.2816
  125SOPE   H7R13357   2.719   3.526   3.452  0.4100 -0.4371 -0.8355
  125SOPE   H7S13358   2.841   3.401   3.423 -1.9434 -1.3706  0.8057
  125SOPE   C2813359   2.848   3.501   3.621  0.1971 -0.3814  0.3346
  125SOPE   H8R13360   2.811   3.601   3.652 -0.1342 -0.1345 -0.7885
  125SOPE   H8S13361   2.800   3.422   3.682  1.4797 -0.1909  1.6322
  125SOPE   C2913362   2.995   3.499   3.644 -0.7075 -0.4190 -0.4381
  125SOPE   H9113363   3.049   3.589   3.611 -0.8047 -0.6901 -1.3630
  125SOPE  C21013364   3.059   3.404   3.720  0.3062 -0.6402  0.2345
  125SOPE  H10113365   3.169   3.408   3.726  0.2216  0.8804  1.2826
  125SOPE  C21113366   2.990   3.279   3.773  0.5812  0.0923 -0.2210
  125SOPE  H11R13367   2.963   3.217   3.686 -0.9355  0.3374  0.0545
  125SOPE  H11S13368   2.903   3.305   3.838  0.1824 -2.4548  0.3488
  125SOPE  C21213369   3.078   3.196   3.869  0.2906  0.6452  0.8065
  125SOPE  H12R13370   3.176   3.171   3.823  0.5808 -0.1736  1.8351
  125SOPE  H12S13371   3.016   3.107   3.889  1.3640 -0.7318 -1.5875
  125SOPE  C21313372   3.114   3.266   3.999 -0.1645  0.3021  0.2097
  125SOPE  H13R13373   3.184   3.350   3.983  0.9693  0.0554  3.2554
  125SOPE  H13S13374   3.175   3.187   4.048 -0.9442 -0.2792  0.2620
  125SOPE  C21413375   2.990   3.310   4.079  0.2770 -0.7914  0.3250
  125SOPE  H14R13376   2.921   3.224   4.098  0.8819 -1.0253  1.5668
  125SOPE  H14S13377   2.936   3.393   4.029  2.1797  2.0644  2.6713
  125SOPE  C21513378   3.024   3.373   4.216 -0.8845 -0.2626  0.3653
  125SOPE  H15R13379   3.081   3.467   4.197  0.0093 -1.1339 -1.6978
  125SOPE  H15S13380   3.093   3.300   4.262 -0.4255 -0.4106 -0.5198
  125SOPE  C21613381   2.908   3.397   4.312  0.5728  0.5466  0.2502
  125SOPE  H16R13382   2.822   3.445   4.260 -0.4950 -2.9859 -1.5180
  125SOPE  H16S13383   2.940   3.470   4.389 -0.4764  1.2741  0.0132
  125SOPE  C21713384   2.871   3.269   4.391  0.4302  0.1569 -0.5796
  125SOPE  H17R13385   2.953   3.228   4.453 -1.4807 -4.6699 -0.7368
  125SOPE  H17S13386   2.862   3.183   4.320  3.0905 -1.2597  0.6800
  125SOPE  C21813387   2.735   3.285   4.469 -0.4474 -0.4854  0.2792
  125SOPE  H18R13388   2.744   3.364   4.547 -0.4972  1.6950 -1.7760
  125SOPE  H18S13389   2.709   3.192   4.523 -0.7178 -0.1549  0.7316
  125SOPE  H18T13390   2.656   3.327   4.403 -0.3268  1.9529  1.5476
  125SOPE   C3313391   2.201   3.581   2.792 -0.0509 -0.6083  0.4968
  125SOPE   H3X13392   2.192   3.481   2.744 -0.2069 -0.0231 -0.7384
  125SOPE   H3Y13393   2.151   3.656   2.726  2.0299  1.2625  0.9329
  125SOPE   C3413394   2.138   3.585   2.934 -0.3606 -0.4611  0.2929
  125SOPE   H4X13395   2.135   3.694   2.954  0.9521 -0.0656 -1.4797
  125SOPE   H4Y13396   2.199   3.543   3.017 -0.6476  0.8018  1.1828
  125SOPE   C3513397   1.988   3.541   2.928 -0.2261  0.2977 -0.5605
  125SOPE   H5X13398   1.981   3.431   2.911  0.5676  0.0308  0.6620
  125SOPE   H5Y13399   1.940   3.598   2.846  1.0354  0.0311 -1.5178
  125SOPE   C3613400   1.898   3.574   3.058 -0.3240  0.0403 -0.2302
  125SOPE   H6X13401   1.795   3.536   3.041 -0.4929  0.6935 -0.7070
  125SOPE   H6Y13402   1.902   3.683   3.080 -0.1533 -0.5269  3.0385
  125SOPE   C3713403   1.959   3.513   3.188  0.6309 -0.5342  0.7988
  125SOPE   H7X13404   2.066   3.538   3.207  0.3814  1.3143 -0.0531
  125SOPE   H7Y13405   1.948   3.403   3.177  1.4732 -0.3936 -2.6743
  125SOPE   C3813406   1.870   3.551   3.306 -1.2200  0.7488  0.2120
  125SOPE   H8X13407   1.771   3.507   3.284 -0.8619 -0.2738  0.5872
  125SOPE   H8Y13408   1.867   3.662   3.306  0.4340  0.8327 -0.4610
  125SOPE   C3913409   1.913   3.497   3.445  0.3107  0.2439  0.4572
  125SOPE   H9X13410   2.022   3.505   3.469  0.6160  1.4847 -1.1595
  125SOPE   H9Y13411   1.892   3.389   3.430  0.2591  0.4338 -0.8966
  125SOPE  C31013412   1.828   3.553   3.555 -1.0896 -0.2590 -0.3756
  125SOPE  H10X13413   1.724   3.532   3.522 -1.3892  1.9355 -0.9700
  125SOPE  H10Y13414   1.844   3.663   3.560 -1.2902 -0.1686 -1.5171
  125SOPE  C31113415   1.841   3.481   3.697 -0.6090  0.0377 -0.0060
  125SOPE  H11X13416   1.947   3.483   3.731 -0.1779 -2.3742 -1.0616
  125SOPE  H11Y13417   1.808   3.377   3.678  0.6227  0.0531 -2.6380
  125SOPE  C31213418   1.768   3.557   3.804 -0.1007  0.1272 -0.7311
  125SOPE  H12X13419   1.728   3.487   3.880 -0.8563  1.9960  0.6995
  125SOPE  H12Y13420   1.675   3.599   3.759 -0.0184 -1.3725 -2.3827
  125SOPE  C31313421   1.843   3.674   3.871  0.1954 -0.2690  0.0067
  125SOPE  H13X13422   1.870   3.754   3.799 -1.2961  1.8507  1.6283
  125SOPE  H13Y13423   1.941   3.640   3.909  0.9413  1.9360  0.1882
  125SOPE  C31413424   1.775   3.738   3.996 -0.4110 -0.1307  0.5136
  125SOPE  H14X13425   1.667   3.714   3.988 -0.6141  1.0988 -1.4090
  125SOPE  H14Y13426   1.770   3.849   3.993 -1.0887 -0.1178  1.6585
  125SOPE  C31513427   1.840   3.709   4.134 -0.6627  0.2893 -0.4885
  125SOPE  H15X13428   1.949   3.727   4.146 -0.4916 -1.4470  0.8771
  125SOPE  H15Y13429   1.823   3.601   4.151  0.1333 -0.1087 -2.0195
  125SOPE  C31613430   1.765   3.784   4.237  0.6885  0.0224 -0.2039
  125SOPE  H16X13431   1.659   3.758   4.216 -0.0146  1.4539  1.4161
  125SOPE  H16Y13432   1.759   3.894   4.220  0.9438  0.1463  0.4799
  125SOPE  C31713433   1.770   3.758   4.387  0.6594  0.6571  0.1942
  125SOPE  H17X13434   1.719   3.833   4.451  0.9516  0.3064  0.8483
  125SOPE  H17Y13435   1.878   3.766   4.412  0.5011  1.4803  0.6682
  125SOPE  C31813436   1.716   3.617   4.415  0.1935 -0.3437  0.3372
  125SOPE  H18X13437   1.763   3.534   4.358 -1.9290 -0.0516 -2.0458
  125SOPE  H18Y13438   1.613   3.612   4.373  0.2585  1.1763 -0.0459
  125SOPE  H18Z13439   1.716   3.606   4.525  2.0589  2.6749  0.7380
  126SOPE     N13440   2.877   1.528   1.782  0.0632  0.4758  0.0053
  126SOPE   HN113441   2.968   1.564   1.816  1.6007 -1.2649 -2.0055
  126SOPE   HN213442   2.839   1.464   1.855  0.1354  0.3056 -0.1042
  126SOPE   HN313443   2.894   1.482   1.690 -3.5700 -0.0682 -0.5612
  126SOPE   C1213444   2.784   1.644   1.752  0.4940 -0.2941 -0.5123
  126SOPE  H12A13445   2.686   1.592   1.742  0.6193 -0.5945 -0.1598
  126SOPE  H12B13446   2.816   1.688   1.655 -0.6389 -2.1815 -1.8276
  126SOPE   C1113447   2.788   1.748   1.871 -0.0514  0.0054 -0.4340
  126SOPE  H11A13448   2.791   1.681   1.959 -0.4217 -0.6451 -0.9053
  126SOPE  H11B13449   2.690   1.800   1.868  1.4078  2.9150 -0.3078
  126SOPE     P13450   2.879   1.983   1.903  0.4307 -0.0280 -0.2796
  126SOPE   O1313451   2.787   2.061   1.812 -0.8837 -0.1088  0.3229
  126SOPE   O1413452   3.012   2.040   1.932  0.0369  0.1903 -0.3667
  126SOPE   O1213453   2.899   1.839   1.849  0.4883  0.8555 -0.1266
  126SOPE   O1113454   2.806   1.961   2.045  0.4216  0.5058  0.1868
  126SOPE    C113455   2.868   1.900   2.161  0.5475  0.7938  0.1129
  126SOPE    HA13456   2.964   1.856   2.127  0.4069  0.9226 -0.4570
  126SOPE    HB13457   2.807   1.817   2.203  0.8013  0.3756 -0.3456
  126SOPE    C213458   2.905   2.004   2.266 -0.7086 -0.8027 -0.0255
  126SOPE    HS13459   2.987   2.062   2.220 -1.0271  0.8028  1.3411
  126SOPE   O2113460   2.944   1.934   2.391  0.2682 -0.6436 -0.0290
  126SOPE   C2113461   3.034   2.000   2.459  0.5508  0.0740  0.5451
  126SOPE   O2213462   3.097   2.094   2.411 -0.4338  0.1870 -0.4138
  126SOPE   C2213463   3.052   1.949   2.601  0.8501  0.1448 -0.4201
  126SOPE   H2R13464   3.113   2.020   2.660 -1.2093  1.1239  0.6443
  126SOPE   H2S13465   3.103   1.850   2.595  1.7710  0.4428  1.6217
  126SOPE    C313466   2.790   2.109   2.291  0.4228  0.2375 -0.2864
  126SOPE    HX13467   2.702   2.053   2.331  1.7363 -1.3748  0.4998
  126SOPE    HY13468   2.754   2.151   2.194 -3.4678 -2.2515 -0.1663
  126SOPE   O3113469   2.834   2.214   2.376 -0.6668 -0.7260 -0.3176
  126SOPE   C3113470   2.798   2.338   2.356 -0.0118  0.4659  0.5610
  126SOPE   O3213471   2.729   2.374   2.263  0.1838 -1.0262  0.0590
  126SOPE   C3213472   2.853   2.420   2.476 -0.2346  0.5174 -0.0256
  126SOPE   H2X13473   2.820   2.524   2.458  2.6868  1.4055 -0.8754
  126SOPE   H2Y13474   2.964   2.423   2.463 -0.1567 -1.2229  0.0608
  126SOPE   C2313475   2.911   1.937   2.666  0.0372  0.1387 -0.1769
  126SOPE   H3R13476   2.847   1.871   2.603  1.5599 -1.2638 -0.3065
  126SOPE   H3S13477   2.850   2.027   2.690  0.0372  0.2944 -0.7445
  126SOPE   C2413478   2.921   1.868   2.804  0.1601  0.1531 -0.5623
  126SOPE   H4R13479   2.819   1.836   2.835  0.2844 -0.6200 -0.9313
  126SOPE   H4S13480   2.973   1.770   2.803 -0.4857 -0.2537  1.3097
  126SOPE   C2513481   2.979   1.961   2.914  0.3874  0.1157 -0.2561
  126SOPE   H5R13482   2.963   2.067   2.885  1.6572  0.8120  1.3758
  126SOPE   H5S13483   2.923   1.931   3.005  0.7105  3.1437  1.0418
  126SOPE   C2613484   3.126   1.941   2.938  0.0248  0.3490 -0.7135
  126SOPE   H6R13485   3.164   1.889   2.847 -0.4332 -3.3874  1.0300
  126SOPE   H6S13486   3.179   2.038   2.947  0.0247  0.2838  0.0451
  126SOPE   C2713487   3.153   1.857   3.060  0.6461  0.8476 -0.3531
  126SOPE   H7R13488   3.076   1.779   3.073  1.0582  0.5187  0.1688
  126SOPE   H7S13489   3.252   1.806   3.051  0.3619  0.2617 -0.1921
  126SOPE   C2813490   3.142   1.933   3.196  0.5780 -0.5788  0.1374
  126SOPE   H8R13491   3.202   2.026   3.185  1.5049 -1.0890  0.6805
  126SOPE   H8S13492   3.037   1.969   3.200 -0.5124 -2.9551 -2.9964
  126SOPE   C2913493   3.187   1.864   3.324 -0.4105 -0.3787  0.5700
  126SOPE   H9113494   3.292   1.833   3.314 -0.6479 -0.8639 -0.5073
  126SOPE  C21013495   3.120   1.832   3.439 -0.3468  0.6684 -0.2250
  126SOPE  H10113496   3.173   1.776   3.518 -2.8472 -2.4322 -0.5352
  126SOPE  C21113497   2.976   1.866   3.458 -0.0252 -0.4659 -0.2112
  126SOPE  H11R13498   2.903   1.827   3.383 -1.9211 -0.1220  1.3876
  126SOPE  H11S13499   2.966   1.976   3.462  3.2090 -0.0932  1.0211
  126SOPE  C21213500   2.926   1.817   3.590 -0.2652  0.4042  0.2294
  126SOPE  H12R13501   2.950   1.711   3.611  1.5378  0.8919  0.8240
  126SOPE  H12S13502   2.815   1.825   3.583 -0.1869  0.9032 -0.7362
  126SOPE  C21313503   2.967   1.908   3.706  0.1594  0.7883  0.1288
  126SOPE  H13R13504   2.914   2.005   3.695  0.3420  0.6283 -3.0486
  126SOPE  H13S13505   3.076   1.929   3.704  0.3135  0.0414 -1.9637
  126SOPE  C21413506   2.927   1.847   3.845  0.6933 -0.0516 -0.5139
  126SOPE  H14R13507   2.830   1.795   3.829  0.7320 -0.0972 -0.5981
  126SOPE  H14S13508   2.922   1.919   3.929  1.1787 -0.5694 -0.0309
  126SOPE  C21513509   3.041   1.757   3.902  0.4968 -1.8350 -0.2060
  126SOPE  H15R13510   3.122   1.826   3.932  0.8256 -0.7363 -3.2906
  126SOPE  H15S13511   3.070   1.706   3.807  0.1484  2.4047 -2.8288
  126SOPE  C21613512   3.000   1.674   4.011  0.3300 -0.1146  0.4172
  126SOPE  H16R13513   2.962   1.733   4.096  0.3667 -0.6292  0.8003
  126SOPE  H16S13514   3.094   1.627   4.048  0.3829 -2.3988 -2.2576
  126SOPE  C21713515   2.889   1.571   3.978 -0.5329 -0.6263  0.2926
  126SOPE  H17R13516   2.913   1.546   3.873  3.1559  2.4759  0.1846
  126SOPE  H17S13517   2.794   1.628   3.982  0.1879  0.6512 -0.2048
  126SOPE  C21813518   2.884   1.441   4.057 -0.4106  0.4086 -0.8208
  126SOPE  H18R13519   2.892   1.459   4.166 -0.1272  0.4306 -0.8439
  126SOPE  H18S13520   2.972   1.381   4.025  1.5419  1.5665  1.9703
  126SOPE  H18T13521   2.787   1.389   4.046 -1.4181  1.7299  1.1488
  126SOPE   C3313522   2.804   2.367   2.621  0.6568 -0.1468 -0.8292
  126SOPE   H3X13523   2.855   2.270   2.641 -0.2558 -0.7483 -1.3786
  126SOPE   H3Y13524   2.695   2.345   2.618  0.2920  1.3648  0.3506
  126SOPE   C3413525   2.832   2.469   2.723  0.4641  0.1715  0.3511
  126SOPE   H4X13526   2.745   2.536   2.701  0.6154 -0.2417 -1.7271
  126SOPE   H4Y13527   2.925   2.528   2.711 -1.2621  2.8111 -1.3813
  126SOPE   C3513528   2.833   2.409   2.863  0.2641 -0.5065 -0.1514
  126SOPE   H5X13529   2.760   2.327   2.880 -1.2542  0.7169 -0.5655
  126SOPE   H5Y13530   2.803   2.496   2.926  0.5484 -0.0258 -0.6669
  126SOPE   C3613531   2.969   2.380   2.926 -0.2095  0.9481  0.2685
  126SOPE   H6X13532   3.033   2.471   2.926  0.6394  0.3704 -0.3131
  126SOPE   H6Y13533   3.021   2.297   2.873 -0.2362  1.2138 -0.1770
  126SOPE   C3713534   2.963   2.322   3.063  0.0811  0.0195 -0.3888
  126SOPE   H7X13535   3.062   2.289   3.099 -0.6887 -1.4112  0.5176
  126SOPE   H7Y13536   2.894   2.235   3.062  1.3469 -1.0235  0.5458
  126SOPE   C3813537   2.909   2.416   3.177 -0.2722 -0.0895  0.2094
  126SOPE   H8X13538   2.799   2.414   3.164 -0.4218 -0.1076  1.3343
  126SOPE   H8Y13539   2.950   2.517   3.155  1.8393 -0.8999  0.1178
  126SOPE   C3913540   2.956   2.369   3.315 -0.4425  0.0016  0.2922
  126SOPE   H9X13541   3.062   2.401   3.325  0.2259 -2.1490  0.5863
  126SOPE   H9Y13542   2.952   2.259   3.324  3.8159 -0.3688 -0.3069
  126SOPE  C31013543   2.868   2.432   3.426  0.7504 -0.7578 -0.7043
  126SOPE  H10X13544   2.767   2.388   3.441  0.1346  0.5416 -0.9012
  126SOPE  H10Y13545   2.853   2.530   3.377  2.6562 -1.3890 -2.7497
  126SOPE  C31113546   2.942   2.439   3.559 -0.3098 -0.4425  0.1421
  126SOPE  H11X13547   2.886   2.499   3.635 -0.6063 -0.3257 -0.1685
  126SOPE  H11Y13548   3.043   2.484   3.549  0.0512 -1.1089  0.7507
  126SOPE  C31213549   2.949   2.308   3.633  0.2354  0.5805 -0.3832
  126SOPE  H12X13550   3.011   2.242   3.569  0.4129  0.7644 -0.4007
  126SOPE  H12Y13551   2.854   2.255   3.654  0.9406 -0.5552  0.0171
  126SOPE  C31313552   3.018   2.316   3.765  0.2869  0.4352 -0.8085
  126SOPE  H13X13553   3.108   2.380   3.752 -0.9958  1.9825 -2.4281
  126SOPE  H13Y13554   3.051   2.213   3.793  3.4516  0.8886 -2.4490
  126SOPE  C31413555   2.943   2.375   3.875 -0.0564 -0.3516 -0.1496
  126SOPE  H14X13556   2.922   2.478   3.841 -1.2359 -0.9081 -1.2034
  126SOPE  H14Y13557   3.010   2.403   3.959 -2.4027  0.1283  1.6668
  126SOPE  C31513558   2.821   2.293   3.927 -0.0864 -0.1714  0.1794
  126SOPE  H15X13559   2.851   2.196   3.970 -0.7879  0.2014  1.5716
  126SOPE  H15Y13560   2.759   2.277   3.837 -1.6825  0.2623  1.1524
  126SOPE  C31613561   2.733   2.368   4.038  0.2074 -0.6056 -0.1398
  126SOPE  H16X13562   2.708   2.468   3.995 -0.6843 -0.5518  0.4750
  126SOPE  H16Y13563   2.792   2.368   4.133 -1.3753  2.0303  0.9641
  126SOPE  C31713564   2.598   2.307   4.074 -0.3981 -0.1401  0.0806
  126SOPE  H17X13565   2.618   2.203   4.104 -0.2554 -0.0744  0.2150
  126SOPE  H17Y13566   2.525   2.299   3.990 -2.9886  1.2568  2.0686
  126SOPE  C31813567   2.524   2.382   4.184  0.3870  1.1454 -0.1726
  126SOPE  H18X13568   2.431   2.324   4.197  0.3927  0.7632 -1.5883
  126SOPE  H18Y13569   2.505   2.488   4.154  1.6344  1.1362 -1.0950
  126SOPE  H18Z13570   2.581   2.385   4.279  2.6105  0.7693 -1.3984
  127SOPE     N13571   5.678   4.097   2.067  0.3047  0.2633 -0.0492
  127SOPE   HN113572   5.762   4.097   2.128  0.2140  1.5563  0.1108
  127SOPE   HN213573   5.677   4.016   2.002 -0.9588  1.5674 -1.7469
  127SOPE   HN313574   5.684   4.181   2.006  0.3103 -0.0422 -0.4761
  127SOPE   C1213575   5.549   4.098   2.144 -0.2805  0.0960 -0.2730
  127SOPE  H12A13576   5.462   4.110   2.076 -0.9379 -0.8400  0.3796
  127SOPE  H12B13577   5.553   4.184   2.214 -1.2102  0.9540 -1.2310
  127SOPE   C1113578   5.529   3.963   2.231  0.1286  0.8300  0.5105
  127SOPE  H11A13579   5.424   3.957   2.269  0.3102 -0.8063  0.8103
  127SOPE  H11B13580   5.594   3.965   2.321 -0.9527  0.2377  1.3335
  127SOPE     P13581   5.540   3.701   2.186 -0.1269 -0.4493  0.0205
  127SOPE   O1313582   5.666   3.628   2.167 -0.4466 -0.3548 -0.2316
  127SOPE   O1413583   5.417   3.659   2.108 -0.3366  0.3787 -0.0115
  127SOPE   O1213584   5.566   3.849   2.151 -0.0633 -0.1138 -0.7932
  127SOPE   O1113585   5.511   3.722   2.340 -0.7071  0.2593  0.1312
  127SOPE    C113586   5.602   3.692   2.448  0.3832 -0.3069  0.0325
  127SOPE    HA13587   5.565   3.750   2.535 -3.6030  0.8612 -2.1604
  127SOPE    HB13588   5.701   3.734   2.420 -0.4687  2.5076  0.8765
  127SOPE    C213589   5.600   3.538   2.491 -0.3034 -0.0821 -0.0352
  127SOPE    HS13590   5.591   3.492   2.390 -0.7018  2.0060 -1.0232
  127SOPE   O2113591   5.482   3.515   2.573 -0.5954  0.7641  0.3155
  127SOPE   C2113592   5.430   3.394   2.563 -0.3137 -0.7568  0.6863
  127SOPE   O2213593   5.479   3.308   2.492  0.6166 -0.0313  0.3483
  127SOPE   C2213594   5.309   3.376   2.648  0.2738 -0.5994 -0.7036
  127SOPE   H2R13595   5.230   3.446   2.615  0.2450 -0.3401 -0.1078
  127SOPE   H2S13596   5.338   3.406   2.751 -1.6128 -0.5526 -0.1619
  127SOPE    C313597   5.733   3.504   2.565  0.5955  1.2463  0.2867
  127SOPE    HX13598   5.822   3.505   2.499  0.0255  0.1711 -0.5132
  127SOPE    HY13599   5.724   3.397   2.594 -1.2099  0.9452 -1.2288
  127SOPE   O3113600   5.746   3.588   2.681  0.5966  0.3450 -0.6524
  127SOPE   C3113601   5.706   3.530   2.801 -0.3403 -0.9729  0.9630
  127SOPE   O3213602   5.668   3.415   2.818 -0.3870 -0.2259  0.4236
  127SOPE   C3213603   5.732   3.632   2.915 -0.2619 -0.0690 -0.2032
  127SOPE   H2X13604   5.689   3.731   2.890 -1.2217 -0.0703  1.2907
  127SOPE   H2Y13605   5.841   3.646   2.933 -0.1670 -0.0996 -0.7428
  127SOPE   C2313606   5.263   3.226   2.634 -0.1658 -0.5828 -0.3888
  127SOPE   H3R13607   5.349   3.159   2.653  1.6154  2.0543  1.6429
  127SOPE   H3S13608   5.228   3.217   2.529  0.4539  0.3822 -0.6930
  127SOPE   C2413609   5.149   3.190   2.725  0.2313  1.4222  0.4654
  127SOPE   H4R13610   5.052   3.225   2.684 -0.1360  0.1789  0.2073
  127SOPE   H4S13611   5.140   3.080   2.713  1.6037  1.2405  0.9443
  127SOPE   C2513612   5.179   3.231   2.867  0.2741 -0.2059 -0.2453
  127SOPE   H5R13613   5.282   3.203   2.896 -0.0438 -0.3529  0.7963
  127SOPE   H5S13614   5.167   3.341   2.873  2.3204  0.0802 -0.6418
  127SOPE   C2613615   5.074   3.158   2.950  0.5888  0.2680  0.6186
  127SOPE   H6R13616   4.975   3.180   2.904  1.4810  1.0617 -0.9933
  127SOPE   H6S13617   5.098   3.049   2.954 -1.4834 -0.2043  1.3011
  127SOPE   C2713618   5.062   3.209   3.091  0.5423 -0.7072 -0.8169
  127SOPE   H7R13619   5.160   3.204   3.144 -0.8563  0.4998  2.1061
  127SOPE   H7S13620   5.032   3.316   3.095 -1.2884 -1.2139  1.3867
  127SOPE   C2813621   4.966   3.129   3.183  0.1325  0.0418  0.3902
  127SOPE   H8R13622   4.865   3.136   3.139  1.0192 -1.5748 -2.1831
  127SOPE   H8S13623   4.996   3.022   3.187  2.3625  0.5851 -0.2176
  127SOPE   C2913624   4.964   3.191   3.320 -0.1815  0.1995 -0.6465
  127SOPE   H9113625   4.929   3.295   3.311  0.1493  0.7038  2.4799
  127SOPE  C21013626   5.002   3.142   3.441 -0.0121 -0.3021  0.3142
  127SOPE  H10113627   4.979   3.210   3.525  0.1106  3.1423 -2.2426
  127SOPE  C21113628   5.053   3.008   3.474  0.4188  0.2914 -0.4211
  127SOPE  H11R13629   5.077   2.954   3.380 -2.4910  0.2554 -1.2598
  127SOPE  H11S13630   4.974   2.947   3.522  0.2095  0.8650 -0.0266
  127SOPE  C21213631   5.171   3.007   3.575  0.2445  0.2880  0.3161
  127SOPE  H12R13632   5.224   3.104   3.563 -1.3407  1.1907  0.3286
  127SOPE  H12S13633   5.245   2.924   3.571  0.5675  0.3327  3.0345
  127SOPE  C21313634   5.112   3.013   3.717  0.1656 -0.4575  0.1538
  127SOPE  H13R13635   5.035   2.936   3.738  0.0342 -0.3501  0.0742
  127SOPE  H13S13636   5.062   3.111   3.735 -0.9298 -0.8400 -0.7241
  127SOPE  C21413637   5.230   3.000   3.814 -0.4830 -0.4140  0.6887
  127SOPE  H14R13638   5.208   3.044   3.914 -2.5463 -2.2726  1.1385
  127SOPE  H14S13639   5.315   3.058   3.772  0.6465 -1.3868  1.5653
  127SOPE  C21513640   5.295   2.866   3.833  1.2142  0.5673 -0.0525
  127SOPE  H15R13641   5.396   2.877   3.877 -0.3479  1.3813  3.7771
  127SOPE  H15S13642   5.314   2.813   3.738  3.1316 -1.7875  1.5106
  127SOPE  C21613643   5.212   2.774   3.927 -0.3534 -0.0975 -0.3853
  127SOPE  H16R13644   5.273   2.682   3.927 -1.2022 -0.6922 -2.0524
  127SOPE  H16S13645   5.118   2.748   3.875  0.0835  0.1326 -1.3136
  127SOPE  C21713646   5.194   2.826   4.068 -0.5774 -0.3976 -0.4398
  127SOPE  H17R13647   5.135   2.920   4.072  0.0965  0.0724 -1.4267
  127SOPE  H17S13648   5.294   2.841   4.114 -1.9813 -0.1326  2.8258
  127SOPE  C21813649   5.141   2.714   4.162  0.2218  0.2617  0.5370
  127SOPE  H18R13650   5.035   2.694   4.137  0.6628 -0.4770 -0.8514
  127SOPE  H18S13651   5.154   2.738   4.270  0.5081 -0.0649  0.5761
  127SOPE  H18T13652   5.194   2.618   4.144 -0.5603  0.1867 -1.6390
  127SOPE   C3313653   5.662   3.593   3.053 -0.4293  0.6744 -0.1061
  127SOPE   H3X13654   5.724   3.507   3.087  0.0896  1.2270  0.3814
  127SOPE   H3Y13655   5.553   3.575   3.049 -0.9810  3.1932  1.2323
  127SOPE   C3413656   5.691   3.705   3.163  0.4013  0.1249 -0.6212
  127SOPE   H4X13657   5.636   3.796   3.130  0.4818 -0.4360 -2.4013
  127SOPE   H4Y13658   5.801   3.718   3.158  0.5146 -0.1892  0.7278
  127SOPE   C3513659   5.653   3.665   3.305 -0.2816 -0.6131 -0.0262
  127SOPE   H5X13660   5.701   3.567   3.328 -1.7584 -1.2096  0.6546
  127SOPE   H5Y13661   5.543   3.657   3.320 -0.0023 -1.8489  1.6815
  127SOPE   C3613662   5.698   3.773   3.412  0.6782 -0.0783 -0.5521
  127SOPE   H6X13663   5.634   3.862   3.393 -0.1358 -1.0707 -2.8266
  127SOPE   H6Y13664   5.803   3.803   3.393  0.9751 -0.7103  0.0604
  127SOPE   C3713665   5.673   3.716   3.550 -0.3340 -0.7047 -0.3271
  127SOPE   H7X13666   5.731   3.624   3.569 -0.0883  0.1074  3.6863
  127SOPE   H7Y13667   5.565   3.697   3.568 -0.4646  1.7122  1.8731
  127SOPE   C3813668   5.723   3.821   3.657  0.4753 -0.2348  0.2030
  127SOPE   H8X13669   5.651   3.906   3.653  1.1735  0.3430 -0.9485
  127SOPE   H8Y13670   5.826   3.853   3.630  0.0137  0.9316 -0.2555
  127SOPE   C3913671   5.731   3.765   3.799 -0.5113 -0.2046 -0.2725
  127SOPE   H9X13672   5.751   3.854   3.863 -0.6437 -0.2120 -0.2217
  127SOPE   H9Y13673   5.823   3.703   3.804 -1.4478 -1.7978 -1.7283
  127SOPE  C31013674   5.610   3.697   3.860 -0.3379 -0.6491 -0.5468
  127SOPE  H10X13675   5.597   3.591   3.829 -1.1554 -0.5887 -0.4308
  127SOPE  H10Y13676   5.519   3.754   3.832  0.2911 -0.3928 -2.2132
  127SOPE  C31113677   5.628   3.682   4.017  0.0373  0.3424  0.1100
  127SOPE  H11X13678   5.528   3.660   4.061  1.7000 -3.3177  2.5237
  127SOPE  H11Y13679   5.672   3.770   4.069  1.2212 -0.4703  0.5161
  127SOPE  C31213680   5.715   3.563   4.061  1.0785 -0.5782  0.1773
  127SOPE  H12X13681   5.821   3.567   4.027  1.3191 -4.4675  0.0507
  127SOPE  H12Y13682   5.679   3.468   4.017  0.9804 -1.2909  1.7295
  127SOPE  C31313683   5.705   3.538   4.211  0.4538  0.0935  1.0093
  127SOPE  H13X13684   5.605   3.505   4.248 -1.0258  2.5229 -0.6022
  127SOPE  H13Y13685   5.723   3.632   4.268 -3.3496  0.9702  1.0444
  127SOPE  C31413686   5.821   3.441   4.253 -0.5760 -1.0572 -0.3561
  127SOPE  H14X13687   5.919   3.484   4.221 -0.0390 -2.5987 -0.8690
  127SOPE  H14Y13688   5.822   3.344   4.200  2.0980 -0.6212 -1.2590
  127SOPE  C31513689   5.821   3.406   4.404 -0.6468  0.2130  0.3796
  127SOPE  H15X13690   5.723   3.356   4.420  0.3129 -2.2009 -0.8860
  127SOPE  H15Y13691   5.841   3.502   4.457 -0.3045 -0.3113  1.2203
  127SOPE  C31613692   5.923   3.304   4.447  0.2549  0.7291  0.0957
  127SOPE  H16X13693   6.029   3.336   4.455  0.5846 -0.1878 -0.4011
  127SOPE  H16Y13694   5.912   3.225   4.370 -0.7384 -1.0847  2.0278
  127SOPE  C31713695   5.892   3.247   4.584 -0.0454 -0.0933  0.6916
  127SOPE  H17X13696   5.785   3.222   4.598  0.1618 -2.2204 -1.0693
  127SOPE  H17Y13697   5.896   3.341   4.644 -0.9171  0.6477 -0.3872
  127SOPE  C31813698   5.990   3.137   4.650  1.0552 -0.8529  0.0541
  127SOPE  H18X13699   5.990   3.044   4.589  0.2579  1.5222 -3.9720
  127SOPE  H18Y13700   5.935   3.114   4.744 -0.2837 -2.8892 -1.1530
  127SOPE  H18Z13701   6.089   3.183   4.670  0.5858  0.5512 -0.6741
  128SOPE     N13702   1.021   0.729   2.022 -0.6845  0.2302 -0.7536
  128SOPE   HN113703   0.974   0.799   2.082  0.3735  1.1009 -0.9176
  128SOPE   HN213704   0.950   0.677   1.966 -0.7870  1.2798 -1.6258
  128SOPE   HN313705   1.070   0.660   2.082  0.1022  0.8167 -0.7078
  128SOPE   C1213706   1.118   0.796   1.925 -0.1269  0.2506 -0.4075
  128SOPE  H12A13707   1.072   0.889   1.887  0.1563  0.7077  0.3529
  128SOPE  H12B13708   1.139   0.725   1.842 -2.1620  0.8169 -1.4611
  128SOPE   C1113709   1.254   0.830   1.995 -0.5187 -0.8661  0.0763
  128SOPE  H11A13710   1.318   0.856   1.908 -1.4768 -2.0789 -1.0270
  128SOPE  H11B13711   1.291   0.743   2.054  2.9069  0.0000 -0.5283
  128SOPE     P13712   1.320   1.062   2.113  0.0496  0.1475 -0.4910
  128SOPE   O1313713   1.238   1.172   2.169  0.0233  0.1279  0.0261
  128SOPE   O1413714   1.384   1.097   1.980  0.5624  0.2564  0.1059
  128SOPE   O1213715   1.225   0.942   2.085 -0.7347  0.2692 -0.0270
  128SOPE   O1113716   1.426   1.008   2.215  0.4698  0.2351  0.3064
  128SOPE    C113717   1.380   0.934   2.327  0.3918  0.0948 -0.5559
  128SOPE    HA13718   1.457   0.858   2.353 -1.0124 -0.8127  1.1313
  128SOPE    HB13719   1.286   0.875   2.317  0.9962 -0.6516 -2.4622
  128SOPE    C213720   1.365   1.023   2.450 -0.0116 -0.1948 -0.2854
  128SOPE    HS13721   1.276   1.088   2.437 -0.2916  0.1254  2.5215
  128SOPE   O2113722   1.488   1.100   2.459  0.2855 -0.1308 -0.6247
  128SOPE   C2113723   1.467   1.224   2.512 -1.2480 -0.0249 -0.4791
  128SOPE   O2213724   1.360   1.273   2.534  0.4536  0.4085 -0.2705
  128SOPE   C2213725   1.605   1.290   2.538  0.3752  0.0431 -0.0466
  128SOPE   H2R13726   1.636   1.329   2.438  0.4752 -1.5815 -0.6815
  128SOPE   H2S13727   1.683   1.215   2.563  0.9307 -0.7491 -3.6208
  128SOPE    C313728   1.360   0.936   2.574 -0.4300 -0.0143 -0.6541
  128SOPE    HX13729   1.443   0.863   2.574  0.0083  0.4709  0.0023
  128SOPE    HY13730   1.269   0.872   2.575 -1.5027  1.4189  0.9666
  128SOPE   O3113731   1.361   1.019   2.696 -0.9673 -0.0777 -0.3922
  128SOPE   C3113732   1.242   1.064   2.723  0.4680  0.0705  0.3453
  128SOPE   O3213733   1.138   1.033   2.669 -0.0667 -0.1719 -0.3277
  128SOPE   C3213734   1.256   1.159   2.841  0.9767 -0.1206  0.5581
  128SOPE   H2X13735   1.272   1.259   2.795 -2.2852  0.9754  1.5393
  128SOPE   H2Y13736   1.339   1.118   2.903  1.3534 -0.6273 -0.2627
  128SOPE   C2313737   1.607   1.420   2.623  0.3731 -0.2801  0.0006
  128SOPE   H3R13738   1.519   1.479   2.589  0.5047 -0.3497 -0.4619
  128SOPE   H3S13739   1.699   1.482   2.617 -1.2449  2.2449 -0.2717
  128SOPE   C2413740   1.583   1.378   2.769  0.8155 -0.0875  0.0604
  128SOPE   H4R13741   1.500   1.304   2.776  2.6083 -2.0561  1.8941
  128SOPE   H4S13742   1.669   1.317   2.802  1.1627  0.7810  0.8018
  128SOPE   C2513743   1.567   1.498   2.857  0.6968  0.6190  0.0557
  128SOPE   H5R13744   1.658   1.560   2.844  3.3679 -3.0762 -0.5643
  128SOPE   H5S13745   1.483   1.563   2.826  0.1808 -0.2350 -0.3516
  128SOPE   C2613746   1.561   1.470   3.009 -0.3904  0.2881 -0.4553
  128SOPE   H6R13747   1.549   1.557   3.077 -1.4777 -0.8402  0.8699
  128SOPE   H6S13748   1.470   1.409   3.031 -1.3420  2.0138  0.6040
  128SOPE   C2713749   1.678   1.394   3.071 -0.2722  0.0604 -0.6512
  128SOPE   H7R13750   1.700   1.301   3.014  1.6392  1.4679 -2.3389
  128SOPE   H7S13751   1.771   1.452   3.056 -2.2562  3.5300 -0.5031
  128SOPE   C2813752   1.659   1.366   3.222 -0.7374 -0.5375  0.2588
  128SOPE   H8R13753   1.553   1.333   3.232 -0.7618 -0.7611 -0.6486
  128SOPE   H8S13754   1.733   1.285   3.238 -1.1046 -0.7408  0.9557
  128SOPE   C2913755   1.695   1.479   3.312 -0.8452 -0.6514 -0.6145
  128SOPE   H9113756   1.607   1.539   3.339 -0.4503 -0.4210  0.2101
  128SOPE  C21013757   1.808   1.503   3.385  0.3198  0.4179 -0.5972
  128SOPE  H10113758   1.812   1.588   3.454 -1.1695 -0.8289  1.1200
  128SOPE  C21113759   1.934   1.417   3.371  0.8876  0.1919 -0.4463
  128SOPE  H11R13760   2.023   1.481   3.353  1.1413  0.1647  0.6422
  128SOPE  H11S13761   1.920   1.351   3.283 -2.5128  0.1442 -0.0194
  128SOPE  C21213762   1.976   1.333   3.498  0.0301  0.2271 -0.4233
  128SOPE  H12R13763   1.895   1.261   3.522  0.6827 -0.9796 -1.6825
  128SOPE  H12S13764   1.988   1.408   3.580 -1.0910  2.5395 -2.2418
  128SOPE  C21313765   2.114   1.265   3.485 -0.3761  1.3831 -0.3121
  128SOPE  H13R13766   2.188   1.338   3.446  1.0875  0.3675  0.4564
  128SOPE  H13S13767   2.101   1.194   3.401 -1.3595  2.6292 -1.2605
  128SOPE  C21413768   2.161   1.192   3.613  0.9144 -0.3780  0.1488
  128SOPE  H14R13769   2.074   1.141   3.660 -0.0194 -0.1974 -1.2942
  128SOPE  H14S13770   2.184   1.279   3.678  0.9610 -1.7017  1.9763
  128SOPE  C21513771   2.293   1.119   3.599  0.4917  0.5205 -0.5395
  128SOPE  H15R13772   2.360   1.193   3.549 -1.2676  1.7072 -1.2257
  128SOPE  H15S13773   2.279   1.035   3.528  1.4267  0.8040 -1.0756
  128SOPE  C21613774   2.346   1.078   3.735 -0.0016  0.1035 -0.1266
  128SOPE  H16R13775   2.350   1.170   3.798  3.1566 -0.7124  1.0408
  128SOPE  H16S13776   2.449   1.037   3.735  0.2186  0.1005  4.4405
  128SOPE  C21713777   2.250   0.973   3.802  0.2138  0.2557 -0.6234
  128SOPE  H17R13778   2.251   0.880   3.741 -4.0408  0.7159 -1.6960
  128SOPE  H17S13779   2.143   1.001   3.810  0.7084  1.7517  1.4135
  128SOPE  C21813780   2.301   0.948   3.954 -0.4475 -0.3686  1.1309
  128SOPE  H18R13781   2.267   0.847   3.983  1.5212 -1.3351  0.2583
  128SOPE  H18S13782   2.261   1.028   4.021  3.3488  1.4579  1.4784
  128SOPE  H18T13783   2.412   0.950   3.946 -0.3987 -3.4863 -0.5102
  128SOPE   C3313784   1.124   1.171   2.917 -0.1163  0.4490  0.5541
  128SOPE   H3X13785   1.078   1.071   2.931  0.5970 -0.3411 -2.1603
  128SOPE   H3Y13786   1.058   1.219   2.840  0.2507 -2.9583 -2.1183
  128SOPE   C3413787   1.131   1.250   3.044  0.6114 -0.2474 -0.6806
  128SOPE   H4X13788   1.030   1.277   3.083  0.7069  0.0797 -0.6542
  128SOPE   H4Y13789   1.176   1.347   3.016  1.8086 -0.2998  0.9373
  128SOPE   C3513790   1.222   1.181   3.143 -0.0997  0.3070 -0.2122
  128SOPE   H5X13791   1.321   1.229   3.129 -0.1379  0.5091  0.1866
  128SOPE   H5Y13792   1.233   1.072   3.127 -0.8912  0.4069 -1.5523
  128SOPE   C3613793   1.183   1.195   3.292  0.0905 -0.4556 -0.7966
  128SOPE   H6X13794   1.094   1.136   3.323  1.0747 -1.2016  0.7180
  128SOPE   H6Y13795   1.148   1.300   3.309  0.1222 -0.5512 -0.0811
  128SOPE   C3713796   1.294   1.157   3.399  0.4775  0.2110  0.0079
  128SOPE   H7X13797   1.388   1.200   3.359  0.3578  0.5783  0.1193
  128SOPE   H7Y13798   1.299   1.046   3.410 -3.8772 -0.1151  0.4787
  128SOPE   C3813799   1.256   1.216   3.536  0.5943  0.3407  0.2228
  128SOPE   H8X13800   1.150   1.189   3.554 -0.2381  2.9398 -0.4302
  128SOPE   H8Y13801   1.263   1.327   3.530  1.1557  0.3546  0.9781
  128SOPE   C3913802   1.339   1.175   3.653 -0.1277  0.8714  0.2922
  128SOPE   H9X13803   1.448   1.196   3.641  0.2728 -1.6943 -1.3516
  128SOPE   H9Y13804   1.328   1.065   3.662 -2.7310  0.8804 -1.5259
  128SOPE  C31013805   1.289   1.238   3.786  0.1359 -0.1843 -0.6248
  128SOPE  H10X13806   1.184   1.213   3.812  0.4718  1.3484  2.7974
  128SOPE  H10Y13807   1.282   1.348   3.773 -0.4103 -0.1391 -0.0516
  128SOPE  C31113808   1.375   1.188   3.906 -0.3425  0.1785  0.4008
  128SOPE  H11X13809   1.363   1.258   3.991  1.1552 -0.8662  1.5060
  128SOPE  H11Y13810   1.479   1.198   3.870 -0.9194  0.8981 -1.1892
  128SOPE  C31213811   1.334   1.048   3.945  0.4711  0.2644  0.1582
  128SOPE  H12X13812   1.374   0.971   3.876  0.4933  0.1292  0.3222
  128SOPE  H12Y13813   1.224   1.032   3.944  0.6679 -1.6158 -3.0170
  128SOPE  C31313814   1.373   1.010   4.087 -0.1446 -0.2694  0.0350
  128SOPE  H13X13815   1.445   1.081   4.133 -0.2038 -0.3337  0.2318
  128SOPE  H13Y13816   1.408   0.905   4.099 -3.1221 -1.2787  0.6546
  128SOPE  C31413817   1.252   1.003   4.189  0.6727  1.1143 -0.0466
  128SOPE  H14X13818   1.202   0.905   4.179  1.8233  0.4061  0.8720
  128SOPE  H14Y13819   1.183   1.086   4.163  0.6797  1.4283  0.8648
  128SOPE  C31513820   1.299   1.024   4.333  0.0572  0.4273 -0.2647
  128SOPE  H15X13821   1.215   1.034   4.405  1.7468 -1.7865  2.1821
  128SOPE  H15Y13822   1.354   1.119   4.346  3.0765 -1.4340  1.6241
  128SOPE  C31613823   1.385   0.905   4.383  0.4152 -0.8589  0.0168
  128SOPE  H16X13824   1.423   0.934   4.484 -0.6067 -0.2761  0.2492
  128SOPE  H16Y13825   1.477   0.910   4.320 -0.0112 -1.2803 -0.6377
  128SOPE  C31713826   1.335   0.764   4.370 -0.5828  0.2137 -0.0477
  128SOPE  H17X13827   1.423   0.699   4.384 -1.2572 -0.4262  1.3908
  128SOPE  H17Y13828   1.312   0.736   4.265 -1.1199  0.4296  0.0084
  128SOPE  C31813829   1.230   0.723   4.473 -0.4811  0.3780  0.0432
  128SOPE  H18X13830   1.251   0.763   4.575 -1.9682  0.1120  0.4735
  128SOPE  H18Y13831   1.214   0.613   4.476  0.3433  0.2613  0.9493
  128SOPE  H18Z13832   1.135   0.763   4.433 -0.8267 -1.1896 -0.7801
  129OSM      N13833   5.764   1.113   6.787 -0.4946 -0.2938  0.4511
  129OSM    C1513834   5.634   1.121   6.717 -0.0528 -0.2225 -0.2450
  129OSM   H15A13835   5.549   1.080   6.769 -0.4287 -0.7829 -1.2672
  129OSM   H15B13836   5.631   1.063   6.626  0.7525 -0.7522  0.0563
  129OSM   H15C13837   5.590   1.218   6.698 -2.1851 -1.0298  0.2787
  129OSM    C1413838   5.747   1.172   6.917 -0.0794 -0.2079  0.0743
  129OSM   H14A13839   5.834   1.145   6.976  0.1480  0.5805  0.1068
  129OSM   H14B13840   5.658   1.134   6.965  0.1393  2.0251  2.4911
  129OSM   H14C13841   5.736   1.278   6.905 -1.2149 -0.3982 -0.6956
  129OSM    C1313842   5.810   0.975   6.807 -0.4298  0.3772 -0.6283
  129OSM   H13A13843   5.840   0.931   6.713 -0.0847 -1.3025  0.2382
  129OSM   H13B13844   5.728   0.919   6.849 -0.1931  0.1148 -0.5189
  129OSM   H13C13845   5.895   0.962   6.871 -0.6427  2.3247  0.1221
  129OSM    C1213846   5.876   1.187   6.710  0.2137 -0.1464 -0.3339
  129OSM   H12A13847   5.844   1.286   6.679 -0.1362  0.3878  1.5962
  129OSM   H12B13848   5.901   1.145   6.614  0.6492  0.4206 -0.4793
  129OSM    C1113849   6.021   1.208   6.779  0.8053  0.5029 -0.0439
  129OSM   H11A13850   6.011   1.230   6.887  1.5398 -0.6963  0.2868
  129OSM   H11B13851   6.079   1.287   6.727 -1.3844  2.6921  0.6259
  129OSM      P13852   6.165   1.032   6.639 -0.0977 -0.1441  0.0264
  129OSM    O1313853   6.252   1.140   6.580 -0.1047 -0.6161  0.5694
  129OSM    O1413854   6.231   0.904   6.676  0.5960 -0.8098  0.3481
  129OSM    O1113855   6.049   0.994   6.546  0.0314 -0.4017  0.2920
  129OSM    O1213856   6.087   1.082   6.765  0.6732  0.3228  0.3515
  129OSM    C1S13857   6.034   1.031   6.410 -0.5906  0.5150  0.2576
  129OSM    H1S13858   6.066   1.134   6.384 -1.5559  0.3448 -1.7893
  129OSM    H1T13859   5.930   1.030   6.372 -0.3751 -0.5334 -0.3559
  129OSM     NF13860   6.112   1.019   6.181 -0.4730  0.1726  0.3086
  129OSM    HNF13861   6.035   1.003   6.120  0.4561 -0.5729 -0.7020
  129OSM    C2S13862   6.127   0.949   6.307  0.3409 -0.0675 -0.2121
  129OSM    H2S13863   6.225   0.961   6.357 -1.2122  3.0716  2.5569
  129OSM    C3S13864   6.072   0.806   6.308  0.2419 -0.6271  0.0736
  129OSM    H3S13865   5.963   0.808   6.330 -0.1489 -1.7040 -1.5985
  129OSM     O313866   6.132   0.740   6.422 -0.4640 -0.1637 -0.3388
  129OSM    HO313867   6.156   0.807   6.486  0.5867 -0.1059 -0.7745
  129OSM    C4S13868   6.090   0.719   6.186 -0.0565 -0.3123  0.4167
  129OSM    H4S13869   6.195   0.698   6.160  0.4306  0.6344  1.4804
  129OSM    C5S13870   5.990   0.664   6.117 -0.1440 -0.0882  0.1611
  129OSM    H5S13871   5.886   0.690   6.144 -0.5018 -2.3403  1.1582
  129OSM    C6S13872   6.008   0.574   6.006  0.3394  0.3807 -0.1787
  129OSM    H6S13873   5.946   0.482   6.008  0.5364  0.2206 -0.9283
  129OSM    H6T13874   6.113   0.536   6.001  0.1090 -0.2139 -0.7025
  129OSM    C7S13875   5.990   0.653   5.879  0.1656 -0.3428 -1.1491
  129OSM    H7S13876   5.900   0.719   5.879 -0.8149 -1.3257  3.6547
  129OSM    H7T13877   5.995   0.577   5.798  1.2592  0.2391 -1.6487
  129OSM    C8S13878   6.106   0.749   5.848  0.1224 -0.3784  0.3702
  129OSM    H8S13879   6.196   0.684   5.842  0.1214 -0.3474 -0.0323
  129OSM    H8T13880   6.120   0.816   5.936 -3.1600  0.4978  0.3718
  129OSM    C9S13881   6.079   0.824   5.718 -0.0008 -0.8838 -0.2794
  129OSM    H9S13882   6.112   0.930   5.728 -1.3738 -0.3335 -1.4556
  129OSM    H9T13883   5.969   0.823   5.703 -0.4076  0.7335  1.9958
  129OSM   C10S13884   6.151   0.772   5.601  0.3915 -0.2656  0.0306
  129OSM   H10S13885   6.258   0.775   5.631  1.0385 -1.1250 -1.9996
  129OSM   H10T13886   6.141   0.839   5.512  0.4848  0.2726  0.4180
  129OSM   C11S13887   6.112   0.626   5.559  0.7059 -0.2976 -0.1280
  129OSM   H11S13888   6.005   0.613   5.582  0.2027  1.3900 -1.3317
  129OSM   H11T13889   6.170   0.564   5.631  1.4304 -1.9386 -2.0543
  129OSM   C12S13890   6.142   0.585   5.409  0.3566 -0.9538 -0.9210
  129OSM   H12S13891   6.097   0.484   5.397  0.8484 -0.9288 -3.6811
  129OSM   H12T13892   6.251   0.577   5.390  1.7822  0.7213  4.7659
  129OSM   C13S13893   6.080   0.679   5.303 -0.6787  0.6971 -0.1800
  129OSM   H13S13894   5.997   0.735   5.352  0.3497  0.7293  1.6256
  129OSM   H13T13895   6.022   0.630   5.222 -0.5291  2.4636 -1.4185
  129OSM   C14S13896   6.188   0.760   5.246 -0.4275  0.5429  0.0323
  129OSM   H14S13897   6.270   0.788   5.317 -0.8581  0.1478  0.6949
  129OSM   H14T13898   6.145   0.852   5.201  2.2007  2.0784  0.4607
  129OSM   C15S13899   6.268   0.693   5.129  0.4422  0.3728 -0.7909
  129OSM   H15S13900   6.195   0.655   5.054 -0.0364  0.2527 -0.2717
  129OSM   H15T13901   6.327   0.610   5.174 -1.4643 -0.4862  0.2306
  129OSM   C16S13902   6.376   0.790   5.063  0.0783 -0.5617  0.5186
  129OSM   H16S13903   6.430   0.844   5.144 -0.0163  0.2216  0.0586
  129OSM   H16T13904   6.323   0.864   5.000  0.5093 -2.1471 -1.8455
  129OSM   C17S13905   6.471   0.734   4.959 -0.5468  0.0895 -0.8632
  129OSM   H17S13906   6.411   0.684   4.880  0.1175 -2.2197  0.0294
  129OSM   H17T13907   6.535   0.654   5.001  0.6829  1.7879  0.6595
  129OSM   C18S13908   6.559   0.832   4.879  0.3423 -0.4727  0.1593
  129OSM   H18S13909   6.641   0.774   4.833  1.2555  0.5573  0.4391
  129OSM   H18T13910   6.608   0.910   4.941  0.9024  0.5628 -1.5211
  129OSM   H18U13911   6.504   0.899   4.810  0.6503  0.0637  0.4287
  129OSM    C1F13912   6.187   1.126   6.151  0.3020 -0.4522  0.2361
  129OSM     OF13913   6.273   1.170   6.228 -0.1732  0.2689 -0.2352
  129OSM    C2F13914   6.161   1.202   6.023  0.6180 -0.4165 -0.0210
  129OSM    H2F13915   6.082   1.279   6.034  2.0443  1.1939 -0.6028
  129OSM    H2G13916   6.120   1.129   5.950  0.7760 -1.6346  1.0791
  129OSM    C3F13917   6.289   1.263   5.972  0.1847 -0.0265 -0.3754
  129OSM    H3F13918   6.366   1.184   5.966  0.7365  0.3712  1.0363
  129OSM    H3G13919   6.319   1.342   6.045 -0.1578 -0.3157  0.0896
  129OSM    C4F13920   6.279   1.323   5.833 -0.3721 -0.0467 -0.0612
  129OSM    H4F13921   6.366   1.387   5.807  0.1671 -0.6494  0.2350
  129OSM    H4G13922   6.189   1.387   5.836 -0.9136 -0.8139  0.3536
  129OSM    C5F13923   6.263   1.217   5.722 -0.2407  0.5668 -0.0369
  129OSM    H5F13924   6.159   1.178   5.728 -0.9054  2.4481  2.9755
  129OSM    H5G13925   6.326   1.132   5.754 -0.6935 -0.4792 -1.8004
  129OSM    C6F13926   6.294   1.260   5.576  0.5197 -0.4896  0.2523
  129OSM    H6F13927   6.396   1.304   5.586  0.3396  0.6385 -2.1395
  129OSM    H6G13928   6.221   1.339   5.549  2.0356  0.5289 -1.0081
  129OSM    C7F13929   6.310   1.148   5.487  0.1082  0.5316  0.3559
  129OSM    H7F13930   6.235   1.068   5.503  2.2512 -1.6109  0.4364
  129OSM    H7G13931   6.410   1.099   5.494 -1.4463 -3.0090 -0.0135
  129OSM    C8F13932   6.303   1.186   5.340 -0.2150 -0.3247  0.1145
  129OSM    H8F13933   6.349   1.102   5.282 -0.7277 -0.6134  0.1181
  129OSM    H8G13934   6.369   1.275   5.336  0.8401 -1.0830 -0.0541
  129OSM    C9F13935   6.160   1.216   5.295  0.5151 -0.5681  0.0486
  129OSM    H9F13936   6.107   1.277   5.370 -0.1052  3.3638 -3.2737
  129OSM   C10F13937   6.102   1.174   5.178  0.6103  0.0442  0.1133
  129OSM   H10F13938   6.000   1.212   5.161  0.8446  0.6995  0.1424
  129OSM   C11F13939   6.171   1.105   5.063  0.5516 -0.3144  0.6464
  129OSM   H11F13940   6.107   1.022   5.025  2.7964 -1.4710 -0.8166
  129OSM   H11G13941   6.269   1.056   5.082  0.3530 -0.4314  1.4326
  129OSM   C12F13942   6.192   1.204   4.939 -0.0873  0.1783  0.8541
  129OSM   H12F13943   6.262   1.284   4.969 -1.4671  1.9446 -0.4393
  129OSM   H12G13944   6.091   1.243   4.916  1.2497  3.5705  0.1895
  129OSM   C13F13945   6.221   1.130   4.809 -0.3792  0.0899 -0.3533
  129OSM   H13F13946   6.134   1.067   4.783  0.0306 -1.1386  1.0936
  129OSM   H13G13947   6.304   1.058   4.829 -1.2083 -1.3734 -1.9662
  129OSM   C14F13948   6.263   1.216   4.695  0.2812 -0.3557 -0.0238
  129OSM   H14F13949   6.179   1.288   4.684 -0.4431 -0.6142  2.9912
  129OSM   H14G13950   6.278   1.162   4.599  0.0925  1.0617 -0.8760
  129OSM   C15F13951   6.389   1.300   4.721 -0.5906  1.2922  0.7459
  129OSM   H15F13952   6.477   1.238   4.748 -0.1677  1.6319  0.1665
  129OSM   H15G13953   6.369   1.368   4.807  0.6233  1.0132  1.2648
  129OSM   C16F13954   6.428   1.388   4.612 -0.2497 -0.0609 -0.2944
  129OSM   H16F13955   6.338   1.448   4.589 -0.1727  0.5269  0.8699
  129OSM   H16G13956   6.447   1.330   4.519 -0.2259  0.0004 -0.3279
  129OSM   C17F13957   6.537   1.491   4.643  0.5144 -0.4678  0.2023
  129OSM   H17F13958   6.611   1.435   4.705  0.3426 -0.7886  0.1205
  129OSM   H17G13959   6.489   1.568   4.707  0.9075 -0.2685  0.2614
  129OSM   C18F13960   6.590   1.555   4.514  0.0728 -0.1167 -0.1107
  129OSM   H18F13961   6.670   1.626   4.543  2.5418 -1.6787 -2.6534
  129OSM   H18G13962   6.516   1.609   4.452 -0.0749 -0.9170 -0.6489
  129OSM   H18H13963   6.645   1.488   4.446  1.7234  2.4225 -1.4172
  130OSM      N13964   3.829   4.329   7.102 -0.9352 -0.4551  0.1226
  130OSM    C1513965   3.825   4.458   7.027 -0.9617  0.3269 -0.4454
  130OSM   H15A13966   3.908   4.518   7.059  0.9766 -2.2334 -0.3792
  130OSM   H15B13967   3.735   4.515   7.047 -0.3366  0.3314  2.9391
  130OSM   H15C13968   3.817   4.438   6.921 -0.3454  0.4921 -0.5269
  130OSM    C1413969   3.850   4.362   7.247  0.5045 -0.3746 -0.1630
  130OSM   H14A13970   3.948   4.397   7.275  0.9285 -0.4847 -1.4207
  130OSM   H14B13971   3.842   4.282   7.320  0.8046  1.5535  2.0960
  130OSM   H14C13972   3.778   4.434   7.284  0.3792 -0.7529  0.3511
  130OSM    C1313973   3.700   4.253   7.083  0.4274 -0.1121  0.0219
  130OSM   H13A13974   3.678   4.246   6.978 -1.1688  1.5372  0.1881
  130OSM   H13B13975   3.619   4.293   7.142 -0.0371  1.6421 -1.6990
  130OSM   H13C13976   3.702   4.152   7.121 -0.6586  0.5858  2.0603
  130OSM    C1213977   3.950   4.255   7.051  0.0494 -0.0755  1.1876
  130OSM   H12A13978   4.047   4.300   7.070  0.5133  0.1808 -1.4504
  130OSM   H12B13979   3.946   4.249   6.943 -0.2126 -0.9228  1.2398
  130OSM    C1113980   3.969   4.116   7.109 -0.0512  0.2037 -0.4480
  130OSM   H11A13981   3.958   4.134   7.218 -1.8224  0.9922 -0.7377
  130OSM   H11B13982   4.073   4.076   7.101  0.3144  1.1058 -0.2635
  130OSM      P13983   3.890   3.913   6.966  0.1650 -0.2199 -0.3065
  130OSM    O1313984   3.958   3.786   7.006  0.1902  0.1638  0.4458
  130OSM    O1413985   3.760   3.892   6.900 -0.4785 -0.0566  0.6620
  130OSM    O1113986   3.977   4.000   6.868 -0.2416  0.1480  0.1250
  130OSM    O1213987   3.874   4.006   7.093 -0.3604  0.4754 -0.4527
  130OSM    C1S13988   4.036   3.940   6.751 -0.3273  0.5688  0.1300
  130OSM    H1S13989   4.042   3.829   6.752  4.1601  0.5248  3.3860
  130OSM    H1T13990   4.145   3.964   6.751  0.2291 -1.7088  0.2075
  130OSM     NF13991   4.042   3.922   6.499  0.4837 -0.2594 -0.4981
  130OSM    HNF13992   4.108   3.981   6.451 -0.3944 -0.7506 -2.4229
  130OSM    C2S13993   3.968   3.986   6.611 -0.7478  0.2941 -0.7404
  130OSM    H2S13994   3.863   3.951   6.611 -0.9721  0.8375  1.1236
  130OSM    C3S13995   3.958   4.139   6.610 -0.3392  0.0830 -0.6100
  130OSM    H3S13996   4.058   4.182   6.630 -0.8709  1.2449 -0.2895
  130OSM     O313997   3.870   4.188   6.722  0.4675  0.0158  0.0698
  130OSM    HO313998   3.856   4.110   6.777  0.9190  0.2017  0.4546
  130OSM    C4S13999   3.892   4.198   6.490 -0.1247  0.5478  0.0117
  130OSM    H4S14000   3.782   4.193   6.492 -0.1207  0.6647  0.5805
  130OSM    C5S14001   3.957   4.254   6.387  0.3650  0.3830 -0.6583
  130OSM    H5S14002   4.065   4.273   6.396  0.2299  0.7830  0.2679
  130OSM    C6S14003   3.897   4.302   6.261  0.2817 -0.4830  0.0352
  130OSM    H6S14004   3.909   4.409   6.238 -0.3389 -0.9299 -2.7019
  130OSM    H6T14005   3.789   4.276   6.249 -0.0284  0.0022  1.5916
  130OSM    C7S14006   3.961   4.229   6.143  0.8390 -0.2222  0.2306
  130OSM    H7S14007   3.947   4.122   6.166 -2.0203  0.5565  2.8007
  130OSM    H7T14008   4.068   4.259   6.135  0.7544 -0.3997 -2.4523
  130OSM    C8S14009   3.891   4.262   6.009  0.1122 -0.1733  0.3496
  130OSM    H8S14010   3.858   4.368   6.008 -2.0540 -0.7669 -1.9961
  130OSM    H8T14011   3.795   4.206   6.004 -0.3623  0.5651  0.9899
  130OSM    C9S14012   3.973   4.239   5.877 -0.3377 -0.5911  0.0916
  130OSM    H9S14013   3.952   4.136   5.841  0.1542 -0.4283 -0.6831
  130OSM    H9T14014   4.080   4.256   5.902 -0.0992 -2.2615  0.3074
  130OSM   C10S14015   3.929   4.331   5.760 -0.2241  0.8509  0.4421
  130OSM   H10S14016   3.940   4.437   5.793 -0.1952  1.2420 -0.7608
  130OSM   H10T14017   3.820   4.310   5.747 -0.4173  1.3542  1.1466
  130OSM   C11S14018   4.010   4.311   5.628 -0.3245  0.6158 -0.6496
  130OSM   H11S14019   3.983   4.218   5.574  0.0078  0.3613 -0.3808
  130OSM   H11T14020   4.117   4.302   5.655 -0.9077 -1.3081  1.2337
  130OSM   C12S14021   3.984   4.431   5.524 -0.4292  0.5075 -0.0301
  130OSM   H12S14022   4.053   4.513   5.551  1.9980 -2.2732  3.0421
  130OSM   H12T14023   3.879   4.460   5.546  0.1222  3.1878 -0.6453
  130OSM   C13S14024   4.006   4.387   5.382  0.1280 -0.4578  0.5253
  130OSM   H13S14025   3.924   4.316   5.357  1.3229 -1.3668 -1.0588
  130OSM   H13T14026   4.090   4.316   5.367 -1.0794 -1.7179 -0.6386
  130OSM   C14S14027   4.009   4.503   5.284  0.0475  0.5114 -0.3212
  130OSM   H14S14028   4.006   4.481   5.175 -1.5819  1.0639 -0.4163
  130OSM   H14T14029   4.101   4.560   5.305  0.8763 -1.2064  0.9295
  130OSM   C15S14030   3.893   4.601   5.294 -0.1510 -0.2755  0.0777
  130OSM   H15S14031   3.900   4.665   5.385  0.7370  0.7425 -0.6804
  130OSM   H15T14032   3.802   4.539   5.313  0.1617 -0.6459  0.3908
  130OSM   C16S14033   3.883   4.699   5.173 -0.0165 -0.5632 -0.6534
  130OSM   H16S14034   3.969   4.769   5.170 -0.3565 -0.0673  0.5597
  130OSM   H16T14035   3.795   4.762   5.198  1.2672  1.1520 -0.2265
  130OSM   C17S14036   3.858   4.629   5.038  0.5102 -1.0561 -0.0814
  130OSM   H17S14037   3.820   4.525   5.048  0.8363 -1.3864 -1.9717
  130OSM   H17T14038   3.956   4.633   4.985  0.1165  0.2884 -0.7500
  130OSM   C18S14039   3.754   4.698   4.943 -0.1432  0.5417  0.2154
  130OSM   H18S14040   3.754   4.643   4.846 -1.1687  0.8580  0.0328
  130OSM   H18T14041   3.783   4.803   4.921 -0.0548  0.7849  1.4510
  130OSM   H18U14042   3.648   4.693   4.975 -0.2129 -2.2274 -0.1326
  130OSM    C1F14043   4.029   3.796   6.472 -0.6690 -0.0745 -0.5834
  130OSM     OF14044   3.937   3.733   6.524 -0.2048  0.1475  0.0747
  130OSM    C2F14045   4.134   3.732   6.380  0.0473 -0.1414 -0.0932
  130OSM    H2F14046   4.191   3.651   6.432 -0.8356 -1.0570 -0.5185
  130OSM    H2G14047   4.209   3.811   6.359 -0.8465  0.7551  0.0647
  130OSM    C3F14048   4.058   3.673   6.252 -0.4284 -0.2226  0.7037
  130OSM    H3F14049   3.999   3.757   6.209  0.8822 -0.2256 -1.2112
  130OSM    H3G14050   3.989   3.593   6.285  0.9182 -3.2062 -2.9693
  130OSM    C4F14051   4.138   3.609   6.140  0.7688  0.5708 -0.0867
  130OSM    H4F14052   4.173   3.515   6.187 -1.3608  0.9303  2.4688
  130OSM    H4G14053   4.218   3.684   6.119  1.1926 -0.0758 -0.8738
  130OSM    C5F14054   4.058   3.570   6.010  0.4257  0.3247  0.8688
  130OSM    H5F14055   3.970   3.638   6.002  1.2958  1.2460 -2.4776
  130OSM    H5G14056   4.021   3.466   6.020 -1.0439  0.6564 -0.7243
  130OSM    C6F14057   4.135   3.591   5.884  0.2991  0.4151  0.0841
  130OSM    H6F14058   4.226   3.528   5.878 -0.8092 -1.2699  0.2116
  130OSM    H6G14059   4.157   3.699   5.871 -1.3277  0.8916  1.1023
  130OSM    C7F14060   4.055   3.542   5.766 -0.6079  0.4486 -0.1482
  130OSM    H7F14061   3.951   3.579   5.777 -1.2430 -1.2293 -0.1368
  130OSM    H7G14062   4.044   3.431   5.767  0.4887  0.3309  0.1790
  130OSM    C8F14063   4.107   3.573   5.626 -0.5624  0.2622 -0.7047
  130OSM    H8F14064   4.127   3.682   5.637  0.4321  0.0896 -0.7530
  130OSM    H8G14065   4.018   3.567   5.559 -1.7526  2.2409  0.5695
  130OSM    C9F14066   4.212   3.481   5.573 -0.4317 -0.1046 -0.7046
  130OSM    H9F14067   4.230   3.390   5.632 -0.1083  0.7381  0.5510
  130OSM   C10F14068   4.286   3.508   5.463 -0.5315  0.5820 -0.3618
  130OSM   H10F14069   4.348   3.430   5.416 -2.1528 -0.7278 -0.4112
  130OSM   C11F14070   4.265   3.620   5.364  0.3029 -0.1615  0.4991
  130OSM   H11F14071   4.362   3.674   5.360 -0.0901  0.4811 -0.8079
  130OSM   H11G14072   4.181   3.690   5.380  2.1829  2.2346  0.4013
  130OSM   C12F14073   4.232   3.571   5.223  0.1735 -0.2946 -0.3205
  130OSM   H12F14074   4.211   3.657   5.156  1.4698 -0.2222 -0.6686
  130OSM   H12G14075   4.151   3.495   5.225  1.1272 -1.3255  1.3195
  130OSM   C13F14076   4.352   3.518   5.153  0.5068  0.2281  0.3555
  130OSM   H13F14077   4.386   3.422   5.196  1.7309  0.2008 -0.5924
  130OSM   H13G14078   4.438   3.589   5.162  0.1567  0.6513  0.4218
  130OSM   C14F14079   4.325   3.496   4.998  0.7569 -0.2361  0.9092
  130OSM   H14F14080   4.305   3.599   4.961 -1.5494 -0.9249  0.0808
  130OSM   H14G14081   4.227   3.447   4.979 -0.0267  1.7662 -0.4921
  130OSM   C15F14082   4.443   3.440   4.926 -0.5548 -0.1067  0.4807
  130OSM   H15F14083   4.447   3.329   4.937  2.3963  0.0047  1.3555
  130OSM   H15G14084   4.533   3.492   4.967 -0.3108  1.2551 -1.6274
  130OSM   C16F14085   4.432   3.463   4.774 -0.4920 -0.9125 -0.0003
  130OSM   H16F14086   4.409   3.571   4.758 -1.1483 -1.0062  0.3010
  130OSM   H16G14087   4.350   3.408   4.725  0.5206  0.3531 -3.4066
  130OSM   C17F14088   4.568   3.430   4.713 -0.3328 -0.7209  0.4559
  130OSM   H17F14089   4.655   3.454   4.778  0.1823 -1.6283  0.1150
  130OSM   H17G14090   4.575   3.488   4.618 -2.2413 -3.0122 -1.1976
  130OSM   C18F14091   4.580   3.290   4.658 -0.3067 -0.5747  0.1048
  130OSM   H18F14092   4.499   3.273   4.583 -0.8465 -3.9534  1.2499
  130OSM   H18G14093   4.583   3.202   4.726  0.5103 -0.7393 -0.1335
  130OSM   H18H14094   4.678   3.282   4.606 -0.3100  0.0035  0.0084
  131OSM      N14095   6.815   5.681   7.259  0.1394  0.2204 -0.0323
  131OSM    C1514096   6.717   5.732   7.363 -0.3869  0.3371  0.1506
  131OSM   H15A14097   6.728   5.838   7.379 -0.2346  0.2639  0.5421
  131OSM   H15B14098   6.724   5.680   7.457  3.5558  0.8950  0.3349
  131OSM   H15C14099   6.618   5.704   7.331  0.1350 -1.0253 -0.3431
  131OSM    C1414100   6.958   5.686   7.315 -0.2990 -0.4017 -0.5036
  131OSM   H14A14101   6.966   5.786   7.355 -2.4571 -0.8749  1.3297
  131OSM   H14B14102   7.033   5.647   7.248  0.6750  1.4840 -0.5717
  131OSM   H14C14103   6.959   5.622   7.403  0.2979  1.5925  1.0158
  131OSM    C1314104   6.785   5.537   7.219 -0.4564  0.2140  0.5854
  131OSM   H13A14105   6.770   5.474   7.306 -0.0998  0.6340  0.9528
  131OSM   H13B14106   6.870   5.500   7.163  0.5531  1.5476  1.1858
  131OSM   H13C14107   6.697   5.527   7.157 -0.9199 -0.5507  1.3328
  131OSM    C1214108   6.809   5.767   7.130  0.5044 -0.7407  0.0356
  131OSM   H12A14109   6.891   5.736   7.066  0.8508  0.7633 -0.2705
  131OSM   H12B14110   6.824   5.871   7.155  1.9056 -1.5489  3.0867
  131OSM    C1114111   6.669   5.760   7.055 -0.4255 -0.0688  0.6812
  131OSM   H11A14112   6.588   5.793   7.123 -1.4102 -0.6890 -0.1528
  131OSM   H11B14113   6.645   5.655   7.026 -1.4086  0.4131 -0.2959
  131OSM      P14114   6.731   5.821   6.805  0.4289 -0.3321 -0.1130
  131OSM    O1314115   6.729   5.951   6.735  0.5476  0.5285  0.6897
  131OSM    O1414116   6.869   5.764   6.812  0.0637  0.0314 -0.0112
  131OSM    O1114117   6.638   5.724   6.723  0.7207 -0.4140 -0.2509
  131OSM    O1214118   6.662   5.848   6.943 -0.3986  0.0408  0.2653
  131OSM    C1S14119   6.514   5.765   6.663  0.3131 -0.0808 -0.1812
  131OSM    H1S14120   6.511   5.876   6.665  0.0892 -0.0912  1.7960
  131OSM    H1T14121   6.429   5.738   6.729  0.9255  1.0995  1.1314
  131OSM     NF14122   6.401   5.774   6.431  0.1739 -0.3952 -0.2001
  131OSM    HNF14123   6.319   5.722   6.409  0.4826 -1.8985  1.9624
  131OSM    C2S14124   6.493   5.699   6.521 -0.3584 -0.0463 -0.4174
  131OSM    H2S14125   6.594   5.713   6.475 -0.0390 -3.5294 -1.0291
  131OSM    C3S14126   6.468   5.550   6.527  0.2496 -0.7184 -0.2909
  131OSM    H3S14127   6.367   5.550   6.571  0.2466  2.3792 -0.0827
  131OSM     O314128   6.556   5.477   6.619  0.0362  0.2330  0.1208
  131OSM    HO314129   6.602   5.543   6.671 -0.0402  1.0183 -0.7837
  131OSM    C4S14130   6.463   5.494   6.387 -0.3643 -0.1267  0.3475
  131OSM    H4S14131   6.533   5.535   6.313 -0.8288 -0.8480 -0.5081
  131OSM    C5S14132   6.381   5.393   6.341  0.3255 -0.0932 -0.7259
  131OSM    H5S14133   6.307   5.359   6.415 -0.6855  1.4263 -1.0040
  131OSM    C6S14134   6.374   5.329   6.209 -0.0795 -0.5648  0.2491
  131OSM    H6S14135   6.266   5.315   6.187  0.0762 -0.2413 -0.8176
  131OSM    H6T14136   6.408   5.224   6.217  0.6036 -0.2276  2.1502
  131OSM    C7S14137   6.441   5.407   6.094  1.2797 -0.1582  0.5812
  131OSM    H7S14138   6.551   5.413   6.110  1.3001 -0.8950  0.7957
  131OSM    H7T14139   6.399   5.508   6.078  2.2924  0.0968 -0.6105
  131OSM    C8S14140   6.422   5.327   5.961  1.1811 -0.5452 -0.3764
  131OSM    H8S14141   6.317   5.292   5.949  0.8898  0.2234 -0.1106
  131OSM    H8T14142   6.476   5.231   5.970  2.2014 -0.0345 -0.8977
  131OSM    C9S14143   6.470   5.403   5.829  0.0517  0.2758  0.3421
  131OSM    H9S14144   6.459   5.335   5.742 -1.1040 -0.0298  0.7034
  131OSM    H9T14145   6.576   5.434   5.824 -0.7082  2.9822 -1.3867
  131OSM   C10S14146   6.394   5.531   5.787  0.3723 -0.5510 -0.7802
  131OSM   H10S14147   6.409   5.603   5.871  2.6213 -0.2579 -1.3658
  131OSM   H10T14148   6.287   5.503   5.777  0.4798 -0.9253 -0.8958
  131OSM   C11S14149   6.448   5.603   5.662 -0.7388 -0.1561  0.3917
  131OSM   H11S14150   6.546   5.651   5.680 -0.7814  1.6854 -3.3049
  131OSM   H11T14151   6.375   5.683   5.634  1.1603  1.4346 -0.2735
  131OSM   C12S14152   6.469   5.515   5.543  0.1786 -0.6556  0.7591
  131OSM   H12S14153   6.380   5.449   5.545 -1.4214  1.4148  1.6641
  131OSM   H12T14154   6.559   5.451   5.557  0.5576  0.1290  2.0841
  131OSM   C13S14155   6.462   5.585   5.406  0.0647  0.9819  0.3876
  131OSM   H13S14156   6.530   5.672   5.397  0.0554  1.1496  1.6604
  131OSM   H13T14157   6.362   5.632   5.395  0.1873  0.9844 -0.8075
  131OSM   C14S14158   6.490   5.496   5.280  0.4465 -0.1596 -0.3225
  131OSM   H14S14159   6.415   5.415   5.265 -1.0115  1.2097 -0.6025
  131OSM   H14T14160   6.577   5.433   5.310  0.6794  0.1677 -0.3042
  131OSM   C15S14161   6.501   5.575   5.148 -0.8610  0.2902 -0.0537
  131OSM   H15S14162   6.587   5.641   5.171 -0.8790 -0.1691  1.4823
  131OSM   H15T14163   6.419   5.648   5.131  0.5562  1.2471 -3.7163
  131OSM   C16S14164   6.520   5.484   5.029 -0.4971 -0.8570  0.0983
  131OSM   H16S14165   6.434   5.415   5.015  0.2740 -2.0829  1.1935
  131OSM   H16T14166   6.615   5.427   5.035  1.7061  2.7078  1.7348
  131OSM   C17S14167   6.515   5.563   4.901  0.8032 -0.0459 -0.6247
  131OSM   H17S14168   6.426   5.628   4.916 -0.0977 -1.3597 -0.1153
  131OSM   H17T14169   6.502   5.499   4.810  0.5793  0.9184 -1.2826
  131OSM   C18S14170   6.637   5.653   4.882  0.2047  0.0776  0.4890
  131OSM   H18S14171   6.641   5.687   4.776 -3.6311 -1.2777 -0.2755
  131OSM   H18T14172   6.730   5.595   4.895  0.9871  1.5442  1.7230
  131OSM   H18U14173   6.637   5.746   4.942  1.0931  0.9483 -0.8114
  131OSM    C1F14174   6.420   5.911   6.404  0.1484  0.5547 -0.2911
  131OSM     OF14175   6.524   5.972   6.435 -0.1487  0.6652  0.4930
  131OSM    C2F14176   6.289   5.977   6.357  0.0613  0.0540 -0.4687
  131OSM    H2F14177   6.268   6.069   6.416  0.2680 -2.0514  3.2268
  131OSM    H2G14178   6.206   5.906   6.372 -0.1240  0.1085 -1.2247
  131OSM    C3F14179   6.293   6.000   6.200  1.1345  0.6362  0.3787
  131OSM    H3F14180   6.307   5.896   6.162  0.5699  0.5199  0.4747
  131OSM    H3G14181   6.370   6.067   6.159  3.0422 -0.8465  1.3754
  131OSM    C4F14182   6.161   6.067   6.157 -0.0781  0.7240  0.3176
  131OSM    H4F14183   6.146   6.177   6.167  0.5832  0.9356 -0.8268
  131OSM    H4G14184   6.086   6.025   6.228  2.8593 -1.2939  2.4545
  131OSM    C5F14185   6.124   6.043   6.010 -0.0519  1.1468  0.3432
  131OSM    H5F14186   6.204   6.085   5.946  1.4182 -1.5982  0.2449
  131OSM    H5G14187   6.032   6.104   5.993 -2.5080 -2.5535 -0.8086
  131OSM    C6F14188   6.086   5.891   5.980 -0.0631 -0.3145  0.0955
  131OSM    H6F14189   5.976   5.892   5.991 -0.4875  2.6963 -2.8575
  131OSM    H6G14190   6.128   5.838   6.069  0.7395 -0.2054 -0.2132
  131OSM    C7F14191   6.144   5.845   5.853  0.2189  0.2761  0.7300
  131OSM    H7F14192   6.116   5.740   5.834 -1.4693  0.5779  1.4542
  131OSM    H7G14193   6.254   5.839   5.869 -0.1882 -2.2851  3.3267
  131OSM    C8F14194   6.118   5.942   5.730 -0.3461  0.3759 -0.6026
  131OSM    H8F14195   6.158   6.043   5.754 -0.9774 -0.1160  2.9545
  131OSM    H8G14196   6.008   5.949   5.718 -0.5953 -2.2034 -0.3137
  131OSM    C9F14197   6.177   5.898   5.598 -0.0704  0.1171  0.3808
  131OSM    H9F14198   6.280   5.858   5.600 -0.1799 -0.1742  2.3956
  131OSM   C10F14199   6.117   5.890   5.475 -0.1921 -0.4559  0.0184
  131OSM   H10F14200   6.178   5.858   5.388 -1.0406 -2.2127  0.0276
  131OSM   C11F14201   5.971   5.920   5.436  0.0865  0.5640  0.2983
  131OSM   H11F14202   5.927   5.993   5.507 -1.7209  0.3076 -0.5281
  131OSM   H11G14203   5.901   5.834   5.433  2.6273 -1.6182 -0.4307
  131OSM   C12F14204   5.969   5.970   5.289 -0.4662 -0.1321  0.4669
  131OSM   H12F14205   6.039   6.054   5.273 -1.5255  0.4288 -1.6089
  131OSM   H12G14206   5.869   6.017   5.276  0.2976  1.2122 -0.9600
  131OSM   C13F14207   6.007   5.875   5.182 -0.3877  0.1598  0.3074
  131OSM   H13F14208   5.937   5.790   5.171  0.1001 -0.2060  0.0419
  131OSM   H13G14209   6.107   5.837   5.210  0.3157  0.7784 -1.2529
  131OSM   C14F14210   6.030   5.955   5.047 -0.2915 -0.9895 -0.5536
  131OSM   H14F14211   6.109   6.028   5.076  0.4622 -2.9643  3.0238
  131OSM   H14G14212   5.937   6.011   5.024  1.2166  1.2855 -1.4689
  131OSM   C15F14213   6.084   5.877   4.924  0.0440  0.5756 -0.0323
  131OSM   H15F14214   6.152   5.803   4.971  0.8065  1.9777  1.1612
  131OSM   H15G14215   6.136   5.938   4.847 -0.4544 -0.1745 -0.9800
  131OSM   C16F14216   5.978   5.818   4.825 -0.0836  0.2332 -0.5627
  131OSM   H16F14217   5.903   5.761   4.885 -0.3358  0.9451 -0.1911
  131OSM   H16G14218   6.016   5.745   4.751  0.0352 -0.0492 -0.2253
  131OSM   C17F14219   5.894   5.923   4.758 -0.0368 -0.3634 -0.0826
  131OSM   H17F14220   5.965   5.994   4.711 -0.7711 -0.9857 -2.2561
  131OSM   H17G14221   5.832   5.978   4.832  0.8279 -0.8894  1.0565
  131OSM   C18F14222   5.798   5.873   4.650 -0.2013 -0.4962 -0.2016
  131OSM   H18F14223   5.739   5.956   4.605  0.1308  1.4419  2.6398
  131OSM   H18G14224   5.721   5.816   4.706  0.3292 -0.5814  0.4592
  131OSM   H18H14225   5.854   5.826   4.567  0.2152 -0.6374  0.1530
  132OSM      N14226   0.199   3.047   6.988 -0.1203  0.1862  0.3174
  132OSM    C1514227   0.137   3.182   6.986 -0.5788 -0.7984  0.0440
  132OSM   H15A14228   0.073   3.194   6.900 -0.1015 -0.3032 -0.2469
  132OSM   H15B14229   0.207   3.265   6.988 -1.6233  0.3131 -3.1005
  132OSM   H15C14230   0.070   3.187   7.071 -0.7001  3.2165 -0.0971
  132OSM    C1414231   0.277   3.037   7.111 -0.3491  0.2835 -0.1688
  132OSM   H14A14232   0.356   3.109   7.119 -0.1664 -0.0437  1.0978
  132OSM   H14B14233   0.316   2.939   7.130  0.7125  0.7238 -0.0248
  132OSM   H14C14234   0.214   3.054   7.197 -0.7612  0.4421 -0.4957
  132OSM    C1314235   0.082   2.946   7.011 -0.9103  0.4292 -0.3084
  132OSM   H13A14236   0.034   2.966   7.106 -2.2713  0.6737 -1.0269
  132OSM   H13B14237   0.131   2.850   7.008  1.0048  1.3308  0.3633
  132OSM   H13C14238   0.014   2.957   6.928  0.7464 -2.6811 -2.2255
  132OSM    C1214239   0.285   3.019   6.870  0.2987  0.0274 -0.1866
  132OSM   H12A14240   0.231   3.034   6.778  1.4958 -2.0333 -1.3200
  132OSM   H12B14241   0.307   2.913   6.871 -0.8798 -0.2355 -1.0528
  132OSM    C1114242   0.413   3.102   6.860 -0.7579  0.5232 -0.0452
  132OSM   H11A14243   0.484   3.051   6.792 -2.8430 -1.6181 -0.7556
  132OSM   H11B14244   0.467   3.112   6.956  0.7431 -2.0012 -0.5361
  132OSM      P14245   0.482   3.336   6.789 -0.2509 -0.2614 -0.4490
  132OSM    O1314246   0.417   3.446   6.719  0.0586  0.9264  0.2635
  132OSM    O1414247   0.561   3.373   6.904 -0.0113 -0.5542  0.0754
  132OSM    O1114248   0.575   3.259   6.681  0.2319 -0.0057  0.1318
  132OSM    O1214249   0.369   3.230   6.814  0.2387  0.1429 -0.5156
  132OSM    C1S14250   0.503   3.215   6.565 -0.4493  0.2215 -0.1924
  132OSM    H1S14251   0.430   3.291   6.530  2.0761  3.5169  1.1132
  132OSM    H1T14252   0.448   3.120   6.583  1.2849 -0.4730  1.8917
  132OSM     NF14253   0.551   3.166   6.321  0.8231  0.1174 -0.8936
  132OSM    HNF14254   0.546   3.070   6.293  1.8707 -0.3886  0.5578
  132OSM    C2S14255   0.618   3.181   6.455  1.4717 -0.0961  0.0298
  132OSM    H2S14256   0.683   3.271   6.457  1.0904  0.1734  0.7929
  132OSM    C3S14257   0.708   3.063   6.509 -0.0213 -0.9914  0.3947
  132OSM    H3S14258   0.643   2.973   6.511  0.7548 -1.7353 -2.3552
  132OSM     O314259   0.757   3.079   6.640 -0.2194  0.1563  0.3257
  132OSM    HO314260   0.699   3.152   6.665 -1.1393 -0.8576  1.2310
  132OSM    C4S14261   0.821   3.041   6.406  0.6324 -0.0450  0.4476
  132OSM    H4S14262   0.781   2.980   6.323 -1.2582  0.2275  1.1082
  132OSM    C5S14263   0.939   3.096   6.403 -0.2465 -0.2414  0.2224
  132OSM    H5S14264   0.967   3.168   6.482  0.0311  0.8126 -0.8140
  132OSM    C6S14265   1.047   3.072   6.297  0.2018 -0.2098 -0.0784
  132OSM    H6S14266   1.142   3.029   6.335  0.5734 -0.0397 -0.7993
  132OSM    H6T14267   1.077   3.174   6.263 -1.7430 -0.4277 -2.8167
  132OSM    C7S14268   1.015   2.994   6.169  0.2072 -0.1009 -0.9699
  132OSM    H7S14269   0.953   2.906   6.198 -0.5753  0.5543 -0.6531
  132OSM    H7T14270   1.107   2.949   6.127  1.1973 -0.1295  1.0681
  132OSM    C8S14271   0.950   3.088   6.071  0.1180  0.1902  0.0733
  132OSM    H8S14272   1.001   3.186   6.063 -0.8566  0.8013  0.9993
  132OSM    H8T14273   0.852   3.121   6.112 -1.0294 -1.9795 -0.7962
  132OSM    C9S14274   0.911   3.032   5.934 -0.5826 -0.1219  0.3025
  132OSM    H9S14275   0.855   2.940   5.959 -0.4201 -0.2433  0.2199
  132OSM    H9T14276   1.002   3.004   5.877  0.1260 -0.3765  1.5304
  132OSM   C10S14277   0.829   3.132   5.849 -0.0649  0.1093  0.2256
  132OSM   H10S14278   0.891   3.207   5.797  1.8189 -2.4806 -1.5244
  132OSM   H10T14279   0.750   3.177   5.914  0.0830  0.8815 -0.1283
  132OSM   C11S14280   0.756   3.049   5.738  0.3997 -0.8348 -0.6584
  132OSM   H11S14281   0.718   2.953   5.779  0.7863 -1.6855 -2.2186
  132OSM   H11T14282   0.825   3.014   5.658  0.5417  1.8298 -1.8131
  132OSM   C12S14283   0.652   3.134   5.672 -0.0235  0.1887  0.1572
  132OSM   H12S14284   0.705   3.211   5.612 -0.0905  0.4941  0.4857
  132OSM   H12T14285   0.594   3.182   5.754  0.8873 -0.3257  1.1242
  132OSM   C13S14286   0.557   3.063   5.579 -0.0323 -0.7729 -0.1003
  132OSM   H13S14287   0.525   2.973   5.637 -1.6904 -0.1690 -0.0265
  132OSM   H13T14288   0.612   3.015   5.495 -1.9790 -2.2024 -0.6280
  132OSM   C14S14289   0.447   3.148   5.507 -0.1801  0.3800  0.2545
  132OSM   H14S14290   0.500   3.216   5.437 -0.1595 -0.4653 -0.5815
  132OSM   H14T14291   0.392   3.201   5.588 -3.3838 -1.9992 -0.1556
  132OSM   C15S14292   0.336   3.066   5.428 -0.5713 -0.3149  0.1482
  132OSM   H15S14293   0.259   3.142   5.402 -0.7914 -0.8946 -0.9690
  132OSM   H15T14294   0.291   2.992   5.497 -0.7899 -0.6990 -0.3998
  132OSM   C16S14295   0.408   3.004   5.308 -0.2113 -0.0624 -0.0334
  132OSM   H16S14296   0.485   2.932   5.344 -0.9804 -0.0893  1.6540
  132OSM   H16T14297   0.457   3.093   5.264 -1.2598  0.3549 -0.3831
  132OSM   C17S14298   0.328   2.944   5.196  0.5257  0.4127 -0.2890
  132OSM   H17S14299   0.385   2.933   5.101  1.7457 -2.6755  0.6912
  132OSM   H17T14300   0.245   3.013   5.167  1.8592  1.8758 -0.7666
  132OSM   C18S14301   0.279   2.802   5.227 -0.3832 -0.1445  0.5998
  132OSM   H18S14302   0.197   2.808   5.302  0.8785  1.7463  1.9358
  132OSM   H18T14303   0.359   2.727   5.245 -0.7286 -0.4803  0.7649
  132OSM   H18U14304   0.227   2.770   5.134 -0.6622  1.9380 -0.0217
  132OSM    C1F14305   0.498   3.270   6.254 -0.4628 -0.1366  0.0954
  132OSM     OF14306   0.504   3.386   6.290  0.0834  0.1834 -0.3191
  132OSM    C2F14307   0.420   3.246   6.129 -0.2014 -0.4276  0.5675
  132OSM    H2F14308   0.357   3.156   6.145  0.3105 -1.0100 -0.5799
  132OSM    H2G14309   0.491   3.212   6.051 -0.4081 -1.2856  0.7372
  132OSM    C3F14310   0.345   3.372   6.076 -0.0192 -0.2622 -0.4583
  132OSM    H3F14311   0.411   3.455   6.044 -2.9627  2.5626  0.2111
  132OSM    H3G14312   0.278   3.411   6.156 -0.7403  2.6851 -2.3289
  132OSM    C4F14313   0.259   3.343   5.947  0.0742  0.2915 -0.2546
  132OSM    H4F14314   0.324   3.286   5.878  1.2352  0.6170  0.5381
  132OSM    H4G14315   0.228   3.440   5.904  1.4092 -0.5150 -3.2808
  132OSM    C5F14316   0.134   3.256   5.963 -0.1049  0.0052  0.0777
  132OSM    H5F14317   0.056   3.315   6.016 -0.3801 -1.2701  1.1721
  132OSM    H5G14318   0.164   3.165   6.020  3.1138  1.3291  0.7098
  132OSM    C6F14319   0.070   3.203   5.840 -0.5958  0.0335  0.3308
  132OSM    H6F14320  -0.016   3.147   5.882  0.6047 -0.8026  1.7586
  132OSM    H6G14321   0.136   3.125   5.797 -1.2303  0.1020 -0.8261
  132OSM    C7F14322   0.040   3.305   5.728 -0.0491 -0.3133  0.4158
  132OSM    H7F14323   0.131   3.367   5.710  0.2225 -0.5421  0.9645
  132OSM    H7G14324  -0.048   3.369   5.751 -0.0714  0.1174 -0.8241
  132OSM    C8F14325   0.024   3.233   5.593 -0.2475  0.0368 -0.1988
  132OSM    H8F14326  -0.060   3.160   5.589 -0.6237  0.4772 -0.4395
  132OSM    H8G14327   0.111   3.169   5.569 -0.2573  0.6001 -1.8758
  132OSM    C9F14328   0.010   3.330   5.478 -0.5025 -0.5330 -0.0354
  132OSM    H9F14329   0.066   3.424   5.489 -3.0626  0.9288  1.6874
  132OSM   C10F14330  -0.064   3.311   5.369  0.0273 -0.7028  0.3057
  132OSM   H10F14331  -0.066   3.395   5.298 -1.9241  2.1872  3.4031
  132OSM   C11F14332  -0.143   3.190   5.332  0.4653 -0.0502 -0.2200
  132OSM   H11F14333  -0.096   3.101   5.377  2.7859  1.5359  0.6916
  132OSM   H11G14334  -0.133   3.174   5.223  0.9671 -0.8386 -0.0651
  132OSM   C12F14335  -0.289   3.192   5.356  0.6591  0.4942 -0.3186
  132OSM   H12F14336  -0.308   3.190   5.465  1.3188 -1.2491 -0.1975
  132OSM   H12G14337  -0.337   3.101   5.313  1.5361  1.3522 -3.4365
  132OSM   C13F14338  -0.349   3.308   5.292  0.2384 -0.7211  0.4239
  132OSM   H13F14339  -0.297   3.403   5.317  0.6496 -0.7841 -0.1694
  132OSM   H13G14340  -0.458   3.324   5.306  0.3688  1.2770 -0.4723
  132OSM   C14F14341  -0.351   3.299   5.134 -0.4832 -0.7548 -0.0352
  132OSM   H14F14342  -0.408   3.208   5.103 -0.8001 -0.3285 -0.7078
  132OSM   H14G14343  -0.246   3.277   5.106 -0.6780 -2.0064  0.1551
  132OSM   C15F14344  -0.401   3.425   5.057  0.1455 -0.8153 -0.7391
  132OSM   H15F14345  -0.353   3.513   5.104  2.1078 -1.5659 -1.2425
  132OSM   H15G14346  -0.506   3.448   5.085 -0.0679  0.4190 -2.4514
  132OSM   C16F14347  -0.393   3.397   4.909  0.7304  0.0032  0.4571
  132OSM   H16F14348  -0.439   3.298   4.889 -0.9552  0.0635  3.4225
  132OSM   H16G14349  -0.286   3.388   4.881  1.4954  3.6160  1.6434
  132OSM   C17F14350  -0.452   3.501   4.807  0.3285  0.5159 -0.1974
  132OSM   H17F14351  -0.388   3.507   4.717  0.1388 -1.2100 -0.4788
  132OSM   H17G14352  -0.437   3.604   4.847  0.1978 -0.2692  1.9842
  132OSM   C18F14353  -0.598   3.475   4.775 -0.2837 -0.2021 -0.2723
  132OSM   H18F14354  -0.668   3.445   4.856 -1.5999  0.7607 -1.0118
  132OSM   H18G14355  -0.606   3.399   4.694 -0.4885  0.4094 -0.8327
  132OSM   H18H14356  -0.655   3.556   4.724  0.7704 -0.4023 -1.8445
  133OSM      N14357   4.969   2.538   6.513 -0.2774  0.1789 -0.3282
  133OSM    C1514358   4.937   2.569   6.656  0.5540  1.2321  0.3540
  133OSM   H15A14359   5.024   2.588   6.716  0.1640 -0.5787  1.5899
  133OSM   H15B14360   4.909   2.474   6.700  0.7166  0.2450 -1.5474
  133OSM   H15C14361   4.852   2.635   6.666 -0.4582  0.3300 -1.7509
  133OSM    C1414362   5.068   2.429   6.508  0.0509 -0.0448 -0.4268
  133OSM   H14A14363   5.099   2.415   6.406 -0.6985 -0.7837 -0.5646
  133OSM   H14B14364   5.025   2.333   6.536  0.2739 -0.6407 -2.0480
  133OSM   H14C14365   5.157   2.444   6.567 -0.2361  0.2720 -0.0651
  133OSM    C1314366   4.839   2.487   6.453  0.0834  0.2836  0.3939
  133OSM   H13A14367   4.847   2.456   6.350  1.1290 -0.0132  0.5542
  133OSM   H13B14368   4.757   2.557   6.447 -0.8189 -0.7633 -0.0319
  133OSM   H13C14369   4.813   2.390   6.495  1.3967  0.6552  2.1550
  133OSM    C1214370   5.019   2.673   6.457 -0.7672 -0.0114  0.1482
  133OSM   H12A14371   5.118   2.692   6.496 -0.5866 -2.9606  1.4401
  133OSM   H12B14372   4.960   2.752   6.500 -0.9241 -0.5136  0.8643
  133OSM    C1114373   5.035   2.674   6.307  0.2798 -0.4125  0.2364
  133OSM   H11A14374   5.021   2.777   6.267 -1.8796 -1.0622 -0.8512
  133OSM   H11B14375   4.955   2.610   6.262  1.0182 -1.3081  0.1600
  133OSM      P14376   5.303   2.690   6.264  0.0505 -0.3619  0.4991
  133OSM    O1314377   5.340   2.720   6.407  0.0509  0.4609  0.0737
  133OSM    O1414378   5.399   2.606   6.189 -0.2013 -0.4531 -0.1591
  133OSM    O1114379   5.286   2.821   6.187  0.4321 -0.5818 -0.5126
  133OSM    O1214380   5.159   2.617   6.261 -0.3082  0.4553  0.4110
  133OSM    C1S14381   5.281   2.834   6.047 -0.3758 -0.0469  0.0343
  133OSM    H1S14382   5.216   2.754   6.003 -1.7100  0.4407  1.0516
  133OSM    H1T14383   5.382   2.830   6.000 -1.3927  0.6934 -2.4167
  133OSM     NF14384   5.189   2.965   5.860 -0.4330 -0.3092 -0.1044
  133OSM    HNF14385   5.247   3.022   5.801 -0.9464 -1.6252 -1.9784
  133OSM    C2S14386   5.215   2.967   6.003 -0.5262 -0.0182  0.6707
  133OSM    H2S14387   5.117   2.973   6.054  0.6056  0.5357  2.9186
  133OSM    C3S14388   5.300   3.086   6.061  0.7360  0.0876 -0.2310
  133OSM    H3S14389   5.400   3.072   6.013  0.8547  0.4540 -0.0949
  133OSM     O314390   5.336   3.080   6.203  0.6846 -0.0689  0.0173
  133OSM    HO314391   5.322   2.987   6.221 -0.2637  0.1439  0.3960
  133OSM    C4S14392   5.228   3.212   6.026 -0.0781  0.3424 -0.8971
  133OSM    H4S14393   5.123   3.209   6.061  0.4057 -3.5351  0.7317
  133OSM    C5S14394   5.275   3.322   5.964 -0.0855  0.3717 -0.4365
  133OSM    H5S14395   5.383   3.324   5.943 -0.1440 -2.8186 -1.5612
  133OSM    C6S14396   5.207   3.461   5.959 -0.4195  0.4048  0.1324
  133OSM    H6S14397   5.275   3.540   5.998 -0.9175  2.3059 -2.4925
  133OSM    H6T14398   5.114   3.462   6.020 -2.1172 -2.1793 -2.1788
  133OSM    C7S14399   5.175   3.503   5.815 -0.5615  0.4414 -0.1181
  133OSM    H7S14400   5.263   3.540   5.758  0.9391  0.0648  1.8225
  133OSM    H7T14401   5.117   3.597   5.828  0.1731  0.7306  1.2437
  133OSM    C8S14402   5.104   3.390   5.731  0.3205 -0.3979 -0.5636
  133OSM    H8S14403   5.024   3.354   5.800  0.0213  3.0385  1.1133
  133OSM    H8T14404   5.172   3.305   5.707  0.0596 -0.3635 -1.4351
  133OSM    C9S14405   5.025   3.443   5.610  0.5657  0.4820  0.2513
  133OSM    H9S14406   4.959   3.520   5.655  0.1844 -0.2842  1.0312
  133OSM    H9T14407   4.952   3.365   5.580  1.0646 -0.5878  1.6538
  133OSM   C10S14408   5.110   3.493   5.494 -0.1060  0.2015 -0.1793
  133OSM   H10S14409   5.169   3.415   5.440  1.0310  1.7728 -1.2902
  133OSM   H10T14410   5.190   3.559   5.534  0.3773  0.1384 -1.0197
  133OSM   C11S14411   5.019   3.571   5.398 -0.2256 -0.1351  0.1722
  133OSM   H11S14412   4.981   3.660   5.451 -1.0212 -0.2472 -0.1986
  133OSM   H11T14413   4.939   3.504   5.359 -0.9156  0.0017  1.3259
  133OSM   C12S14414   5.104   3.613   5.271  0.3907  0.3347 -0.6858
  133OSM   H12S14415   5.024   3.658   5.208  1.7885  0.3326 -2.5189
  133OSM   H12T14416   5.142   3.524   5.217 -1.0103 -0.1756 -0.8625
  133OSM   C13S14417   5.217   3.713   5.302  0.5436  0.0744  0.0655
  133OSM   H13S14418   5.274   3.678   5.391 -0.5606 -1.5937  0.1742
  133OSM   H13T14419   5.170   3.805   5.343  0.2862 -0.9003  2.0479
  133OSM   C14S14420   5.300   3.738   5.174  0.5455 -0.5541  0.4049
  133OSM   H14S14421   5.355   3.644   5.152  2.0158  0.7151 -1.7495
  133OSM   H14T14422   5.373   3.818   5.198  1.5414 -1.4016  0.3025
  133OSM   C15S14423   5.209   3.775   5.048  0.1406 -0.0897  0.3124
  133OSM   H15S14424   5.156   3.870   5.070 -1.5067 -0.7722 -0.5739
  133OSM   H15T14425   5.127   3.701   5.039 -0.1586  0.3907 -1.1057
  133OSM   C16S14426   5.280   3.759   4.911 -0.5909  0.1759  0.5017
  133OSM   H16S14427   5.299   3.653   4.885 -2.3267 -0.2962  1.0453
  133OSM   H16T14428   5.382   3.804   4.915 -1.4970  2.6763 -1.7808
  133OSM   C17S14429   5.205   3.812   4.793 -0.0947 -1.0633  0.0619
  133OSM   H17S14430   5.097   3.789   4.800 -0.3098  0.1453  0.9090
  133OSM   H17T14431   5.255   3.764   4.705  1.4653 -1.1924  0.9827
  133OSM   C18S14432   5.231   3.963   4.758  0.3260 -0.9128  0.2825
  133OSM   H18S14433   5.220   3.983   4.650 -1.1674  3.8092  1.0835
  133OSM   H18T14434   5.329   3.993   4.802  0.2778 -0.6785  0.2312
  133OSM   H18U14435   5.158   4.031   4.807 -1.5763 -0.0129 -3.4338
  133OSM    C1F14436   5.095   2.900   5.804  0.3511 -0.0744  0.1665
  133OSM     OF14437   5.012   2.829   5.855  0.1729  0.5415 -0.1021
  133OSM    C2F14438   5.090   2.918   5.649 -0.2667  0.1525 -0.4695
  133OSM    H2F14439   5.187   2.891   5.602  1.7713  1.5404  2.6109
  133OSM    H2G14440   5.067   3.025   5.630  0.3352  0.1828 -1.0595
  133OSM    C3F14441   4.970   2.840   5.583  0.2058  0.5406 -0.1161
  133OSM    H3F14442   4.874   2.887   5.613 -0.1175 -0.6700  0.8741
  133OSM    H3G14443   4.977   2.731   5.604  1.1696  0.4934 -0.6420
  133OSM    C4F14444   4.985   2.849   5.431  0.1604 -0.3298 -0.7739
  133OSM    H4F14445   4.902   2.789   5.389 -0.4089 -0.2507  0.2162
  133OSM    H4G14446   5.081   2.801   5.404  0.6471 -0.3809  0.9034
  133OSM    C5F14447   4.981   2.990   5.363 -0.1493  0.3075 -0.1666
  133OSM    H5F14448   5.074   3.046   5.388  0.1282  0.3138 -1.1448
  133OSM    H5G14449   4.897   3.041   5.414 -0.3610 -0.3962  0.2051
  133OSM    C6F14450   4.952   3.001   5.211 -0.5721 -0.2990  0.0184
  133OSM    H6F14451   4.940   3.109   5.187  1.3406 -0.0803 -0.1499
  133OSM    H6G14452   4.854   2.963   5.175  0.3790 -3.3315  0.3367
  133OSM    C7F14453   5.061   2.935   5.127  0.0053 -0.0258 -0.6599
  133OSM    H7F14454   5.121   2.880   5.204 -2.7082 -0.7698  1.0658
  133OSM    H7G14455   5.125   3.013   5.080  0.3787 -0.4707 -0.9054
  133OSM    C8F14456   5.008   2.826   5.036  0.7019  0.0746  0.2520
  133OSM    H8F14457   4.945   2.877   4.959 -1.6510 -3.5155 -0.4520
  133OSM    H8G14458   4.945   2.752   5.090  1.5270 -1.8185 -1.2668
  133OSM    C9F14459   5.118   2.749   4.975  0.6555 -0.2117  0.1980
  133OSM    H9F14460   5.153   2.668   5.040  0.7849 -1.0687 -0.9012
  133OSM   C10F14461   5.165   2.763   4.840  0.8371 -0.4956 -0.4370
  133OSM   H10F14462   5.225   2.676   4.808  0.6324 -0.5949 -0.5566
  133OSM   C11F14463   5.124   2.879   4.752 -0.0107  0.3870 -0.2681
  133OSM   H11F14464   5.210   2.946   4.729  0.2984 -0.0042 -0.2742
  133OSM   H11G14465   5.059   2.948   4.810  1.7006  0.8880  1.1600
  133OSM   C12F14466   5.046   2.848   4.623  0.3917  0.2066 -0.1075
  133OSM   H12F14467   4.960   2.785   4.653  0.4307  0.1512 -0.1115
  133OSM   H12G14468   5.101   2.780   4.554 -0.4588 -1.0159  0.3704
  133OSM   C13F14469   5.006   2.980   4.559  0.6946  0.3066 -0.2785
  133OSM   H13F14470   5.095   3.038   4.526  0.7671  0.6640  0.5388
  133OSM   H13G14471   4.944   3.038   4.630  1.6399 -0.7287  1.4470
  133OSM   C14F14472   4.927   2.952   4.429  0.0498  0.4742 -0.3370
  133OSM   H14F14473   4.828   2.911   4.457  0.4031 -0.0491  0.1640
  133OSM   H14G14474   4.972   2.882   4.355 -0.7139  2.0976 -2.4328
  133OSM   C15F14475   4.906   3.086   4.347  0.2045  1.0910  0.2014
  133OSM   H15F14476   4.998   3.091   4.286  0.5847 -1.5776  0.4404
  133OSM   H15G14477   4.890   3.170   4.418 -0.6438  0.6326  0.5715
  133OSM   C16F14478   4.772   3.064   4.268 -0.7287  0.4867  0.1389
  133OSM   H16F14479   4.687   3.055   4.338 -0.6672  0.5859  0.2274
  133OSM   H16G14480   4.777   2.971   4.207 -1.7995 -0.0746  0.8809
  133OSM   C17F14481   4.747   3.186   4.182 -0.2779  0.1611  0.2900
  133OSM   H17F14482   4.668   3.159   4.109  1.2306 -1.9886 -0.6396
  133OSM   H17G14483   4.844   3.217   4.137 -0.0282 -2.4692 -1.1589
  133OSM   C18F14484   4.686   3.305   4.253  1.0359  0.7653 -0.0471
  133OSM   H18F14485   4.592   3.271   4.300 -0.5283  0.7609 -2.9654
  133OSM   H18G14486   4.649   3.383   4.183  1.2035  0.6943 -0.2158
  133OSM   H18H14487   4.759   3.359   4.316  1.1044  2.2834 -1.3544
  134OSM      N14488   4.721   1.414   6.845  0.2224  0.3900 -0.2670
  134OSM    C1514489   4.763   1.493   6.971  0.2833  0.1560  1.4437
  134OSM   H15A14490   4.859   1.539   6.953 -0.2086  1.4359  1.9828
  134OSM   H15B14491   4.775   1.418   7.048 -0.8225 -2.4909 -0.7907
  134OSM   H15C14492   4.689   1.567   6.996 -0.3052  0.0170  0.2061
  134OSM    C1414493   4.835   1.335   6.799 -0.0425 -0.4779  0.1892
  134OSM   H14A14494   4.913   1.404   6.772  0.0165 -0.9414 -0.8504
  134OSM   H14B14495   4.810   1.273   6.715  1.7975  0.2282 -0.9373
  134OSM   H14C14496   4.868   1.266   6.875 -0.0583 -1.1538 -0.4164
  134OSM    C1314497   4.607   1.321   6.892 -0.2726  0.5534  0.0383
  134OSM   H13A14498   4.600   1.239   6.822 -1.1763  0.6353  0.0235
  134OSM   H13B14499   4.513   1.374   6.882 -1.6944 -1.8672 -0.1963
  134OSM   H13C14500   4.615   1.286   6.993  0.3805 -0.4275 -0.3413
  134OSM    C1214501   4.667   1.517   6.737 -0.0780  0.2808 -0.1620
  134OSM   H12A14502   4.746   1.589   6.719 -1.0401  0.9535 -1.9064
  134OSM   H12B14503   4.582   1.564   6.784  0.0254 -0.2386  0.5614
  134OSM    C1114504   4.636   1.452   6.597 -0.2603 -0.5060 -0.3878
  134OSM   H11A14505   4.724   1.397   6.558  0.7237  1.9059 -1.8308
  134OSM   H11B14506   4.629   1.533   6.521 -1.3719  1.7990  2.0031
  134OSM      P14507   4.452   1.284   6.507  0.1947  0.3571 -0.3732
  134OSM    O1314508   4.522   1.155   6.509  0.4254  0.0841  0.6731
  134OSM    O1414509   4.305   1.282   6.529  0.5701 -0.7397 -0.2278
  134OSM    O1114510   4.478   1.367   6.373 -0.0219  0.3245 -0.1747
  134OSM    O1214511   4.514   1.382   6.614 -0.0323  0.4460  0.1011
  134OSM    C1S14512   4.375   1.334   6.275 -0.4876  0.2634  0.5718
  134OSM    H1S14513   4.292   1.408   6.284 -2.7276 -1.8060 -1.7426
  134OSM    H1T14514   4.316   1.240   6.273 -1.2495  0.6853 -2.2690
  134OSM     NF14515   4.304   1.340   6.042 -0.3169 -0.0488 -0.5175
  134OSM    HNF14516   4.286   1.251   6.000 -0.8151  0.0213 -0.4599
  134OSM    C2S14517   4.421   1.346   6.123 -0.1507  0.4418  0.7788
  134OSM    H2S14518   4.470   1.444   6.109 -0.9717  0.5364 -2.1675
  134OSM    C3S14519   4.525   1.235   6.086 -0.3300  0.4590  0.5608
  134OSM    H3S14520   4.485   1.132   6.102  1.7591 -0.5010 -0.1204
  134OSM     O314521   4.642   1.254   6.162 -0.2343  0.0207  0.1779
  134OSM    HO314522   4.608   1.300   6.239 -0.5134  0.3323 -0.1313
  134OSM    C4S14523   4.572   1.253   5.953 -0.4819 -0.0454  0.1809
  134OSM    H4S14524   4.623   1.351   5.946  1.1122 -0.8993 -1.1330
  134OSM    C5S14525   4.562   1.174   5.841 -0.4076  0.1861 -0.0311
  134OSM    H5S14526   4.516   1.075   5.857  1.9853 -1.0687 -0.4478
  134OSM    C6S14527   4.611   1.195   5.703 -0.3831 -0.2147  0.3207
  134OSM    H6S14528   4.693   1.128   5.670 -0.2750  1.0881 -2.3308
  134OSM    H6T14529   4.636   1.303   5.703 -1.1728  0.0288 -1.9949
  134OSM    C7S14530   4.507   1.179   5.597  0.3361 -0.1824 -0.1816
  134OSM    H7S14531   4.418   1.240   5.625  1.1623  0.6537  0.6661
  134OSM    H7T14532   4.480   1.072   5.588 -3.4977  0.1229  4.0520
  134OSM    C8S14533   4.550   1.241   5.463 -0.0055  0.2908  0.1441
  134OSM    H8S14534   4.652   1.199   5.448 -1.3197 -3.2742  0.3040
  134OSM    H8T14535   4.556   1.350   5.485  1.7804 -0.2797  3.0256
  134OSM    C9S14536   4.465   1.199   5.342 -0.1971  0.4242 -0.1926
  134OSM    H9S14537   4.361   1.216   5.378  0.3032  1.6651  0.7343
  134OSM    H9T14538   4.470   1.096   5.300  2.3910  0.6102 -0.4613
  134OSM   C10S14539   4.484   1.285   5.222  0.3030 -0.1234 -0.4671
  134OSM   H10S14540   4.593   1.287   5.202  0.2757  1.0266 -0.5669
  134OSM   H10T14541   4.443   1.386   5.245 -1.6647 -1.0050  0.1468
  134OSM   C11S14542   4.415   1.232   5.091 -0.3962 -0.2795 -0.4854
  134OSM   H11S14543   4.304   1.230   5.095 -0.5733  3.6376 -0.3844
  134OSM   H11T14544   4.445   1.128   5.063 -2.6496 -0.8259 -1.1180
  134OSM   C12S14545   4.442   1.321   4.969  0.1019 -0.3252  0.4013
  134OSM   H12S14546   4.535   1.280   4.924  1.9695  3.7371  0.1710
  134OSM   H12T14547   4.464   1.428   4.989 -1.3410  0.1457 -0.3813
  134OSM   C13S14548   4.329   1.311   4.859  0.0962  0.9844 -0.3928
  134OSM   H13S14549   4.234   1.353   4.897 -1.4090  0.3898 -3.2372
  134OSM   H13T14550   4.323   1.201   4.844  0.5492  1.1299 -1.7073
  134OSM   C14S14551   4.366   1.374   4.725 -0.1788 -0.0593 -0.0333
  134OSM   H14S14552   4.361   1.485   4.718  1.0913  0.0099 -0.1777
  134OSM   H14T14553   4.294   1.336   4.650 -0.1711 -0.4992  0.1834
  134OSM   C15S14554   4.505   1.342   4.681 -0.2197 -0.3982 -0.2475
  134OSM   H15S14555   4.506   1.231   4.682  0.8280 -0.4134 -1.2078
  134OSM   H15T14556   4.580   1.393   4.745  1.3192  0.3551 -2.5275
  134OSM   C16S14557   4.539   1.402   4.543  0.7286  0.3144 -0.4005
  134OSM   H16S14558   4.509   1.508   4.535 -0.5996 -0.0659 -0.7531
  134OSM   H16T14559   4.474   1.347   4.472 -0.3197 -0.0003  0.7639
  134OSM   C17S14560   4.692   1.393   4.506 -0.5517 -0.2462  0.6329
  134OSM   H17S14561   4.724   1.287   4.521  1.2778  0.2811  0.7340
  134OSM   H17T14562   4.750   1.463   4.569 -1.3625  1.4725 -0.4422
  134OSM   C18S14563   4.717   1.441   4.365  1.3330 -0.5877 -0.2626
  134OSM   H18S14564   4.660   1.533   4.340  0.8442 -1.5545 -3.2057
  134OSM   H18T14565   4.677   1.357   4.302  2.8853 -2.1327  0.7195
  134OSM   H18U14566   4.825   1.451   4.342  1.4305 -1.3257 -0.1765
  134OSM    C1F14567   4.225   1.439   6.008 -0.6270 -0.5299  0.5530
  134OSM     OF14568   4.245   1.551   6.051 -0.4663  1.2166 -0.4326
  134OSM    C2F14569   4.100   1.407   5.917 -0.1481 -0.3769  0.6777
  134OSM    H2F14570   4.076   1.496   5.855 -0.7495 -1.8208 -1.2933
  134OSM    H2G14571   4.016   1.379   5.984 -0.6158 -2.9143 -0.8175
  134OSM    C3F14572   4.118   1.286   5.832  0.4565  0.1155  0.0656
  134OSM    H3F14573   4.149   1.192   5.882 -0.1462 -0.3857 -0.5031
  134OSM    H3G14574   4.189   1.301   5.748 -1.0202 -1.1409 -1.4680
  134OSM    C4F14575   3.983   1.238   5.771  0.3311 -0.2875 -0.3180
  134OSM    H4F14576   3.910   1.231   5.854 -0.4241 -0.1643 -0.9504
  134OSM    H4G14577   3.982   1.134   5.732  3.3480 -0.3694 -0.3797
  134OSM    C5F14578   3.912   1.326   5.672 -0.3758 -0.5134 -0.3642
  134OSM    H5F14579   3.977   1.329   5.582 -2.2463  0.8344 -1.7463
  134OSM    H5G14580   3.899   1.433   5.699 -0.9396 -0.9839  1.3779
  134OSM    C6F14581   3.767   1.282   5.639 -0.2253 -0.6082  0.2780
  134OSM    H6F14582   3.723   1.365   5.580  0.9283 -0.5791 -0.5931
  134OSM    H6G14583   3.713   1.277   5.736  0.9649  0.9707  1.0807
  134OSM    C7F14584   3.760   1.146   5.557 -0.1041 -0.2187 -0.5224
  134OSM    H7F14585   3.680   1.075   5.587  0.7930 -1.1386 -0.2244
  134OSM    H7G14586   3.847   1.080   5.577 -1.0705 -1.0652  1.0464
  134OSM    C8F14587   3.760   1.162   5.407  0.9882 -0.3479  0.3407
  134OSM    H8F14588   3.772   1.060   5.365 -2.4791 -2.3412  3.6246
  134OSM    H8G14589   3.847   1.228   5.383 -0.0842  1.3913  0.9906
  134OSM    C9F14590   3.630   1.218   5.346  0.5481 -0.1691 -0.6123
  134OSM    H9F14591   3.597   1.312   5.394  0.7831 -0.1771 -0.4346
  134OSM   C10F14592   3.561   1.164   5.248 -0.7408 -0.0637 -0.3972
  134OSM   H10F14593   3.475   1.224   5.214 -0.0904  1.3457  0.3707
  134OSM   C11F14594   3.596   1.041   5.167 -0.2129 -0.6267 -0.2777
  134OSM   H11F14595   3.571   0.951   5.226 -1.3057 -0.0697  0.1390
  134OSM   H11G14596   3.707   1.036   5.156 -0.4035 -0.8832 -2.6381
  134OSM   C12F14597   3.533   1.049   5.027  0.9262 -0.4592  0.9457
  134OSM   H12F14598   3.567   1.136   4.967 -0.2783 -1.0355 -0.6530
  134OSM   H12G14599   3.422   1.043   5.032  0.7714  1.3387  0.3508
  134OSM   C13F14600   3.559   0.921   4.941 -0.1696 -0.0621  0.0068
  134OSM   H13F14601   3.531   0.830   4.997 -1.1020  0.1420 -0.1103
  134OSM   H13G14602   3.668   0.917   4.921 -0.0163  1.5774  0.3951
  134OSM   C14F14603   3.495   0.936   4.805 -0.3464  0.1409 -0.0877
  134OSM   H14F14604   3.530   1.026   4.750  0.4937  1.4107  2.3916
  134OSM   H14G14605   3.387   0.955   4.820 -0.5924 -1.0611 -0.2801
  134OSM   C15F14606   3.519   0.814   4.711 -0.0034  0.4968 -0.0057
  134OSM   H15F14607   3.478   0.720   4.753 -0.4411  1.1362  1.0603
  134OSM   H15G14608   3.628   0.811   4.688  0.2182  4.1218 -0.0858
  134OSM   C16F14609   3.451   0.832   4.580 -0.1633 -0.4088  0.1503
  134OSM   H16F14610   3.503   0.924   4.545 -0.7967  0.9582  2.5229
  134OSM   H16G14611   3.344   0.849   4.605 -0.4214 -0.8302 -0.6499
  134OSM   C17F14612   3.455   0.731   4.463 -0.0767  0.0470  0.3763
  134OSM   H17F14613   3.423   0.628   4.490  1.3133 -0.8880 -1.3001
  134OSM   H17G14614   3.557   0.701   4.429 -0.8092 -0.9517 -1.0538
  134OSM   C18F14615   3.393   0.768   4.330 -0.0812  0.2601  0.9822
  134OSM   H18F14616   3.286   0.793   4.352 -0.8341 -1.5882 -0.3552
  134OSM   H18G14617   3.386   0.676   4.269 -3.5534 -0.2368  1.9187
  134OSM   H18H14618   3.439   0.853   4.275 -0.9636 -0.1745 -0.4966
  135OSM      N14619   4.624   0.251   6.616  0.3145 -0.3226  0.3777
  135OSM    C1514620   4.564   0.391   6.590  0.0683 -0.3793  1.0796
  135OSM   H15A14621   4.637   0.460   6.550  0.5599 -1.1758  0.5754
  135OSM   H15B14622   4.534   0.435   6.683  1.5137  2.4514  0.3127
  135OSM   H15C14623   4.474   0.385   6.531 -0.1627  0.4551  1.3436
  135OSM    C1414624   4.730   0.266   6.709  0.0581  0.1873 -1.0012
  135OSM   H14A14625   4.806   0.330   6.666 -0.6710  1.2012 -0.8180
  135OSM   H14B14626   4.775   0.170   6.730  0.1561  0.0670 -1.7575
  135OSM   H14C14627   4.694   0.297   6.806 -2.0722  1.6696 -2.2015
  135OSM    C1314628   4.519   0.161   6.677 -0.3513  0.5920 -0.1258
  135OSM   H13A14629   4.460   0.128   6.593  0.3288  3.5775 -1.9465
  135OSM   H13B14630   4.455   0.215   6.745  1.4599  1.1480  1.2231
  135OSM   H13C14631   4.559   0.069   6.718 -2.6481 -1.0088 -1.2739
  135OSM    C1214632   4.672   0.192   6.484 -0.2227 -0.3613 -0.2318
  135OSM   H12A14633   4.700   0.088   6.494 -0.1022 -0.3494 -0.4424
  135OSM   H12B14634   4.754   0.249   6.443 -0.6846  1.4613  1.2668
  135OSM    C1114635   4.572   0.183   6.367 -0.0504 -0.2083 -0.2028
  135OSM   H11A14636   4.620   0.141   6.276  0.6824  2.2385 -1.0231
  135OSM   H11B14637   4.560   0.290   6.338  0.0794  0.2189  1.2525
  135OSM      P14638   4.419  -0.023   6.361  0.5695  0.3592  0.2571
  135OSM    O1314639   4.549  -0.093   6.350  0.1175 -0.5121  0.0806
  135OSM    O1414640   4.326  -0.074   6.461  0.2190  0.3400  0.0125
  135OSM    O1114641   4.340  -0.017   6.224  0.2814  0.8424 -0.2023
  135OSM    O1214642   4.444   0.128   6.403 -0.0466 -0.1570 -0.5097
  135OSM    C1S14643   4.393   0.049   6.110 -0.5207  0.2278  0.3353
  135OSM    H1S14644   4.504   0.043   6.101 -0.5535 -2.0339  0.8852
  135OSM    H1T14645   4.343   0.149   6.106 -1.4172 -0.2463 -0.5501
  135OSM     NF14646   4.402   0.059   5.867 -0.5437 -0.3504 -0.0907
  135OSM    HNF14647   4.330   0.114   5.827 -0.4527 -1.5261 -2.0176
  135OSM    C2S14648   4.353  -0.020   5.977 -0.6691 -0.1739  0.2864
  135OSM    H2S14649   4.404  -0.119   5.969  0.6299  0.5937 -1.6124
  135OSM    C3S14650   4.199  -0.055   5.974 -0.4555 -0.8540 -0.6436
  135OSM    H3S14651   4.149   0.044   5.980  1.9190  0.3113  1.2178
  135OSM     O314652   4.141  -0.136   6.078  0.8263  0.2678  0.6729
  135OSM    HO314653   4.196  -0.114   6.154  0.8326  2.6079  0.0618
  135OSM    C4S14654   4.157  -0.100   5.833 -0.1674  0.6211  0.4281
  135OSM    H4S14655   4.154  -0.024   5.754  0.9320  0.9006  0.6391
  135OSM    C5S14656   4.149  -0.225   5.786 -0.1334 -0.1092 -0.5887
  135OSM    H5S14657   4.171  -0.301   5.861  2.5412  1.2930  0.1673
  135OSM    C6S14658   4.128  -0.272   5.647  0.3211  0.3856 -0.2056
  135OSM    H6S14659   4.020  -0.285   5.624  0.2211  0.9777 -0.0795
  135OSM    H6T14660   4.176  -0.371   5.633 -1.8066 -0.3245 -3.7473
  135OSM    C7S14661   4.183  -0.176   5.540  0.6621  0.4244 -0.1032
  135OSM    H7S14662   4.290  -0.151   5.553  0.2404  2.3099  0.1379
  135OSM    H7T14663   4.122  -0.083   5.539 -0.7081 -0.4445 -1.3680
  135OSM    C8S14664   4.172  -0.224   5.396  0.0280  0.0248 -0.0480
  135OSM    H8S14665   4.067  -0.211   5.364 -0.2771 -0.7248  0.6095
  135OSM    H8T14666   4.182  -0.335   5.392 -0.0218  0.0583 -1.4694
  135OSM    C9S14667   4.256  -0.155   5.296  0.0594 -0.3293  0.2512
  135OSM    H9S14668   4.362  -0.158   5.331  0.3395 -2.0719 -0.6331
  135OSM    H9T14669   4.220  -0.050   5.284 -1.1047 -0.7585 -0.0821
  135OSM   C10S14670   4.238  -0.202   5.152  0.3916  0.3999 -0.4486
  135OSM   H10S14671   4.150  -0.151   5.107  1.0385  0.3607 -1.8025
  135OSM   H10T14672   4.225  -0.312   5.140 -0.0547  0.6626 -3.0173
  135OSM   C11S14673   4.360  -0.156   5.069 -0.1949 -0.4008  0.4568
  135OSM   H11S14674   4.460  -0.196   5.096 -0.6573 -2.9408 -1.2530
  135OSM   H11T14675   4.363  -0.045   5.061 -0.5484 -0.4664 -0.7939
  135OSM   C12S14676   4.332  -0.179   4.912 -0.2237 -0.2517 -0.7056
  135OSM   H12S14677   4.263  -0.098   4.881 -0.2648 -0.6000 -1.5304
  135OSM   H12T14678   4.297  -0.282   4.890 -1.0128  0.0430 -0.8431
  135OSM   C13S14679   4.453  -0.167   4.817 -0.6364  0.4143 -0.8151
  135OSM   H13S14680   4.535  -0.232   4.856  0.2626  1.7580 -0.4081
  135OSM   H13T14681   4.487  -0.061   4.813 -0.3238  0.2868 -1.7460
  135OSM   C14S14682   4.417  -0.235   4.684 -0.2514  0.5878  0.8615
  135OSM   H14S14683   4.397  -0.344   4.691  0.8457  0.2465 -0.7816
  135OSM   H14T14684   4.503  -0.236   4.614  0.7072 -0.5280  1.9987
  135OSM   C15S14685   4.304  -0.158   4.612 -0.4692 -0.0896  0.0058
  135OSM   H15S14686   4.350  -0.057   4.600 -0.9143  0.2115  0.7894
  135OSM   H15T14687   4.218  -0.158   4.681 -0.9802  0.0866 -0.6228
  135OSM   C16S14688   4.277  -0.207   4.469 -0.3450 -0.6162  1.1644
  135OSM   H16S14689   4.316  -0.311   4.458 -0.5743 -0.5444 -0.7480
  135OSM   H16T14690   4.338  -0.133   4.412  0.9798 -2.4519  0.0800
  135OSM   C17S14691   4.132  -0.192   4.434  0.0859 -0.1219  0.1699
  135OSM   H17S14692   4.067  -0.237   4.512 -0.9727  2.0519  0.6254
  135OSM   H17T14693   4.122  -0.246   4.337 -0.8661  0.5702 -0.1292
  135OSM   C18S14694   4.080  -0.049   4.409 -0.1004  1.1371  0.0253
  135OSM   H18S14695   4.052   0.001   4.504 -0.8423  0.1468  0.3446
  135OSM   H18T14696   3.993  -0.060   4.341 -0.2675  2.5866 -0.0327
  135OSM   H18U14697   4.160   0.016   4.367  0.1164  1.1495  0.4480
  135OSM    C1F14698   4.529   0.076   5.826  0.4158  0.0329 -0.3878
  135OSM     OF14699   4.617   0.008   5.875 -0.5295 -0.1221 -0.3465
  135OSM    C2F14700   4.563   0.182   5.716  0.4995  0.7980  0.1974
  135OSM    H2F14701   4.578   0.278   5.769 -1.1777  0.2257  1.7987
  135OSM    H2G14702   4.468   0.191   5.659 -0.8692 -1.5794  1.9124
  135OSM    C3F14703   4.680   0.139   5.624  0.1937 -0.5427 -0.1302
  135OSM    H3F14704   4.779   0.143   5.674 -0.2649 -0.5722  0.7926
  135OSM    H3G14705   4.671   0.219   5.547 -2.5424  0.6160  1.2669
  135OSM    C4F14706   4.657   0.003   5.553  1.1696  0.1692  0.2119
  135OSM    H4F14707   4.672  -0.070   5.635 -0.4371 -1.1602 -0.6187
  135OSM    H4G14708   4.552  -0.004   5.517  1.3047 -1.0558  0.0156
  135OSM    C5F14709   4.744  -0.042   5.434  0.2724 -0.4785 -0.2237
  135OSM    H5F14710   4.716  -0.147   5.416 -2.0454  0.0490  0.0558
  135OSM    H5G14711   4.854  -0.034   5.447  0.6950  1.5488 -3.7816
  135OSM    C6F14712   4.723   0.043   5.302  0.1404  0.0207 -0.0202
  135OSM    H6F14713   4.759   0.147   5.317 -1.2178  0.7794 -1.6923
  135OSM    H6G14714   4.615   0.046   5.276  0.0567 -1.2659  0.0927
  135OSM    C7F14715   4.805  -0.024   5.193  0.0528  0.0065  0.2780
  135OSM    H7F14716   4.795  -0.132   5.216 -0.3572 -0.2709 -1.0966
  135OSM    H7G14717   4.912   0.005   5.201  0.3469 -0.0675 -2.3906
  135OSM    C8F14718   4.763  -0.009   5.040 -0.3599  1.4114  0.0434
  135OSM    H8F14719   4.692  -0.093   5.029  0.0510  0.8272  1.6357
  135OSM    H8G14720   4.851  -0.045   4.982  1.2204  2.9149  1.3744
  135OSM    C9F14721   4.703   0.120   5.000 -0.6543 -0.7967  0.0353
  135OSM    H9F14722   4.645   0.165   5.082  0.6761 -2.7778  2.1649
  135OSM   C10F14723   4.713   0.180   4.876 -0.2487 -0.5777 -0.9996
  135OSM   H10F14724   4.656   0.273   4.864 -0.2800 -0.2667  1.1614
  135OSM   C11F14725   4.796   0.122   4.764  0.1145  0.0337 -0.3475
  135OSM   H11F14726   4.796   0.011   4.758  2.4470 -0.0654  0.7259
  135OSM   H11G14727   4.901   0.156   4.773  0.4818 -1.0118 -0.5666
  135OSM   C12F14728   4.742   0.172   4.628 -0.3278  0.6329  0.4828
  135OSM   H12F14729   4.638   0.144   4.604 -0.4356  0.1051  1.5175
  135OSM   H12G14730   4.808   0.129   4.550  1.3861  0.7069  1.8160
  135OSM   C13F14731   4.752   0.327   4.606  0.4408  0.0882  0.3963
  135OSM   H13F14732   4.741   0.375   4.706 -1.2846  2.0495 -0.6544
  135OSM   H13G14733   4.660   0.359   4.552  0.6326  0.5518  0.3362
  135OSM   C14F14734   4.884   0.360   4.543  0.3110  0.4259  1.0294
  135OSM   H14F14735   4.873   0.315   4.443  1.9992  0.2809  0.8846
  135OSM   H14G14736   4.963   0.295   4.586 -1.3960 -3.9152 -1.7330
  135OSM   C15F14737   4.907   0.512   4.526  0.3277 -0.0551 -0.2712
  135OSM   H15F14738   4.947   0.567   4.614  1.7096  0.6287 -1.2870
  135OSM   H15G14739   4.812   0.566   4.508  0.0801 -0.5619 -0.5149
  135OSM   C16F14740   4.988   0.547   4.402 -0.0483  0.4677  0.6817
  135OSM   H16F14741   4.926   0.505   4.319  0.3961  0.4759  0.3409
  135OSM   H16G14742   5.089   0.500   4.407 -0.0799  0.4003  0.7014
  135OSM   C17F14743   5.008   0.697   4.389  0.0990  0.4915  0.0188
  135OSM   H17F14744   5.061   0.727   4.482  0.0154 -0.9950  0.5769
  135OSM   H17G14745   4.906   0.740   4.380 -1.8319 -3.9970 -3.4377
  135OSM   C18F14746   5.093   0.728   4.270  0.1645 -0.2957 -0.8255
  135OSM   H18F14747   5.055   0.665   4.186 -1.1925  1.2290 -1.4156
  135OSM   H18G14748   5.203   0.714   4.280 -0.1568 -1.8095  1.3172
  135OSM   H18H14749   5.075   0.832   4.237 -2.3294 -0.5771 -0.5380
  136OSM      N14750   6.618   0.825   6.688  0.1279 -0.5099  0.2513
  136OSM    C1514751   6.637   0.773   6.824 -0.7979  0.4120  0.7995
  136OSM   H15A14752   6.548   0.784   6.883 -0.3827  0.9242  1.3394
  136OSM   H15B14753   6.724   0.820   6.867  1.2368 -1.9728 -0.3893
  136OSM   H15C14754   6.660   0.667   6.818  0.8948  0.8164 -0.9172
  136OSM    C1414755   6.490   0.767   6.630 -0.2342  0.0626 -0.2060
  136OSM   H14A14756   6.490   0.659   6.632  0.3427  0.0130 -1.3940
  136OSM   H14B14757   6.479   0.796   6.526  2.8017 -0.4012 -0.7747
  136OSM   H14C14758   6.400   0.796   6.681  0.5453 -0.6203  1.6404
  136OSM    C1314759   6.598   0.972   6.698 -0.4677  0.9647  0.1872
  136OSM   H13A14760   6.677   1.024   6.749  0.3683 -1.2183  1.2134
  136OSM   H13B14761   6.516   0.994   6.764  0.4378  1.6568  1.1052
  136OSM   H13C14762   6.597   1.010   6.596  1.1204 -0.8685 -0.5619
  136OSM    C1214763   6.735   0.796   6.596  0.9997 -0.3632  0.0170
  136OSM   H12A14764   6.820   0.849   6.634  0.4166  0.7913 -0.2510
  136OSM   H12B14765   6.706   0.834   6.499  1.2072 -0.5227 -0.1070
  136OSM    C1114766   6.776   0.646   6.562 -0.8078 -0.4001 -0.0934
  136OSM   H11A14767   6.849   0.650   6.478 -0.4893 -1.2131  0.1396
  136OSM   H11B14768   6.688   0.588   6.529 -0.3940  0.1954 -2.4033
  136OSM      P14769   6.988   0.637   6.719  0.2224  0.6468  0.0452
  136OSM    O1314770   6.978   0.718   6.838  0.1040  0.3539 -0.2350
  136OSM    O1414771   7.068   0.515   6.728 -0.0397  0.4982  0.0686
  136OSM    O1114772   7.032   0.726   6.600 -0.5752  0.5176 -0.3885
  136OSM    O1214773   6.842   0.592   6.675 -0.4163 -0.2382  0.1426
  136OSM    C1S14774   7.168   0.770   6.588  0.2500  0.3336  0.0594
  136OSM    H1S14775   7.242   0.713   6.649 -0.5849 -0.1041  0.6826
  136OSM    H1T14776   7.163   0.875   6.623  1.0548  0.2155  0.5623
  136OSM     NF14777   7.343   0.790   6.423 -0.1167  0.1871 -0.2461
  136OSM    HNF14778   7.371   0.884   6.406  1.7921 -0.8230 -3.6439
  136OSM    C2S14779   7.202   0.757   6.434  0.3889 -0.1240 -0.2437
  136OSM    H2S14780   7.193   0.654   6.396 -0.7096  0.2134 -0.9418
  136OSM    C3S14781   7.105   0.845   6.354 -0.7645 -0.5516 -0.4159
  136OSM    H3S14782   7.138   0.948   6.380 -0.6390 -0.9092  0.9139
  136OSM     O314783   6.965   0.834   6.375 -0.4317 -0.4949  0.0024
  136OSM    HO314784   6.965   0.787   6.459  0.1296 -1.2340 -0.3964
  136OSM    C4S14785   7.137   0.842   6.207  0.7591  0.9237 -0.0902
  136OSM    H4S14786   7.191   0.930   6.168  0.1769  0.9594 -0.8367
  136OSM    C5S14787   7.096   0.745   6.118  0.3489  0.1854  0.1482
  136OSM    H5S14788   7.033   0.662   6.154  1.7378  0.0818  2.5054
  136OSM    C6S14789   7.112   0.759   5.971 -0.7847  0.2351 -0.0073
  136OSM    H6S14790   7.040   0.696   5.915 -2.7291  3.3912 -1.3366
  136OSM    H6T14791   7.217   0.735   5.946 -0.7497  0.8079 -0.4238
  136OSM    C7S14792   7.087   0.898   5.908  0.6987  0.0578  0.4912
  136OSM    H7S14793   7.155   0.979   5.943  0.3955  0.4858  0.0897
  136OSM    H7T14794   6.991   0.939   5.945  0.2045  0.5816 -1.2789
  136OSM    C8S14795   7.091   0.899   5.760  0.4860  0.2886 -0.3039
  136OSM    H8S14796   7.056   0.991   5.710  0.9526 -0.1235 -1.4308
  136OSM    H8T14797   7.027   0.812   5.730  0.9483 -1.7811  3.9236
  136OSM    C9S14798   7.230   0.873   5.711 -0.4600 -0.8580  0.1967
  136OSM    H9S14799   7.277   0.781   5.751  1.3846 -0.4275 -0.8554
  136OSM    H9T14800   7.301   0.956   5.730 -2.0297  0.8738 -1.1433
  136OSM   C10S14801   7.236   0.845   5.560 -0.5691  0.1368  0.4461
  136OSM   H10S14802   7.208   0.940   5.510  0.0096 -0.9104 -1.9907
  136OSM   H10T14803   7.152   0.775   5.538  0.8086 -1.6979  0.7482
  136OSM   C11S14804   7.374   0.806   5.500  0.1785  0.4768  0.5410
  136OSM   H11S14805   7.394   0.703   5.536 -0.6883  0.1718  0.1794
  136OSM   H11T14806   7.460   0.863   5.540  0.1753 -1.4403  3.5647
  136OSM   C12S14807   7.387   0.795   5.353 -0.5130  0.4067  0.1845
  136OSM   H12S14808   7.485   0.745   5.334 -0.8835 -0.6364  0.9436
  136OSM   H12T14809   7.393   0.897   5.309 -0.6097  0.4324  0.2318
  136OSM   C13S14810   7.277   0.716   5.267  0.2269 -0.2251  0.4392
  136OSM   H13S14811   7.176   0.763   5.278  0.1707 -0.6171  1.7848
  136OSM   H13T14812   7.263   0.612   5.303 -0.1423 -0.5942 -0.7287
  136OSM   C14S14813   7.317   0.708   5.119 -0.0314  1.2090  0.0234
  136OSM   H14S14814   7.428   0.712   5.119 -0.0450  1.6936  0.0307
  136OSM   H14T14815   7.288   0.799   5.061 -0.2805  1.3442  0.3597
  136OSM   C15S14816   7.276   0.571   5.053 -0.1590  0.1101  0.1898
  136OSM   H15S14817   7.168   0.547   5.067 -0.3160  0.3429 -0.5887
  136OSM   H15T14818   7.333   0.490   5.103  3.3665  1.8203 -0.7600
  136OSM   C16S14819   7.296   0.581   4.898 -0.2693 -0.2126 -0.0235
  136OSM   H16S14820   7.297   0.476   4.862  2.1770  0.1890 -1.3287
  136OSM   H16T14821   7.395   0.626   4.876 -0.5701  1.2263  1.3837
  136OSM   C17S14822   7.173   0.651   4.832 -0.2540 -1.1317 -0.3220
  136OSM   H17S14823   7.169   0.752   4.876 -1.0122 -2.8515  4.0507
  136OSM   H17T14824   7.086   0.585   4.852 -1.9091  1.0388 -0.0873
  136OSM   C18S14825   7.193   0.652   4.678  0.1609 -0.1473 -0.1715
  136OSM   H18S14826   7.207   0.548   4.641 -3.0713 -0.6826 -0.1938
  136OSM   H18T14827   7.284   0.712   4.657 -0.7578  0.7607 -1.7252
  136OSM   H18U14828   7.111   0.707   4.626  2.7930  1.5213 -2.8500
  136OSM    C1F14829   7.437   0.706   6.469 -0.4739  0.3616  0.2223
  136OSM     OF14830   7.415   0.600   6.524 -0.1122 -0.2418  0.3504
  136OSM    C2F14831   7.573   0.761   6.462 -0.0320 -0.2793 -0.5718
  136OSM    H2F14832   7.612   0.788   6.562 -1.0735 -2.1380  0.3858
  136OSM    H2G14833   7.585   0.847   6.393 -0.8399  2.5802  2.5895
  136OSM    C3F14834   7.670   0.654   6.415 -0.7084  0.4977 -0.7960
  136OSM    H3F14835   7.661   0.564   6.480  1.0629 -0.9235 -2.4032
  136OSM    H3G14836   7.769   0.698   6.438 -1.1711  2.4795 -2.2751
  136OSM    C4F14837   7.671   0.593   6.265  0.4849  0.1521 -0.0154
  136OSM    H4F14838   7.590   0.516   6.271  1.4516 -0.8735  0.2886
  136OSM    H4G14839   7.772   0.566   6.228 -0.3827  0.6150 -3.0097
  136OSM    C5F14840   7.647   0.695   6.158  0.5407  0.1373 -0.4913
  136OSM    H5F14841   7.732   0.762   6.135 -0.2923  1.4065 -0.0071
  136OSM    H5G14842   7.565   0.760   6.196 -2.1059 -2.4380 -1.3469
  136OSM    C6F14843   7.593   0.648   6.022  0.4721  0.2488 -0.0354
  136OSM    H6F14844   7.557   0.740   5.970 -1.8149 -1.6444 -1.9943
  136OSM    H6G14845   7.507   0.578   6.028  2.4454 -2.5244 -2.0163
  136OSM    C7F14846   7.694   0.573   5.930 -0.3100  0.4866  0.5164
  136OSM    H7F14847   7.737   0.490   5.990 -1.3475  0.9327  1.9490
  136OSM    H7G14848   7.781   0.634   5.896  0.8136 -0.1161  2.2021
  136OSM    C8F14849   7.611   0.520   5.804 -0.2900 -0.1181  0.4722
  136OSM    H8F14850   7.577   0.609   5.746 -0.6045 -0.4529  0.1361
  136OSM    H8G14851   7.524   0.460   5.836  0.6647 -1.8132  0.0505
  136OSM    C9F14852   7.688   0.414   5.730 -0.0146  0.7259  0.6501
  136OSM    H9F14853   7.693   0.324   5.794  0.1693  0.0076 -0.3581
  136OSM   C10F14854   7.747   0.420   5.607  0.1544  0.1466  0.2156
  136OSM   H10F14855   7.797   0.332   5.564 -0.1311  0.5115 -0.8982
  136OSM   C11F14856   7.731   0.533   5.510 -0.2794  0.3288 -0.3495
  136OSM   H11F14857   7.829   0.575   5.480  0.3894  0.9068  2.3549
  136OSM   H11G14858   7.671   0.617   5.552 -0.9196 -0.7182  0.9061
  136OSM   C12F14859   7.650   0.479   5.379  0.0491  0.0005 -0.8577
  136OSM   H12F14860   7.618   0.569   5.322 -2.7361 -0.4853 -0.1938
  136OSM   H12G14861   7.550   0.440   5.405  0.7782 -1.2278  0.2009
  136OSM   C13F14862   7.720   0.379   5.285 -0.1027 -0.2763  0.1825
  136OSM   H13F14863   7.745   0.281   5.332 -3.3340 -2.0174 -1.3923
  136OSM   H13G14864   7.812   0.435   5.258 -0.1311 -0.5346 -0.4698
  136OSM   C14F14865   7.642   0.366   5.156  0.1399 -0.0617  0.3702
  136OSM   H14F14866   7.639   0.467   5.112  1.0294  0.4479  1.4327
  136OSM   H14G14867   7.542   0.316   5.163  0.6956 -1.1753  0.6358
  136OSM   C15F14868   7.724   0.278   5.063  0.0764  0.6470  0.4590
  136OSM   H15F14869   7.759   0.179   5.099  0.3883 -0.0787 -1.7077
  136OSM   H15G14870   7.812   0.339   5.032  0.7839 -0.2575  0.6669
  136OSM   C16F14871   7.652   0.245   4.933  0.9315 -0.3742 -0.5572
  136OSM   H16F14872   7.567   0.175   4.949  1.4831 -1.0903 -0.6762
  136OSM   H16G14873   7.727   0.183   4.880  2.7903 -0.4418  2.0000
  136OSM   C17F14874   7.606   0.375   4.848 -0.3778 -1.3298 -0.6804
  136OSM   H17F14875   7.702   0.430   4.837 -1.2318 -0.2247 -3.2776
  136OSM   H17G14876   7.536   0.425   4.917  1.8491  1.0023  0.0566
  136OSM   C18F14877   7.533   0.356   4.710  0.3286 -0.1315  0.0272
  136OSM   H18F14878   7.469   0.446   4.695  0.6613 -0.0090 -0.6896
  136OSM   H18G14879   7.470   0.264   4.706  2.3541 -1.6145  0.4244
  136OSM   H18H14880   7.606   0.356   4.626 -1.0726 -2.1391 -1.2984
  137OSM      N14881   2.937   6.620   6.828  0.0181  0.3466 -0.4487
  137OSM    C1514882   2.875   6.615   6.965  0.5313 -0.3313 -0.2059
  137OSM   H15A14883   2.768   6.626   6.963  0.6103  0.3974 -1.0865
  137OSM   H15B14884   2.921   6.692   7.025  0.6829  1.6954 -2.7422
  137OSM   H15C14885   2.895   6.518   7.008  0.9263  1.0318  2.9360
  137OSM    C1414886   3.082   6.582   6.842  0.0105  0.1582 -0.0034
  137OSM   H14A14887   3.136   6.573   6.749  1.6566 -0.0862  0.9316
  137OSM   H14B14888   3.085   6.493   6.903 -1.0254 -0.0642 -0.2603
  137OSM   H14C14889   3.137   6.665   6.883 -0.7033  0.2720  0.7641
  137OSM    C1314890   2.872   6.526   6.728 -0.4071 -0.0486 -0.1601
  137OSM   H13A14891   2.767   6.547   6.714 -0.6614  0.0237  1.6203
  137OSM   H13B14892   2.871   6.428   6.772 -0.8773 -0.2181 -0.5489
  137OSM   H13C14893   2.918   6.512   6.631 -0.6774 -0.7296 -0.1923
  137OSM    C1214894   2.918   6.765   6.765  0.3789  0.0847 -0.1751
  137OSM   H12A14895   2.953   6.838   6.837  0.0975  0.4389 -0.3961
  137OSM   H12B14896   2.811   6.776   6.766  0.1941 -1.0822 -2.1655
  137OSM    C1114897   2.988   6.812   6.629 -0.3576 -0.0249  0.0719
  137OSM   H11A14898   2.963   6.911   6.586  1.2239  0.6611  0.6641
  137OSM   H11B14899   2.951   6.732   6.561  0.8047  1.0247 -1.8854
  137OSM      P14900   3.225   6.924   6.657  0.0880  0.3892 -0.0429
  137OSM    O1314901   3.156   7.027   6.734 -0.1693 -0.3252 -0.2925
  137OSM    O1414902   3.359   6.874   6.703  0.9039  0.3598  0.5086
  137OSM    O1114903   3.224   6.966   6.512 -0.0464 -0.4278 -0.1160
  137OSM    O1214904   3.128   6.800   6.649  0.0091  0.8759  0.0093
  137OSM    C1S14905   3.301   6.925   6.405 -0.1176 -0.5569 -0.0522
  137OSM    H1S14906   3.383   6.856   6.434  1.5043  1.3244  0.1100
  137OSM    H1T14907   3.346   7.013   6.354 -2.2151  1.8964  2.0590
  137OSM     NF14908   3.296   6.814   6.190 -0.6572 -0.7601  0.0271
  137OSM    HNF14909   3.279   6.861   6.104  0.5146  2.4403  1.3954
  137OSM    C2S14910   3.209   6.856   6.295 -0.7459  0.2249  0.2048
  137OSM    H2S14911   3.161   6.768   6.341 -2.6325  0.6707 -0.8333
  137OSM    C3S14912   3.091   6.947   6.247  0.5467 -0.6435  0.1397
  137OSM    H3S14913   3.137   7.034   6.195 -2.6908  1.8018  1.0450
  137OSM     O314914   3.015   7.023   6.346 -0.3894  0.5220  0.1020
  137OSM    HO314915   3.058   7.010   6.431 -4.7558  0.4904  2.6228
  137OSM    C4S14916   2.996   6.875   6.145  0.0648 -0.2944  0.2858
  137OSM    H4S14917   3.036   6.879   6.042 -1.5600  1.4802 -0.3561
  137OSM    C5S14918   2.865   6.832   6.162  0.1962 -0.1408 -0.1147
  137OSM    H5S14919   2.813   6.858   6.255 -0.4851  2.6196 -1.1848
  137OSM    C6S14920   2.782   6.769   6.046  0.6882 -0.4083 -0.3131
  137OSM    H6S14921   2.725   6.847   5.990 -0.3273 -1.1559 -0.3303
  137OSM    H6T14922   2.703   6.704   6.088  1.2337  0.5624  2.3739
  137OSM    C7S14923   2.848   6.687   5.927 -0.2116  0.6382  0.0931
  137OSM    H7S14924   2.872   6.584   5.961 -0.8520 -0.1042 -1.5537
  137OSM    H7T14925   2.943   6.731   5.890  0.1472  0.1244  0.3760
  137OSM    C8S14926   2.751   6.668   5.805  0.0402 -0.1721  0.0028
  137OSM    H8S14927   2.749   6.762   5.747 -0.5445 -0.6808 -0.8190
  137OSM    H8T14928   2.653   6.644   5.850  1.1761 -2.5619  1.4425
  137OSM    C9S14929   2.794   6.565   5.704  0.2641 -0.4464  0.2277
  137OSM    H9S14930   2.810   6.475   5.767  0.5468  1.4898  3.1643
  137OSM    H9T14931   2.895   6.600   5.674  0.2140  1.6434  2.1953
  137OSM   C10S14932   2.687   6.521   5.605  0.2051 -0.2685  0.0102
  137OSM   H10S14933   2.595   6.522   5.668  1.3407  1.4670  1.7584
  137OSM   H10T14934   2.711   6.420   5.565 -2.0043 -1.3192  1.1653
  137OSM   C11S14935   2.663   6.615   5.488 -0.1578 -0.2680  0.0526
  137OSM   H11S14936   2.753   6.612   5.424  0.3809 -2.5613  0.8413
  137OSM   H11T14937   2.642   6.715   5.530 -2.1515 -0.0014 -1.3927
  137OSM   C12S14938   2.535   6.578   5.408 -0.8839 -0.2394  0.3941
  137OSM   H12S14939   2.441   6.599   5.462 -2.8888 -3.8385 -1.3090
  137OSM   H12T14940   2.536   6.467   5.400 -0.0337 -0.2841  0.9924
  137OSM   C13S14941   2.528   6.644   5.275 -0.8632 -0.0103  0.9121
  137OSM   H13S14942   2.620   6.631   5.215 -1.5951  2.6691 -1.0108
  137OSM   H13T14943   2.515   6.753   5.290  0.4905  0.3763 -0.4368
  137OSM   C14S14944   2.407   6.602   5.187  0.2514  0.5045 -0.6007
  137OSM   H14S14945   2.320   6.628   5.251  0.5199 -0.9777  0.4216
  137OSM   H14T14946   2.414   6.491   5.177  3.2851  0.3381  1.7819
  137OSM   C15S14947   2.400   6.677   5.052  0.4181 -0.2710  0.6856
  137OSM   H15S14948   2.383   6.611   4.964 -0.2319  1.2525 -0.3687
  137OSM   H15T14949   2.503   6.714   5.029 -0.4663  1.4238 -0.7778
  137OSM   C16S14950   2.302   6.788   5.041 -0.7857  0.2955 -0.1021
  137OSM   H16S14951   2.324   6.851   5.130 -0.2190  1.6542 -1.1645
  137OSM   H16T14952   2.196   6.754   5.044 -0.6871 -0.1144 -0.9481
  137OSM   C17S14953   2.328   6.879   4.921 -0.4141  0.2542  0.5273
  137OSM   H17S14954   2.425   6.933   4.930 -0.3232  0.0202  1.0229
  137OSM   H17T14955   2.255   6.963   4.929  0.1911  0.8805 -0.3566
  137OSM   C18S14956   2.309   6.799   4.789 -0.3272 -0.0063  0.4205
  137OSM   H18S14957   2.395   6.732   4.770 -2.2415 -2.4419 -0.1990
  137OSM   H18T14958   2.301   6.868   4.702  0.4595 -0.1402  0.2377
  137OSM   H18U14959   2.216   6.741   4.804 -1.7203  1.2887 -2.4191
  137OSM    C1F14960   3.392   6.726   6.201  0.0084  0.0002 -0.5658
  137OSM     OF14961   3.427   6.677   6.308  0.4350  0.3439  0.3407
  137OSM    C2F14962   3.458   6.684   6.067 -0.3333 -0.6655  0.4981
  137OSM    H2F14963   3.444   6.768   5.996  0.1658  0.1668  1.3651
  137OSM    H2G14964   3.404   6.591   6.038 -0.0761 -0.7461  0.2652
  137OSM    C3F14965   3.609   6.636   6.088  0.8756  0.6572 -0.7996
  137OSM    H3F14966   3.608   6.569   6.176  1.1371  1.4310 -0.1938
  137OSM    H3G14967   3.675   6.721   6.118  0.4745  0.5982  0.2855
  137OSM    C4F14968   3.672   6.563   5.971 -0.2310 -0.0232  0.1436
  137OSM    H4F14969   3.594   6.498   5.926 -0.7464  0.3874  0.4319
  137OSM    H4G14970   3.750   6.497   6.016 -0.6010 -1.4883 -1.3017
  137OSM    C5F14971   3.730   6.668   5.876 -0.1486 -0.6344 -0.0222
  137OSM    H5F14972   3.826   6.700   5.920  0.2306 -2.1796  0.3389
  137OSM    H5G14973   3.669   6.761   5.871  0.7250 -0.0935 -0.9739
  137OSM    C6F14974   3.758   6.615   5.738 -0.4638 -0.4437 -0.4084
  137OSM    H6F14975   3.789   6.509   5.747  4.4415  0.8372  0.6935
  137OSM    H6G14976   3.839   6.672   5.688 -1.5463  1.5863  0.0522
  137OSM    C7F14977   3.643   6.617   5.635  0.2713 -0.4566 -0.4387
  137OSM    H7F14978   3.694   6.618   5.537  2.0645  0.1730  0.4665
  137OSM    H7G14979   3.606   6.721   5.647  0.2594 -0.5762  0.7344
  137OSM    C8F14980   3.523   6.522   5.648  0.0914  0.2940  0.0173
  137OSM    H8F14981   3.456   6.563   5.569 -1.3497  1.4022  1.7384
  137OSM    H8G14982   3.473   6.527   5.747  0.8393  0.7319  0.3773
  137OSM    C9F14983   3.565   6.381   5.619  0.1371 -0.2475  0.1258
  137OSM    H9F14984   3.659   6.347   5.663  0.4152 -0.9317 -0.9411
  137OSM   C10F14985   3.514   6.295   5.529 -0.1552  0.3711 -0.0109
  137OSM   H10F14986   3.565   6.198   5.518  1.0500  0.7541  1.7128
  137OSM   C11F14987   3.393   6.322   5.441  0.5538  0.3094  0.7793
  137OSM   H11F14988   3.344   6.421   5.452 -1.8033 -0.5848 -0.7852
  137OSM   H11G14989   3.310   6.256   5.475 -0.2322  1.5812  1.4063
  137OSM   C12F14990   3.427   6.299   5.287 -0.1655  0.0227 -0.1710
  137OSM   H12F14991   3.332   6.330   5.237 -2.5328 -3.1215  1.9672
  137OSM   H12G14992   3.438   6.192   5.260 -0.2631  0.2333 -1.0915
  137OSM   C13F14993   3.541   6.381   5.224  0.7345 -0.5907 -0.6446
  137OSM   H13F14994   3.643   6.346   5.249  1.2551  0.3272 -1.3986
  137OSM   H13G14995   3.533   6.490   5.244  0.2705 -0.5710 -0.9332
  137OSM   C14F14996   3.540   6.354   5.072 -0.0810 -0.6166  0.0819
  137OSM   H14F14997   3.524   6.246   5.051  0.6542 -0.6074 -0.5527
  137OSM   H14G14998   3.639   6.377   5.027  1.0427 -4.1537  0.4600
  137OSM   C15F14999   3.436   6.442   5.003  0.3967 -0.8256  0.0191
  137OSM   H15F15000   3.468   6.548   5.009 -0.0471 -0.7418  1.2384
  137OSM   H15G15001   3.338   6.424   5.052 -0.1062 -0.0892 -0.6860
  137OSM   C16F15002   3.431   6.417   4.851 -0.2034 -0.4077 -0.1285
  137OSM   H16F15003   3.422   6.307   4.836  2.8520 -1.0062  1.5841
  137OSM   H16G15004   3.528   6.458   4.816  0.2895 -2.0776 -0.8263
  137OSM   C17F15005   3.317   6.491   4.785 -0.6542 -0.6630  0.3680
  137OSM   H17F15006   3.301   6.587   4.840 -0.8175  0.8144 -2.0784
  137OSM   H17G15007   3.222   6.435   4.791 -0.5488 -1.7007 -4.1407
  137OSM   C18F15008   3.337   6.540   4.642 -0.0685 -0.3354 -0.2953
  137OSM   H18F15009   3.253   6.600   4.602 -0.1099 -1.6275 -2.2815
  137OSM   H18G15010   3.358   6.451   4.579  0.3030 -0.3066 -0.2148
  137OSM   H18H15011   3.426   6.607   4.646 -0.5886  0.3319  0.6217
  138OSM      N15012   5.405   5.260   6.824  0.1864  0.1253 -0.3133
  138OSM    C1515013   5.473   5.159   6.916 -0.2518  0.3529 -0.1382
  138OSM   H15A15014   5.538   5.103   6.851 -0.1996  1.1763 -0.8094
  138OSM   H15B15015   5.404   5.094   6.967  0.5296 -0.3402  0.0433
  138OSM   H15C15016   5.528   5.210   6.993 -1.8649  0.6133  0.8965
  138OSM    C1415017   5.324   5.184   6.729  0.2325 -0.2804  0.5756
  138OSM   H14A15018   5.383   5.134   6.654  1.1868  0.4786  0.7947
  138OSM   H14B15019   5.250   5.247   6.682  0.0573 -2.2937 -2.0992
  138OSM   H14C15020   5.266   5.116   6.789 -2.6229  1.5438  0.1160
  138OSM    C1315021   5.307   5.343   6.908  0.2003 -0.3022  0.2613
  138OSM   H13A15022   5.230   5.281   6.949 -0.5149 -1.9880 -3.2343
  138OSM   H13B15023   5.248   5.408   6.845  2.4125  0.5244 -1.1173
  138OSM   H13C15024   5.356   5.405   6.982  2.0031 -0.4394 -0.7500
  138OSM    C1215025   5.505   5.346   6.752  0.7541  0.5848 -0.4053
  138OSM   H12A15026   5.572   5.406   6.813 -0.3147  2.3144 -0.8496
  138OSM   H12B15027   5.444   5.411   6.691  1.1803 -0.6707 -2.2604
  138OSM    C1115028   5.595   5.277   6.648  0.6681 -0.3946 -0.6869
  138OSM   H11A15029   5.633   5.363   6.588 -0.6228  2.0172  1.7430
  138OSM   H11B15030   5.543   5.216   6.571 -0.7262  0.7536 -0.6954
  138OSM      P15031   5.849   5.254   6.714  0.0971 -0.2795 -0.1376
  138OSM    O1315032   5.862   5.378   6.789  0.0021  0.0818 -0.1273
  138OSM    O1415033   5.928   5.141   6.771  0.1654  0.2023  0.5940
  138OSM    O1115034   5.882   5.276   6.559 -0.1171 -1.1291  0.3697
  138OSM    O1215035   5.699   5.205   6.712  0.1376  0.3685 -0.2458
  138OSM    C1S15036   5.871   5.166   6.469 -0.3329  0.0721  0.5453
  138OSM    H1S15037   5.785   5.102   6.499 -1.7009  2.0037  0.9324
  138OSM    H1T15038   5.963   5.104   6.467 -0.1953  0.2372  1.2465
  138OSM     NF15039   5.856   5.106   6.221 -0.6060  0.0438 -0.5573
  138OSM    HNF15040   5.936   5.082   6.167 -1.1058  1.1551 -1.8431
  138OSM    C2S15041   5.849   5.216   6.316 -0.2554  0.4227  0.6684
  138OSM    H2S15042   5.752   5.268   6.302 -1.1398 -1.2018  0.5434
  138OSM    C3S15043   5.970   5.316   6.283  0.1520 -0.9971 -0.5296
  138OSM    H3S15044   6.067   5.265   6.304  1.0491  1.0955  0.6878
  138OSM     O315045   5.974   5.430   6.377  0.0529  0.1914 -0.1682
  138OSM    HO315046   5.928   5.400   6.455  0.0933  2.2208  0.6731
  138OSM    C4S15047   5.973   5.368   6.143 -0.1995  0.1651  0.1581
  138OSM    H4S15048   6.053   5.318   6.086  0.4287 -1.8799  2.6221
  138OSM    C5S15049   5.913   5.476   6.087 -0.1535 -0.3287 -0.6123
  138OSM    H5S15050   5.845   5.528   6.156 -0.3588 -1.6907  0.2469
  138OSM    C6S15051   5.940   5.540   5.963 -0.8107 -0.0035  0.3019
  138OSM    H6S15052   6.020   5.615   5.984 -1.3444  0.1809  1.7242
  138OSM    H6T15053   5.855   5.602   5.929  0.3130  1.0165 -0.7531
  138OSM    C7S15054   5.978   5.453   5.840  0.1171 -0.2862  0.1519
  138OSM    H7S15055   5.904   5.370   5.840 -1.0601  0.6230 -2.9381
  138OSM    H7T15056   6.083   5.417   5.843  0.0698 -0.3817  0.6123
  138OSM    C8S15057   5.948   5.528   5.706  0.2631  0.0458 -0.2192
  138OSM    H8S15058   5.997   5.627   5.712  3.1863 -1.3371  0.3165
  138OSM    H8T15059   5.838   5.538   5.697 -0.4319 -4.8811 -0.3763
  138OSM    C9S15060   6.022   5.458   5.588 -0.1099  0.0997 -0.0235
  138OSM    H9S15061   5.979   5.356   5.590  0.2881 -0.0954  3.0490
  138OSM    H9T15062   6.132   5.454   5.602 -0.1715 -1.2209  0.2070
  138OSM   C10S15063   5.985   5.508   5.447 -0.2786  0.5740 -0.4426
  138OSM   H10S15064   6.030   5.608   5.429  1.3709  0.1141  0.9071
  138OSM   H10T15065   5.879   5.542   5.455 -0.9022 -1.3748  0.0818
  138OSM   C11S15066   6.026   5.412   5.335  0.1480 -0.6162 -0.3138
  138OSM   H11S15067   5.949   5.332   5.336  2.5042 -3.2727 -4.6900
  138OSM   H11T15068   6.120   5.358   5.357  0.7489 -0.2673 -1.9006
  138OSM   C12S15069   6.029   5.472   5.197  0.0273 -0.4684 -0.3357
  138OSM   H12S15070   6.060   5.579   5.193  0.8777 -0.6077  1.5246
  138OSM   H12T15071   5.924   5.471   5.160 -0.0957 -1.3257  0.0048
  138OSM   C13S15072   6.105   5.392   5.089  0.6029  0.2986  0.0253
  138OSM   H13S15073   6.074   5.286   5.091  0.4334  0.2700 -1.9541
  138OSM   H13T15074   6.213   5.408   5.112  0.5696 -0.5654  0.8025
  138OSM   C14S15075   6.065   5.446   4.952 -0.6480 -0.0442 -0.2922
  138OSM   H14S15076   6.032   5.552   4.957 -0.5942 -0.0186 -0.4658
  138OSM   H14T15077   5.968   5.393   4.935 -0.2255 -0.7807 -0.4810
  138OSM   C15S15078   6.176   5.425   4.848  0.3025  0.3692  0.9917
  138OSM   H15S15079   6.258   5.486   4.893  0.6113 -0.5012  1.6443
  138OSM   H15T15080   6.140   5.465   4.751  2.1463 -0.2881 -0.0129
  138OSM   C16S15081   6.227   5.280   4.826 -0.3182  0.0874 -0.2049
  138OSM   H16S15082   6.144   5.208   4.839 -0.3795  0.1420 -0.3021
  138OSM   H16T15083   6.296   5.253   4.909 -1.1250 -0.2757  0.3543
  138OSM   C17S15084   6.299   5.267   4.693 -0.3571 -0.3856 -1.0442
  138OSM   H17S15085   6.360   5.175   4.702  0.5352  0.2468 -0.5093
  138OSM   H17T15086   6.375   5.348   4.691 -1.4898  0.7847  0.5145
  138OSM   C18S15087   6.212   5.251   4.574  0.0318 -0.4262 -1.2069
  138OSM   H18S15088   6.277   5.226   4.487  1.1157  3.1635 -1.6071
  138OSM   H18T15089   6.149   5.341   4.557 -1.0514 -0.4034  2.1550
  138OSM   H18U15090   6.140   5.168   4.586 -2.5592  1.7524 -0.6989
  138OSM    C1F15091   5.762   5.021   6.206  0.0725  0.6457 -0.8589
  138OSM     OF15092   5.659   5.038   6.271 -0.0955  0.0500  0.2046
  138OSM    C2F15093   5.781   4.914   6.107 -0.1062  0.5203  0.3792
  138OSM    H2F15094   5.876   4.855   6.111 -0.6454 -0.3024  2.1918
  138OSM    H2G15095   5.787   4.969   6.011  0.6678  1.1453  0.7662
  138OSM    C3F15096   5.665   4.811   6.100 -1.4695  0.0453  0.5859
  138OSM    H3F15097   5.570   4.862   6.075 -1.2851  0.2715  0.3273
  138OSM    H3G15098   5.644   4.769   6.200  0.2311 -0.6650  0.6831
  138OSM    C4F15099   5.703   4.697   6.008  0.3164 -0.4927  0.4083
  138OSM    H4F15100   5.629   4.616   6.025 -2.6788  1.9026 -0.3587
  138OSM    H4G15101   5.803   4.660   6.041  0.9398  1.8564  1.3549
  138OSM    C5F15102   5.683   4.722   5.863 -0.6101  0.3831  0.1597
  138OSM    H5F15103   5.735   4.653   5.793 -0.1738  2.0594 -1.2451
  138OSM    H5G15104   5.729   4.817   5.828  0.5478 -0.9948 -2.2601
  138OSM    C6F15105   5.536   4.740   5.828  0.4472 -0.7153  0.4642
  138OSM    H6F15106   5.490   4.812   5.900 -1.9936  0.9325 -2.4845
  138OSM    H6G15107   5.479   4.645   5.832 -0.0601 -0.4003  1.0258
  138OSM    C7F15108   5.520   4.801   5.682 -0.0703  0.7874  0.0359
  138OSM    H7F15109   5.565   4.730   5.610 -4.1215 -1.4314 -0.5947
  138OSM    H7G15110   5.578   4.896   5.687  0.0364  0.6577  2.2965
  138OSM    C8F15111   5.377   4.828   5.644  0.1760 -0.0341 -0.0913
  138OSM    H8F15112   5.361   4.895   5.557  0.4882  1.7982  1.1961
  138OSM    H8G15113   5.321   4.873   5.729 -0.3564  0.8571 -0.8972
  138OSM    C9F15114   5.313   4.692   5.617 -0.7835 -0.0184  0.2268
  138OSM    H9F15115   5.276   4.628   5.699 -1.2116 -0.5998 -0.4151
  138OSM   C10F15116   5.299   4.635   5.493 -0.0604  0.0317 -0.1365
  138OSM   H10F15117   5.270   4.530   5.487 -1.4418  0.2980  1.3463
  138OSM   C11F15118   5.352   4.690   5.362  0.1760  0.1076 -0.4107
  138OSM   H11F15119   5.446   4.746   5.382 -1.2590  2.2049  0.8962
  138OSM   H11G15120   5.280   4.770   5.336 -0.9789 -0.2767  1.4309
  138OSM   C12F15121   5.372   4.587   5.241  0.6179  0.1142 -0.3955
  138OSM   H12F15122   5.286   4.518   5.237 -0.2361  1.1517 -0.1921
  138OSM   H12G15123   5.465   4.529   5.259  0.4001 -0.3456 -0.7443
  138OSM   C13F15124   5.386   4.654   5.101 -0.0493  0.3414 -0.7825
  138OSM   H13F15125   5.441   4.589   5.030 -1.2444  1.5363 -2.9140
  138OSM   H13G15126   5.442   4.750   5.114 -1.1691  0.6063  4.3393
  138OSM   C14F15127   5.248   4.675   5.031 -0.0514  0.4996 -0.1910
  138OSM   H14F15128   5.184   4.695   5.119  3.0648  2.0117  1.9572
  138OSM   H14G15129   5.220   4.589   4.967 -1.0979  0.6842  0.0099
  138OSM   C15F15130   5.245   4.804   4.934 -0.0203  0.7383 -0.2053
  138OSM   H15F15131   5.285   4.771   4.835 -3.1812  0.0234 -1.3596
  138OSM   H15G15132   5.325   4.871   4.972  0.7356 -0.8217  1.0892
  138OSM   C16F15133   5.113   4.885   4.922  0.5494  0.2419 -0.3659
  138OSM   H16F15134   5.015   4.838   4.941 -1.0536  3.4735  0.0146
  138OSM   H16G15135   5.101   4.918   4.816  0.6928  2.5501  0.2966
  138OSM   C17F15136   5.120   5.022   4.997 -0.3135 -0.6424 -0.1057
  138OSM   H17F15137   5.224   5.056   4.977  0.2424 -2.2669 -0.0996
  138OSM   H17G15138   5.106   5.001   5.105 -0.7826  1.4462  0.2889
  138OSM   C18F15139   5.015   5.121   4.949 -0.4471 -0.6668 -0.0956
  138OSM   H18F15140   5.004   5.111   4.839 -0.5490  1.8389 -0.3822
  138OSM   H18G15141   5.047   5.227   4.943  3.2722 -1.7213 -1.4156
  138OSM   H18H15142   4.917   5.096   4.995 -0.0257  0.0709  1.2452
  139OSM      N15143   1.108   2.790   6.683 -0.3582 -0.0834  0.5697
  139OSM    C1515144   0.994   2.878   6.722 -0.2075 -0.0447 -0.1494
  139OSM   H15A15145   0.902   2.822   6.724  0.6802 -1.5252  1.0793
  139OSM   H15B15146   0.984   2.974   6.673  2.0246  0.2762 -0.0933
  139OSM   H15C15147   1.007   2.910   6.824 -0.0223 -2.5534  0.6569
  139OSM    C1415148   1.088   2.671   6.772 -1.1337 -0.3874  0.3573
  139OSM   H14A15149   1.180   2.614   6.775 -1.3914 -0.8095  0.2994
  139OSM   H14B15150   1.005   2.617   6.730 -1.3186  0.0694  0.1290
  139OSM   H14C15151   1.070   2.712   6.871 -0.9381 -0.3108  0.3629
  139OSM    C1315152   1.097   2.749   6.538  0.1338  0.0357  0.2120
  139OSM   H13A15153   1.010   2.685   6.534  1.2357 -1.5757  0.9389
  139OSM   H13B15154   1.184   2.694   6.505 -1.1869 -1.0575 -1.6521
  139OSM   H13C15155   1.094   2.831   6.469  2.9627  0.2277  0.1915
  139OSM    C1215156   1.233   2.872   6.709  0.1326  1.5789 -0.2852
  139OSM   H12A15157   1.319   2.808   6.697 -0.6966  0.3649  0.0420
  139OSM   H12B15158   1.248   2.900   6.813  0.5739 -3.3470  1.2638
  139OSM    C1115159   1.254   2.993   6.623  0.5429 -0.6967 -0.5720
  139OSM   H11A15160   1.174   3.066   6.646 -0.2100 -2.2358  2.1041
  139OSM   H11B15161   1.246   2.971   6.514 -1.7293 -1.2535 -0.3509
  139OSM      P15162   1.510   2.984   6.600  0.0397 -0.1021 -0.2223
  139OSM    O1315163   1.623   3.077   6.590  0.4156 -0.0249 -0.1850
  139OSM    O1415164   1.532   2.851   6.668  0.6691  0.3726 -0.4092
  139OSM    O1115165   1.474   2.963   6.451  0.1476 -0.3202 -0.2143
  139OSM    O1215166   1.380   3.055   6.650  0.6467  0.4945  0.0228
  139OSM    C1S15167   1.469   2.832   6.385  0.2724  0.6774 -0.3054
  139OSM    H1S15168   1.385   2.769   6.420 -0.8283  2.7332  0.9568
  139OSM    H1T15169   1.563   2.777   6.405 -0.3251 -0.1714  0.1754
  139OSM     NF15170   1.418   2.719   6.165 -0.0284 -0.6829  0.0431
  139OSM    HNF15171   1.493   2.703   6.102  1.6057  1.9636  1.1496
  139OSM    C2S15172   1.441   2.847   6.234 -0.0216  0.3227  0.1597
  139OSM    H2S15173   1.348   2.908   6.243  1.9557  3.2350  3.2544
  139OSM    C3S15174   1.540   2.936   6.154 -0.3156 -0.4237  0.2953
  139OSM    H3S15175   1.643   2.894   6.153  1.0772  2.7070  0.5088
  139OSM     O315176   1.564   3.063   6.209  0.8433  0.2024 -0.4806
  139OSM    HO315177   1.549   3.051   6.303 -2.5122 -3.3097 -1.2132
  139OSM    C4S15178   1.493   2.947   6.004  0.4232 -0.0442 -0.5612
  139OSM    H4S15179   1.557   2.883   5.941  0.3563 -0.2221 -0.4489
  139OSM    C5S15180   1.391   3.022   5.949 -0.0607 -0.7177  0.4798
  139OSM    H5S15181   1.330   3.082   6.017  2.2427 -1.2501  3.2241
  139OSM    C6S15182   1.356   3.018   5.799 -0.1224  0.1955 -0.4948
  139OSM    H6S15183   1.404   3.096   5.737 -0.6365  0.3815 -0.6678
  139OSM    H6T15184   1.246   3.026   5.787  0.1523  2.5417 -2.2022
  139OSM    C7S15185   1.387   2.887   5.736 -0.2756  0.1187  0.2739
  139OSM    H7S15186   1.345   2.800   5.791  0.0547  0.1527  0.5820
  139OSM    H7T15187   1.497   2.871   5.739 -0.1479 -0.0436 -2.5107
  139OSM    C8S15188   1.327   2.871   5.598  0.0354  0.3743  0.3660
  139OSM    H8S15189   1.217   2.862   5.603  0.0627 -0.3642 -0.1987
  139OSM    H8T15190   1.368   2.776   5.556 -0.8677  0.1556 -0.0383
  139OSM    C9S15191   1.359   2.986   5.498  0.0220  0.2908  0.0146
  139OSM    H9S15192   1.466   3.008   5.478  0.1619  1.0401  1.4566
  139OSM    H9T15193   1.330   3.086   5.538  4.8398  2.5574 -1.3941
  139OSM   C10S15194   1.309   2.952   5.352  0.3669  0.1348 -0.2410
  139OSM   H10S15195   1.237   2.868   5.362  0.7944 -0.0809  1.4150
  139OSM   H10T15196   1.403   2.925   5.299  1.0880 -1.6632  1.8147
  139OSM   C11S15197   1.216   3.059   5.284 -0.3504 -0.2480  0.2572
  139OSM   H11S15198   1.210   3.036   5.176  0.1861 -0.0243  0.1775
  139OSM   H11T15199   1.272   3.154   5.295 -0.0086 -0.0705 -2.4981
  139OSM   C12S15200   1.075   3.071   5.347  0.0269  0.4312  0.0298
  139OSM   H12S15201   1.082   3.110   5.451  0.9327 -1.2689  0.6277
  139OSM   H12T15202   1.030   2.972   5.367  1.8724 -0.9015 -2.0079
  139OSM   C13S15203   0.980   3.155   5.265  0.2070 -0.0598 -0.3884
  139OSM   H13S15204   0.986   3.116   5.160  0.1668 -1.0093 -0.0509
  139OSM   H13T15205   1.018   3.259   5.261 -0.8665  0.3317 -0.7174
  139OSM   C14S15206   0.836   3.137   5.312 -0.4214 -0.5155 -0.3052
  139OSM   H14S15207   0.838   3.171   5.417  0.7045 -0.5891 -0.2901
  139OSM   H14T15208   0.810   3.029   5.299  0.5123 -0.7264 -0.5139
  139OSM   C15S15209   0.740   3.207   5.213  0.0115  0.7009  0.0733
  139OSM   H15S15210   0.774   3.312   5.218  1.2757  0.4908 -2.5055
  139OSM   H15T15211   0.640   3.205   5.262 -0.0230  3.5963  0.2632
  139OSM   C16S15212   0.729   3.143   5.079  0.4258 -0.1075  0.3037
  139OSM   H16S15213   0.701   3.039   5.106  0.4367  0.0639  1.0039
  139OSM   H16T15214   0.827   3.140   5.027 -0.7467  1.3273 -2.2050
  139OSM   C17S15215   0.618   3.199   4.980 -0.0571 -0.2613 -0.4168
  139OSM   H17S15216   0.664   3.277   4.916 -2.4125  2.0409  0.5229
  139OSM   H17T15217   0.536   3.244   5.039 -0.8378 -0.8661 -1.0205
  139OSM   C18S15218   0.553   3.095   4.894 -0.8832  0.1779 -0.4691
  139OSM   H18S15219   0.513   3.012   4.957 -0.1047 -0.6770 -1.0664
  139OSM   H18T15220   0.632   3.037   4.841 -1.1378 -0.4711 -0.1555
  139OSM   H18U15221   0.477   3.135   4.822 -0.4191 -0.1583 -1.1577
  139OSM    C1F15222   1.315   2.642   6.187 -0.2517 -0.8801  0.3527
  139OSM     OF15223   1.231   2.664   6.271  0.2449 -0.4883 -0.7164
  139OSM    C2F15224   1.322   2.515   6.104  0.0038  0.4717 -0.6505
  139OSM    H2F15225   1.377   2.439   6.165 -1.3150 -0.2151 -0.2688
  139OSM    H2G15226   1.382   2.524   6.011  1.2018  0.3712  0.0858
  139OSM    C3F15227   1.172   2.463   6.085 -0.1457  0.0631 -0.8015
  139OSM    H3F15228   1.085   2.512   6.134 -0.5230 -1.1708 -0.1874
  139OSM    H3G15229   1.176   2.357   6.118 -2.5904 -0.0298 -0.6264
  139OSM    C4F15230   1.149   2.460   5.926 -0.0578 -0.7016 -0.4983
  139OSM    H4F15231   1.073   2.381   5.908  0.1510 -0.8210 -0.8699
  139OSM    H4G15232   1.235   2.417   5.869  1.2813 -1.4567  1.9329
  139OSM    C5F15233   1.103   2.594   5.873  0.6835 -0.2876 -0.3834
  139OSM    H5F15234   1.176   2.673   5.901 -0.5186  0.3072  1.2893
  139OSM    H5G15235   1.010   2.620   5.930  0.8246 -0.3295 -0.1309
  139OSM    C6F15236   1.078   2.597   5.723  0.1690  0.2606 -0.2001
  139OSM    H6F15237   1.033   2.498   5.703 -0.2000  0.2701  0.5357
  139OSM    H6G15238   1.178   2.600   5.675 -1.0066 -0.2929 -2.8460
  139OSM    C7F15239   0.988   2.706   5.678 -0.4402  0.0374  0.9753
  139OSM    H7F15240   1.019   2.808   5.709 -1.7005  0.6235  0.3726
  139OSM    H7G15241   0.882   2.690   5.706 -1.2106 -2.9112 -2.7711
  139OSM    C8F15242   0.988   2.705   5.522 -0.1276  0.0473  0.0854
  139OSM    H8F15243   1.092   2.717   5.485 -0.9030  2.0430 -1.6761
  139OSM    H8G15244   0.946   2.808   5.513 -1.0551 -0.4162 -1.3707
  139OSM    C9F15245   0.907   2.592   5.454 -0.4995  0.8319  0.1037
  139OSM    H9F15246   0.945   2.492   5.484 -0.4208 -0.1594 -2.9522
  139OSM   C10F15247   0.809   2.596   5.361 -0.1123  0.8170 -1.0801
  139OSM   H10F15248   0.762   2.502   5.328  1.0162  0.5078 -1.8474
  139OSM   C11F15249   0.743   2.721   5.312 -0.1618 -0.9349  0.9818
  139OSM   H11F15250   0.811   2.805   5.286 -0.0856 -1.2767  0.0059
  139OSM   H11G15251   0.675   2.770   5.384 -1.3006 -0.6412 -0.2502
  139OSM   C12F15252   0.667   2.704   5.176  0.6621 -0.4397 -0.0223
  139OSM   H12F15253   0.617   2.800   5.153 -0.9904 -1.2818 -0.0799
  139OSM   H12G15254   0.597   2.618   5.186 -0.8398  0.6821 -0.5663
  139OSM   C13F15255   0.759   2.680   5.047  0.7515  0.5532  0.7938
  139OSM   H13F15256   0.694   2.647   4.963  0.2247 -0.1734  1.4667
  139OSM   H13G15257   0.817   2.588   5.071  0.0598 -0.1927 -0.3092
  139OSM   C14F15258   0.855   2.796   5.004 -0.1239  0.1891  0.2888
  139OSM   H14F15259   0.920   2.834   5.086  0.8327  0.5062 -0.5978
  139OSM   H14G15260   0.789   2.885   4.994  0.4733  0.5462 -0.5155
  139OSM   C15F15261   0.941   2.763   4.882 -0.8195 -0.0732  0.2752
  139OSM   H15F15262   0.890   2.792   4.787  1.2660 -1.9921 -1.5592
  139OSM   H15G15263   0.976   2.658   4.873  0.3534  0.3755 -0.8940
  139OSM   C16F15264   1.068   2.853   4.884 -0.8590  0.3745  0.7668
  139OSM   H16F15265   1.122   2.830   4.978 -2.1256 -1.4988  1.0821
  139OSM   H16G15266   1.036   2.960   4.885 -1.1059  0.3803 -2.0550
  139OSM   C17F15267   1.170   2.846   4.765  0.2719  0.0544 -0.3836
  139OSM   H17F15268   1.115   2.867   4.671  0.0809  2.3292  0.1882
  139OSM   H17G15269   1.213   2.744   4.772  2.2500  0.9199  1.1432
  139OSM   C18F15270   1.290   2.947   4.784 -0.2343 -0.3678  0.8058
  139OSM   H18F15271   1.380   2.904   4.835  0.9304 -0.6508 -1.3800
  139OSM   H18G15272   1.248   3.040   4.827  4.5762  2.2489  0.4879
  139OSM   H18H15273   1.324   2.964   4.680 -0.4307 -1.2583  0.5889
  140OSM      N15274   3.930   0.114   6.482  0.3839 -0.5778 -0.2623
  140OSM    C1515275   3.952   0.259   6.514 -0.1032  0.3419 -0.5151
  140OSM   H15A15276   3.943   0.322   6.427 -0.1133 -0.8289 -1.3785
  140OSM   H15B15277   4.053   0.267   6.551  0.5763  0.8854 -2.3913
  140OSM   H15C15278   3.887   0.292   6.594 -0.9477 -0.1130 -1.0039
  140OSM    C1415279   4.030   0.069   6.389 -0.3187 -0.1479  0.7598
  140OSM   H14A15280   4.026  -0.036   6.366 -0.2255  0.4187 -2.2967
  140OSM   H14B15281   4.130   0.092   6.423  0.6977 -0.9080 -1.5088
  140OSM   H14C15282   4.016   0.126   6.298  1.4542  0.4631  0.8236
  140OSM    C1315283   3.954   0.030   6.604 -0.0144 -0.5161  0.1862
  140OSM   H13A15284   3.897   0.065   6.689  1.9529  1.7107  0.6904
  140OSM   H13B15285   4.058   0.037   6.633 -0.2952  0.2683  1.0866
  140OSM   H13C15286   3.938  -0.074   6.581 -1.9140  0.0886 -1.5565
  140OSM    C1215287   3.794   0.087   6.430  0.5103  0.5775  0.1289
  140OSM   H12A15288   3.719   0.129   6.496 -0.2610  0.4618 -0.6461
  140OSM   H12B15289   3.767  -0.017   6.438  0.8664  0.2683 -2.0639
  140OSM    C1115290   3.755   0.140   6.289  0.8769  0.2176  0.2556
  140OSM   H11A15291   3.650   0.104   6.280  0.7249  0.3062  1.5031
  140OSM   H11B15292   3.818   0.085   6.216  1.7791 -0.3130  1.4162
  140OSM      P15293   3.639   0.374   6.313  0.1015 -0.1166  0.1103
  140OSM    O1315294   3.547   0.304   6.406  0.3344 -0.3461 -0.0474
  140OSM    O1415295   3.682   0.513   6.341  0.2560  0.7017 -0.1502
  140OSM    O1115296   3.572   0.387   6.169  0.4095  0.0669  0.1031
  140OSM    O1215297   3.765   0.281   6.276 -0.3596  0.4204  0.3949
  140OSM    C1S15298   3.560   0.290   6.065  0.1887  1.2787  0.2350
  140OSM    H1S15299   3.493   0.209   6.103  3.2939 -1.0341  1.2090
  140OSM    H1T15300   3.653   0.243   6.027 -0.4655  0.0539  0.0628
  140OSM     NF15301   3.460   0.243   5.835  0.1454 -0.2987  0.1580
  140OSM    HNF15302   3.520   0.214   5.761 -2.6286  0.1577 -2.4968
  140OSM    C2S15303   3.496   0.348   5.930  0.0655 -0.2341 -0.1472
  140OSM    H2S15304   3.403   0.397   5.966 -0.8131 -1.9312 -0.0191
  140OSM    C3S15305   3.592   0.450   5.867  0.5947  0.2691 -0.1659
  140OSM    H3S15306   3.687   0.395   5.848  0.5645 -1.0678  3.0269
  140OSM     O315307   3.643   0.550   5.959  0.5180  0.0949 -0.0426
  140OSM    HO315308   3.607   0.519   6.042 -2.0389 -0.0048 -1.1131
  140OSM    C4S15309   3.536   0.504   5.737 -0.7548 -0.5459 -0.7477
  140OSM    H4S15310   3.549   0.427   5.660 -0.5995 -2.3734  1.0285
  140OSM    C5S15311   3.469   0.624   5.702  0.6804  0.1527  0.0095
  140OSM    H5S15312   3.450   0.702   5.777 -1.1624 -0.5092  0.2777
  140OSM    C6S15313   3.419   0.663   5.565 -0.6429  0.2188  0.6880
  140OSM    H6S15314   3.467   0.758   5.536 -1.2011  1.0951  2.4707
  140OSM    H6T15315   3.310   0.685   5.576  0.0470  3.2037  2.6360
  140OSM    C7S15316   3.432   0.563   5.452 -0.1959  0.4494  0.3455
  140OSM    H7S15317   3.388   0.465   5.478  1.4791  0.1788  2.4552
  140OSM    H7T15318   3.529   0.510   5.439  0.7526  2.3302 -0.6926
  140OSM    C8S15319   3.381   0.622   5.321 -0.5744  0.7070  0.1599
  140OSM    H8S15320   3.427   0.720   5.294  0.9928  0.1797  0.8107
  140OSM    H8T15321   3.276   0.654   5.342 -1.1847 -1.1575  0.0911
  140OSM    C9S15322   3.387   0.527   5.203  0.4092  0.2825  0.0649
  140OSM    H9S15323   3.349   0.427   5.231 -1.1639  0.5794 -0.8782
  140OSM    H9T15324   3.491   0.519   5.164  0.1899  0.4833 -0.5677
  140OSM   C10S15325   3.304   0.571   5.083  0.1370  0.3758  1.0822
  140OSM   H10S15326   3.323   0.680   5.073  2.2130 -0.0963 -0.9435
  140OSM   H10T15327   3.195   0.564   5.098 -0.0169 -1.9622 -0.5634
  140OSM   C11S15328   3.329   0.504   4.945 -0.1908 -0.3565 -0.2645
  140OSM   H11S15329   3.437   0.497   4.918  0.1596 -3.5941  1.4504
  140OSM   H11T15330   3.272   0.550   4.862 -0.2768  0.9626  0.4998
  140OSM   C12S15331   3.270   0.367   4.961  0.6727 -0.1825  0.2303
  140OSM   H12S15332   3.176   0.369   5.020 -0.0654  2.5483 -0.8563
  140OSM   H12T15333   3.347   0.308   5.015 -0.2700 -1.1627  0.5423
  140OSM   C13S15334   3.254   0.296   4.831  0.1644  0.4697 -0.1533
  140OSM   H13S15335   3.342   0.311   4.765 -0.0407  1.2189 -0.2655
  140OSM   H13T15336   3.163   0.329   4.777  1.4351 -0.5700 -3.1637
  140OSM   C14S15337   3.222   0.154   4.861 -0.7432  0.7819 -0.1921
  140OSM   H14S15338   3.130   0.151   4.923 -1.1449 -2.1181 -0.7470
  140OSM   H14T15339   3.307   0.115   4.922 -2.7901  0.0187  2.3434
  140OSM   C15S15340   3.200   0.066   4.742 -0.0121 -0.4675 -0.4687
  140OSM   H15S15341   3.171  -0.038   4.772 -0.1009 -0.0423  1.0155
  140OSM   H15T15342   3.288   0.056   4.676 -0.0290  0.2896 -0.6061
  140OSM   C16S15343   3.097   0.110   4.643 -0.1348  0.1454  0.9851
  140OSM   H16S15344   3.137   0.202   4.596  0.2107 -0.2022  0.5842
  140OSM   H16T15345   3.005   0.142   4.696 -0.0821  0.8143  0.6786
  140OSM   C17S15346   3.063   0.011   4.530 -0.0323 -0.2860 -0.6128
  140OSM   H17S15347   3.023  -0.084   4.573 -2.4950  0.6419 -0.6816
  140OSM   H17T15348   3.153  -0.024   4.475  0.9151  1.5283 -0.2658
  140OSM   C18S15349   2.957   0.061   4.442  0.2269 -0.4370  0.7374
  140OSM   H18S15350   2.977   0.155   4.386 -0.2699 -1.3178 -0.9979
  140OSM   H18T15351   2.870   0.085   4.507 -0.5047 -0.6124 -0.1467
  140OSM   H18U15352   2.926  -0.013   4.365  1.0325 -1.2003  1.1344
  140OSM    C1F15353   3.363   0.158   5.856  0.1855  0.7892  0.3378
  140OSM     OF15354   3.293   0.166   5.958 -0.1334 -0.1648 -0.0274
  140OSM    C2F15355   3.343   0.046   5.760  0.8846  0.0916  0.2809
  140OSM    H2F15356   3.394  -0.049   5.787 -0.0261 -0.5540 -0.1889
  140OSM    H2G15357   3.371   0.088   5.661 -0.7489 -0.9739 -0.6909
  140OSM    C3F15358   3.193  -0.012   5.760 -0.1638  0.6433 -1.0652
  140OSM    H3F15359   3.132   0.072   5.719 -0.9553  0.6978  0.1602
  140OSM    H3G15360   3.168  -0.037   5.866 -0.9172 -3.6839 -2.0889
  140OSM    C4F15361   3.178  -0.127   5.668  0.3258 -0.7726 -0.0742
  140OSM    H4F15362   3.069  -0.152   5.673  0.2911 -0.4943  0.7684
  140OSM    H4G15363   3.243  -0.215   5.689  0.2035 -0.5672  1.2826
  140OSM    C5F15364   3.199  -0.095   5.524  0.4791  0.0066  0.1765
  140OSM    H5F15365   3.310  -0.094   5.529  0.4183 -0.1927  2.1971
  140OSM    H5G15366   3.166   0.006   5.492  1.2052 -0.0516 -0.8007
  140OSM    C6F15367   3.149  -0.194   5.420  0.0174 -0.2109 -0.2835
  140OSM    H6F15368   3.038  -0.205   5.424  0.1020 -0.7890  2.5071
  140OSM    H6G15369   3.184  -0.296   5.448 -1.5555  0.0850  3.3065
  140OSM    C7F15370   3.187  -0.154   5.273 -0.2464  0.1102 -0.4725
  140OSM    H7F15371   3.297  -0.171   5.269 -0.3003 -0.1426 -0.9417
  140OSM    H7G15372   3.160  -0.048   5.251  1.3538  0.2979 -1.7703
  140OSM    C8F15373   3.126  -0.247   5.175 -0.8353  0.1762 -0.4093
  140OSM    H8F15374   3.149  -0.349   5.214  2.6931  1.7655  2.2879
  140OSM    H8G15375   3.182  -0.236   5.080  3.0524 -3.2838  1.1207
  140OSM    C9F15376   2.972  -0.228   5.171 -0.4397  0.3666 -0.0738
  140OSM    H9F15377   2.922  -0.242   5.267 -0.3155  0.7676  0.0512
  140OSM   C10F15378   2.901  -0.175   5.072 -0.0124  0.4568 -0.7558
  140OSM   H10F15379   2.793  -0.164   5.092 -0.2254 -2.4288  0.1020
  140OSM   C11F15380   2.936  -0.133   4.931  0.2367  1.2566 -0.1495
  140OSM   H11F15381   3.024  -0.194   4.901 -0.0559  0.3082  0.8216
  140OSM   H11G15382   2.956  -0.024   4.931 -0.0022  1.3016 -0.1239
  140OSM   C12F15383   2.810  -0.160   4.845 -0.5640  0.3747 -0.2338
  140OSM   H12F15384   2.837  -0.141   4.739  1.6752  0.5416  0.3343
  140OSM   H12G15385   2.721  -0.098   4.871  0.2157  1.6400 -0.5231
  140OSM   C13F15386   2.769  -0.314   4.847  0.0345 -0.5666  0.2081
  140OSM   H13F15387   2.740  -0.337   4.951 -3.1522  3.4229  0.4342
  140OSM   H13G15388   2.863  -0.364   4.818 -0.4314 -1.4259  0.1346
  140OSM   C14F15389   2.663  -0.355   4.749  0.8288  0.6017 -0.8678
  140OSM   H14F15390   2.572  -0.300   4.782  1.0240  2.2100 -2.8307
  140OSM   H14G15391   2.643  -0.463   4.767  1.7063  0.4286 -0.9018
  140OSM   C15F15392   2.683  -0.315   4.598  0.0082 -0.6123 -0.0029
  140OSM   H15F15393   2.753  -0.387   4.550  0.8884  1.8873 -2.7679
  140OSM   H15G15394   2.732  -0.216   4.586  0.9399 -0.8481  1.5704
  140OSM   C16F15395   2.548  -0.310   4.527 -0.1858 -0.4676 -0.0941
  140OSM   H16F15396   2.488  -0.239   4.587 -0.2864  0.6061 -1.3997
  140OSM   H16G15397   2.494  -0.407   4.522  1.9034 -1.6439 -1.4306
  140OSM   C17F15398   2.533  -0.243   4.382 -0.0611  0.5842 -0.3005
  140OSM   H17F15399   2.423  -0.238   4.366 -0.1432 -3.0323 -1.7931
  140OSM   H17G15400   2.565  -0.323   4.312 -3.1523 -0.4927 -0.6039
  140OSM   C18F15401   2.601  -0.110   4.355  0.2983 -0.2178 -0.3657
  140OSM   H18F15402   2.711  -0.121   4.340  0.5800 -2.4526  2.4582
  140OSM   H18G15403   2.579  -0.051   4.446  1.2057 -0.9923  0.3775
  140OSM   H18H15404   2.547  -0.063   4.270 -0.9128  0.6146  0.8226
  141OSM      N15405   2.212   1.531   6.930 -0.5331  0.3038 -0.2194
  141OSM    C1515406   2.338   1.508   7.013 -0.3863 -0.1568 -0.2667
  141OSM   H15A15407   2.412   1.445   6.966  0.5524  1.2371 -0.6820
  141OSM   H15B15408   2.319   1.473   7.114  1.4376  1.2705  0.6278
  141OSM   H15C15409   2.391   1.600   7.028  1.8504 -1.3417 -0.5324
  141OSM    C1415410   2.116   1.588   7.022 -0.2501 -0.1774  0.1212
  141OSM   H14A15411   2.155   1.684   7.052  2.4078 -0.1200 -2.9942
  141OSM   H14B15412   2.123   1.519   7.105  1.6436  0.4640  0.5436
  141OSM   H14C15413   2.015   1.593   6.986 -0.5013  0.6232  0.9015
  141OSM    C1315414   2.243   1.614   6.814  0.2384 -0.1022 -0.2020
  141OSM   H13A15415   2.160   1.639   6.751 -0.3995 -0.7869  0.3517
  141OSM   H13B15416   2.307   1.557   6.748 -0.3728  0.2935 -1.1395
  141OSM   H13C15417   2.298   1.704   6.839 -1.8978  1.6475 -1.5393
  141OSM    C1215418   2.169   1.389   6.898  0.1191  0.1985  0.0963
  141OSM   H12A15419   2.129   1.344   6.988  1.4424  0.2230  0.7180
  141OSM   H12B15420   2.257   1.335   6.866 -0.7148 -0.9344 -0.3173
  141OSM    C1115421   2.059   1.367   6.791  0.4308  0.2393  0.3206
  141OSM   H11A15422   2.071   1.268   6.740 -1.7161 -0.4553  1.0317
  141OSM   H11B15423   2.071   1.449   6.717  0.5746  0.1821  0.2815
  141OSM      P15424   1.848   1.264   6.932  0.0977  0.1266 -0.2826
  141OSM    O1315425   1.923   1.226   7.055 -0.0045 -0.5506 -0.1259
  141OSM    O1415426   1.710   1.317   6.950  0.1435 -0.2032 -0.4857
  141OSM    O1115427   1.857   1.134   6.836  0.0818 -0.2596  0.3693
  141OSM    O1215428   1.932   1.377   6.858 -0.1367 -0.3152 -0.1043
  141OSM    C1S15429   1.737   1.112   6.756 -0.3554  0.9166 -0.4534
  141OSM    H1S15430   1.678   1.205   6.741  0.9220  1.6324 -1.1744
  141OSM    H1T15431   1.667   1.039   6.804  2.2749 -0.5704  1.4044
  141OSM     NF15432   1.656   1.060   6.531 -0.1480 -0.2873  0.6339
  141OSM    HNF15433   1.614   0.975   6.499  0.1290 -1.3775  2.9265
  141OSM    C2S15434   1.773   1.052   6.615 -0.2214 -0.4708 -0.0831
  141OSM    H2S15435   1.855   1.120   6.583 -0.4779  0.7690  1.7301
  141OSM    C3S15436   1.837   0.913   6.633 -0.5360  0.4807 -0.6793
  141OSM    H3S15437   1.759   0.842   6.668 -0.0102  0.4040  0.3715
  141OSM     O315438   1.944   0.900   6.723 -0.0967  0.2927 -0.0227
  141OSM    HO315439   1.936   0.980   6.776 -0.5701 -0.2436  0.7470
  141OSM    C4S15440   1.881   0.857   6.507  0.3993  0.7223  0.6009
  141OSM    H4S15441   1.797   0.799   6.466 -0.1843  0.4682  2.1013
  141OSM    C5S15442   1.995   0.883   6.442  0.0838 -0.2193 -0.0023
  141OSM    H5S15443   2.072   0.947   6.487 -0.4689 -0.4843  1.3987
  141OSM    C6S15444   2.011   0.825   6.310 -0.8236  0.3386  0.4422
  141OSM    H6S15445   1.958   0.730   6.288  4.1635 -2.9007  0.7319
  141OSM    H6T15446   2.117   0.805   6.285 -0.1543  2.5351  1.3409
  141OSM    C7S15447   1.994   0.924   6.206 -1.1760 -0.0497  0.3560
  141OSM    H7S15448   2.019   0.881   6.107  0.1623 -0.6843  0.9472
  141OSM    H7T15449   2.063   1.008   6.225  0.3006 -0.4935 -2.4986
  141OSM    C8S15450   1.853   0.970   6.185  0.0468  0.1011 -0.6018
  141OSM    H8S15451   1.839   1.045   6.265  0.4552  1.1913 -1.5170
  141OSM    H8T15452   1.790   0.880   6.198 -0.3044  0.2067 -1.5001
  141OSM    C9S15453   1.826   1.047   6.055 -0.3533 -0.4145 -0.6283
  141OSM    H9S15454   1.858   0.998   5.960 -1.0835  1.0777 -1.6981
  141OSM    H9T15455   1.891   1.138   6.059 -0.3898 -0.3884 -0.6291
  141OSM   C10S15456   1.681   1.097   6.043 -0.4603  0.5269 -0.3921
  141OSM   H10S15457   1.644   1.161   6.126 -2.0505 -0.8593  0.0073
  141OSM   H10T15458   1.622   1.003   6.043  0.0268  0.1781 -2.2857
  141OSM   C11S15459   1.647   1.162   5.907  0.8701 -0.2931 -0.2260
  141OSM   H11S15460   1.685   1.266   5.894 -0.3240  0.1739 -0.0948
  141OSM   H11T15461   1.537   1.176   5.897  0.9657 -0.2102 -1.3246
  141OSM   C12S15462   1.697   1.084   5.786 -0.1556  0.1013  0.6534
  141OSM   H12S15463   1.676   0.975   5.799 -0.1164  0.0957  0.6670
  141OSM   H12T15464   1.807   1.090   5.773 -0.3054  1.2476 -0.2654
  141OSM   C13S15465   1.624   1.119   5.653 -0.3518 -0.0494  0.2855
  141OSM   H13S15466   1.605   1.228   5.668 -0.6917 -0.0837  0.1016
  141OSM   H13T15467   1.520   1.081   5.656 -0.7586  0.9762 -0.3122
  141OSM   C14S15468   1.683   1.072   5.518  0.7703 -0.3150 -0.1087
  141OSM   H14S15469   1.700   0.963   5.530  1.2820 -0.3038 -0.6315
  141OSM   H14T15470   1.780   1.126   5.514  0.4152  0.2761 -1.2481
  141OSM   C15S15471   1.589   1.103   5.405 -0.8918 -0.3524  0.3193
  141OSM   H15S15472   1.542   1.202   5.424  0.9519  0.7922 -0.6132
  141OSM   H15T15473   1.506   1.031   5.395 -0.1641 -1.5449  2.3380
  141OSM   C16S15474   1.668   1.100   5.272  0.8664  0.0776  0.5688
  141OSM   H16S15475   1.726   1.005   5.270  0.6665 -0.0843  1.7840
  141OSM   H16T15476   1.730   1.192   5.271  1.5367 -0.3269 -1.3743
  141OSM   C17S15477   1.577   1.089   5.152 -0.2536  0.1304 -0.2765
  141OSM   H17S15478   1.529   1.189   5.143 -4.5400 -1.6713  0.2197
  141OSM   H17T15479   1.499   1.014   5.171  1.8054 -1.9504  0.4255
  141OSM   C18S15480   1.648   1.048   5.019  0.2915  0.1551 -0.2488
  141OSM   H18S15481   1.676   0.941   5.023  0.9801  0.2986 -0.9959
  141OSM   H18T15482   1.742   1.107   5.007  0.4212 -0.2622 -1.4107
  141OSM   H18U15483   1.593   1.051   4.923  0.5235 -0.8641 -0.4176
  141OSM    C1F15484   1.604   1.174   6.497  0.2335  0.1203  0.4958
  141OSM     OF15485   1.660   1.282   6.527  0.2147  0.3144  0.1373
  141OSM    C2F15486   1.480   1.172   6.412  0.1683  0.8119 -0.7440
  141OSM    H2F15487   1.389   1.164   6.476 -0.3571 -0.6414 -1.6350
  141OSM    H2G15488   1.482   1.077   6.355 -0.1787  0.4922 -0.2320
  141OSM    C3F15489   1.476   1.294   6.322 -0.1957 -0.8815  0.1173
  141OSM    H3F15490   1.574   1.318   6.275 -0.4341 -1.3489 -0.6460
  141OSM    H3G15491   1.442   1.384   6.377 -1.5317 -1.1254 -0.2662
  141OSM    C4F15492   1.361   1.289   6.219  0.4675 -0.5673  0.0253
  141OSM    H4F15493   1.267   1.308   6.275 -0.9822 -0.1040 -2.4438
  141OSM    H4G15494   1.367   1.187   6.177  0.5670 -0.9070  0.8439
  141OSM    C5F15495   1.383   1.398   6.104 -0.2710  0.1967  0.3253
  141OSM    H5F15496   1.483   1.374   6.061  1.0581  2.2402  2.1166
  141OSM    H5G15497   1.382   1.500   6.146 -1.2844  0.6188 -0.6620
  141OSM    C6F15498   1.290   1.369   5.982  0.3182  0.0585  0.5224
  141OSM    H6F15499   1.181   1.377   6.004 -0.1110  0.2641 -1.5088
  141OSM    H6G15500   1.313   1.264   5.958  1.7188  0.8610 -1.9474
  141OSM    C7F15501   1.338   1.447   5.857  0.2187 -0.1673  0.3442
  141OSM    H7F15502   1.438   1.430   5.811 -0.0701 -0.6858 -0.1085
  141OSM    H7G15503   1.328   1.554   5.884 -1.6964 -0.0270 -0.7672
  141OSM    C8F15504   1.236   1.419   5.743 -0.4023 -0.5175  0.4630
  141OSM    H8F15505   1.226   1.508   5.677 -2.5942  0.0691  1.5013
  141OSM    H8G15506   1.138   1.399   5.791 -0.0268 -1.6261  0.8031
  141OSM    C9F15507   1.277   1.294   5.665 -0.6710 -0.3393 -0.0668
  141OSM    H9F15508   1.282   1.197   5.718 -0.6706 -1.7802 -2.5365
  141OSM   C10F15509   1.298   1.300   5.536  0.0774  0.2698 -0.2232
  141OSM   H10F15510   1.297   1.203   5.485 -0.4920  0.5160 -0.6928
  141OSM   C11F15511   1.301   1.418   5.443 -0.2180 -0.9972 -0.3600
  141OSM   H11F15512   1.197   1.457   5.450 -1.4293 -3.4936 -2.7780
  141OSM   H11G15513   1.302   1.386   5.337 -2.0700  0.8365 -0.9875
  141OSM   C12F15514   1.422   1.513   5.455  0.0120 -0.2454 -0.2299
  141OSM   H12F15515   1.519   1.472   5.420  0.1474  0.8795 -1.2237
  141OSM   H12G15516   1.429   1.541   5.562 -2.2813  2.2610 -0.6251
  141OSM   C13F15517   1.383   1.654   5.393  0.0652 -0.1062  0.0982
  141OSM   H13F15518   1.465   1.729   5.394  0.1042 -0.1425  1.6260
  141OSM   H13G15519   1.301   1.708   5.445 -0.3047 -0.6705  0.1156
  141OSM   C14F15520   1.348   1.639   5.237 -0.0304  0.3992  0.0527
  141OSM   H14F15521   1.260   1.572   5.224 -0.6800  1.3283 -0.4594
  141OSM   H14G15522   1.426   1.578   5.188 -2.2118 -3.5027  1.0313
  141OSM   C15F15523   1.310   1.771   5.179  0.6100 -0.0721 -0.2916
  141OSM   H15F15524   1.400   1.834   5.166  2.3806 -2.2780  0.6857
  141OSM   H15G15525   1.241   1.833   5.240  0.3026 -0.4558 -0.2477
  141OSM   C16F15526   1.239   1.757   5.043  0.2117  0.2362 -0.7426
  141OSM   H16F15527   1.208   1.859   5.013 -1.5852 -0.7004 -2.3272
  141OSM   H16G15528   1.147   1.694   5.045  0.4475 -0.1524 -1.6626
  141OSM   C17F15529   1.321   1.697   4.929  0.3392 -1.1379  0.2213
  141OSM   H17F15530   1.252   1.681   4.844 -1.4872 -0.7666  1.5596
  141OSM   H17G15531   1.358   1.599   4.967  0.2920 -0.5231  1.9270
  141OSM   C18F15532   1.434   1.789   4.884  0.0687 -0.8813  0.0411
  141OSM   H18F15533   1.400   1.891   4.855  1.1159 -0.9612 -1.6356
  141OSM   H18G15534   1.479   1.752   4.789 -0.3623 -0.2408 -0.4213
  141OSM   H18H15535   1.512   1.809   4.960  0.3782  1.1154 -0.7503
  142OSM      N15536   1.073   6.581   6.522  0.1548  0.0160  0.1089
  142OSM    C1515537   0.938   6.555   6.573  0.2539 -0.4618  0.0844
  142OSM   H15A15538   0.951   6.496   6.663 -1.8373  0.4657  1.0679
  142OSM   H15B15539   0.878   6.495   6.506 -2.1744 -0.5860  2.2240
  142OSM   H15C15540   0.882   6.645   6.590  0.6562 -0.3458  0.8784
  142OSM    C1415541   1.150   6.453   6.542  0.2079 -0.9452 -0.3012
  142OSM   H14A15542   1.242   6.446   6.485  0.5944 -1.6918  0.3897
  142OSM   H14B15543   1.094   6.365   6.517  2.1390 -2.6713  1.1144
  142OSM   H14C15544   1.183   6.446   6.645  1.7084  0.2183 -0.6692
  142OSM    C1315545   1.065   6.604   6.373  0.2384  0.4280  0.5313
  142OSM   H13A15546   1.163   6.629   6.336 -1.2061  1.7200 -2.8719
  142OSM   H13B15547   1.001   6.685   6.341 -0.8331 -0.4405  0.3924
  142OSM   H13C15548   1.022   6.521   6.319 -0.7603 -0.1683  2.1508
  142OSM    C1215549   1.124   6.703   6.591  0.9049 -0.6705  0.2510
  142OSM   H12A15550   1.048   6.779   6.584 -0.6049 -2.2388 -1.7931
  142OSM   H12B15551   1.210   6.745   6.541  1.0658 -0.9179  0.3172
  142OSM    C1115552   1.168   6.686   6.733  0.3829 -0.8630  0.1140
  142OSM   H11A15553   1.109   6.613   6.793 -0.0461  0.7070  1.6728
  142OSM   H11B15554   1.160   6.778   6.794  0.1256 -0.4851 -0.4894
  142OSM      P15555   1.430   6.726   6.719 -0.2180  0.2278 -0.1020
  142OSM    O1315556   1.384   6.835   6.631 -0.3219  0.0478  0.1203
  142OSM    O1415557   1.487   6.755   6.848  0.2886  0.4059  0.1203
  142OSM    O1115558   1.528   6.631   6.634  0.2282 -0.2028 -0.0192
  142OSM    O1215559   1.301   6.632   6.744 -0.4160  0.1625 -0.3501
  142OSM    C1S15560   1.488   6.595   6.503 -0.1709 -0.1006 -0.3823
  142OSM    H1S15561   1.383   6.627   6.487 -1.3914 -3.2606  0.3809
  142OSM    H1T15562   1.467   6.486   6.491 -0.3890  0.0949 -1.9569
  142OSM     NF15563   1.500   6.618   6.252 -0.2553 -0.0338  0.1248
  142OSM    HNF15564   1.558   6.558   6.197  0.6459 -2.1347  3.1154
  142OSM    C2S15565   1.562   6.660   6.380 -0.4652  0.1866  0.2096
  142OSM    H2S15566   1.554   6.770   6.394  0.6991  0.4656 -1.0844
  142OSM    C3S15567   1.713   6.626   6.395  0.5198  0.6830 -0.6029
  142OSM    H3S15568   1.713   6.519   6.366 -1.1311  0.5967 -0.3718
  142OSM     O315569   1.763   6.645   6.527  0.6045  0.0515  0.1208
  142OSM    HO315570   1.684   6.650   6.582  0.4214  2.8473 -0.2526
  142OSM    C4S15571   1.799   6.703   6.300 -0.0570 -0.3895 -0.1046
  142OSM    H4S15572   1.802   6.811   6.321  1.9875 -0.0193 -1.8950
  142OSM    C5S15573   1.863   6.654   6.189 -0.4013 -0.5505  0.1920
  142OSM    H5S15574   1.860   6.547   6.164 -2.7640 -0.6635  0.8086
  142OSM    C6S15575   1.947   6.734   6.097 -0.4285 -0.1613  0.8674
  142OSM    H6S15576   2.056   6.712   6.104 -0.4615 -1.3632 -1.4407
  142OSM    H6T15577   1.947   6.839   6.133  1.7074  0.5278 -0.8944
  142OSM    C7S15578   1.902   6.742   5.951 -0.1761 -0.1559  0.2889
  142OSM    H7S15579   1.826   6.667   5.919 -1.8337  1.9133 -0.8693
  142OSM    H7T15580   1.993   6.731   5.887 -2.1744  1.6119 -3.1515
  142OSM    C8S15581   1.855   6.887   5.922 -0.1241  0.0376 -0.3691
  142OSM    H8S15582   1.939   6.961   5.924  0.7615 -0.9632  0.3276
  142OSM    H8T15583   1.773   6.923   5.989  1.0165 -1.1789  1.7987
  142OSM    C9S15584   1.803   6.894   5.773  0.0494  0.2639  0.1687
  142OSM    H9S15585   1.870   6.848   5.699 -1.1307 -1.0860 -0.1063
  142OSM    H9T15586   1.799   7.000   5.739 -0.8291  0.4357  0.7637
  142OSM   C10S15587   1.665   6.818   5.754 -0.8786 -0.0641  0.3379
  142OSM   H10S15588   1.585   6.895   5.760  1.4496  2.4852  0.9163
  142OSM   H10T15589   1.652   6.742   5.834 -0.3681 -1.9692 -1.3158
  142OSM   C11S15590   1.661   6.729   5.630  0.7717  0.5180 -0.9596
  142OSM   H11S15591   1.750   6.663   5.642  1.3817  1.4506 -0.2652
  142OSM   H11T15592   1.664   6.785   5.534 -1.7562  2.6153  0.0406
  142OSM   C12S15593   1.535   6.639   5.626  1.2503  0.0833 -0.3109
  142OSM   H12S15594   1.443   6.693   5.657  0.5982 -1.2983  0.2585
  142OSM   H12T15595   1.548   6.567   5.709  0.1857  1.1902  0.8648
  142OSM   C13S15596   1.513   6.551   5.498 -0.1244 -0.2157 -0.8296
  142OSM   H13S15597   1.439   6.472   5.522  0.0119  0.1008  0.7276
  142OSM   H13T15598   1.601   6.490   5.468 -0.5526 -0.9920 -0.5180
  142OSM   C14S15599   1.461   6.635   5.379  0.1478  0.5594  0.0566
  142OSM   H14S15600   1.545   6.702   5.351  0.5600  0.8192  1.7864
  142OSM   H14T15601   1.373   6.696   5.408 -0.2137  1.3761 -2.5005
  142OSM   C15S15602   1.417   6.548   5.255 -0.0237 -0.6564 -0.2472
  142OSM   H15S15603   1.309   6.529   5.273 -0.2987  1.8526  1.1491
  142OSM   H15T15604   1.471   6.451   5.252 -0.2209 -0.7574 -0.5985
  142OSM   C16S15605   1.423   6.617   5.121 -0.1584 -0.5417  0.2794
  142OSM   H16S15606   1.529   6.645   5.104 -0.8270  0.1401 -3.6474
  142OSM   H16T15607   1.362   6.709   5.111 -2.1424 -1.6878  1.3027
  142OSM   C17S15608   1.391   6.528   5.007 -0.4337 -0.5543 -0.2431
  142OSM   H17S15609   1.299   6.469   5.026 -1.6265  0.3898 -2.6425
  142OSM   H17T15610   1.463   6.444   4.993  1.3363  0.5221  1.7984
  142OSM   C18S15611   1.377   6.610   4.879  0.0898  0.4301 -0.3791
  142OSM   H18S15612   1.283   6.669   4.886 -1.2019 -1.7040  1.9186
  142OSM   H18T15613   1.359   6.541   4.794 -0.5191 -0.8705  0.7724
  142OSM   H18U15614   1.464   6.675   4.854  0.1705  0.0578 -1.0800
  142OSM    C1F15615   1.378   6.663   6.210  0.4962  0.3058  0.0523
  142OSM     OF15616   1.310   6.741   6.270 -0.0468 -0.2947  0.3458
  142OSM    C2F15617   1.325   6.614   6.073  0.0225  0.5224 -0.4719
  142OSM    H2F15618   1.282   6.512   6.081 -0.0572  0.4509 -1.6710
  142OSM    H2G15619   1.416   6.598   6.012  0.8472  0.9011  0.6298
  142OSM    C3F15620   1.234   6.723   6.000 -0.7599  0.0200 -0.6540
  142OSM    H3F15621   1.279   6.825   6.001  0.3892 -0.4194 -2.5111
  142OSM    H3G15622   1.132   6.730   6.044 -1.3838  2.0602 -2.2764
  142OSM    C4F15623   1.213   6.690   5.845  0.0638  0.1923 -0.7824
  142OSM    H4F15624   1.153   6.598   5.831  0.6858 -0.3541  0.0171
  142OSM    H4G15625   1.313   6.677   5.798  1.1940 -3.8146  2.1373
  142OSM    C5F15626   1.129   6.786   5.770 -0.2472 -0.0242 -0.2485
  142OSM    H5F15627   1.182   6.884   5.761  0.2380 -0.4585 -2.8796
  142OSM    H5G15628   1.037   6.793   5.832 -1.4967  0.2197 -2.0674
  142OSM    C6F15629   1.091   6.731   5.629 -0.2739  0.4004  0.2905
  142OSM    H6F15630   1.031   6.638   5.641 -0.1223  0.4291  1.4380
  142OSM    H6G15631   1.180   6.712   5.566  0.1098 -0.4956  1.0740
  142OSM    C7F15632   1.012   6.826   5.542 -0.0521  0.2095 -0.0975
  142OSM    H7F15633   1.064   6.922   5.521 -0.7259  1.0867  1.9538
  142OSM    H7G15634   0.918   6.859   5.592 -0.1554 -0.6358  0.2835
  142OSM    C8F15635   0.972   6.762   5.405 -0.8892 -0.2303 -0.3918
  142OSM    H8F15636   0.944   6.659   5.436 -1.6806  0.0776 -0.0609
  142OSM    H8G15637   1.066   6.746   5.347  0.8511 -2.4337  2.7153
  142OSM    C9F15638   0.873   6.838   5.330  0.2351 -0.7611  0.1936
  142OSM    H9F15639   0.905   6.940   5.306  1.1628 -1.4165 -1.6145
  142OSM   C10F15640   0.745   6.805   5.298 -0.7270 -0.6261 -1.1996
  142OSM   H10F15641   0.690   6.885   5.247  0.8572 -0.1437 -2.2040
  142OSM   C11F15642   0.667   6.685   5.335  0.0582  0.1810  0.0233
  142OSM   H11F15643   0.739   6.608   5.370  0.6634  0.4666 -0.5561
  142OSM   H11G15644   0.635   6.641   5.238 -0.1494  3.9608 -1.8107
  142OSM   C12F15645   0.553   6.718   5.429  0.0585  0.4509  1.0335
  142OSM   H12F15646   0.476   6.637   5.431  0.9474 -0.4866 -0.7020
  142OSM   H12G15647   0.503   6.812   5.396 -0.8788 -0.1961  0.5409
  142OSM   C13F15648   0.607   6.747   5.569  0.1730  0.0439  1.5060
  142OSM   H13F15649   0.686   6.825   5.556 -0.9725  1.1429  0.9392
  142OSM   H13G15650   0.658   6.655   5.606  0.8803 -0.1130  0.1888
  142OSM   C14F15651   0.504   6.791   5.670  0.0187  0.2441 -0.7574
  142OSM   H14F15652   0.456   6.700   5.713  0.1318  0.6661  0.2865
  142OSM   H14G15653   0.431   6.857   5.618  0.1165 -0.9911 -2.5795
  142OSM   C15F15654   0.556   6.882   5.788 -0.6208  0.1183  0.3079
  142OSM   H15F15655   0.475   6.905   5.860  0.8049  0.7075  1.7708
  142OSM   H15G15656   0.593   6.974   5.737 -0.9797 -0.4523 -1.0468
  142OSM   C16F15657   0.682   6.825   5.865  0.1211  0.3894 -0.0313
  142OSM   H16F15658   0.706   6.893   5.949  3.6673  0.5026 -0.9670
  142OSM   H16G15659   0.761   6.806   5.789  0.8603  0.1994  0.7666
  142OSM   C17F15660   0.653   6.683   5.915 -0.8809 -0.1368  0.2297
  142OSM   H17F15661   0.640   6.616   5.827 -1.3890  2.4350 -1.8103
  142OSM   H17G15662   0.559   6.681   5.974 -0.2194  2.2859  1.5065
  142OSM   C18F15663   0.764   6.628   5.999 -1.1872 -0.2371 -0.4472
  142OSM   H18F15664   0.853   6.598   5.940  0.6909  0.6013  1.8208
  142OSM   H18G15665   0.730   6.539   6.057 -0.2483  0.8521  1.9209
  142OSM   H18H15666   0.816   6.693   6.072  2.3233 -3.4884  0.2283
  143OSM      N15667   1.817   2.872   6.983  0.0008  0.4089  0.3734
  143OSM    C1515668   1.810   2.725   7.021  0.6380 -0.9029  0.4808
  143OSM   H15A15669   1.747   2.670   6.952 -0.4305 -0.5724  1.1616
  143OSM   H15B15670   1.766   2.720   7.120  0.7921 -1.6113  0.5155
  143OSM   H15C15671   1.908   2.682   7.025  0.8538 -0.3220  2.2448
  143OSM    C1415672   1.675   2.929   6.949 -0.5102 -0.4467  0.5771
  143OSM   H14A15673   1.608   2.906   7.030  0.1831 -0.8780  1.0353
  143OSM   H14B15674   1.638   2.890   6.855  0.0657  0.2188  0.0648
  143OSM   H14C15675   1.674   3.037   6.945 -2.3401 -0.3441  2.2565
  143OSM    C1315676   1.864   2.947   7.097  0.0106  0.7197  0.2596
  143OSM   H13A15677   1.905   3.043   7.067  2.0244 -0.1571  0.0435
  143OSM   H13B15678   1.947   2.889   7.136 -0.1437 -0.0566 -0.5278
  143OSM   H13C15679   1.800   2.961   7.183  0.2244 -0.4455  0.6264
  143OSM    C1215680   1.912   2.886   6.863  0.6365 -0.2169 -0.4932
  143OSM   H12A15681   1.878   2.816   6.788  2.5735 -1.4273 -0.3188
  143OSM   H12B15682   2.008   2.856   6.903 -0.0192 -2.8390 -0.6601
  143OSM    C1115683   1.928   3.027   6.806  0.1235 -0.5114 -0.6584
  143OSM   H11A15684   1.830   3.078   6.793  0.5803  0.7377  0.5841
  143OSM   H11B15685   1.985   3.022   6.710  2.9726 -1.8126  0.9604
  143OSM      P15686   2.159   3.104   6.908  0.3738 -0.0273  0.3924
  143OSM    O1315687   2.187   3.187   7.025  0.1698  0.0234 -0.0872
  143OSM    O1415688   2.194   2.963   6.910 -0.3046 -0.3029  0.6556
  143OSM    O1115689   2.235   3.175   6.783  0.0445 -0.7726  0.0879
  143OSM    O1215690   2.005   3.117   6.887  0.2716 -0.2351 -0.1667
  143OSM    C1S15691   2.199   3.306   6.733 -0.1988 -0.3049 -0.3009
  143OSM    H1S15692   2.234   3.382   6.805 -0.6975  0.2257 -0.6132
  143OSM    H1T15693   2.090   3.315   6.715 -0.0011 -0.8531 -1.9498
  143OSM     NF15694   2.267   3.460   6.553  0.1311  0.1240 -0.5203
  143OSM    HNF15695   2.212   3.482   6.473  0.8822  1.3912 -0.7141
  143OSM    C2S15696   2.262   3.317   6.594 -0.0398 -0.4507  0.0874
  143OSM    H2S15697   2.366   3.279   6.598  0.5310  1.1331  1.4410
  143OSM    C3S15698   2.179   3.224   6.491 -0.9674 -0.2651  0.5055
  143OSM    H3S15699   2.076   3.265   6.492 -0.3706  1.3139  0.5645
  143OSM     O315700   2.192   3.087   6.527  0.0607 -0.0973  0.0204
  143OSM    HO315701   2.227   3.081   6.616  1.0731  1.5215 -0.2206
  143OSM    C4S15702   2.230   3.256   6.344  0.6883  0.3493 -0.2575
  143OSM    H4S15703   2.172   3.333   6.292 -1.5823 -0.3669  1.0900
  143OSM    C5S15704   2.331   3.186   6.285  0.1591 -0.1028  0.3946
  143OSM    H5S15705   2.370   3.097   6.335  0.9978 -0.6127 -1.0980
  143OSM    C6S15706   2.378   3.193   6.143  0.5016 -0.0138 -0.1597
  143OSM    H6S15707   2.390   3.092   6.097 -3.7703 -0.1505 -1.4766
  143OSM    H6T15708   2.480   3.236   6.135  0.4866  0.6396  2.4378
  143OSM    C7S15709   2.289   3.275   6.047  0.3106  0.2864 -0.0761
  143OSM    H7S15710   2.290   3.382   6.075 -0.4605  0.5670 -1.0314
  143OSM    H7T15711   2.186   3.232   6.044 -0.1803  1.3742 -2.9791
  143OSM    C8S15712   2.335   3.257   5.896 -0.7806  1.5537  0.6622
  143OSM    H8S15713   2.320   3.151   5.865  1.5113  1.4669 -0.3427
  143OSM    H8T15714   2.441   3.286   5.883  0.1872 -1.1536  1.7673
  143OSM    C9S15715   2.240   3.340   5.803 -0.0147 -0.3586 -0.0127
  143OSM    H9S15716   2.251   3.442   5.846 -0.6390 -1.7388  3.8124
  143OSM    H9T15717   2.134   3.313   5.818 -0.5074 -0.5270 -3.1142
  143OSM   C10S15718   2.292   3.334   5.661 -0.4877 -0.1206  0.0931
  143OSM   H10S15719   2.297   3.229   5.625 -4.4427 -0.1662 -0.7331
  143OSM   H10T15720   2.393   3.377   5.647 -0.9050  1.0480  0.6091
  143OSM   C11S15721   2.203   3.399   5.552 -0.2054 -0.0702  0.0316
  143OSM   H11S15722   2.199   3.506   5.581  0.7813 -0.6159  2.3793
  143OSM   H11T15723   2.099   3.360   5.555  0.4911 -1.9437  1.3019
  143OSM   C12S15724   2.263   3.394   5.415  0.4326 -0.5771 -0.0421
  143OSM   H12S15725   2.238   3.290   5.385  2.4821 -0.9901 -0.4272
  143OSM   H12T15726   2.372   3.413   5.408  0.1878  0.6831 -0.7319
  143OSM   C13S15727   2.188   3.488   5.322  0.0371  0.5171 -0.5734
  143OSM   H13S15728   2.201   3.589   5.368 -0.1629 -0.4056  1.6269
  143OSM   H13T15729   2.080   3.465   5.330 -0.0621  0.8165 -1.0650
  143OSM   C14S15730   2.230   3.482   5.173  0.7489  0.2632 -0.0775
  143OSM   H14S15731   2.193   3.571   5.118  1.5920 -0.2643 -1.5478
  143OSM   H14T15732   2.185   3.392   5.126  1.9130 -1.5319  2.0023
  143OSM   C15S15733   2.385   3.471   5.154  0.4529  0.1458 -0.3736
  143OSM   H15S15734   2.411   3.364   5.172  1.8538  0.2549 -1.5947
  143OSM   H15T15735   2.442   3.532   5.227 -0.0077  0.3852 -0.2121
  143OSM   C16S15736   2.434   3.507   5.010  0.7720 -0.3439 -0.5642
  143OSM   H16S15737   2.445   3.618   5.008  1.2426 -0.3598  0.5827
  143OSM   H16T15738   2.362   3.492   4.926  1.1297 -1.1879 -0.7258
  143OSM   C17S15739   2.566   3.436   4.978 -0.6789 -0.0327  0.0245
  143OSM   H17S15740   2.556   3.325   4.982  3.1055 -0.4891 -0.1521
  143OSM   H17T15741   2.638   3.449   5.061  0.3516  3.0532 -1.2292
  143OSM   C18S15742   2.619   3.481   4.846 -0.1308  0.4350  0.7571
  143OSM   H18S15743   2.709   3.421   4.822 -0.9542 -0.8212  0.7178
  143OSM   H18T15744   2.655   3.585   4.857  0.7179  0.4830 -1.7662
  143OSM   H18U15745   2.540   3.488   4.768 -2.2091  2.4959  2.8810
  143OSM    C1F15746   2.330   3.551   6.622 -1.1681 -1.1504 -0.1267
  143OSM     OF15747   2.408   3.523   6.721  0.4150  0.0365  0.4027
  143OSM    C2F15748   2.311   3.695   6.566 -0.4664  0.7227 -0.8184
  143OSM    H2F15749   2.281   3.755   6.654  0.9756  2.9956 -1.7811
  143OSM    H2G15750   2.222   3.683   6.501 -1.3898  2.6159  0.0320
  143OSM    C3F15751   2.420   3.775   6.499 -0.5519  0.1387  0.1649
  143OSM    H3F15752   2.495   3.796   6.578  0.8150  0.3973 -1.1429
  143OSM    H3G15753   2.374   3.871   6.466 -0.8921  0.5136  1.6742
  143OSM    C4F15754   2.490   3.704   6.386 -0.6756  0.0874 -0.1219
  143OSM    H4F15755   2.483   3.599   6.421 -2.6515  0.5423  1.0175
  143OSM    H4G15756   2.591   3.749   6.376 -1.2064  2.0145  2.1277
  143OSM    C5F15757   2.408   3.702   6.249  0.4641  0.2402 -0.9736
  143OSM    H5F15758   2.405   3.803   6.205  1.0051  0.9287  0.5149
  143OSM    H5G15759   2.312   3.657   6.282  1.5860 -1.9261 -0.4529
  143OSM    C6F15760   2.462   3.598   6.154  0.2323  0.2331 -0.1066
  143OSM    H6F15761   2.390   3.564   6.076  0.1855 -2.9443  1.1855
  143OSM    H6G15762   2.492   3.501   6.197  0.4367 -0.3524 -1.5120
  143OSM    C7F15763   2.575   3.637   6.067  0.1897 -0.2137  0.7048
  143OSM    H7F15764   2.637   3.545   6.059 -0.6386 -0.7792  0.7613
  143OSM    H7G15765   2.643   3.702   6.127 -0.0788  0.8369 -0.1017
  143OSM    C8F15766   2.537   3.706   5.932 -0.7852  0.5420  0.4280
  143OSM    H8F15767   2.472   3.794   5.949 -1.4032 -0.2298  2.3196
  143OSM    H8G15768   2.468   3.632   5.885  1.2468 -1.3753  0.2816
  143OSM    C9F15769   2.663   3.746   5.850  0.2993 -0.1608  0.0021
  143OSM    H9F15770   2.742   3.809   5.893  1.4162 -1.3800 -0.2065
  143OSM   C10F15771   2.697   3.702   5.725  0.5608 -0.6175 -0.2796
  143OSM   H10F15772   2.794   3.734   5.684  2.3298 -1.9767  2.5252
  143OSM   C11F15773   2.618   3.588   5.659  0.0042  0.2348 -0.1289
  143OSM   H11F15774   2.510   3.574   5.683  0.1516 -0.6048  0.0800
  143OSM   H11G15775   2.661   3.488   5.680 -1.0950 -0.6746 -1.9111
  143OSM   C12F15776   2.621   3.602   5.504 -0.0517  0.2294 -0.2494
  143OSM   H12F15777   2.547   3.678   5.470  0.3909 -0.1414 -2.1434
  143OSM   H12G15778   2.585   3.506   5.461  4.0399 -0.8122 -1.8072
  143OSM   C13F15779   2.763   3.632   5.451 -0.0852  0.2244 -0.6996
  143OSM   H13F15780   2.835   3.586   5.523  0.0236  1.6793  0.1677
  143OSM   H13G15781   2.782   3.742   5.456  1.0788 -0.0101  1.7221
  143OSM   C14F15782   2.768   3.599   5.302 -0.3572  0.5388  0.4656
  143OSM   H14F15783   2.666   3.595   5.258 -0.3625 -1.1457  0.5766
  143OSM   H14G15784   2.810   3.497   5.287  0.4106  0.5061  2.5652
  143OSM   C15F15785   2.863   3.691   5.222  0.5881  0.3247  0.0465
  143OSM   H15F15786   2.954   3.686   5.285  0.7157  3.6042  0.2960
  143OSM   H15G15787   2.821   3.794   5.219  0.2374  0.2577  1.7862
  143OSM   C16F15788   2.901   3.635   5.082  0.1542  0.1375  0.0844
  143OSM   H16F15789   2.813   3.622   5.016  1.3520 -0.1331 -1.5252
  143OSM   H16G15790   2.942   3.532   5.085 -0.2624 -0.0438 -0.2613
  143OSM   C17F15791   2.998   3.740   5.021  0.5783  0.6346  0.1420
  143OSM   H17F15792   3.091   3.745   5.081  1.4999  2.5317 -1.3410
  143OSM   H17G15793   2.950   3.840   5.023  0.0830  0.3943  0.8325
  143OSM   C18F15794   3.032   3.707   4.878  0.0974 -0.2795  0.2537
  143OSM   H18F15795   3.083   3.609   4.882 -1.5554 -1.1327  1.1102
  143OSM   H18G15796   3.106   3.778   4.833 -1.5490  1.3036 -0.0612
  143OSM   H18H15797   2.936   3.699   4.824 -0.2540 -0.0962  0.8457
  144OSM      N15798   2.746   2.064   6.734 -0.6126  0.2461  0.5010
  144OSM    C1515799   2.846   2.075   6.842 -0.1326  0.9024  0.2864
  144OSM   H15A15800   2.903   2.166   6.851  0.0793  1.3014 -3.7203
  144OSM   H15B15801   2.914   1.992   6.831 -1.2689  0.2570 -2.8464
  144OSM   H15C15802   2.793   2.064   6.936  0.7970  2.7295  1.0806
  144OSM    C1415803   2.693   1.928   6.729  0.3197  0.5641  0.6868
  144OSM   H14A15804   2.663   1.889   6.825  3.0200 -0.6949  1.1010
  144OSM   H14B15805   2.773   1.863   6.698 -0.3322 -0.4583  1.0904
  144OSM   H14C15806   2.617   1.920   6.652  0.5219 -1.4924  0.6225
  144OSM    C1315807   2.637   2.167   6.757  0.0450 -0.0823  0.8865
  144OSM   H13A15808   2.682   2.265   6.759 -0.2334  0.3475 -3.3410
  144OSM   H13B15809   2.585   2.144   6.848 -0.2058 -3.7368 -0.0220
  144OSM   H13C15810   2.571   2.169   6.672  0.8535  0.2860  0.2496
  144OSM    C1215811   2.814   2.097   6.599  0.2818 -0.4785 -0.7855
  144OSM   H12A15812   2.840   2.202   6.601 -1.3076 -0.0572  0.0863
  144OSM   H12B15813   2.741   2.080   6.521 -0.8934 -0.9072  0.3700
  144OSM    C1115814   2.950   2.035   6.565 -0.2279  0.6616  0.0577
  144OSM   H11A15815   3.012   2.072   6.650 -0.9783  1.9706  0.0691
  144OSM   H11B15816   2.993   2.074   6.471  1.5704 -1.2213  0.0392
  144OSM      P15817   3.072   1.807   6.605 -0.5129  0.1801  0.0488
  144OSM    O1315818   3.144   1.889   6.708 -0.1101  0.6719  0.7800
  144OSM    O1415819   3.027   1.675   6.646  0.2020 -0.0775  0.3950
  144OSM    O1115820   3.160   1.795   6.472 -0.6967  0.1688 -0.1543
  144OSM    O1215821   2.948   1.894   6.555  0.1633  0.1809 -0.3172
  144OSM    C1S15822   3.113   1.856   6.354  0.1062  0.0882 -0.0628
  144OSM    H1S15823   3.148   1.961   6.362  2.3900 -0.6030 -0.2996
  144OSM    H1T15824   3.003   1.842   6.345 -0.0013 -0.4592  1.7488
  144OSM     NF15825   3.167   1.880   6.113  0.2268 -0.2988  0.5135
  144OSM    HNF15826   3.105   1.847   6.042  0.3384  0.0068  0.2684
  144OSM    C2S15827   3.170   1.791   6.229 -0.1935  0.2670  0.0216
  144OSM    H2S15828   3.278   1.774   6.247 -0.3115  0.9556  1.4893
  144OSM    C3S15829   3.115   1.643   6.209 -0.1636 -0.2595  0.3393
  144OSM    H3S15830   3.005   1.648   6.202 -0.1151  0.3205  0.0184
  144OSM     O315831   3.138   1.550   6.315  0.3700 -0.1906  0.2031
  144OSM    HO315832   3.133   1.617   6.384 -2.1338  1.0867 -1.0895
  144OSM    C4S15833   3.174   1.584   6.084 -0.0746  0.7089 -0.8101
  144OSM    H4S15834   3.108   1.604   5.999 -1.6363 -0.6480  0.0109
  144OSM    C5S15835   3.281   1.503   6.058 -0.2188  0.3862 -0.6300
  144OSM    H5S15836   3.345   1.464   6.138 -1.3166 -1.4023 -0.5571
  144OSM    C6S15837   3.319   1.447   5.928 -0.0264 -0.4670  0.0540
  144OSM    H6S15838   3.308   1.337   5.927 -0.6232 -0.4163  0.3277
  144OSM    H6T15839   3.427   1.461   5.911 -0.0306 -1.5955 -1.0357
  144OSM    C7S15840   3.249   1.502   5.807 -0.1949  0.2238  1.1433
  144OSM    H7S15841   3.250   1.613   5.810 -1.2907  0.2682  0.5580
  144OSM    H7T15842   3.140   1.479   5.811 -0.0462 -0.3789  2.4935
  144OSM    C8S15843   3.299   1.447   5.672  0.8203 -0.4846 -0.2840
  144OSM    H8S15844   3.283   1.338   5.683  0.8202 -0.3122  2.0218
  144OSM    H8T15845   3.403   1.483   5.663  0.0952  1.9720  0.2833
  144OSM    C9S15846   3.213   1.517   5.561  0.0094  0.5746  0.5166
  144OSM    H9S15847   3.230   1.626   5.547  0.2447  0.3201 -1.4829
  144OSM    H9T15848   3.106   1.505   5.588 -0.5894 -0.2073 -1.9673
  144OSM   C10S15849   3.234   1.454   5.419 -0.0542  0.4292 -0.5552
  144OSM   H10S15850   3.199   1.351   5.442  2.0549  0.0601  1.4541
  144OSM   H10T15851   3.342   1.449   5.394  0.5626  1.1186  1.6562
  144OSM   C11S15852   3.161   1.521   5.299  0.7585  0.4969  0.1005
  144OSM   H11S15853   3.189   1.628   5.292  0.7693  0.5680  1.1595
  144OSM   H11T15854   3.053   1.535   5.322  1.0173  2.6662  0.2127
  144OSM   C12S15855   3.190   1.449   5.167 -0.0494 -0.1225 -0.0274
  144OSM   H12S15856   3.148   1.347   5.178 -0.2246  0.0451  0.9299
  144OSM   H12T15857   3.300   1.438   5.153 -0.0288  0.3718 -0.2971
  144OSM   C13S15858   3.143   1.514   5.041  0.4575 -0.3134 -0.4061
  144OSM   H13S15859   3.201   1.609   5.031  0.4223 -0.4136 -1.6630
  144OSM   H13T15860   3.036   1.542   5.053 -0.2173 -1.7436 -2.4971
  144OSM   C14S15861   3.155   1.410   4.927 -0.3549 -0.6225  0.1393
  144OSM   H14S15862   3.099   1.454   4.841  1.2782  0.0060 -0.6353
  144OSM   H14T15863   3.109   1.316   4.964  1.6554 -0.5369  3.1567
  144OSM   C15S15864   3.304   1.390   4.889 -0.1746 -0.7943  0.3891
  144OSM   H15S15865   3.370   1.367   4.975  1.5012  1.7516 -0.1065
  144OSM   H15T15866   3.355   1.478   4.845  0.8547 -0.6605  1.7901
  144OSM   C16S15867   3.322   1.285   4.778 -0.2377  0.7663  0.3692
  144OSM   H16S15868   3.255   1.197   4.794  2.9785 -2.5125 -2.4517
  144OSM   H16T15869   3.427   1.250   4.770 -0.4256  0.3637 -0.4468
  144OSM   C17S15870   3.299   1.317   4.627  0.5243 -1.1570  0.6352
  144OSM   H17S15871   3.379   1.392   4.606  0.2725 -1.1766 -0.4265
  144OSM   H17T15872   3.203   1.360   4.594  0.1315 -2.1038  0.5166
  144OSM   C18S15873   3.338   1.192   4.531  0.4221 -0.6179  0.1592
  144OSM   H18S15874   3.271   1.108   4.560  0.0846  0.3637  2.3667
  144OSM   H18T15875   3.441   1.152   4.536  1.0196  0.4482 -2.0785
  144OSM   H18U15876   3.309   1.226   4.429  1.2392 -0.8266 -0.1478
  144OSM    C1F15877   3.230   1.997   6.109  0.6636 -0.1279  0.6234
  144OSM     OF15878   3.299   2.034   6.200 -0.2936  0.1975  0.1937
  144OSM    C2F15879   3.218   2.074   5.981  0.4454 -0.3470  0.2882
  144OSM    H2F15880   3.182   2.173   6.015 -0.5165 -1.3873  2.4985
  144OSM    H2G15881   3.139   2.029   5.916 -0.1201  2.4151 -1.0542
  144OSM    C3F15882   3.351   2.081   5.909  0.0815 -0.2541  1.0140
  144OSM    H3F15883   3.417   1.996   5.936  0.9502  0.4014  0.9974
  144OSM    H3G15884   3.410   2.170   5.939 -0.8334  0.7001  0.0762
  144OSM    C4F15885   3.335   2.092   5.756 -0.7093  0.7197 -0.4083
  144OSM    H4F15886   3.433   2.122   5.713 -1.4046  0.7392 -2.0228
  144OSM    H4G15887   3.249   2.151   5.720 -1.2059 -0.2458 -0.8445
  144OSM    C5F15888   3.314   1.953   5.698 -0.6664 -0.4171  0.3549
  144OSM    H5F15889   3.209   1.916   5.706 -1.5852  1.8687 -0.3221
  144OSM    H5G15890   3.385   1.874   5.731 -0.0148 -0.6216 -1.4340
  144OSM    C6F15891   3.339   1.954   5.545  0.2812  0.1001 -0.6291
  144OSM    H6F15892   3.329   1.849   5.512  1.1846 -0.3425  0.4501
  144OSM    H6G15893   3.442   1.990   5.524  0.0958  0.9532 -0.1250
  144OSM    C7F15894   3.231   2.024   5.473 -0.3209 -0.0553  0.1665
  144OSM    H7F15895   3.237   2.135   5.478 -1.6334  0.0344  0.1491
  144OSM    H7G15896   3.133   2.001   5.520 -1.5907  0.8754 -1.8671
  144OSM    C8F15897   3.229   1.970   5.329  0.5681  0.1239 -0.3910
  144OSM    H8F15898   3.189   1.867   5.339  0.4252  0.2785  0.7624
  144OSM    H8G15899   3.330   1.961   5.285 -0.2058 -0.3371 -2.1651
  144OSM    C9F15900   3.157   2.061   5.239  0.3148  0.6719  0.1040
  144OSM    H9F15901   3.084   2.134   5.274  0.6106  0.1321  1.9716
  144OSM   C10F15902   3.179   2.040   5.107 -0.3492 -0.3778  0.5503
  144OSM   H10F15903   3.125   2.105   5.036  2.2393  4.3402  2.4702
  144OSM   C11F15904   3.267   1.936   5.038  0.1243  0.8000 -0.4402
  144OSM   H11F15905   3.271   1.839   5.093  1.5694  0.6056 -0.8390
  144OSM   H11G15906   3.372   1.970   5.026  0.3578 -0.3096 -1.9219
  144OSM   C12F15907   3.218   1.889   4.898  0.8342 -0.3638  0.6669
  144OSM   H12F15908   3.108   1.882   4.896  0.7772 -0.1717  2.0505
  144OSM   H12G15909   3.261   1.793   4.860  1.0185  0.9473 -2.7521
  144OSM   C13F15910   3.257   1.982   4.774  0.1637  0.0154 -0.5745
  144OSM   H13F15911   3.206   1.957   4.679 -0.6786  0.6207 -0.2930
  144OSM   H13G15912   3.362   1.956   4.750 -0.0191 -1.2186 -0.1375
  144OSM   C14F15913   3.252   2.135   4.806  0.5118  0.0575 -0.0661
  144OSM   H14F15914   3.298   2.156   4.905  0.0800  1.8574 -0.2099
  144OSM   H14G15915   3.144   2.161   4.818  0.2020 -1.0635 -0.2703
  144OSM   C15F15916   3.307   2.229   4.712  0.5153  0.2321  0.0130
  144OSM   H15F15917   3.264   2.223   4.609  1.7895 -0.1623 -0.5230
  144OSM   H15G15918   3.415   2.223   4.687  0.1244  0.0790 -1.8619
  144OSM   C16F15919   3.282   2.376   4.755  0.3399  0.2981  0.0030
  144OSM   H16F15920   3.330   2.388   4.855 -4.5760  1.6338  2.5337
  144OSM   H16G15921   3.175   2.394   4.778  0.2281  0.2251 -0.4473
  144OSM   C17F15922   3.323   2.474   4.655 -0.2566 -0.0042  0.3026
  144OSM   H17F15923   3.272   2.456   4.557 -1.2071 -0.2772  0.8297
  144OSM   H17G15924   3.431   2.473   4.629  0.0531 -3.0047  1.3274
  144OSM   C18F15925   3.296   2.620   4.692  0.1624  0.3020  0.1599
  144OSM   H18F15926   3.342   2.696   4.626 -1.3430  1.5081  0.4455
  144OSM   H18G15927   3.338   2.649   4.790  0.3587 -0.3665  0.2762
  144OSM   H18H15928   3.188   2.645   4.700  0.1460  0.5017 -0.6034
  145OSM      N15929   2.964   5.705   7.256 -1.2081  0.5084  0.2078
  145OSM    C1515930   3.063   5.607   7.311 -0.0217  0.6072 -0.0320
  145OSM   H15A15931   3.044   5.510   7.267 -1.8510 -0.0096  1.9844
  145OSM   H15B15932   3.075   5.618   7.418 -0.4692  2.9851 -0.1805
  145OSM   H15C15933   3.156   5.620   7.258  0.0298  0.2181 -0.0444
  145OSM    C1415934   2.844   5.684   7.331  0.2813  0.2927 -0.4868
  145OSM   H14A15935   2.822   5.579   7.348  1.1223  0.2278  0.2933
  145OSM   H14B15936   2.765   5.748   7.295  0.9904  2.0378  0.9184
  145OSM   H14C15937   2.863   5.722   7.431  0.3098  1.3202 -0.8710
  145OSM    C1315938   3.020   5.842   7.277  0.0794  0.2059  0.2836
  145OSM   H13A15939   3.109   5.866   7.222 -1.3472  0.6116 -1.9962
  145OSM   H13B15940   3.044   5.862   7.381  2.2555  2.4654 -0.5534
  145OSM   H13C15941   2.938   5.910   7.256 -0.1415  0.6571  2.3214
  145OSM    C1215942   2.925   5.680   7.115  0.1575  0.8502  0.4230
  145OSM   H12A15943   2.849   5.748   7.080 -0.0338 -0.0441 -0.9786
  145OSM   H12B15944   2.887   5.579   7.121 -0.8003  1.2620  3.3773
  145OSM    C1115945   3.038   5.675   7.008  0.4542  0.9962 -0.3166
  145OSM   H11A15946   3.099   5.767   7.018  2.4546 -0.4477  2.0556
  145OSM   H11B15947   2.989   5.680   6.908  0.8742  1.8552 -0.4843
  145OSM      P15948   3.060   5.412   7.007 -0.0564 -0.4959 -0.4364
  145OSM    O1315949   3.119   5.328   7.112 -0.2648  0.1107  0.5698
  145OSM    O1415950   2.911   5.420   7.003 -0.2319  0.2411  0.3216
  145OSM    O1115951   3.120   5.381   6.866  0.0834 -0.0751 -0.2700
  145OSM    O1215952   3.116   5.554   7.024 -1.1577  0.2885  0.1129
  145OSM    C1S15953   3.112   5.460   6.745 -0.2452 -0.2592 -0.5965
  145OSM    H1S15954   3.196   5.532   6.732  0.0311 -0.3315  0.6160
  145OSM    H1T15955   3.020   5.522   6.732 -1.0144 -0.7634  1.7931
  145OSM     NF15956   3.102   5.460   6.502 -0.2609  0.2205  0.3474
  145OSM    HNF15957   3.016   5.475   6.455 -0.1332 -0.8709 -0.2657
  145OSM    C2S15958   3.117   5.369   6.616  1.0191 -0.6189  0.3849
  145OSM    H2S15959   3.216   5.319   6.612  1.3695  0.1072 -0.0555
  145OSM    C3S15960   3.010   5.256   6.618 -0.7082 -0.0224  0.3265
  145OSM    H3S15961   2.907   5.292   6.600 -0.0942  0.8977 -1.6976
  145OSM     O315962   3.001   5.179   6.740  0.1232 -0.4987 -0.4904
  145OSM    HO315963   3.053   5.231   6.800 -3.1511  0.1683  2.0571
  145OSM    C4S15964   3.028   5.159   6.511 -0.3812  0.2097  0.1484
  145OSM    H4S15965   3.134   5.135   6.495 -0.4914 -0.9747  1.0976
  145OSM    C5S15966   2.933   5.096   6.445  0.7458 -0.4721  0.0365
  145OSM    H5S15967   2.827   5.123   6.460  0.6029 -0.3297 -1.0975
  145OSM    C6S15968   2.947   4.995   6.342  0.4480 -0.2078  0.4948
  145OSM    H6S15969   2.923   5.046   6.246  2.5439  0.5416  0.3130
  145OSM    H6T15970   2.871   4.916   6.358 -1.3800  0.3505 -3.8853
  145OSM    C7S15971   3.081   4.920   6.322  0.1507  0.5442  0.7803
  145OSM    H7S15972   3.100   4.851   6.407  0.3902  1.3411  1.3851
  145OSM    H7T15973   3.157   5.001   6.329  1.2325 -0.1498 -1.8306
  145OSM    C8S15974   3.109   4.852   6.177  0.2089  0.2245  0.0630
  145OSM    H8S15975   3.093   4.932   6.102 -1.0844 -0.6264 -0.6110
  145OSM    H8T15976   3.029   4.774   6.171 -0.3569  0.8104 -0.1549
  145OSM    C9S15977   3.244   4.779   6.162 -0.2918 -0.2406  0.5942
  145OSM    H9S15978   3.252   4.705   6.244 -0.7415  2.1429  2.9001
  145OSM    H9T15979   3.320   4.857   6.185  0.2480 -1.1329  1.9531
  145OSM   C10S15980   3.283   4.723   6.025 -0.4514 -0.2606 -0.0157
  145OSM   H10S15981   3.243   4.794   5.949  0.7757  0.8002  0.2872
  145OSM   H10T15982   3.229   4.627   6.013 -1.4075 -0.0086  1.8992
  145OSM   C11S15983   3.431   4.723   5.995 -0.0404 -0.0690  0.9052
  145OSM   H11S15984   3.468   4.626   5.955 -0.2757  0.8971 -1.8764
  145OSM   H11T15985   3.493   4.757   6.081  0.0458  1.2767  0.3303
  145OSM   C12S15986   3.455   4.825   5.880 -0.4363  0.6635 -0.3372
  145OSM   H12S15987   3.397   4.918   5.902 -0.2587  0.5187  0.7854
  145OSM   H12T15988   3.403   4.778   5.794 -0.8027  2.6504 -1.2720
  145OSM   C13S15989   3.599   4.854   5.840  1.3160  0.0673  0.4112
  145OSM   H13S15990   3.664   4.772   5.878  0.7242 -1.0230 -0.8890
  145OSM   H13T15991   3.622   4.954   5.882 -1.5420  0.5039  1.1306
  145OSM   C14S15992   3.610   4.877   5.689  0.2235  0.0836  0.2002
  145OSM   H14S15993   3.702   4.932   5.660  0.2989  0.2241  0.7092
  145OSM   H14T15994   3.523   4.943   5.670  0.1692 -0.0017  0.1507
  145OSM   C15S15995   3.605   4.745   5.604  0.6125 -0.1329 -0.3878
  145OSM   H15S15996   3.546   4.660   5.642 -0.9552  0.9098 -0.4067
  145OSM   H15T15997   3.713   4.716   5.598  1.0339  1.5657 -2.8145
  145OSM   C16S15998   3.557   4.776   5.464 -0.2374 -0.2696  0.5600
  145OSM   H16S15999   3.594   4.693   5.400  0.4886  0.9275 -0.6288
  145OSM   H16T16000   3.604   4.867   5.422 -2.2191 -0.0972 -1.5092
  145OSM   C17S16001   3.399   4.766   5.455  0.0236 -0.1377  0.0205
  145OSM   H17S16002   3.350   4.842   5.520  0.6116 -0.4730  0.8730
  145OSM   H17T16003   3.369   4.664   5.488 -1.7027  0.0722 -0.8112
  145OSM   C18S16004   3.333   4.787   5.314 -0.0881  0.1784 -0.4314
  145OSM   H18S16005   3.378   4.874   5.262  0.3946 -0.8095 -1.7276
  145OSM   H18T16006   3.224   4.801   5.329 -0.0241 -0.1125  0.3837
  145OSM   H18U16007   3.356   4.695   5.255 -1.2751  1.4258 -2.9824
  145OSM    C1F16008   3.193   5.552   6.474 -0.6419  0.5587  0.2391
  145OSM     OF16009   3.311   5.541   6.516  0.0684  0.3438 -0.4811
  145OSM    C2F16010   3.151   5.666   6.386  0.0754 -0.2314  0.1153
  145OSM    H2F16011   3.082   5.730   6.444 -0.6709  0.7662 -1.7880
  145OSM    H2G16012   3.096   5.625   6.299  2.1991 -2.2445 -0.3982
  145OSM    C3F16013   3.271   5.754   6.337 -0.1202  0.0165 -0.0312
  145OSM    H3F16014   3.330   5.688   6.269 -0.2544  0.7281 -0.8610
  145OSM    H3G16015   3.331   5.800   6.418 -0.0827 -1.2716  0.6952
  145OSM    C4F16016   3.226   5.862   6.236  0.5573  0.3542  0.1847
  145OSM    H4F16017   3.315   5.899   6.181  0.3201  0.9347  0.1905
  145OSM    H4G16018   3.189   5.950   6.292 -0.2298  1.2971 -1.7321
  145OSM    C5F16019   3.114   5.824   6.138 -0.5053 -0.1589  0.0114
  145OSM    H5F16020   3.015   5.817   6.188 -1.0817  0.9281 -0.9164
  145OSM    H5G16021   3.145   5.725   6.099  0.8875 -0.4860  1.8121
  145OSM    C6F16022   3.102   5.918   6.009  0.2155 -0.2835  0.4221
  145OSM    H6F16023   3.195   5.903   5.951  0.6613 -0.0430  1.0724
  145OSM    H6G16024   3.105   6.022   6.049  3.7651 -0.2818  0.4133
  145OSM    C7F16025   2.975   5.886   5.927  0.0790  0.7532 -0.1619
  145OSM    H7F16026   2.964   5.970   5.856  3.4763  0.8354 -0.7532
  145OSM    H7G16027   2.884   5.883   5.991  0.3715 -1.5412  0.2376
  145OSM    C8F16028   2.985   5.747   5.861  0.1598 -0.7945  0.0357
  145OSM    H8F16029   2.985   5.671   5.942 -3.1161 -0.1860  0.7586
  145OSM    H8G16030   3.082   5.728   5.811 -0.4052 -1.0773 -0.9800
  145OSM    C9F16031   2.877   5.705   5.771 -0.2670  0.0121  0.3217
  145OSM    H9F16032   2.777   5.742   5.798 -0.2083  0.3592  0.0732
  145OSM   C10F16033   2.879   5.646   5.647 -0.7906  0.4804  0.9500
  145OSM   H10F16034   2.785   5.648   5.591 -0.9400 -1.4885  1.0802
  145OSM   C11F16035   3.008   5.600   5.582 -0.6441  0.2932 -0.1269
  145OSM   H11F16036   2.978   5.520   5.511 -0.7376  0.5254 -0.3511
  145OSM   H11G16037   3.078   5.550   5.653 -1.5550 -0.4607  0.2624
  145OSM   C12F16038   3.101   5.710   5.521  0.7067 -0.9373  0.5642
  145OSM   H12F16039   3.206   5.674   5.522  0.8321 -0.5797  2.3498
  145OSM   H12G16040   3.109   5.804   5.579  2.9362 -0.4626 -0.3766
  145OSM   C13F16041   3.051   5.768   5.388  0.1679  0.2098 -0.3780
  145OSM   H13F16042   3.117   5.850   5.353 -1.8113  1.4425 -1.3835
  145OSM   H13G16043   2.945   5.802   5.387  0.0444 -0.1480  0.2560
  145OSM   C14F16044   3.046   5.668   5.271 -0.2599 -0.1854  0.7563
  145OSM   H14F16045   2.991   5.574   5.294 -0.9900  0.5116  1.9856
  145OSM   H14G16046   3.151   5.644   5.243 -0.4008  0.7430 -0.6438
  145OSM   C15F16047   2.999   5.733   5.135 -0.7336 -0.3351 -0.0795
  145OSM   H15F16048   3.066   5.819   5.120  0.2267 -1.0671 -0.0931
  145OSM   H15G16049   2.898   5.779   5.142 -0.4444  0.5673 -1.5644
  145OSM   C16F16050   3.020   5.636   5.014 -0.6134  0.7952 -0.2655
  145OSM   H16F16051   2.931   5.574   4.992 -0.8752  1.3254 -0.7398
  145OSM   H16G16052   3.097   5.564   5.047 -0.9233  1.7221  2.9203
  145OSM   C17F16053   3.050   5.711   4.888  0.3841  0.1886  0.4946
  145OSM   H17F16054   3.131   5.781   4.920 -0.0454 -0.1278  2.3404
  145OSM   H17G16055   2.968   5.778   4.854 -1.7754 -1.3873  2.3278
  145OSM   C18F16056   3.097   5.621   4.766 -0.0629 -0.2810 -0.3927
  145OSM   H18F16057   3.093   5.513   4.792  1.6663 -0.8065 -2.0830
  145OSM   H18G16058   3.198   5.650   4.731  1.2148  0.4635  3.4419
  145OSM   H18H16059   3.033   5.632   4.675  0.4309 -1.1614 -0.8662
  146OSM      N16060   1.454   1.086   7.254  0.7977  0.0246 -0.0742
  146OSM    C1516061   1.324   1.118   7.192  0.3132 -0.2287 -0.4973
  146OSM   H15A16062   1.300   1.219   7.223 -1.9291 -0.8294 -0.0600
  146OSM   H15B16063   1.243   1.054   7.225 -1.6505  1.9258 -0.8116
  146OSM   H15C16064   1.321   1.112   7.084 -1.5024 -1.1866 -0.4337
  146OSM    C1416065   1.548   1.193   7.213 -0.6116 -0.0036 -0.1184
  146OSM   H14A16066   1.511   1.291   7.240 -1.1821 -0.5068  0.9766
  146OSM   H14B16067   1.568   1.192   7.107 -3.6803 -2.0835 -0.8138
  146OSM   H14C16068   1.641   1.173   7.264  0.0754  0.3789 -1.1817
  146OSM    C1316069   1.443   1.101   7.398 -0.2334  0.8833 -0.2793
  146OSM   H13A16070   1.373   1.180   7.419  0.0491  0.9774  0.3570
  146OSM   H13B16071   1.534   1.127   7.451 -0.1482  0.1714 -0.0553
  146OSM   H13C16072   1.405   1.011   7.445 -2.0854  1.2083 -1.0706
  146OSM    C1216073   1.520   0.955   7.200  0.7644 -0.0653  0.4589
  146OSM   H12A16074   1.452   0.873   7.218 -1.7278  1.6192 -0.6161
  146OSM   H12B16075   1.606   0.935   7.261  2.3038 -0.4639 -1.7092
  146OSM    C1116076   1.568   0.945   7.050 -0.4463 -0.1302  0.0950
  146OSM   H11A16077   1.606   0.842   7.029 -0.7738 -0.0696 -0.8460
  146OSM   H11B16078   1.652   1.015   7.034 -0.8303  0.5219  0.8374
  146OSM      P16079   1.346   0.874   6.924  0.3812  0.3096  0.2487
  146OSM    O1316080   1.300   0.796   7.039  0.2400  0.5080 -0.0713
  146OSM    O1416081   1.245   0.949   6.844 -0.0581  0.2416  0.0196
  146OSM    O1116082   1.426   0.783   6.826 -0.9918 -0.5301 -0.7333
  146OSM    O1216083   1.463   0.967   6.962  0.6545 -0.1704 -0.5695
  146OSM    C1S16084   1.409   0.777   6.687 -0.1873  0.4010  0.2480
  146OSM    H1S16085   1.426   0.870   6.628  0.3183  0.3877  0.3646
  146OSM    H1T16086   1.301   0.758   6.670 -0.2269 -0.9729  1.7627
  146OSM     NF16087   1.454   0.642   6.493  0.1121 -0.0242  0.1176
  146OSM    HNF16088   1.425   0.548   6.477 -0.4521  0.5553 -2.7775
  146OSM    C2S16089   1.499   0.668   6.626 -0.0558  0.5799 -0.5329
  146OSM    H2S16090   1.607   0.697   6.625  1.5073 -4.1101  1.3980
  146OSM    C3S16091   1.507   0.538   6.710 -0.2634  0.2428 -0.0101
  146OSM    H3S16092   1.408   0.493   6.732 -0.0086  0.0413  0.7512
  146OSM     O316093   1.565   0.565   6.842  0.2436 -0.2872  0.4106
  146OSM    HO316094   1.544   0.656   6.864 -0.9965 -0.1764 -1.0409
  146OSM    C4S16095   1.595   0.425   6.654  0.1940 -0.2987  0.6587
  146OSM    H4S16096   1.537   0.347   6.602 -0.4259  0.0102  0.8841
  146OSM    C5S16097   1.729   0.404   6.661 -0.7346  0.2828  0.0012
  146OSM    H5S16098   1.795   0.476   6.712 -1.2111 -0.1867  1.3027
  146OSM    C6S16099   1.793   0.289   6.583 -0.7016  0.0863 -0.6790
  146OSM    H6S16100   1.797   0.191   6.634 -0.6879  0.4016 -0.0605
  146OSM    H6T16101   1.901   0.312   6.588 -1.2248  2.7309  0.1924
  146OSM    C7S16102   1.741   0.286   6.442 -0.1889 -0.5072 -0.4231
  146OSM    H7S16103   1.631   0.287   6.431  0.0855 -0.5517 -4.4368
  146OSM    H7T16104   1.774   0.196   6.386  0.7922  0.4014 -1.3357
  146OSM    C8S16105   1.788   0.405   6.360 -0.2968  0.3630 -0.7281
  146OSM    H8S16106   1.899   0.403   6.359 -0.2733 -1.6013  0.4644
  146OSM    H8T16107   1.743   0.499   6.398 -2.5823 -0.0062 -2.2553
  146OSM    C9S16108   1.746   0.402   6.214  0.2416 -0.0817  0.8814
  146OSM    H9S16109   1.639   0.428   6.204  0.3464 -0.1594 -0.7191
  146OSM    H9T16110   1.766   0.303   6.167 -2.9932 -0.7190  0.6112
  146OSM   C10S16111   1.817   0.498   6.121  0.0548 -1.3683 -0.0509
  146OSM   H10S16112   1.920   0.458   6.105  1.4081  1.6799  0.1727
  146OSM   H10T16113   1.831   0.597   6.171  1.1194 -0.6093 -1.7387
  146OSM   C11S16114   1.737   0.528   5.992  0.2461  0.4464  0.0678
  146OSM   H11S16115   1.643   0.583   6.015 -1.1359 -1.8160  0.1577
  146OSM   H11T16116   1.720   0.425   5.952  0.6137 -0.1701  1.4283
  146OSM   C12S16117   1.826   0.589   5.884 -0.0071  0.6167  0.1756
  146OSM   H12S16118   1.913   0.521   5.872 -2.0236 -2.1345  0.2262
  146OSM   H12T16119   1.863   0.684   5.928  1.2437 -0.2822  1.0884
  146OSM   C13S16120   1.756   0.608   5.749  0.0629 -0.9333  0.5688
  146OSM   H13S16121   1.680   0.686   5.772  1.0660  0.6957 -1.3457
  146OSM   H13T16122   1.709   0.513   5.715  0.8455 -1.0508 -0.2004
  146OSM   C14S16123   1.836   0.666   5.629 -0.8799 -0.2773 -0.6340
  146OSM   H14S16124   1.937   0.619   5.629 -0.8784 -0.2962 -1.5552
  146OSM   H14T16125   1.857   0.773   5.648  0.9718 -0.8639  0.9824
  146OSM   C15S16126   1.758   0.646   5.501  0.8882  0.3966  0.1317
  146OSM   H15S16127   1.666   0.709   5.511 -0.7570 -1.6470 -1.2661
  146OSM   H15T16128   1.721   0.542   5.500 -0.9276  1.0115 -1.0057
  146OSM   C16S16129   1.835   0.675   5.369  0.3221  0.0078  0.2434
  146OSM   H16S16130   1.929   0.617   5.376  0.1621 -0.3726 -0.6111
  146OSM   H16T16131   1.853   0.784   5.371  0.2281  0.1233 -2.2190
  146OSM   C17S16132   1.744   0.645   5.242  0.6921 -0.3818 -0.4902
  146OSM   H17S16133   1.793   0.700   5.159 -1.7295  1.7772 -0.6041
  146OSM   H17T16134   1.650   0.701   5.259 -0.2441 -2.6139  2.3739
  146OSM   C18S16135   1.713   0.500   5.207 -0.2404  0.4145  0.4617
  146OSM   H18S16136   1.803   0.436   5.218 -0.8591 -0.8023 -1.1937
  146OSM   H18T16137   1.662   0.486   5.109 -1.7646 -1.7247  1.4817
  146OSM   H18U16138   1.641   0.462   5.283 -0.2973  1.5859  1.0206
  146OSM    C1F16139   1.458   0.726   6.397 -0.5263 -0.0000  0.5349
  146OSM     OF16140   1.537   0.817   6.401 -0.0450 -0.1842 -0.2090
  146OSM    C2F16141   1.367   0.700   6.280  0.0571 -1.3592 -0.6896
  146OSM    H2F16142   1.287   0.629   6.313 -1.5861  0.8625  0.3813
  146OSM    H2G16143   1.435   0.658   6.203  1.3880 -1.3152  0.4221
  146OSM    C3F16144   1.298   0.828   6.234  0.4373  0.4196  0.4359
  146OSM    H3F16145   1.381   0.899   6.217 -1.6228  2.4768 -1.9364
  146OSM    H3G16146   1.221   0.866   6.305 -1.2032  2.1162 -2.0886
  146OSM    C4F16147   1.222   0.802   6.104  0.0335 -0.2716  0.6046
  146OSM    H4F16148   1.139   0.729   6.116  0.7036 -1.2865 -0.6877
  146OSM    H4G16149   1.297   0.757   6.035  0.2881  0.0341  0.6784
  146OSM    C5F16150   1.175   0.929   6.028 -0.2486 -0.2456 -0.1071
  146OSM    H5F16151   1.257   1.003   6.039  0.4950 -1.1276  0.4566
  146OSM    H5G16152   1.080   0.966   6.070 -0.1525 -0.3117  0.1710
  146OSM    C6F16153   1.154   0.909   5.876 -0.1063  0.6673  0.0974
  146OSM    H6F16154   1.096   0.993   5.834 -0.4555  0.1166 -0.5556
  146OSM    H6G16155   1.114   0.806   5.858  2.4872 -0.5083  0.5293
  146OSM    C7F16156   1.289   0.905   5.797  0.0052  0.0542 -0.0048
  146OSM    H7F16157   1.351   0.821   5.834 -0.5416 -1.1747 -1.7144
  146OSM    H7G16158   1.345   1.001   5.800 -0.9912  0.6457  0.0942
  146OSM    C8F16159   1.268   0.889   5.645 -0.1894  0.0204  0.9613
  146OSM    H8F16160   1.371   0.903   5.605 -1.1466 -0.4532 -1.9553
  146OSM    H8G16161   1.206   0.973   5.608  0.0038 -0.3903 -0.3806
  146OSM    C9F16162   1.219   0.753   5.605  0.3064  0.3836  0.3488
  146OSM    H9F16163   1.147   0.725   5.684 -1.0864  1.3649 -0.5231
  146OSM   C10F16164   1.253   0.672   5.505 -0.3861 -0.0623  0.2522
  146OSM   H10F16165   1.205   0.575   5.485 -0.3978  0.3960 -2.4209
  146OSM   C11F16166   1.347   0.706   5.392  0.4659  0.0812  0.1579
  146OSM   H11F16167   1.433   0.635   5.393 -0.1683 -0.7896 -1.6766
  146OSM   H11G16168   1.401   0.803   5.397  0.8201 -0.0897 -0.2616
  146OSM   C12F16169   1.272   0.697   5.255  0.6363 -0.3247 -0.9315
  146OSM   H12F16170   1.234   0.593   5.261  0.5021 -0.1924  1.6382
  146OSM   H12G16171   1.341   0.705   5.168  0.2796 -2.4026 -1.4462
  146OSM   C13F16172   1.156   0.798   5.243 -0.0832  0.2192  0.7755
  146OSM   H13F16173   1.192   0.898   5.272 -0.0935  0.2398  0.7174
  146OSM   H13G16174   1.093   0.772   5.331  1.7118 -0.8406  1.7905
  146OSM   C14F16175   1.089   0.805   5.108 -0.0384 -0.0256  0.2771
  146OSM   H14F16176   1.034   0.901   5.103 -0.6807 -0.4299 -0.7480
  146OSM   H14G16177   1.157   0.806   5.020  0.0230 -1.2877  0.2879
  146OSM   C15F16178   0.999   0.686   5.086 -0.1107 -0.4757  0.2333
  146OSM   H15F16179   0.950   0.645   5.176 -1.2817 -0.5132 -0.4065
  146OSM   H15G16180   1.060   0.606   5.039  0.6506  0.1114  0.1824
  146OSM   C16F16181   0.889   0.714   4.992 -0.0236 -0.5360  1.5549
  146OSM   H16F16182   0.826   0.803   5.012  0.3623  0.6880 -1.9152
  146OSM   H16G16183   0.814   0.632   4.983 -2.6686  1.8583 -0.4428
  146OSM   C17F16184   0.942   0.739   4.850 -0.5399  0.1108  0.8771
  146OSM   H17F16185   1.011   0.660   4.813  0.5388  2.2412 -2.1057
  146OSM   H17G16186   1.001   0.833   4.841  0.7472 -0.7018  0.5680
  146OSM   C18F16187   0.835   0.741   4.746 -0.0325  0.1644 -0.0458
  146OSM   H18F16188   0.881   0.781   4.653  0.0973 -0.3723 -0.2135
  146OSM   H18G16189   0.749   0.804   4.776 -1.2313 -1.4055 -0.0482
  146OSM   H18H16190   0.800   0.639   4.718 -1.2471  0.0183  1.8428
  147OSM      N16191   5.403   3.293   2.090 -0.3365  0.1166 -0.3376
  147OSM    C1516192   5.504   3.302   2.200  0.6117  1.0634 -0.1603
  147OSM   H15A16193   5.461   3.309   2.299  2.1849 -0.8158  0.7292
  147OSM   H15B16194   5.551   3.398   2.185 -2.6047  2.5385 -1.9272
  147OSM   H15C16195   5.583   3.228   2.193  0.4754  0.7752  1.1152
  147OSM    C1416196   5.480   3.323   1.959 -0.1819  0.5250  0.1040
  147OSM   H14A16197   5.536   3.415   1.968  2.7412 -1.1122  0.0765
  147OSM   H14B16198   5.415   3.325   1.873  0.0209 -2.6961 -0.2474
  147OSM   H14C16199   5.545   3.240   1.936  0.5872  1.6287 -2.0344
  147OSM    C1316200   5.339   3.159   2.078  0.2037 -0.0466 -0.5772
  147OSM   H13A16201   5.279   3.139   2.165 -0.7950 -0.1365 -1.2721
  147OSM   H13B16202   5.420   3.087   2.076 -1.1794 -1.8399  1.9454
  147OSM   H13C16203   5.282   3.160   1.987 -0.1448 -1.0613 -0.3792
  147OSM    C1216204   5.296   3.406   2.114 -0.3689  0.2178 -0.0392
  147OSM   H12A16205   5.239   3.415   2.022 -2.4111 -2.6244  0.8376
  147OSM   H12B16206   5.359   3.493   2.128  2.4380 -1.8636  1.2688
  147OSM    C1116207   5.191   3.390   2.228  0.3090  0.0068  0.3500
  147OSM   H11A16208   5.132   3.483   2.237 -2.2141 -1.6041  1.8883
  147OSM   H11B16209   5.247   3.365   2.320  0.6066  0.5116  0.3041
  147OSM      P16210   4.989   3.298   2.091 -0.0823  0.0358  0.0975
  147OSM    O1316211   5.050   3.369   1.974  0.4793 -0.3043 -0.1192
  147OSM    O1416212   4.935   3.162   2.069  0.2010  0.2857 -0.3392
  147OSM    O1116213   4.875   3.392   2.152  0.1643 -0.0937  0.6990
  147OSM    O1216214   5.091   3.289   2.205 -0.6412  0.5381  0.2662
  147OSM    C1S16215   4.789   3.336   2.248  0.2382 -0.4414  0.7099
  147OSM    H1S16216   4.795   3.225   2.257 -2.2451 -0.6931  0.0203
  147OSM    H1T16217   4.683   3.350   2.217  0.3866  1.2063  0.8957
  147OSM     NF16218   4.699   3.317   2.476 -0.3232  0.6152 -0.5193
  147OSM    HNF16219   4.628   3.370   2.521 -0.8019 -1.5837  1.5128
  147OSM    C2S16220   4.799   3.390   2.394  0.1528 -0.0891  0.2834
  147OSM    H2S16221   4.904   3.372   2.424  0.6866  1.3826 -0.6024
  147OSM    C3S16222   4.787   3.551   2.396  0.1516 -0.0910 -0.0481
  147OSM    H3S16223   4.682   3.575   2.371 -0.1259 -0.0725  1.0887
  147OSM     O316224   4.870   3.619   2.309 -0.3853 -0.5926  0.4009
  147OSM    HO316225   4.894   3.549   2.247 -0.2301 -0.2951  0.1187
  147OSM    C4S16226   4.790   3.607   2.539  0.6529 -0.0479 -0.3129
  147OSM    H4S16227   4.689   3.632   2.575  1.1186  0.9090  0.3761
  147OSM    C5S16228   4.900   3.653   2.607  0.2831 -0.2224 -0.7359
  147OSM    H5S16229   4.997   3.661   2.555  0.2908 -0.6257 -0.7884
  147OSM    C6S16230   4.888   3.720   2.743  0.1350  0.0404  0.7940
  147OSM    H6S16231   4.807   3.795   2.755 -0.5615 -0.3887 -1.0440
  147OSM    H6T16232   4.982   3.773   2.772  0.3038  0.2370 -0.1063
  147OSM    C7S16233   4.845   3.624   2.859 -0.0772  0.1616 -0.1151
  147OSM    H7S16234   4.927   3.551   2.876 -0.5125 -0.4433 -0.5921
  147OSM    H7T16235   4.758   3.565   2.824 -1.1954  1.5628  0.2102
  147OSM    C8S16236   4.822   3.700   2.989  0.1065 -0.3585 -0.4498
  147OSM    H8S16237   4.760   3.792   2.976  0.1089 -0.5398 -1.9533
  147OSM    H8T16238   4.919   3.736   3.031 -0.7349  0.5555  0.7765
  147OSM    C9S16239   4.751   3.611   3.091 -0.1794 -0.2554  0.6280
  147OSM    H9S16240   4.828   3.531   3.089  0.9113  0.7665 -2.0243
  147OSM    H9T16241   4.658   3.574   3.044 -1.0073  1.7292  0.5990
  147OSM   C10S16242   4.731   3.658   3.237  0.2059  0.1594 -0.1609
  147OSM   H10S16243   4.658   3.742   3.235  0.0803  0.0736  0.4088
  147OSM   H10T16244   4.827   3.697   3.276  0.5841 -0.5207 -0.4029
  147OSM   C11S16245   4.671   3.544   3.333 -0.0817 -0.4067  0.2229
  147OSM   H11S16246   4.738   3.455   3.328  1.2619  0.6028 -0.2952
  147OSM   H11T16247   4.563   3.529   3.311  0.2539 -1.0416 -1.1078
  147OSM   C12S16248   4.686   3.581   3.485  0.6163 -0.2772 -0.5990
  147OSM   H12S16249   4.631   3.675   3.508 -1.7691 -1.7051 -0.1239
  147OSM   H12T16250   4.794   3.600   3.500  0.4722  0.2498 -0.2043
  147OSM   C13S16251   4.618   3.482   3.586  0.2194 -0.0096  0.1252
  147OSM   H13S16252   4.679   3.389   3.580  1.7051  0.9337  0.0006
  147OSM   H13T16253   4.518   3.461   3.543  0.7752 -0.5590 -0.9465
  147OSM   C14S16254   4.600   3.529   3.733  0.5469  0.1564 -0.0444
  147OSM   H14S16255   4.593   3.639   3.748  1.6329  0.0524  1.5197
  147OSM   H14T16256   4.679   3.480   3.794 -0.4839  0.7873  1.9103
  147OSM   C15S16257   4.475   3.466   3.794 -0.2518 -0.8798  0.3162
  147OSM   H15S16258   4.404   3.453   3.709  1.7336 -1.1245 -1.4109
  147OSM   H15T16259   4.434   3.548   3.857  0.6350  1.7583 -2.2482
  147OSM   C16S16260   4.506   3.329   3.864 -0.4452  0.3049  0.0899
  147OSM   H16S16261   4.579   3.336   3.948  0.7864 -3.4610 -0.4607
  147OSM   H16T16262   4.553   3.255   3.796 -0.0720 -0.6521  1.3572
  147OSM   C17S16263   4.377   3.260   3.913 -0.2086  0.8548  0.2002
  147OSM   H17S16264   4.326   3.324   3.990  1.5162  0.7497  1.4883
  147OSM   H17T16265   4.399   3.162   3.960 -3.9626 -0.5895 -0.6575
  147OSM   C18S16266   4.270   3.232   3.804 -0.4254  0.8462 -0.5737
  147OSM   H18S16267   4.180   3.192   3.854 -0.4354  2.9074  1.2086
  147OSM   H18T16268   4.307   3.160   3.728 -0.6374  0.2806 -0.1487
  147OSM   H18U16269   4.239   3.328   3.757 -2.9434  1.1659  1.5087
  147OSM    C1F16270   4.697   3.186   2.499  0.2479  0.1519 -0.7132
  147OSM     OF16271   4.794   3.112   2.482  0.0639 -0.3469  0.2332
  147OSM    C2F16272   4.576   3.140   2.571 -0.1012  0.0320  0.2059
  147OSM    H2F16273   4.525   3.077   2.495  0.7462  2.3515 -2.4352
  147OSM    H2G16274   4.509   3.222   2.604 -1.3258 -1.5749  1.9189
  147OSM    C3F16275   4.619   3.052   2.685  0.1664  0.3075  0.0084
  147OSM    H3F16276   4.681   2.971   2.642  0.5964  1.4215 -1.5732
  147OSM    H3G16277   4.522   3.020   2.727  0.3731  1.0635  1.1175
  147OSM    C4F16278   4.700   3.124   2.797  0.5088  0.0655  0.0261
  147OSM    H4F16279   4.800   3.151   2.757  1.7649 -3.1311  0.6726
  147OSM    H4G16280   4.712   3.054   2.882  0.3418 -0.6411 -0.5198
  147OSM    C5F16281   4.632   3.246   2.858  0.8630 -0.1354 -1.1312
  147OSM    H5F16282   4.620   3.316   2.773  0.3894 -0.4110 -1.2924
  147OSM    H5G16283   4.696   3.286   2.939  2.4476 -0.1593 -2.3251
  147OSM    C6F16284   4.494   3.223   2.931 -0.4602  0.3630 -0.1845
  147OSM    H6F16285   4.516   3.167   3.024  2.4555 -0.2871 -1.1645
  147OSM    H6G16286   4.427   3.168   2.861 -0.1663 -0.8511  0.4664
  147OSM    C7F16287   4.423   3.346   2.981 -0.0446 -0.7382 -0.0116
  147OSM    H7F16288   4.404   3.402   2.887 -3.7997 -0.3458  0.7943
  147OSM    H7G16289   4.499   3.395   3.045  1.4921 -0.7991 -1.7240
  147OSM    C8F16290   4.300   3.310   3.059 -0.0333 -0.4178  0.3141
  147OSM    H8F16291   4.331   3.240   3.140 -0.2783 -1.0766 -0.1435
  147OSM    H8G16292   4.240   3.258   2.981  1.0892  1.4943 -1.9232
  147OSM    C9F16293   4.228   3.432   3.115 -0.0337 -0.0225 -0.1915
  147OSM    H9F16294   4.228   3.526   3.059  2.6777  1.9285  2.7170
  147OSM   C10F16295   4.154   3.447   3.231  0.5928 -0.2741 -0.2822
  147OSM   H10F16296   4.123   3.552   3.244  1.2641  0.2175 -2.2629
  147OSM   C11F16297   4.119   3.343   3.331  0.4960 -0.6723  0.0710
  147OSM   H11F16298   4.219   3.297   3.349 -0.0774 -1.1376  2.3869
  147OSM   H11G16299   4.048   3.272   3.284 -2.0607  1.9913 -0.3701
  147OSM   C12F16300   4.047   3.413   3.446  0.1334  0.2014  0.2893
  147OSM   H12F16301   3.969   3.480   3.404  0.7306  2.1028  2.0408
  147OSM   H12G16302   4.114   3.482   3.500 -2.1990  3.0238 -0.1448
  147OSM   C13F16303   3.980   3.312   3.536 -0.4563 -0.0341  0.7493
  147OSM   H13F16304   4.054   3.231   3.555  1.1406  1.0589 -0.5076
  147OSM   H13G16305   3.898   3.257   3.487  0.9443 -0.9201 -0.6933
  147OSM   C14F16306   3.939   3.380   3.665  0.9809  0.4926 -0.3633
  147OSM   H14F16307   3.849   3.443   3.650  1.1833  1.0237  0.5486
  147OSM   H14G16308   4.026   3.446   3.687 -0.5561  2.6611 -0.4912
  147OSM   C15F16309   3.912   3.269   3.777 -0.7207  0.2420  0.2256
  147OSM   H15F16310   3.995   3.195   3.778 -1.0766 -0.1834  2.4046
  147OSM   H15G16311   3.813   3.222   3.756 -0.2098 -0.1426 -1.5419
  147OSM   C16F16312   3.925   3.329   3.915 -0.2451  0.7723  0.5524
  147OSM   H16F16313   3.835   3.394   3.928 -1.9393 -1.7037  2.1587
  147OSM   H16G16314   4.010   3.400   3.913 -1.1152  1.8424 -2.4076
  147OSM   C17F16315   3.924   3.244   4.040  0.1676  0.6914  0.3833
  147OSM   H17F16316   4.020   3.189   4.035  0.3348  1.1007 -1.6880
  147OSM   H17G16317   3.837   3.174   4.035 -0.5375  1.6116 -0.5739
  147OSM   C18F16318   3.912   3.325   4.168 -0.2206 -0.0444  0.1398
  147OSM   H18F16319   4.015   3.364   4.187 -0.7124  1.8542 -0.8104
  147OSM   H18G16320   3.875   3.271   4.257 -2.4441  0.0649 -0.6539
  147OSM   H18H16321   3.856   3.416   4.138  0.8440 -0.1811 -2.5697
  148OSM      N16322   3.863   3.624   1.921  0.5045 -0.1765  0.0347
  148OSM    C1516323   3.928   3.665   1.791 -0.2682  0.2801 -0.6259
  148OSM   H15A16324   3.902   3.769   1.774 -2.8299 -0.2575 -0.3477
  148OSM   H15B16325   3.893   3.596   1.716  0.2372 -1.1286  0.3909
  148OSM   H15C16326   4.032   3.636   1.793  0.0581  1.3159  1.8049
  148OSM    C1416327   3.712   3.634   1.889 -0.3382 -0.5025 -0.3809
  148OSM   H14A16328   3.687   3.706   1.813 -2.2366 -0.5715  0.1176
  148OSM   H14B16329   3.657   3.657   1.980  2.9660  2.1464  1.1459
  148OSM   H14C16330   3.677   3.533   1.870 -0.3684 -0.6371  0.3435
  148OSM    C1316331   3.902   3.485   1.956 -0.5460 -0.2907 -0.0398
  148OSM   H13A16332   3.854   3.449   2.046  1.4250 -0.8285  0.8337
  148OSM   H13B16333   4.008   3.481   1.971 -0.6416 -1.9436  0.4814
  148OSM   H13C16334   3.868   3.414   1.881 -1.0297  1.2770 -1.3625
  148OSM    C1216335   3.906   3.723   2.030  0.0671  0.0467  0.3984
  148OSM   H12A16336   3.890   3.824   1.994 -4.1248 -0.2859  0.7464
  148OSM   H12B16337   4.009   3.714   2.059  0.3076  0.7709 -0.2118
  148OSM    C1116338   3.811   3.719   2.157  0.2594  0.2588  0.1746
  148OSM   H11A16339   3.706   3.734   2.124  0.2015  0.0441  0.2581
  148OSM   H11B16340   3.852   3.805   2.213 -1.4137  0.3501  1.3539
  148OSM      P16341   3.712   3.527   2.304 -0.1621 -0.1324 -0.2467
  148OSM    O1316342   3.656   3.441   2.201 -0.0377 -0.2400  0.8608
  148OSM    O1416343   3.763   3.472   2.430  0.1319 -0.6587  0.1525
  148OSM    O1116344   3.616   3.643   2.334  0.9220 -0.7558 -0.2611
  148OSM    O1216345   3.836   3.602   2.238 -0.3291 -0.1458  0.1409
  148OSM    C1S16346   3.512   3.630   2.437  0.0901 -0.0793  0.5378
  148OSM    H1S16347   3.497   3.522   2.462  0.2961 -0.5746 -1.3142
  148OSM    H1T16348   3.414   3.666   2.398  0.4086  0.8079  0.5372
  148OSM     NF16349   3.429   3.659   2.666 -0.2932  0.8363 -0.4860
  148OSM    HNF16350   3.339   3.698   2.653 -1.3349 -0.3903  2.2315
  148OSM    C2S16351   3.532   3.705   2.570 -0.3779 -0.0588  0.4896
  148OSM    H2S16352   3.626   3.673   2.621  0.0426  0.3117 -0.0472
  148OSM    C3S16353   3.528   3.854   2.529 -0.0474 -0.1391  0.1476
  148OSM    H3S16354   3.423   3.872   2.497 -0.1877  0.0879  0.7263
  148OSM     O316355   3.609   3.888   2.415  0.6008 -0.4354 -0.0840
  148OSM    HO316356   3.639   3.803   2.382 -1.1536 -1.4337  0.7743
  148OSM    C4S16357   3.552   3.942   2.652 -0.1945  0.0463 -0.3834
  148OSM    H4S16358   3.618   3.894   2.725 -2.4602 -0.4784  1.4332
  148OSM    C5S16359   3.475   4.041   2.692  0.2962  0.0265  0.3308
  148OSM    H5S16360   3.373   4.038   2.651  0.2007 -1.0208  0.6289
  148OSM    C6S16361   3.507   4.113   2.823 -0.5740 -0.0818  0.4891
  148OSM    H6S16362   3.519   4.220   2.794  0.0393 -0.8601 -2.3542
  148OSM    H6T16363   3.596   4.081   2.881 -1.5987 -1.5932  1.3069
  148OSM    C7S16364   3.395   4.098   2.932 -0.6575 -0.4134  0.6184
  148OSM    H7S16365   3.302   4.147   2.895 -0.4360 -1.6892 -1.7738
  148OSM    H7T16366   3.420   4.142   3.031 -0.3726 -1.6573  1.1111
  148OSM    C8S16367   3.374   3.949   2.955  0.1510  0.0609  0.1900
  148OSM    H8S16368   3.471   3.900   2.976 -0.6141 -1.0461  1.3079
  148OSM    H8T16369   3.318   3.902   2.871 -0.3112 -0.9370  1.0242
  148OSM    C9S16370   3.287   3.913   3.080 -0.2564 -0.1258  0.5412
  148OSM    H9S16371   3.264   3.807   3.059 -0.4061 -0.2271  1.2049
  148OSM    H9T16372   3.198   3.980   3.086 -1.1023 -1.1553 -0.2600
  148OSM   C10S16373   3.359   3.912   3.211 -0.4297  0.2705 -0.2583
  148OSM   H10S16374   3.401   4.007   3.251  0.8270 -0.3579 -0.0270
  148OSM   H10T16375   3.451   3.851   3.200  0.2521  1.1161  0.5857
  148OSM   C11S16376   3.286   3.844   3.324  0.8762  0.0786  1.0268
  148OSM   H11S16377   3.253   3.740   3.303  0.1362  0.6186 -0.6758
  148OSM   H11T16378   3.197   3.906   3.348  2.1272  2.8754 -1.0470
  148OSM   C12S16379   3.366   3.828   3.452 -0.3632  0.7470  0.8028
  148OSM   H12S16380   3.402   3.929   3.484 -1.1875  1.8921 -1.6300
  148OSM   H12T16381   3.441   3.750   3.427 -0.1031  1.0744  0.5459
  148OSM   C13S16382   3.281   3.789   3.572 -0.1982  0.9957  0.1772
  148OSM   H13S16383   3.226   3.693   3.556  1.6016  0.0175 -0.4596
  148OSM   H13T16384   3.195   3.856   3.594 -3.2648 -1.7462 -2.2526
  148OSM   C14S16385   3.367   3.770   3.692 -0.5316  0.2598 -0.3947
  148OSM   H14S16386   3.422   3.862   3.723 -1.3636  0.1606  1.4851
  148OSM   H14T16387   3.455   3.707   3.667 -1.1030 -0.6720 -0.0959
  148OSM   C15S16388   3.305   3.715   3.823  0.0953 -0.6322  0.1277
  148OSM   H15S16389   3.277   3.608   3.819  1.4227 -0.9777 -0.4992
  148OSM   H15T16390   3.218   3.784   3.829  1.9076  1.8170 -0.1986
  148OSM   C16S16391   3.395   3.725   3.940 -0.8314 -1.0507 -0.3591
  148OSM   H16S16392   3.422   3.832   3.955 -0.4251 -1.0253 -1.2348
  148OSM   H16T16393   3.495   3.680   3.922  1.0269  2.1956  0.9863
  148OSM   C17S16394   3.343   3.659   4.071 -0.4655  0.7210 -0.1129
  148OSM   H17S16395   3.232   3.652   4.070 -0.3692 -1.4712 -0.0936
  148OSM   H17T16396   3.392   3.713   4.154  0.0265 -0.8044  0.6322
  148OSM   C18S16397   3.392   3.517   4.072 -0.3944  0.0414  0.2310
  148OSM   H18S16398   3.359   3.461   4.162  1.2801  0.3508  1.0864
  148OSM   H18T16399   3.503   3.515   4.076 -0.2921  0.8718 -1.4198
  148OSM   H18U16400   3.349   3.454   3.991  0.1136  1.7645 -1.4357
  148OSM    C1F16401   3.433   3.526   2.721 -0.4609 -0.6913 -0.7500
  148OSM     OF16402   3.541   3.471   2.742 -0.3156 -0.4210  0.0710
  148OSM    C2F16403   3.301   3.472   2.762  0.1708 -0.3536 -0.0643
  148OSM    H2F16404   3.287   3.379   2.703  0.2157 -0.1179 -0.4505
  148OSM    H2G16405   3.224   3.551   2.753  0.3250 -0.1375  0.4713
  148OSM    C3F16406   3.310   3.445   2.915  0.1309  0.2423 -0.4473
  148OSM    H3F16407   3.338   3.538   2.969  1.7325 -0.6956  0.3928
  148OSM    H3G16408   3.386   3.365   2.926  0.3315  0.4760 -0.1167
  148OSM    C4F16409   3.184   3.383   2.975 -0.3188  0.4305 -0.0025
  148OSM    H4F16410   3.171   3.277   2.941 -1.2974  0.5145  0.0768
  148OSM    H4G16411   3.095   3.442   2.945 -0.0720  1.0598  0.4938
  148OSM    C5F16412   3.182   3.398   3.134  0.6129  0.4324  0.5012
  148OSM    H5F16413   3.122   3.489   3.152 -1.1288 -0.6700  0.5533
  148OSM    H5G16414   3.287   3.417   3.167  0.1127  0.8986  1.8616
  148OSM    C6F16415   3.136   3.277   3.212 -0.5091 -0.4998 -0.1064
  148OSM    H6F16416   3.027   3.263   3.198 -0.5205  1.2871 -2.2897
  148OSM    H6G16417   3.158   3.306   3.317 -4.1685 -0.0280  0.6568
  148OSM    C7F16418   3.225   3.154   3.186  0.7751  0.6790  0.2331
  148OSM    H7F16419   3.327   3.192   3.205  1.0956  0.9976 -1.9280
  148OSM    H7G16420   3.214   3.138   3.077  1.5183 -1.8185  0.4774
  148OSM    C8F16421   3.192   3.024   3.266 -0.4736 -0.3477  0.5987
  148OSM    H8F16422   3.096   2.983   3.228 -0.1200 -0.1482 -0.5536
  148OSM    H8G16423   3.184   3.055   3.372  0.0499  0.3204  0.4498
  148OSM    C9F16424   3.294   2.913   3.239 -0.3401 -0.2231 -0.4115
  148OSM    H9F16425   3.363   2.910   3.153 -0.6745 -1.8385 -0.6746
  148OSM   C10F16426   3.278   2.792   3.309 -0.3120  0.2876  0.5344
  148OSM   H10F16427   3.339   2.701   3.292 -0.7831 -0.3074  1.9521
  148OSM   C11F16428   3.189   2.765   3.431 -0.2878 -0.3656  0.4540
  148OSM   H11F16429   3.131   2.670   3.424 -1.5786  0.4690 -0.4631
  148OSM   H11G16430   3.121   2.850   3.452  2.3417  1.3321  2.7046
  148OSM   C12F16431   3.284   2.760   3.552 -0.2498  0.4582 -0.2026
  148OSM   H12F16432   3.323   2.863   3.566  1.1746 -0.1400  0.4893
  148OSM   H12G16433   3.365   2.686   3.531  0.9108  1.2408  1.3017
  148OSM   C13F16434   3.205   2.720   3.679 -0.2423  0.2325  0.3825
  148OSM   H13F16435   3.140   2.632   3.666 -0.8475  0.9318 -1.6664
  148OSM   H13G16436   3.140   2.808   3.701  1.0748  0.9835  1.4400
  148OSM   C14F16437   3.300   2.716   3.800  0.7830  0.3305 -0.3200
  148OSM   H14F16438   3.363   2.808   3.810  1.0719 -0.0366  1.7265
  148OSM   H14G16439   3.374   2.637   3.776  0.8491 -0.1153  1.2350
  148OSM   C15F16440   3.230   2.692   3.938 -0.6619  0.2310 -0.3553
  148OSM   H15F16441   3.302   2.670   4.019  0.2242 -0.3893 -1.2954
  148OSM   H15G16442   3.170   2.600   3.922  0.7027 -0.7181 -0.1768
  148OSM   C16F16443   3.124   2.803   3.971  0.5708  1.0372  0.2205
  148OSM   H16F16444   3.051   2.822   3.890  0.8976  0.7147 -0.1498
  148OSM   H16G16445   3.185   2.895   3.974  0.3739  1.1723  2.9661
  148OSM   C17F16446   3.075   2.782   4.115  0.1921 -0.2374 -0.1079
  148OSM   H17F16447   3.168   2.771   4.175 -0.0170  1.4558  0.6087
  148OSM   H17G16448   3.011   2.691   4.112  1.0777 -0.8564 -0.4876
  148OSM   C18F16449   2.980   2.887   4.170  0.2096  0.4818  0.9421
  148OSM   H18F16450   2.935   2.848   4.264  1.1895 -0.6294  0.9778
  148OSM   H18G16451   2.902   2.919   4.097  1.2428  2.3228  0.5707
  148OSM   H18H16452   3.024   2.986   4.193 -1.0771  1.6802 -1.4103
  149OSM      N16453   3.789   0.112   2.130  0.1342  0.1352  0.7021
  149OSM    C1516454   3.820   0.015   2.241  0.1964  0.0891 -0.0635
  149OSM   H15A16455   3.872   0.074   2.314  2.6702 -1.5636 -0.3577
  149OSM   H15B16456   3.891  -0.057   2.203 -0.1289  0.4997 -1.5271
  149OSM   H15C16457   3.727  -0.028   2.277  0.3918  1.6321  2.5788
  149OSM    C1416458   3.920   0.181   2.095 -0.2424 -0.4337 -0.5102
  149OSM   H14A16459   3.960   0.239   2.178 -1.6607  1.0597 -0.8166
  149OSM   H14B16460   3.918   0.252   2.014 -1.4301  0.4984  0.2959
  149OSM   H14C16461   3.995   0.104   2.081 -0.2696 -0.2560 -1.7334
  149OSM    C1316462   3.738   0.052   2.003 -0.0274  0.5097 -0.1086
  149OSM   H13A16463   3.642   0.006   2.019  1.5305 -2.1448  2.8318
  149OSM   H13B16464   3.805  -0.024   1.966  0.8921  1.9223 -1.5413
  149OSM   H13C16465   3.725   0.128   1.927 -0.7803  0.4865 -0.0049
  149OSM    C1216466   3.690   0.219   2.177 -0.0036  0.3288 -0.3289
  149OSM   H12A16467   3.717   0.245   2.278 -0.0820 -0.5373 -0.0815
  149OSM   H12B16468   3.595   0.169   2.182  0.8871 -1.4322 -0.3956
  149OSM    C1116469   3.670   0.339   2.089  0.8902 -0.0132 -0.2120
  149OSM   H11A16470   3.767   0.388   2.069  0.9439  0.3500  0.9227
  149OSM   H11B16471   3.615   0.407   2.157  1.4176 -1.9463  2.2632
  149OSM      P16472   3.543   0.418   1.880 -0.1003  0.3313  0.1020
  149OSM    O1316473   3.666   0.478   1.819 -0.1170  0.0830  0.5533
  149OSM    O1416474   3.437   0.374   1.784 -0.3807 -0.4164 -0.2601
  149OSM    O1116475   3.473   0.513   1.986  0.3105 -0.2096  0.7108
  149OSM    O1216476   3.593   0.302   1.969 -0.0500  0.2218 -0.6482
  149OSM    C1S16477   3.347   0.491   2.046 -0.5819 -0.1935 -0.7631
  149OSM    H1S16478   3.343   0.387   2.085  0.9796  0.9265  2.7637
  149OSM    H1T16479   3.272   0.525   1.971  1.1180  0.5739 -2.1912
  149OSM     NF16480   3.186   0.541   2.231 -0.4541  0.1242 -0.2571
  149OSM    HNF16481   3.122   0.618   2.228 -0.1672  0.3499 -0.8462
  149OSM    C2S16482   3.325   0.567   2.182  0.2571 -0.0514  0.1793
  149OSM    H2S16483   3.403   0.525   2.249  0.6551 -0.0354 -0.2762
  149OSM    C3S16484   3.373   0.712   2.173 -0.4547 -0.1675  0.4074
  149OSM    H3S16485   3.313   0.776   2.104  1.2196  1.5011  0.4020
  149OSM     O316486   3.510   0.721   2.136  0.5110 -0.6262  0.1459
  149OSM    HO316487   3.531   0.633   2.103  1.3411 -0.8602  1.2027
  149OSM    C4S16488   3.356   0.772   2.310 -0.8386 -0.6380  0.3768
  149OSM    H4S16489   3.427   0.729   2.382 -0.2107 -0.0704  0.1023
  149OSM    C5S16490   3.296   0.892   2.332  0.1709 -0.2909  0.4389
  149OSM    H5S16491   3.255   0.948   2.247  2.1864  2.0344  0.8817
  149OSM    C6S16492   3.327   0.979   2.451  0.0989  0.4786 -0.4917
  149OSM    H6S16493   3.230   1.014   2.495 -0.6382 -0.3335 -1.4244
  149OSM    H6T16494   3.389   1.068   2.430  0.1171  0.0797 -2.2810
  149OSM    C7S16495   3.391   0.906   2.566  0.1855  0.0275 -0.1611
  149OSM    H7S16496   3.480   0.849   2.531  0.7348 -0.3334  1.7437
  149OSM    H7T16497   3.336   0.818   2.605  3.1258 -2.1118 -0.5659
  149OSM    C8S16498   3.430   0.995   2.692  0.2474 -0.2269 -0.4471
  149OSM    H8S16499   3.340   1.054   2.719  0.1023 -1.2487  1.5570
  149OSM    H8T16500   3.507   1.068   2.660 -0.6324  0.1165 -1.8547
  149OSM    C9S16501   3.482   0.911   2.815 -0.3873  0.2155 -0.1156
  149OSM    H9S16502   3.589   0.888   2.802 -0.6055 -0.2662 -1.1354
  149OSM    H9T16503   3.415   0.822   2.826 -1.9032  1.2139 -0.8435
  149OSM   C10S16504   3.471   0.993   2.947  0.0870 -0.0993  0.6493
  149OSM   H10S16505   3.365   1.022   2.963  0.0692  1.9948 -2.3513
  149OSM   H10T16506   3.520   1.092   2.945  0.3485 -0.2254 -1.0587
  149OSM   C11S16507   3.530   0.924   3.073 -1.2864  0.3117  0.4645
  149OSM   H11S16508   3.496   0.819   3.088  1.3295 -1.1424 -2.5260
  149OSM   H11T16509   3.508   0.993   3.157 -0.4682 -1.1391  1.9164
  149OSM   C12S16510   3.690   0.925   3.065  0.1001 -0.3194 -0.3588
  149OSM   H12S16511   3.723   1.031   3.063  1.9111 -0.7960  1.1099
  149OSM   H12T16512   3.722   0.879   2.969 -1.0440  3.8972 -3.0063
  149OSM   C13S16513   3.770   0.866   3.184 -0.0798  0.4039 -0.4042
  149OSM   H13S16514   3.761   0.755   3.175 -1.6065  0.5226 -0.5565
  149OSM   H13T16515   3.732   0.893   3.285  1.1688 -0.0757  0.2164
  149OSM   C14S16516   3.910   0.917   3.177  0.2081  0.1144 -0.6983
  149OSM   H14S16517   3.910   1.028   3.173 -0.8045  0.2586  1.7191
  149OSM   H14T16518   3.960   0.884   3.083  0.1817 -1.3984 -0.2092
  149OSM   C15S16519   3.986   0.865   3.297 -0.1254 -0.3393  0.0632
  149OSM   H15S16520   3.933   0.896   3.390  2.1220 -0.6704  1.5200
  149OSM   H15T16521   4.088   0.909   3.296 -1.4218  2.9416 -0.5171
  149OSM   C16S16522   3.989   0.711   3.304 -0.4141  0.0947 -0.1699
  149OSM   H16S16523   3.998   0.657   3.207  0.6598 -2.7322  1.3909
  149OSM   H16T16524   3.900   0.681   3.364 -0.8828 -1.3154 -1.5132
  149OSM   C17S16525   4.108   0.667   3.394  0.0713  0.1755 -0.5015
  149OSM   H17S16526   4.084   0.701   3.497  0.3579 -2.1421  0.3916
  149OSM   H17T16527   4.201   0.713   3.354  0.0593  0.4048 -0.2652
  149OSM   C18S16528   4.136   0.514   3.399  0.2569  0.0009 -0.1270
  149OSM   H18S16529   4.113   0.473   3.299  0.3790 -0.0184 -0.1468
  149OSM   H18T16530   4.057   0.468   3.461  0.0731 -0.5153 -0.7355
  149OSM   H18U16531   4.236   0.492   3.441  0.2074  0.7484  0.4116
  149OSM    C1F16532   3.168   0.419   2.278  0.1477 -0.0370 -0.2889
  149OSM     OF16533   3.256   0.341   2.298 -0.3117 -0.6850  0.1143
  149OSM    C2F16534   3.025   0.384   2.320  0.0868 -0.2738  1.0734
  149OSM    H2F16535   2.997   0.278   2.307 -0.7930  0.1970 -1.3039
  149OSM    H2G16536   2.951   0.441   2.260  1.4727  1.0805  0.5749
  149OSM    C3F16537   3.003   0.431   2.466  0.5778 -0.1841  0.4368
  149OSM    H3F16538   2.988   0.541   2.471 -1.6066 -0.4293  0.1301
  149OSM    H3G16539   3.094   0.419   2.529  0.3283  1.7231  1.2353
  149OSM    C4F16540   2.893   0.344   2.527  0.0169  0.2834  0.6726
  149OSM    H4F16541   2.936   0.243   2.541 -0.3155 -0.2002 -1.3894
  149OSM    H4G16542   2.809   0.352   2.455  0.5501 -0.0052  0.0013
  149OSM    C5F16543   2.828   0.381   2.660 -0.1636 -0.0059  0.4741
  149OSM    H5F16544   2.758   0.297   2.677 -1.0643  0.7456  0.5813
  149OSM    H5G16545   2.769   0.475   2.659 -1.0929 -0.5158  2.4679
  149OSM    C6F16546   2.920   0.390   2.780 -0.0218  0.5623 -0.4321
  149OSM    H6F16547   2.999   0.466   2.764  0.1308  0.8611  1.4410
  149OSM    H6G16548   2.977   0.295   2.775  0.6664  0.9731 -0.6110
  149OSM    C7F16549   2.844   0.416   2.912 -0.8001  0.6259  0.1555
  149OSM    H7F16550   2.772   0.332   2.922 -1.1098  0.6051 -1.7535
  149OSM    H7G16551   2.788   0.512   2.918 -2.0761  0.0371 -1.4033
  149OSM    C8F16552   2.937   0.412   3.033 -0.0579 -1.5137 -0.5299
  149OSM    H8F16553   3.029   0.465   2.999  0.3536 -3.0985 -2.0747
  149OSM    H8G16554   2.984   0.314   3.054  1.0757 -0.6382  1.3348
  149OSM    C9F16555   2.890   0.483   3.154  0.9307  0.1932 -0.4739
  149OSM    H9F16556   2.839   0.579   3.140  1.9810  1.5626  3.6628
  149OSM   C10F16557   2.915   0.446   3.281  0.2283 -0.7853  0.8294
  149OSM   H10F16558   2.870   0.507   3.361 -0.5676 -0.5313  0.1989
  149OSM   C11F16559   2.991   0.326   3.321  0.1765  1.1327 -0.4429
  149OSM   H11F16560   3.095   0.313   3.284  1.0000 -0.1055  2.0833
  149OSM   H11G16561   2.942   0.228   3.303  0.2279  1.0559 -0.1826
  149OSM   C12F16562   3.016   0.315   3.480 -0.0666 -0.4504 -0.3016
  149OSM   H12F16563   3.063   0.405   3.526 -2.8376  0.0112  1.9389
  149OSM   H12G16564   3.080   0.228   3.501  0.5025  0.0219 -0.0510
  149OSM   C13F16565   2.884   0.296   3.556 -0.2774 -0.2655  0.6327
  149OSM   H13F16566   2.839   0.199   3.527  1.4585 -1.2779  1.1555
  149OSM   H13G16567   2.827   0.389   3.538  0.6121  0.0874 -0.4073
  149OSM   C14F16568   2.900   0.269   3.711 -0.0081 -0.2326 -0.1251
  149OSM   H14F16569   2.947   0.358   3.758  0.7277  0.5257 -2.2153
  149OSM   H14G16570   2.954   0.176   3.740  0.0066  0.3334  1.8432
  149OSM   C15F16571   2.760   0.262   3.774 -0.4789  0.9341 -0.0582
  149OSM   H15F16572   2.696   0.177   3.741 -0.7808 -0.7014  4.1640
  149OSM   H15G16573   2.711   0.359   3.750  0.5497  1.4105 -0.2847
  149OSM   C16F16574   2.746   0.243   3.925 -0.7305 -0.8418  0.2059
  149OSM   H16F16575   2.639   0.245   3.955 -1.2653  0.5019 -1.5548
  149OSM   H16G16576   2.791   0.327   3.982  0.6622 -3.3956  3.1038
  149OSM   C17F16577   2.817   0.119   3.977  0.1302 -0.4622 -0.5126
  149OSM   H17F16578   2.927   0.119   3.961  0.7542 -2.2131  2.8597
  149OSM   H17G16579   2.775   0.037   3.916 -0.2199 -0.8362  0.2085
  149OSM   C18F16580   2.789   0.087   4.123  0.4844  0.1074 -0.5032
  149OSM   H18F16581   2.826  -0.012   4.156 -3.0029 -1.6425 -1.2505
  149OSM   H18G16582   2.679   0.079   4.142  0.2351 -1.4662 -2.3313
  149OSM   H18H16583   2.836   0.163   4.189  0.1151 -1.0898  1.1985
  150OSM      N16584   0.466   4.523   1.747 -0.1822  0.1610 -0.1233
  150OSM    C1516585   0.413   4.656   1.794  0.1307 -0.1840  0.1744
  150OSM   H15A16586   0.424   4.732   1.718  4.1673 -2.6677 -2.0889
  150OSM   H15B16587   0.463   4.690   1.884 -0.2701 -2.0251  1.1378
  150OSM   H15C16588   0.308   4.665   1.821 -0.3393  1.4527 -1.8647
  150OSM    C1416589   0.430   4.499   1.605  0.0761  0.2450 -0.2406
  150OSM   H14A16590   0.487   4.419   1.560  0.8755  1.4585 -1.4314
  150OSM   H14B16591   0.471   4.579   1.546 -0.7422 -1.1294 -2.7916
  150OSM   H14C16592   0.326   4.486   1.580  0.1208 -2.5537  0.6473
  150OSM    C1316593   0.616   4.531   1.756 -0.3178 -0.7955 -1.0480
  150OSM   H13A16594   0.663   4.439   1.726  2.1842  0.4422 -1.1988
  150OSM   H13B16595   0.655   4.546   1.856  1.5069 -1.5933 -1.6034
  150OSM   H13C16596   0.655   4.609   1.692 -1.8519  0.5010 -0.4704
  150OSM    C1216597   0.402   4.412   1.823 -0.0615  0.1524  0.4067
  150OSM   H12A16598   0.459   4.322   1.804 -0.1778 -0.0318  0.9218
  150OSM   H12B16599   0.305   4.392   1.778  0.1568 -0.4784  0.2066
  150OSM    C1116600   0.401   4.419   1.978  0.2675 -0.1447  0.2291
  150OSM   H11A16601   0.350   4.511   2.016 -0.3365  0.0994 -1.1249
  150OSM   H11B16602   0.508   4.421   2.005  1.7125 -2.5446 -4.3713
  150OSM      P16603   0.188   4.303   2.065  0.5377  0.1497 -0.2856
  150OSM    O1316604   0.103   4.350   1.952 -0.3579 -0.1130  0.6655
  150OSM    O1416605   0.153   4.175   2.129  0.1027  0.1837  0.2219
  150OSM    O1116606   0.165   4.415   2.176 -0.7675  0.6081  0.1691
  150OSM    O1216607   0.340   4.305   2.044 -0.2662 -0.6445 -0.4944
  150OSM    C1S16608   0.192   4.373   2.314 -0.6367 -0.1784  0.3616
  150OSM    H1S16609   0.296   4.334   2.311 -0.4661  0.2455  0.5921
  150OSM    H1T16610   0.128   4.290   2.351  0.4366 -1.3422 -0.3397
  150OSM     NF16611   0.194   4.471   2.543 -0.3776  0.2077 -0.2568
  150OSM    HNF16612   0.121   4.430   2.597  3.5950 -3.8288  2.7152
  150OSM    C2S16613   0.169   4.499   2.402 -0.1443 -0.0440  0.3537
  150OSM    H2S16614   0.235   4.577   2.360 -3.2393  1.7343 -1.6004
  150OSM    C3S16615   0.027   4.534   2.372 -0.2672 -0.3706 -0.5132
  150OSM    H3S16616  -0.037   4.444   2.379  1.1622 -1.2836  1.6719
  150OSM     O316617   0.000   4.592   2.250  0.3633  0.1819  0.6548
  150OSM    HO316618   0.076   4.557   2.202  0.0022  1.9116 -1.3069
  150OSM    C4S16619  -0.031   4.631   2.477 -0.2429 -0.0527 -0.3690
  150OSM    H4S16620   0.017   4.728   2.493 -0.9758 -0.0059  1.7511
  150OSM    C5S16621  -0.123   4.595   2.565 -0.5372  0.6805  0.1726
  150OSM    H5S16622  -0.179   4.501   2.552 -2.3134  1.8138 -0.8311
  150OSM    C6S16623  -0.189   4.684   2.669  0.1411  0.0481  0.7496
  150OSM    H6S16624  -0.295   4.705   2.645  0.8043  0.4885 -2.2584
  150OSM    H6T16625  -0.135   4.781   2.670 -0.3906  0.3464  2.3677
  150OSM    C7S16626  -0.179   4.636   2.819  0.1247 -0.5180 -0.8525
  150OSM    H7S16627  -0.080   4.589   2.836  0.3056  0.4430  0.9209
  150OSM    H7T16628  -0.247   4.549   2.836 -0.6950  0.3429  0.4263
  150OSM    C8S16629  -0.215   4.752   2.918 -0.2731 -0.5074  0.7031
  150OSM    H8S16630  -0.300   4.810   2.878  0.6031 -0.6825 -1.5940
  150OSM    H8T16631  -0.120   4.810   2.925 -0.9007  0.7845 -0.8944
  150OSM    C9S16632  -0.267   4.709   3.055 -0.2599 -0.1976 -0.3668
  150OSM    H9S16633  -0.367   4.659   3.049 -2.3098  3.3419  1.0052
  150OSM    H9T16634  -0.288   4.806   3.105  0.1599  0.0411 -0.6541
  150OSM   C10S16635  -0.174   4.620   3.136  1.0957  0.4860  1.0181
  150OSM   H10S16636  -0.084   4.684   3.150  2.2771 -0.2664 -2.2009
  150OSM   H10T16637  -0.153   4.532   3.071  0.8315 -1.3068  3.2298
  150OSM   C11S16638  -0.243   4.570   3.266 -0.9898 -0.1925  0.1773
  150OSM   H11S16639  -0.321   4.493   3.250  0.6804 -2.1943  1.1551
  150OSM   H11T16640  -0.293   4.649   3.325 -1.3352 -0.3283  0.0699
  150OSM   C12S16641  -0.147   4.491   3.356  0.1396  0.3336  0.2542
  150OSM   H12S16642  -0.058   4.550   3.385  0.2039  1.2370 -1.6480
  150OSM   H12T16643  -0.118   4.392   3.316  0.7115  0.1137  1.1887
  150OSM   C13S16644  -0.210   4.461   3.493 -0.1138  0.3106 -0.4927
  150OSM   H13S16645  -0.297   4.394   3.477 -1.4960  2.2468 -1.6170
  150OSM   H13T16646  -0.249   4.551   3.544  0.8476 -0.4653  1.7219
  150OSM   C14S16647  -0.111   4.388   3.590  0.1714 -0.2120  0.7229
  150OSM   H14S16648  -0.029   4.454   3.626 -2.6048  2.0920  3.4348
  150OSM   H14T16649  -0.084   4.289   3.547  0.3806 -0.0961  0.5844
  150OSM   C15S16650  -0.185   4.373   3.724  0.1775 -0.5771  0.3910
  150OSM   H15S16651  -0.261   4.293   3.709 -1.6705  1.2567 -0.3698
  150OSM   H15T16652  -0.243   4.466   3.739 -1.0625 -1.0262 -1.3146
  150OSM   C16S16653  -0.096   4.342   3.844 -0.2640 -0.4845 -0.0273
  150OSM   H16S16654  -0.052   4.434   3.890 -1.9073 -0.0487  0.7244
  150OSM   H16T16655  -0.009   4.283   3.808 -0.1406 -0.7340  0.6579
  150OSM   C17S16656  -0.161   4.270   3.961 -0.7832  0.8139  0.8987
  150OSM   H17S16657  -0.163   4.162   3.935 -1.7035  1.2800 -1.1682
  150OSM   H17T16658  -0.262   4.315   3.972 -0.9305  0.8438 -0.3376
  150OSM   C18S16659  -0.067   4.303   4.084  0.3597 -0.6678  1.0554
  150OSM   H18S16660  -0.078   4.413   4.100 -2.0796 -0.8530  1.1161
  150OSM   H18T16661   0.040   4.282   4.062 -0.2528 -0.7163 -2.5057
  150OSM   H18U16662  -0.110   4.241   4.166  0.1030 -0.9040  0.7473
  150OSM    C1F16663   0.314   4.438   2.590  0.6256 -0.2170  0.4710
  150OSM     OF16664   0.416   4.456   2.530  0.5816 -0.9299  0.4607
  150OSM    C2F16665   0.324   4.364   2.721 -0.3419 -0.2839 -0.4275
  150OSM    H2F16666   0.241   4.291   2.715  0.5988 -1.2981 -1.6877
  150OSM    H2G16667   0.317   4.438   2.804 -1.9242 -0.9115  0.0367
  150OSM    C3F16668   0.460   4.297   2.738 -0.3719  0.6162 -0.0010
  150OSM    H3F16669   0.551   4.360   2.740  0.2329 -0.1895  3.5769
  150OSM    H3G16670   0.481   4.220   2.661  0.3388 -0.1766  0.9648
  150OSM    C4F16671   0.468   4.216   2.863  0.2187 -0.0261 -0.7548
  150OSM    H4F16672   0.376   4.154   2.862 -1.1196  1.5986  2.9767
  150OSM    H4G16673   0.453   4.289   2.946 -1.2023  1.9611 -2.6260
  150OSM    C5F16674   0.596   4.120   2.880  0.4139 -0.3377  0.8557
  150OSM    H5F16675   0.687   4.182   2.893 -0.3187  1.5088 -1.8048
  150OSM    H5G16676   0.613   4.075   2.780  1.6262  2.0490 -0.0931
  150OSM    C6F16677   0.584   4.030   3.001  0.0735  0.0062 -0.3015
  150OSM    H6F16678   0.671   3.961   2.991 -0.3891 -0.6989  0.4392
  150OSM    H6G16679   0.482   3.986   3.004 -0.4145  1.1077 -0.1172
  150OSM    C7F16680   0.617   4.104   3.138 -0.2840 -0.2524 -0.2744
  150OSM    H7F16681   0.548   4.191   3.149  0.1864  0.1365 -0.3876
  150OSM    H7G16682   0.721   4.141   3.136 -0.4033  0.2963  1.6327
  150OSM    C8F16683   0.604   4.020   3.274  0.1927  0.2075  0.1040
  150OSM    H8F16684   0.684   3.944   3.267 -0.3624 -0.2984 -0.9885
  150OSM    H8G16685   0.508   3.965   3.284  0.8612 -0.6796  2.0590
  150OSM    C9F16686   0.631   4.120   3.389  0.9784  0.3553 -0.1977
  150OSM    H9F16687   0.737   4.144   3.408  1.0642 -1.3304  1.9684
  150OSM   C10F16688   0.538   4.162   3.471 -0.1002 -0.4416  0.7084
  150OSM   H10F16689   0.561   4.236   3.549 -1.4189  1.4273 -0.5623
  150OSM   C11F16690   0.394   4.115   3.469 -0.3966 -0.4496  0.5577
  150OSM   H11F16691   0.396   4.005   3.450  2.6335 -0.4052  0.0690
  150OSM   H11G16692   0.327   4.173   3.401  0.4650 -0.0134  0.0658
  150OSM   C12F16693   0.304   4.131   3.601  0.5592  0.4443 -0.4385
  150OSM   H12F16694   0.199   4.104   3.577  0.9054 -0.9185 -0.4764
  150OSM   H12G16695   0.323   4.236   3.631 -0.0024 -0.0221  1.6735
  150OSM   C13F16696   0.349   4.038   3.705 -0.4685  0.5045  0.2818
  150OSM   H13F16697   0.450   4.065   3.743 -0.2523  1.0888 -0.6953
  150OSM   H13G16698   0.351   3.940   3.653 -1.0138  1.0122 -0.7030
  150OSM   C14F16699   0.258   4.010   3.824 -0.2810 -0.4671  0.3089
  150OSM   H14F16700   0.152   4.018   3.794 -0.0915  1.2216  0.0081
  150OSM   H14G16701   0.282   4.094   3.893 -0.5486 -1.3332  1.4812
  150OSM   C15F16702   0.274   3.876   3.887 -0.7594  0.0848  0.6811
  150OSM   H15F16703   0.377   3.835   3.881 -1.7938 -2.5151 -1.9031
  150OSM   H15G16704   0.220   3.800   3.826 -1.3487  0.5198  0.6480
  150OSM   C16F16705   0.231   3.884   4.037 -0.7827  0.4318 -0.5430
  150OSM   H16F16706   0.130   3.919   4.066 -0.6663  0.8584 -0.6484
  150OSM   H16G16707   0.287   3.966   4.088 -0.2640 -0.0916 -0.2628
  150OSM   C17F16708   0.253   3.759   4.122  0.3183 -0.2956 -0.2277
  150OSM   H17F16709   0.352   3.710   4.111  0.3377 -0.3663  0.2665
  150OSM   H17G16710   0.183   3.676   4.096  0.7334 -1.3948  1.9275
  150OSM   C18F16711   0.243   3.773   4.272 -0.0009  0.4502 -0.6178
  150OSM   H18F16712   0.301   3.852   4.325  0.2952  1.2106 -2.0238
  150OSM   H18G16713   0.272   3.680   4.324 -1.3363 -0.2188 -1.0179
  150OSM   H18H16714   0.138   3.797   4.299  0.4795  0.2476  1.6386
  151OSM      N16715   0.675   3.708   2.268 -0.0929 -0.6056 -0.0668
  151OSM    C1516716   0.610   3.840   2.238  0.6177  0.1915  0.0782
  151OSM   H15A16717   0.519   3.819   2.185 -0.1324  0.1448  1.3573
  151OSM   H15B16718   0.669   3.918   2.192 -1.2961  0.9543 -1.2083
  151OSM   H15C16719   0.555   3.883   2.321 -0.4342  0.2320 -0.6254
  151OSM    C1416720   0.586   3.616   2.336 -0.0586  1.2241  0.8056
  151OSM   H14A16721   0.545   3.652   2.429  2.8189  1.8383  1.9383
  151OSM   H14B16722   0.635   3.520   2.338 -0.1028  1.1116 -1.3440
  151OSM   H14C16723   0.503   3.588   2.273  1.7718  0.9241 -1.6038
  151OSM    C1316724   0.729   3.642   2.143 -0.0432 -0.0372  0.6099
  151OSM   H13A16725   0.808   3.699   2.096  2.8471 -3.1483  1.2803
  151OSM   H13B16726   0.643   3.621   2.081 -0.7205  0.2722  1.4257
  151OSM   H13C16727   0.767   3.543   2.160 -0.4490 -0.6711 -1.8265
  151OSM    C1216728   0.792   3.732   2.372  0.5522 -0.7656  0.4826
  151OSM   H12A16729   0.752   3.801   2.445  1.2283 -1.1821  1.2625
  151OSM   H12B16730   0.868   3.784   2.315 -0.0039 -1.9748 -1.4673
  151OSM    C1116731   0.848   3.598   2.434 -0.2401 -0.5149  0.9190
  151OSM   H11A16732   0.770   3.548   2.497  0.9094 -1.1577  1.8790
  151OSM   H11B16733   0.933   3.634   2.496 -0.9876  1.3372  0.9099
  151OSM      P16734   0.893   3.351   2.342  0.1547 -0.0072  0.2681
  151OSM    O1316735   0.752   3.306   2.307  0.4135 -0.3800  0.0037
  151OSM    O1416736   0.997   3.289   2.258  0.0474  0.6122  0.0786
  151OSM    O1116737   0.925   3.304   2.488  0.4598  0.2392  0.1125
  151OSM    O1216738   0.907   3.503   2.338 -0.3718 -0.8360  0.8716
  151OSM    C1S16739   1.005   3.184   2.510  0.3797  0.1436  0.2755
  151OSM    H1S16740   1.110   3.214   2.493  0.6422 -1.9217 -2.4343
  151OSM    H1T16741   0.996   3.106   2.431  2.8692 -0.8001  0.8285
  151OSM     NF16742   1.095   3.010   2.666  0.1321 -0.0928 -0.0655
  151OSM    HNF16743   1.064   2.915   2.674 -0.5448  0.0571 -0.7795
  151OSM    C2S16744   0.999   3.117   2.652 -0.1568 -0.9128  0.2998
  151OSM    H2S16745   1.030   3.199   2.721 -0.4249  0.5805 -1.2848
  151OSM    C3S16746   0.854   3.093   2.701  0.2372 -0.0178  0.1548
  151OSM    H3S16747   0.828   3.002   2.642 -0.5480  1.2718 -1.5544
  151OSM     O316748   0.757   3.192   2.665 -0.3386 -0.3820 -0.1150
  151OSM    HO316749   0.807   3.253   2.610 -0.2436  1.8334  2.2501
  151OSM    C4S16750   0.850   3.068   2.848 -0.1282  0.2920  0.4229
  151OSM    H4S16751   0.850   3.153   2.919  0.5643  0.5999  0.0580
  151OSM    C5S16752   0.833   2.941   2.905  0.0587  0.1279  0.2101
  151OSM    H5S16753   0.824   2.850   2.844  0.1847 -0.5579  1.1861
  151OSM    C6S16754   0.813   2.912   3.051  0.1585 -0.3613  0.0122
  151OSM    H6S16755   0.892   2.844   3.089  0.3300 -1.3598 -2.0187
  151OSM    H6T16756   0.715   2.861   3.061 -0.1472  0.2891  0.4623
  151OSM    C7S16757   0.812   3.038   3.139  0.0359 -0.1604 -0.5475
  151OSM    H7S16758   0.728   3.102   3.105 -0.8589  0.4239  2.5184
  151OSM    H7T16759   0.908   3.095   3.133  0.3719 -0.5760  0.6490
  151OSM    C8S16760   0.773   3.008   3.287 -0.1061  0.1192 -0.2846
  151OSM    H8S16761   0.848   2.933   3.322  0.5111  1.9172  2.5987
  151OSM    H8T16762   0.668   2.972   3.294 -1.8774  4.7037  0.7308
  151OSM    C9S16763   0.782   3.134   3.374  0.0824  0.0321 -0.0013
  151OSM    H9S16764   0.704   3.209   3.352  0.4716  0.5526  0.3732
  151OSM    H9T16765   0.875   3.194   3.363 -0.3133  0.6898  0.2562
  151OSM   C10S16766   0.781   3.097   3.521  0.3073 -0.4629 -0.2488
  151OSM   H10S16767   0.884   3.061   3.542  1.0615  2.2601  1.1097
  151OSM   H10T16768   0.697   3.026   3.537 -1.1179  1.4279  1.0988
  151OSM   C11S16769   0.752   3.217   3.611  0.4916 -0.1362 -0.8502
  151OSM   H11S16770   0.646   3.247   3.596 -0.1396 -2.0569 -0.5035
  151OSM   H11T16771   0.818   3.304   3.590 -0.9625  1.5160  0.9715
  151OSM   C12S16772   0.777   3.184   3.762  0.2862 -0.1101  0.0411
  151OSM   H12S16773   0.722   3.263   3.818  3.0296  2.0143 -0.0449
  151OSM   H12T16774   0.885   3.179   3.787  0.0218 -1.5320  1.0283
  151OSM   C13S16775   0.715   3.051   3.802 -0.3146 -0.4367 -0.8528
  151OSM   H13S16776   0.790   2.975   3.769  1.2159  0.6068  0.1074
  151OSM   H13T16777   0.611   3.042   3.764 -1.4046 -2.9727  2.2540
  151OSM   C14S16778   0.696   3.035   3.958  0.7895  0.2512 -0.5251
  151OSM   H14S16779   0.619   3.106   3.994  2.5370  1.1360  1.7221
  151OSM   H14T16780   0.791   3.069   4.005  1.3718 -1.9329 -0.0118
  151OSM   C15S16781   0.677   2.900   4.016 -0.2343  0.2537 -0.1761
  151OSM   H15S16782   0.759   2.833   3.982  1.2755  1.1863  1.4330
  151OSM   H15T16783   0.577   2.862   3.988 -0.5197  0.3812  0.6369
  151OSM   C16S16784   0.683   2.902   4.172  0.3757 -0.2176  0.1557
  151OSM   H16S16785   0.762   2.968   4.214 -1.3014  0.2944  2.8022
  151OSM   H16T16786   0.703   2.799   4.207 -1.4635 -0.7106 -0.1434
  151OSM   C17S16787   0.544   2.926   4.225 -0.1082 -0.6233  0.1819
  151OSM   H17S16788   0.482   2.839   4.197 -0.1411  0.1098 -2.1747
  151OSM   H17T16789   0.500   3.004   4.159 -1.4179 -1.2162  0.3238
  151OSM   C18S16790   0.540   2.965   4.372  0.1037 -0.6302  0.4049
  151OSM   H18S16791   0.591   2.884   4.429 -1.9591 -1.8455  0.6433
  151OSM   H18T16792   0.434   2.968   4.405  0.1147 -0.9874  0.4721
  151OSM   H18U16793   0.586   3.063   4.399  0.2807 -0.7275  0.4577
  151OSM    C1F16794   1.228   3.038   2.680  0.9348  0.2263  0.8257
  151OSM     OF16795   1.272   3.150   2.662  0.1681 -0.1414 -0.2369
  151OSM    C2F16796   1.326   2.926   2.702  0.4792  0.3056  0.6372
  151OSM    H2F16797   1.415   2.946   2.639  0.2953  1.1585  0.6376
  151OSM    H2G16798   1.267   2.837   2.671 -0.4043  1.5497 -1.4865
  151OSM    C3F16799   1.371   2.917   2.849 -0.4821  0.4650 -0.2744
  151OSM    H3F16800   1.433   3.006   2.875 -3.3155  2.0337  1.6977
  151OSM    H3G16801   1.443   2.834   2.838 -0.2473  0.2508  2.3124
  151OSM    C4F16802   1.262   2.910   2.956 -0.7827 -0.0815 -0.3763
  151OSM    H4F16803   1.209   2.812   2.950  0.9472 -1.0818 -0.0056
  151OSM    H4G16804   1.192   2.993   2.934 -3.0191 -1.4415  1.1882
  151OSM    C5F16805   1.321   2.942   3.098 -0.0728 -0.7481 -0.1199
  151OSM    H5F16806   1.367   3.042   3.087 -1.3938 -0.1098 -0.1420
  151OSM    H5G16807   1.399   2.869   3.128 -0.6188 -0.7099  1.5142
  151OSM    C6F16808   1.225   2.949   3.215 -0.3136  0.1440 -0.1556
  151OSM    H6F16809   1.173   2.851   3.218  0.2691 -0.1409  1.3944
  151OSM    H6G16810   1.143   3.022   3.197  0.6293  1.6987  1.5787
  151OSM    C7F16811   1.295   2.967   3.357 -0.3682  0.1449  0.0381
  151OSM    H7F16812   1.347   3.064   3.349 -1.7339  0.8325 -0.9635
  151OSM    H7G16813   1.371   2.887   3.371  0.3906  0.6078 -1.2392
  151OSM    C8F16814   1.189   2.980   3.472 -0.0190  0.0903  0.1448
  151OSM    H8F16815   1.133   2.884   3.472 -0.2011  0.1906  0.8210
  151OSM    H8G16816   1.115   3.058   3.445 -1.2583 -0.4458  1.8629
  151OSM    C9F16817   1.253   3.027   3.602 -0.4289 -0.4455 -0.1526
  151OSM    H9F16818   1.346   3.085   3.586 -0.1104 -0.8949  0.0512
  151OSM   C10F16819   1.210   3.003   3.729 -0.3120  0.1509  0.3999
  151OSM   H10F16820   1.275   3.033   3.813 -0.2952 -0.8616  0.7653
  151OSM   C11F16821   1.086   2.923   3.766 -0.1032 -0.4167 -0.6280
  151OSM   H11F16822   1.055   2.846   3.693  0.3798 -0.6776 -0.5598
  151OSM   H11G16823   1.002   2.995   3.778 -0.5922 -0.5714 -2.8105
  151OSM   C12F16824   1.099   2.854   3.903  0.0507  0.6242  0.2648
  151OSM   H12F16825   1.197   2.802   3.909  0.0417  0.7607  2.3753
  151OSM   H12G16826   1.022   2.773   3.904  0.7820 -0.0768  0.4515
  151OSM   C13F16827   1.070   2.945   4.023  0.4092  0.6138 -0.3515
  151OSM   H13F16828   0.960   2.962   4.026  0.3597  0.2031  0.5873
  151OSM   H13G16829   1.124   3.041   4.012 -2.0891  2.0811 -0.6587
  151OSM   C14F16830   1.087   2.877   4.158  0.5572 -0.0695 -0.2122
  151OSM   H14F16831   1.038   2.777   4.158 -0.8119  0.4156  3.7595
  151OSM   H14G16832   1.037   2.939   4.235  1.4603 -0.6354  0.8528
  151OSM   C15F16833   1.232   2.845   4.202  0.2564  0.0678  0.1316
  151OSM   H15F16834   1.296   2.935   4.206  1.0824 -0.4527 -0.8431
  151OSM   H15G16835   1.274   2.770   4.132 -0.7120 -2.0486  1.6750
  151OSM   C16F16836   1.251   2.777   4.344  1.0060  0.4628  0.6657
  151OSM   H16F16837   1.223   2.843   4.429 -0.6403 -1.7980  2.0017
  151OSM   H16G16838   1.361   2.768   4.353  1.3713  3.2799 -0.0364
  151OSM   C17F16839   1.195   2.635   4.363  0.1938  0.0329 -0.3018
  151OSM   H17F16840   1.086   2.658   4.373  0.5725  1.7220  0.2200
  151OSM   H17G16841   1.230   2.592   4.459  0.1394 -0.0477 -0.3183
  151OSM   C18F16842   1.216   2.523   4.256 -0.7310  0.6299 -0.0592
  151OSM   H18F16843   1.168   2.427   4.286  1.5974 -1.6211 -2.8978
  151OSM   H18G16844   1.326   2.507   4.254 -0.2017  3.3635  1.6425
  151OSM   H18H16845   1.169   2.555   4.160 -1.1224 -0.1470 -0.1329
  152OSM      N16846   1.609   6.171   2.022  0.7316  0.0542 -0.1464
  152OSM    C1516847   1.732   6.223   1.954 -0.0408  0.1668  0.5897
  152OSM   H15A16848   1.743   6.183   1.855 -3.6820  0.9263 -0.2741
  152OSM   H15B16849   1.818   6.195   2.013  1.4869 -0.2495 -1.7138
  152OSM   H15C16850   1.741   6.330   1.945  0.1780  0.2626  1.7521
  152OSM    C1416851   1.598   6.229   2.157 -0.1269 -0.4124 -0.3502
  152OSM   H14A16852   1.686   6.204   2.215  1.5111  2.4310 -1.4053
  152OSM   H14B16853   1.506   6.191   2.199 -1.0326 -1.1895 -2.8467
  152OSM   H14C16854   1.591   6.336   2.145 -1.5620 -0.6614 -2.2574
  152OSM    C1316855   1.491   6.206   1.938  0.2068  0.6545  0.2160
  152OSM   H13A16856   1.403   6.159   1.979 -0.2537  1.7557  0.5345
  152OSM   H13B16857   1.506   6.177   1.835  0.7034  0.2358  0.4004
  152OSM   H13C16858   1.468   6.312   1.940 -1.8757  0.2363  1.3933
  152OSM    C1216859   1.613   6.018   2.046  0.2232  0.0295  0.4180
  152OSM   H12A16860   1.607   5.968   1.950  0.9893 -2.5039  1.6102
  152OSM   H12B16861   1.518   5.994   2.092 -0.2495 -0.3178 -0.6926
  152OSM    C1116862   1.731   5.948   2.120 -0.6071  0.3570 -0.4238
  152OSM   H11A16863   1.723   5.838   2.113 -0.7504  0.3462 -0.0724
  152OSM   H11B16864   1.727   5.978   2.227 -1.4661 -0.0349 -0.3417
  152OSM      P16865   1.990   5.960   2.153  0.0824  0.5545 -0.1601
  152OSM    O1316866   2.081   5.892   2.058  0.7088 -0.9331  0.4317
  152OSM    O1416867   2.034   6.078   2.228 -0.5885  0.1906  0.2780
  152OSM    O1116868   1.950   5.851   2.258 -0.6757  0.8355  0.3765
  152OSM    O1216869   1.859   5.997   2.074 -0.3620  0.0535 -0.1989
  152OSM    C1S16870   2.050   5.818   2.354 -0.2788  0.0533 -0.0081
  152OSM    H1S16871   2.065   5.910   2.413 -2.7644  0.5882 -0.1187
  152OSM    H1T16872   2.141   5.776   2.306 -0.0349  1.3920 -0.7510
  152OSM     NF16873   2.129   5.687   2.550  0.6555 -0.1761 -0.4302
  152OSM    HNF16874   2.178   5.601   2.542  1.2926  0.0211  1.0044
  152OSM    C2S16875   2.019   5.698   2.456 -0.0065 -0.3548  0.0289
  152OSM    H2S16876   1.929   5.733   2.509  0.8942  1.3234  0.5304
  152OSM    C3S16877   1.979   5.571   2.376 -0.3203 -0.5382  0.1978
  152OSM    H3S16878   2.068   5.559   2.309  0.2211 -2.0951  1.1496
  152OSM     O316879   1.863   5.601   2.289  0.2509  0.1214  0.3056
  152OSM    HO316880   1.871   5.695   2.273 -0.2394  0.4153  1.6612
  152OSM    C4S16881   1.958   5.444   2.452 -0.0872 -0.2435  0.2116
  152OSM    H4S16882   2.028   5.360   2.459  0.0928 -0.0032  1.9759
  152OSM    C5S16883   1.858   5.435   2.548  0.1422  0.1147 -0.1608
  152OSM    H5S16884   1.789   5.517   2.574  0.5097  0.0391  1.1309
  152OSM    C6S16885   1.830   5.313   2.634 -0.4781 -0.7966  0.5644
  152OSM    H6S16886   1.908   5.234   2.638  1.1086  0.7055  0.6546
  152OSM    H6T16887   1.739   5.268   2.589 -1.2212  2.3862 -1.4286
  152OSM    C7S16888   1.822   5.364   2.783 -0.6780  0.4408 -0.1511
  152OSM    H7S16889   1.804   5.280   2.853  0.3937  1.0533  0.8923
  152OSM    H7T16890   1.736   5.433   2.795 -1.1854 -0.2946  0.4876
  152OSM    C8S16891   1.955   5.425   2.833 -0.8676 -0.2188 -0.1156
  152OSM    H8S16892   1.965   5.527   2.789  2.4398 -1.3148 -2.2156
  152OSM    H8T16893   2.032   5.362   2.785 -1.7675  0.1296 -2.1428
  152OSM    C9S16894   1.978   5.413   2.985  0.1240  0.5505 -0.1690
  152OSM    H9S16895   1.982   5.306   3.014 -0.6264  0.8079  0.9284
  152OSM    H9T16896   1.883   5.448   3.030 -0.4684 -0.9034 -0.2433
  152OSM   C10S16897   2.105   5.490   3.028  0.2383 -0.2057  0.2638
  152OSM   H10S16898   2.110   5.579   2.962 -1.1220 -1.7445 -2.0555
  152OSM   H10T16899   2.196   5.428   3.012  0.3754 -0.1994  0.9724
  152OSM   C11S16900   2.123   5.519   3.179  0.6395  0.2556  0.0083
  152OSM   H11S16901   2.072   5.443   3.243 -1.9220  1.2555 -0.7163
  152OSM   H11T16902   2.062   5.609   3.203  0.5564  1.2885 -3.5026
  152OSM   C12S16903   2.274   5.542   3.232  0.3564  0.0754 -0.5803
  152OSM   H12S16904   2.308   5.640   3.191  0.3088 -0.4204 -1.8748
  152OSM   H12T16905   2.332   5.453   3.201  1.1630  0.5145 -0.3583
  152OSM   C13S16906   2.273   5.554   3.387 -0.1049  0.0254  0.1117
  152OSM   H13S16907   2.179   5.600   3.425 -1.6306 -3.7259  1.3757
  152OSM   H13T16908   2.352   5.615   3.436 -2.2779  2.3359  0.9773
  152OSM   C14S16909   2.273   5.414   3.460 -0.0216  0.1882 -0.1136
  152OSM   H14S16910   2.359   5.359   3.416  2.1338  1.1194  2.6033
  152OSM   H14T16911   2.172   5.372   3.448 -0.9119  1.7071  1.5715
  152OSM   C15S16912   2.304   5.410   3.607  0.2925  0.1703  0.2849
  152OSM   H15S16913   2.237   5.484   3.655  0.9486  1.3960 -0.6423
  152OSM   H15T16914   2.404   5.457   3.620  0.9306 -1.6515  2.8736
  152OSM   C16S16915   2.312   5.267   3.663 -0.4797 -1.1194 -0.0067
  152OSM   H16S16916   2.398   5.223   3.608  0.6987  0.4202  0.5193
  152OSM   H16T16917   2.216   5.215   3.640 -0.6509 -0.5909 -0.5202
  152OSM   C17S16918   2.342   5.277   3.814 -0.1988 -0.1557 -0.5813
  152OSM   H17S16919   2.266   5.330   3.875  0.1503  0.3769 -0.6077
  152OSM   H17T16920   2.443   5.324   3.821  0.2002 -1.0338 -0.2842
  152OSM   C18S16921   2.364   5.139   3.873 -0.4955  1.3360 -0.4653
  152OSM   H18S16922   2.266   5.086   3.875 -0.6759  1.5796 -1.6878
  152OSM   H18T16923   2.413   5.141   3.972  0.4166 -1.2976 -0.7711
  152OSM   H18U16924   2.439   5.081   3.815  4.9051  2.8073  4.1459
  152OSM    C1F16925   2.163   5.780   2.644  0.2178  0.3881 -0.1542
  152OSM     OF16926   2.094   5.874   2.669  0.4321 -0.0912 -0.1679
  152OSM    C2F16927   2.298   5.765   2.723  0.8328  0.1093  0.0842
  152OSM    H2F16928   2.388   5.748   2.660 -0.1219 -0.8745 -1.0803
  152OSM    H2G16929   2.284   5.675   2.786  0.6365  0.6487  0.8129
  152OSM    C3F16930   2.323   5.887   2.822 -0.9520 -0.3024 -0.7881
  152OSM    H3F16931   2.226   5.913   2.869 -0.7324 -1.4265  0.3264
  152OSM    H3G16932   2.364   5.974   2.766 -0.1931  1.9044  2.9110
  152OSM    C4F16933   2.419   5.844   2.935 -0.1280  0.1230  0.1336
  152OSM    H4F16934   2.515   5.801   2.898  0.3857  0.1371  1.4024
  152OSM    H4G16935   2.371   5.764   2.995  2.5444 -0.5783  1.4889
  152OSM    C5F16936   2.448   5.962   3.024 -0.0966 -0.1401  0.6511
  152OSM    H5F16937   2.362   6.029   3.048  1.5862  2.1327  0.6868
  152OSM    H5G16938   2.527   6.026   2.980 -0.5071 -0.3939 -0.4776
  152OSM    C6F16939   2.505   5.915   3.166  0.7066 -0.2950  0.0426
  152OSM    H6F16940   2.598   5.855   3.156  0.3928 -0.9034  0.6655
  152OSM    H6G16941   2.425   5.843   3.195  1.8185 -1.8769 -0.6605
  152OSM    C7F16942   2.502   6.027   3.261 -0.2719  0.5310  0.0232
  152OSM    H7F16943   2.399   6.070   3.260 -0.0567  1.0661  0.4864
  152OSM    H7G16944   2.568   6.104   3.216  0.4816 -0.6103 -0.8565
  152OSM    C8F16945   2.552   5.989   3.406 -0.3942  0.0531 -0.6620
  152OSM    H8F16946   2.563   6.087   3.456  1.8896 -0.1752 -0.6081
  152OSM    H8G16947   2.651   5.939   3.402 -0.2097  0.2289  1.0295
  152OSM    C9F16948   2.452   5.909   3.485 -0.0940  0.8153  0.2179
  152OSM    H9F16949   2.393   5.840   3.423  1.5107  0.1016 -0.5970
  152OSM   C10F16950   2.455   5.884   3.617 -0.8228  0.4776  0.4396
  152OSM   H10F16951   2.379   5.822   3.667 -0.5704 -0.1366  0.0704
  152OSM   C11F16952   2.543   5.947   3.718  0.3844 -0.4346 -0.2815
  152OSM   H11F16953   2.493   5.982   3.811 -2.8448  0.4565 -2.2136
  152OSM   H11G16954   2.581   6.045   3.683 -0.5625  0.7067  1.7181
  152OSM   C12F16955   2.665   5.860   3.732  0.3906  0.0049 -0.1193
  152OSM   H12F16956   2.729   5.919   3.801  2.9896 -0.6069 -1.8660
  152OSM   H12G16957   2.723   5.860   3.637  0.9438 -0.4389  0.2161
  152OSM   C13F16958   2.629   5.722   3.806  1.1418 -0.4899 -0.6228
  152OSM   H13F16959   2.729   5.682   3.836  1.2995  0.5047  0.2485
  152OSM   H13G16960   2.573   5.652   3.740 -1.7688  1.0030  0.0974
  152OSM   C14F16961   2.535   5.735   3.929 -0.7590 -0.5644 -0.2221
  152OSM   H14F16962   2.453   5.807   3.908  0.6615  0.9738 -0.7282
  152OSM   H14G16963   2.598   5.786   4.004 -2.8112  2.7890 -0.5776
  152OSM   C15F16964   2.482   5.601   3.973 -0.1174 -0.1992 -0.0299
  152OSM   H15F16965   2.558   5.521   3.966  0.9949  0.8051  0.2922
  152OSM   H15G16966   2.397   5.564   3.911  0.4572 -2.7311  0.6068
  152OSM   C16F16967   2.433   5.602   4.122  0.8276  0.1959 -0.6257
  152OSM   H16F16968   2.352   5.678   4.129 -0.4408 -0.8979 -2.5560
  152OSM   H16G16969   2.523   5.621   4.185  1.5325  1.6718 -2.0006
  152OSM   C17F16970   2.379   5.470   4.178 -0.2894 -0.3798  0.3199
  152OSM   H17F16971   2.307   5.433   4.103 -1.9215  0.7631  1.2539
  152OSM   H17G16972   2.314   5.501   4.263 -1.3464 -0.6058 -0.3944
  152OSM   C18F16973   2.486   5.366   4.220 -0.9888  0.0192  0.4878
  152OSM   H18F16974   2.581   5.413   4.253 -0.9823 -0.4329  1.1313
  152OSM   H18G16975   2.505   5.292   4.139 -2.3757  1.6281 -1.3925
  152OSM   H18H16976   2.456   5.293   4.299 -2.6102  0.7182  0.5467
  153OSM      N16977   2.330   4.819   2.049 -0.0335  0.3523  0.0192
  153OSM    C1516978   2.309   4.947   1.972  0.9772  0.0870  0.2351
  153OSM   H15A16979   2.359   5.026   2.025  0.3579  1.6131 -1.3725
  153OSM   H15B16980   2.205   4.969   1.954  0.6262 -1.6770 -0.1419
  153OSM   H15C16981   2.356   4.941   1.875  0.9508  2.8618 -0.0172
  153OSM    C1416982   2.265   4.712   1.963 -0.2795  0.3040 -0.3261
  153OSM   H14A16983   2.281   4.619   2.015 -1.6040  0.9338  1.3036
  153OSM   H14B16984   2.315   4.697   1.869  0.3544 -1.1169  0.2020
  153OSM   H14C16985   2.160   4.716   1.938 -0.2149 -0.7523 -0.8271
  153OSM    C1316986   2.479   4.785   2.053 -0.3030 -0.4746 -0.8974
  153OSM   H13A16987   2.538   4.864   2.095 -0.4635 -1.1686  0.7070
  153OSM   H13B16988   2.518   4.766   1.954  0.1636  0.7204 -0.9461
  153OSM   H13C16989   2.495   4.701   2.119 -1.7749  0.4495  0.7235
  153OSM    C1216990   2.276   4.824   2.192  0.1453 -0.1949  0.1341
  153OSM   H12A16991   2.260   4.724   2.232  0.0552 -0.0912  0.3590
  153OSM   H12B16992   2.176   4.865   2.193  0.7851  1.4916 -0.8865
  153OSM    C1116993   2.344   4.922   2.293 -0.1190  0.2132  0.2782
  153OSM   H11A16994   2.452   4.899   2.303 -0.8834 -3.2713  2.0819
  153OSM   H11B16995   2.309   4.899   2.396  0.7297  0.8445  0.7188
  153OSM      P16996   2.196   5.127   2.281 -0.0370  0.5517 -0.1103
  153OSM    O1316997   2.209   5.274   2.250 -0.3214  0.1551 -0.1632
  153OSM    O1416998   2.087   5.045   2.221 -0.3334 -0.2277  0.3240
  153OSM    O1116999   2.175   5.112   2.436 -0.5070  0.4465 -0.5097
  153OSM    O1217000   2.333   5.060   2.251  0.1626 -0.4579 -0.3976
  153OSM    C1S17001   2.281   5.158   2.521  0.6963  0.0306  0.8153
  153OSM    H1S17002   2.339   5.241   2.477 -0.1294  1.1246  1.7284
  153OSM    H1T17003   2.351   5.073   2.539 -2.2881 -2.2389  2.5847
  153OSM     NF17004   2.323   5.272   2.722 -0.5620  0.4835 -0.2559
  153OSM    HNF17005   2.379   5.225   2.789 -0.4451 -0.2687 -0.8726
  153OSM    C2S17006   2.220   5.198   2.653 -0.1352 -0.3522  0.3805
  153OSM    H2S17007   2.138   5.269   2.632  0.4738  0.1783 -0.2409
  153OSM    C3S17008   2.170   5.077   2.733  0.1690  0.0948 -0.2472
  153OSM    H3S17009   2.248   4.999   2.735  0.4517  0.2337 -2.5506
  153OSM     O317010   2.059   5.020   2.662  0.8237  0.1261  0.4237
  153OSM    HO317011   2.085   5.041   2.571 -1.0200  1.1952  0.0953
  153OSM    C4S17012   2.132   5.108   2.869  0.4426  0.4088 -0.6616
  153OSM    H4S17013   2.046   5.176   2.871  0.2311  0.1349  0.5764
  153OSM    C5S17014   2.202   5.060   2.974  0.0380  0.5445  0.0507
  153OSM    H5S17015   2.277   4.980   2.959 -0.4524  0.1856 -0.5868
  153OSM    C6S17016   2.165   5.083   3.120 -0.1831 -0.0752 -0.4625
  153OSM    H6S17017   2.112   4.992   3.158 -0.5646  0.4549  0.3028
  153OSM    H6T17018   2.091   5.165   3.133 -1.1470 -0.9071 -0.4808
  153OSM    C7S17019   2.291   5.126   3.203 -0.1388 -0.3234 -0.3314
  153OSM    H7S17020   2.255   5.152   3.305  0.6325  0.4899 -0.2583
  153OSM    H7T17021   2.340   5.219   3.167 -0.2218 -1.0033 -2.3250
  153OSM    C8S17022   2.403   5.024   3.210 -0.1911  0.1611  0.4269
  153OSM    H8S17023   2.430   5.007   3.103 -0.8975  2.5639 -0.1963
  153OSM    H8T17024   2.372   4.922   3.242  2.0876 -0.6281  0.2883
  153OSM    C9S17025   2.517   5.051   3.307  0.6570 -0.4127  0.4221
  153OSM    H9S17026   2.593   4.973   3.286  0.2538 -0.1615 -2.2527
  153OSM    H9T17027   2.478   5.027   3.409  1.3029 -1.8576  0.3501
  153OSM   C10S17028   2.598   5.171   3.286 -0.0909 -0.0427 -0.5048
  153OSM   H10S17029   2.544   5.266   3.306  0.5948  0.5683 -1.4583
  153OSM   H10T17030   2.635   5.168   3.182  2.1679  0.9176  0.2001
  153OSM   C11S17031   2.721   5.172   3.378 -0.5495 -0.1013 -0.1287
  153OSM   H11S17032   2.796   5.249   3.351 -0.0365  0.0012  1.4558
  153OSM   H11T17033   2.775   5.074   3.381 -0.4891 -0.0563  0.6598
  153OSM   C12S17034   2.675   5.210   3.517 -0.1726 -0.2216  0.1836
  153OSM   H12S17035   2.609   5.130   3.557  0.7550 -1.1599 -0.1262
  153OSM   H12T17036   2.618   5.305   3.502 -0.8064 -0.1633  2.4913
  153OSM   C13S17037   2.788   5.234   3.608 -0.3778 -0.3522  0.5108
  153OSM   H13S17038   2.832   5.327   3.567  0.5400 -1.1687 -0.4467
  153OSM   H13T17039   2.863   5.153   3.593 -0.5503 -0.9741  2.6442
  153OSM   C14S17040   2.743   5.249   3.755  0.5344 -0.5243  0.6574
  153OSM   H14S17041   2.680   5.159   3.776 -0.5748  0.5282  2.1212
  153OSM   H14T17042   2.681   5.340   3.773  0.0598 -0.9017  0.9660
  153OSM   C15S17043   2.858   5.253   3.851  0.0663 -0.1407 -0.0014
  153OSM   H15S17044   2.928   5.328   3.808  0.9576 -0.9659 -0.0406
  153OSM   H15T17045   2.927   5.167   3.838  0.8636  0.7389 -2.0057
  153OSM   C16S17046   2.822   5.272   3.998 -0.1759  0.2351  0.0937
  153OSM   H16S17047   2.725   5.325   4.005 -0.2800  0.0016  0.4833
  153OSM   H16T17048   2.898   5.327   4.058 -1.4621 -0.8167  2.8777
  153OSM   C17S17049   2.800   5.140   4.070 -0.2926 -0.7422  0.6020
  153OSM   H17S17050   2.896   5.086   4.058  0.6118  0.6330  1.3446
  153OSM   H17T17051   2.717   5.083   4.025 -0.5400 -0.6585  0.9438
  153OSM   C18S17052   2.786   5.140   4.228 -0.1367  0.0009  0.0319
  153OSM   H18S17053   2.803   5.036   4.262 -1.2117  0.3084  1.6158
  153OSM   H18T17054   2.684   5.182   4.243 -0.3379 -0.9114  1.4217
  153OSM   H18U17055   2.856   5.216   4.270  0.1868  0.4139 -1.2029
  153OSM    C1F17056   2.362   5.391   2.679  0.1022  0.1339 -0.3539
  153OSM     OF17057   2.298   5.453   2.594 -0.2749  0.4875 -0.5668
  153OSM    C2F17058   2.486   5.447   2.731 -0.7486 -0.1859  0.3888
  153OSM    H2F17059   2.500   5.549   2.690 -0.3159 -0.4915 -0.2552
  153OSM    H2G17060   2.574   5.385   2.701 -0.1641  1.0298 -0.4699
  153OSM    C3F17061   2.496   5.450   2.882 -0.1353 -0.0990  0.3171
  153OSM    H3F17062   2.493   5.345   2.916  1.2166 -0.7431 -1.4041
  153OSM    H3G17063   2.416   5.510   2.929 -0.0684 -0.5590  1.0384
  153OSM    C4F17064   2.635   5.501   2.937 -0.0322 -0.4433  0.4102
  153OSM    H4F17065   2.661   5.589   2.875 -1.6007 -0.4403 -0.2839
  153OSM    H4G17066   2.720   5.432   2.919  3.0422  2.9552  0.6365
  153OSM    C5F17067   2.624   5.522   3.082 -0.2391 -0.0546 -0.9011
  153OSM    H5F17068   2.608   5.424   3.133  0.4748  0.3025  0.0598
  153OSM    H5G17069   2.536   5.588   3.094  0.7885  1.5215 -1.6826
  153OSM    C6F17070   2.748   5.574   3.156  0.5715 -0.0817 -0.7205
  153OSM    H6F17071   2.771   5.679   3.126 -0.1064 -0.2143 -1.7721
  153OSM    H6G17072   2.829   5.504   3.128  0.7265 -0.4076  0.4900
  153OSM    C7F17073   2.724   5.557   3.304 -0.0613 -0.2241  0.3473
  153OSM    H7F17074   2.753   5.456   3.338 -0.0434  0.0009  1.0054
  153OSM    H7G17075   2.613   5.558   3.309 -0.0933 -0.4200 -0.2389
  153OSM    C8F17076   2.781   5.657   3.399 -0.4416  0.0105  0.9575
  153OSM    H8F17077   2.738   5.635   3.499  0.1718 -0.3388  1.1504
  153OSM    H8G17078   2.755   5.758   3.361 -1.3939 -0.5909 -0.0147
  153OSM    C9F17079   2.933   5.643   3.399  0.0237  0.4234  0.3097
  153OSM    H9F17080   2.984   5.647   3.301  0.7627 -0.8491  0.6029
  153OSM   C10F17081   3.009   5.611   3.510  0.3320 -0.4927  0.7964
  153OSM   H10F17082   3.117   5.596   3.495  0.2001 -1.8907  1.1111
  153OSM   C11F17083   2.955   5.599   3.652 -0.3359  0.2700  0.2122
  153OSM   H11F17084   2.874   5.524   3.643  1.2590 -1.2929 -3.7218
  153OSM   H11G17085   2.914   5.699   3.679 -2.4972 -0.4839 -0.0857
  153OSM   C12F17086   3.071   5.568   3.750 -0.4843 -0.0280 -0.8100
  153OSM   H12F17087   3.160   5.633   3.734 -0.7939  0.4996 -0.4437
  153OSM   H12G17088   3.100   5.464   3.725 -0.2658  0.1150 -1.1561
  153OSM   C13F17089   3.030   5.598   3.893  0.0593 -0.0449 -0.4595
  153OSM   H13F17090   2.955   5.525   3.931 -1.4434 -0.0361 -3.1859
  153OSM   H13G17091   2.995   5.704   3.897  0.6515  0.1391 -0.0935
  153OSM   C14F17092   3.148   5.578   3.997 -0.3223  0.2979 -0.0712
  153OSM   H14F17093   3.111   5.588   4.101  0.7069 -1.1766  0.4804
  153OSM   H14G17094   3.226   5.656   3.983 -2.5114  2.6826  0.3703
  153OSM   C15F17095   3.228   5.438   3.989 -0.0240  0.5091 -0.5405
  153OSM   H15F17096   3.285   5.441   3.893 -0.2394  1.0581 -0.6524
  153OSM   H15G17097   3.165   5.346   3.985  1.2498 -0.3557 -1.6742
  153OSM   C16F17098   3.330   5.409   4.105 -1.3071  0.1488  0.6010
  153OSM   H16F17099   3.386   5.499   4.139  1.0223 -1.5993  1.6526
  153OSM   H16G17100   3.405   5.335   4.071 -0.4183  0.7574  1.1702
  153OSM   C17F17101   3.249   5.358   4.236 -0.2336 -0.3031  0.2922
  153OSM   H17F17102   3.176   5.278   4.212 -1.3647  1.5567 -3.1450
  153OSM   H17G17103   3.183   5.445   4.257 -0.8850 -0.3430 -1.4569
  153OSM   C18F17104   3.346   5.330   4.352  0.1790 -0.4228 -0.0765
  153OSM   H18F17105   3.379   5.225   4.339 -1.1007 -0.6092 -2.3434
  153OSM   H18G17106   3.299   5.350   4.451 -0.8255 -1.8492 -0.2426
  153OSM   H18H17107   3.426   5.408   4.351 -0.3048  0.2497  3.1731
  154OSM      N17108   0.606   1.922   2.206  0.3868  0.0274  0.4188
  154OSM    C1517109   0.660   1.816   2.115  0.7449  0.6311 -0.4954
  154OSM   H15A17110   0.768   1.815   2.124  0.6892  1.9142  0.6190
  154OSM   H15B17111   0.637   1.834   2.011 -1.8284 -0.4944 -0.1926
  154OSM   H15C17112   0.620   1.719   2.139  1.0133  0.8778  1.0576
  154OSM    C1417113   0.454   1.916   2.197 -0.4625 -0.0277 -0.1425
  154OSM   H14A17114   0.419   1.815   2.211 -1.1132  0.0430 -1.1734
  154OSM   H14B17115   0.425   1.946   2.097  0.5827  2.8253  0.3059
  154OSM   H14C17116   0.410   1.988   2.265  0.4958 -0.4287  0.9298
  154OSM    C1317117   0.649   1.890   2.344  0.1935 -0.2951 -0.7565
  154OSM   H13A17118   0.616   1.973   2.405 -0.3425 -2.6003  2.3488
  154OSM   H13B17119   0.757   1.881   2.349  0.0116 -3.7699 -0.3158
  154OSM   H13C17120   0.604   1.796   2.374  1.9977 -0.6542  1.0696
  154OSM    C1217121   0.662   2.054   2.161  0.5472  0.4427  0.0331
  154OSM   H12A17122   0.768   2.061   2.184  0.3116 -0.7743  1.6152
  154OSM   H12B17123   0.616   2.137   2.211 -0.5713  0.0464 -0.3238
  154OSM    C1117124   0.641   2.104   2.012 -0.4342  0.3242  0.1284
  154OSM   H11A17125   0.669   2.024   1.940  2.7638  1.1487  0.3015
  154OSM   H11B17126   0.712   2.181   1.975 -0.1960  0.9357  1.7655
  154OSM      P17127   0.474   2.304   2.001 -0.0647  0.1600  0.3878
  154OSM    O1317128   0.581   2.386   1.936  0.3924 -0.7515 -0.1031
  154OSM    O1417129   0.336   2.348   1.961  0.3253  0.3318 -0.0350
  154OSM    O1117130   0.494   2.319   2.159 -0.6957  0.2266 -1.2592
  154OSM    O1217131   0.503   2.141   1.991  0.0030  0.4680  0.7605
  154OSM    C1S17132   0.396   2.286   2.253 -0.3555 -0.0441  0.4898
  154OSM    H1S17133   0.378   2.177   2.244  0.8571 -0.1135 -1.7973
  154OSM    H1T17134   0.301   2.337   2.225  0.2943 -0.4485 -2.8616
  154OSM     NF17135   0.307   2.293   2.480  0.4966  0.6172 -0.8896
  154OSM    HNF17136   0.238   2.363   2.496 -0.4324 -0.7940  2.0763
  154OSM    C2S17137   0.421   2.333   2.398  0.2671  0.1976 -0.8913
  154OSM    H2S17138   0.512   2.275   2.425 -1.4254 -2.8990 -1.3611
  154OSM    C3S17139   0.443   2.483   2.401  0.6087 -1.0929 -0.1285
  154OSM    H3S17140   0.343   2.525   2.378  0.8747 -0.6501 -0.5090
  154OSM     O317141   0.528   2.541   2.302  0.2008 -0.4011 -0.5387
  154OSM    HO317142   0.541   2.468   2.240  2.3885  0.6843 -1.4576
  154OSM    C4S17143   0.467   2.528   2.548 -1.0169 -0.7897  0.2586
  154OSM    H4S17144   0.372   2.533   2.603 -0.5125 -1.1623  1.1763
  154OSM    C5S17145   0.584   2.567   2.603 -0.1223  0.2674  0.0456
  154OSM    H5S17146   0.669   2.566   2.533 -0.7815  0.6787 -0.7786
  154OSM    C6S17147   0.604   2.619   2.744  0.4044 -0.1914 -0.2427
  154OSM    H6S17148   0.599   2.730   2.747  1.4449 -0.1340 -0.3184
  154OSM    H6T17149   0.707   2.594   2.779 -0.1605  1.8781  3.4535
  154OSM    C7S17150   0.502   2.576   2.850  0.1103  0.4608 -0.8747
  154OSM    H7S17151   0.490   2.466   2.841 -0.8628  0.5530 -0.7959
  154OSM    H7T17152   0.404   2.626   2.836 -1.2871 -1.0719  2.5254
  154OSM    C8S17153   0.553   2.608   2.992 -0.4076 -0.4656  1.2002
  154OSM    H8S17154   0.591   2.712   2.980 -1.6415 -0.2862 -2.3434
  154OSM    H8T17155   0.641   2.543   3.011  0.6608  0.5393 -0.0596
  154OSM    C9S17156   0.453   2.576   3.095  0.0134 -0.1162  0.4388
  154OSM    H9S17157   0.438   2.466   3.105 -0.3082 -0.0303  0.9064
  154OSM    H9T17158   0.358   2.630   3.079 -0.7080 -1.6263 -0.6178
  154OSM   C10S17159   0.507   2.603   3.232 -0.4006 -0.2373  0.2040
  154OSM   H10S17160   0.558   2.701   3.243 -0.2086 -0.0153 -2.1653
  154OSM   H10T17161   0.585   2.526   3.250  0.6685  0.2970 -1.8637
  154OSM   C11S17162   0.386   2.599   3.335 -0.6944  0.5104 -0.4167
  154OSM   H11S17163   0.293   2.618   3.277 -1.6660  0.8211  1.1941
  154OSM   H11T17164   0.412   2.682   3.404 -0.5301 -2.4184  3.3614
  154OSM   C12S17165   0.365   2.475   3.426  0.3293 -0.8503 -0.8329
  154OSM   H12S17166   0.461   2.457   3.480 -0.3556 -1.6059  0.1822
  154OSM   H12T17167   0.345   2.392   3.355  1.5616 -0.9653 -1.0664
  154OSM   C13S17168   0.248   2.497   3.531 -0.2760  0.2807  0.6112
  154OSM   H13S17169   0.152   2.463   3.488 -0.2700  0.4183  0.4888
  154OSM   H13T17170   0.236   2.606   3.545 -2.5166  0.2679 -0.7580
  154OSM   C14S17171   0.281   2.422   3.657  0.5043 -0.4253  0.6037
  154OSM   H14S17172   0.375   2.469   3.694  1.4805 -0.4075 -1.7375
  154OSM   H14T17173   0.308   2.319   3.626 -1.6662 -0.2710 -2.2099
  154OSM   C15S17174   0.179   2.411   3.774  0.3645 -1.0046  0.4208
  154OSM   H15S17175   0.089   2.365   3.728  0.4997  1.4249 -2.6755
  154OSM   H15T17176   0.154   2.518   3.787 -0.0095 -0.3427 -4.0686
  154OSM   C16S17177   0.225   2.337   3.895  0.2261  0.7934 -0.4407
  154OSM   H16S17178   0.294   2.400   3.956 -2.5989  2.4467  1.3202
  154OSM   H16T17179   0.265   2.235   3.877 -1.9368 -0.3778  0.8853
  154OSM   C17S17180   0.106   2.316   3.997 -0.3797 -0.8093 -0.0849
  154OSM   H17S17181   0.135   2.267   4.092  1.4905  0.8209  0.2500
  154OSM   H17T17182   0.034   2.254   3.938 -1.1426  0.7842 -0.8779
  154OSM   C18S17183   0.028   2.446   4.020  0.2538  0.2533 -0.0680
  154OSM   H18S17184   0.112   2.514   4.047 -1.0345  2.9774 -2.3317
  154OSM   H18T17185  -0.048   2.423   4.097  0.6720 -1.0408 -0.0197
  154OSM   H18U17186  -0.012   2.490   3.926 -0.2123 -1.0194 -0.4798
  154OSM    C1F17187   0.300   2.167   2.525 -0.4089 -0.1100  0.1028
  154OSM     OF17188   0.380   2.084   2.479 -0.3644 -0.3097  0.3059
  154OSM    C2F17189   0.204   2.132   2.632  0.4339 -0.1798 -0.1049
  154OSM    H2F17190   0.233   2.046   2.696 -1.3813 -0.6625  0.1086
  154OSM    H2G17191   0.109   2.107   2.580  1.0071  0.8579 -1.7536
  154OSM    C3F17192   0.183   2.242   2.742 -0.8342  0.0083  0.6827
  154OSM    H3F17193   0.148   2.337   2.695 -2.9006 -1.1728 -0.3232
  154OSM    H3G17194   0.283   2.255   2.788  0.6425  0.1218 -2.3296
  154OSM    C4F17195   0.083   2.198   2.849  0.0287  0.5884 -0.0033
  154OSM    H4F17196   0.111   2.101   2.896 -0.6165  0.3744 -0.0533
  154OSM    H4G17197  -0.024   2.203   2.821 -0.6230 -0.0038  2.1935
  154OSM    C5F17198   0.083   2.301   2.970 -0.5279  0.0669  1.1237
  154OSM    H5F17199   0.052   2.398   2.927  0.0285 -0.2154  0.0665
  154OSM    H5G17200   0.185   2.309   3.013  0.3542  2.4032 -1.1422
  154OSM    C6F17201  -0.021   2.267   3.073 -0.3320 -0.2341 -0.3862
  154OSM    H6F17202  -0.125   2.285   3.037  0.1924 -1.1739 -2.4810
  154OSM    H6G17203  -0.001   2.329   3.163 -0.2439 -0.4957 -0.2258
  154OSM    C7F17204  -0.017   2.122   3.122 -0.5772  0.5668  0.2327
  154OSM    H7F17205   0.085   2.092   3.155 -1.6354 -3.1165  0.6537
  154OSM    H7G17206  -0.045   2.051   3.041  3.2761 -0.2039 -0.6105
  154OSM    C8F17207  -0.130   2.100   3.227  0.0037  0.1918  0.1886
  154OSM    H8F17208  -0.235   2.086   3.191  0.7404 -1.3223 -1.5226
  154OSM    H8G17209  -0.129   2.198   3.279 -0.3024 -0.8479  2.2794
  154OSM    C9F17210  -0.086   1.984   3.311 -0.0754  0.2907  0.4357
  154OSM    H9F17211  -0.106   1.890   3.259 -0.3838  1.3196 -1.3795
  154OSM   C10F17212  -0.016   1.978   3.428 -0.2253 -0.3524  0.7370
  154OSM   H10F17213   0.014   1.876   3.456 -0.1124 -1.1969 -2.1629
  154OSM   C11F17214   0.024   2.088   3.519 -0.5162 -0.0120 -0.2514
  154OSM   H11F17215  -0.015   2.188   3.491  2.1671  0.8226 -1.3279
  154OSM   H11G17216   0.134   2.101   3.533 -0.0565 -1.5688 -2.0839
  154OSM   C12F17217  -0.027   2.058   3.659 -0.5810 -0.5189  0.2494
  154OSM   H12F17218   0.007   2.132   3.734 -1.7001  2.1330 -1.7123
  154OSM   H12G17219   0.011   1.959   3.694  0.7135 -1.2159 -2.8044
  154OSM   C13F17220  -0.179   2.055   3.674 -0.6437 -0.2343 -0.2516
  154OSM   H13F17221  -0.219   1.959   3.635 -0.2956 -0.1786 -0.7595
  154OSM   H13G17222  -0.216   2.140   3.611 -0.5499  0.5907  0.7846
  154OSM   C14F17223  -0.220   2.072   3.818  0.4594  0.3377 -0.6420
  154OSM   H14F17224  -0.157   2.153   3.861 -3.0687  3.8693 -1.5073
  154OSM   H14G17225  -0.201   1.982   3.879  1.8994  0.1294 -1.3512
  154OSM   C15F17226  -0.364   2.125   3.839  0.5567  0.3743  0.2950
  154OSM   H15F17227  -0.441   2.065   3.785  1.0859  1.0317 -1.2393
  154OSM   H15G17228  -0.374   2.229   3.800  1.5608  0.4065  0.1029
  154OSM   C16F17229  -0.398   2.132   3.990  0.1989  0.2993 -0.1077
  154OSM   H16F17230  -0.361   2.035   4.031  1.0162 -1.0375 -3.6570
  154OSM   H16G17231  -0.508   2.141   3.989  0.2878  1.7044  0.5960
  154OSM   C17F17232  -0.328   2.238   4.081 -0.0433  0.1128  0.2854
  154OSM   H17F17233  -0.217   2.232   4.077  0.1192  2.1413  0.5415
  154OSM   H17G17234  -0.357   2.229   4.187 -0.0733  0.6274  0.3247
  154OSM   C18F17235  -0.355   2.387   4.047 -0.1511  0.2606 -0.6641
  154OSM   H18F17236  -0.310   2.414   3.948  1.5656 -1.7038 -0.4949
  154OSM   H18G17237  -0.312   2.456   4.123 -1.0267 -0.6560  0.6903
  154OSM   H18H17238  -0.464   2.404   4.033 -0.4479 -0.8008  0.2507
  155OSM      N17239   2.866   5.539   2.312  0.1452  0.0939 -0.8831
  155OSM    C1517240   2.834   5.648   2.405 -0.3034  0.3054 -0.0523
  155OSM   H15A17241   2.727   5.662   2.409 -0.6771 -2.1957 -0.2240
  155OSM   H15B17242   2.888   5.733   2.363  2.4771 -0.9672  0.7031
  155OSM   H15C17243   2.876   5.635   2.503 -0.9622  1.2937  0.3823
  155OSM    C1417244   2.816   5.410   2.377 -0.1794  0.3938 -0.4946
  155OSM   H14A17245   2.862   5.399   2.474  0.5755  0.1210 -0.8690
  155OSM   H14B17246   2.843   5.321   2.322 -2.7210 -1.5429  1.1725
  155OSM   H14C17247   2.711   5.412   2.403 -0.3026 -2.7233 -0.3153
  155OSM    C1317248   2.792   5.553   2.182 -0.4797  0.0924 -0.5291
  155OSM   H13A17249   2.816   5.465   2.124 -0.2643  0.6823 -1.3575
  155OSM   H13B17250   2.842   5.637   2.136  1.4547  0.9816  2.8725
  155OSM   H13C17251   2.686   5.570   2.192 -0.4127  0.7731 -0.9154
  155OSM    C1217252   3.012   5.526   2.283 -0.1182  0.4728 -0.4791
  155OSM   H12A17253   3.036   5.599   2.208 -0.3312  1.6760  0.5875
  155OSM   H12B17254   3.027   5.429   2.237 -1.2742  0.1111 -0.1297
  155OSM    C1117255   3.124   5.542   2.389  0.1158  0.3004 -0.2760
  155OSM   H11A17256   3.217   5.505   2.342  0.4759  0.8229  0.0244
  155OSM   H11B17257   3.096   5.473   2.472 -1.9457  1.2568 -0.0967
  155OSM      P17258   3.210   5.781   2.350  0.0705  0.1246  0.0392
  155OSM    O1317259   3.354   5.774   2.375 -0.0467  0.1925 -0.0945
  155OSM    O1417260   3.176   5.753   2.209  0.7779 -0.0843 -0.7470
  155OSM    O1117261   3.162   5.916   2.403 -0.0622  0.3406 -0.2585
  155OSM    O1217262   3.132   5.675   2.437  0.1066 -0.6640 -0.6174
  155OSM    C1S17263   3.066   5.929   2.510  0.6456 -0.2189 -0.2498
  155OSM    H1S17264   3.026   5.834   2.550  0.6111  0.5201  1.5793
  155OSM    H1T17265   2.983   5.992   2.472  0.5960  0.1226  0.4081
  155OSM     NF17266   3.012   6.020   2.732 -0.1652 -0.4310  0.2680
  155OSM    HNF17267   2.952   6.100   2.734  0.4234  0.0089  1.4450
  155OSM    C2S17268   3.114   6.017   2.626  0.0690  0.4882 -0.1100
  155OSM    H2S17269   3.195   5.956   2.671  1.8331  2.9372  0.1999
  155OSM    C3S17270   3.181   6.152   2.597  0.6599 -0.0540  0.2949
  155OSM    H3S17271   3.103   6.221   2.558  2.2067  0.8950 -1.2694
  155OSM     O317272   3.275   6.147   2.484  0.0492  0.1735 -0.6395
  155OSM    HO317273   3.264   6.060   2.446 -1.6381 -0.6317  1.5122
  155OSM    C4S17274   3.245   6.201   2.721 -0.4176  0.1034 -0.2074
  155OSM    H4S17275   3.333   6.140   2.748  0.2508 -0.1573 -2.6669
  155OSM    C5S17276   3.204   6.312   2.780  0.4445  0.3985 -0.1642
  155OSM    H5S17277   3.111   6.361   2.746  1.0788  0.8924 -1.2581
  155OSM    C6S17278   3.260   6.377   2.903  0.3383  0.0921 -0.0207
  155OSM    H6S17279   3.227   6.482   2.913  1.0548  0.4777 -1.4791
  155OSM    H6T17280   3.370   6.363   2.893  0.2057  0.3931 -2.5545
  155OSM    C7S17281   3.224   6.314   3.047 -0.1894 -1.3144  0.5666
  155OSM    H7S17282   3.246   6.205   3.053 -1.4909 -1.5923  0.5196
  155OSM    H7T17283   3.116   6.336   3.058  0.1069 -0.0877  1.2392
  155OSM    C8S17284   3.319   6.383   3.155 -0.0923  0.2706 -0.7069
  155OSM    H8S17285   3.296   6.491   3.153  1.5678  0.6739  0.4873
  155OSM    H8T17286   3.419   6.356   3.117 -0.8815  2.0446 -4.5028
  155OSM    C9S17287   3.280   6.327   3.289  0.2915  0.5139 -0.2599
  155OSM    H9S17288   3.299   6.217   3.292 -1.4191  0.2047  0.4492
  155OSM    H9T17289   3.172   6.340   3.313  0.4608  1.4841  0.0104
  155OSM   C10S17290   3.368   6.404   3.392 -0.5492  0.7306 -0.3889
  155OSM   H10S17291   3.368   6.511   3.361 -0.7922  0.9965  0.4995
  155OSM   H10T17292   3.466   6.367   3.356 -1.3956 -0.7443 -1.2700
  155OSM   C11S17293   3.329   6.393   3.539  0.0965 -0.2596  0.5002
  155OSM   H11S17294   3.336   6.287   3.569  1.3523  0.0755  1.4517
  155OSM   H11T17295   3.230   6.440   3.558  0.5586  0.9857 -0.0500
  155OSM   C12S17296   3.438   6.442   3.640 -0.1369 -0.3478  0.8141
  155OSM   H12S17297   3.481   6.541   3.616  2.6279 -0.6948  3.6766
  155OSM   H12T17298   3.529   6.378   3.630  1.7658  2.1618  1.0409
  155OSM   C13S17299   3.387   6.449   3.785 -0.9387  0.0300 -0.0755
  155OSM   H13S17300   3.341   6.354   3.819  2.6180 -1.4127  1.1718
  155OSM   H13T17301   3.314   6.533   3.792 -1.5934 -0.4618 -0.8027
  155OSM   C14S17302   3.507   6.477   3.882 -0.3717  0.4112 -0.3276
  155OSM   H14S17303   3.564   6.558   3.833  1.1357 -1.4154 -1.7103
  155OSM   H14T17304   3.579   6.393   3.893 -1.9112 -0.9362 -0.0859
  155OSM   C15S17305   3.469   6.512   4.027  0.0870 -0.1158 -0.8552
  155OSM   H15S17306   3.547   6.479   4.100  1.1417  1.2713 -1.3260
  155OSM   H15T17307   3.377   6.459   4.060  0.4528  1.1750  2.7230
  155OSM   C16S17308   3.426   6.660   4.046  0.0249  0.0209  0.2687
  155OSM   H16S17309   3.347   6.681   3.970 -0.8718  1.7237  1.5899
  155OSM   H16T17310   3.521   6.715   4.028  0.5799 -1.4459 -1.4451
  155OSM   C17S17311   3.380   6.698   4.187  0.2659 -0.6983 -0.5423
  155OSM   H17S17312   3.435   6.648   4.270 -0.9533  0.2355  0.8843
  155OSM   H17T17313   3.278   6.658   4.207  0.2681  0.0819  1.2738
  155OSM   C18S17314   3.378   6.855   4.210  0.2550  0.9242 -0.1635
  155OSM   H18S17315   3.316   6.867   4.301  2.1025  1.6093  1.0703
  155OSM   H18T17316   3.340   6.900   4.116  0.3369  0.2886 -0.5121
  155OSM   H18U17317   3.483   6.886   4.230  1.1181 -0.9606 -1.4630
  155OSM    C1F17318   2.969   5.929   2.807 -0.0263 -0.0278 -0.5977
  155OSM     OF17319   3.022   5.818   2.814  0.6012 -0.3612  0.4484
  155OSM    C2F17320   2.847   5.961   2.894  0.2171  0.6673  0.0657
  155OSM    H2F17321   2.818   5.866   2.943 -0.3282 -0.0606 -1.5826
  155OSM    H2G17322   2.768   5.981   2.818  2.4445 -2.1699 -3.3684
  155OSM    C3F17323   2.867   6.077   2.993 -0.1822  0.3867 -0.2992
  155OSM    H3F17324   2.767   6.105   3.033  0.0617  2.3691 -0.9664
  155OSM    H3G17325   2.913   6.163   2.940 -0.3836 -0.9682 -2.8365
  155OSM    C4F17326   2.941   6.042   3.123 -0.1134  0.0589  0.0947
  155OSM    H4F17327   3.052   6.041   3.110 -0.1142  1.8426 -0.4315
  155OSM    H4G17328   2.895   5.947   3.157 -0.2080 -0.2550 -0.8912
  155OSM    C5F17329   2.919   6.144   3.242 -0.1299  0.3792  0.3018
  155OSM    H5F17330   2.810   6.155   3.259 -0.3224 -1.0727  0.1376
  155OSM    H5G17331   2.963   6.244   3.220  0.0837  0.6709  1.9340
  155OSM    C6F17332   2.993   6.087   3.363 -0.5091  0.6038  0.1739
  155OSM    H6F17333   3.102   6.072   3.349 -0.6945 -1.0583  0.3003
  155OSM    H6G17334   2.954   5.985   3.386 -1.6716  0.9097 -0.3438
  155OSM    C7F17335   2.976   6.167   3.491 -0.0063 -0.5632  0.4007
  155OSM    H7F17336   2.884   6.224   3.464  0.0370 -1.3367 -1.5560
  155OSM    H7G17337   3.060   6.237   3.506  0.9867 -1.8391  0.9685
  155OSM    C8F17338   2.939   6.087   3.619 -0.7298  0.1524 -0.4951
  155OSM    H8F17339   2.839   6.042   3.600 -1.4087  1.0946  0.7151
  155OSM    H8G17340   2.923   6.158   3.703  1.2194  0.8179 -0.6321
  155OSM    C9F17341   3.024   5.967   3.656  0.0276 -0.1771 -0.0127
  155OSM    H9F17342   3.008   5.888   3.580  1.5119 -0.4757 -0.0365
  155OSM   C10F17343   3.104   5.958   3.758 -0.6354  0.5880 -0.3990
  155OSM   H10F17344   3.163   5.867   3.780 -1.1317  0.6865  1.5246
  155OSM   C11F17345   3.125   6.078   3.845 -0.2483  0.0270 -1.1455
  155OSM   H11F17346   3.034   6.101   3.904  1.3294 -0.6988  1.7591
  155OSM   H11G17347   3.144   6.169   3.783 -1.1861  1.0446  0.0058
  155OSM   C12F17348   3.246   6.068   3.945  0.1588  0.0718  0.4673
  155OSM   H12F17349   3.261   6.171   3.985 -0.6562 -0.5147  2.3465
  155OSM   H12G17350   3.344   6.060   3.892  0.4158 -0.7525  1.0577
  155OSM   C13F17351   3.228   5.963   4.053  0.1742  0.2154 -0.0043
  155OSM   H13F17352   3.240   5.859   4.014  2.0398 -0.2676  1.6593
  155OSM   H13G17353   3.126   5.966   4.096  1.1213  0.2873  2.3709
  155OSM   C14F17354   3.324   5.964   4.176  0.0817 -0.6859 -0.1742
  155OSM   H14F17355   3.297   6.061   4.225 -0.3804 -1.6921  1.6635
  155OSM   H14G17356   3.429   5.983   4.145 -0.3942  1.8716 -0.4879
  155OSM   C15F17357   3.301   5.840   4.252 -0.6762 -0.0663 -0.5256
  155OSM   H15F17358   3.349   5.748   4.213  2.6289 -0.6710  4.1891
  155OSM   H15G17359   3.191   5.824   4.261 -0.9804  1.3747 -1.4220
  155OSM   C16F17360   3.349   5.849   4.402 -0.2736 -0.8987  0.5758
  155OSM   H16F17361   3.451   5.892   4.397 -0.7121  0.2669  1.2656
  155OSM   H16G17362   3.353   5.742   4.434 -2.2047 -1.2376 -0.1837
  155OSM   C17F17363   3.266   5.933   4.495  0.5066 -0.0192  0.1991
  155OSM   H17F17364   3.160   5.899   4.502  0.7494 -0.8707 -0.2060
  155OSM   H17G17365   3.265   6.033   4.446  2.8156 -0.7318 -1.4591
  155OSM   C18F17366   3.320   5.938   4.632  0.0418  0.0768 -0.4794
  155OSM   H18F17367   3.278   6.023   4.689 -0.3303 -1.7350  2.1256
  155OSM   H18G17368   3.430   5.952   4.634 -0.2206  2.8079 -1.2681
  155OSM   H18H17369   3.308   5.846   4.694  0.1007  1.1591  1.1947
  156OSM      N17370   5.389   5.186   1.960  0.2121 -0.0594  0.7571
  156OSM    C1517371   5.330   5.129   1.830 -0.4087  0.0428 -0.4720
  156OSM   H15A17372   5.369   5.182   1.745  2.8093 -3.1289 -1.2127
  156OSM   H15B17373   5.224   5.132   1.848 -0.6796 -1.0443 -1.7791
  156OSM   H15C17374   5.364   5.029   1.808 -0.1214  0.4319 -1.8552
  156OSM    C1417375   5.345   5.103   2.078  0.2187  0.3817  0.4185
  156OSM   H14A17376   5.392   5.147   2.165  1.2701 -1.2543  0.7220
  156OSM   H14B17377   5.380   5.001   2.080  2.9795  1.2354  1.2630
  156OSM   H14C17378   5.237   5.100   2.076  0.2542 -0.3987 -1.0669
  156OSM    C1317379   5.540   5.182   1.968  0.2144  0.1629 -0.3965
  156OSM   H13A17380   5.576   5.081   1.978  2.6519  1.1075  1.4048
  156OSM   H13B17381   5.580   5.240   2.050  0.1120  1.3270 -1.1423
  156OSM   H13C17382   5.587   5.217   1.877 -1.2760  2.1015 -0.4725
  156OSM    C1217383   5.354   5.340   1.978 -0.8179 -0.1672  0.1992
  156OSM   H12A17384   5.255   5.360   1.940  0.4994 -0.2682 -3.7392
  156OSM   H12B17385   5.409   5.399   1.907 -2.5529  0.8303 -0.3848
  156OSM    C1117386   5.380   5.401   2.119 -0.1537  0.0422 -0.8626
  156OSM   H11A17387   5.324   5.333   2.187  0.7690 -1.3128 -1.4080
  156OSM   H11B17388   5.344   5.505   2.113  1.2334  0.4705 -2.3851
  156OSM      P17389   5.624   5.510   2.114  0.4476 -0.0916  0.1123
  156OSM    O1317390   5.753   5.488   2.180  0.8055  0.2912 -0.5986
  156OSM    O1417391   5.635   5.501   1.968  0.2969  0.8653  0.2167
  156OSM    O1117392   5.563   5.654   2.151 -0.6485 -0.3869 -0.0545
  156OSM    O1217393   5.516   5.399   2.156  0.5062  0.2927 -0.5934
  156OSM    C1S17394   5.491   5.661   2.281 -0.2740  0.3520  0.3039
  156OSM    H1S17395   5.437   5.566   2.305 -1.3315  0.6568 -0.8249
  156OSM    H1T17396   5.417   5.735   2.245  0.6619 -0.1380 -2.8921
  156OSM     NF17397   5.502   5.711   2.517  0.8423 -0.6239 -0.3297
  156OSM    HNF17398   5.474   5.801   2.548 -0.1512 -1.1706  0.4228
  156OSM    C2S17399   5.579   5.707   2.397 -0.5145 -0.3145  0.9364
  156OSM    H2S17400   5.658   5.634   2.425 -1.3229 -1.9785 -0.8160
  156OSM    C3S17401   5.665   5.836   2.356 -0.1663 -0.4291  0.8091
  156OSM    H3S17402   5.606   5.924   2.321  1.0732 -0.0281 -0.3865
  156OSM     O317403   5.761   5.811   2.254  0.0863 -0.2395  0.5813
  156OSM    HO317404   5.735   5.726   2.218  1.9670 -0.6077 -0.0522
  156OSM    C4S17405   5.746   5.871   2.477  0.1181 -0.0183 -0.0878
  156OSM    H4S17406   5.837   5.810   2.484  0.6044  0.6203 -0.6609
  156OSM    C5S17407   5.714   5.952   2.578 -0.5446 -0.2220  0.0416
  156OSM    H5S17408   5.627   6.017   2.557  0.1113  0.1643 -1.6645
  156OSM    C6S17409   5.800   5.976   2.700  0.2642 -0.0273 -0.0015
  156OSM    H6S17410   5.829   6.083   2.703  0.0831  0.0556 -0.8824
  156OSM    H6T17411   5.893   5.916   2.691  1.1004  1.1706  0.3951
  156OSM    C7S17412   5.734   5.930   2.829  0.2909  0.5501 -0.0647
  156OSM    H7S17413   5.704   5.824   2.813 -1.0169  1.0185 -0.8549
  156OSM    H7T17414   5.642   5.986   2.856 -0.6126 -1.0896  0.4582
  156OSM    C8S17415   5.846   5.936   2.945  0.0028  0.9366  0.4000
  156OSM    H8S17416   5.887   6.039   2.938 -0.0911  0.8693 -1.5819
  156OSM    H8T17417   5.928   5.869   2.911 -0.9677 -0.0125 -0.1297
  156OSM    C9S17418   5.785   5.919   3.086  1.0396  0.7637 -0.7234
  156OSM    H9S17419   5.722   5.828   3.096 -1.1656  2.4433  2.3234
  156OSM    H9T17420   5.711   6.001   3.101 -1.1966 -1.1945 -0.4782
  156OSM   C10S17421   5.890   5.939   3.194 -0.1429 -0.4311  0.6318
  156OSM   H10S17422   5.940   6.037   3.177 -0.2489 -0.2293  1.4374
  156OSM   H10T17423   5.973   5.867   3.182 -0.4673 -0.7530  0.2983
  156OSM   C11S17424   5.845   5.939   3.345  0.4879 -0.5095  0.7265
  156OSM   H11S17425   5.785   5.846   3.356  0.0407 -0.4708 -1.1007
  156OSM   H11T17426   5.773   6.023   3.352 -0.4030 -1.1323 -0.5689
  156OSM   C12S17427   5.955   5.958   3.447 -0.3148  0.6978  0.1530
  156OSM   H12S17428   5.998   6.060   3.435  2.3245 -0.2723  0.8279
  156OSM   H12T17429   6.044   5.894   3.432  0.3109  1.7964 -1.0819
  156OSM   C13S17430   5.906   5.932   3.593 -0.3421 -0.6190  0.4036
  156OSM   H13S17431   5.886   5.824   3.606  1.2147 -0.9077  0.6684
  156OSM   H13T17432   5.818   5.997   3.611 -0.2481  0.0152 -1.2286
  156OSM   C14S17433   6.007   5.982   3.702 -0.2674  0.0805  0.4129
  156OSM   H14S17434   6.001   6.092   3.690 -0.4110 -0.2146 -3.7223
  156OSM   H14T17435   6.108   5.959   3.662 -0.9562 -3.9468  0.5278
  156OSM   C15S17436   5.968   5.951   3.845  0.2605 -0.3058  0.5437
  156OSM   H15S17437   6.000   5.845   3.858  2.3063  0.2479  0.3449
  156OSM   H15T17438   5.857   5.957   3.848  0.2671 -0.3598  1.3965
  156OSM   C16S17439   6.040   6.041   3.954 -1.1581  0.1054 -0.0249
  156OSM   H16S17440   6.024   6.147   3.923  1.0414  0.8839  1.2799
  156OSM   H16T17441   6.149   6.025   3.965 -1.2771  0.1296  1.3232
  156OSM   C17S17442   5.976   6.020   4.092 -0.1859  0.0427  0.0923
  156OSM   H17S17443   6.052   6.070   4.157  1.2338 -1.4541 -0.3361
  156OSM   H17T17444   5.961   5.914   4.121  0.1176 -0.0727 -0.1586
  156OSM   C18S17445   5.840   6.095   4.116  1.0804 -0.9685  0.1833
  156OSM   H18S17446   5.855   6.202   4.092  0.5778 -1.1846 -1.2279
  156OSM   H18T17447   5.808   6.091   4.222  0.6696  2.1580  0.2548
  156OSM   H18U17448   5.768   6.054   4.042  0.0465 -0.1512  0.7284
  156OSM    C1F17449   5.461   5.608   2.586  0.2461  0.5293  0.1848
  156OSM     OF17450   5.518   5.498   2.589 -0.0580  0.3512 -0.3726
  156OSM    C2F17451   5.337   5.620   2.673 -0.6940  0.3274  0.6134
  156OSM    H2F17452   5.254   5.560   2.631 -0.0407  0.3142 -0.7280
  156OSM    H2G17453   5.320   5.730   2.680 -0.4921  0.2467  3.0416
  156OSM    C3F17454   5.378   5.579   2.822  0.2547 -0.0073  0.3100
  156OSM    H3F17455   5.464   5.638   2.860  0.0716  0.3703  0.1412
  156OSM    H3G17456   5.404   5.471   2.814  0.1492 -0.0086 -0.0658
  156OSM    C4F17457   5.254   5.593   2.917 -0.0837 -0.6703  0.0323
  156OSM    H4F17458   5.289   5.546   3.012  1.3129  0.5555  0.1669
  156OSM    H4G17459   5.173   5.534   2.871  0.1579 -0.6567 -0.4126
  156OSM    C5F17460   5.222   5.740   2.934 -0.1733  1.1375 -0.2324
  156OSM    H5F17461   5.158   5.778   2.852  1.3612 -0.0336 -2.0363
  156OSM    H5G17462   5.307   5.812   2.927 -0.5210  1.4346 -1.5636
  156OSM    C6F17463   5.147   5.762   3.072  0.1553  0.5845  0.2685
  156OSM    H6F17464   5.054   5.703   3.083 -1.2565  2.8449  1.4664
  156OSM    H6G17465   5.117   5.869   3.080  1.0478  0.7094  3.1577
  156OSM    C7F17466   5.234   5.745   3.196 -0.2700  0.3814 -0.1238
  156OSM    H7F17467   5.334   5.791   3.187 -1.1369  2.9378  1.9534
  156OSM    H7G17468   5.246   5.636   3.215 -0.2565  0.8069  2.8177
  156OSM    C8F17469   5.173   5.796   3.322 -0.3801  0.5117 -0.4590
  156OSM    H8F17470   5.132   5.897   3.300  0.9946  1.6131  1.6137
  156OSM    H8G17471   5.251   5.824   3.396 -1.0893  0.9403  0.1324
  156OSM    C9F17472   5.074   5.693   3.378  0.5120  0.0026  0.2177
  156OSM    H9F17473   4.992   5.681   3.306  1.8447 -0.6280 -1.2462
  156OSM   C10F17474   5.064   5.639   3.500 -0.3703  0.2190 -0.4214
  156OSM   H10F17475   4.979   5.574   3.526  0.5429 -1.1053 -0.6764
  156OSM   C11F17476   5.156   5.659   3.616  0.3071  0.5406  0.1105
  156OSM   H11F17477   5.228   5.744   3.610 -0.0371  0.7597 -1.3517
  156OSM   H11G17478   5.206   5.562   3.635 -1.1215 -0.3860 -0.7046
  156OSM   C12F17479   5.068   5.687   3.736  0.0101  0.4688 -0.4510
  156OSM   H12F17480   4.988   5.610   3.736 -0.4554  0.8855 -2.6819
  156OSM   H12G17481   5.010   5.781   3.722 -3.5474 -1.4388  0.3104
  156OSM   C13F17482   5.156   5.667   3.864  1.5995 -0.2853  0.3042
  156OSM   H13F17483   5.239   5.740   3.863  0.6923  0.7864  0.7204
  156OSM   H13G17484   5.200   5.565   3.871  1.1145 -0.4363  1.4790
  156OSM   C14F17485   5.072   5.687   3.988 -0.0521  0.2439  0.0566
  156OSM   H14F17486   4.970   5.649   3.966 -0.9671 -0.6079  4.6245
  156OSM   H14G17487   5.062   5.797   4.002 -1.0527  0.1129  0.4800
  156OSM   C15F17488   5.122   5.611   4.109 -0.2414  0.1112 -0.3439
  156OSM   H15F17489   5.099   5.506   4.079 -1.8651  0.1604  0.6200
  156OSM   H15G17490   5.074   5.626   4.208 -0.7565 -1.0946 -0.3856
  156OSM   C16F17491   5.273   5.607   4.126 -0.5630 -1.6457 -0.2778
  156OSM   H16F17492   5.326   5.649   4.038 -3.6842  3.0250 -0.2968
  156OSM   H16G17493   5.305   5.503   4.145 -0.3038 -1.5208 -0.0129
  156OSM   C17F17494   5.301   5.719   4.229  0.0014 -0.7473 -0.1232
  156OSM   H17F17495   5.248   5.701   4.324  0.0624  0.5477  0.1777
  156OSM   H17G17496   5.265   5.818   4.193 -0.3046 -0.7047  0.3031
  156OSM   C18F17497   5.454   5.736   4.254  0.2084  0.0556  0.2898
  156OSM   H18F17498   5.516   5.741   4.162 -0.9920 -2.0491 -0.6954
  156OSM   H18G17499   5.495   5.651   4.313  0.3653  0.1615  0.3354
  156OSM   H18H17500   5.466   5.831   4.311  3.6300 -1.9001  3.2307
  157OSM      N17501   6.141   5.948   2.248 -0.4090 -1.2231 -0.0265
  157OSM    C1517502   6.076   5.874   2.135  0.1029  0.6709 -0.5977
  157OSM   H15A17503   6.134   5.788   2.107  3.2655  2.1309  0.9818
  157OSM   H15B17504   6.056   5.945   2.056 -2.7258 -0.1284 -0.7355
  157OSM   H15C17505   5.973   5.844   2.149  0.3303 -0.0040 -0.3507
  157OSM    C1417506   6.038   6.050   2.288  0.4389  0.6557 -0.5879
  157OSM   H14A17507   5.948   6.003   2.324 -0.1796  2.0962 -0.1630
  157OSM   H14B17508   6.024   6.112   2.200  0.9195 -1.6332 -2.3741
  157OSM   H14C17509   6.077   6.115   2.365 -0.1011  0.6810 -0.3331
  157OSM    C1317510   6.165   5.860   2.363 -0.1770  0.2814 -0.7316
  157OSM   H13A17511   6.070   5.820   2.397  0.0821 -0.0229 -0.3558
  157OSM   H13B17512   6.219   5.915   2.439  1.4823  0.8325 -2.2385
  157OSM   H13C17513   6.219   5.770   2.336  0.1409  0.7530 -1.6844
  157OSM    C1217514   6.263   6.016   2.190 -0.4271  0.0719 -0.1605
  157OSM   H12A17515   6.242   6.075   2.102 -0.2042 -1.7602 -1.5032
  157OSM   H12B17516   6.323   5.932   2.158  1.2750  0.8709  0.7848
  157OSM    C1117517   6.349   6.098   2.277 -0.5825  0.1562 -0.2978
  157OSM   H11A17518   6.440   6.113   2.215  1.0180  3.7784  2.5468
  157OSM   H11B17519   6.375   6.054   2.376 -0.5217  1.0224  0.0783
  157OSM      P17520   6.337   6.349   2.223  0.1212 -0.0164  0.1026
  157OSM    O1317521   6.486   6.359   2.213  0.3652  0.6253 -0.1028
  157OSM    O1417522   6.268   6.337   2.091  0.4773  0.0259  0.0243
  157OSM    O1117523   6.292   6.479   2.300  0.5623 -0.1329 -0.4354
  157OSM    O1217524   6.294   6.220   2.309  0.2215  0.1105 -0.1986
  157OSM    C1S17525   6.218   6.461   2.423 -0.1771 -0.1532 -0.3044
  157OSM    H1S17526   6.289   6.423   2.499 -1.1912  0.5308  1.0223
  157OSM    H1T17527   6.141   6.384   2.401  0.2082 -0.1212 -1.9453
  157OSM     NF17528   6.098   6.613   2.592  0.5110 -0.5755 -0.2149
  157OSM    HNF17529   6.003   6.604   2.623  0.7701  2.3030  1.7340
  157OSM    C2S17530   6.135   6.598   2.457 -0.8405 -0.0697 -0.5550
  157OSM    H2S17531   6.200   6.683   2.430 -0.3044 -0.2762  0.0562
  157OSM    C3S17532   6.023   6.602   2.355  0.0641 -0.3631 -0.3569
  157OSM    H3S17533   5.958   6.512   2.354 -4.0245  2.3553 -0.7162
  157OSM     O317534   6.064   6.627   2.221 -0.1453 -0.1768 -0.0671
  157OSM    HO317535   6.159   6.613   2.221 -0.2533 -1.1340 -1.3729
  157OSM    C4S17536   5.939   6.721   2.388 -0.2849 -0.5207 -0.1129
  157OSM    H4S17537   5.971   6.816   2.342 -1.1715  0.4011  1.0810
  157OSM    C5S17538   5.820   6.713   2.455 -0.3999 -0.6133  0.6808
  157OSM    H5S17539   5.784   6.612   2.476  0.1051 -1.1321 -0.8227
  157OSM    C6S17540   5.734   6.831   2.492 -0.5265 -0.1494  0.0768
  157OSM    H6S17541   5.633   6.829   2.446 -0.3879 -1.7168 -0.2318
  157OSM    H6T17542   5.782   6.923   2.454 -1.8971  1.5032  2.1695
  157OSM    C7S17543   5.724   6.837   2.639 -0.5195  0.0982 -0.5495
  157OSM    H7S17544   5.671   6.748   2.680  1.0074 -0.6775 -0.1840
  157OSM    H7T17545   5.668   6.929   2.667  0.5693  0.2387  1.2592
  157OSM    C8S17546   5.847   6.874   2.717 -0.3189 -0.3685  0.1819
  157OSM    H8S17547   5.894   6.958   2.660 -1.9338  0.9690  0.7483
  157OSM    H8T17548   5.907   6.781   2.725 -2.5231 -2.0141 -1.2546
  157OSM    C9S17549   5.836   6.930   2.860  0.0118  0.5662 -0.3125
  157OSM    H9S17550   5.791   7.030   2.843 -0.3625  0.6824  1.2674
  157OSM    H9T17551   5.939   6.937   2.902  0.0911 -1.5696 -0.0112
  157OSM   C10S17552   5.745   6.839   2.938  0.3594 -0.0627 -0.3176
  157OSM   H10S17553   5.773   6.732   2.930 -1.5834 -0.8101  1.6526
  157OSM   H10T17554   5.644   6.842   2.892 -0.9988  0.7101  2.4905
  157OSM   C11S17555   5.742   6.892   3.088 -0.2512  0.1613  0.4005
  157OSM   H11S17556   5.713   6.999   3.090 -0.6490  0.2543 -3.2193
  157OSM   H11T17557   5.850   6.886   3.113  0.3367  0.3315 -1.8480
  157OSM   C12S17558   5.670   6.801   3.185  0.3294 -0.3148  0.2629
  157OSM   H12S17559   5.719   6.701   3.179 -1.5016 -1.4670  2.8983
  157OSM   H12T17560   5.563   6.774   3.171 -0.3753  1.1155  2.4747
  157OSM   C13S17561   5.697   6.862   3.323 -0.0340  0.0663 -0.1592
  157OSM   H13S17562   5.791   6.922   3.321 -0.3208  0.6647  2.1357
  157OSM   H13T17563   5.706   6.786   3.403  2.8299 -2.6558 -2.7717
  157OSM   C14S17564   5.596   6.965   3.367  0.1538 -0.6663 -0.3309
  157OSM   H14S17565   5.492   6.927   3.356 -0.6421  0.5227  2.3133
  157OSM   H14T17566   5.612   7.054   3.303  0.8745 -0.6846 -0.1939
  157OSM   C15S17567   5.620   7.015   3.517  0.2143 -0.7876 -0.2253
  157OSM   H15S17568   5.564   7.107   3.545  1.5193 -0.5843  1.8840
  157OSM   H15T17569   5.725   7.050   3.511  0.4865 -1.4496  0.5552
  157OSM   C16S17570   5.597   6.911   3.629  0.3759  0.5866 -0.5129
  157OSM   H16S17571   5.627   6.809   3.599  1.5408  0.7380  0.0951
  157OSM   H16T17572   5.488   6.907   3.651  0.0168  0.3429 -2.1911
  157OSM   C17S17573   5.659   6.948   3.761  0.4591  0.8563 -0.1316
  157OSM   H17S17574   5.600   7.036   3.794 -0.2049  2.2217 -4.4567
  157OSM   H17T17575   5.767   6.973   3.759  0.9320 -1.0196 -2.5106
  157OSM   C18S17576   5.638   6.836   3.870 -0.6365 -0.2375 -0.0184
  157OSM   H18S17577   5.696   6.849   3.964  0.7792  2.1975 -1.1261
  157OSM   H18T17578   5.661   6.737   3.824 -0.9935  0.8786 -2.7846
  157OSM   H18U17579   5.530   6.830   3.895 -0.5324  1.3980  0.9920
  157OSM    C1F17580   6.186   6.636   2.692  0.2413  0.2786 -0.6810
  157OSM     OF17581   6.300   6.669   2.660 -0.1265  0.1204 -0.7990
  157OSM    C2F17582   6.133   6.611   2.832  0.2680  0.1797 -0.3451
  157OSM    H2F17583   6.163   6.509   2.863  3.2805  1.1426  0.2475
  157OSM    H2G17584   6.022   6.613   2.822  0.3382 -1.0195 -1.6164
  157OSM    C3F17585   6.174   6.715   2.940  0.1705 -0.8047  0.3778
  157OSM    H3F17586   6.135   6.812   2.903  0.9978  0.0786  1.7346
  157OSM    H3G17587   6.284   6.717   2.953  0.1960 -1.7021  0.3346
  157OSM    C4F17588   6.104   6.688   3.079 -0.2458  0.1163 -0.2899
  157OSM    H4F17589   6.150   6.592   3.109 -0.2712  0.6351  1.5177
  157OSM    H4G17590   5.994   6.672   3.074 -0.3700  0.8000  0.1098
  157OSM    C5F17591   6.136   6.803   3.179 -0.3059  0.6742  0.2592
  157OSM    H5F17592   6.105   6.901   3.135 -2.3263  0.8666  1.9143
  157OSM    H5G17593   6.247   6.810   3.181 -0.0185 -0.4388 -3.5539
  157OSM    C6F17594   6.077   6.785   3.321  0.0108 -0.2084 -0.4898
  157OSM    H6F17595   6.122   6.694   3.367  0.6189  1.4235  2.4240
  157OSM    H6G17596   5.967   6.776   3.305  0.1101  0.9590 -2.0043
  157OSM    C7F17597   6.096   6.908   3.418 -0.0031 -0.6871 -0.5096
  157OSM    H7F17598   6.040   6.995   3.378  0.6990 -0.7619 -1.7116
  157OSM    H7G17599   6.205   6.927   3.426  0.2830 -2.7172  1.6568
  157OSM    C8F17600   6.044   6.865   3.564  0.5238  0.2558  0.5683
  157OSM    H8F17601   6.091   6.767   3.588 -1.7703 -0.5819  1.9499
  157OSM    H8G17602   5.936   6.842   3.551  0.6473 -0.0742  0.1032
  157OSM    C9F17603   6.075   6.976   3.662  0.5451 -0.6787  0.2054
  157OSM    H9F17604   6.116   7.071   3.625 -4.1452  1.9166  0.8094
  157OSM   C10F17605   6.059   6.969   3.796 -0.3477  0.2806 -0.6583
  157OSM   H10F17606   6.098   7.055   3.851 -1.2751 -0.3567  1.0705
  157OSM   C11F17607   6.025   6.842   3.877 -0.1943  0.1615 -0.0990
  157OSM   H11F17608   5.944   6.798   3.815 -1.1781  2.3752 -0.4887
  157OSM   H11G17609   5.962   6.859   3.967 -0.6331 -0.2878 -0.3163
  157OSM   C12F17610   6.139   6.751   3.925 -0.1140 -0.2834  0.3416
  157OSM   H12F17611   6.217   6.755   3.846 -2.1421  2.3105 -1.7100
  157OSM   H12G17612   6.106   6.646   3.943 -0.2133 -0.5046 -1.0431
  157OSM   C13F17613   6.205   6.788   4.061 -0.2313 -0.0722 -0.4877
  157OSM   H13F17614   6.264   6.882   4.059 -1.4276  0.7323  0.2684
  157OSM   H13G17615   6.285   6.713   4.076  0.3310  0.6177  0.0212
  157OSM   C14F17616   6.122   6.784   4.186 -0.3509 -0.0678 -0.0703
  157OSM   H14F17617   6.041   6.859   4.172  0.1115  0.1384 -1.9035
  157OSM   H14G17618   6.174   6.830   4.272  0.1898  1.3414 -1.1118
  157OSM   C15F17619   6.046   6.653   4.217  0.4746 -0.4541 -0.2695
  157OSM   H15F17620   5.991   6.616   4.128 -0.2847  3.0208 -1.3704
  157OSM   H15G17621   5.984   6.671   4.308 -1.3587  0.3960 -1.6210
  157OSM   C16F17622   6.143   6.548   4.255  0.1658  0.7004 -0.4049
  157OSM   H16F17623   6.204   6.566   4.346  0.4747  0.1217 -0.4916
  157OSM   H16G17624   6.219   6.532   4.175  0.0579  0.8722 -0.5425
  157OSM   C17F17625   6.077   6.406   4.271 -0.0277  1.1632 -0.0048
  157OSM   H17F17626   6.049   6.389   4.165  0.9467  0.5404 -0.1826
  157OSM   H17G17627   5.985   6.410   4.334  0.5899 -1.3021  1.1940
  157OSM   C18F17628   6.182   6.310   4.318  0.2859  0.0991  0.0185
  157OSM   H18F17629   6.149   6.204   4.330  0.2596 -0.1576 -1.9638
  157OSM   H18G17630   6.224   6.335   4.418 -2.4166 -0.3530  1.3518
  157OSM   H18H17631   6.267   6.310   4.245  1.1315 -0.0206  0.9815
  158OSM      N17632   1.281   5.095   1.967  0.7736  0.7022  0.3279
  158OSM    C1517633   1.412   5.160   1.943 -0.4324 -0.2314 -1.3357
  158OSM   H15A17634   1.444   5.202   2.038 -1.7128 -0.4233 -0.8042
  158OSM   H15B17635   1.403   5.240   1.872  0.7302  0.3281 -0.8872
  158OSM   H15C17636   1.483   5.089   1.904  0.5562  0.0709 -0.1617
  158OSM    C1417637   1.236   5.033   1.838  0.3268 -0.0293 -1.1208
  158OSM   H14A17638   1.295   4.944   1.817  0.2225  0.3621 -3.2322
  158OSM   H14B17639   1.255   5.102   1.758 -1.0138  1.7604  0.0433
  158OSM   H14C17640   1.136   4.994   1.844  0.9895 -1.7437 -0.1495
  158OSM    C1317641   1.303   4.977   2.052  0.5333  0.4866 -1.0755
  158OSM   H13A17642   1.335   5.001   2.153  0.0529 -1.3598 -0.4439
  158OSM   H13B17643   1.380   4.916   2.008  1.4046  0.7702 -0.0047
  158OSM   H13C17644   1.220   4.909   2.058 -0.5167  1.7662 -0.5954
  158OSM    C1217645   1.173   5.178   2.027 -0.0222 -0.7417 -0.4582
  158OSM   H12A17646   1.197   5.180   2.132  0.8220 -1.8104 -0.6117
  158OSM   H12B17647   1.076   5.133   2.011  0.3470 -1.8356  0.2209
  158OSM    C1117648   1.169   5.320   1.972 -0.4984  0.1736  0.5973
  158OSM   H11A17649   1.076   5.369   2.008 -1.2893  1.3693 -2.6558
  158OSM   H11B17650   1.169   5.311   1.861  0.0459 -0.0953  0.6159
  158OSM      P17651   1.307   5.543   1.998 -0.1939 -0.1721  0.2266
  158OSM    O1317652   1.450   5.549   2.012  0.0851 -0.0072  0.0877
  158OSM    O1417653   1.262   5.570   1.863 -0.6613 -0.1996  0.5651
  158OSM    O1117654   1.239   5.629   2.110 -0.2142  0.4320  0.8560
  158OSM    O1217655   1.278   5.394   2.029 -0.1870 -0.1473  0.6971
  158OSM    C1S17656   1.215   5.578   2.242 -0.3885 -0.7548 -0.2112
  158OSM    H1S17657   1.204   5.467   2.245 -0.4066 -0.7361  0.7041
  158OSM    H1T17658   1.119   5.624   2.272  2.0636  3.1146  2.6148
  158OSM     NF17659   1.274   5.592   2.478  0.0509  0.3664 -0.0752
  158OSM    HNF17660   1.229   5.665   2.529  4.2017  1.8790  1.8436
  158OSM    C2S17661   1.319   5.627   2.352  0.3958  0.2903  0.3546
  158OSM    H2S17662   1.405   5.563   2.322  0.0889 -0.1045  0.3033
  158OSM    C3S17663   1.355   5.772   2.336 -0.8321 -0.4823  0.6209
  158OSM    H3S17664   1.264   5.836   2.335 -0.3074  0.3121 -1.3596
  158OSM     O317665   1.417   5.804   2.211 -0.1925 -0.6005  0.4188
  158OSM    HO317666   1.421   5.728   2.152  0.4401  1.7933 -2.9287
  158OSM    C4S17667   1.441   5.808   2.452 -0.3483  0.0130  0.1775
  158OSM    H4S17668   1.383   5.846   2.538  0.2130  0.9108  0.1777
  158OSM    C5S17669   1.576   5.811   2.452 -0.2447  0.0276 -0.2746
  158OSM    H5S17670   1.637   5.786   2.363  0.2121  0.0766  0.0191
  158OSM    C6S17671   1.655   5.868   2.564  0.1312 -0.9737 -0.1912
  158OSM    H6S17672   1.655   5.979   2.567 -1.5029 -0.9619  0.3404
  158OSM    H6T17673   1.764   5.858   2.543  0.8496  1.7736  1.6510
  158OSM    C7S17674   1.620   5.812   2.701  0.1336  0.4810  0.2891
  158OSM    H7S17675   1.632   5.704   2.680  0.3817  0.8569 -1.6440
  158OSM    H7T17676   1.519   5.841   2.736  0.5962  0.0869  2.0626
  158OSM    C8S17677   1.716   5.854   2.817  0.4000  0.0369  0.3923
  158OSM    H8S17678   1.717   5.965   2.813  1.2564  0.0056 -1.4752
  158OSM    H8T17679   1.820   5.816   2.803  0.4515  0.5736 -0.8897
  158OSM    C9S17680   1.662   5.805   2.950 -0.4499 -0.6410 -0.7064
  158OSM    H9S17681   1.685   5.697   2.945 -0.7936 -0.7415 -0.1455
  158OSM    H9T17682   1.553   5.830   2.958  0.1299  2.1530 -0.3218
  158OSM   C10S17683   1.729   5.868   3.068 -0.1338 -0.5153 -0.3335
  158OSM   H10S17684   1.689   5.971   3.075  0.0729 -0.5412  1.5987
  158OSM   H10T17685   1.840   5.869   3.062 -0.0627 -0.7424  0.7684
  158OSM   C11S17686   1.710   5.808   3.210  0.6594 -0.3759 -0.4200
  158OSM   H11S17687   1.612   5.835   3.255  1.1811  0.6282  0.1501
  158OSM   H11T17688   1.784   5.841   3.287  1.2105 -4.2772  0.9949
  158OSM   C12S17689   1.717   5.657   3.213  0.1158 -0.1637  0.6484
  158OSM   H12S17690   1.814   5.625   3.169  0.5643  0.1089  1.4123
  158OSM   H12T17691   1.624   5.623   3.164 -0.0040  1.2955 -0.1923
  158OSM   C13S17692   1.719   5.592   3.359  0.0600 -0.0447 -0.3578
  158OSM   H13S17693   1.712   5.482   3.344  4.3603 -0.7952  1.7136
  158OSM   H13T17694   1.630   5.626   3.417 -0.2975 -0.5801 -0.5747
  158OSM   C14S17695   1.837   5.625   3.450 -0.2959 -0.3736 -0.5376
  158OSM   H14S17696   1.819   5.730   3.482  0.4671 -0.2386 -0.5363
  158OSM   H14T17697   1.940   5.626   3.407  1.3005 -1.2786  2.8969
  158OSM   C15S17698   1.835   5.541   3.579 -0.1516 -0.5251  0.6391
  158OSM   H15S17699   1.859   5.435   3.559  0.0320 -0.6828  1.6068
  158OSM   H15T17700   1.730   5.538   3.614 -0.3709 -0.0075  0.0455
  158OSM   C16S17701   1.938   5.581   3.681 -0.4444 -0.1638 -0.2379
  158OSM   H16S17702   1.902   5.669   3.738  0.9545 -1.1151  2.3105
  158OSM   H16T17703   2.036   5.580   3.629 -0.4586  0.8619 -0.3092
  158OSM   C17S17704   1.955   5.475   3.793  0.0411  0.0833  0.4967
  158OSM   H17S17705   1.997   5.383   3.746 -3.9294 -1.2423 -0.7972
  158OSM   H17T17706   1.861   5.426   3.826  1.3587 -2.4559  0.7861
  158OSM   C18S17707   2.042   5.515   3.907  0.1478 -0.0444 -0.4097
  158OSM   H18S17708   2.053   5.443   3.992  3.9311 -0.0354 -0.7152
  158OSM   H18T17709   2.019   5.617   3.944 -0.1835 -0.0553 -0.5843
  158OSM   H18U17710   2.143   5.519   3.860  0.0467  2.1812 -0.5321
  158OSM    C1F17711   1.263   5.459   2.523 -0.2586 -0.1904  0.8329
  158OSM     OF17712   1.278   5.362   2.450  0.0719  0.5918  0.4311
  158OSM    C2F17713   1.231   5.441   2.664  0.4689 -0.0913  0.2800
  158OSM    H2F17714   1.192   5.343   2.699  0.9693  0.0915  1.3830
  158OSM    H2G17715   1.149   5.514   2.679  1.5928  1.2102  0.3239
  158OSM    C3F17716   1.356   5.474   2.754  0.4111  0.0661  0.0832
  158OSM    H3F17717   1.385   5.581   2.742 -3.3769  1.0492 -1.8636
  158OSM    H3G17718   1.441   5.406   2.732  0.5786  0.0044  0.8720
  158OSM    C4F17719   1.326   5.434   2.901 -0.1504  0.0797 -0.7566
  158OSM    H4F17720   1.258   5.346   2.905 -1.3969  1.0542  0.8703
  158OSM    H4G17721   1.263   5.515   2.943  0.5011 -0.1150  0.6577
  158OSM    C5F17722   1.449   5.425   2.996  0.9269 -0.3754  0.7983
  158OSM    H5F17723   1.517   5.504   2.957 -0.6923  1.2653  1.1433
  158OSM    H5G17724   1.484   5.320   2.987  0.7293 -0.3711 -0.2034
  158OSM    C6F17725   1.426   5.440   3.148 -1.1478 -0.1868  0.0230
  158OSM    H6F17726   1.416   5.547   3.177  0.4885 -0.0449  0.1946
  158OSM    H6G17727   1.518   5.404   3.198  0.0667 -0.8244 -2.4713
  158OSM    C7F17728   1.304   5.379   3.206 -0.3918 -0.1371 -0.4996
  158OSM    H7F17729   1.295   5.271   3.181 -0.2842 -0.3855  0.4878
  158OSM    H7G17730   1.218   5.427   3.154 -2.1644 -1.7297  0.8107
  158OSM    C8F17731   1.280   5.397   3.359  0.4117 -0.5678 -0.0109
  158OSM    H8F17732   1.190   5.335   3.378  0.5042 -0.5029  0.6687
  158OSM    H8G17733   1.250   5.502   3.380 -1.8067 -1.4289  1.5167
  158OSM    C9F17734   1.381   5.344   3.453 -0.0401 -0.0851  0.0691
  158OSM    H9F17735   1.422   5.243   3.438  0.7892 -0.1140  2.1852
  158OSM   C10F17736   1.440   5.411   3.552  0.1106  0.7333 -0.0133
  158OSM   H10F17737   1.512   5.354   3.612  0.5359 -0.3181 -1.4549
  158OSM   C11F17738   1.419   5.552   3.604  0.0465  0.0241 -0.3809
  158OSM   H11F17739   1.370   5.610   3.522  1.0360  1.2222 -0.1521
  158OSM   H11G17740   1.506   5.612   3.637  0.7591 -0.5696 -1.1350
  158OSM   C12F17741   1.319   5.547   3.721 -0.4769 -0.0497  0.1745
  158OSM   H12F17742   1.228   5.490   3.691  0.1000 -0.3571 -1.0681
  158OSM   H12G17743   1.294   5.652   3.747  1.8574 -0.0173  2.7569
  158OSM   C13F17744   1.389   5.482   3.846 -0.0791  0.0835  0.8070
  158OSM   H13F17745   1.382   5.373   3.825  0.2239  0.0340  0.9557
  158OSM   H13G17746   1.323   5.491   3.935 -0.0462  1.3734  0.7180
  158OSM   C14F17747   1.530   5.509   3.882  1.3066  0.5406 -0.0200
  158OSM   H14F17748   1.543   5.618   3.898 -0.0159  0.8757 -1.0334
  158OSM   H14G17749   1.588   5.487   3.790  1.0785  3.5495 -1.0132
  158OSM   C15F17750   1.574   5.435   4.004 -0.9805 -0.0729  0.1474
  158OSM   H15F17751   1.685   5.426   4.004 -1.0462 -1.0521 -0.4656
  158OSM   H15G17752   1.537   5.330   3.999  0.5558 -0.6895  0.9503
  158OSM   C16F17753   1.532   5.495   4.138 -0.3088 -0.2701 -0.0871
  158OSM   H16F17754   1.422   5.487   4.150 -0.4152  0.8442 -0.2377
  158OSM   H16G17755   1.556   5.603   4.144  2.0843 -0.7379 -0.2842
  158OSM   C17F17756   1.598   5.411   4.250  0.1628 -0.9918  0.4721
  158OSM   H17F17757   1.599   5.302   4.232 -1.6877 -0.6530 -2.2613
  158OSM   H17G17758   1.520   5.424   4.329 -3.3241 -0.5845 -2.7604
  158OSM   C18F17759   1.728   5.461   4.294 -0.5037  0.5841  0.0210
  158OSM   H18F17760   1.804   5.415   4.228 -0.2130 -0.8666  1.3223
  158OSM   H18G17761   1.749   5.418   4.394  1.7258  1.3619 -0.0458
  158OSM   H18H17762   1.745   5.571   4.301 -1.3081  0.6890  0.5339
  159OSM      N17763   5.660   6.570   1.875 -0.3170  0.1050  0.5194
  159OSM    C1517764   5.712   6.658   1.765  1.0198  0.3889  0.1344
  159OSM   H15A17765   5.652   6.745   1.784 -1.4385 -1.5936  2.2426
  159OSM   H15B17766   5.685   6.617   1.669 -1.3343  0.6167  0.6428
  159OSM   H15C17767   5.819   6.676   1.770  1.2025  0.6590 -2.8220
  159OSM    C1417768   5.508   6.554   1.849  0.1948  0.2811  0.0686
  159OSM   H14A17769   5.463   6.639   1.800  1.1773 -0.3213 -1.9974
  159OSM   H14B17770   5.463   6.530   1.944  1.1947  1.5683  0.8917
  159OSM   H14C17771   5.486   6.467   1.788 -0.0108  0.3185  0.0867
  159OSM    C1317772   5.728   6.440   1.858 -0.3927  0.1793  0.4793
  159OSM   H13A17773   5.834   6.448   1.877  0.5800 -2.0561 -2.8898
  159OSM   H13B17774   5.722   6.408   1.755  2.7857  1.0220 -0.0930
  159OSM   H13C17775   5.696   6.358   1.920 -1.8910 -1.1254 -1.8604
  159OSM    C1217776   5.682   6.631   2.008 -0.2109  0.0430  0.1850
  159OSM   H12A17777   5.630   6.727   2.010  1.3530  1.0334 -1.9896
  159OSM   H12B17778   5.784   6.664   2.019  0.1693 -0.9796 -0.2206
  159OSM    C1117779   5.647   6.559   2.138  0.5389 -0.5906  0.3246
  159OSM   H11A17780   5.545   6.517   2.145 -0.6168  2.1375  0.9568
  159OSM   H11B17781   5.637   6.632   2.221  0.0678  0.5482 -0.7026
  159OSM      P17782   5.730   6.349   2.266 -0.3307 -0.5262  0.4156
  159OSM    O1317783   5.623   6.266   2.209  0.1494 -0.0095 -0.3424
  159OSM    O1417784   5.854   6.281   2.307  0.4609 -0.3808 -1.2057
  159OSM    O1117785   5.660   6.436   2.385  0.9314  0.0097 -0.0794
  159OSM    O1217786   5.758   6.470   2.164  0.1834  0.4467  0.4682
  159OSM    C1S17787   5.621   6.361   2.500  0.9488  1.0940 -0.6107
  159OSM    H1S17788   5.694   6.286   2.536  0.3424 -1.2337 -3.8160
  159OSM    H1T17789   5.543   6.286   2.476  1.5211  0.3242 -0.1024
  159OSM     NF17790   5.627   6.397   2.752  0.5224 -0.1611 -0.1705
  159OSM    HNF17791   5.564   6.345   2.809  1.4613 -0.4057  0.6674
  159OSM    C2S17792   5.581   6.447   2.624  0.0167 -0.7684 -0.3646
  159OSM    H2S17793   5.618   6.551   2.614  1.5293 -0.7640  3.4984
  159OSM    C3S17794   5.430   6.469   2.613  0.2658  0.0883 -0.0343
  159OSM    H3S17795   5.381   6.372   2.634 -0.5273  0.0263 -1.9425
  159OSM     O317796   5.392   6.497   2.478  0.6782  0.2760 -0.5533
  159OSM    HO317797   5.472   6.485   2.427 -0.1494 -0.9563 -1.6087
  159OSM    C4S17798   5.388   6.584   2.705  0.3510  0.0274  0.0793
  159OSM    H4S17799   5.346   6.556   2.803 -1.1474 -2.1385 -1.0777
  159OSM    C5S17800   5.367   6.714   2.671 -0.2491 -0.2308 -0.3255
  159OSM    H5S17801   5.386   6.741   2.566  2.2977  0.0727  0.1346
  159OSM    C6S17802   5.316   6.821   2.769  0.4866 -0.5860  0.4766
  159OSM    H6S17803   5.246   6.885   2.711  0.8798 -1.6040 -1.1802
  159OSM    H6T17804   5.407   6.884   2.786  1.0375 -1.1630 -0.2960
  159OSM    C7S17805   5.230   6.782   2.890  0.5483  0.1702 -0.2456
  159OSM    H7S17806   5.140   6.722   2.868 -0.2039  1.0031  0.4703
  159OSM    H7T17807   5.189   6.881   2.921  0.5533  0.2270 -0.4212
  159OSM    C8S17808   5.295   6.752   3.034 -0.3523 -0.5573  0.3759
  159OSM    H8S17809   5.336   6.849   3.068  0.8213 -0.2602 -1.7016
  159OSM    H8T17810   5.378   6.680   3.019 -1.8980 -2.2956 -0.2757
  159OSM    C9S17811   5.193   6.709   3.139 -0.1172 -0.1632  0.2249
  159OSM    H9S17812   5.157   6.606   3.119  1.3398 -0.7315  0.3388
  159OSM    H9T17813   5.108   6.780   3.140  1.1035  1.4789  3.3223
  159OSM   C10S17814   5.261   6.717   3.278 -0.5993  0.6357 -0.3624
  159OSM   H10S17815   5.286   6.822   3.306  0.7439  0.3973 -0.5588
  159OSM   H10T17816   5.350   6.653   3.296 -1.1652  0.4379  1.9946
  159OSM   C11S17817   5.165   6.658   3.382  0.8795 -0.7032  0.2683
  159OSM   H11S17818   5.136   6.558   3.344  0.7581 -1.1659  1.5543
  159OSM   H11T17819   5.076   6.725   3.370  1.8313  0.8254  1.3283
  159OSM   C12S17820   5.219   6.658   3.527 -0.5288  0.2372  0.3827
  159OSM   H12S17821   5.265   6.758   3.540  5.4296 -1.2392 -4.6700
  159OSM   H12T17822   5.307   6.593   3.544 -1.3655 -0.5826  1.7539
  159OSM   C13S17823   5.116   6.634   3.636  0.2163 -0.4445 -0.1616
  159OSM   H13S17824   5.053   6.543   3.629 -0.1301 -0.3074  0.9621
  159OSM   H13T17825   5.035   6.703   3.605 -1.4008 -2.5876 -1.0086
  159OSM   C14S17826   5.168   6.639   3.774 -0.1243  0.5804 -1.1502
  159OSM   H14S17827   5.198   6.744   3.794  0.8427  0.0927  0.0917
  159OSM   H14T17828   5.257   6.573   3.766 -0.5819  0.0750 -2.3528
  159OSM   C15S17829   5.071   6.592   3.882  0.0948 -0.5007 -0.8778
  159OSM   H15S17830   5.056   6.486   3.853  2.4269 -0.7140 -1.4901
  159OSM   H15T17831   4.975   6.648   3.889  0.3297 -0.0610 -1.1161
  159OSM   C16S17832   5.129   6.607   4.025  0.2460  0.1677 -0.6440
  159OSM   H16S17833   5.124   6.716   4.046  0.0049  0.5057 -2.2803
  159OSM   H16T17834   5.236   6.577   4.031  0.2777  0.5728  1.6652
  159OSM   C17S17835   5.055   6.531   4.132 -0.0549 -0.0549 -0.1413
  159OSM   H17S17836   5.064   6.423   4.110  1.1460 -0.0514  0.2878
  159OSM   H17T17837   4.952   6.573   4.141 -0.0983 -0.5638  3.5094
  159OSM   C18S17838   5.120   6.543   4.273 -0.0349 -0.5123 -0.3816
  159OSM   H18S17839   5.069   6.477   4.347 -2.5397  3.0766  1.4399
  159OSM   H18T17840   5.096   6.646   4.310  1.3244  0.3553 -1.8045
  159OSM   H18U17841   5.229   6.530   4.262  0.1327  1.9772 -2.6631
  159OSM    C1F17842   5.759   6.402   2.772 -0.0436  0.5099  0.0086
  159OSM     OF17843   5.842   6.446   2.693 -0.0071  0.0871  0.7465
  159OSM    C2F17844   5.797   6.334   2.898  0.1416 -0.0562 -0.1708
  159OSM    H2F17845   5.892   6.278   2.886 -0.0969 -0.5993  0.3745
  159OSM    H2G17846   5.717   6.262   2.928  0.3146  0.0665  0.5992
  159OSM    C3F17847   5.824   6.435   3.018 -0.4594  0.2813 -0.5408
  159OSM    H3F17848   5.731   6.489   3.046  0.9418  2.7088 -0.3392
  159OSM    H3G17849   5.908   6.505   3.000 -0.1127 -0.2788 -1.1701
  159OSM    C4F17850   5.866   6.343   3.143  0.3885  0.0066 -0.4278
  159OSM    H4F17851   5.967   6.301   3.125  1.1102  0.6221  1.8071
  159OSM    H4G17852   5.800   6.254   3.152 -0.4696  0.7204  0.5620
  159OSM    C5F17853   5.884   6.420   3.274 -0.0585  0.1280  0.4833
  159OSM    H5F17854   5.945   6.511   3.258 -1.5151  1.1633  0.5495
  159OSM    H5G17855   5.929   6.352   3.349  1.5284  0.8393  0.2070
  159OSM    C6F17856   5.748   6.444   3.337  0.7724  0.0787 -0.0136
  159OSM    H6F17857   5.705   6.346   3.368  0.4458  0.3434  0.3905
  159OSM    H6G17858   5.680   6.486   3.260 -2.1652 -0.9281  1.8461
  159OSM    C7F17859   5.734   6.516   3.474  0.0666 -0.3162  0.2087
  159OSM    H7F17860   5.625   6.524   3.494  0.3260  2.1211  0.9943
  159OSM    H7G17861   5.765   6.620   3.448  0.5187 -0.5602 -0.2635
  159OSM    C8F17862   5.826   6.473   3.592  0.1101  0.7411 -0.2111
  159OSM    H8F17863   5.841   6.560   3.660  2.9590  0.8464 -0.8266
  159OSM    H8G17864   5.926   6.467   3.544 -0.3191  0.5680 -1.1026
  159OSM    C9F17865   5.785   6.335   3.645 -0.2223 -0.8191 -0.2624
  159OSM    H9F17866   5.780   6.254   3.570  0.9197 -1.2613  0.1294
  159OSM   C10F17867   5.776   6.313   3.777  0.5991 -1.0506 -0.4610
  159OSM   H10F17868   5.752   6.208   3.798  0.1395 -1.5114 -2.9647
  159OSM   C11F17869   5.803   6.413   3.891 -0.5126  0.3767  0.4234
  159OSM   H11F17870   5.827   6.516   3.856 -0.7828  0.6471  1.0303
  159OSM   H11G17871   5.895   6.375   3.940 -0.9913 -0.9635  0.3160
  159OSM   C12F17872   5.681   6.421   3.986  0.0440  1.0202  1.3461
  159OSM   H12F17873   5.666   6.318   4.023 -1.9835  1.2914  1.3767
  159OSM   H12G17874   5.586   6.448   3.936 -0.4246  0.5837  1.9911
  159OSM   C13F17875   5.704   6.507   4.113  0.8309  0.5246 -0.2849
  159OSM   H13F17876   5.735   6.612   4.092  2.7354  0.1561  0.4726
  159OSM   H13G17877   5.788   6.469   4.174 -0.6930 -0.4646  1.2970
  159OSM   C14F17878   5.600   6.499   4.232  0.1639  0.2102  0.2887
  159OSM   H14F17879   5.596   6.392   4.259 -0.4367  0.1073 -0.1867
  159OSM   H14G17880   5.496   6.531   4.209  0.1067 -1.1161 -1.4298
  159OSM   C15F17881   5.636   6.584   4.353 -0.0349  0.4717 -0.2080
  159OSM   H15F17882   5.654   6.691   4.329  1.3800  0.5557  1.0660
  159OSM   H15G17883   5.731   6.553   4.401  0.4892  0.2291 -1.3609
  159OSM   C16F17884   5.535   6.578   4.467  0.2167 -0.6005  0.5800
  159OSM   H16F17885   5.576   6.574   4.570 -1.2942  0.4735  1.2676
  159OSM   H16G17886   5.501   6.472   4.461  0.6902 -0.7528  0.5568
  159OSM   C17F17887   5.426   6.687   4.457 -0.4351  0.0794  0.5021
  159OSM   H17F17888   5.398   6.705   4.351  1.3594  0.8167  0.1175
  159OSM   H17G17889   5.470   6.786   4.480 -0.4818 -0.0038  0.9531
  159OSM   C18F17890   5.323   6.649   4.562  0.7850 -0.2762  0.7091
  159OSM   H18F17891   5.283   6.546   4.547  0.3228  0.1466 -1.3165
  159OSM   H18G17892   5.236   6.716   4.544  0.4952 -1.2654 -2.1150
  159OSM   H18H17893   5.360   6.674   4.663  1.0157  1.4392  0.2379
  160OSM      N17894   2.574   0.355   1.838 -0.1628 -0.7324 -0.0147
  160OSM    C1517895   2.638   0.227   1.814  0.6675  0.5385 -0.1143
  160OSM   H15A17896   2.620   0.177   1.719  0.0109  2.1039 -0.8435
  160OSM   H15B17897   2.581   0.159   1.875 -0.4917  0.2679 -1.4557
  160OSM   H15C17898   2.742   0.228   1.844  0.8599  1.7020 -0.7647
  160OSM    C1417899   2.636   0.452   1.733  1.2868  0.5987  0.1318
  160OSM   H14A17900   2.612   0.412   1.636 -0.1880 -2.1069  1.4732
  160OSM   H14B17901   2.743   0.453   1.744  1.5606  0.2270 -2.1661
  160OSM   H14C17902   2.590   0.549   1.744 -1.4064 -0.7111  1.6343
  160OSM    C1317903   2.430   0.343   1.818  0.6175  0.1907  0.4708
  160OSM   H13A17904   2.416   0.300   1.720  0.2527 -0.3044  0.7337
  160OSM   H13B17905   2.375   0.435   1.823 -2.8668 -1.7378  1.4352
  160OSM   H13C17906   2.384   0.277   1.891  0.6572 -1.7637 -1.1885
  160OSM    C1217907   2.621   0.407   1.975  0.2605  0.8406  0.3663
  160OSM   H12A17908   2.554   0.489   2.000  0.0455  1.2884 -1.5155
  160OSM   H12B17909   2.725   0.434   1.962 -0.0585  1.1280 -2.2280
  160OSM    C1117910   2.601   0.310   2.094  0.6542 -0.1190  0.1971
  160OSM   H11A17911   2.644   0.369   2.178  0.8362  2.8207 -1.7839
  160OSM   H11B17912   2.665   0.222   2.071 -0.1895 -0.8963  0.7817
  160OSM      P17913   2.425   0.129   2.161  0.3376 -0.3092  0.3289
  160OSM    O1317914   2.283   0.129   2.184  0.1643 -0.2186  0.2742
  160OSM    O1417915   2.465   0.033   2.056 -0.2377  0.1519  0.3166
  160OSM    O1117916   2.502   0.103   2.293  0.5747 -0.1245  0.2157
  160OSM    O1217917   2.464   0.279   2.113  0.2415 -0.2506  0.0058
  160OSM    C1S17918   2.525   0.193   2.406 -0.2863 -0.3438  0.3633
  160OSM    H1S17919   2.523   0.300   2.375 -2.0757 -0.4390  0.0420
  160OSM    H1T17920   2.626   0.180   2.451 -0.3089 -0.0350  0.5075
  160OSM     NF17921   2.466   0.240   2.639 -0.7500 -0.0868 -0.1525
  160OSM    HNF17922   2.495   0.193   2.722 -0.8451 -0.6720 -0.4521
  160OSM    C2S17923   2.429   0.159   2.526  0.0493 -0.4152 -0.3779
  160OSM    H2S17924   2.326   0.192   2.500 -0.4030 -1.8739 -0.5455
  160OSM    C3S17925   2.429   0.003   2.563  0.3978 -0.2354  0.4043
  160OSM    H3S17926   2.524  -0.010   2.618  0.6737  2.1179  0.5931
  160OSM     O317927   2.448  -0.095   2.461  0.1870  0.0610 -1.2005
  160OSM    HO317928   2.468  -0.059   2.375  1.0772 -0.9665 -1.4445
  160OSM    C4S17929   2.319  -0.042   2.658 -0.0230 -0.4134 -0.3629
  160OSM    H4S17930   2.332  -0.011   2.763 -1.5070 -1.5852  0.1935
  160OSM    C5S17931   2.199  -0.090   2.618 -0.4978 -0.1194 -0.6939
  160OSM    H5S17932   2.181  -0.086   2.510 -0.0011  4.6837 -0.8182
  160OSM    C6S17933   2.082  -0.132   2.702 -0.1142 -0.2168 -0.0480
  160OSM    H6S17934   2.071  -0.243   2.701 -1.2128 -0.1299 -1.4851
  160OSM    H6T17935   1.994  -0.088   2.651 -2.7776 -1.9813  2.6995
  160OSM    C7S17936   2.056  -0.091   2.848  0.1711 -0.3465 -0.3870
  160OSM    H7S17937   2.060   0.020   2.848 -1.5463 -0.2593 -0.1422
  160OSM    H7T17938   2.134  -0.130   2.917 -0.2528 -0.5160 -0.0036
  160OSM    C8S17939   1.914  -0.131   2.894 -0.4148 -0.1556 -0.0078
  160OSM    H8S17940   1.906  -0.241   2.881 -3.2104 -0.2297  1.5962
  160OSM    H8T17941   1.840  -0.085   2.825  1.0164  2.5555  0.1223
  160OSM    C9S17942   1.875  -0.090   3.034  0.9879  0.1934 -0.2664
  160OSM    H9S17943   1.879   0.020   3.049 -2.0153  0.9758 -3.7544
  160OSM    H9T17944   1.951  -0.146   3.092  1.7708  2.5157  1.0948
  160OSM   C10S17945   1.733  -0.140   3.061  0.3102 -0.5577 -0.1289
  160OSM   H10S17946   1.724  -0.247   3.030  1.9091 -0.8327  0.2725
  160OSM   H10T17947   1.655  -0.093   2.998  1.5447  1.3440 -0.3508
  160OSM   C11S17948   1.674  -0.127   3.200  0.5588 -0.0874 -0.2329
  160OSM   H11S17949   1.566  -0.152   3.199  0.4720  0.1317  1.4438
  160OSM   H11T17950   1.691  -0.029   3.250  0.3091 -0.6308  0.9347
  160OSM   C12S17951   1.726  -0.234   3.300 -0.7191 -0.4010  0.7902
  160OSM   H12S17952   1.837  -0.239   3.301 -0.6715 -0.4662 -1.0646
  160OSM   H12T17953   1.702  -0.341   3.280  0.7284 -0.8042  1.1029
  160OSM   C13S17954   1.673  -0.205   3.439  0.3639 -0.0196 -0.3961
  160OSM   H13S17955   1.562  -0.201   3.435  0.2703  2.3141  2.0127
  160OSM   H13T17956   1.703  -0.105   3.477  0.9032 -0.1272 -0.5218
  160OSM   C14S17957   1.725  -0.305   3.541  0.0320 -0.0663 -0.2747
  160OSM   H14S17958   1.834  -0.318   3.523  0.3626  1.3491  0.5424
  160OSM   H14T17959   1.678  -0.402   3.516  2.6819 -1.0440 -1.9784
  160OSM   C15S17960   1.676  -0.277   3.682  0.8590 -0.7564 -0.0637
  160OSM   H15S17961   1.566  -0.292   3.695  0.8236  0.1556  0.8063
  160OSM   H15T17962   1.702  -0.172   3.705  0.4777 -0.3762 -1.2609
  160OSM   C16S17963   1.735  -0.371   3.792 -0.1756  0.4614 -0.3798
  160OSM   H16S17964   1.845  -0.367   3.774  0.4645  1.9461  3.1430
  160OSM   H16T17965   1.709  -0.477   3.770 -0.0940  0.3800 -0.0909
  160OSM   C17S17966   1.703  -0.342   3.937 -0.1696  0.6211  0.0793
  160OSM   H17S17967   1.694  -0.435   3.997 -0.1014  1.2559  1.0987
  160OSM   H17T17968   1.601  -0.296   3.933 -0.0186  1.2086  1.8799
  160OSM   C18S17969   1.793  -0.233   4.007  0.3920 -0.5018 -0.4044
  160OSM   H18S17970   1.897  -0.272   4.001  0.1169 -1.5886  1.2209
  160OSM   H18T17971   1.758  -0.214   4.111  1.4161  2.1791 -0.4557
  160OSM   H18U17972   1.789  -0.132   3.960 -2.0035  0.0589  0.8437
  160OSM    C1F17973   2.454   0.375   2.647 -0.1226  0.4277 -0.3612
  160OSM     OF17974   2.397   0.442   2.565  0.2852 -0.3913 -0.1311
  160OSM    C2F17975   2.476   0.427   2.786 -0.6118  0.9832  0.4936
  160OSM    H2F17976   2.580   0.396   2.811 -0.6392 -0.8287 -1.4161
  160OSM    H2G17977   2.413   0.368   2.856 -1.6844 -0.3228 -1.4826
  160OSM    C3F17978   2.461   0.582   2.802 -0.1737  0.1026  0.0258
  160OSM    H3F17979   2.368   0.625   2.759  0.9824  1.1047 -1.5853
  160OSM    H3G17980   2.533   0.627   2.731  1.3222 -1.0317  0.7558
  160OSM    C4F17981   2.486   0.649   2.939  0.3725 -0.3980  0.2744
  160OSM    H4F17982   2.486   0.759   2.924 -1.6816 -0.7408 -3.2413
  160OSM    H4G17983   2.578   0.613   2.990 -0.2968 -1.7379  0.5855
  160OSM    C5F17984   2.376   0.614   3.039 -0.0383 -0.0288 -0.1879
  160OSM    H5F17985   2.394   0.507   3.064  1.3554  0.3752  0.6601
  160OSM    H5G17986   2.285   0.634   2.979 -0.6304  0.7056  0.9180
  160OSM    C6F17987   2.359   0.694   3.173  0.2627  0.8630  0.2334
  160OSM    H6F17988   2.268   0.647   3.217  2.4951 -1.3908  2.8177
  160OSM    H6G17989   2.337   0.801   3.151  0.9668  1.5608  2.6067
  160OSM    C7F17990   2.474   0.687   3.268  0.3557  0.8263 -1.0292
  160OSM    H7F17991   2.561   0.752   3.245  2.1177 -1.6595 -1.8188
  160OSM    H7G17992   2.516   0.584   3.259 -2.2653 -0.8153  2.7276
  160OSM    C8F17993   2.419   0.708   3.408  0.3895 -0.6335 -0.1572
  160OSM    H8F17994   2.325   0.652   3.427 -0.0114  0.5385  1.5244
  160OSM    H8G17995   2.377   0.808   3.386  1.0508 -0.6760 -1.7863
  160OSM    C9F17996   2.512   0.693   3.530 -0.0949 -0.2603  0.2670
  160OSM    H9F17997   2.583   0.778   3.539  2.4628 -1.9976 -1.9270
  160OSM   C10F17998   2.523   0.592   3.613 -0.2652  0.8027 -0.6806
  160OSM   H10F17999   2.597   0.589   3.695 -1.7403  0.8117  0.7018
  160OSM   C11F18000   2.439   0.470   3.611 -0.4644 -0.4877  0.2029
  160OSM   H11F18001   2.507   0.385   3.632 -4.0214 -3.5907  0.2077
  160OSM   H11G18002   2.405   0.460   3.505  3.4916  0.7093 -1.3471
  160OSM   C12F18003   2.327   0.469   3.711 -0.1519  1.2693  0.1397
  160OSM   H12F18004   2.288   0.365   3.708  2.2035  0.2851  1.4156
  160OSM   H12G18005   2.245   0.535   3.675 -0.2449  0.8618 -0.4117
  160OSM   C13F18006   2.369   0.490   3.864 -0.1606 -0.3016 -0.1537
  160OSM   H13F18007   2.413   0.592   3.868  0.5082 -0.5026 -1.8873
  160OSM   H13G18008   2.461   0.431   3.881  0.6822  1.0630  0.2072
  160OSM   C14F18009   2.254   0.486   3.960 -0.2130 -0.1477 -0.4888
  160OSM   H14F18010   2.190   0.401   3.928 -0.4871 -0.0975 -0.0802
  160OSM   H14G18011   2.192   0.579   3.960 -0.3693 -0.2509 -0.7997
  160OSM   C15F18012   2.300   0.450   4.111 -0.5194  0.6877 -0.0148
  160OSM   H15F18013   2.387   0.382   4.099 -0.2496  1.4576 -3.7231
  160OSM   H15G18014   2.221   0.390   4.161  0.3807 -0.5296 -0.0193
  160OSM   C16F18015   2.341   0.575   4.197  0.9561 -0.6901  0.0005
  160OSM   H16F18016   2.410   0.634   4.133  1.3936 -2.9059 -1.7006
  160OSM   H16G18017   2.389   0.543   4.291 -1.1471 -0.7722  1.1236
  160OSM   C17F18018   2.221   0.665   4.245  0.4456 -0.0566  0.3222
  160OSM   H17F18019   2.202   0.733   4.158 -3.3110 -0.7757  0.3861
  160OSM   H17G18020   2.249   0.729   4.332 -0.8129  3.3126 -1.5475
  160OSM   C18F18021   2.098   0.588   4.282  0.4473 -0.1517 -0.7325
  160OSM   H18F18022   2.017   0.657   4.312  1.5302  0.7189  0.3253
  160OSM   H18G18023   2.119   0.519   4.367 -0.2183  2.2001  1.4668
  160OSM   H18H18024   2.054   0.531   4.198  1.5576 -2.1946  0.0073
  161OSM      N18025   6.698   5.593   1.800 -0.0809  0.0832 -0.4592
  161OSM    C1518026   6.771   5.720   1.760 -1.0089 -1.3046 -0.0807
  161OSM   H15A18027   6.853   5.690   1.696  0.4050  0.9061  0.5748
  161OSM   H15B18028   6.830   5.776   1.831  1.1943 -2.7363 -0.6565
  161OSM   H15C18029   6.716   5.799   1.712 -0.3608 -0.1264  1.0582
  161OSM    C1418030   6.603   5.538   1.695  0.0241 -0.4265 -0.4633
  161OSM   H14A18031   6.652   5.488   1.613  0.4740 -2.5887  1.0098
  161OSM   H14B18032   6.539   5.615   1.656 -1.4740 -0.4915  1.6828
  161OSM   H14C18033   6.543   5.460   1.741  3.0029 -1.8032  1.4158
  161OSM    C1318034   6.787   5.491   1.843 -0.5201  0.6410 -0.1984
  161OSM   H13A18035   6.863   5.524   1.912 -1.4053  1.6877  0.3121
  161OSM   H13B18036   6.846   5.455   1.760  0.5798 -1.0394  1.2390
  161OSM   H13C18037   6.737   5.410   1.894  0.0504  1.0152  0.9734
  161OSM    C1218038   6.620   5.632   1.923 -0.6274  0.0616 -0.4712
  161OSM   H12A18039   6.559   5.543   1.936 -0.2375 -0.3153 -1.1115
  161OSM   H12B18040   6.562   5.719   1.898  0.2259  0.3846 -1.4129
  161OSM    C1118041   6.690   5.662   2.062  0.0125 -0.4459  0.7465
  161OSM   H11A18042   6.760   5.579   2.086 -0.8813 -0.9163  1.8375
  161OSM   H11B18043   6.604   5.653   2.132 -0.4721 -0.3067  0.1827
  161OSM      P18044   6.665   5.917   2.101 -0.2076 -0.4739  0.1114
  161OSM    O1318045   6.736   6.050   2.081 -0.7312  0.4656  0.1018
  161OSM    O1418046   6.533   5.919   2.032  0.3278 -0.3135  0.2518
  161OSM    O1118047   6.633   5.894   2.251 -0.3979 -0.2315 -0.1223
  161OSM    O1218048   6.747   5.791   2.055 -0.2237 -0.0333  0.0008
  161OSM    C1S18049   6.728   5.905   2.358  0.1120  0.1791  0.4661
  161OSM    H1S18050   6.783   6.001   2.345 -0.8180  0.4350 -2.0668
  161OSM    H1T18051   6.790   5.813   2.359 -0.8362 -0.4761  1.1092
  161OSM     NF18052   6.757   5.914   2.609 -0.7781 -0.1923 -0.0952
  161OSM    HNF18053   6.751   5.866   2.696 -0.3161  0.1371  0.1199
  161OSM    C2S18054   6.659   5.896   2.502  0.2145 -0.3341 -0.0526
  161OSM    H2S18055   6.588   5.981   2.514  1.0518  0.5593 -1.1453
  161OSM    C3S18056   6.584   5.760   2.504  1.8839 -1.0179  0.4732
  161OSM    H3S18057   6.654   5.674   2.501  2.4622 -0.5337 -0.7218
  161OSM     O318058   6.480   5.750   2.405 -0.2766  0.0434  0.6318
  161OSM    HO318059   6.522   5.806   2.339  3.3728 -0.3268  2.3696
  161OSM    C4S18060   6.517   5.747   2.635  0.8280 -0.2719  0.4904
  161OSM    H4S18061   6.568   5.689   2.713 -1.3254 -0.9173  1.5063
  161OSM    C5S18062   6.390   5.793   2.674 -0.8102 -0.0999 -0.5547
  161OSM    H5S18063   6.329   5.855   2.608 -1.9869  0.9662  1.4222
  161OSM    C6S18064   6.334   5.765   2.811 -0.0865  0.4985  0.3123
  161OSM    H6S18065   6.419   5.728   2.871  0.9759 -1.1851 -2.0880
  161OSM    H6T18066   6.272   5.675   2.791  0.1139  0.2227  0.9032
  161OSM    C7S18067   6.254   5.874   2.876  0.7107  0.0214  0.5382
  161OSM    H7S18068   6.178   5.913   2.805 -0.2848 -1.8222  0.5255
  161OSM    H7T18069   6.326   5.954   2.906  2.3563 -0.0242 -2.8439
  161OSM    C8S18070   6.196   5.832   3.016 -0.2894  0.5737  0.6788
  161OSM    H8S18071   6.105   5.771   2.999  1.5481 -2.1274 -0.1042
  161OSM    H8T18072   6.165   5.925   3.069 -2.6372  1.3566 -1.8035
  161OSM    C9S18073   6.297   5.762   3.108 -0.1996 -0.3443 -0.1989
  161OSM    H9S18074   6.388   5.825   3.117  0.0153 -0.9503  3.4437
  161OSM    H9T18075   6.319   5.656   3.081 -0.7811 -1.2874  2.5916
  161OSM   C10S18076   6.241   5.761   3.256  0.8538 -0.3781  1.0663
  161OSM   H10S18077   6.136   5.727   3.267 -0.2002  2.4841  0.6059
  161OSM   H10T18078   6.227   5.867   3.286  1.2863 -0.0991  0.3175
  161OSM   C11S18079   6.331   5.693   3.356 -0.0136 -0.8717 -0.0898
  161OSM   H11S18080   6.428   5.743   3.336  0.3696 -1.9512 -0.9982
  161OSM   H11T18081   6.344   5.586   3.331 -0.5235 -1.3234  1.4598
  161OSM   C12S18082   6.280   5.699   3.501  0.6230 -0.9993 -0.0373
  161OSM   H12S18083   6.189   5.636   3.510  1.0295 -1.5224  0.5594
  161OSM   H12T18084   6.247   5.802   3.524  0.9163 -0.9096 -0.0124
  161OSM   C13S18085   6.379   5.662   3.606  0.7561  0.2403 -0.3037
  161OSM   H13S18086   6.453   5.743   3.621 -0.1263  0.8740  0.7231
  161OSM   H13T18087   6.430   5.567   3.578 -1.9877 -1.4761  0.0571
  161OSM   C14S18088   6.292   5.642   3.739  0.2689 -0.6711 -0.1172
  161OSM   H14S18089   6.218   5.562   3.720  0.7990 -1.1657 -0.1272
  161OSM   H14T18090   6.238   5.734   3.771 -1.9918 -2.1441  0.5343
  161OSM   C15S18091   6.375   5.600   3.866 -0.1692  0.6316  0.7448
  161OSM   H15S18092   6.436   5.686   3.902 -1.3971  0.8197  2.4844
  161OSM   H15T18093   6.428   5.511   3.826 -2.9122 -0.7741  0.0146
  161OSM   C16S18094   6.289   5.549   3.981  0.4947 -0.5839 -0.8615
  161OSM   H16S18095   6.348   5.509   4.066  2.4701  1.4188 -1.1910
  161OSM   H16T18096   6.211   5.476   3.951 -1.3457 -0.0465  2.2111
  161OSM   C17S18097   6.207   5.660   4.052  0.2470  0.1226  0.1745
  161OSM   H17S18098   6.125   5.607   4.106 -0.7773  0.3679 -1.0889
  161OSM   H17T18099   6.156   5.727   3.979 -0.8510 -0.7434  0.1196
  161OSM   C18S18100   6.294   5.733   4.154  0.1175  0.2711 -0.0534
  161OSM   H18S18101   6.328   5.654   4.226  1.2327  1.0497  0.2921
  161OSM   H18T18102   6.250   5.823   4.200 -0.5178  0.2180 -0.5467
  161OSM   H18U18103   6.386   5.785   4.122  0.3928 -0.0897  0.1358
  161OSM    C1F18104   6.815   6.038   2.622 -0.4706 -0.5050  0.1288
  161OSM     OF18105   6.785   6.140   2.552 -0.7233  0.1257  0.2986
  161OSM    C2F18106   6.926   6.038   2.727 -0.6062  0.3304  0.1154
  161OSM    H2F18107   7.024   6.009   2.683 -0.7605 -1.0924  0.6620
  161OSM    H2G18108   6.913   5.965   2.809 -2.0743  0.3883 -0.0349
  161OSM    C3F18109   6.949   6.171   2.795 -0.0431  0.0388  0.1815
  161OSM    H3F18110   6.866   6.184   2.868 -0.2540  0.9526 -0.2048
  161OSM    H3G18111   6.938   6.259   2.728 -0.1457  1.2441  1.7139
  161OSM    C4F18112   7.084   6.173   2.877  1.0285  0.0109  0.2248
  161OSM    H4F18113   7.082   6.261   2.945 -1.9105  1.7272 -1.8924
  161OSM    H4G18114   7.173   6.179   2.810  0.5610  0.9545 -0.3376
  161OSM    C5F18115   7.095   6.050   2.959 -0.1159 -0.5520  0.3498
  161OSM    H5F18116   7.104   5.958   2.897 -0.8915  0.4675 -1.3214
  161OSM    H5G18117   7.005   6.032   3.022 -0.6329  1.0171  0.1045
  161OSM    C6F18118   7.213   6.050   3.066 -0.7552 -0.2600 -0.0942
  161OSM    H6F18119   7.239   6.157   3.079  2.4064 -1.0213  0.9084
  161OSM    H6G18120   7.310   6.015   3.024  0.2149 -0.4544  2.1826
  161OSM    C7F18121   7.183   5.977   3.199 -0.5603 -0.0011  0.3894
  161OSM    H7F18122   7.138   5.881   3.164 -0.6898 -0.1485  0.9587
  161OSM    H7G18123   7.092   6.031   3.233 -0.4216 -1.1680  2.7586
  161OSM    C8F18124   7.285   5.959   3.309 -0.5517 -0.6337  0.2819
  161OSM    H8F18125   7.238   5.957   3.410  0.4008  0.6589  0.7781
  161OSM    H8G18126   7.350   6.046   3.332 -0.5779 -0.5488  0.0356
  161OSM    C9F18127   7.372   5.835   3.273  0.4372  0.7189  0.5201
  161OSM    H9F18128   7.447   5.853   3.195  0.1247  1.0445  0.2974
  161OSM   C10F18129   7.361   5.715   3.330  0.1766  0.0735 -0.3155
  161OSM   H10F18130   7.440   5.641   3.310  1.2844  0.2682  2.7738
  161OSM   C11F18131   7.267   5.674   3.443  0.0807 -0.1226  0.0557
  161OSM   H11F18132   7.239   5.571   3.413  1.0300 -0.5864  0.7338
  161OSM   H11G18133   7.176   5.738   3.443  0.4264  0.5261 -3.3421
  161OSM   C12F18134   7.322   5.666   3.586 -0.0309 -0.5061  0.4297
  161OSM   H12F18135   7.431   5.650   3.576  0.2165  1.0168  0.4591
  161OSM   H12G18136   7.271   5.588   3.646 -0.4377  0.3859  1.2554
  161OSM   C13F18137   7.309   5.813   3.662 -0.4954  0.3500  0.6133
  161OSM   H13F18138   7.200   5.837   3.659 -0.1604  2.4421  2.8535
  161OSM   H13G18139   7.366   5.884   3.598  1.8528 -0.2428  1.9598
  161OSM   C14F18140   7.343   5.807   3.810 -0.0454  0.5948  0.7008
  161OSM   H14F18141   7.346   5.905   3.862  0.1096  1.0303 -0.1066
  161OSM   H14G18142   7.446   5.768   3.822 -0.0258  1.0469  2.2182
  161OSM   C15F18143   7.231   5.729   3.893 -0.0662  0.3613 -0.2358
  161OSM   H15F18144   7.206   5.629   3.852 -0.5161  0.1268  0.5768
  161OSM   H15G18145   7.139   5.784   3.865 -1.6573 -3.0789 -2.4153
  161OSM   C16F18146   7.259   5.715   4.041  0.3204  0.6976  0.5566
  161OSM   H16F18147   7.303   5.812   4.072  0.1993  1.5111 -1.6751
  161OSM   H16G18148   7.337   5.635   4.042  0.8442  1.1798 -0.5082
  161OSM   C17F18149   7.141   5.678   4.134 -0.8032 -0.1962 -0.3098
  161OSM   H17F18150   7.076   5.605   4.081 -2.6815 -1.1033  2.9777
  161OSM   H17G18151   7.082   5.768   4.160  0.0425 -0.1725  1.6897
  161OSM   C18F18152   7.191   5.604   4.262  0.8328  0.5676 -0.8323
  161OSM   H18F18153   7.269   5.530   4.236  0.3044 -0.1451 -0.4219
  161OSM   H18G18154   7.112   5.542   4.308 -0.1579  1.7242 -0.9117
  161OSM   H18H18155   7.232   5.675   4.338 -0.8274 -2.9563  3.8432
  162OSM      N18156   1.523   4.417   2.054 -0.3789  0.0318 -0.3074
  162OSM    C1518157   1.600   4.460   1.927 -0.4576 -0.0957 -0.3412
  162OSM   H15A18158   1.636   4.376   1.871 -2.0250 -1.6258  0.8363
  162OSM   H15B18159   1.678   4.532   1.950 -0.2400  1.1092 -4.1699
  162OSM   H15C18160   1.537   4.517   1.861  1.2466  0.2905 -1.6940
  162OSM    C1418161   1.432   4.513   2.127 -0.3068  0.5147  0.1599
  162OSM   H14A18162   1.480   4.606   2.154 -0.0454  0.5742 -0.4842
  162OSM   H14B18163   1.393   4.463   2.214 -1.2505  1.5217  0.3433
  162OSM   H14C18164   1.353   4.539   2.057  1.6907  1.1317 -2.0143
  162OSM    C1318165   1.434   4.295   2.023  0.1971 -0.0582 -0.9622
  162OSM   H13A18166   1.498   4.217   1.985 -0.6442  0.1709 -2.9317
  162OSM   H13B18167   1.356   4.315   1.952 -2.1117  0.4133  1.5469
  162OSM   H13C18168   1.376   4.275   2.112 -1.4990  4.5586 -0.7868
  162OSM    C1218169   1.634   4.371   2.150 -1.0461  0.3317  0.3602
  162OSM   H12A18170   1.717   4.333   2.093  0.6910  3.7661  0.3164
  162OSM   H12B18171   1.600   4.297   2.221 -1.9857  0.6707  0.2723
  162OSM    C1118172   1.714   4.487   2.221  0.0973  0.0143 -0.1811
  162OSM   H11A18173   1.789   4.428   2.279  0.9506  1.5095  0.3170
  162OSM   H11B18174   1.646   4.542   2.291  0.9156  0.6083  0.1687
  162OSM      P18175   1.936   4.592   2.124 -0.0748 -0.4464 -0.1123
  162OSM    O1318176   1.987   4.467   2.060  0.1229 -0.0615 -0.2117
  162OSM    O1418177   1.976   4.725   2.066 -0.1406  0.0528  0.2927
  162OSM    O1118178   1.976   4.590   2.272  0.0701 -0.0101 -0.0998
  162OSM    O1218179   1.775   4.572   2.135 -0.1573 -0.1051 -0.2791
  162OSM    C1S18180   1.938   4.698   2.356 -0.1973  0.2719 -0.3887
  162OSM    H1S18181   1.828   4.715   2.348 -0.3225 -0.3273 -0.0194
  162OSM    H1T18182   1.975   4.798   2.325 -0.2454  0.4844  0.2275
  162OSM     NF18183   1.893   4.759   2.595  0.6158 -0.2826  0.2855
  162OSM    HNF18184   1.930   4.847   2.624 -1.2621  0.5854  0.1651
  162OSM    C2S18185   1.975   4.674   2.507  0.2121 -0.0758  0.0470
  162OSM    H2S18186   1.929   4.574   2.524 -2.0146  0.6923 -1.0006
  162OSM    C3S18187   2.121   4.673   2.516  0.2863  0.2665  0.4360
  162OSM    H3S18188   2.180   4.766   2.500  2.2455 -1.2532 -1.8178
  162OSM     O318189   2.189   4.582   2.426 -0.0927  0.6546 -0.0768
  162OSM    HO318190   2.113   4.547   2.379 -1.1303 -1.0244  2.6177
  162OSM    C4S18191   2.168   4.627   2.652  0.6841  0.2449 -0.0682
  162OSM    H4S18192   2.154   4.518   2.664  0.2523  0.3183  0.1320
  162OSM    C5S18193   2.233   4.704   2.740  0.9317 -0.0143  0.3874
  162OSM    H5S18194   2.250   4.807   2.704  1.5257 -0.2073  0.1070
  162OSM    C6S18195   2.292   4.665   2.876 -0.0899 -0.3237  0.2478
  162OSM    H6S18196   2.243   4.733   2.949  0.2896 -0.1292  0.3191
  162OSM    H6T18197   2.399   4.692   2.873  0.1141 -1.1611 -1.7588
  162OSM    C7S18198   2.274   4.521   2.918  0.2401  0.6288  0.3776
  162OSM    H7S18199   2.335   4.455   2.853  3.3875 -0.2020  3.8135
  162OSM    H7T18200   2.171   4.479   2.913  0.4795  0.1530 -0.7558
  162OSM    C8S18201   2.322   4.483   3.059  0.7574  0.1695 -0.2710
  162OSM    H8S18202   2.295   4.377   3.078  1.1513 -0.0296 -0.8250
  162OSM    H8T18203   2.260   4.538   3.134  0.2252 -0.9992  0.1707
  162OSM    C9S18204   2.467   4.498   3.067 -0.8935 -0.3352 -0.0374
  162OSM    H9S18205   2.513   4.596   3.041 -0.1561 -0.4518  0.7896
  162OSM    H9T18206   2.505   4.419   2.999  2.0186 -0.3512  1.4563
  162OSM   C10S18207   2.520   4.486   3.213 -0.5620  0.6219 -0.4190
  162OSM   H10S18208   2.627   4.457   3.215 -0.3171  1.5124  0.5499
  162OSM   H10T18209   2.471   4.402   3.267  1.5874 -0.0368  0.6082
  162OSM   C11S18210   2.500   4.602   3.317 -0.0872  0.4477 -0.6531
  162OSM   H11S18211   2.397   4.640   3.300 -0.4547  0.4012  1.2443
  162OSM   H11T18212   2.567   4.686   3.291 -1.0740  1.6204  0.4968
  162OSM   C12S18213   2.519   4.557   3.466  0.2462 -0.5313 -0.4709
  162OSM   H12S18214   2.618   4.507   3.477 -0.2576 -1.5495 -0.3858
  162OSM   H12T18215   2.436   4.489   3.496  1.8205 -2.1127  0.4755
  162OSM   C13S18216   2.522   4.689   3.541  0.0281 -0.1554 -0.4807
  162OSM   H13S18217   2.420   4.734   3.532 -0.3647 -0.6778  0.9634
  162OSM   H13T18218   2.589   4.763   3.494 -1.9140  0.0998 -3.0757
  162OSM   C14S18219   2.556   4.678   3.690  0.0237  0.4497  0.0225
  162OSM   H14S18220   2.658   4.633   3.698 -0.9266 -1.7100  0.5789
  162OSM   H14T18221   2.480   4.608   3.731 -1.5384  0.2043 -2.9666
  162OSM   C15S18222   2.567   4.818   3.758 -0.6112 -0.4692 -0.5901
  162OSM   H15S18223   2.478   4.884   3.747  1.8817  3.4129  0.4652
  162OSM   H15T18224   2.645   4.880   3.708 -1.0126 -0.2837 -0.9941
  162OSM   C16S18225   2.593   4.795   3.913  0.2606 -0.0982  0.5676
  162OSM   H16S18226   2.633   4.889   3.958  2.1265 -0.9086  0.7044
  162OSM   H16T18227   2.658   4.707   3.932  1.2336  0.1951 -1.1543
  162OSM   C17S18228   2.456   4.767   3.987 -0.2341 -0.7794  0.0491
  162OSM   H17S18229   2.412   4.669   3.959 -3.1770  1.2684 -3.3312
  162OSM   H17T18230   2.382   4.836   3.942 -0.6652 -2.2464 -1.5778
  162OSM   C18S18231   2.462   4.803   4.138  0.0986 -0.3100  0.0313
  162OSM   H18S18232   2.432   4.910   4.152  0.7718 -0.2192  0.8928
  162OSM   H18T18233   2.567   4.787   4.173  0.0130  0.7845  0.8338
  162OSM   H18U18234   2.398   4.730   4.191  0.7963 -0.9779 -0.0314
  162OSM    C1F18235   1.763   4.737   2.595  0.1640  0.1601 -0.3195
  162OSM     OF18236   1.710   4.627   2.578 -0.2536  0.3906  0.7638
  162OSM    C2F18237   1.685   4.861   2.601  0.0119 -1.4353  0.0503
  162OSM    H2F18238   1.600   4.855   2.530  1.2495  0.3909 -1.7040
  162OSM    H2G18239   1.737   4.955   2.573 -1.6341 -0.3137  0.6530
  162OSM    C3F18240   1.610   4.872   2.735 -0.7663 -0.2815 -0.4839
  162OSM    H3F18241   1.577   4.777   2.782  3.8337 -0.3034  3.4916
  162OSM    H3G18242   1.523   4.941   2.726 -0.1873  0.4080 -0.9385
  162OSM    C4F18243   1.705   4.944   2.840  0.0706 -0.4567 -0.8071
  162OSM    H4F18244   1.725   5.042   2.792  1.3343  0.1029  0.7900
  162OSM    H4G18245   1.800   4.888   2.850  0.1869 -0.1251  0.0489
  162OSM    C5F18246   1.642   4.963   2.981  0.2114 -0.2112  0.4367
  162OSM    H5F18247   1.608   4.863   3.014  1.2960 -1.0736 -0.9210
  162OSM    H5G18248   1.554   5.029   2.970  1.2749  1.6518  2.3624
  162OSM    C6F18249   1.733   5.038   3.084 -0.4002 -0.1218  0.1947
  162OSM    H6F18250   1.755   5.141   3.049 -2.1481 -0.6705 -2.8552
  162OSM    H6G18251   1.828   4.981   3.087 -0.9245 -1.1332 -1.2438
  162OSM    C7F18252   1.666   5.051   3.220  0.0645  0.2642 -0.0298
  162OSM    H7F18253   1.668   4.953   3.272 -0.3185 -0.5883 -1.5466
  162OSM    H7G18254   1.560   5.081   3.204  0.1103 -0.4840 -2.0456
  162OSM    C8F18255   1.726   5.159   3.313 -0.0066  0.1428  0.3743
  162OSM    H8F18256   1.650   5.171   3.393  0.1994 -1.0641  0.7782
  162OSM    H8G18257   1.738   5.255   3.259  0.4818  0.0973  0.3926
  162OSM    C9F18258   1.866   5.128   3.374  0.6038  0.0975  0.0403
  162OSM    H9F18259   1.947   5.143   3.301  1.4394 -1.4127  0.6033
  162OSM   C10F18260   1.900   5.100   3.499  0.3135 -0.2775 -0.1886
  162OSM   H10F18261   2.008   5.092   3.521  0.7853 -0.1944 -2.2621
  162OSM   C11F18262   1.816   5.083   3.620  0.8482  0.1568  0.3891
  162OSM   H11F18263   1.706   5.077   3.602  0.5418  0.3098  2.0959
  162OSM   H11G18264   1.834   5.166   3.691 -0.0013  0.3385  0.4024
  162OSM   C12F18265   1.857   4.951   3.690  0.7675 -0.0422 -0.3473
  162OSM   H12F18266   1.966   4.946   3.708  1.1072 -0.7051 -2.3248
  162OSM   H12G18267   1.829   4.866   3.624 -1.8237  2.1078 -2.2502
  162OSM   C13F18268   1.773   4.929   3.817 -0.1452  0.0573  0.1203
  162OSM   H13F18269   1.780   4.829   3.864 -1.5020 -0.8256 -1.4767
  162OSM   H13G18270   1.671   4.940   3.775  0.3737 -0.2793 -1.2760
  162OSM   C14F18271   1.810   5.037   3.919  0.6755  0.0085 -0.7202
  162OSM   H14F18272   1.745   5.020   4.007 -2.0320  1.9198 -2.2050
  162OSM   H14G18273   1.785   5.137   3.879  0.2132  0.4177  0.5403
  162OSM   C15F18274   1.950   5.036   3.961  0.5866 -0.9905 -0.2521
  162OSM   H15F18275   2.018   5.074   3.881  2.6107  1.7100  2.4870
  162OSM   H15G18276   1.996   4.942   3.999  3.0974 -0.1989 -1.1107
  162OSM   C16F18277   1.972   5.134   4.079 -0.0579  0.0738 -0.0702
  162OSM   H16F18278   1.916   5.088   4.163 -1.7877  2.5515  0.2107
  162OSM   H16G18279   1.939   5.239   4.066 -1.3633 -0.4915 -1.6993
  162OSM   C17F18280   2.110   5.121   4.143 -0.7224  0.5079  0.4336
  162OSM   H17F18281   2.175   5.177   4.072 -0.9201  0.5677  0.2958
  162OSM   H17G18282   2.166   5.026   4.157  0.1697  0.6937 -1.5050
  162OSM   C18F18283   2.111   5.198   4.274  0.1312 -0.7521 -0.0022
  162OSM   H18F18284   2.215   5.222   4.306 -0.2950  1.0083  0.1788
  162OSM   H18G18285   2.044   5.156   4.352 -1.1815 -0.9071 -1.1883
  162OSM   H18H18286   2.063   5.297   4.258  0.0715 -0.5772  1.1797
  163OSM      N18287   6.449   0.139   1.766 -0.3738  0.5884  0.9189
  163OSM    C1518288   6.462  -0.004   1.810  0.2291  0.3418  0.1676
  163OSM   H15A18289   6.359  -0.036   1.819  0.8577 -1.4197  1.5821
  163OSM   H15B18290   6.516  -0.021   1.902  1.7136  0.1873 -0.7076
  163OSM   H15C18291   6.517  -0.062   1.738 -0.9127 -0.3604 -0.1699
  163OSM    C1418292   6.584   0.205   1.743 -0.0652 -0.0533 -0.2462
  163OSM   H14A18293   6.618   0.254   1.834  0.3733 -2.5542  1.0190
  163OSM   H14B18294   6.586   0.275   1.661 -2.2560  1.9488  1.2770
  163OSM   H14C18295   6.660   0.130   1.728  0.1293  0.0927 -0.0047
  163OSM    C1318296   6.390   0.127   1.632 -0.1990 -0.1977  0.7837
  163OSM   H13A18297   6.377   0.226   1.589 -1.9143 -1.0560 -0.8504
  163OSM   H13B18298   6.287   0.094   1.631  0.0729 -1.0493  0.6166
  163OSM   H13C18299   6.455   0.068   1.569  1.7601  0.2400  2.2886
  163OSM    C1218300   6.365   0.226   1.854  0.7033  1.1158  0.1640
  163OSM   H12A18301   6.348   0.321   1.805  0.6789  1.4105  0.7278
  163OSM   H12B18302   6.416   0.244   1.948 -0.0550  1.6073  0.4906
  163OSM    C1118303   6.228   0.171   1.888 -0.0391 -0.2247  0.2289
  163OSM   H11A18304   6.241   0.076   1.944 -0.2240  0.0109  0.6731
  163OSM   H11B18305   6.173   0.142   1.796  1.6538 -1.3712 -0.4835
  163OSM      P18306   6.051   0.365   1.905 -0.2131  0.1667 -0.4019
  163OSM    O1318307   6.066   0.356   1.754  1.2266 -0.0724  0.4089
  163OSM    O1418308   5.917   0.333   1.963  0.1372 -0.9582 -0.1540
  163OSM    O1118309   6.103   0.503   1.961  0.0399  0.0770  0.0860
  163OSM    O1218310   6.157   0.264   1.969  0.0316  0.0987  0.1431
  163OSM    C1S18311   6.065   0.568   2.082 -0.1393  0.1773 -0.3504
  163OSM    H1S18312   5.959   0.542   2.099 -0.5275 -0.2667 -3.0606
  163OSM    H1T18313   6.074   0.679   2.074  3.2039 -0.0774 -1.9584
  163OSM     NF18314   6.100   0.586   2.326  0.7735 -0.0880 -0.5940
  163OSM    HNF18315   6.154   0.659   2.366  0.7009 -0.0616 -0.5438
  163OSM    C2S18316   6.152   0.533   2.200 -0.1428  0.7478  0.0337
  163OSM    H2S18317   6.147   0.422   2.209 -1.8239  0.8084  0.0927
  163OSM    C3S18318   6.306   0.563   2.173 -0.1240  0.8168  0.6318
  163OSM    H3S18319   6.317   0.673   2.161 -1.5388  0.9906  0.8154
  163OSM     O318320   6.350   0.513   2.042  0.2488 -0.7625  0.0086
  163OSM    HO318321   6.267   0.498   1.996  0.3938  1.4511 -1.1202
  163OSM    C4S18322   6.396   0.516   2.291  0.1773 -0.7255  0.3874
  163OSM    H4S18323   6.426   0.605   2.348 -0.4110 -0.8884  0.9646
  163OSM    C5S18324   6.436   0.393   2.324 -0.7236 -0.1411 -0.5408
  163OSM    H5S18325   6.390   0.307   2.272 -1.6064 -0.7357  1.1160
  163OSM    C6S18326   6.541   0.366   2.429  0.5539  0.1441 -0.6167
  163OSM    H6S18327   6.639   0.343   2.382  1.2400  3.2764 -0.9590
  163OSM    H6T18328   6.503   0.280   2.487  0.8806  0.9539  0.8567
  163OSM    C7S18329   6.565   0.485   2.529  0.2410  0.3954  0.5527
  163OSM    H7S18330   6.590   0.580   2.477  1.2508  0.3016  0.8428
  163OSM    H7T18331   6.656   0.459   2.587  0.3703  0.7136  0.4963
  163OSM    C8S18332   6.449   0.507   2.626 -0.1172  0.5154  0.8708
  163OSM    H8S18333   6.435   0.408   2.675 -1.5462 -0.3605 -1.1468
  163OSM    H8T18334   6.350   0.516   2.575 -0.2033 -1.2956  0.6326
  163OSM    C9S18335   6.475   0.613   2.730 -0.6332  0.5144 -0.1377
  163OSM    H9S18336   6.504   0.706   2.676  1.5721 -0.8788 -1.5396
  163OSM    H9T18337   6.565   0.596   2.793  0.6525 -1.3142 -2.2941
  163OSM   C10S18338   6.354   0.659   2.812 -0.0150  0.0533  0.4795
  163OSM   H10S18339   6.309   0.584   2.880  0.2921 -0.9420 -0.3745
  163OSM   H10T18340   6.285   0.682   2.727  1.3897 -1.0944 -1.0444
  163OSM   C11S18341   6.373   0.786   2.889 -0.1287 -0.7990 -0.0323
  163OSM   H11S18342   6.276   0.826   2.927  0.1034  0.1178 -0.3930
  163OSM   H11T18343   6.428   0.852   2.819 -0.4115 -1.1246 -0.5715
  163OSM   C12S18344   6.466   0.765   3.017 -0.2342  0.0410 -0.4036
  163OSM   H12S18345   6.527   0.853   3.045 -1.4020  0.0257  2.4993
  163OSM   H12T18346   6.543   0.685   3.006  0.7739  1.1152 -1.4372
  163OSM   C13S18347   6.385   0.727   3.143 -0.4603 -0.1455  0.1070
  163OSM   H13S18348   6.336   0.631   3.118 -0.4126  0.2895 -1.8467
  163OSM   H13T18349   6.322   0.815   3.166 -1.8789 -1.9826  4.1770
  163OSM   C14S18350   6.490   0.715   3.256 -0.2454  0.1979 -0.0108
  163OSM   H14S18351   6.554   0.805   3.250 -0.0898  0.0074 -1.3178
  163OSM   H14T18352   6.554   0.629   3.226  0.0964  0.5856 -0.3844
  163OSM   C15S18353   6.429   0.674   3.394 -0.1734 -0.2171 -0.1915
  163OSM   H15S18354   6.364   0.586   3.377 -0.2557 -0.0307 -0.8791
  163OSM   H15T18355   6.375   0.766   3.426  0.0363  1.0016 -3.0901
  163OSM   C16S18356   6.526   0.638   3.508 -0.2083  0.3839 -0.1570
  163OSM   H16S18357   6.597   0.722   3.519 -0.2343  0.3225  0.4796
  163OSM   H16T18358   6.585   0.546   3.486 -0.3445  0.0992  0.6295
  163OSM   C17S18359   6.451   0.623   3.638 -0.1550 -0.1653  0.1788
  163OSM   H17S18360   6.361   0.563   3.611 -0.8100  1.5997 -1.8165
  163OSM   H17T18361   6.404   0.723   3.653 -2.6046 -0.8990 -1.8510
  163OSM   C18S18362   6.512   0.567   3.759  0.2380  0.1702  0.6314
  163OSM   H18S18363   6.576   0.637   3.817  0.1544 -0.8836  2.0646
  163OSM   H18T18364   6.567   0.475   3.732  3.9320  1.7467  2.1309
  163OSM   H18U18365   6.425   0.543   3.824  0.2909  0.1056  0.6777
  163OSM    C1F18366   6.007   0.516   2.395  0.4429 -0.0412 -0.4289
  163OSM     OF18367   5.962   0.412   2.351 -0.1233  0.4859 -0.0925
  163OSM    C2F18368   5.962   0.577   2.527 -0.3334 -0.1113  0.2496
  163OSM    H2F18369   5.855   0.603   2.513  0.4319  2.5486 -1.3462
  163OSM    H2G18370   6.017   0.669   2.556  0.7876  0.2894 -2.8089
  163OSM    C3F18371   5.985   0.471   2.633  0.2962 -0.6744  0.0418
  163OSM    H3F18372   6.092   0.439   2.637  0.5685  0.2236  0.0337
  163OSM    H3G18373   5.912   0.387   2.635 -1.0388  0.4467 -0.6142
  163OSM    C4F18374   5.978   0.536   2.772  0.2248  0.5716 -0.9431
  163OSM    H4F18375   5.874   0.572   2.788 -0.4180 -1.1591 -1.0088
  163OSM    H4G18376   6.058   0.613   2.776  0.0609  0.6975  1.5907
  163OSM    C5F18377   6.022   0.433   2.875  0.0383 -0.3730  0.0185
  163OSM    H5F18378   6.128   0.406   2.857 -0.4936 -3.0365  0.3951
  163OSM    H5G18379   5.955   0.345   2.869 -0.5340  0.1153 -0.9669
  163OSM    C6F18380   6.017   0.484   3.024  0.1832 -0.0693 -0.3050
  163OSM    H6F18381   5.915   0.493   3.069  0.4536  1.6380  0.0702
  163OSM    H6G18382   6.067   0.583   3.036  3.4707 -1.6155 -0.2579
  163OSM    C7F18383   6.110   0.410   3.124  0.0186 -0.5277  0.1269
  163OSM    H7F18384   6.213   0.407   3.082 -0.8157 -0.8738 -2.0410
  163OSM    H7G18385   6.082   0.303   3.120 -0.0666 -0.4791 -1.0036
  163OSM    C8F18386   6.118   0.467   3.264 -0.2044 -0.2750 -0.1439
  163OSM    H8F18387   6.137   0.574   3.244 -0.4321 -0.5377 -1.9861
  163OSM    H8G18388   6.194   0.416   3.327 -2.2592  0.5411  3.2366
  163OSM    C9F18389   5.988   0.442   3.337 -0.7688  0.5357 -0.2781
  163OSM    H9F18390   5.909   0.401   3.272 -1.5287  1.6493 -0.0679
  163OSM   C10F18391   5.954   0.482   3.460 -0.4043  0.7523  0.2556
  163OSM   H10F18392   5.852   0.461   3.498 -0.3368 -0.6808 -0.3205
  163OSM   C11F18393   6.043   0.559   3.561 -0.2719 -0.2431  0.2574
  163OSM   H11F18394   5.984   0.647   3.592 -0.4402 -1.4158  3.6061
  163OSM   H11G18395   6.126   0.607   3.503  1.0874 -2.6728  0.0457
  163OSM   C12F18396   6.085   0.499   3.694 -0.5131  0.0967  0.1092
  163OSM   H12F18397   6.169   0.427   3.683 -0.1467  0.7251 -1.4791
  163OSM   H12G18398   5.993   0.459   3.741  0.5796 -0.1732  2.1256
  163OSM   C13F18399   6.106   0.604   3.799 -0.3389 -0.4775  0.1940
  163OSM   H13F18400   6.015   0.666   3.806 -0.4325 -0.2126 -2.5380
  163OSM   H13G18401   6.195   0.664   3.772 -0.3220 -1.1134 -1.2438
  163OSM   C14F18402   6.130   0.548   3.946  0.5908 -0.4259 -0.0340
  163OSM   H14F18403   6.228   0.495   3.941  0.8044  0.0128 -0.5068
  163OSM   H14G18404   6.044   0.479   3.961 -1.3214  1.8171 -0.1584
  163OSM   C15F18405   6.112   0.650   4.058 -0.0662 -0.4731 -0.0302
  163OSM   H15F18406   6.212   0.698   4.070 -0.1475 -0.2213 -0.3434
  163OSM   H15G18407   6.101   0.594   4.154  2.6312  0.0222  0.6540
  163OSM   C16F18408   6.005   0.758   4.045 -0.1593 -0.3275 -0.4176
  163OSM   H16F18409   5.906   0.707   4.052 -0.1044 -0.7478 -2.2729
  163OSM   H16G18410   6.019   0.798   3.942  1.2252 -3.5692 -1.6312
  163OSM   C17F18411   6.017   0.882   4.133 -0.2850 -0.2639 -0.1276
  163OSM   H17F18412   6.123   0.906   4.153 -0.2657  0.1493 -0.7190
  163OSM   H17G18413   5.965   0.857   4.228  1.0722 -0.0681  0.6847
  163OSM   C18F18414   5.938   1.001   4.080 -0.2784 -0.8594  0.0506
  163OSM   H18F18415   5.839   0.960   4.053 -0.6310 -1.3218  1.8915
  163OSM   H18G18416   5.983   1.038   3.985 -1.3530  3.1513  0.9013
  163OSM   H18H18417   5.941   1.091   4.145  3.8531  1.2950 -2.6580
  164OSM      N18418   1.597   0.642   1.951  0.1901 -0.0970 -0.0049
  164OSM    C1518419   1.551   0.633   2.092 -0.2266  0.4828 -0.1607
  164OSM   H15A18420   1.481   0.553   2.111  0.1832 -0.0014 -0.6427
  164OSM   H15B18421   1.523   0.731   2.126  3.2213  1.5246  0.0426
  164OSM   H15C18422   1.639   0.619   2.152 -0.5565 -0.1876  0.1788
  164OSM    C1418423   1.495   0.590   1.864  0.2601  0.0442 -0.6727
  164OSM   H14A18424   1.524   0.619   1.764 -1.9770  1.0167 -1.0953
  164OSM   H14B18425   1.400   0.641   1.876  0.0190 -0.1296 -1.7480
  164OSM   H14C18426   1.464   0.490   1.889  0.3195  0.5914  1.9166
  164OSM    C1318427   1.639   0.781   1.914 -0.1639  0.0091 -0.0075
  164OSM   H13A18428   1.695   0.829   1.992 -2.5923  1.9881  0.6486
  164OSM   H13B18429   1.551   0.843   1.914 -0.3033 -0.1858  0.4536
  164OSM   H13C18430   1.696   0.790   1.822  0.9530  0.7791  0.7426
  164OSM    C1218431   1.721   0.549   1.936 -0.4848  0.5494 -0.2391
  164OSM   H12A18432   1.757   0.549   1.835  0.6808 -1.0704  0.1270
  164OSM   H12B18433   1.674   0.452   1.937 -3.3889  1.8338 -1.1992
  164OSM    C1118434   1.844   0.576   2.034  0.1999 -0.5856  0.8990
  164OSM   H11A18435   1.864   0.685   2.041 -1.0127 -0.2022 -1.0191
  164OSM   H11B18436   1.935   0.532   1.986 -0.0115  2.1230 -2.2731
  164OSM      P18437   1.801   0.374   2.182 -0.2589  0.1252  0.4718
  164OSM    O1318438   1.658   0.344   2.203  0.1054  0.3050  0.2696
  164OSM    O1418439   1.856   0.296   2.066  0.6764  0.1204 -0.0069
  164OSM    O1118440   1.873   0.351   2.314  0.0194  0.4341  0.2091
  164OSM    O1218441   1.822   0.531   2.167  0.6058 -0.2088 -0.0100
  164OSM    C1S18442   2.001   0.398   2.350  0.0876 -0.0643  0.0713
  164OSM    H1S18443   2.025   0.489   2.290  0.2344  0.8494  1.4742
  164OSM    H1T18444   2.076   0.317   2.335 -0.3085 -0.0793 -2.2520
  164OSM     NF18445   2.127   0.543   2.516  0.5077  0.4947 -0.4534
  164OSM    HNF18446   2.212   0.508   2.554 -0.0772 -0.1640  0.3041
  164OSM    C2S18447   2.018   0.445   2.496  0.2503  0.0288  0.1663
  164OSM    H2S18448   1.918   0.491   2.514 -0.1071 -0.9164  0.6452
  164OSM    C3S18449   2.014   0.320   2.589  0.1075  0.5717 -0.2225
  164OSM    H3S18450   2.109   0.265   2.576  0.3187  0.6123  1.0180
  164OSM     O318451   1.900   0.235   2.557  0.0110  0.4864 -0.3612
  164OSM    HO318452   1.864   0.279   2.481 -0.4384  1.2969  0.3022
  164OSM    C4S18453   2.012   0.358   2.733 -0.7639 -0.1370 -0.8202
  164OSM    H4S18454   1.910   0.385   2.763 -0.9869 -0.4921 -1.2614
  164OSM    C5S18455   2.116   0.334   2.820 -0.0041  0.0588  0.0515
  164OSM    H5S18456   2.214   0.294   2.790 -0.3247 -0.3396 -0.4968
  164OSM    C6S18457   2.119   0.384   2.965 -0.2234 -0.6396 -0.6508
  164OSM    H6S18458   2.091   0.491   2.968  0.9990 -0.3130 -0.3869
  164OSM    H6T18459   2.214   0.372   3.022  0.9111  0.5561 -2.1963
  164OSM    C7S18460   2.013   0.306   3.043 -0.0980 -0.0135 -0.5405
  164OSM    H7S18461   2.029   0.199   3.015  3.5187  0.6689 -1.6378
  164OSM    H7T18462   1.917   0.345   3.003 -1.2332 -0.0277  2.0098
  164OSM    C8S18463   2.006   0.331   3.191  0.4134 -0.2650  0.2495
  164OSM    H8S18464   1.972   0.435   3.209 -0.4430  0.2063 -3.2294
  164OSM    H8T18465   2.106   0.313   3.236  1.3510  0.9412 -1.2426
  164OSM    C9S18466   1.893   0.252   3.256  0.3136  0.7338  0.8142
  164OSM    H9S18467   1.903   0.144   3.232 -1.2374  0.6511  0.4168
  164OSM    H9T18468   1.792   0.281   3.221  0.0966 -1.5929 -0.6820
  164OSM   C10S18469   1.896   0.266   3.409 -0.0773  0.3442 -0.4541
  164OSM   H10S18470   1.874   0.372   3.433 -1.3406  0.2654 -1.1593
  164OSM   H10T18471   1.987   0.233   3.462 -0.9105 -0.5111  0.4974
  164OSM   C11S18472   1.785   0.178   3.472 -0.3068 -0.2529 -0.5474
  164OSM   H11S18473   1.818   0.072   3.463 -0.3185 -0.2476 -0.6580
  164OSM   H11T18474   1.700   0.194   3.403  0.9920  1.2951 -1.8839
  164OSM   C12S18475   1.738   0.239   3.610 -0.5469 -0.1586 -0.2445
  164OSM   H12S18476   1.645   0.180   3.628  0.8887 -2.2261  0.8085
  164OSM   H12T18477   1.705   0.345   3.611  1.7670  0.6237  2.0288
  164OSM   C13S18478   1.843   0.211   3.719  0.0028 -0.8624 -0.4714
  164OSM   H13S18479   1.909   0.300   3.731 -1.2568  0.0108  0.1958
  164OSM   H13T18480   1.913   0.130   3.688 -0.7426 -2.5720  2.0211
  164OSM   C14S18481   1.781   0.177   3.861 -0.6038 -0.8380  0.3349
  164OSM   H14S18482   1.739   0.075   3.854 -1.5402 -0.4707  0.5454
  164OSM   H14T18483   1.702   0.253   3.878  0.1497 -0.3391  1.8974
  164OSM   C15S18484   1.890   0.183   3.975  0.2595 -0.0592 -0.1245
  164OSM   H15S18485   1.932   0.285   3.992  0.1517 -0.2641  1.5482
  164OSM   H15T18486   1.972   0.113   3.948  0.9388 -0.0642  1.8372
  164OSM   C16S18487   1.833   0.130   4.113  0.3985 -0.4642 -0.1831
  164OSM   H16S18488   1.809   0.022   4.107  1.7282 -1.0062  2.6085
  164OSM   H16T18489   1.728   0.163   4.126 -0.3364 -3.1932  1.7386
  164OSM   C17S18490   1.916   0.162   4.238 -0.5830  0.7895 -0.0803
  164OSM   H17S18491   1.942   0.269   4.251  0.7980  0.2884  1.5695
  164OSM   H17T18492   2.018   0.119   4.239 -0.3029  1.4429 -0.2645
  164OSM   C18S18493   1.836   0.117   4.363 -0.0128 -0.4026 -0.4601
  164OSM   H18S18494   1.894   0.144   4.455  0.4756 -3.0396  0.0728
  164OSM   H18T18495   1.820   0.008   4.355  1.1685 -0.6697  0.4549
  164OSM   H18U18496   1.740   0.173   4.372 -0.1924 -0.6413 -0.8834
  164OSM    C1F18497   2.122   0.665   2.459 -0.4930 -0.3236 -0.5890
  164OSM     OF18498   2.013   0.711   2.426  0.0150 -0.2807 -0.4748
  164OSM    C2F18499   2.251   0.738   2.441 -0.9163 -0.0804 -0.9174
  164OSM    H2F18500   2.264   0.751   2.332 -1.9811  0.5407 -0.9908
  164OSM    H2G18501   2.329   0.687   2.501  0.3949  2.6431 -0.1626
  164OSM    C3F18502   2.228   0.876   2.511  0.0597  0.6609  0.2340
  164OSM    H3F18503   2.216   0.857   2.620 -0.0401 -3.4825 -0.3207
  164OSM    H3G18504   2.144   0.944   2.485  0.2241  0.4199 -1.0103
  164OSM    C4F18505   2.356   0.964   2.496  0.1735 -0.1217 -0.1928
  164OSM    H4F18506   2.382   0.977   2.388  3.5758 -0.4007  0.4929
  164OSM    H4G18507   2.437   0.904   2.542 -1.7339 -2.7051  0.0380
  164OSM    C5F18508   2.336   1.096   2.570  0.7040  0.6175  0.2142
  164OSM    H5F18509   2.332   1.086   2.681  1.2532  0.3669  0.2127
  164OSM    H5G18510   2.235   1.130   2.537  0.7316  2.9534  2.2425
  164OSM    C6F18511   2.439   1.195   2.528 -0.1524  0.5278  0.5287
  164OSM    H6F18512   2.418   1.299   2.563 -2.7921  0.4791 -0.6596
  164OSM    H6G18513   2.433   1.195   2.417  0.6992 -1.7020  0.4412
  164OSM    C7F18514   2.588   1.166   2.574  0.2223  0.1085 -0.1683
  164OSM    H7F18515   2.647   1.260   2.560  0.6674  0.1358  1.6280
  164OSM    H7G18516   2.646   1.099   2.506  3.1035 -1.3536  3.4025
  164OSM    C8F18517   2.591   1.127   2.720  0.0124  0.0587 -0.1641
  164OSM    H8F18518   2.539   1.032   2.743  1.0037 -0.3260  0.5885
  164OSM    H8G18519   2.528   1.199   2.775 -1.4048  0.8265 -2.6429
  164OSM    C9F18520   2.738   1.107   2.757 -0.1468 -0.3809 -0.0258
  164OSM    H9F18521   2.783   1.016   2.714 -3.4729 -1.4935 -1.4972
  164OSM   C10F18522   2.817   1.193   2.833 -0.9032  0.7657 -0.5695
  164OSM   H10F18523   2.925   1.179   2.847 -1.3961 -2.8210  0.5665
  164OSM   C11F18524   2.787   1.315   2.910  0.5021  0.6383  0.5465
  164OSM   H11F18525   2.680   1.342   2.898  0.5155  0.6591  0.4740
  164OSM   H11G18526   2.843   1.392   2.853  1.2641 -1.2146 -1.3567
  164OSM   C12F18527   2.848   1.312   3.045  0.4456 -0.3858 -0.2544
  164OSM   H12F18528   2.948   1.263   3.047 -0.4051 -2.1902  0.5514
  164OSM   H12G18529   2.785   1.243   3.105 -0.3758 -1.0675 -1.8411
  164OSM   C13F18530   2.847   1.444   3.117  0.4625 -0.4760 -0.2521
  164OSM   H13F18531   2.897   1.533   3.073 -1.8617  1.1502  0.2082
  164OSM   H13G18532   2.890   1.426   3.218 -1.0731 -1.4705  0.2582
  164OSM   C14F18533   2.698   1.487   3.138  0.4229  0.0122  0.1437
  164OSM   H14F18534   2.633   1.404   3.172  2.5984 -1.3772  1.1800
  164OSM   H14G18535   2.652   1.524   3.044 -0.5181 -1.0134  0.1819
  164OSM   C15F18536   2.688   1.603   3.245 -0.2046 -0.2737  0.1701
  164OSM   H15F18537   2.586   1.645   3.238  0.2668  0.8582 -0.0233
  164OSM   H15G18538   2.761   1.686   3.236 -1.0116  0.9500  3.6328
  164OSM   C16F18539   2.685   1.539   3.392  0.2078  0.5959 -0.1209
  164OSM   H16F18540   2.760   1.596   3.451  0.5506  0.0175  0.0086
  164OSM   H16G18541   2.717   1.433   3.387  0.0792  0.3196  2.8226
  164OSM   C17F18542   2.543   1.539   3.456 -0.9839 -0.0363  0.6002
  164OSM   H17F18543   2.523   1.642   3.491 -0.5339 -0.3674  1.9016
  164OSM   H17G18544   2.550   1.490   3.555  1.7565 -0.7261  0.1595
  164OSM   C18F18545   2.420   1.480   3.381 -0.3299 -0.1301 -0.4567
  164OSM   H18F18546   2.333   1.500   3.447 -1.2352  1.1316 -1.9683
  164OSM   H18G18547   2.438   1.373   3.359  1.1610 -0.0221  0.1350
  164OSM   H18H18548   2.409   1.536   3.286  0.8102  3.2937  1.2686
  165SAPS     N18549   6.278   3.212   6.758  0.0430  0.1951  0.1884
  165SAPS   HN118550   6.277   3.294   6.822  0.3016  0.2028  0.1832
  165SAPS   HN218551   6.373   3.197   6.718  0.9843  0.9670  1.9834
  165SAPS   HN318552   6.228   3.235   6.670 -0.0640 -0.6268  0.0266
  165SAPS   C1218553   6.220   3.081   6.801  0.2594  0.0245  0.1989
  165SAPS  H12A18554   6.292   3.043   6.873  1.6987 -0.0207 -1.2119
  165SAPS   C1318555   6.076   3.084   6.870  0.2757  0.7035 -0.2591
  165SAPS  O13A18556   6.031   3.194   6.915 -0.1370  0.0400 -0.0821
  165SAPS  O13B18557   6.034   2.969   6.912  0.4560 -0.7840 -0.1501
  165SAPS   C1118558   6.223   2.991   6.668 -0.6529 -0.3100  0.5953
  165SAPS  H11A18559   6.141   3.027   6.602 -1.5595  1.5810  2.6380
  165SAPS  H11B18560   6.192   2.888   6.699  3.1342 -1.4877  0.9739
  165SAPS     P18561   6.444   2.873   6.594  0.1282  0.0405 -0.4166
  165SAPS   O1318562   6.563   2.909   6.520 -0.5850 -0.5280 -0.3127
  165SAPS   O1418563   6.454   2.815   6.726 -0.3176  0.1282 -0.0822
  165SAPS   O1218564   6.348   3.001   6.593 -0.1850  0.2458  0.3452
  165SAPS   O1118565   6.359   2.777   6.508 -0.0029  0.0004  0.4924
  165SAPS    C118566   6.401   2.642   6.475 -0.4444  0.4378 -0.2661
  165SAPS    HA18567   6.485   2.601   6.534  0.6621  1.1203 -1.3231
  165SAPS    HB18568   6.309   2.580   6.467 -2.5386  3.4931 -2.4549
  165SAPS    C218569   6.443   2.643   6.329 -0.3163 -0.5822  0.6064
  165SAPS    HS18570   6.525   2.716   6.313 -0.4722 -0.7250 -0.9843
  165SAPS   O2118571   6.332   2.677   6.249  0.4045  0.2415  0.0451
  165SAPS   C2118572   6.348   2.780   6.163 -0.1087 -0.5982  0.0640
  165SAPS   O2218573   6.451   2.848   6.145  0.1915 -0.7447 -0.1510
  165SAPS   C2218574   6.229   2.788   6.068 -1.1259 -0.1408  0.0322
  165SAPS   H2R18575   6.162   2.702   6.090 -2.6764  1.1636  0.6555
  165SAPS   H2S18576   6.174   2.883   6.089 -1.1689 -0.0893 -0.3026
  165SAPS    C318577   6.497   2.498   6.294  0.2877  0.1470  0.4579
  165SAPS    HX18578   6.413   2.427   6.302  1.1443 -1.5088 -3.1021
  165SAPS    HY18579   6.564   2.463   6.376 -0.7251 -2.0578  0.4112
  165SAPS   O3118580   6.545   2.487   6.155  0.6816 -0.3932 -0.7268
  165SAPS   C3118581   6.662   2.540   6.135 -0.5531  0.1777 -0.2625
  165SAPS   O3218582   6.735   2.594   6.219  0.1805  0.0146 -0.1308
  165SAPS   C3218583   6.697   2.532   5.990 -0.2480 -0.1639  0.2555
  165SAPS   H2X18584   6.806   2.512   5.984 -0.3583 -0.9949  0.7504
  165SAPS   H2Y18585   6.670   2.630   5.946  0.9667 -0.3771 -1.0374
  165SAPS   C2318586   6.282   2.789   5.927 -0.2699  0.5731 -0.0280
  165SAPS   H3R18587   6.333   2.691   5.915  0.4763  0.6547  2.0366
  165SAPS   H3S18588   6.352   2.873   5.907 -1.3264  1.9371  1.7105
  165SAPS   C2418589   6.183   2.818   5.814  0.1206  0.1097 -0.3181
  165SAPS   H4R18590   6.133   2.723   5.784  1.3003 -0.0878 -1.7580
  165SAPS   H4S18591   6.247   2.844   5.727  0.5602  1.3841  0.3686
  165SAPS   C2518592   6.094   2.933   5.840 -0.2545  0.1355 -0.7887
  165SAPS   H5R18593   6.052   2.944   5.941 -0.6919 -2.4840 -0.6045
  165SAPS   C2618594   6.067   3.039   5.763  0.0284 -0.0284 -0.6902
  165SAPS   H6R18595   6.010   3.117   5.815  0.4820 -0.8010  1.0169
  165SAPS   C2718596   6.108   3.069   5.622 -0.6047 -0.5835  0.6109
  165SAPS   H7R18597   6.218   3.086   5.619 -0.8492  1.0246 -0.1515
  165SAPS   H7S18598   6.068   3.168   5.594 -0.2430 -0.6379 -0.1148
  165SAPS   C2818599   6.061   2.964   5.517 -0.2027 -0.0662 -0.1582
  165SAPS   H8R18600   6.007   2.877   5.557 -1.0615  0.1690 -0.7761
  165SAPS   C2918601   6.092   2.955   5.388 -0.0219  0.4538  0.4478
  165SAPS   H9R18602   6.056   2.870   5.328  1.1481 -0.7347  1.3654
  165SAPS  C21018603   6.181   3.048   5.312  0.6188 -0.4486 -1.0610
  165SAPS  H10R18604   6.273   2.990   5.289 -0.1937 -1.6228 -1.4134
  165SAPS  H10S18605   6.230   3.130   5.369  0.9340 -0.0127 -1.9339
  165SAPS  C21118606   6.115   3.106   5.195 -0.2193  0.1477  0.4312
  165SAPS  H11R18607   6.035   3.180   5.208 -1.7595 -1.2456 -0.7168
  165SAPS  C21218608   6.124   3.063   5.075 -0.2338  0.2224  0.9038
  165SAPS  H12R18609   6.077   3.133   5.004  1.3927 -0.2590 -0.7469
  165SAPS  C21318610   6.211   2.955   5.015 -0.6401 -0.2642 -0.3898
  165SAPS  H13R18611   6.139   2.892   4.957 -2.0723  0.0219  1.0163
  165SAPS  H13S18612   6.244   2.888   5.097 -0.7074 -0.1788 -0.2936
  165SAPS  C21418613   6.328   2.989   4.932  0.3639  0.2206 -0.4056
  165SAPS  H14R18614   6.351   3.094   4.911 -1.3867  0.5033 -1.0264
  165SAPS  C21518615   6.417   2.900   4.880 -0.8178 -0.5102 -0.6874
  165SAPS  H15R18616   6.516   2.937   4.849 -0.4509 -1.6343 -0.9048
  165SAPS  C21618617   6.421   2.751   4.900  0.1474  0.1283 -0.4933
  165SAPS  H16R18618   6.337   2.705   4.957  0.5745 -1.3421 -1.0159
  165SAPS  H16S18619   6.516   2.717   4.946 -2.1782 -2.5368  2.8990
  165SAPS  C21718620   6.429   2.680   4.764  0.7426  0.5385  0.0778
  165SAPS  H17R18621   6.529   2.699   4.720 -0.5911  1.9767 -2.5655
  165SAPS  H17S18622   6.358   2.722   4.690 -0.2779  2.4416  2.0027
  165SAPS  C21818623   6.412   2.531   4.786 -0.3911 -0.0956  0.3238
  165SAPS  H18R18624   6.436   2.474   4.693 -3.0976 -1.2723  0.2445
  165SAPS  H18S18625   6.303   2.512   4.799 -0.9302  1.9529 -0.7659
  165SAPS  C21918626   6.498   2.462   4.888  0.0773  0.6677  0.2401
  165SAPS  H19R18627   6.484   2.493   4.994  0.2059 -1.2049  0.8367
  165SAPS  H19S18628   6.605   2.483   4.866  0.2206  0.9219  1.1493
  165SAPS  C22018629   6.487   2.301   4.881 -0.6247 -0.1111  0.1960
  165SAPS  H20R18630   6.390   2.275   4.928 -0.5647 -0.4506  0.1319
  165SAPS  H20S18631   6.574   2.264   4.939  0.1820  1.5536  0.1108
  165SAPS  H20T18632   6.499   2.260   4.778  1.8580  1.3138 -0.1752
  165SAPS   C3318633   6.646   2.412   5.907 -0.8040 -0.1142 -0.4051
  165SAPS   H3X18634   6.536   2.400   5.903 -0.7888 -0.6887  0.6853
  165SAPS   H3Y18635   6.684   2.320   5.956  0.6966  0.9702  0.5784
  165SAPS   C3418636   6.706   2.429   5.773  0.2653 -0.2509 -0.0957
  165SAPS   H4X18637   6.814   2.408   5.783  0.2029 -0.2688  0.5363
  165SAPS   H4Y18638   6.692   2.536   5.743  0.1716  0.0020  0.8224
  165SAPS   C3518639   6.642   2.340   5.662 -0.1164 -0.7318 -0.1946
  165SAPS   H5X18640   6.539   2.373   5.637  0.0658  1.6019  1.8042
  165SAPS   H5Y18641   6.608   2.242   5.704 -0.8712  0.7614  2.9981
  165SAPS   C3618642   6.724   2.325   5.532 -0.2710 -0.5762  0.0298
  165SAPS   H6X18643   6.819   2.271   5.553 -0.2108 -0.1878  0.7880
  165SAPS   H6Y18644   6.770   2.423   5.505  1.9867 -1.4250  0.5531
  165SAPS   C3718645   6.655   2.269   5.408 -0.3036 -0.0322 -0.0621
  165SAPS   H7X18646   6.725   2.260   5.323 -0.8530  0.3739 -0.5674
  165SAPS   H7Y18647   6.584   2.347   5.373  0.2772 -0.4841 -2.3925
  165SAPS   C3818648   6.580   2.136   5.438 -0.3601  0.6376  0.0128
  165SAPS   H8X18649   6.504   2.149   5.518  1.5302 -2.3718  2.5094
  165SAPS   H8Y18650   6.652   2.065   5.484 -1.3414  1.7350  3.6007
  165SAPS   C3918651   6.498   2.081   5.319 -0.1195 -0.7354 -0.0890
  165SAPS   H9X18652   6.420   2.154   5.290  0.6073  0.4026  0.7595
  165SAPS   H9Y18653   6.441   1.993   5.358 -0.3311 -0.5834 -0.0518
  165SAPS  C31018654   6.589   2.044   5.207 -0.2651 -0.3983  0.4253
  165SAPS  H10X18655   6.677   1.990   5.247 -0.3823 -0.2873  0.8416
  165SAPS  H10Y18656   6.620   2.137   5.155 -0.9191 -0.3112  0.1888
  165SAPS  C31118657   6.510   1.969   5.103 -0.5251  0.2856  0.4776
  165SAPS  H11X18658   6.429   2.034   5.064 -2.1347 -1.4527  0.8472
  165SAPS  H11Y18659   6.460   1.884   5.152  0.0363 -0.0437  0.4841
  165SAPS  C31218660   6.601   1.910   4.993  0.3407 -0.4721 -0.0777
  165SAPS  H12X18661   6.684   1.851   5.039  1.9976 -0.5738 -2.9162
  165SAPS  H12Y18662   6.653   1.988   4.933 -1.8511  3.7319  2.9696
  165SAPS  C31318663   6.527   1.813   4.896  0.3696 -0.4015 -0.1056
  165SAPS  H13X18664   6.506   1.735   4.972  2.5558 -1.5935 -0.6161
  165SAPS  H13Y18665   6.593   1.765   4.820 -0.4074 -1.3306 -0.2142
  165SAPS  C31418666   6.404   1.867   4.819 -0.3410  0.5880  0.1980
  165SAPS  H14X18667   6.335   1.914   4.893  0.9921  0.5861  1.4921
  165SAPS  H14Y18668   6.346   1.779   4.786 -1.9501  1.2893  1.0207
  165SAPS  C31518669   6.442   1.932   4.685  0.5228  0.1341  0.5302
  165SAPS  H15X18670   6.500   1.855   4.630 -1.0416 -0.9429  0.3293
  165SAPS  H15Y18671   6.508   2.018   4.708  0.9069  0.5814 -1.9402
  165SAPS  C31618672   6.321   1.980   4.609  0.0656  0.0284  0.1370
  165SAPS  H16X18673   6.258   2.044   4.674  0.4847 -0.1525  0.7349
  165SAPS  H16Y18674   6.257   1.892   4.584 -0.3292  0.0807  0.9373
  165SAPS  C31718675   6.366   2.050   4.474  0.4764  0.3705  0.6689
  165SAPS  H17X18676   6.278   2.072   4.409  2.4408  1.9047 -1.6691
  165SAPS  H17Y18677   6.424   1.974   4.417 -0.2176  1.6236 -1.8743
  165SAPS  C31818678   6.454   2.168   4.489 -0.2071 -0.0988 -0.2730
  165SAPS  H18X18679   6.510   2.179   4.393 -1.3576  1.5677 -0.8076
  165SAPS  H18Y18680   6.523   2.151   4.574 -0.9880  0.8477  0.5780
  165SAPS  H18Z18681   6.396   2.260   4.513  1.4503  0.4679  1.8325
  166SAPS     N18682   5.081   1.557   6.375 -0.2707  0.1288 -0.2298
  166SAPS   HN118683   5.036   1.631   6.431  0.6973 -0.0477  0.8174
  166SAPS   HN218684   5.180   1.581   6.354 -0.3024 -1.2365 -2.1914
  166SAPS   HN318685   5.039   1.538   6.282  0.5805  2.6765 -1.2087
  166SAPS   C1218686   5.087   1.430   6.453  0.4244 -0.7210 -0.4615
  166SAPS  H12A18687   5.114   1.455   6.554 -0.1087  3.1375 -1.1002
  166SAPS   C1318688   4.963   1.341   6.458 -0.4250 -1.0871  1.0179
  166SAPS  O13A18689   4.871   1.357   6.369 -0.5129  0.1147 -0.7315
  166SAPS  O13B18690   4.974   1.240   6.534 -0.4228  0.1311 -0.2330
  166SAPS   C1118691   5.205   1.350   6.394 -0.2939  0.4217  0.4861
  166SAPS  H11A18692   5.183   1.309   6.293 -0.5839 -1.0962  1.1307
  166SAPS  H11B18693   5.212   1.260   6.459  3.5520  0.3182  0.1355
  166SAPS     P18694   5.463   1.351   6.419  0.0415 -0.2072 -0.1547
  166SAPS   O1318695   5.569   1.441   6.475 -0.0401 -0.3875  0.2740
  166SAPS   O1418696   5.440   1.225   6.501 -0.3140 -0.3964  0.4476
  166SAPS   O1218697   5.327   1.422   6.404  0.3750 -0.0064  0.1830
  166SAPS   O1118698   5.501   1.298   6.270 -0.2567  0.1448  0.4316
  166SAPS    C118699   5.576   1.392   6.181 -0.1084  0.5195 -0.6823
  166SAPS    HA18700   5.669   1.438   6.220  0.3649 -0.4770 -0.5996
  166SAPS    HB18701   5.627   1.337   6.099 -1.1771  0.3556 -1.2583
  166SAPS    C218702   5.489   1.497   6.111 -1.0142  0.2814  0.0540
  166SAPS    HS18703   5.384   1.471   6.138 -0.9730 -0.0387 -0.0932
  166SAPS   O2118704   5.514   1.476   5.968  0.7068 -0.1611 -0.0329
  166SAPS   C2118705   5.404   1.466   5.897 -0.0529  0.4682 -0.3978
  166SAPS   O2218706   5.295   1.498   5.939  1.0141 -0.3565 -0.4635
  166SAPS   C2218707   5.432   1.429   5.752 -0.5109  0.5352  0.5399
  166SAPS   H2R18708   5.487   1.333   5.745 -1.1220  0.2202 -0.1847
  166SAPS   H2S18709   5.328   1.408   5.718 -0.7012 -0.4624  1.6664
  166SAPS    C318710   5.528   1.637   6.149  0.7951  0.5105  0.3063
  166SAPS    HX18711   5.624   1.664   6.100 -0.3937  0.6164 -2.1164
  166SAPS    HY18712   5.557   1.649   6.256 -0.4875 -1.6168  0.9436
  166SAPS   O3118713   5.441   1.736   6.100  0.3950 -0.3756 -0.4646
  166SAPS   C3118714   5.333   1.763   6.177 -0.3529  0.5910  0.6505
  166SAPS   O3218715   5.300   1.707   6.281 -0.0155 -0.9009 -0.4582
  166SAPS   C3218716   5.252   1.873   6.109 -0.5603 -0.9152 -0.5013
  166SAPS   H2X18717   5.292   1.969   6.150 -1.0410  0.0041 -2.1262
  166SAPS   H2Y18718   5.146   1.868   6.139 -1.0459  0.2078 -1.9325
  166SAPS   C2318719   5.505   1.527   5.669 -0.6570 -0.3315 -0.2550
  166SAPS   H3R18720   5.549   1.475   5.580 -0.8890 -1.8463  0.4727
  166SAPS   H3S18721   5.590   1.577   5.719 -1.1932  0.1896  0.1307
  166SAPS   C2418722   5.407   1.640   5.631 -0.0768  0.0800  0.3775
  166SAPS   H4R18723   5.332   1.647   5.713 -0.3575 -0.1803  0.1442
  166SAPS   H4S18724   5.346   1.610   5.543 -0.2800  1.4034  0.0472
  166SAPS   C2518725   5.466   1.786   5.605 -0.5490 -0.3916 -0.1149
  166SAPS   H5R18726   5.510   1.840   5.690  0.5161 -0.3691 -0.6661
  166SAPS   C2618727   5.467   1.852   5.496 -0.2086  0.7372  0.3784
  166SAPS   H6R18728   5.522   1.946   5.483 -1.6386  1.5319 -0.1601
  166SAPS   C2718729   5.422   1.797   5.363  0.1042 -0.5433 -0.1903
  166SAPS   H7R18730   5.419   1.879   5.289 -0.6825  0.9835  1.4639
  166SAPS   H7S18731   5.319   1.756   5.374 -0.0981 -0.7656 -2.5404
  166SAPS   C2818732   5.485   1.675   5.313 -1.4244 -0.4769 -0.2726
  166SAPS   H8R18733   5.444   1.579   5.348  0.1737 -1.7291 -1.6973
  166SAPS   C2918734   5.578   1.682   5.210  0.2603 -0.5434 -0.3910
  166SAPS   H9R18735   5.629   1.589   5.184  1.1954  0.1457 -1.0908
  166SAPS  C21018736   5.634   1.804   5.143  0.7806 -0.1219  0.5976
  166SAPS  H10R18737   5.741   1.775   5.134  0.9094  0.6587 -0.7074
  166SAPS  H10S18738   5.627   1.894   5.208  1.6527  0.4203 -0.0217
  166SAPS  C21118739   5.585   1.811   5.000 -0.3236  0.3461 -0.6586
  166SAPS  H11R18740   5.593   1.718   4.942  1.9715  0.0630  0.0535
  166SAPS  C21218741   5.515   1.906   4.935  0.1544  0.0770 -0.0062
  166SAPS  H12R18742   5.511   1.889   4.826  0.2438  0.9004 -0.1479
  166SAPS  C21318743   5.483   2.042   4.987  0.2968  0.2124 -0.2858
  166SAPS  H13R18744   5.577   2.097   5.012  0.3070 -0.1481  0.4944
  166SAPS  H13S18745   5.431   2.041   5.085  2.0085  1.1184  0.6806
  166SAPS  C21418746   5.407   2.123   4.884  0.4888  0.5831 -0.4896
  166SAPS  H14R18747   5.311   2.078   4.854 -0.0631  1.6595 -0.4085
  166SAPS  C21518748   5.423   2.250   4.842 -0.2482 -0.0618  0.5676
  166SAPS  H15R18749   5.358   2.294   4.766  0.5419 -2.7487 -1.8414
  166SAPS  C21618750   5.534   2.338   4.882 -0.6607  0.9495 -0.1189
  166SAPS  H16R18751   5.632   2.309   4.839 -0.7272 -1.6834  1.2821
  166SAPS  H16S18752   5.557   2.328   4.990 -0.2049 -1.2856 -0.3766
  166SAPS  C21718753   5.494   2.493   4.861 -0.7686 -0.0074  0.0162
  166SAPS  H17R18754   5.587   2.548   4.886  1.6921 -3.2119 -1.3323
  166SAPS  H17S18755   5.411   2.521   4.930 -0.1127  0.3479  0.6677
  166SAPS  C21818756   5.464   2.534   4.712 -0.0322 -0.3373 -0.3283
  166SAPS  H18R18757   5.468   2.645   4.708  0.6869 -0.3357  0.2234
  166SAPS  H18S18758   5.358   2.509   4.694 -0.7004  1.3793  0.9839
  166SAPS  C21918759   5.555   2.464   4.607  0.3508  0.2124  0.4851
  166SAPS  H19R18760   5.540   2.355   4.623  0.4972  0.4163  2.1827
  166SAPS  H19S18761   5.658   2.495   4.635  1.0537 -0.9938 -0.6504
  166SAPS  C22018762   5.519   2.482   4.459  0.7883  0.1151 -0.1168
  166SAPS  H20R18763   5.413   2.448   4.447 -0.3309  2.4475  2.1529
  166SAPS  H20S18764   5.581   2.420   4.391 -2.4508  1.2991 -4.6286
  166SAPS  H20T18765   5.530   2.588   4.427 -2.9121  0.7642  0.3119
  166SAPS   C3318766   5.266   1.872   5.952 -0.1324 -0.8627 -0.0086
  166SAPS   H3X18767   5.336   1.793   5.919 -2.1616 -2.7616  0.0442
  166SAPS   H3Y18768   5.303   1.971   5.915 -1.1069 -1.2936 -2.3231
  166SAPS   C3418769   5.126   1.838   5.893  0.4828 -0.2407 -0.4053
  166SAPS   H4X18770   5.053   1.904   5.944  0.3269 -2.2853  2.2583
  166SAPS   H4Y18771   5.097   1.733   5.916  0.2449 -0.0017  0.4022
  166SAPS   C3518772   5.115   1.854   5.737 -0.0614 -0.0780 -0.7943
  166SAPS   H5X18773   5.186   1.784   5.686  0.3661 -2.5050  2.7541
  166SAPS   H5Y18774   5.169   1.950   5.722 -0.3514  0.3318  0.6071
  166SAPS   C3618775   4.974   1.860   5.682 -0.4123 -0.7052 -0.0390
  166SAPS   H6X18776   4.919   1.944   5.728 -2.0752 -1.4199 -0.6548
  166SAPS   H6Y18777   4.920   1.773   5.724 -0.5404 -1.7289 -2.2089
  166SAPS   C3718778   4.976   1.880   5.535  0.3761 -0.2389 -0.4187
  166SAPS   H7X18779   5.035   1.800   5.486  1.9737  1.4885 -1.3919
  166SAPS   H7Y18780   5.026   1.973   5.503  0.9495  0.0253  1.1648
  166SAPS   C3818781   4.831   1.862   5.481  0.6987 -0.7658 -0.3235
  166SAPS   H8X18782   4.761   1.929   5.536 -0.4831 -2.4763  0.3527
  166SAPS   H8Y18783   4.788   1.760   5.490  0.4132 -0.9094 -2.7118
  166SAPS   C3918784   4.808   1.894   5.335 -0.0708  0.5242  0.0973
  166SAPS   H9X18785   4.893   1.960   5.310 -1.4448  1.5580 -2.1819
  166SAPS   H9Y18786   4.709   1.940   5.314 -0.4904 -0.7558 -0.9118
  166SAPS  C31018787   4.812   1.777   5.235  0.8826  0.6776 -0.0870
  166SAPS  H10X18788   4.901   1.714   5.255  0.2461 -0.3766 -0.4539
  166SAPS  H10Y18789   4.828   1.824   5.136 -0.3899  1.6553  0.1427
  166SAPS  C31118790   4.694   1.682   5.232  0.5245 -0.0781 -0.1926
  166SAPS  H11X18791   4.681   1.654   5.339 -2.8356  0.8698 -0.2440
  166SAPS  H11Y18792   4.702   1.586   5.176 -0.8744  0.2611 -1.0119
  166SAPS  C31218793   4.561   1.740   5.200 -0.0150 -0.6219 -0.4662
  166SAPS  H12X18794   4.547   1.837   5.251  0.9141 -0.0288 -1.3102
  166SAPS  H12Y18795   4.484   1.666   5.230 -0.1829 -0.0478  0.5406
  166SAPS  C31318796   4.530   1.765   5.057  0.3791  0.0993  0.6490
  166SAPS  H13X18797   4.570   1.672   5.012  2.6961  1.0715  0.5302
  166SAPS  H13Y18798   4.579   1.856   5.016  0.4322  0.7949  2.1879
  166SAPS  C31418799   4.380   1.773   5.031  0.2121 -0.1214  0.1662
  166SAPS  H14X18800   4.347   1.866   5.082  0.2633  1.8007 -3.0315
  166SAPS  H14Y18801   4.323   1.689   5.077  0.3161 -1.1340 -1.4957
  166SAPS  C31518802   4.363   1.785   4.885  0.6480  0.0074 -0.1449
  166SAPS  H15X18803   4.433   1.719   4.830  0.4495 -0.1566 -0.2053
  166SAPS  H15Y18804   4.375   1.889   4.848 -1.5788 -0.3109 -2.0458
  166SAPS  C31618805   4.213   1.755   4.841  0.4396 -0.0134  1.0767
  166SAPS  H16X18806   4.146   1.821   4.900 -2.3301 -1.5861 -0.0775
  166SAPS  H16Y18807   4.183   1.650   4.864 -0.8282  0.7347  3.1776
  166SAPS  C31718808   4.198   1.775   4.693  0.3374  0.4991  0.3036
  166SAPS  H17X18809   4.266   1.713   4.630 -0.2996 -0.1164  0.2081
  166SAPS  H17Y18810   4.221   1.883   4.679 -1.0344  0.8346  0.5265
  166SAPS  C31818811   4.054   1.753   4.633 -0.8253 -0.3804  0.0701
  166SAPS  H18X18812   4.029   1.650   4.667 -0.5604 -0.0312  1.4124
  166SAPS  H18Y18813   4.051   1.768   4.523 -0.6985  0.5385  0.1833
  166SAPS  H18Z18814   3.989   1.828   4.683  0.2520  1.6322 -1.4206
  167SAPS     N18815   0.014   3.572   6.812  0.3565  0.2660  0.0908
  167SAPS   HN118816   0.068   3.591   6.899  0.2815 -0.3676  0.2776
  167SAPS   HN218817   0.064   3.498   6.758  0.1133 -0.0402  0.2860
  167SAPS   HN318818   0.019   3.665   6.766 -0.5443  0.4389  0.3201
  167SAPS   C1218819  -0.129   3.530   6.842 -0.1961 -0.6234  0.3465
  167SAPS  H12A18820  -0.126   3.428   6.876 -2.4972 -1.5250 -1.8997
  167SAPS   C1318821  -0.209   3.602   6.954 -0.5568 -1.0109 -0.0013
  167SAPS  O13A18822  -0.148   3.697   7.013  0.2268 -0.4494 -0.2577
  167SAPS  O13B18823  -0.328   3.574   6.973  0.9142 -0.0996 -0.2855
  167SAPS   C1118824  -0.208   3.543   6.717 -0.3280 -0.2152  0.6681
  167SAPS  H11A18825  -0.205   3.643   6.669  2.3978  0.5270  2.1567
  167SAPS  H11B18826  -0.315   3.526   6.740 -0.5548  1.3794  0.8792
  167SAPS     P18827  -0.249   3.336   6.555 -0.4921  0.1277 -0.2909
  167SAPS   O1318828  -0.163   3.253   6.459  0.4484 -0.6120 -0.2547
  167SAPS   O1418829  -0.317   3.267   6.662  0.0253 -0.4617  0.5631
  167SAPS   O1218830  -0.153   3.455   6.615  0.2523 -0.2828 -0.3094
  167SAPS   O1118831  -0.350   3.411   6.469  0.2012 -0.2400 -0.3853
  167SAPS    C118832  -0.309   3.516   6.378 -0.2409  0.1042  0.5379
  167SAPS    HA18833  -0.370   3.607   6.395  0.4386  1.1187 -1.9521
  167SAPS    HB18834  -0.202   3.547   6.384 -0.0022  0.0051 -1.9483
  167SAPS    C218835  -0.325   3.464   6.232  0.2520 -0.6606 -0.0716
  167SAPS    HS18836  -0.263   3.374   6.213 -2.2977 -2.2851 -1.2092
  167SAPS   O2118837  -0.288   3.572   6.142  0.8547  0.1406  0.1614
  167SAPS   C2118838  -0.155   3.577   6.129  0.3405 -0.7884  0.4446
  167SAPS   O2218839  -0.071   3.513   6.178  0.4148 -0.0424 -0.2384
  167SAPS   C2218840  -0.120   3.686   6.022 -0.3117  0.3417  0.3782
  167SAPS   H2R18841  -0.193   3.679   5.938  1.7279  0.3782 -1.4779
  167SAPS   H2S18842  -0.139   3.780   6.079 -1.2700  0.2409  0.2345
  167SAPS    C318843  -0.473   3.419   6.210  0.3177  0.2679 -0.1143
  167SAPS    HX18844  -0.532   3.508   6.239 -0.4834 -0.2176 -0.2231
  167SAPS    HY18845  -0.502   3.342   6.285 -1.8739 -0.8651 -2.0194
  167SAPS   O3118846  -0.494   3.382   6.075  0.0890  0.3255 -0.1650
  167SAPS   C3118847  -0.451   3.257   6.051  0.1564  0.4786 -0.1106
  167SAPS   O3218848  -0.411   3.179   6.137  0.4810 -0.5206 -1.1626
  167SAPS   C3218849  -0.481   3.225   5.906 -0.3121  0.5052  0.1334
  167SAPS   H2X18850  -0.586   3.252   5.883 -1.3204 -3.1313 -0.0802
  167SAPS   H2Y18851  -0.485   3.115   5.897 -0.0966  0.5446 -0.4494
  167SAPS   C2318852   0.023   3.672   5.975  0.0522 -0.0158 -0.2839
  167SAPS   H3R18853   0.027   3.589   5.901 -0.0371  0.1860 -0.5176
  167SAPS   H3S18854   0.081   3.633   6.061 -0.2078  1.1362  0.4319
  167SAPS   C2418855   0.089   3.800   5.920 -0.0653 -1.0550  0.4565
  167SAPS   H4R18856   0.030   3.846   5.838  2.8034  2.7198  0.2659
  167SAPS   H4S18857   0.190   3.784   5.877  1.1713 -1.3165  3.2681
  167SAPS   C2518858   0.102   3.902   6.025  0.3811 -0.0338 -0.6146
  167SAPS   H5R18859   0.011   3.962   6.039  1.1961  1.1534 -0.2384
  167SAPS   C2618860   0.212   3.944   6.093  0.0064  0.6517  0.4627
  167SAPS   H6R18861   0.205   4.016   6.177 -0.0814  0.8011  0.3263
  167SAPS   C2718862   0.351   3.890   6.083  0.0634 -0.8400 -0.4892
  167SAPS   H7R18863   0.405   3.958   6.014 -2.5851 -0.3516 -2.2162
  167SAPS   H7S18864   0.357   3.791   6.032 -1.3792 -1.0695 -0.2511
  167SAPS   C2818865   0.439   3.882   6.205  0.5379  0.4334 -0.5946
  167SAPS   H8R18866   0.394   3.837   6.295 -1.2286  0.8337 -1.2454
  167SAPS   C2918867   0.568   3.928   6.208  0.2012  0.3816 -0.2473
  167SAPS   H9R18868   0.625   3.926   6.302  0.0917 -0.8114 -0.2026
  167SAPS  C21018869   0.655   3.984   6.096  0.0904  0.2502  0.3742
  167SAPS  H10R18870   0.622   4.084   6.061  1.4943 -0.1729 -2.4282
  167SAPS  H10S18871   0.643   3.907   6.017  1.3686 -1.2634  1.5735
  167SAPS  C21118872   0.801   3.980   6.148 -0.0331 -0.1122 -0.6919
  167SAPS  H11R18873   0.818   3.987   6.256  0.8317  0.0669 -0.8329
  167SAPS  C21218874   0.910   3.971   6.067 -0.0113  0.0544 -0.0303
  167SAPS  H12R18875   1.004   3.947   6.120 -0.5295  0.6714  1.2148
  167SAPS  C21318876   0.911   3.970   5.915  0.0690 -0.1497 -0.8343
  167SAPS  H13R18877   0.932   4.074   5.880  0.3270 -0.6460 -2.2162
  167SAPS  H13S18878   0.806   3.946   5.887 -0.2306 -0.2758  0.3611
  167SAPS  C21418879   1.011   3.870   5.857  0.3896 -0.0800  0.1724
  167SAPS  H14R18880   1.091   3.828   5.920 -1.0927 -1.8007  1.0231
  167SAPS  C21518881   0.997   3.828   5.726 -0.1371 -0.2847 -0.5669
  167SAPS  H15R18882   1.066   3.750   5.694 -0.9830 -2.7207  2.8894
  167SAPS  C21618883   0.893   3.875   5.632 -0.2269  0.0414  0.2827
  167SAPS  H16R18884   0.880   3.985   5.636 -2.0545 -0.1597  0.8819
  167SAPS  H16S18885   0.798   3.817   5.642 -1.7633  2.1440 -1.2080
  167SAPS  C21718886   0.935   3.850   5.484  0.2657 -0.6592 -0.0919
  167SAPS  H17R18887   1.032   3.904   5.475 -0.5471  0.9270  0.2989
  167SAPS  H17S18888   0.853   3.888   5.419  0.1950  0.7927  0.8000
  167SAPS  C21818889   0.957   3.708   5.433  0.1830  0.0055  0.3311
  167SAPS  H18R18890   0.884   3.639   5.479  0.2426  0.0951  0.5619
  167SAPS  H18S18891   1.063   3.685   5.455  0.1991 -0.0672  0.1782
  167SAPS  C21918892   0.931   3.684   5.284 -0.5334 -0.1456  0.3887
  167SAPS  H19R18893   0.823   3.710   5.275 -0.3673  0.2238 -0.8532
  167SAPS  H19S18894   0.957   3.579   5.257  4.2785  1.2876 -1.7304
  167SAPS  C22018895   1.004   3.765   5.185 -0.5874  0.4782  0.2605
  167SAPS  H20R18896   1.114   3.758   5.197 -0.4945  0.0587 -0.7852
  167SAPS  H20S18897   0.971   3.871   5.186 -4.4244 -0.4793 -3.0968
  167SAPS  H20T18898   0.982   3.737   5.080 -1.0458 -0.0870  0.4995
  167SAPS   C3318899  -0.391   3.284   5.806 -0.2240 -1.1914 -0.5108
  167SAPS   H3X18900  -0.402   3.240   5.705 -1.2260  0.5951 -1.2150
  167SAPS   H3Y18901  -0.283   3.287   5.834 -0.6825  0.2205  1.2195
  167SAPS   C3418902  -0.428   3.438   5.790 -0.6340  0.4239  0.4953
  167SAPS   H4X18903  -0.410   3.488   5.888  1.6348 -2.2867  1.5847
  167SAPS   H4Y18904  -0.537   3.456   5.780 -1.0137 -0.9265  1.8819
  167SAPS   C3518905  -0.350   3.494   5.677  0.3709  0.3814 -0.6845
  167SAPS   H5X18906  -0.369   3.443   5.580 -0.1260 -1.2995  0.2667
  167SAPS   H5Y18907  -0.241   3.473   5.688  0.2087 -0.7462 -1.0323
  167SAPS   C3618908  -0.378   3.650   5.674 -0.2701  0.7791 -0.2515
  167SAPS   H6X18909  -0.337   3.701   5.763 -0.4376  0.5045 -0.0169
  167SAPS   H6Y18910  -0.488   3.659   5.689 -0.6456 -2.2542 -0.6575
  167SAPS   C3718911  -0.314   3.728   5.558  0.0370 -0.6362 -0.1153
  167SAPS   H7X18912  -0.338   3.833   5.584  2.4668 -0.0425 -0.0520
  167SAPS   H7Y18913  -0.379   3.701   5.472 -0.9328  2.1910 -0.3757
  167SAPS   C3818914  -0.172   3.690   5.539 -0.4349  0.3432  0.1206
  167SAPS   H8X18915  -0.173   3.583   5.509  2.9678 -0.2258  1.5185
  167SAPS   H8Y18916  -0.119   3.700   5.636  1.5116  1.3574 -0.9756
  167SAPS   C3918917  -0.088   3.768   5.436 -0.0020 -0.1894  0.1513
  167SAPS   H9X18918   0.018   3.737   5.448  0.2532  0.7804  0.4635
  167SAPS   H9Y18919  -0.092   3.876   5.463  0.5422 -0.1219 -0.0307
  167SAPS  C31018920  -0.134   3.756   5.291 -0.6154  0.1443  0.1875
  167SAPS  H10X18921  -0.237   3.796   5.278 -1.9985 -2.6913  1.4304
  167SAPS  H10Y18922  -0.131   3.648   5.263  2.1370  0.0980  0.4327
  167SAPS  C31118923  -0.040   3.823   5.190  0.5563 -0.1356 -0.1021
  167SAPS  H11X18924   0.059   3.780   5.216 -0.8892 -2.3824  2.1169
  167SAPS  H11Y18925  -0.046   3.933   5.198 -0.3988 -0.2732  1.3003
  167SAPS  C31218926  -0.069   3.791   5.040 -0.0227 -0.3075 -0.1361
  167SAPS  H12X18927  -0.098   3.684   5.031 -2.3706  0.2000  0.6045
  167SAPS  H12Y18928   0.008   3.816   4.964 -0.1589 -2.3357 -0.9979
  167SAPS  C31318929  -0.194   3.871   4.984 -0.3749 -0.4978 -0.2863
  167SAPS  H13X18930  -0.214   3.965   5.039  0.0321 -0.2432 -0.5696
  167SAPS  H13Y18931  -0.278   3.800   4.998 -3.2042  2.8586  1.1762
  167SAPS  C31418932  -0.169   3.913   4.839 -0.3103 -0.8378 -0.3880
  167SAPS  H14X18933  -0.124   3.833   4.777 -0.7194 -1.3695 -0.0079
  167SAPS  H14Y18934  -0.096   3.996   4.847  1.0885 -1.8237 -2.2641
  167SAPS  C31518935  -0.305   3.954   4.770  0.4891  1.0452 -0.2842
  167SAPS  H15X18936  -0.352   4.046   4.811 -0.7924  2.1138 -3.7274
  167SAPS  H15Y18937  -0.367   3.863   4.768 -0.2951  1.5748 -1.3553
  167SAPS  C31618938  -0.266   4.010   4.625  0.1846 -0.6489 -0.3513
  167SAPS  H16X18939  -0.345   3.966   4.560 -1.3326 -0.7922  1.4979
  167SAPS  H16Y18940  -0.172   3.966   4.587  1.1624 -0.2235  1.4427
  167SAPS  C31718941  -0.259   4.159   4.628 -0.2285 -0.0177 -0.5421
  167SAPS  H17X18942  -0.170   4.196   4.681 -0.6753 -0.7972  0.7899
  167SAPS  H17Y18943  -0.347   4.209   4.675  0.3418  0.6904 -0.2195
  167SAPS  C31818944  -0.265   4.203   4.477  0.0950 -0.8712 -0.0650
  167SAPS  H18X18945  -0.201   4.135   4.417 -0.4726 -0.2099 -1.4643
  167SAPS  H18Y18946  -0.240   4.310   4.461 -1.6709 -0.7959 -2.7905
  167SAPS  H18Z18947  -0.367   4.177   4.441 -0.2117  0.6306 -0.3489
  168SAPS     N18948   4.691   3.220   7.045 -0.2265  0.4664 -0.3061
  168SAPS   HN118949   4.664   3.278   6.963  1.2129  0.0825 -1.0729
  168SAPS   HN218950   4.623   3.142   7.057 -1.8640  1.7032 -1.1238
  168SAPS   HN318951   4.683   3.266   7.138  1.1469  0.5855 -0.2338
  168SAPS   C1218952   4.827   3.168   7.027 -0.1253 -0.2906  0.1830
  168SAPS  H12A18953   4.877   3.200   7.117 -0.8905 -0.5827  0.7157
  168SAPS   C1318954   4.846   3.011   7.018  0.3705  0.0152 -0.3827
  168SAPS  O13A18955   4.750   2.948   6.975  0.3331  0.0890 -0.0855
  168SAPS  O13B18956   4.967   2.971   7.005  0.2960  0.2308  0.1020
  168SAPS   C1118957   4.896   3.236   6.901  0.2256  0.3013  0.1667
  168SAPS  H11A18958   4.874   3.183   6.805  1.4465  0.7399 -0.3744
  168SAPS  H11B18959   5.006   3.223   6.908  0.4545  1.8034 -0.2578
  168SAPS     P18960   4.923   3.450   6.749 -0.0003 -0.1271  0.1263
  168SAPS   O1318961   4.896   3.592   6.759 -0.1698 -0.6318 -0.3099
  168SAPS   O1418962   5.064   3.412   6.742 -0.1665  0.7550 -0.6331
  168SAPS   O1218963   4.859   3.376   6.883 -0.4127  0.3021 -0.3963
  168SAPS   O1118964   4.834   3.388   6.636 -0.7072 -0.2930  0.6371
  168SAPS    C118965   4.913   3.364   6.511 -0.5844 -0.5982  0.0856
  168SAPS    HA18966   5.006   3.304   6.524  0.4160  0.6985 -0.7700
  168SAPS    HB18967   4.844   3.318   6.438 -1.0388 -2.6471  1.6921
  168SAPS    C218968   4.957   3.502   6.444  1.1492  0.0110 -0.0568
  168SAPS    HS18969   5.047   3.543   6.496  0.5279  2.0650 -0.5502
  168SAPS   O2118970   4.853   3.595   6.439 -0.0500 -0.4700 -0.5835
  168SAPS   C2118971   4.886   3.719   6.440  0.8655  0.0778  0.2025
  168SAPS   O2218972   4.995   3.761   6.472 -0.2177  0.4712  0.8472
  168SAPS   C2218973   4.762   3.802   6.422  0.2436 -0.2554  0.2112
  168SAPS   H2R18974   4.706   3.766   6.333 -0.1336 -1.4849  0.9100
  168SAPS   H2S18975   4.692   3.772   6.503 -0.1148  1.8165  0.7255
  168SAPS    C318976   5.005   3.474   6.297 -0.1866  0.4914 -0.1372
  168SAPS    HX18977   4.911   3.460   6.239  0.7471 -2.2221 -1.1941
  168SAPS    HY18978   5.059   3.376   6.302 -0.1405  0.5112 -0.2539
  168SAPS   O3118979   5.082   3.584   6.246 -0.0648  0.1003  0.4517
  168SAPS   C3118980   5.213   3.591   6.285 -0.9905 -0.2262  0.4568
  168SAPS   O3218981   5.276   3.500   6.334  0.2184 -0.2746  0.0554
  168SAPS   C3218982   5.268   3.729   6.252  0.1362  0.1874  0.6014
  168SAPS   H2X18983   5.237   3.794   6.337  0.3614 -2.2410  2.6596
  168SAPS   H2Y18984   5.237   3.770   6.154  1.5236  2.3263  0.9896
  168SAPS   C2318985   4.785   3.953   6.419  0.3544 -0.0716 -0.5241
  168SAPS   H3R18986   4.853   3.981   6.336  0.1578 -0.0338 -0.6744
  168SAPS   H3S18987   4.847   3.981   6.506 -0.3998  0.7651 -0.2386
  168SAPS   C2418988   4.658   4.027   6.416  0.2647  0.1357  0.0212
  168SAPS   H4R18989   4.618   4.013   6.519 -0.3777  0.2687 -0.2052
  168SAPS   H4S18990   4.589   3.980   6.344  0.0264 -0.1477  0.4303
  168SAPS   C2518991   4.677   4.172   6.375 -0.4447  0.2522 -0.2299
  168SAPS   H5R18992   4.676   4.245   6.458  0.7348  2.0149 -1.6886
  168SAPS   C2618993   4.680   4.225   6.253  0.0363  0.5044  0.1006
  168SAPS   H6R18994   4.701   4.333   6.253  0.2956  0.4545 -0.2776
  168SAPS   C2718995   4.674   4.152   6.118 -0.1677 -0.6382  0.1007
  168SAPS   H7R18996   4.577   4.185   6.075 -0.5440 -1.0922  0.5830
  168SAPS   H7S18997   4.650   4.044   6.130 -2.0505 -0.2303  0.2850
  168SAPS   C2818998   4.780   4.197   6.018  0.1789 -0.3026  0.3589
  168SAPS   H8R18999   4.819   4.300   6.026 -0.7494  0.0530  0.3799
  168SAPS   C2919000   4.839   4.125   5.920 -0.0313  0.0904 -0.5142
  168SAPS   H9R19001   4.925   4.164   5.865  1.9195 -1.2263  1.4478
  168SAPS  C21019002   4.808   3.974   5.898  0.0991  0.2159  0.5207
  168SAPS  H10R19003   4.779   3.952   5.793  3.0061  0.0085 -0.3053
  168SAPS  H10S19004   4.716   3.951   5.957  0.8057  0.0275  1.5747
  168SAPS  C21119005   4.917   3.879   5.940 -0.0616  0.3767  0.1901
  168SAPS  H11R19006   4.897   3.827   6.035 -0.9761  0.0485 -0.1702
  168SAPS  C21219007   5.024   3.841   5.859  0.7727 -1.0428 -0.7465
  168SAPS  H12R19008   5.104   3.776   5.898 -0.9024 -2.0236  1.3031
  168SAPS  C21319009   5.049   3.884   5.717  0.1023 -0.2301 -0.4214
  168SAPS  H13R19010   4.979   3.964   5.685 -2.4717 -1.5314  1.5222
  168SAPS  H13S19011   5.036   3.797   5.650 -0.5894 -0.1379 -0.4136
  168SAPS  C21419012   5.196   3.927   5.699 -0.1130 -0.7914 -0.0913
  168SAPS  H14R19013   5.262   3.883   5.776 -0.3558  0.9634  1.1682
  168SAPS  C21519014   5.246   4.012   5.609  0.5518 -0.1761 -0.2924
  168SAPS  H15R19015   5.355   4.028   5.611  1.0581 -3.0980  1.4942
  168SAPS  C21619016   5.179   4.071   5.489 -0.8036 -0.0485 -0.0287
  168SAPS  H16R19017   5.137   4.166   5.527 -1.2751  1.6896 -4.4191
  168SAPS  H16S19018   5.096   4.008   5.451 -1.3832  0.5831  0.1847
  168SAPS  C21719019   5.270   4.111   5.375  0.8297 -0.3182  0.3590
  168SAPS  H17R19020   5.306   4.018   5.327 -0.3375 -0.0597 -1.0714
  168SAPS  H17S19021   5.357   4.166   5.417  0.5161 -0.3965  1.1364
  168SAPS  C21819022   5.199   4.205   5.273 -0.1108  0.0797 -0.5513
  168SAPS  H18R19023   5.286   4.257   5.228  0.7074 -2.6586 -2.3716
  168SAPS  H18S19024   5.134   4.271   5.335 -0.4334 -1.0854  0.3930
  168SAPS  C21919025   5.108   4.119   5.180 -0.0699 -0.9315  0.7600
  168SAPS  H19R19026   5.063   4.032   5.232  0.5217 -1.4917  0.3497
  168SAPS  H19S19027   5.171   4.078   5.098 -1.1921  0.6977 -1.0180
  168SAPS  C22019028   4.993   4.205   5.117 -0.3589  0.4175  0.1388
  168SAPS  H20R19029   5.035   4.300   5.078  2.8310 -0.9028  0.0543
  168SAPS  H20S19030   4.907   4.210   5.188 -0.7064 -2.0878 -0.0202
  168SAPS  H20T19031   4.939   4.159   5.031 -1.7745  0.2468  1.0914
  168SAPS   C3319032   5.425   3.742   6.246  0.8168  0.7464  0.1729
  168SAPS   H3X19033   5.460   3.681   6.332 -0.5587  0.7379  0.7466
  168SAPS   H3Y19034   5.454   3.849   6.260 -2.0965  1.5315  0.8842
  168SAPS   C3419035   5.493   3.685   6.117  0.3225 -0.4399  0.4876
  168SAPS   H4X19036   5.454   3.582   6.102  0.8487 -0.8098  1.5396
  168SAPS   H4Y19037   5.599   3.668   6.144  1.0925 -1.4441 -2.7659
  168SAPS   C3519038   5.480   3.762   5.985  1.2014 -0.7518 -0.5603
  168SAPS   H5X19039   5.481   3.873   5.998 -0.9674 -0.6387 -1.0097
  168SAPS   H5Y19040   5.384   3.734   5.937 -0.3781  0.4083  1.7252
  168SAPS   C3619041   5.584   3.710   5.886  0.5237 -0.1071 -0.1687
  168SAPS   H6X19042   5.580   3.600   5.900 -3.2347 -0.1442 -0.3238
  168SAPS   H6Y19043   5.685   3.746   5.912 -0.3411  1.5317  1.0792
  168SAPS   C3719044   5.538   3.741   5.740 -0.0080 -0.5292  0.4857
  168SAPS   H7X19045   5.452   3.811   5.733  0.5601  0.0345 -1.3651
  168SAPS   H7Y19046   5.503   3.646   5.694 -2.2986  0.3362  0.3060
  168SAPS   C3819047   5.651   3.810   5.648 -0.0598  0.1289  0.7007
  168SAPS   H8X19048   5.751   3.766   5.666 -0.4388 -1.6218 -1.1418
  168SAPS   H8Y19049   5.661   3.917   5.678 -0.4461  0.5956 -0.7389
  168SAPS   C3919050   5.621   3.798   5.499 -0.1699  0.3570  0.4642
  168SAPS   H9X19051   5.512   3.818   5.487 -0.3611 -0.3892  0.9318
  168SAPS   H9Y19052   5.633   3.691   5.472  0.7907  0.5809 -0.0441
  168SAPS  C31019053   5.702   3.894   5.418 -0.7340 -0.0611  0.5157
  168SAPS  H10X19054   5.809   3.865   5.417 -0.5393  0.6474  0.4228
  168SAPS  H10Y19055   5.690   3.992   5.468  0.8684 -0.8406  2.5188
  168SAPS  C31119056   5.659   3.909   5.270 -1.0315 -0.5450 -0.3369
  168SAPS  H11X19057   5.559   3.957   5.265  0.2382  2.3199 -0.9182
  168SAPS  H11Y19058   5.641   3.809   5.226 -0.3371 -1.6143  1.6663
  168SAPS  C31219059   5.750   3.990   5.176 -0.3638 -0.4624  0.1964
  168SAPS  H12X19060   5.852   3.948   5.169  0.8358  1.8991  2.1852
  168SAPS  H12Y19061   5.773   4.083   5.231 -1.2301 -1.4760  2.4155
  168SAPS  C31319062   5.678   4.010   5.044 -0.0074 -0.2471  0.4958
  168SAPS  H13X19063   5.615   3.922   5.019 -1.4133  1.1323 -1.1011
  168SAPS  H13Y19064   5.744   4.019   4.954 -3.3020  2.0119 -1.9604
  168SAPS  C31419065   5.580   4.135   5.041  0.0789 -0.3978 -0.5121
  168SAPS  H14X19066   5.623   4.210   5.111 -1.1752  1.3331 -1.5255
  168SAPS  H14Y19067   5.490   4.093   5.090 -0.1738  0.8419  0.1276
  168SAPS  C31519068   5.556   4.209   4.910  0.0780  0.4840 -0.2170
  168SAPS  H15X19069   5.502   4.136   4.846  0.6016 -1.2369  1.2219
  168SAPS  H15Y19070   5.653   4.248   4.872  0.7372  2.2093  2.8888
  168SAPS  C31619071   5.447   4.309   4.936 -0.3209  0.2244  0.1554
  168SAPS  H16X19072   5.481   4.370   5.022 -0.3977 -0.8829  0.9910
  168SAPS  H16Y19073   5.360   4.260   4.984  1.2124 -2.5730  0.2985
  168SAPS  C31719074   5.406   4.387   4.811 -0.3360  0.1502 -0.6616
  168SAPS  H17X19075   5.501   4.431   4.773  1.5085 -2.3599  0.7276
  168SAPS  H17Y19076   5.334   4.466   4.838 -0.4572  0.5498 -2.0615
  168SAPS  C31819077   5.332   4.297   4.704 -0.4161 -0.2052 -0.1276
  168SAPS  H18X19078   5.337   4.352   4.608 -1.9249  0.2983  0.0694
  168SAPS  H18Y19079   5.224   4.279   4.721 -0.0525 -0.5166  2.2689
  168SAPS  H18Z19080   5.394   4.205   4.696  1.8061  1.2360 -0.4010
  169SAPS     N19081   1.676   5.925   7.185  0.5725 -0.0489 -0.1576
  169SAPS   HN119082   1.727   5.834   7.181  1.0348  0.1394  1.1239
  169SAPS   HN219083   1.682   5.982   7.098  0.4561  2.7881  1.5553
  169SAPS   HN319084   1.702   5.985   7.266 -1.9034 -1.3436  1.7437
  169SAPS   C1219085   1.526   5.909   7.192 -0.7484  0.7031 -0.2230
  169SAPS  H12A19086   1.507   5.860   7.286  0.7906 -0.9749 -0.7127
  169SAPS   C1319087   1.446   6.041   7.174 -0.5062  0.0459 -0.2593
  169SAPS  O13A19088   1.514   6.141   7.199 -0.0045 -0.1021 -0.3883
  169SAPS  O13B19089   1.319   6.047   7.167  0.5744  0.2332  0.1905
  169SAPS   C1119090   1.490   5.805   7.085  0.1301  0.3154  0.3057
  169SAPS  H11A19091   1.503   5.845   6.982  1.8825 -1.6029 -0.3034
  169SAPS  H11B19092   1.385   5.770   7.095 -0.0073  0.8801  0.8505
  169SAPS     P19093   1.590   5.587   6.972  0.2620  0.0402 -0.2441
  169SAPS   O1319094   1.730   5.546   6.971 -0.9482  0.0085 -0.1474
  169SAPS   O1419095   1.496   5.471   7.000 -0.2079 -0.7167 -0.3928
  169SAPS   O1219096   1.582   5.694   7.093  0.2568  0.2257 -0.0498
  169SAPS   O1119097   1.546   5.662   6.836  0.0898 -0.0038 -0.0995
  169SAPS    C119098   1.410   5.681   6.792 -0.2180 -0.3180  0.5158
  169SAPS    HA19099   1.336   5.672   6.874 -0.3872 -1.0187  0.2873
  169SAPS    HB19100   1.414   5.779   6.740 -3.0642 -0.3919  0.0412
  169SAPS    C219101   1.377   5.590   6.668 -0.0256  0.2134 -0.0842
  169SAPS    HS19102   1.360   5.494   6.721 -0.6820  1.1635  1.4894
  169SAPS   O2119103   1.493   5.595   6.579 -0.4478 -0.3450  0.3488
  169SAPS   C2119104   1.513   5.477   6.521  0.2398 -0.2235 -0.3293
  169SAPS   O2219105   1.459   5.374   6.555 -0.2625  0.8089  0.1470
  169SAPS   C2219106   1.609   5.497   6.406  0.4611 -0.0995  0.8115
  169SAPS   H2R19107   1.589   5.585   6.342  0.1326 -1.1520 -0.6077
  169SAPS   H2S19108   1.709   5.517   6.449  0.7486  0.7969 -0.2440
  169SAPS    C319109   1.252   5.637   6.591 -0.1917 -0.2979  0.3980
  169SAPS    HX19110   1.289   5.733   6.550 -0.8371 -0.7064 -1.1911
  169SAPS    HY19111   1.161   5.648   6.655  0.5984 -1.7743  1.8617
  169SAPS   O3119112   1.217   5.554   6.481 -0.0348  0.4788 -0.3954
  169SAPS   C3119113   1.154   5.438   6.510 -0.5638  0.9843 -0.5922
  169SAPS   O3219114   1.127   5.398   6.621 -0.0420 -0.6022 -0.6134
  169SAPS   C3219115   1.124   5.368   6.383 -0.0116  1.0893 -0.0611
  169SAPS   H2X19116   1.131   5.260   6.408 -1.1588  1.0029 -0.0730
  169SAPS   H2Y19117   1.207   5.388   6.311  0.5224  0.1400  0.2717
  169SAPS   C2319118   1.613   5.362   6.331  0.2748  0.2756  0.0650
  169SAPS   H3R19119   1.514   5.326   6.294  0.1874  1.5180 -0.9810
  169SAPS   H3S19120   1.654   5.291   6.406 -1.0821 -0.3726  0.2311
  169SAPS   C2419121   1.702   5.373   6.201 -0.2293  0.2950 -0.2628
  169SAPS   H4R19122   1.790   5.434   6.226  1.5632 -2.5853  0.9539
  169SAPS   H4S19123   1.655   5.435   6.121  1.4516  1.7526 -0.1707
  169SAPS   C2519124   1.749   5.242   6.140 -0.0238  0.1777  0.0430
  169SAPS   H5R19125   1.842   5.207   6.187 -0.9853 -0.7016  1.3615
  169SAPS   C2619126   1.700   5.172   6.036 -0.2428  0.2931 -1.1459
  169SAPS   H6R19127   1.753   5.082   6.003  0.6857  1.3666 -2.7422
  169SAPS   C2719128   1.586   5.213   5.949 -0.1540 -0.4021  0.0193
  169SAPS   H7R19129   1.519   5.281   6.006  0.3133  0.0065  0.0908
  169SAPS   H7S19130   1.518   5.130   5.920 -1.7426  0.8625  0.0483
  169SAPS   C2819131   1.637   5.280   5.817 -0.1517  0.5686 -0.7389
  169SAPS   H8R19132   1.664   5.386   5.823  0.9745  0.2972 -0.8334
  169SAPS   C2919133   1.637   5.223   5.691 -0.4105  0.3544 -0.3537
  169SAPS   H9R19134   1.658   5.287   5.604 -0.6347  3.2149  1.5481
  169SAPS  C21019135   1.599   5.081   5.649 -0.1316  0.0149 -0.3617
  169SAPS  H10R19136   1.563   5.010   5.727  0.1870 -0.5446 -0.7137
  169SAPS  H10S19137   1.685   5.022   5.610 -0.1004 -1.1407  1.3430
  169SAPS  C21119138   1.486   5.080   5.547  0.4015 -1.1049 -0.3020
  169SAPS  H11R19139   1.393   5.116   5.592  0.8898 -0.4557  0.2091
  169SAPS  C21219140   1.497   5.084   5.411  0.2433 -0.2669 -0.1828
  169SAPS  H12R19141   1.413   5.099   5.342  0.8495  1.6872 -0.5735
  169SAPS  C21319142   1.621   5.086   5.324  0.1443  0.5910 -0.2659
  169SAPS  H13R19143   1.707   5.093   5.394 -2.2679 -0.7067  3.1161
  169SAPS  H13S19144   1.616   5.182   5.267 -1.7315  0.5535 -0.2262
  169SAPS  C21419145   1.624   4.965   5.233 -0.4881  0.2729 -0.1763
  169SAPS  H14R19146   1.661   4.875   5.286  0.3788  1.3026  1.0190
  169SAPS  C21519147   1.590   4.958   5.104  0.3032  0.7451  0.0038
  169SAPS  H15R19148   1.607   4.863   5.051  1.3533  1.0158 -0.1657
  169SAPS  C21619149   1.538   5.071   5.017 -0.1468  0.9698  0.7357
  169SAPS  H16R19150   1.613   5.079   4.935 -0.3287 -0.1202  0.4446
  169SAPS  H16S19151   1.542   5.168   5.071  0.4480 -0.3421  3.2085
  169SAPS  C21719152   1.400   5.035   4.965  0.3497  0.1947 -0.0996
  169SAPS  H17R19153   1.405   4.936   4.915  2.4720 -0.3766  1.1371
  169SAPS  H17S19154   1.367   5.112   4.891 -0.5433 -1.2393 -1.2454
  169SAPS  C21819155   1.294   5.050   5.079  0.0364 -0.6945  0.0118
  169SAPS  H18R19156   1.336   5.128   5.146  3.2834 -0.4444 -2.0679
  169SAPS  H18S19157   1.288   4.955   5.137  1.9455 -0.7349  0.2181
  169SAPS  C21919158   1.149   5.072   5.023  0.1425  0.3779 -0.2419
  169SAPS  H19R19159   1.157   5.165   4.963  1.0024  0.5096  0.0696
  169SAPS  H19S19160   1.071   5.081   5.101  1.8860  2.4801  1.3971
  169SAPS  C22019161   1.101   4.963   4.917  0.3649 -0.2512 -0.5854
  169SAPS  H20R19162   1.092   4.868   4.974  1.1964  0.2077  0.3673
  169SAPS  H20S19163   1.175   4.962   4.835  1.5823 -0.8726  0.4759
  169SAPS  H20T19164   1.003   4.987   4.871 -0.6370  1.0346  1.9543
  169SAPS   C3319165   0.987   5.392   6.314 -0.6723  0.0952 -0.3449
  169SAPS   H3X19166   0.906   5.410   6.388 -3.1167  1.1409 -3.0980
  169SAPS   H3Y19167   0.976   5.291   6.268  0.9561 -0.6454  0.7864
  169SAPS   C3419168   1.000   5.513   6.208  0.0519 -0.2932  0.4123
  169SAPS   H4X19169   1.108   5.524   6.183  0.0814  0.9555  1.0166
  169SAPS   H4Y19170   0.977   5.602   6.270  1.8437 -1.6271  3.1758
  169SAPS   C3519171   0.916   5.505   6.075 -0.4788  0.7834  0.1415
  169SAPS   H5X19172   0.817   5.466   6.108  0.1876 -1.4993 -0.3757
  169SAPS   H5Y19173   0.971   5.435   6.009 -0.7176  2.5680 -2.0734
  169SAPS   C3619174   0.908   5.638   6.006  0.1380  0.3589  0.2843
  169SAPS   H6X19175   0.885   5.718   6.080  0.7269  1.5473 -0.7826
  169SAPS   H6Y19176   0.819   5.634   5.940  0.9344 -4.0972 -0.8589
  169SAPS   C3719177   1.036   5.684   5.929  0.3952 -0.1401 -0.5825
  169SAPS   H7X19178   1.063   5.618   5.843 -2.5748  1.1195 -2.6614
  169SAPS   H7Y19179   1.121   5.689   6.001 -1.4549 -1.9108  1.8791
  169SAPS   C3819180   1.015   5.827   5.881 -0.2595 -0.5214 -0.0784
  169SAPS   H8X19181   1.113   5.873   5.855 -1.3247  1.7237 -0.3816
  169SAPS   H8Y19182   1.008   5.874   5.982 -0.0470 -0.5123 -0.0660
  169SAPS   C3919183   0.915   5.850   5.769 -0.2728  0.4330 -0.7580
  169SAPS   H9X19184   0.899   5.960   5.770  2.2788  0.8746  0.5171
  169SAPS   H9Y19185   0.820   5.800   5.796 -1.2679  0.4324 -3.8325
  169SAPS  C31019186   0.966   5.811   5.628  0.7011  0.1476 -0.4509
  169SAPS  H10X19187   0.987   5.701   5.625  0.4474 -0.0011  1.8047
  169SAPS  H10Y19188   1.058   5.872   5.614 -1.0855  2.9831 -0.5277
  169SAPS  C31119189   0.875   5.834   5.516  0.9007 -0.1031  0.3791
  169SAPS  H11X19190   0.816   5.928   5.525  0.3805 -0.6045  3.6313
  169SAPS  H11Y19191   0.799   5.753   5.507  1.8322 -0.9052 -0.4074
  169SAPS  C31219192   0.948   5.858   5.383 -0.9727 -0.0878  0.1046
  169SAPS  H12X19193   1.028   5.782   5.376 -1.1543 -0.4711  1.7733
  169SAPS  H12Y19194   1.002   5.956   5.386  0.5000 -0.8943  2.4131
  169SAPS  C31319195   0.845   5.850   5.274 -0.0588  0.0099 -0.2407
  169SAPS  H13X19196   0.769   5.930   5.285  0.1352  0.1716 -0.0805
  169SAPS  H13Y19197   0.791   5.755   5.295  1.9697 -1.1257  0.0523
  169SAPS  C31419198   0.899   5.845   5.131 -0.4501 -1.1389 -1.2325
  169SAPS  H14X19199   0.927   5.739   5.114  0.9646 -0.8759 -0.7284
  169SAPS  H14Y19200   0.993   5.905   5.132 -1.3116  0.2678  0.1915
  169SAPS  C31519201   0.793   5.891   5.029 -0.2491 -0.2785  0.6479
  169SAPS  H15X19202   0.805   6.002   5.031  0.9086 -0.3991  1.7447
  169SAPS  H15Y19203   0.694   5.865   5.071 -1.2588  0.2870 -1.2411
  169SAPS  C31619204   0.805   5.829   4.890  0.4095 -0.2208 -0.0421
  169SAPS  H16X19205   0.785   5.720   4.902 -0.9068 -0.2985 -2.2337
  169SAPS  H16Y19206   0.910   5.844   4.857  0.8284 -0.6725  1.0403
  169SAPS  C31719207   0.705   5.883   4.781  0.2349  0.3503  1.1014
  169SAPS  H17X19208   0.712   5.991   4.755  0.3142  0.0751 -0.0478
  169SAPS  H17Y19209   0.612   5.869   4.840  0.1526 -1.4040  0.6027
  169SAPS  C31819210   0.699   5.802   4.657 -0.6181 -0.3749  0.2110
  169SAPS  H18X19211   0.762   5.711   4.663 -0.6113 -0.3520  0.4981
  169SAPS  H18Y19212   0.747   5.846   4.567 -3.3289  0.8311 -0.7680
  169SAPS  H18Z19213   0.598   5.772   4.622 -0.7874  0.7520 -0.3478
  170SAPS     N19214   1.475   4.644   6.633  1.0276  0.3372  0.1620
  170SAPS   HN119215   1.491   4.644   6.531 -1.8910 -1.6050 -0.4345
  170SAPS   HN219216   1.435   4.550   6.654  2.7129 -0.2468  0.9443
  170SAPS   HN319217   1.409   4.713   6.674  1.4035  0.6519  0.2412
  170SAPS   C1219218   1.606   4.636   6.707 -0.1486  0.1057  0.3286
  170SAPS  H12A19219   1.619   4.738   6.740  3.4160  0.4730 -1.6792
  170SAPS   C1319220   1.604   4.544   6.818 -0.3748  0.3105 -0.4846
  170SAPS  O13A19221   1.493   4.476   6.837 -0.8811 -0.6001 -0.4132
  170SAPS  O13B19222   1.696   4.536   6.901  0.3363  0.0474 -0.0343
  170SAPS   C1119223   1.727   4.592   6.614 -0.1404  1.0702 -0.2767
  170SAPS  H11A19224   1.719   4.485   6.587 -1.5547  1.5806 -2.0650
  170SAPS  H11B19225   1.816   4.603   6.681 -2.0250 -0.1028  2.6012
  170SAPS     P19226   1.853   4.628   6.388 -0.1328  0.0995  0.2276
  170SAPS   O1319227   1.826   4.701   6.271  0.6536  0.1478 -0.3164
  170SAPS   O1419228   1.989   4.638   6.439  0.5449  0.5630  1.2777
  170SAPS   O1219229   1.745   4.678   6.497  0.3956  0.1757  0.0479
  170SAPS   O1119230   1.818   4.471   6.373 -0.2230  0.4214 -0.3759
  170SAPS    C119231   1.693   4.431   6.317 -0.3925 -0.0166  0.2657
  170SAPS    HA19232   1.615   4.421   6.395 -0.3557 -2.1820  0.1109
  170SAPS    HB19233   1.644   4.502   6.248 -0.8607 -0.0290  0.5808
  170SAPS    C219234   1.694   4.291   6.246  0.0794 -0.1534 -0.1696
  170SAPS    HS19235   1.730   4.216   6.319 -0.7515  0.5462  1.0072
  170SAPS   O2119236   1.770   4.306   6.126 -0.2684 -0.4468 -0.2360
  170SAPS   C2119237   1.836   4.196   6.096 -0.2403 -0.4609 -0.5159
  170SAPS   O2219238   1.841   4.098   6.168 -0.2686 -0.8001  0.1617
  170SAPS   C2219239   1.915   4.212   5.977  0.7165  0.1488 -0.4410
  170SAPS   H2R19240   1.951   4.113   5.941  1.7264  1.6673 -4.0568
  170SAPS   H2S19241   1.850   4.251   5.896 -0.7674  0.1220  0.6938
  170SAPS    C319242   1.547   4.248   6.211 -0.0173 -0.3232  1.0339
  170SAPS    HX19243   1.497   4.324   6.148  2.3626 -2.4397 -3.9972
  170SAPS    HY19244   1.473   4.225   6.291 -0.6476 -0.6119  0.3804
  170SAPS   O3119245   1.554   4.139   6.112  0.3646  0.1356  0.5538
  170SAPS   C3119246   1.528   4.020   6.166  1.0599  0.2437  0.0611
  170SAPS   O3219247   1.498   3.997   6.280 -0.8827 -0.4589 -0.7621
  170SAPS   C3219248   1.544   3.918   6.054  0.7047 -0.0538 -0.4603
  170SAPS   H2X19249   1.630   3.951   5.993  0.9834  0.2069  0.0716
  170SAPS   H2Y19250   1.444   3.912   6.006  0.7849 -1.1095 -0.5281
  170SAPS   C2319251   2.040   4.307   5.994 -0.3912  0.0415 -0.8097
  170SAPS   H3R19252   2.111   4.286   5.911 -1.3113 -2.0651 -1.1414
  170SAPS   H3S19253   2.079   4.272   6.092 -1.7130  0.8920  0.0616
  170SAPS   C2419254   2.000   4.454   5.990  0.1320  1.3180  0.1339
  170SAPS   H4R19255   1.916   4.477   6.059 -0.1031  2.4698 -0.5271
  170SAPS   H4S19256   1.963   4.480   5.889 -2.1767  0.1893  0.6244
  170SAPS   C2519257   2.112   4.546   6.028 -0.5522 -0.1575  0.4266
  170SAPS   H5R19258   2.149   4.531   6.130  1.8633  0.7425 -0.2433
  170SAPS   C2619259   2.161   4.644   5.948  0.2160 -0.3306 -1.1003
  170SAPS   H6R19260   2.246   4.695   5.995 -1.7817  1.9606  0.2557
  170SAPS   C2719261   2.132   4.688   5.809 -0.4387 -0.1461 -0.3005
  170SAPS   H7R19262   2.077   4.605   5.759  0.6698 -0.7698 -0.5040
  170SAPS   H7S19263   2.230   4.703   5.760 -0.0339 -0.5645  0.3710
  170SAPS   C2819264   2.046   4.816   5.807  0.3324 -0.0942 -0.0906
  170SAPS   H8R19265   2.050   4.884   5.894  0.3681  1.3875 -1.2191
  170SAPS   C2919266   1.969   4.849   5.697 -0.4253  0.4191  0.6085
  170SAPS   H9R19267   1.901   4.933   5.720 -0.7411  0.0436  1.0828
  170SAPS  C21019268   1.948   4.767   5.571 -0.2410  0.9636 -0.2632
  170SAPS  H10R19269   1.854   4.807   5.527  0.3515 -0.8542 -3.5213
  170SAPS  H10S19270   1.937   4.661   5.601 -0.5519  1.0113 -0.2097
  170SAPS  C21119271   2.065   4.785   5.478 -0.1952 -0.0080  0.2013
  170SAPS  H11R19272   2.163   4.807   5.522  1.9509 -3.2013 -2.4823
  170SAPS  C21219273   2.062   4.774   5.341 -0.1341 -0.7884 -0.1776
  170SAPS  H12R19274   2.154   4.797   5.285 -1.3501  2.0234 -1.2574
  170SAPS  C21319275   1.938   4.768   5.259 -0.7653 -0.1519 -0.1143
  170SAPS  H13R19276   1.850   4.789   5.323  0.7095  0.6178  1.7372
  170SAPS  H13S19277   1.911   4.670   5.213  0.2227 -0.7280  0.5202
  170SAPS  C21419278   1.933   4.874   5.145  0.7243 -0.0620 -0.2375
  170SAPS  H14R19279   1.918   4.978   5.177  1.8114  0.3419 -0.9830
  170SAPS  C21519280   1.941   4.850   5.012 -0.0072  0.0460 -0.1156
  170SAPS  H15R19281   1.932   4.930   4.937  1.0941 -0.5758 -0.9389
  170SAPS  C21619282   1.977   4.719   4.939  0.2037  0.8091 -0.3781
  170SAPS  H16R19283   2.000   4.645   5.018 -1.1553 -2.1940 -2.6047
  170SAPS  H16S19284   2.072   4.722   4.882  0.7177  1.5001  0.4906
  170SAPS  C21719285   1.879   4.664   4.827 -0.4648 -0.0359 -0.6161
  170SAPS  H17R19286   1.872   4.741   4.747 -2.9480  1.1834  0.6386
  170SAPS  H17S19287   1.772   4.663   4.859 -0.0380 -0.6136  0.8798
  170SAPS  C21819288   1.920   4.527   4.755  0.7307 -1.1192  0.8053
  170SAPS  H18R19289   1.847   4.505   4.674  1.0349 -1.1561  0.5422
  170SAPS  H18S19290   1.918   4.438   4.822 -1.0555 -0.8295  1.1890
  170SAPS  C21919291   2.065   4.542   4.696 -0.2285  0.3017 -0.1808
  170SAPS  H19R19292   2.142   4.544   4.776  0.6481 -0.6139 -0.9713
  170SAPS  H19S19293   2.083   4.637   4.641  2.1168 -0.7003 -1.3108
  170SAPS  C22019294   2.097   4.430   4.596  0.2403  0.4641  0.8038
  170SAPS  H20R19295   2.062   4.455   4.494 -1.2962 -1.8249  0.6976
  170SAPS  H20S19296   2.045   4.338   4.629  0.3433  0.1136  0.0030
  170SAPS  H20T19297   2.206   4.418   4.578 -0.0779  0.8358 -1.7324
  170SAPS   C3319298   1.560   3.770   6.100  0.3543  1.0341 -0.1381
  170SAPS   H3X19299   1.479   3.751   6.174  0.7783  3.2650  1.0022
  170SAPS   H3Y19300   1.658   3.756   6.151 -0.3368 -0.7016  0.8171
  170SAPS   C3419301   1.555   3.655   5.992  0.4808  0.3970  0.6407
  170SAPS   H4X19302   1.460   3.664   5.935  1.2828 -0.2076 -0.8402
  170SAPS   H4Y19303   1.557   3.554   6.039 -0.4550  0.5323  0.9963
  170SAPS   C3519304   1.666   3.659   5.890 -0.6296  0.1173  0.4463
  170SAPS   H5X19305   1.744   3.595   5.937 -0.2875 -0.7571 -1.2460
  170SAPS   H5Y19306   1.698   3.763   5.867  1.1899 -1.0988 -3.3694
  170SAPS   C3619307   1.621   3.601   5.751 -0.1471  0.0922 -0.1169
  170SAPS   H6X19308   1.529   3.654   5.719 -1.4134 -1.3753  0.9416
  170SAPS   H6Y19309   1.586   3.500   5.782 -0.5470 -0.4560 -2.2351
  170SAPS   C3719310   1.732   3.586   5.645  0.8619 -0.6809 -0.5472
  170SAPS   H7X19311   1.751   3.480   5.620 -2.3583 -1.1220 -1.5965
  170SAPS   H7Y19312   1.827   3.623   5.690  1.7875 -1.0919 -2.0948
  170SAPS   C3819313   1.705   3.651   5.509 -0.3620  0.9154  0.3002
  170SAPS   H8X19314   1.711   3.762   5.519 -1.7294  1.0287  0.0252
  170SAPS   H8Y19315   1.602   3.626   5.477 -0.7272  2.7736 -0.1185
  170SAPS   C3919316   1.807   3.595   5.406 -0.1483 -0.2111 -0.2735
  170SAPS   H9X19317   1.813   3.485   5.418 -1.8761 -0.4828 -1.4268
  170SAPS   H9Y19318   1.905   3.638   5.435  0.0281 -0.5527 -0.3549
  170SAPS  C31019319   1.762   3.616   5.263 -0.4288  0.1434 -0.4263
  170SAPS  H10X19320   1.771   3.724   5.239  0.5526  0.6933  2.0636
  170SAPS  H10Y19321   1.655   3.597   5.243 -0.2056 -1.4816 -0.2533
  170SAPS  C31119322   1.850   3.539   5.164 -0.0436  0.5893 -0.7221
  170SAPS  H11X19323   1.842   3.430   5.187 -1.0429  0.9961  1.0431
  170SAPS  H11Y19324   1.952   3.570   5.195  0.2687  0.4837 -1.6197
  170SAPS  C31219325   1.814   3.560   5.020  0.0611 -0.1733 -0.6671
  170SAPS  H12X19326   1.892   3.507   4.962  0.4384  0.3373 -0.6379
  170SAPS  H12Y19327   1.811   3.667   4.991 -3.2902 -0.1900 -0.7685
  170SAPS  C31319328   1.680   3.505   4.971  0.1711  0.5029  0.1048
  170SAPS  H13X19329   1.594   3.567   5.002  1.0145  2.5245 -1.3517
  170SAPS  H13Y19330   1.670   3.397   4.995  1.0474  0.6289  1.0793
  170SAPS  C31419331   1.681   3.498   4.818  0.0683  0.1216  0.1310
  170SAPS  H14X19332   1.757   3.423   4.787 -0.1452  0.8412 -2.2995
  170SAPS  H14Y19333   1.709   3.589   4.761  0.8935 -0.0224  0.2812
  170SAPS  C31519334   1.545   3.443   4.758  0.1731  0.3130  0.4988
  170SAPS  H15X19335   1.471   3.523   4.735 -1.9227 -1.7851 -0.5300
  170SAPS  H15Y19336   1.499   3.384   4.840  0.7553  0.4198  0.9015
  170SAPS  C31619337   1.548   3.370   4.622 -0.3752  0.2769  0.0186
  170SAPS  H16X19338   1.619   3.285   4.622 -0.0588  0.5275  1.3285
  170SAPS  H16Y19339   1.587   3.439   4.544 -0.2501 -0.5824 -0.7008
  170SAPS  C31719340   1.400   3.323   4.584  0.2143  0.5551  0.7248
  170SAPS  H17X19341   1.334   3.407   4.556  0.1009 -0.0228 -0.8366
  170SAPS  H17Y19342   1.355   3.274   4.673  1.3732  0.3666  1.2208
  170SAPS  C31819343   1.373   3.217   4.477 -0.2335  0.6073 -0.2560
  170SAPS  H18X19344   1.270   3.176   4.472  0.6330 -1.6882 -0.1272
  170SAPS  H18Y19345   1.437   3.131   4.504  0.6067  1.2794 -0.0626
  170SAPS  H18Z19346   1.404   3.255   4.377 -3.0615  0.9470 -1.0989
  171SAPS     N19347   1.276   4.349   6.933 -0.3355  0.2334 -0.1126
  171SAPS   HN119348   1.315   4.258   6.901  0.1480  0.8790 -1.4565
  171SAPS   HN219349   1.349   4.419   6.906 -0.1380  0.3086  0.5951
  171SAPS   HN319350   1.272   4.355   7.036 -0.6727 -2.8285  0.1361
  171SAPS   C1219351   1.147   4.386   6.868  0.0548  0.4512  0.0777
  171SAPS  H12A19352   1.160   4.360   6.764 -1.9864  2.1048 -0.6639
  171SAPS   C1319353   1.025   4.306   6.911 -0.3507 -0.1759  0.4157
  171SAPS  O13A19354   1.030   4.214   7.000 -0.1186 -0.2020  0.7499
  171SAPS  O13B19355   0.913   4.332   6.858 -0.7287 -0.1007  0.2327
  171SAPS   C1119356   1.115   4.537   6.886  0.4814 -0.0167  0.5724
  171SAPS  H11A19357   1.141   4.565   6.991 -0.6769  0.1997  0.8069
  171SAPS  H11B19358   1.008   4.564   6.878  0.3289 -0.3770  1.2895
  171SAPS     P19359   1.178   4.766   6.768  0.3679 -0.1505 -0.1648
  171SAPS   O1319360   1.136   4.825   6.897  0.5675 -0.2547  0.0286
  171SAPS   O1419361   1.296   4.821   6.704  0.2888  0.8701 -0.4761
  171SAPS   O1219362   1.200   4.619   6.798 -0.3955 -0.3184 -0.4994
  171SAPS   O1119363   1.062   4.771   6.665 -0.3721  0.1692  0.1041
  171SAPS    C119364   0.992   4.672   6.599  1.1230  0.5381 -0.2734
  171SAPS    HA19365   0.990   4.576   6.654  1.0009  0.0230 -1.1489
  171SAPS    HB19366   0.887   4.708   6.593  1.0321  0.1056 -1.7697
  171SAPS    C219367   1.042   4.649   6.448 -0.5415  0.2766 -0.2126
  171SAPS    HS19368   1.150   4.627   6.466 -1.1554 -1.4282  1.7227
  171SAPS   O2119369   1.020   4.763   6.366 -0.2593 -0.3892  0.5502
  171SAPS   C2119370   1.117   4.789   6.274  0.7953 -0.4040  0.2772
  171SAPS   O2219371   1.215   4.720   6.250 -0.2990 -0.6148 -0.4609
  171SAPS   C2219372   1.061   4.910   6.190 -0.2839 -0.1697  0.2103
  171SAPS   H2R19373   0.974   4.862   6.140 -0.0736 -1.2563  0.8496
  171SAPS   H2S19374   1.018   4.992   6.250  3.4709  2.2200 -0.0253
  171SAPS    C319375   0.973   4.518   6.392 -0.4178  0.3615  0.1648
  171SAPS    HX19376   0.866   4.544   6.379  0.0341  2.0927 -0.2864
  171SAPS    HY19377   0.985   4.429   6.458  2.5319  1.5084  1.3464
  171SAPS   O3119378   1.025   4.479   6.267  0.3784 -0.0801  0.5431
  171SAPS   C3119379   1.148   4.432   6.262 -0.0513 -0.8227  0.7684
  171SAPS   O3219380   1.224   4.414   6.353  0.1259  0.0566 -0.3474
  171SAPS   C3219381   1.183   4.421   6.115 -0.1550 -0.1133  0.0291
  171SAPS   H2X19382   1.276   4.478   6.096 -0.3984  0.0716 -0.6745
  171SAPS   H2Y19383   1.098   4.462   6.056 -2.4167 -2.5462  1.3527
  171SAPS   C2319384   1.168   4.967   6.097  0.1914 -0.5871 -0.6521
  171SAPS   H3R19385   1.189   4.901   6.010  3.6032 -1.5095  0.6759
  171SAPS   H3S19386   1.265   4.986   6.149 -0.4247  0.5889  0.1174
  171SAPS   C2419387   1.111   5.099   6.048 -0.8827 -0.2927  0.1450
  171SAPS   H4R19388   1.107   5.171   6.133  1.2935  0.8282 -0.6122
  171SAPS   H4S19389   1.004   5.084   6.020 -0.6815 -3.7695  0.7767
  171SAPS   C2519390   1.199   5.154   5.937  0.2436 -0.2770  0.5831
  171SAPS   H5R19391   1.306   5.165   5.961  0.4559 -0.2020 -0.3389
  171SAPS   C2619392   1.160   5.189   5.816  0.5020  0.7841  0.5875
  171SAPS   H6R19393   1.244   5.218   5.751  1.3429  1.3292  1.8820
  171SAPS   C2719394   1.022   5.162   5.754 -0.0993  0.1000  0.3549
  171SAPS   H7R19395   1.009   5.218   5.659  1.3326  0.8295  0.5535
  171SAPS   H7S19396   0.945   5.189   5.830 -0.1695 -0.7273  0.5864
  171SAPS   C2819397   1.013   5.012   5.726  0.3098 -0.6547 -0.2212
  171SAPS   H8R19398   1.081   4.947   5.784  0.5694  0.6298  0.9792
  171SAPS   C2919399   0.924   4.956   5.640  0.7382 -0.2933 -0.0310
  171SAPS   H9R19400   0.918   4.846   5.638  4.7576 -0.7036  1.4495
  171SAPS  C21019401   0.816   5.037   5.576  0.0395 -0.3591  0.2187
  171SAPS  H10R19402   0.795   5.121   5.646 -0.1353 -0.6436  0.5127
  171SAPS  H10S19403   0.721   4.978   5.575 -1.0764  1.3644 -1.5775
  171SAPS  C21119404   0.835   5.090   5.434  0.5355 -0.3460 -0.1095
  171SAPS  H11R19405   0.859   5.197   5.429 -2.1486  0.2972 -0.4234
  171SAPS  C21219406   0.817   5.024   5.317  0.4677 -0.0960  0.2472
  171SAPS  H12R19407   0.834   5.079   5.223  0.4644  1.0997  0.9175
  171SAPS  C21319408   0.757   4.889   5.291  0.5907  0.7999  0.2595
  171SAPS  H13R19409   0.661   4.898   5.236  1.0270  0.6613 -0.5324
  171SAPS  H13S19410   0.729   4.851   5.392  0.2981 -0.4599 -0.2774
  171SAPS  C21419411   0.856   4.806   5.210 -0.1604 -0.0956 -0.5764
  171SAPS  H14R19412   0.959   4.829   5.241  0.2858  1.2878 -2.8322
  171SAPS  C21519413   0.836   4.724   5.102  0.3641  0.4406 -0.0154
  171SAPS  H15R19414   0.922   4.678   5.051 -0.0052 -0.4226  0.1211
  171SAPS  C21619415   0.700   4.678   5.060 -0.4599  0.3098 -0.2162
  171SAPS  H16R19416   0.622   4.717   5.129 -0.6445  0.4220 -0.4870
  171SAPS  H16S19417   0.684   4.568   5.064 -1.5275  0.4787  1.6164
  171SAPS  C21719418   0.668   4.718   4.918  0.5266 -0.2079  0.0065
  171SAPS  H17R19419   0.585   4.654   4.882  0.9637 -0.1693 -1.1210
  171SAPS  H17S19420   0.754   4.707   4.848  0.9502 -1.0100  0.6362
  171SAPS  C21819421   0.616   4.867   4.908 -0.4370  0.0770  0.2424
  171SAPS  H18R19422   0.688   4.933   4.962 -0.2377 -1.5485  2.0886
  171SAPS  H18S19423   0.514   4.870   4.953 -0.6869  2.7828 -0.3145
  171SAPS  C21919424   0.613   4.930   4.767 -0.7225  1.3194 -0.8234
  171SAPS  H19R19425   0.722   4.938   4.745  0.0014 -0.3128  1.7529
  171SAPS  H19S19426   0.564   5.029   4.762 -2.5875  0.3951 -2.0955
  171SAPS  C22019427   0.548   4.839   4.657 -0.3694 -0.0328  0.3782
  171SAPS  H20R19428   0.587   4.738   4.634 -1.1497  0.2087 -2.2515
  171SAPS  H20S19429   0.559   4.899   4.565  3.2268 -2.0312 -0.6957
  171SAPS  H20T19430   0.439   4.821   4.668 -0.2539 -1.9585 -1.0920
  171SAPS   C3319431   1.198   4.283   6.058  0.6286 -0.3660 -0.9593
  171SAPS   H3X19432   1.101   4.237   6.030  1.0173 -1.1838 -0.9883
  171SAPS   H3Y19433   1.259   4.214   6.120  0.7853  0.6435  0.0408
  171SAPS   C3419434   1.275   4.279   5.924 -0.7325 -0.9450 -0.4914
  171SAPS   H4X19435   1.380   4.311   5.942 -0.2220 -2.7087 -0.1933
  171SAPS   H4Y19436   1.237   4.353   5.849 -1.2840  0.5147  1.1593
  171SAPS   C3519437   1.268   4.140   5.863 -0.0293 -0.2971  0.1463
  171SAPS   H5X19438   1.162   4.126   5.832  0.8341  0.0671 -3.4582
  171SAPS   H5Y19439   1.301   4.071   5.944  3.3517  0.9996  0.0234
  171SAPS   C3619440   1.357   4.126   5.740  0.0835 -0.3052  0.1598
  171SAPS   H6X19441   1.465   4.130   5.767  0.5031  0.5826 -1.5621
  171SAPS   H6Y19442   1.342   4.210   5.670  0.6513 -0.5230 -0.2297
  171SAPS   C3719443   1.320   3.997   5.672  0.0535  1.0137  0.3341
  171SAPS   H7X19444   1.211   3.995   5.650  0.4735  0.2807 -2.0535
  171SAPS   H7Y19445   1.337   3.910   5.738  2.2446  0.4238 -0.8932
  171SAPS   C3819446   1.398   3.959   5.541 -0.4504 -0.1035 -0.3430
  171SAPS   H8X19447   1.493   3.923   5.585 -1.3715  0.0345  1.9116
  171SAPS   H8Y19448   1.414   4.059   5.494  0.1490  0.7345  1.5259
  171SAPS   C3919449   1.335   3.856   5.450  0.0794 -0.2081  0.0868
  171SAPS   H9X19450   1.233   3.892   5.426  0.6245  0.8550 -0.7135
  171SAPS   H9Y19451   1.321   3.767   5.515 -3.3360  0.9106  1.0581
  171SAPS  C31019452   1.408   3.841   5.314 -0.0525 -0.8051 -0.3928
  171SAPS  H10X19453   1.349   3.763   5.262 -1.1726 -2.1752  2.6811
  171SAPS  H10Y19454   1.511   3.808   5.342  0.2260  1.3407  1.4260
  171SAPS  C31119455   1.412   3.969   5.234  0.2645 -0.5870  0.1120
  171SAPS  H11X19456   1.461   4.048   5.296  0.2973 -0.4138 -0.1352
  171SAPS  H11Y19457   1.311   4.009   5.210  0.1902 -0.4624  0.6167
  171SAPS  C31219458   1.504   3.947   5.111 -0.1543  0.0164  0.0028
  171SAPS  H12X19459   1.469   3.863   5.048  1.2271 -0.9665  0.4841
  171SAPS  H12Y19460   1.606   3.916   5.143  0.0615 -1.2492 -1.8221
  171SAPS  C31319461   1.513   4.078   5.028  0.2548  0.3520 -0.7868
  171SAPS  H13X19462   1.526   4.153   5.108 -2.0880 -0.0092  0.0072
  171SAPS  H13Y19463   1.409   4.095   4.994 -0.7102  0.4294  2.0249
  171SAPS  C31419464   1.620   4.093   4.927 -0.5537 -0.5869 -0.7304
  171SAPS  H14X19465   1.613   4.195   4.882  0.0296  0.7638  2.0367
  171SAPS  H14Y19466   1.599   4.023   4.843  0.2137 -0.2574 -1.2110
  171SAPS  C31519467   1.770   4.073   4.981 -0.2570  0.1390  0.0167
  171SAPS  H15X19468   1.777   3.969   5.019  0.5478  0.5769  1.1146
  171SAPS  H15Y19469   1.787   4.135   5.071  0.6311  0.0122 -0.0625
  171SAPS  C31619470   1.876   4.117   4.882 -0.4677 -0.8543 -0.2223
  171SAPS  H16X19471   1.968   4.127   4.944 -1.5572  2.5042  1.1096
  171SAPS  H16Y19472   1.848   4.214   4.836 -0.1297 -0.1607  0.9882
  171SAPS  C31719473   1.916   4.014   4.767 -0.6196 -0.1606  0.3431
  171SAPS  H17X19474   2.005   4.066   4.724 -0.6955 -0.8405 -0.6570
  171SAPS  H17Y19475   1.846   3.993   4.683  0.8760  2.1314 -1.6155
  171SAPS  C31819476   1.979   3.883   4.822  0.0380 -0.3523  0.0056
  171SAPS  H18X19477   2.047   3.836   4.748  2.4669  1.3213  1.0577
  171SAPS  H18Y19478   1.897   3.812   4.848 -1.3321  1.2456  0.2320
  171SAPS  H18Z19479   2.033   3.892   4.919 -0.9840  0.6308  0.5081
  172SAPS     N19480   1.956   4.469   6.998 -0.3578 -0.6780 -0.0589
  172SAPS   HN119481   2.013   4.555   7.015  1.2675 -1.9357  1.0934
  172SAPS   HN219482   1.867   4.487   6.947 -0.5512 -1.5156 -0.0223
  172SAPS   HN319483   1.928   4.433   7.091  1.2070 -0.8189  0.4003
  172SAPS   C1219484   2.029   4.355   6.926 -0.1119 -0.1527  0.1783
  172SAPS  H12A19485   2.116   4.339   6.988  0.0543  0.1626  0.0317
  172SAPS   C1319486   1.964   4.214   6.906 -0.3442  0.2314 -0.1129
  172SAPS  O13A19487   1.847   4.195   6.960 -0.3473  0.2447 -0.0652
  172SAPS  O13B19488   2.025   4.127   6.840  0.8105  0.0279  0.7067
  172SAPS   C1119489   2.072   4.414   6.785  0.1089 -0.1299 -0.3587
  172SAPS  H11A19490   1.976   4.441   6.735 -0.9758 -1.1626  1.0816
  172SAPS  H11B19491   2.120   4.340   6.718  0.4430 -1.2311  1.0644
  172SAPS     P19492   2.302   4.537   6.806  0.0577  0.0047  0.0249
  172SAPS   O1319493   2.346   4.677   6.792  0.0273 -0.3397  0.0361
  172SAPS   O1419494   2.356   4.454   6.917 -0.1290 -0.4125  0.2760
  172SAPS   O1219495   2.151   4.534   6.802 -0.4408  0.3757 -0.4331
  172SAPS   O1119496   2.338   4.458   6.676  0.1274  0.1554  0.0329
  172SAPS    C119497   2.316   4.523   6.546 -1.3246 -0.2504  0.3379
  172SAPS    HA19498   2.215   4.505   6.504 -1.6133  1.6453  0.1150
  172SAPS    HB19499   2.333   4.633   6.549  0.3365 -0.3588 -1.7329
  172SAPS    C219500   2.432   4.484   6.446 -0.6166 -0.3326  0.5667
  172SAPS    HS19501   2.417   4.531   6.347 -0.7369 -0.1842  0.6565
  172SAPS   O2119502   2.442   4.349   6.434 -0.7021 -0.1712  0.8036
  172SAPS   C2119503   2.372   4.293   6.338  0.0965 -0.2184 -0.7402
  172SAPS   O2219504   2.284   4.342   6.274  0.4875 -0.0534 -0.7419
  172SAPS   C2219505   2.436   4.146   6.323  0.2324 -0.3969  0.0126
  172SAPS   H2R19506   2.542   4.139   6.355  0.3583  1.0018 -0.0479
  172SAPS   H2S19507   2.379   4.084   6.395 -0.5295 -0.7474 -0.8721
  172SAPS    C319508   2.571   4.542   6.499  0.6631  0.1904 -0.3802
  172SAPS    HX19509   2.662   4.493   6.457  0.0283 -0.5678 -0.9072
  172SAPS    HY19510   2.576   4.523   6.608 -1.1563 -0.4649 -0.3752
  172SAPS   O3119511   2.575   4.686   6.485 -0.5719  0.2342  0.1524
  172SAPS   C3119512   2.616   4.727   6.362 -0.1020  0.4250 -0.0826
  172SAPS   O3219513   2.668   4.655   6.282 -0.4594 -0.1668 -0.3462
  172SAPS   C3219514   2.565   4.876   6.345 -0.0803  0.5823 -0.4791
  172SAPS   H2X19515   2.598   4.934   6.434  1.4658 -0.5301 -0.2948
  172SAPS   H2Y19516   2.454   4.873   6.357  0.0770  0.1370  1.2316
  172SAPS   C2319517   2.433   4.084   6.182  1.0219  0.7630  0.5009
  172SAPS   H3R19518   2.323   4.073   6.170  1.1594  0.2699 -0.3862
  172SAPS   H3S19519   2.477   3.982   6.191 -1.7511 -0.5674 -0.0936
  172SAPS   C2419520   2.487   4.168   6.064 -0.0433 -0.2160  0.3346
  172SAPS   H4R19521   2.597   4.181   6.074  0.3262 -1.1725 -1.8406
  172SAPS   H4S19522   2.441   4.268   6.060 -1.1769 -0.6968  0.8532
  172SAPS   C2519523   2.452   4.097   5.936 -0.0247  0.5062 -0.1247
  172SAPS   H5R19524   2.442   3.987   5.930 -3.3038  0.7462 -1.1128
  172SAPS   C2619525   2.444   4.160   5.815  0.3217 -0.7027 -0.4486
  172SAPS   H6R19526   2.415   4.102   5.726  1.2400 -1.6893 -0.1211
  172SAPS   C2719527   2.463   4.309   5.782  0.2735 -0.0581 -0.1033
  172SAPS   H7R19528   2.530   4.321   5.694 -0.2908 -0.1748 -0.5531
  172SAPS   H7S19529   2.509   4.360   5.869  1.1174 -1.6458  0.4322
  172SAPS   C2819530   2.330   4.374   5.762 -0.3064 -0.3135 -0.1341
  172SAPS   H8R19531   2.282   4.416   5.852 -0.6376 -2.2595  0.6378
  172SAPS   C2919532   2.268   4.394   5.642 -0.1554 -0.1002 -0.0916
  172SAPS   H9R19533   2.173   4.450   5.646  1.5494  2.8998  1.2726
  172SAPS  C21019534   2.326   4.351   5.507  0.3913 -0.6297 -0.0377
  172SAPS  H10R19535   2.356   4.244   5.516  1.1239 -0.5849 -1.4797
  172SAPS  H10S19536   2.419   4.409   5.487 -0.8458  1.8689  1.0454
  172SAPS  C21119537   2.229   4.367   5.390  0.0211  0.5709  0.2731
  172SAPS  H11R19538   2.132   4.317   5.405  0.0696  0.6637  0.9241
  172SAPS  C21219539   2.247   4.434   5.276  0.8078  0.6819 -0.0171
  172SAPS  H12R19540   2.162   4.425   5.206  0.0188 -2.3287  1.2000
  172SAPS  C21319541   2.368   4.509   5.230 -0.1618  0.1815  0.2497
  172SAPS  H13R19542   2.452   4.437   5.221 -2.3828 -2.8129  1.6887
  172SAPS  H13S19543   2.402   4.576   5.311 -0.3755 -2.0358  2.2745
  172SAPS  C21419544   2.354   4.576   5.099  0.5853  0.2305 -1.0964
  172SAPS  H14R19545   2.333   4.684   5.101 -0.5256  0.0182  0.7502
  172SAPS  C21519546   2.361   4.513   4.984  0.5108  0.6447 -0.1612
  172SAPS  H15R19547   2.342   4.568   4.890 -1.0851  0.6612  0.1337
  172SAPS  C21619548   2.377   4.368   4.954 -0.0011 -0.0614  0.2614
  172SAPS  H16R19549   2.365   4.303   5.044  1.8073  0.7031  1.1123
  172SAPS  H16S19550   2.483   4.342   4.934  0.0932 -0.1746  0.8600
  172SAPS  C21719551   2.297   4.304   4.838 -0.0535 -0.8133 -0.1466
  172SAPS  H17R19552   2.315   4.367   4.748 -0.6226  1.2340  1.0969
  172SAPS  H17S19553   2.192   4.320   4.869 -0.3686 -0.0962 -1.5074
  172SAPS  C21819554   2.326   4.155   4.799 -0.0949 -0.0191 -0.5793
  172SAPS  H18R19555   2.251   4.118   4.725 -0.7497 -0.2329  0.1817
  172SAPS  H18S19556   2.317   4.090   4.888 -0.5185 -2.0560 -2.0204
  172SAPS  C21919557   2.458   4.138   4.730  0.0764 -0.0838 -0.2693
  172SAPS  H19R19558   2.540   4.153   4.804 -1.1702 -1.0382  1.3685
  172SAPS  H19S19559   2.474   4.214   4.650 -1.1203  1.1726  0.6358
  172SAPS  C22019560   2.489   3.999   4.681  0.5306  0.4565 -0.1316
  172SAPS  H20R19561   2.400   3.953   4.633  1.4277  0.1301 -1.5175
  172SAPS  H20S19562   2.498   3.929   4.767 -0.4881  0.3061 -0.1375
  172SAPS  H20T19563   2.573   3.995   4.609  0.2854 -4.1667 -0.4451
  172SAPS   C3319564   2.616   4.941   6.221  0.3629 -0.3460  0.3419
  172SAPS   H3X19565   2.725   4.940   6.200 -0.0391  1.6092 -2.4009
  172SAPS   H3Y19566   2.602   5.051   6.231  1.6093 -0.1459  0.0946
  172SAPS   C3419567   2.541   4.896   6.097  0.5052 -0.3539 -0.3358
  172SAPS   H4X19568   2.431   4.893   6.116  0.4732 -1.0151 -0.6005
  172SAPS   H4Y19569   2.567   4.791   6.076  0.5042 -0.2931 -0.6487
  172SAPS   C3519570   2.590   4.977   5.971  0.0399  0.6660 -0.3684
  172SAPS   H5X19571   2.699   4.971   5.952  0.3025 -1.0967  1.3810
  172SAPS   H5Y19572   2.570   5.085   5.986  1.8068  0.9426  0.1920
  172SAPS   C3619573   2.507   4.928   5.855  0.3561  0.3715 -0.3660
  172SAPS   H6X19574   2.399   4.947   5.872 -0.2707 -1.7803 -1.5248
  172SAPS   H6Y19575   2.519   4.817   5.849  0.1949  0.3338 -0.0471
  172SAPS   C3719576   2.554   4.997   5.722  0.6727  0.1595  1.3272
  172SAPS   H7X19577   2.644   4.938   5.694 -0.7323 -0.9720 -1.1856
  172SAPS   H7Y19578   2.582   5.104   5.737 -1.1527  0.9553 -0.4328
  172SAPS   C3819579   2.461   5.002   5.600 -0.5013  0.1505  0.7739
  172SAPS   H8X19580   2.376   5.072   5.616 -0.4746  0.5650 -0.7336
  172SAPS   H8Y19581   2.412   4.902   5.595  1.1189 -0.9008  3.7037
  172SAPS   C3919582   2.532   5.022   5.468  0.7172 -0.0533  0.1753
  172SAPS   H9X19583   2.574   4.925   5.436  1.1127 -0.0110  0.5567
  172SAPS   H9Y19584   2.620   5.090   5.476  0.9705 -0.5079  1.6471
  172SAPS  C31019585   2.438   5.051   5.350 -0.1426 -0.5942  0.2576
  172SAPS  H10X19586   2.407   5.158   5.354  0.7561 -0.2624 -1.1116
  172SAPS  H10Y19587   2.341   4.999   5.365 -0.3466 -0.1217  0.5970
  172SAPS  C31119588   2.483   5.013   5.213 -0.4715 -0.4355  0.0897
  172SAPS  H11X19589   2.494   4.905   5.191  1.3551  0.0107 -1.3356
  172SAPS  H11Y19590   2.581   5.061   5.196 -0.0382 -0.5253  2.0413
  172SAPS  C31219591   2.374   5.062   5.110  0.3263  0.1982 -0.7276
  172SAPS  H12X19592   2.369   5.173   5.107 -1.0216  0.1898  0.2402
  172SAPS  H12Y19593   2.277   5.024   5.147  0.7762 -0.0656  0.2137
  172SAPS  C31319594   2.386   5.012   4.964  0.1499 -0.1328 -0.2850
  172SAPS  H13X19595   2.369   4.903   4.949 -1.3720  0.1876 -1.0772
  172SAPS  H13Y19596   2.480   5.043   4.914 -0.2361  1.5734 -0.0075
  172SAPS  C31419597   2.272   5.072   4.877 -0.6828 -0.1352 -0.0687
  172SAPS  H14X19598   2.259   5.177   4.911  0.9765  0.1578 -0.2477
  172SAPS  H14Y19599   2.180   5.017   4.906  0.9010 -1.9760  1.8777
  172SAPS  C31519600   2.290   5.058   4.730  0.1248 -0.0753 -0.2009
  172SAPS  H15X19601   2.385   5.110   4.706 -0.5088  1.5051  0.5673
  172SAPS  H15Y19602   2.212   5.118   4.677  1.0940  2.0405  0.6535
  172SAPS  C31619603   2.308   4.913   4.667 -0.3546  0.9408 -0.2812
  172SAPS  H16X19604   2.394   4.860   4.713  0.2757  1.7071 -0.5435
  172SAPS  H16Y19605   2.221   4.845   4.682  1.5276 -1.3957  0.4877
  172SAPS  C31719606   2.334   4.920   4.515  0.3903  0.7920 -0.1694
  172SAPS  H17X19607   2.239   4.964   4.477 -2.0839 -1.8176  2.5102
  172SAPS  H17Y19608   2.342   4.815   4.481  1.9324  0.5485  0.8574
  172SAPS  C31819609   2.458   5.002   4.473 -0.1766  0.1027 -0.1974
  172SAPS  H18X19610   2.543   4.966   4.534 -0.2278  0.4564  0.0908
  172SAPS  H18Y19611   2.442   5.110   4.494  1.0025  0.4857 -1.2332
  172SAPS  H18Z19612   2.477   4.987   4.365 -2.3668 -0.5836 -0.5463
  173SAPS     N19613   5.607   5.046   2.504 -0.1231 -0.2209 -0.7887
  173SAPS   HN119614   5.588   5.146   2.480  0.7699 -0.3112 -1.9905
  173SAPS   HN219615   5.534   5.025   2.575  0.7809 -1.4641 -0.1984
  173SAPS   HN319616   5.706   5.036   2.533 -0.9051  0.4861  2.4646
  173SAPS   C1219617   5.565   4.958   2.387 -0.0071  0.1019  0.1323
  173SAPS  H12A19618   5.463   4.984   2.363 -0.5027 -2.4419 -0.8395
  173SAPS   C1319619   5.647   4.982   2.261 -0.0726  0.2776  0.5466
  173SAPS  O13A19620   5.729   5.076   2.255 -0.0617  0.4543 -0.0085
  173SAPS  O13B19621   5.634   4.902   2.164  0.6045 -0.2086  0.4877
  173SAPS   C1119622   5.591   4.816   2.434 -0.5668  0.5351  0.0230
  173SAPS  H11A19623   5.698   4.802   2.459 -0.2935  0.1315 -1.2733
  173SAPS  H11B19624   5.566   4.742   2.355  0.2985 -1.5461  1.6383
  173SAPS     P19625   5.374   4.750   2.538  0.8047  0.1498  0.2334
  173SAPS   O1319626   5.292   4.864   2.598 -0.8906 -0.2123  0.3139
  173SAPS   O1419627   5.347   4.709   2.394  0.1579 -0.1380 -0.1668
  173SAPS   O1219628   5.517   4.787   2.553  0.1799  0.2669 -0.1127
  173SAPS   O1119629   5.370   4.619   2.630 -0.0351  0.1034  0.5766
  173SAPS    C119630   5.480   4.524   2.626  0.1499 -0.3803 -0.0148
  173SAPS    HA19631   5.451   4.423   2.591 -1.4303  0.1238 -0.1968
  173SAPS    HB19632   5.566   4.560   2.565 -0.3515  0.6670 -0.1185
  173SAPS    C219633   5.555   4.524   2.764  0.8790  0.7400 -0.6098
  173SAPS    HS19634   5.647   4.461   2.768  1.3961  1.5591  1.2678
  173SAPS   O2119635   5.470   4.483   2.881 -0.3046  0.2803  0.0544
  173SAPS   C2119636   5.437   4.364   2.883  0.0119  0.2516  0.1676
  173SAPS   O2219637   5.441   4.286   2.783  0.2162  0.5811 -0.7289
  173SAPS   C2219638   5.410   4.318   3.020 -0.2642  0.5116 -0.1703
  173SAPS   H2R19639   5.498   4.351   3.079  0.4043  0.2929 -1.0102
  173SAPS   H2S19640   5.321   4.376   3.050  0.4388  1.3082  0.4274
  173SAPS    C319641   5.627   4.660   2.795  0.5678 -0.3885 -0.1309
  173SAPS    HX19642   5.545   4.734   2.794  0.5447 -0.4203 -0.9624
  173SAPS    HY19643   5.705   4.676   2.718  2.4817 -4.1033  0.7308
  173SAPS   O3119644   5.695   4.652   2.922 -0.3115 -0.5670 -0.2831
  173SAPS   C3119645   5.719   4.774   2.980 -0.4082 -0.2674 -0.8140
  173SAPS   O3219646   5.706   4.879   2.918  0.5068 -0.5750  0.0591
  173SAPS   C3219647   5.782   4.745   3.120 -0.6237 -0.2615  0.1545
  173SAPS   H2X19648   5.890   4.733   3.096 -0.6526 -0.2831  0.0312
  173SAPS   H2Y19649   5.726   4.662   3.168 -0.9851 -1.1150 -1.6585
  173SAPS   C2319650   5.372   4.171   3.039  0.3003 -0.3630  0.4541
  173SAPS   H3R19651   5.460   4.115   3.001  1.6784  1.6105  0.5751
  173SAPS   H3S19652   5.287   4.158   2.968  0.1663  0.0248  0.5403
  173SAPS   C2419653   5.331   4.128   3.176  0.9820 -0.0221 -0.1009
  173SAPS   H4R19654   5.285   4.027   3.171  0.0654  0.4392 -1.5113
  173SAPS   H4S19655   5.256   4.202   3.210 -0.1360 -0.8392 -0.7417
  173SAPS   C2519656   5.445   4.133   3.271  0.1509  0.3327  0.1844
  173SAPS   H5R19657   5.515   4.210   3.237 -1.4486  2.2321  1.0153
  173SAPS   C2619658   5.459   4.062   3.385 -0.0385  0.2943 -0.2665
  173SAPS   H6R19659   5.552   4.081   3.441 -0.4466  1.2102  0.1206
  173SAPS   C2719660   5.352   3.978   3.451  0.2155 -0.0486 -0.5936
  173SAPS   H7R19661   5.410   3.891   3.488 -2.9689 -1.5031  1.3444
  173SAPS   H7S19662   5.287   3.924   3.379  1.3104 -1.2737 -0.7086
  173SAPS   C2819663   5.283   4.061   3.554 -0.3786  0.0361 -0.6663
  173SAPS   H8R19664   5.256   4.162   3.522  0.4651  0.9123  1.2818
  173SAPS   C2919665   5.239   4.009   3.675 -0.2738 -0.2360 -0.1482
  173SAPS   H9R19666   5.179   4.066   3.748 -1.7761 -2.0926  0.1767
  173SAPS  C21019667   5.280   3.873   3.729  0.1135  0.6477  0.4210
  173SAPS  H10R19668   5.390   3.868   3.717  0.1056 -0.3847  0.7143
  173SAPS  H10S19669   5.254   3.792   3.657  3.1519  0.9602 -1.1690
  173SAPS  C21119670   5.248   3.836   3.872 -0.4901  0.8290  0.1372
  173SAPS  H11R19671   5.341   3.846   3.930  0.2337  2.0529 -1.1845
  173SAPS  C21219672   5.139   3.800   3.934  0.4719  0.3886  0.4008
  173SAPS  H12R19673   5.143   3.766   4.039  0.7719 -1.0046 -0.0385
  173SAPS  C21319674   5.005   3.766   3.886  0.3573  1.2523  0.5568
  173SAPS  H13R19675   5.013   3.755   3.776  1.9250  1.2008  0.6490
  173SAPS  H13S19676   4.945   3.856   3.908  0.9643  1.5096  1.1976
  173SAPS  C21419677   4.954   3.637   3.949 -0.3477 -0.2552  0.1176
  173SAPS  H14R19678   5.025   3.555   3.932 -0.9416 -0.6181 -0.6971
  173SAPS  C21519679   4.843   3.611   4.018  0.7787  0.0662 -0.2886
  173SAPS  H15R19680   4.828   3.510   4.058 -0.6373  0.0436 -0.7921
  173SAPS  C21619681   4.736   3.713   4.044 -0.3641 -0.0045 -0.6820
  173SAPS  H16R19682   4.646   3.684   3.984  0.5711  0.8698 -2.5875
  173SAPS  H16S19683   4.758   3.816   4.008 -1.6569  0.3527 -0.5028
  173SAPS  C21719684   4.700   3.720   4.194  0.4410  0.1096 -0.0428
  173SAPS  H17R19685   4.673   3.617   4.228 -0.0838  0.8771  1.9929
  173SAPS  H17S19686   4.605   3.778   4.193 -0.4528 -1.3008 -0.7519
  173SAPS  C21819687   4.820   3.755   4.279  0.4387  0.4152  0.4579
  173SAPS  H18R19688   4.867   3.845   4.234  0.6900 -0.2064 -0.5801
  173SAPS  H18S19689   4.878   3.661   4.265 -0.8099 -0.4087  0.6257
  173SAPS  C21919690   4.786   3.780   4.423 -0.5966 -0.3026  0.5742
  173SAPS  H19R19691   4.749   3.885   4.427 -0.5265 -0.2733  0.4639
  173SAPS  H19S19692   4.877   3.784   4.487 -0.5655  2.2957  0.4800
  173SAPS  C22019693   4.687   3.683   4.483  0.7170 -0.1611 -0.2214
  173SAPS  H20R19694   4.589   3.721   4.450  1.3776  2.0546  0.2511
  173SAPS  H20S19695   4.698   3.691   4.593  1.0694  1.0731 -0.3312
  173SAPS  H20T19696   4.690   3.575   4.456 -3.8802 -0.2511 -1.1311
  173SAPS   C3319697   5.761   4.855   3.224 -0.3945  0.6252 -0.8436
  173SAPS   H3X19698   5.650   4.866   3.226 -0.5825 -0.9090 -1.5205
  173SAPS   H3Y19699   5.814   4.940   3.175 -1.2571  0.7646 -1.5537
  173SAPS   C3419700   5.830   4.829   3.359 -0.2425 -0.2240  0.1164
  173SAPS   H4X19701   5.935   4.806   3.332  0.3315  3.2421 -1.0885
  173SAPS   H4Y19702   5.786   4.747   3.419 -0.1059 -0.6225 -0.3205
  173SAPS   C3519703   5.850   4.953   3.444  0.7491  0.3140 -0.2681
  173SAPS   H5X19704   5.747   4.981   3.473  0.3906 -0.9848 -0.2136
  173SAPS   H5Y19705   5.908   5.029   3.389  0.9149  0.1711 -0.2926
  173SAPS   C3619706   5.935   4.919   3.571 -0.3742 -0.5062 -0.2426
  173SAPS   H6X19707   5.944   5.013   3.630 -0.1300 -1.7302  1.7434
  173SAPS   H6Y19708   6.037   4.892   3.535 -1.0754 -0.8769 -2.0405
  173SAPS   C3719709   5.875   4.813   3.660 -0.1035  0.1054 -0.7538
  173SAPS   H7X19710   5.876   4.715   3.608  3.1170  0.8194 -2.2654
  173SAPS   H7Y19711   5.765   4.828   3.665 -0.3380 -1.0815 -1.7982
  173SAPS   C3819712   5.947   4.792   3.795 -0.5175 -0.4189 -0.4147
  173SAPS   H8X19713   5.928   4.887   3.850 -2.9432 -1.4370  0.6134
  173SAPS   H8Y19714   6.054   4.775   3.770 -0.1201  1.4352 -0.1775
  173SAPS   C3919715   5.903   4.671   3.877 -0.1627 -0.4183  0.3945
  173SAPS   H9X19716   5.937   4.581   3.822 -2.5379 -0.6131 -0.8924
  173SAPS   H9Y19717   5.794   4.656   3.867 -0.4646  1.5713  0.2023
  173SAPS  C31019718   5.958   4.679   4.022 -0.6414 -0.3156 -0.4655
  173SAPS  H10X19719   5.943   4.781   4.064 -0.8282 -0.6188  0.2081
  173SAPS  H10Y19720   6.069   4.682   4.015 -0.7361 -0.3307 -2.8713
  173SAPS  C31119721   5.916   4.568   4.114 -0.2386  0.4218  0.3484
  173SAPS  H11X19722   5.973   4.576   4.209  1.3265 -0.7763 -0.4454
  173SAPS  H11Y19723   5.952   4.475   4.065 -0.4873  1.3849 -1.8043
  173SAPS  C31219724   5.770   4.559   4.136 -0.2555  0.1449 -0.0746
  173SAPS  H12X19725   5.754   4.471   4.203 -4.2846  1.5705  1.1305
  173SAPS  H12Y19726   5.702   4.547   4.049 -1.1139 -2.4750  0.8338
  173SAPS  C31319727   5.721   4.674   4.227 -0.4527  0.6809  0.5206
  173SAPS  H13X19728   5.753   4.769   4.181 -2.0121  0.7495 -0.5185
  173SAPS  H13Y19729   5.778   4.666   4.322  1.6871  1.1885 -0.6719
  173SAPS  C31419730   5.579   4.659   4.270  0.1367 -0.0037 -0.2202
  173SAPS  H14X19731   5.565   4.568   4.332 -0.9397 -0.8102 -1.5921
  173SAPS  H14Y19732   5.512   4.654   4.182  1.0351  1.7250 -1.0519
  173SAPS  C31519733   5.536   4.781   4.353  0.5128  0.4372 -0.2404
  173SAPS  H15X19734   5.521   4.870   4.288 -2.0854  1.4363  1.5605
  173SAPS  H15Y19735   5.624   4.798   4.419  1.6113 -2.9040 -0.6830
  173SAPS  C31619736   5.413   4.745   4.440 -0.4310  0.1568  0.6562
  173SAPS  H16X19737   5.403   4.827   4.515  3.2718  1.1675  0.2316
  173SAPS  H16Y19738   5.428   4.646   4.488 -4.0226  0.0313  1.8421
  173SAPS  C31719739   5.284   4.737   4.354  0.3266 -0.4180 -0.3069
  173SAPS  H17X19740   5.296   4.637   4.307 -1.1092 -0.5129 -0.5091
  173SAPS  H17Y19741   5.290   4.817   4.277  1.8946  1.9571  2.0877
  173SAPS  C31819742   5.150   4.751   4.441 -0.6662  0.1362 -0.1180
  173SAPS  H18X19743   5.065   4.703   4.388 -2.2789  0.3907  2.0676
  173SAPS  H18Y19744   5.123   4.857   4.462 -1.4536  0.1013 -0.8877
  173SAPS  H18Z19745   5.164   4.701   4.539 -2.8096 -0.3795 -0.0187
  174SAPS     N19746   2.062   3.132   1.570 -0.1380  0.1944  0.4454
  174SAPS   HN119747   2.087   3.056   1.504 -0.6567 -0.3947  0.9149
  174SAPS   HN219748   2.056   3.101   1.669  0.9459 -1.3895  0.0405
  174SAPS   HN319749   1.963   3.152   1.542 -0.4105 -0.4377  0.9218
  174SAPS   C1219750   2.146   3.253   1.564  0.1186 -0.0584  0.4463
  174SAPS  H12A19751   2.244   3.231   1.603  0.1906  0.1875  0.4053
  174SAPS   C1319752   2.158   3.307   1.420  0.4243 -0.0587 -0.5870
  174SAPS  O13A19753   2.111   3.246   1.321  0.2427 -0.3484  0.1314
  174SAPS  O13B19754   2.212   3.419   1.402  0.1586 -0.3674 -0.4959
  174SAPS   C1119755   2.084   3.362   1.653  0.6947  0.2173 -0.4704
  174SAPS  H11A19756   1.989   3.399   1.609  0.7408  1.9396  0.7814
  174SAPS  H11B19757   2.158   3.444   1.647  1.9956 -1.0205 -2.3232
  174SAPS     P19758   2.127   3.379   1.914 -0.2031  0.0440  0.4451
  174SAPS   O1319759   2.274   3.372   1.909 -0.3382 -0.3687 -0.3609
  174SAPS   O1419760   2.069   3.516   1.924  0.3937  0.4985 -0.3350
  174SAPS   O1219761   2.058   3.315   1.787  0.1997  0.5476 -0.4936
  174SAPS   O1119762   2.067   3.289   2.029 -0.6197 -0.5184  0.0449
  174SAPS    C119763   2.061   3.142   2.011  0.2404 -0.0921 -0.1328
  174SAPS    HA19764   1.960   3.125   1.968  0.3163 -0.2048 -0.2658
  174SAPS    HB19765   2.143   3.108   1.944  1.0824  2.4217 -0.4918
  174SAPS    C219766   2.080   3.074   2.144 -0.2642  0.3906 -0.1454
  174SAPS    HS19767   2.050   2.967   2.137  0.9228  0.1707 -2.7449
  174SAPS   O2119768   2.017   3.143   2.259  0.0849 -0.1182 -0.2685
  174SAPS   C2119769   1.890   3.132   2.259 -0.0676 -0.3334  0.2004
  174SAPS   O2219770   1.817   3.060   2.195  0.1841  0.1510 -0.2270
  174SAPS   C2219771   1.834   3.219   2.374 -0.1321  0.1955  0.0672
  174SAPS   H2R19772   1.845   3.328   2.357  0.9277  0.3215  1.3990
  174SAPS   H2S19773   1.727   3.195   2.391 -0.0635  0.8326  1.5509
  174SAPS    C319774   2.231   3.068   2.186  0.6635 -0.2673  0.6850
  174SAPS    HX19775   2.266   3.173   2.183 -2.0374  0.7512  1.8823
  174SAPS    HY19776   2.284   3.002   2.114 -1.8246 -0.5002 -1.0580
  174SAPS   O3119777   2.235   3.004   2.313  0.1397  0.1742  0.2220
  174SAPS   C3119778   2.286   3.074   2.419 -0.3629 -0.2112  0.2966
  174SAPS   O3219779   2.364   3.168   2.412  0.4342  0.2570  0.3213
  174SAPS   C3219780   2.240   3.019   2.551 -0.2123 -0.3147  0.5875
  174SAPS   H2X19781   2.289   2.920   2.566 -0.6680 -0.4422  1.2456
  174SAPS   H2Y19782   2.131   3.009   2.534  0.0271 -1.3568 -0.4926
  174SAPS   C2319783   1.905   3.180   2.507 -0.0732  0.3154 -0.1533
  174SAPS   H3R19784   2.013   3.203   2.494  0.3448 -0.3504  1.8111
  174SAPS   H3S19785   1.909   3.071   2.524  1.3985  0.2011 -1.0547
  174SAPS   C2419786   1.856   3.257   2.630  0.3848  0.7822 -0.9387
  174SAPS   H4R19787   1.848   3.365   2.606 -1.6243  1.4937  2.3167
  174SAPS   H4S19788   1.932   3.254   2.711 -0.1509  0.7752 -0.4370
  174SAPS   C2519789   1.722   3.216   2.678 -0.2522  0.1595  0.1357
  174SAPS   H5R19790   1.639   3.257   2.618 -0.7534  0.6846  1.1495
  174SAPS   C2619791   1.691   3.164   2.797 -0.4589 -0.2262 -0.6840
  174SAPS   H6R19792   1.586   3.136   2.813 -0.0406 -2.2746 -1.1601
  174SAPS   C2719793   1.779   3.123   2.915  0.8190  0.2344 -0.5748
  174SAPS   H7R19794   1.886   3.119   2.888  0.3334 -2.5074 -2.5618
  174SAPS   H7S19795   1.753   3.020   2.949  1.3307  0.2198 -0.2192
  174SAPS   C2819796   1.753   3.226   3.015  0.2797 -0.1822 -0.2178
  174SAPS   H8R19797   1.712   3.323   2.984 -0.7105 -1.2291 -2.3707
  174SAPS   C2919798   1.752   3.194   3.150 -0.5662  0.1882  0.0856
  174SAPS   H9R19799   1.746   3.270   3.229  1.0835 -0.7438  1.1596
  174SAPS  C21019800   1.800   3.065   3.205  0.2499 -0.1258  0.0704
  174SAPS  H10R19801   1.850   3.079   3.303  1.0611  0.3271 -0.3990
  174SAPS  H10S19802   1.877   3.018   3.140 -0.5798  0.6949 -1.5718
  174SAPS  C21119803   1.686   2.966   3.221  0.1823 -0.2308 -0.2421
  174SAPS  H11R19804   1.642   2.949   3.121 -2.3756  0.3806  0.6861
  174SAPS  C21219805   1.644   2.909   3.341 -0.3903 -0.3882  0.9975
  174SAPS  H12R19806   1.575   2.825   3.328 -2.0417  1.1645 -1.0627
  174SAPS  C21319807   1.694   2.938   3.483  1.3031 -0.0221 -0.6624
  174SAPS  H13R19808   1.691   3.049   3.494 -1.5256  0.2853 -3.3451
  174SAPS  H13S19809   1.801   2.909   3.483  1.7014  1.1544  1.4759
  174SAPS  C21419810   1.615   2.852   3.580 -0.2077 -0.0330  0.1313
  174SAPS  H14R19811   1.588   2.754   3.539  0.4607  0.3837 -1.3672
  174SAPS  C21519812   1.616   2.863   3.711  0.2187 -0.1829  0.4559
  174SAPS  H15R19813   1.562   2.790   3.773 -0.3825  1.7538  2.3283
  174SAPS  C21619814   1.680   2.977   3.786 -0.9247  0.3238 -0.1512
  174SAPS  H16R19815   1.754   3.041   3.734  2.2083 -2.6941  0.2161
  174SAPS  H16S19816   1.743   2.923   3.859  1.1412  1.8208 -0.7404
  174SAPS  C21719817   1.574   3.054   3.859  0.6202 -0.0029  0.3531
  174SAPS  H17R19818   1.495   2.991   3.905  0.3739  1.1927  1.6315
  174SAPS  H17S19819   1.533   3.138   3.798 -1.4179  0.0864  1.7427
  174SAPS  C21819820   1.641   3.135   3.966 -0.2079  0.1800  0.2333
  174SAPS  H18R19821   1.744   3.167   3.939 -0.4182  0.4324 -0.2796
  174SAPS  H18S19822   1.647   3.058   4.046 -4.5782 -0.4926  0.1303
  174SAPS  C21919823   1.564   3.256   4.016  0.3224 -0.0647  0.8917
  174SAPS  H19R19824   1.541   3.325   3.932 -1.4127 -1.8680 -0.1886
  174SAPS  H19S19825   1.626   3.313   4.089  2.1095 -1.3253  0.4197
  174SAPS  C22019826   1.433   3.214   4.086  0.7851 -0.4732 -0.1651
  174SAPS  H20R19827   1.386   3.304   4.131  1.1418 -0.4668  0.2035
  174SAPS  H20S19828   1.454   3.150   4.174 -1.3019 -0.0893  0.6638
  174SAPS  H20T19829   1.363   3.163   4.017 -0.2516  2.1337 -1.1489
  174SAPS   C3319830   2.269   3.115   2.676 -0.8560  0.4887 -0.0071
  174SAPS   H3X19831   2.252   3.221   2.649  1.6584  0.3617 -2.5371
  174SAPS   H3Y19832   2.377   3.104   2.697 -0.1169  1.5755 -2.8396
  174SAPS   C3419833   2.174   3.079   2.803 -0.4498  0.5387  0.5963
  174SAPS   H4X19834   2.183   2.969   2.816 -2.8036  0.0120 -1.3813
  174SAPS   H4Y19835   2.071   3.103   2.766  0.0803  1.0675 -0.6023
  174SAPS   C3519836   2.188   3.162   2.937  0.0702  0.3319 -0.2383
  174SAPS   H5X19837   2.104   3.151   3.009 -1.5129  3.1785 -1.4890
  174SAPS   H5Y19838   2.176   3.265   2.899  1.0092 -0.2292 -2.2097
  174SAPS   C3619839   2.317   3.137   3.011  0.3162  0.1100  0.3763
  174SAPS   H6X19840   2.317   3.206   3.098  1.3251  1.5881 -0.7520
  174SAPS   H6Y19841   2.396   3.171   2.941 -0.6609  2.1169  0.1767
  174SAPS   C3719842   2.344   2.998   3.068 -0.7110 -0.3872 -0.0552
  174SAPS   H7X19843   2.448   2.994   3.105 -0.9996  0.9714  0.9654
  174SAPS   H7Y19844   2.333   2.926   2.983 -0.3958 -0.4978 -0.0026
  174SAPS   C3819845   2.240   2.966   3.174  0.0034  0.1373  0.5727
  174SAPS   H8X19846   2.239   2.858   3.198 -2.9746  0.4517  2.3739
  174SAPS   H8Y19847   2.136   2.996   3.146 -0.2221  1.0118  2.1944
  174SAPS   C3919848   2.277   3.026   3.308  0.2013  0.2358 -0.9402
  174SAPS   H9X19849   2.312   3.129   3.284  0.2315  0.8199  1.3947
  174SAPS   H9Y19850   2.358   2.963   3.350  0.6305  0.8564 -0.8165
  174SAPS  C31019851   2.151   3.028   3.396 -0.2527  0.8900 -0.1300
  174SAPS  H10X19852   2.121   2.926   3.429  0.5581 -0.3335 -2.8764
  174SAPS  H10Y19853   2.066   3.075   3.341 -0.3865  0.5939 -0.1768
  174SAPS  C31119854   2.179   3.115   3.524 -0.5232  0.2245 -0.2136
  174SAPS  H11X19855   2.206   3.222   3.508  2.7377 -0.3499  0.6437
  174SAPS  H11Y19856   2.258   3.071   3.588 -1.5942 -2.2786 -0.5072
  174SAPS  C31219857   2.060   3.114   3.620 -0.5861 -0.9639 -0.6241
  174SAPS  H12X19858   2.071   3.016   3.671  3.8576 -0.5828 -0.4453
  174SAPS  H12Y19859   1.967   3.136   3.563 -0.0353  2.6099 -0.3755
  174SAPS  C31319860   2.079   3.222   3.729  0.1533  0.5278  0.2919
  174SAPS  H13X19861   1.976   3.251   3.760 -0.0727  1.3449 -1.1259
  174SAPS  H13Y19862   2.122   3.315   3.686 -1.9853  2.3986  1.9202
  174SAPS  C31419863   2.165   3.185   3.849 -0.0023 -0.0182 -0.5555
  174SAPS  H14X19864   2.271   3.183   3.815  0.1222  0.1124 -0.1797
  174SAPS  H14Y19865   2.144   3.081   3.879 -0.6682  0.0482 -0.7902
  174SAPS  C31519866   2.165   3.283   3.965  0.2431 -0.2085  0.3660
  174SAPS  H15X19867   2.180   3.383   3.920 -0.6564 -0.5477 -0.7590
  174SAPS  H15Y19868   2.243   3.255   4.039  0.0848  1.7860  1.3795
  174SAPS  C31619869   2.031   3.287   4.041 -0.0727 -0.1370 -0.2183
  174SAPS  H16X19870   1.970   3.195   4.031 -0.2214 -0.1800  0.9511
  174SAPS  H16Y19871   1.980   3.371   3.990  0.6114  2.3891  2.9159
  174SAPS  C31719872   2.041   3.302   4.198 -0.8898  0.2158  0.1420
  174SAPS  H17X19873   2.068   3.410   4.202  1.4610 -0.2488 -1.3061
  174SAPS  H17Y19874   2.124   3.236   4.229  0.8221  2.2804  0.1833
  174SAPS  C31819875   1.919   3.268   4.278  0.0179 -0.0662 -0.1402
  174SAPS  H18X19876   1.870   3.178   4.236 -1.0025  0.2028  0.4362
  174SAPS  H18Y19877   1.839   3.345   4.268  1.0838  1.0074 -0.6291
  174SAPS  H18Z19878   1.938   3.242   4.385  1.1125 -1.1290 -0.5596
  175SAPS     N19879   4.711   0.422   1.925 -0.3469  0.3646 -0.0862
  175SAPS   HN119880   4.627   0.457   1.875 -2.2169 -0.2104  2.4342
  175SAPS   HN219881   4.709   0.318   1.923 -1.5285  0.1437  3.6232
  175SAPS   HN319882   4.697   0.449   2.025 -1.4264 -4.2264  1.2568
  175SAPS   C1219883   4.837   0.477   1.867 -0.4035 -0.4662 -0.1750
  175SAPS  H12A19884   4.921   0.427   1.913 -0.4451 -0.5272 -0.1659
  175SAPS   C1319885   4.865   0.449   1.717  0.4995 -0.0162  0.4957
  175SAPS  O13A19886   4.777   0.387   1.647  0.4336 -0.0166 -0.1454
  175SAPS  O13B19887   4.981   0.479   1.669  0.1503  0.4688 -0.3286
  175SAPS   C1119888   4.817   0.629   1.901  0.3210  0.5677 -0.3595
  175SAPS  H11A19889   4.729   0.664   1.842 -1.1424 -0.8210  0.9034
  175SAPS  H11B19890   4.899   0.690   1.857  1.7587 -0.8817  0.2261
  175SAPS     P19891   4.817   0.770   2.125 -0.1921 -0.3745  0.2457
  175SAPS   O1319892   4.862   0.880   2.043 -0.1619  0.1006 -0.0145
  175SAPS   O1419893   4.713   0.792   2.230  0.8345  0.9127  0.1688
  175SAPS   O1219894   4.787   0.645   2.036  0.8213  0.0162  0.2719
  175SAPS   O1119895   4.942   0.710   2.206  0.1436  0.3814  0.7440
  175SAPS    C119896   4.981   0.578   2.229 -0.4873 -0.3702 -0.2456
  175SAPS    HA19897   4.942   0.508   2.152  1.1086  0.5126 -1.9557
  175SAPS    HB19898   5.091   0.576   2.217 -0.5982 -1.3248 -1.2216
  175SAPS    C219899   4.933   0.540   2.373 -0.2963 -0.2119 -0.3497
  175SAPS    HS19900   4.823   0.536   2.360 -0.1901 -2.2605 -0.9394
  175SAPS   O2119901   4.983   0.650   2.462 -0.0181  0.3281 -0.1401
  175SAPS   C2119902   4.893   0.673   2.557 -0.0440 -0.2447  0.5180
  175SAPS   O2219903   4.783   0.623   2.568 -0.2864 -0.0114 -0.1483
  175SAPS   C2219904   4.950   0.787   2.647  0.5227  0.3600 -0.1761
  175SAPS   H2R19905   4.863   0.829   2.701 -0.1712 -1.4814  0.2375
  175SAPS   H2S19906   5.012   0.742   2.728 -0.0395 -0.6838 -0.3083
  175SAPS    C319907   4.986   0.400   2.412  0.1709  0.2797 -0.0506
  175SAPS    HX19908   5.097   0.407   2.403  0.1152  1.1289 -0.1289
  175SAPS    HY19909   4.956   0.333   2.328  0.8610  0.0201 -0.1009
  175SAPS   O3119910   4.941   0.376   2.548 -0.3274 -0.1663 -0.2585
  175SAPS   C3119911   4.824   0.305   2.551 -0.7427 -0.1303  0.1177
  175SAPS   O3219912   4.774   0.249   2.461  0.2469  0.1212  0.9990
  175SAPS   C3219913   4.761   0.318   2.686  0.1469  1.0951  0.9121
  175SAPS   H2X19914   4.705   0.224   2.701  2.1043 -0.0526  1.3497
  175SAPS   H2Y19915   4.678   0.391   2.674 -0.2806  0.8023  2.0065
  175SAPS   C2319916   5.043   0.899   2.589  0.3960  0.4514  0.2684
  175SAPS   H3R19917   5.002   0.936   2.493  0.5312  2.8601  1.0535
  175SAPS   H3S19918   5.142   0.850   2.578  1.2041  1.6079  1.8882
  175SAPS   C2419919   5.073   1.012   2.691  0.0401  0.0009  0.1711
  175SAPS   H4R19920   5.128   0.962   2.773  1.2561 -3.4628 -2.5049
  175SAPS   H4S19921   4.984   1.073   2.720  0.1269 -0.0723  0.5926
  175SAPS   C2519922   5.181   1.095   2.634 -0.1296 -0.2972 -0.2790
  175SAPS   H5R19923   5.240   1.050   2.553 -1.1240  1.5480 -2.1251
  175SAPS   C2619924   5.217   1.219   2.671 -0.3182 -0.5444  0.0372
  175SAPS   H6R19925   5.294   1.268   2.610  0.2321 -1.2784  0.1342
  175SAPS   C2719926   5.147   1.299   2.782  0.1182  1.0834  0.2238
  175SAPS   H7R19927   5.181   1.269   2.884  0.8278 -2.1103 -0.8450
  175SAPS   H7S19928   5.042   1.264   2.788  0.3259  0.5735  0.9704
  175SAPS   C2819929   5.159   1.442   2.750  0.4512 -0.0808 -0.1535
  175SAPS   H8R19930   5.081   1.458   2.674  0.2842 -0.2285 -0.0139
  175SAPS   C2919931   5.236   1.540   2.800  0.3137 -0.0909  0.8852
  175SAPS   H9R19932   5.214   1.640   2.760 -0.2233 -0.8934 -0.9799
  175SAPS  C21019933   5.352   1.524   2.896 -0.2790 -0.2146  0.0120
  175SAPS  H10R19934   5.334   1.430   2.953 -0.1467 -0.9796 -1.1686
  175SAPS  H10S19935   5.345   1.607   2.969  2.7949  0.0304  0.1516
  175SAPS  C21119936   5.497   1.519   2.850  0.2931  0.4037  0.6306
  175SAPS  H11R19937   5.525   1.561   2.752  0.5991 -0.1816  0.4687
  175SAPS  C21219938   5.590   1.475   2.935  0.8443 -0.0016  0.1707
  175SAPS  H12R19939   5.696   1.480   2.904  1.1118 -0.4096  0.9778
  175SAPS  C21319940   5.564   1.423   3.077 -0.6444  0.2711  0.1626
  175SAPS  H13R19941   5.490   1.340   3.072 -2.2371  1.4250  2.6254
  175SAPS  H13S19942   5.512   1.500   3.138  0.4116  2.0194 -1.0690
  175SAPS  C21419943   5.693   1.379   3.145 -0.6549 -0.3267  0.2758
  175SAPS  H14R19944   5.779   1.444   3.123 -0.6554  0.0918  1.4560
  175SAPS  C21519945   5.719   1.273   3.215 -0.0877 -0.1051 -0.5745
  175SAPS  H15R19946   5.821   1.252   3.253  0.5657 -0.5778 -2.4457
  175SAPS  C21619947   5.609   1.187   3.261  0.3250  0.0087 -0.3244
  175SAPS  H16R19948   5.580   1.118   3.180 -0.4074  1.8356 -1.6867
  175SAPS  H16S19949   5.524   1.250   3.296  1.0343 -0.1509  1.8920
  175SAPS  C21719950   5.641   1.095   3.380 -0.0480 -0.5833 -0.9380
  175SAPS  H17R19951   5.724   1.028   3.347  0.2606 -0.4754 -0.3849
  175SAPS  H17S19952   5.550   1.035   3.400 -1.4706  1.4985 -0.8574
  175SAPS  C21819953   5.672   1.179   3.514 -0.2625 -0.3977  0.0124
  175SAPS  H18R19954   5.625   1.280   3.513  0.2654 -0.1011  1.6483
  175SAPS  H18S19955   5.782   1.195   3.523 -0.5059  0.9341  0.8511
  175SAPS  C21919956   5.622   1.104   3.636 -0.1520 -0.1186  0.2534
  175SAPS  H19R19957   5.681   1.012   3.657  0.8939  0.2279 -1.0862
  175SAPS  H19S19958   5.515   1.074   3.628 -0.0747 -0.9944  1.9813
  175SAPS  C22019959   5.642   1.179   3.769 -0.8347  0.2836  0.3201
  175SAPS  H20R19960   5.587   1.115   3.842  1.2315 -0.6760  1.1073
  175SAPS  H20S19961   5.608   1.285   3.769 -1.6592  0.0340  0.0571
  175SAPS  H20T19962   5.749   1.181   3.797 -1.4366 -1.2674  3.0956
  175SAPS   C3319963   4.855   0.350   2.803 -0.5008 -0.0928  0.2131
  175SAPS   H3X19964   4.790   0.384   2.886 -0.3550  1.4759 -0.2679
  175SAPS   H3Y19965   4.916   0.441   2.781  1.0791 -0.8633  1.2463
  175SAPS   C3419966   4.934   0.232   2.862  0.4415 -0.3898 -0.0202
  175SAPS   H4X19967   5.013   0.196   2.793 -0.4101  0.0051 -1.2491
  175SAPS   H4Y19968   4.859   0.152   2.880 -1.3368  1.4208  1.0248
  175SAPS   C3519969   4.991   0.257   3.000 -0.0663 -0.0662 -0.2466
  175SAPS   H5X19970   5.050   0.351   2.992  0.8263 -0.6078 -0.1567
  175SAPS   H5Y19971   5.064   0.175   3.021 -0.7287 -0.5323  0.2566
  175SAPS   C3619972   4.891   0.261   3.113 -0.4862  0.0291 -1.1947
  175SAPS   H6X19973   4.795   0.210   3.090 -0.8411  0.0989  0.0454
  175SAPS   H6Y19974   4.871   0.368   3.132 -0.8060 -0.3833  1.1026
  175SAPS   C3719975   4.945   0.189   3.241  0.9042 -0.2829 -0.0480
  175SAPS   H7X19976   4.955   0.081   3.219 -2.2882 -0.6821 -0.0337
  175SAPS   H7Y19977   4.864   0.209   3.314 -2.3523 -1.8512 -2.9182
  175SAPS   C3819978   5.065   0.251   3.311 -0.3572 -0.1691 -0.7125
  175SAPS   H8X19979   5.057   0.362   3.313 -0.9565 -0.2252 -0.0896
  175SAPS   H8Y19980   5.160   0.234   3.255 -0.7036  0.6228 -1.5711
  175SAPS   C3919981   5.075   0.213   3.460 -0.0616  0.1431 -0.0692
  175SAPS   H9X19982   5.080   0.102   3.457  0.4814  0.1907 -1.6345
  175SAPS   H9Y19983   4.982   0.251   3.508 -0.0006  0.9189 -0.5466
  175SAPS  C31019984   5.195   0.267   3.538 -0.3813  0.3317  0.2670
  175SAPS  H10X19985   5.194   0.378   3.539  0.0465  0.4226 -2.0424
  175SAPS  H10Y19986   5.288   0.227   3.491  0.3379  1.0182  1.0744
  175SAPS  C31119987   5.187   0.223   3.684 -0.4875  0.1854 -0.0016
  175SAPS  H11X19988   5.192   0.113   3.698  1.2352  0.1787 -0.4530
  175SAPS  H11Y19989   5.087   0.252   3.722 -0.5538  0.7358 -0.5721
  175SAPS  C31219990   5.297   0.282   3.772 -0.1574 -0.8352 -0.4329
  175SAPS  H12X19991   5.291   0.393   3.766  0.2193 -0.8063 -0.3091
  175SAPS  H12Y19992   5.397   0.252   3.734 -0.3041  0.5699 -2.0066
  175SAPS  C31319993   5.278   0.244   3.918  0.1821 -0.3435 -0.1808
  175SAPS  H13X19994   5.371   0.257   3.979 -0.0703  1.9273 -0.1945
  175SAPS  H13Y19995   5.261   0.135   3.926  0.4098 -0.3297  0.6475
  175SAPS  C31419996   5.168   0.324   3.990  0.1359 -0.5819  0.4886
  175SAPS  H14X19997   5.086   0.334   3.915 -0.3283  0.7356  1.1250
  175SAPS  H14Y19998   5.191   0.426   4.027 -1.8860 -0.6933  2.2827
  175SAPS  C31519999   5.130   0.237   4.111  0.4146 -0.2984  0.0446
  175SAPS  H15X20000   5.109   0.133   4.077  3.7980 -1.1305  0.1179
  175SAPS  H15Y20001   5.040   0.278   4.162  0.9185 -0.6335  1.2418
  175SAPS  C31620002   5.246   0.246   4.218  0.9458  0.3666 -0.1649
  175SAPS  H16X20003   5.285   0.350   4.215  0.9839  0.3538 -3.0102
  175SAPS  H16Y20004   5.319   0.169   4.186 -0.3252 -1.1394  0.4132
  175SAPS  C31720005   5.204   0.212   4.361  0.6447  0.3698  0.6016
  175SAPS  H17X20006   5.162   0.305   4.405  0.6316 -0.7226  3.0892
  175SAPS  H17Y20007   5.297   0.185   4.416 -0.2673 -2.5463  0.8315
  175SAPS  C31820008   5.103   0.097   4.389  0.2687  0.0090  0.1180
  175SAPS  H18X20009   5.087   0.072   4.496 -0.2032 -0.5216 -0.0726
  175SAPS  H18Y20010   5.132  -0.001   4.345 -1.1566 -0.2375 -0.3095
  175SAPS  H18Z20011   5.001   0.122   4.353 -0.8085 -3.1516  0.6419
  176SAPS     N20012   4.786   0.030   2.284  0.3230  0.0187 -0.3203
  176SAPS   HN120013   4.758  -0.059   2.330  0.4094 -0.6933 -1.6053
  176SAPS   HN220014   4.889   0.028   2.270  0.6511  1.3884  1.4612
  176SAPS   HN320015   4.762   0.120   2.332 -1.8271 -0.9121  0.4879
  176SAPS   C1220016   4.739   0.022   2.145  0.3725  0.2516  0.4701
  176SAPS  H12A20017   4.636  -0.012   2.147  0.2350  0.6493  0.3136
  176SAPS   C1320018   4.758   0.140   2.052 -0.1618 -0.2230 -0.1223
  176SAPS  O13A20019   4.820   0.239   2.095 -0.0779  0.7399 -0.5448
  176SAPS  O13B20020   4.709   0.136   1.936 -0.0400 -0.7527  0.0627
  176SAPS   C1120021   4.805  -0.103   2.085 -0.2362 -1.1963  0.4970
  176SAPS  H11A20022   4.912  -0.078   2.068 -0.1547 -1.2637  0.9090
  176SAPS  H11B20023   4.759  -0.111   1.984 -1.7716  0.0002  1.0622
  176SAPS     P20024   4.841  -0.355   2.142  0.3163 -0.0552  0.0620
  176SAPS   O1320025   4.785  -0.413   2.017 -0.1042 -0.0612  0.7448
  176SAPS   O1420026   4.982  -0.336   2.156 -0.2212 -0.5072  0.9315
  176SAPS   O1220027   4.777  -0.219   2.168  0.0418 -0.7965 -0.4215
  176SAPS   O1120028   4.786  -0.435   2.264 -0.2087 -0.4290 -0.9345
  176SAPS    C120029   4.650  -0.423   2.301  0.5876 -0.0696 -0.4577
  176SAPS    HA20030   4.586  -0.414   2.211 -1.0519 -0.4502  0.6247
  176SAPS    HB20031   4.620  -0.521   2.343 -2.7678  0.1921 -1.9499
  176SAPS    C220032   4.611  -0.298   2.395  0.5059 -0.1752 -0.7060
  176SAPS    HS20033   4.634  -0.203   2.343  0.9803  0.1055  0.0037
  176SAPS   O2120034   4.690  -0.306   2.520  0.1778 -0.1792  0.4389
  176SAPS   C2120035   4.729  -0.190   2.574  0.4677 -0.1061  0.2189
  176SAPS   O2220036   4.726  -0.079   2.525 -0.2214  0.1621  0.3947
  176SAPS   C2220037   4.773  -0.212   2.723 -0.8876  0.0924  0.3684
  176SAPS   H2R20038   4.761  -0.321   2.743  0.7883 -0.1339  0.3072
  176SAPS   H2S20039   4.884  -0.200   2.719 -0.4235 -3.1568 -0.2315
  176SAPS    C320040   4.463  -0.308   2.439 -0.1357 -0.8274 -0.3536
  176SAPS    HX20041   4.448  -0.384   2.519 -1.6006 -1.0715 -0.8402
  176SAPS    HY20042   4.393  -0.323   2.355 -1.1685  0.8244  0.1664
  176SAPS   O3120043   4.430  -0.190   2.511 -0.2631 -0.4522  0.0362
  176SAPS   C3120044   4.403  -0.068   2.458 -0.6112  0.1027  0.0133
  176SAPS   O3220045   4.420  -0.040   2.338  0.3272  0.1954  0.1879
  176SAPS   C3220046   4.353   0.032   2.559 -0.3691 -0.1164 -0.1141
  176SAPS   H2X20047   4.369  -0.020   2.655 -0.3556  0.0972 -0.0005
  176SAPS   H2Y20048   4.251   0.072   2.536 -1.3210 -1.1224  2.0337
  176SAPS   C2320049   4.722  -0.127   2.835  0.4233  0.7837  0.4777
  176SAPS   H3R20050   4.611  -0.139   2.828  0.6896 -1.3301 -1.8253
  176SAPS   H3S20051   4.771  -0.029   2.823 -0.3791  1.0860 -0.4928
  176SAPS   C2420052   4.760  -0.195   2.969 -0.5384 -0.4497  0.5046
  176SAPS   H4R20053   4.870  -0.206   2.953 -0.1850  0.1489  2.3105
  176SAPS   H4S20054   4.701  -0.289   2.961  2.1292 -2.1074 -1.5416
  176SAPS   C2520055   4.739  -0.099   3.085  0.5186  0.1688  0.1153
  176SAPS   H5R20056   4.751   0.004   3.048 -1.4676 -0.3182 -2.1028
  176SAPS   C2620057   4.715  -0.136   3.215  0.1260 -0.3523  0.0666
  176SAPS   H6R20058   4.700  -0.054   3.287 -0.2710 -0.6631  0.3423
  176SAPS   C2720059   4.690  -0.274   3.273  0.4649  0.3666 -0.5233
  176SAPS   H7R20060   4.663  -0.345   3.192  1.1923 -0.3078 -0.1769
  176SAPS   H7S20061   4.602  -0.271   3.341 -1.2903  0.1329 -2.6660
  176SAPS   C2820062   4.815  -0.325   3.336  0.1559  0.1066 -0.6610
  176SAPS   H8R20063   4.907  -0.343   3.278  1.7499  1.6593  1.2280
  176SAPS   C2920064   4.815  -0.368   3.463  0.0435  1.1676 -0.1656
  176SAPS   H9R20065   4.909  -0.418   3.491 -1.2882 -1.6994 -0.3785
  176SAPS  C21020066   4.706  -0.374   3.566  0.4266  0.2538  1.3385
  176SAPS  H10R20067   4.646  -0.467   3.555 -1.3651  1.6704 -3.3065
  176SAPS  H10S20068   4.628  -0.296   3.552  1.0179  0.6872  0.4187
  176SAPS  C21120069   4.764  -0.374   3.702 -0.2215 -0.5183 -0.1293
  176SAPS  H11R20070   4.797  -0.278   3.744 -2.4353 -0.6956  2.3317
  176SAPS  C21220071   4.780  -0.485   3.776 -0.5256 -0.6817 -0.4158
  176SAPS  H12R20072   4.818  -0.471   3.879 -2.7574  0.0520  0.3616
  176SAPS  C21320073   4.753  -0.629   3.746 -0.2916  0.0459  0.7655
  176SAPS  H13R20074   4.724  -0.642   3.639  3.6480  0.7924 -0.5302
  176SAPS  H13S20075   4.672  -0.662   3.815 -0.8827  2.9755  1.6207
  176SAPS  C21420076   4.878  -0.713   3.759  0.2035 -0.3061 -0.0908
  176SAPS  H14R20077   4.956  -0.660   3.702 -2.1556  2.1921 -1.1725
  176SAPS  C21520078   4.882  -0.838   3.803  0.0104  0.1729 -0.0355
  176SAPS  H15R20079   4.978  -0.891   3.791 -0.5258 -1.1276  1.2086
  176SAPS  C21620080   4.763  -0.921   3.861 -0.5158 -0.3208  0.0228
  176SAPS  H16R20081   4.734  -1.015   3.809 -3.0189  1.6609 -2.4913
  176SAPS  H16S20082   4.667  -0.865   3.847 -1.5463 -1.9312  0.3439
  176SAPS  C21720083   4.767  -0.940   4.013  0.6155 -0.4581 -0.1665
  176SAPS  H17R20084   4.748  -0.839   4.057  0.6791 -0.3974 -0.2786
  176SAPS  H17S20085   4.868  -0.977   4.040  0.3068 -1.8410 -0.8148
  176SAPS  C21820086   4.669  -1.041   4.059  0.2697 -0.1080 -0.6339
  176SAPS  H18R20087   4.693  -1.142   4.019  1.9381  0.0762 -0.1685
  176SAPS  H18S20088   4.569  -1.008   4.023 -0.2877 -0.4069  0.5903
  176SAPS  C21920089   4.643  -1.057   4.213 -0.3033 -0.1820  0.3558
  176SAPS  H19R20090   4.737  -1.094   4.260 -0.1402 -2.7516 -1.7104
  176SAPS  H19S20091   4.558  -1.129   4.223 -0.4294 -0.0284  0.3870
  176SAPS  C22020092   4.618  -0.922   4.290 -0.8157  0.9645 -0.6717
  176SAPS  H20R20093   4.587  -0.937   4.395 -1.0434  0.8388 -0.7546
  176SAPS  H20S20094   4.528  -0.876   4.243  0.0606  2.3451 -1.0620
  176SAPS  H20T20095   4.704  -0.852   4.284  0.1979 -0.1974 -0.1626
  176SAPS   C3320096   4.438   0.165   2.567 -0.2601  0.5376 -0.4233
  176SAPS   H3X20097   4.430   0.214   2.468  0.7144  1.3641 -0.1084
  176SAPS   H3Y20098   4.538   0.128   2.599 -0.3967 -0.8438 -1.5042
  176SAPS   C3420099   4.405   0.263   2.683  0.4313  0.4656 -0.2800
  176SAPS   H4X20100   4.300   0.295   2.664  0.1612 -0.5643 -0.5945
  176SAPS   H4Y20101   4.461   0.359   2.673  1.1958  0.3272  2.1775
  176SAPS   C3520102   4.425   0.187   2.815  0.0882 -0.4794 -0.1757
  176SAPS   H5X20103   4.534   0.171   2.828  0.5277  2.0158 -0.3891
  176SAPS   H5Y20104   4.377   0.087   2.805 -1.2814  0.2988 -1.8911
  176SAPS   C3620105   4.374   0.254   2.946  0.1285 -0.6320  0.4382
  176SAPS   H6X20106   4.268   0.223   2.944 -0.2945  0.5681 -2.7098
  176SAPS   H6Y20107   4.385   0.365   2.947 -0.4727 -0.5227 -1.2778
  176SAPS   C3720108   4.446   0.202   3.067  0.3215 -1.0986  0.1808
  176SAPS   H7X20109   4.555   0.223   3.062  0.2529 -0.2347  1.5322
  176SAPS   H7Y20110   4.432   0.094   3.049  1.6496 -0.9874 -1.8273
  176SAPS   C3820111   4.387   0.237   3.198  0.5148  0.1448 -0.8515
  176SAPS   H8X20112   4.286   0.194   3.213  0.6138  0.8299  2.5479
  176SAPS   H8Y20113   4.376   0.347   3.188 -0.3434 -0.0605 -2.4404
  176SAPS   C3920114   4.479   0.205   3.324  0.1240  0.2862  0.3300
  176SAPS   H9X20115   4.523   0.304   3.345  0.6136 -0.1020  1.1878
  176SAPS   H9Y20116   4.550   0.120   3.310 -0.1126  0.3483 -1.5179
  176SAPS  C31020117   4.392   0.161   3.446  0.1658  0.2666 -0.5233
  176SAPS  H10X20118   4.352   0.058   3.436 -1.0847  0.7630 -0.7736
  176SAPS  H10Y20119   4.300   0.222   3.455 -2.1510 -2.8777 -1.0819
  176SAPS  C31120120   4.464   0.182   3.584  0.6222  0.2632  0.5695
  176SAPS  H11X20121   4.410   0.139   3.672 -1.9770 -1.2009 -1.5976
  176SAPS  H11Y20122   4.464   0.292   3.595 -3.1169  0.4729 -0.4447
  176SAPS  C31220123   4.602   0.119   3.585 -0.5655  0.1133 -0.4960
  176SAPS  H12X20124   4.661   0.152   3.497 -0.5787 -0.4976 -0.7455
  176SAPS  H12Y20125   4.583   0.010   3.568 -0.4297 -0.0623  0.4385
  176SAPS  C31320126   4.667   0.146   3.718  0.1347  0.8155  0.6225
  176SAPS  H13X20127   4.602   0.114   3.802  0.1001 -1.2258 -0.1491
  176SAPS  H13Y20128   4.684   0.256   3.729  0.7333  0.7164  0.7703
  176SAPS  C31420129   4.799   0.072   3.736  0.5240  0.3451 -0.9465
  176SAPS  H14X20130   4.887   0.097   3.672  2.9537  0.0640  2.0131
  176SAPS  H14Y20131   4.779  -0.037   3.724 -1.2204  0.5615 -0.2702
  176SAPS  C31520132   4.858   0.093   3.876  0.4068 -0.0027 -0.2882
  176SAPS  H15X20133   4.886   0.200   3.887 -0.2321  0.0711  0.8696
  176SAPS  H15Y20134   4.946   0.026   3.889 -0.4393 -0.9778  0.5614
  176SAPS  C31620135   4.764   0.046   3.984 -0.1234 -0.8474  0.4034
  176SAPS  H16X20136   4.725  -0.053   3.953  2.1668 -1.2309 -1.5641
  176SAPS  H16Y20137   4.690   0.127   3.999  0.4599 -0.4021  0.9227
  176SAPS  C31720138   4.820   0.035   4.124  0.2456 -0.4969  0.6443
  176SAPS  H17X20139   4.859   0.136   4.149 -0.1861  0.6413 -2.6867
  176SAPS  H17Y20140   4.911  -0.027   4.110  0.5609  0.0232  0.3593
  176SAPS  C31820141   4.732  -0.023   4.237  0.5247  0.3225 -0.7442
  176SAPS  H18X20142   4.784  -0.025   4.335  0.3740  0.0871 -0.6657
  176SAPS  H18Y20143   4.695  -0.126   4.215 -0.2475  0.9637 -2.6571
  176SAPS  H18Z20144   4.640   0.037   4.252  1.4996  1.7553 -0.3362
  177SAPS     N20145   0.965   1.108   2.252  0.3422  0.1528  0.0772
  177SAPS   HN120146   1.061   1.100   2.213  0.4537 -3.1320  0.6976
  177SAPS   HN220147   0.975   1.171   2.334 -1.1143 -0.2493  0.5912
  177SAPS   HN320148   0.928   1.012   2.272 -1.5397  0.9393  0.6125
  177SAPS   C1220149   0.858   1.173   2.160  0.3367 -0.2781  0.0926
  177SAPS  H12A20150   0.881   1.278   2.148 -1.0996  0.3757  2.3992
  177SAPS   C1320151   0.843   1.094   2.027 -0.0047  0.1151 -0.0332
  177SAPS  O13A20152   0.893   0.983   2.012 -0.1986 -0.4154  0.9754
  177SAPS  O13B20153   0.753   1.139   1.952 -0.0829 -1.0232 -0.1218
  177SAPS   C1120154   0.721   1.178   2.234 -0.4308  0.5390 -0.6130
  177SAPS  H11A20155   0.685   1.075   2.256 -0.2058  0.9423  1.9740
  177SAPS  H11B20156   0.641   1.208   2.163 -1.5992 -2.4342 -0.6841
  177SAPS     P20157   0.697   1.410   2.347  0.3017  0.1745 -0.2169
  177SAPS   O1320158   0.754   1.481   2.460  0.4499  0.2304  0.3969
  177SAPS   O1420159   0.728   1.463   2.212 -0.0816 -0.0216  0.4912
  177SAPS   O1220160   0.729   1.250   2.353 -0.0050  0.3298  0.4727
  177SAPS   O1120161   0.543   1.417   2.370  0.6722 -0.1815  0.6726
  177SAPS    C120162   0.473   1.313   2.442 -0.4213 -1.0250  0.3586
  177SAPS    HA20163   0.453   1.228   2.373  0.4394  0.2655 -1.5525
  177SAPS    HB20164   0.535   1.264   2.520  0.6501  1.4616  1.1540
  177SAPS    C220165   0.346   1.366   2.508  0.2557 -0.8908  0.3412
  177SAPS    HS20166   0.291   1.417   2.426  1.2654  0.5388  0.5188
  177SAPS   O2120167   0.376   1.464   2.613 -0.2587 -0.4999  0.4988
  177SAPS   C2120168   0.276   1.558   2.626  0.3753 -0.0440 -0.4221
  177SAPS   O2220169   0.187   1.579   2.545 -0.6225  0.2229 -0.5627
  177SAPS   C2220170   0.313   1.645   2.746 -0.1648  1.0353  0.5757
  177SAPS   H2R20171   0.397   1.600   2.803 -1.1459 -0.4621  0.9033
  177SAPS   H2S20172   0.363   1.737   2.710  0.6953  0.4686  0.2894
  177SAPS    C320173   0.252   1.250   2.558  0.8911 -0.1855  0.0936
  177SAPS    HX20174   0.225   1.188   2.471 -0.2294  0.9569 -0.4162
  177SAPS    HY20175   0.164   1.297   2.608  0.7031  0.9537 -1.2445
  177SAPS   O3120176   0.321   1.153   2.643  0.4751  0.4639  0.1578
  177SAPS   C3120177   0.318   1.185   2.769  0.3500  0.1749 -0.5600
  177SAPS   O3220178   0.260   1.283   2.813 -0.3499 -0.8650  0.4732
  177SAPS   C3220179   0.384   1.080   2.865  0.5810 -0.1212 -0.0586
  177SAPS   H2X20180   0.494   1.097   2.869  0.1811  2.6502  1.9354
  177SAPS   H2Y20181   0.366   0.980   2.821 -0.5043 -0.4549  1.1055
  177SAPS   C2320182   0.190   1.677   2.842 -0.0930  0.3780 -0.7999
  177SAPS   H3R20183   0.169   1.579   2.889  1.6967 -0.3826 -1.4740
  177SAPS   H3S20184   0.101   1.700   2.780  0.8675  2.4441 -1.5178
  177SAPS   C2420185   0.219   1.788   2.940 -0.1073  0.3263 -0.1889
  177SAPS   H4R20186   0.129   1.823   2.995 -1.0903 -2.3886  0.0726
  177SAPS   H4S20187   0.274   1.866   2.883  2.3526 -1.0636  0.1138
  177SAPS   C2520188   0.310   1.751   3.052 -0.0890  0.5671  0.2911
  177SAPS   H5R20189   0.418   1.765   3.036  0.4242 -2.9109 -0.0523
  177SAPS   C2620190   0.276   1.695   3.166  0.1686  0.3167 -0.2079
  177SAPS   H6R20191   0.358   1.664   3.232  0.7695  1.5377 -0.3648
  177SAPS   C2720192   0.137   1.649   3.211 -0.4428 -0.6338 -0.1297
  177SAPS   H7R20193   0.072   1.662   3.122  1.7348 -1.6839 -1.9938
  177SAPS   H7S20194   0.092   1.724   3.279 -1.0738  0.7950 -2.0462
  177SAPS   C2820195   0.121   1.506   3.261  0.6530  0.2714 -0.0776
  177SAPS   H8R20196   0.198   1.436   3.225 -0.8040 -0.4429 -1.9943
  177SAPS   C2920197   0.037   1.453   3.348 -0.1983 -0.4916 -0.7223
  177SAPS   H9R20198   0.046   1.345   3.368  0.3666 -0.3508 -0.1660
  177SAPS  C21020199  -0.067   1.522   3.442 -0.7630 -0.0104 -0.8281
  177SAPS  H10R20200  -0.174   1.497   3.423 -1.0482 -0.3635  1.0902
  177SAPS  H10S20201  -0.061   1.630   3.418 -1.4297 -0.1790 -1.8259
  177SAPS  C21120202  -0.045   1.516   3.591  0.1394 -0.8883  0.2125
  177SAPS  H11R20203  -0.111   1.453   3.652 -0.6201  0.0865  0.4440
  177SAPS  C21220204   0.058   1.576   3.660  0.1507  0.0433  0.4690
  177SAPS  H12R20205   0.055   1.576   3.770  0.0268 -0.3162  0.4694
  177SAPS  C21320206   0.186   1.643   3.601 -0.0029  0.1370 -0.3136
  177SAPS  H13R20207   0.170   1.749   3.572  2.1120  0.8150  0.7608
  177SAPS  H13S20208   0.227   1.589   3.513  0.8907  1.0913 -0.4968
  177SAPS  C21420209   0.304   1.642   3.694  0.3892 -0.1153 -0.6222
  177SAPS  H14R20210   0.371   1.557   3.673  3.0002  1.8038 -0.5351
  177SAPS  C21520211   0.317   1.713   3.807  0.5611 -0.6331 -1.0655
  177SAPS  H15R20212   0.404   1.699   3.873 -0.7466  0.6528  1.0287
  177SAPS  C21620213   0.225   1.824   3.850  0.3206 -0.0468 -0.0682
  177SAPS  H16R20214   0.143   1.841   3.777  0.0420 -1.3720 -0.0855
  177SAPS  H16S20215   0.280   1.917   3.874  0.1523 -0.5668  2.6216
  177SAPS  C21720216   0.146   1.780   3.975  0.1245  0.2724  0.7774
  177SAPS  H17R20217   0.215   1.805   4.058  3.3105 -0.9429 -1.2915
  177SAPS  H17S20218   0.141   1.669   3.976 -2.3727  0.3132  2.1963
  177SAPS  C21820219   0.007   1.844   3.998  0.2063 -0.0729  0.6451
  177SAPS  H18R20220  -0.071   1.809   3.928  1.4667 -2.0553  0.1391
  177SAPS  H18S20221   0.013   1.954   3.984 -2.2030 -0.1618 -1.8019
  177SAPS  C21920222  -0.032   1.824   4.146  0.3334 -0.2735  0.1935
  177SAPS  H19R20223   0.056   1.841   4.212  0.4744 -1.0814  0.2172
  177SAPS  H19S20224  -0.066   1.719   4.153 -1.2659  0.1137 -1.1357
  177SAPS  C22020225  -0.141   1.923   4.187  0.1616  0.8697 -0.2884
  177SAPS  H20R20226  -0.178   1.894   4.287 -4.5915  0.7073 -1.8658
  177SAPS  H20S20227  -0.232   1.912   4.125 -0.0728 -0.2442  0.2358
  177SAPS  H20T20228  -0.106   2.028   4.199  0.6150  0.4954  2.2145
  177SAPS   C3320229   0.325   1.083   3.008 -0.6906 -0.1155  0.0938
  177SAPS   H3X20230   0.215   1.071   3.019 -0.8770  2.6026  2.5873
  177SAPS   H3Y20231   0.331   1.182   3.058 -0.2689 -0.5792  0.9717
  177SAPS   C3420232   0.394   0.981   3.095  0.4932  0.5499 -0.5252
  177SAPS   H4X20233   0.503   1.003   3.103  0.8961 -1.7376  1.2860
  177SAPS   H4Y20234   0.391   0.881   3.048 -2.1920 -0.7030  2.0321
  177SAPS   C3520235   0.339   0.958   3.238  0.2050  0.3597 -0.0660
  177SAPS   H5X20236   0.392   0.868   3.275 -1.7462 -0.5920  0.5351
  177SAPS   H5Y20237   0.231   0.938   3.253  0.4197  0.0252  1.1097
  177SAPS   C3620238   0.371   1.083   3.328 -0.0469 -0.4380 -0.2338
  177SAPS   H6X20239   0.312   1.170   3.292 -0.4359 -0.0791  1.2265
  177SAPS   H6Y20240   0.475   1.113   3.306  0.0206 -1.4578 -1.4585
  177SAPS   C3720241   0.347   1.060   3.475  0.6081  0.5293 -0.1778
  177SAPS   H7X20242   0.428   0.991   3.509  1.2570  1.5660  0.4456
  177SAPS   H7Y20243   0.253   1.005   3.498  1.2526 -0.2442  0.6808
  177SAPS   C3820244   0.355   1.190   3.561  0.2744 -0.9001 -0.0220
  177SAPS   H8X20245   0.275   1.260   3.528 -0.5637 -1.0009  1.6800
  177SAPS   H8Y20246   0.456   1.230   3.535 -0.0570  0.3791  0.5966
  177SAPS   C3920247   0.337   1.157   3.706 -0.1133 -0.7399 -0.8240
  177SAPS   H9X20248   0.433   1.112   3.740  0.4659  1.2136  0.2801
  177SAPS   H9Y20249   0.249   1.091   3.717  0.5042 -1.3272  0.9202
  177SAPS  C31020250   0.332   1.286   3.798 -0.5064  0.4633  0.1861
  177SAPS  H10X20251   0.238   1.342   3.777 -0.3555  0.5953 -0.1421
  177SAPS  H10Y20252   0.419   1.346   3.764  0.4905 -1.6310 -1.1949
  177SAPS  C31120253   0.356   1.245   3.941  0.4392 -0.2434 -0.7215
  177SAPS  H11X20254   0.449   1.183   3.941  1.4371  1.1837 -1.1978
  177SAPS  H11Y20255   0.274   1.179   3.974  2.2576 -2.8762 -1.1035
  177SAPS  C31220256   0.380   1.363   4.038  0.3345 -1.3168 -0.2042
  177SAPS  H12X20257   0.285   1.421   4.045  1.9089  1.2159  2.4574
  177SAPS  H12Y20258   0.461   1.422   3.989  0.6712 -1.9189 -0.3763
  177SAPS  C31320259   0.430   1.333   4.177 -0.3061 -0.0665 -0.4645
  177SAPS  H13X20260   0.351   1.279   4.233 -0.0390 -0.9739 -0.9393
  177SAPS  H13Y20261   0.442   1.427   4.235 -1.7942 -0.1195 -0.0151
  177SAPS  C31420262   0.550   1.242   4.182 -0.6070  0.4904  0.0865
  177SAPS  H14X20263   0.625   1.269   4.105  0.2173  0.5963  0.9179
  177SAPS  H14Y20264   0.517   1.137   4.165 -3.0229  1.3250 -0.9093
  177SAPS  C31520265   0.621   1.268   4.315  0.1079  0.0883 -0.0316
  177SAPS  H15X20266   0.569   1.210   4.395  3.4457 -1.5417  1.1269
  177SAPS  H15Y20267   0.622   1.375   4.344  1.6993  0.0702  0.0832
  177SAPS  C31620268   0.772   1.211   4.322  0.8559 -0.0509  0.2052
  177SAPS  H16X20269   0.828   1.262   4.403  1.1118  0.1316 -0.0836
  177SAPS  H16Y20270   0.820   1.236   4.225  3.3902 -0.6178  1.2433
  177SAPS  C31720271   0.764   1.058   4.339 -0.3718  0.5178  0.0237
  177SAPS  H17X20272   0.695   0.999   4.275 -2.3827 -0.6416  3.0331
  177SAPS  H17Y20273   0.706   1.044   4.433  1.0912 -1.6682  0.6607
  177SAPS  C31820274   0.906   0.997   4.339  0.2393  0.4891 -0.1976
  177SAPS  H18X20275   0.908   0.886   4.341 -1.6840  0.3426 -2.1924
  177SAPS  H18Y20276   0.972   1.040   4.417  1.3424  1.6145 -1.6914
  177SAPS  H18Z20277   0.957   1.023   4.244  1.4283 -2.8236 -0.5856
  178SAPS     N20278   5.171   4.665   2.197 -0.6688  0.2098 -0.2015
  178SAPS   HN120279   5.238   4.688   2.273 -1.6628 -1.2760  1.1829
  178SAPS   HN220280   5.175   4.565   2.168  0.6201  0.5727 -1.4033
  178SAPS   HN320281   5.212   4.711   2.113 -0.2869 -1.1246 -0.7773
  178SAPS   C1220282   5.037   4.698   2.239  1.0262  0.2419  0.8218
  178SAPS  H12A20283   5.030   4.661   2.340 -3.0466 -0.8100  0.3188
  178SAPS   C1320284   5.008   4.847   2.234  0.7430  0.3348  0.8248
  178SAPS  O13A20285   5.081   4.919   2.164  0.0839 -0.0011 -0.0899
  178SAPS  O13B20286   4.898   4.885   2.274 -0.0749  0.2647  0.2051
  178SAPS   C1120287   4.930   4.629   2.140  0.3814 -0.0292  0.4235
  178SAPS  H11A20288   4.935   4.666   2.035 -1.5322 -1.1405 -0.1104
  178SAPS  H11B20289   4.828   4.653   2.179  0.0748 -1.9697  0.8947
  178SAPS     P20290   4.891   4.382   2.242 -0.2644 -0.1095  0.3062
  178SAPS   O1320291   4.748   4.377   2.213  0.2787  0.0540 -0.1549
  178SAPS   O1420292   4.966   4.256   2.217  0.0749 -0.3009  0.0796
  178SAPS   O1220293   4.951   4.484   2.141 -0.2281  0.0418  0.1496
  178SAPS   O1120294   4.922   4.435   2.386  0.7440 -0.0439  0.5477
  178SAPS    C120295   5.037   4.420   2.474  0.9712  1.2954 -0.8090
  178SAPS    HA20296   5.130   4.430   2.414  2.0995 -0.7653  0.4985
  178SAPS    HB20297   5.026   4.486   2.562 -0.8044 -0.3167  0.2603
  178SAPS    C220298   5.048   4.276   2.542 -0.3755 -0.3852 -0.2534
  178SAPS    HS20299   5.050   4.203   2.458  0.4599  0.2309 -0.7874
  178SAPS   O2120300   4.950   4.255   2.649  0.2385 -0.3595 -0.4062
  178SAPS   C2120301   4.873   4.158   2.621  0.0308  0.2946 -0.1142
  178SAPS   O2220302   4.852   4.105   2.511  0.2574  0.3003  0.2612
  178SAPS   C2220303   4.787   4.117   2.739  0.6363 -0.1453  0.3362
  178SAPS   H2R20304   4.683   4.139   2.708  0.4658 -1.6214 -0.1910
  178SAPS   H2S20305   4.792   4.007   2.724 -1.1560 -0.0624 -1.2716
  178SAPS    C320306   5.187   4.277   2.617  0.3194 -0.1370  1.0933
  178SAPS    HX20307   5.176   4.337   2.710 -0.8786  2.4884 -0.6388
  178SAPS    HY20308   5.255   4.328   2.546 -0.2119  0.5487  1.0709
  178SAPS   O3120309   5.224   4.144   2.651  0.0458 -0.6799  0.2308
  178SAPS   C3120310   5.288   4.077   2.553 -0.6118  0.2114  0.6595
  178SAPS   O3220311   5.283   4.108   2.434  0.0544 -0.1079  0.1450
  178SAPS   C3220312   5.359   3.952   2.606  0.4858 -1.4298 -0.0499
  178SAPS   H2X20313   5.467   3.976   2.617 -0.0211  0.6623  0.6960
  178SAPS   H2Y20314   5.359   3.869   2.532  0.6309 -0.5090 -1.1104
  178SAPS   C2320315   4.825   4.169   2.880 -0.0309 -0.2713  0.1384
  178SAPS   H3R20316   4.745   4.149   2.955  0.6167  1.0014  1.1931
  178SAPS   H3S20317   4.818   4.280   2.876  0.0167 -0.2998 -1.5029
  178SAPS   C2420318   4.966   4.126   2.919  0.3320  0.4194 -0.1832
  178SAPS   H4R20319   4.997   4.218   2.974 -1.2951  0.4494  0.7203
  178SAPS   H4S20320   5.036   4.113   2.833  1.9183 -3.1661  1.4155
  178SAPS   C2520321   4.980   4.005   3.003 -1.4739 -0.1582 -0.1198
  178SAPS   H5R20322   5.034   3.920   2.958 -1.6393 -1.6351  2.3012
  178SAPS   C2620323   4.938   3.987   3.131  0.2840  0.0003 -0.0002
  178SAPS   H6R20324   4.965   3.894   3.181  0.2303  0.4180  0.8220
  178SAPS   C2720325   4.861   4.097   3.205 -0.6019 -0.3950  0.2707
  178SAPS   H7R20326   4.756   4.063   3.221 -0.4220 -1.4118 -0.5598
  178SAPS   H7S20327   4.864   4.187   3.141 -0.0489 -0.5515  0.0753
  178SAPS   C2820328   4.941   4.119   3.333 -0.1710  0.5694  0.7904
  178SAPS   H8R20329   5.050   4.116   3.322 -0.2094 -2.8819  0.2573
  178SAPS   C2920330   4.892   4.120   3.456  0.1877  0.6689 -0.2187
  178SAPS   H9R20331   4.959   4.142   3.540  0.3469 -0.6001  0.0051
  178SAPS  C21020332   4.747   4.091   3.496 -0.6262 -0.3569  0.7439
  178SAPS  H10R20333   4.682   4.076   3.407 -1.5246  0.6146  1.2087
  178SAPS  H10S20334   4.708   4.183   3.543  1.5298  0.2328  1.4784
  178SAPS  C21120335   4.737   3.969   3.582  0.5971  0.3576 -0.2380
  178SAPS  H11R20336   4.737   3.880   3.517  0.4978  0.9766 -1.1130
  178SAPS  C21220337   4.740   3.966   3.718 -0.1369 -0.1159 -0.0372
  178SAPS  H12R20338   4.731   3.868   3.767  0.2670 -1.2766 -2.1543
  178SAPS  C21320339   4.758   4.085   3.809 -0.0859 -0.2539  0.0360
  178SAPS  H13R20340   4.713   4.065   3.909  0.8072  2.2808  1.0432
  178SAPS  H13S20341   4.692   4.168   3.775  1.2280  1.3619  1.2775
  178SAPS  C21420342   4.902   4.132   3.840  0.6841 -0.4753  0.2218
  178SAPS  H14R20343   4.978   4.054   3.825  0.1594 -0.9144 -0.1759
  178SAPS  C21520344   4.931   4.261   3.879 -0.5604  1.1086 -0.0248
  178SAPS  H15R20345   5.038   4.277   3.902 -0.1199 -2.6238  1.2903
  178SAPS  C21620346   4.833   4.375   3.872 -0.0136 -0.0433 -0.5843
  178SAPS  H16R20347   4.737   4.356   3.819 -1.3310  0.8155  1.4056
  178SAPS  H16S20348   4.872   4.460   3.812 -0.9728  3.2256  3.0430
  178SAPS  C21720349   4.792   4.425   4.011  0.0476  0.1419  0.9454
  178SAPS  H17R20350   4.766   4.532   4.001 -3.3797 -0.4343  2.3434
  178SAPS  H17S20351   4.873   4.427   4.088 -0.4492  1.4050  1.4675
  178SAPS  C21820352   4.652   4.372   4.054 -0.2236 -0.1240 -0.3034
  178SAPS  H18R20353   4.640   4.265   4.027  0.0449 -0.2112 -0.0805
  178SAPS  H18S20354   4.571   4.424   3.999  0.5359 -0.0865 -1.4158
  178SAPS  C21920355   4.608   4.399   4.204 -0.5363 -0.4783  0.6460
  178SAPS  H19R20356   4.498   4.407   4.214 -0.4545  1.7618  0.2889
  178SAPS  H19S20357   4.646   4.503   4.215  0.0098 -0.4827 -0.9019
  178SAPS  C22020358   4.665   4.299   4.304 -0.6973  0.4898 -0.2464
  178SAPS  H20R20359   4.774   4.297   4.280 -0.5318  1.1780  0.3995
  178SAPS  H20S20360   4.629   4.194   4.295 -0.9599  0.6284 -0.8764
  178SAPS  H20T20361   4.644   4.338   4.406  1.6941 -0.4755  0.6893
  178SAPS   C3320362   5.308   3.903   2.745  0.0931 -0.2288 -0.5394
  178SAPS   H3X20363   5.224   3.836   2.716 -1.3355  0.3663  1.9384
  178SAPS   H3Y20364   5.272   3.994   2.797  1.2134  0.2794 -0.6116
  178SAPS   C3420365   5.408   3.828   2.832 -0.3173  0.7203 -0.5444
  178SAPS   H4X20366   5.501   3.885   2.849  0.7704 -1.1945  0.1991
  178SAPS   H4Y20367   5.443   3.737   2.779  2.1920  1.9366 -1.1239
  178SAPS   C3520368   5.343   3.793   2.966  0.4075 -0.1777 -0.4245
  178SAPS   H5X20369   5.283   3.878   3.005  0.1753  0.2927 -1.7695
  178SAPS   H5Y20370   5.421   3.760   3.038 -0.1728  0.3244  0.4498
  178SAPS   C3620371   5.247   3.679   2.952 -0.0817  0.0349  0.7207
  178SAPS   H6X20372   5.293   3.600   2.889 -1.3644 -0.5897  0.5364
  178SAPS   H6Y20373   5.154   3.714   2.904 -0.9098 -1.2355  1.3462
  178SAPS   C3720374   5.201   3.615   3.082 -0.2397  0.0968 -0.1739
  178SAPS   H7X20375   5.120   3.540   3.068 -0.1705  0.0912 -0.5427
  178SAPS   H7Y20376   5.156   3.697   3.143 -0.1597 -0.4758  0.6779
  178SAPS   C3820377   5.304   3.534   3.157 -0.5699  0.0742 -0.8712
  178SAPS   H8X20378   5.386   3.600   3.190 -1.1241 -0.5552  2.0537
  178SAPS   H8Y20379   5.348   3.446   3.106  0.9886  1.6011 -2.2725
  178SAPS   C3920380   5.257   3.474   3.292 -0.3144  0.5187  0.3786
  178SAPS   H9X20381   5.346   3.424   3.335  0.1614  1.8429  1.0068
  178SAPS   H9Y20382   5.181   3.397   3.269  0.6108 -1.1338  2.5350
  178SAPS  C31020383   5.220   3.572   3.397  0.1262  1.2074 -0.0660
  178SAPS  H10X20384   5.136   3.636   3.363 -0.9177 -0.5062 -0.7784
  178SAPS  H10Y20385   5.309   3.632   3.428  0.8915  1.2693 -2.2452
  178SAPS  C31120386   5.168   3.501   3.527  0.3051 -0.3215  0.2460
  178SAPS  H11X20387   5.077   3.442   3.505  0.7121 -1.3949  1.3051
  178SAPS  H11Y20388   5.130   3.589   3.585 -0.8647 -0.0178 -0.9500
  178SAPS  C31220389   5.279   3.427   3.602 -0.7206 -0.0785  0.1310
  178SAPS  H12X20390   5.373   3.484   3.615  1.0549 -2.7271 -0.1589
  178SAPS  H12Y20391   5.309   3.331   3.555  1.3375  0.4006  0.3699
  178SAPS  C31320392   5.248   3.398   3.751 -0.0722 -0.4175  0.0256
  178SAPS  H13X20393   5.161   3.330   3.757 -1.2059  1.0619  0.9214
  178SAPS  H13Y20394   5.210   3.488   3.804  0.2891 -0.4018  0.2653
  178SAPS  C31420395   5.370   3.352   3.834 -0.0787 -0.6701  0.2772
  178SAPS  H14X20396   5.452   3.427   3.827  3.1945 -3.4719  4.1255
  178SAPS  H14Y20397   5.400   3.254   3.793 -2.0012  0.2883 -3.9694
  178SAPS  C31520398   5.331   3.336   3.978 -0.3945 -0.6641 -0.5773
  178SAPS  H15X20399   5.235   3.282   3.993 -0.5388 -0.8985 -2.0988
  178SAPS  H15Y20400   5.313   3.437   4.020 -0.5791  0.1254 -2.4538
  178SAPS  C31620401   5.432   3.257   4.056  0.0470 -0.9394 -0.4686
  178SAPS  H16X20402   5.522   3.323   4.066 -1.2562  0.9927 -0.9543
  178SAPS  H16Y20403   5.459   3.167   3.998  1.6132 -0.4874 -0.4960
  178SAPS  C31720404   5.378   3.204   4.194  0.6681  0.2040  0.3577
  178SAPS  H17X20405   5.458   3.135   4.229  0.8008  0.7095  1.0594
  178SAPS  H17Y20406   5.295   3.131   4.185  1.7928 -0.9915 -1.0786
  178SAPS  C31820407   5.349   3.313   4.290 -0.4356  0.2895 -0.3240
  178SAPS  H18X20408   5.443   3.360   4.326 -0.6912  0.2109  0.4584
  178SAPS  H18Y20409   5.281   3.279   4.371  0.6817  0.3387  0.6596
  178SAPS  H18Z20410   5.295   3.395   4.238 -0.7897  0.9411  1.0168
  179SAPS     N20411   0.682   0.813   1.894 -0.4300 -0.1998  0.3466
  179SAPS   HN120412   0.728   0.887   1.952 -1.2818  1.3060 -0.8243
  179SAPS   HN220413   0.724   0.720   1.914 -3.4131 -1.3861  1.7109
  179SAPS   HN320414   0.690   0.848   1.797  2.5847  1.1956  0.9893
  179SAPS   C1220415   0.543   0.793   1.927  0.1441  0.2405  0.6994
  179SAPS  H12A20416   0.490   0.868   1.869 -0.7292 -0.9155 -0.0444
  179SAPS   C1320417   0.484   0.658   1.899  0.3728 -0.5294  0.3682
  179SAPS  O13A20418   0.541   0.585   1.809  0.0300 -0.0318  0.1121
  179SAPS  O13B20419   0.370   0.633   1.949 -0.3924  0.0860  0.1573
  179SAPS   C1120420   0.538   0.823   2.084 -0.1226 -0.3447  0.1714
  179SAPS  H11A20421   0.445   0.794   2.138 -0.9015  2.4613  0.4955
  179SAPS  H11B20422   0.544   0.934   2.090 -0.8127 -0.1709 -1.6907
  179SAPS     P20423   0.638   0.662   2.271  0.0091  0.0047 -0.3670
  179SAPS   O1320424   0.578   0.536   2.215  0.5578  0.1837 -0.0345
  179SAPS   O1420425   0.772   0.657   2.338  0.2389 -0.2439  0.1445
  179SAPS   O1220426   0.646   0.770   2.158 -0.2823 -0.5568 -0.8464
  179SAPS   O1120427   0.537   0.718   2.371 -0.2603  0.1196 -0.2239
  179SAPS    C120428   0.558   0.845   2.429  0.0130  0.3995  0.4792
  179SAPS    HA20429   0.665   0.863   2.453  0.5760 -2.3461  0.3738
  179SAPS    HB20430   0.519   0.929   2.367 -2.0480 -0.5655  0.3922
  179SAPS    C220431   0.469   0.842   2.552 -0.2284  0.7583 -0.1638
  179SAPS    HS20432   0.475   0.945   2.593  1.4848  0.5713  0.1442
  179SAPS   O2120433   0.507   0.737   2.647 -0.1020 -0.4661  0.0595
  179SAPS   C2120434   0.615   0.774   2.719 -0.2407 -0.9904 -0.7136
  179SAPS   O2220435   0.673   0.880   2.709 -0.0851 -0.5582  0.0435
  179SAPS   C2220436   0.654   0.675   2.829 -0.0650  0.5055 -0.1313
  179SAPS   H2R20437   0.574   0.601   2.848 -0.6126  0.4548 -2.3415
  179SAPS   H2S20438   0.737   0.612   2.790 -0.3133 -0.9541  1.6175
  179SAPS    C320439   0.324   0.812   2.513  0.9690  0.2843 -0.0979
  179SAPS    HX20440   0.319   0.705   2.485 -0.7869  0.9334 -2.5768
  179SAPS    HY20441   0.309   0.874   2.422 -1.0419  1.0132  0.6623
  179SAPS   O3120442   0.234   0.864   2.620 -0.0462 -0.1420  0.1671
  179SAPS   C3120443   0.126   0.796   2.643  0.5498 -0.2230  0.1455
  179SAPS   O3220444   0.093   0.690   2.586 -0.6106  0.2837 -0.0797
  179SAPS   C3220445   0.032   0.864   2.751 -0.3884 -0.0026 -0.4300
  179SAPS   H2X20446  -0.059   0.887   2.691 -1.2424 -1.4223  0.2681
  179SAPS   H2Y20447   0.075   0.960   2.787 -1.6326  0.9234 -1.2808
  179SAPS   C2320448   0.674   0.766   2.952  0.3291  0.7467 -0.4110
  179SAPS   H3R20449   0.602   0.850   2.965 -1.4367 -0.4993 -1.6272
  179SAPS   H3S20450   0.769   0.818   2.926 -1.1235  2.2744 -3.2659
  179SAPS   C2420451   0.663   0.693   3.081 -0.5138 -0.1187 -0.3355
  179SAPS   H4R20452   0.685   0.772   3.155 -1.0304 -0.3933  0.1187
  179SAPS   H4S20453   0.741   0.615   3.099  0.3752  1.0548  1.0826
  179SAPS   C2520454   0.527   0.633   3.113 -0.9578  0.1753  0.0632
  179SAPS   H5R20455   0.449   0.705   3.083 -0.6128  1.8158  2.7770
  179SAPS   C2620456   0.502   0.519   3.175  0.2559 -0.0471 -0.3724
  179SAPS   H6R20457   0.396   0.492   3.188 -0.0309  1.2620  0.2094
  179SAPS   C2720458   0.608   0.437   3.243  0.5360 -0.2384  0.3635
  179SAPS   H7R20459   0.675   0.484   3.318  0.7754 -2.2280  1.4713
  179SAPS   H7S20460   0.679   0.404   3.165 -0.5361 -2.8539  0.4128
  179SAPS   C2820461   0.547   0.310   3.296 -0.6066 -0.2269 -0.2676
  179SAPS   H8R20462   0.518   0.239   3.217  1.9869 -0.2194 -1.3607
  179SAPS   C2920463   0.507   0.284   3.424 -0.3002 -0.0399  0.3290
  179SAPS   H9R20464   0.479   0.179   3.441  0.3369 -0.5971 -1.7120
  179SAPS  C21020465   0.537   0.378   3.536 -0.9027  0.1295  0.9276
  179SAPS  H10R20466   0.457   0.369   3.612 -1.1721 -0.8436  0.5402
  179SAPS  H10S20467   0.531   0.486   3.509  0.7350  0.1443  0.5173
  179SAPS  C21120468   0.677   0.351   3.588 -0.3637 -0.0153  0.5431
  179SAPS  H11R20469   0.762   0.358   3.518 -0.3232  0.5028  0.6411
  179SAPS  C21220470   0.714   0.316   3.713  0.9608 -0.2357  0.6198
  179SAPS  H12R20471   0.822   0.297   3.724  1.1284 -0.4539 -1.2222
  179SAPS  C21320472   0.615   0.286   3.825 -0.1724 -0.3973 -0.2080
  179SAPS  H13R20473   0.522   0.346   3.821 -0.3978 -0.5971  1.2432
  179SAPS  H13S20474   0.660   0.317   3.922  1.9604 -1.8783 -0.6533
  179SAPS  C21420475   0.577   0.144   3.831  0.1219 -0.0821 -0.5401
  179SAPS  H14R20476   0.591   0.078   3.744  0.0938 -0.6033 -0.1565
  179SAPS  C21520477   0.502   0.087   3.931  0.2709 -0.7787  0.2733
  179SAPS  H15R20478   0.491  -0.022   3.929  0.8405 -0.8562  0.9901
  179SAPS  C21620479   0.442   0.151   4.057 -0.1499 -1.0379  0.4515
  179SAPS  H16R20480   0.524   0.196   4.118  1.4028 -0.7585 -1.7178
  179SAPS  H16S20481   0.391   0.074   4.118  0.6934 -0.7632  1.5351
  179SAPS  C21720482   0.333   0.260   4.037 -0.9571  0.3342 -0.3442
  179SAPS  H17R20483   0.266   0.225   3.956  0.7983 -1.1803 -1.2200
  179SAPS  H17S20484   0.383   0.355   4.008 -1.8802  1.3136  1.1210
  179SAPS  C21820485   0.243   0.281   4.166 -0.0457  0.7427 -0.0794
  179SAPS  H18R20486   0.186   0.187   4.181  1.5599 -0.6405 -1.9989
  179SAPS  H18S20487   0.175   0.368   4.156 -1.9462 -0.1954  3.1717
  179SAPS  C21920488   0.325   0.321   4.288 -0.5186 -0.8174  0.3446
  179SAPS  H19R20489   0.398   0.238   4.299  0.0880 -0.4275 -0.6953
  179SAPS  H19S20490   0.274   0.305   4.386  1.5781 -0.9929  1.4663
  179SAPS  C22020491   0.400   0.453   4.283 -0.3113  0.0250 -0.4604
  179SAPS  H20R20492   0.451   0.464   4.381 -0.7443  2.1544 -0.4273
  179SAPS  H20S20493   0.332   0.541   4.277 -0.0975  0.1974 -0.3514
  179SAPS  H20T20494   0.478   0.450   4.204 -0.1624 -1.4699 -0.2805
  179SAPS   C3320495  -0.025   0.787   2.871  0.0426  0.2026  0.6133
  179SAPS   H3X20496  -0.052   0.688   2.828 -0.4264 -1.0287  3.4970
  179SAPS   H3Y20497  -0.110   0.848   2.908 -0.7347  1.2577 -2.5449
  179SAPS   C3420498   0.085   0.767   2.982  0.2734  0.0919  0.6110
  179SAPS   H4X20499   0.139   0.861   3.006 -1.2354  0.9521  0.8005
  179SAPS   H4Y20500   0.144   0.688   2.930 -1.7459 -0.7164 -0.5849
  179SAPS   C3520501   0.025   0.695   3.101 -0.0937  0.0787  0.2144
  179SAPS   H5X20502  -0.044   0.615   3.068  0.9366 -1.8386  2.4000
  179SAPS   H5Y20503  -0.046   0.760   3.157 -1.4638 -0.8804 -0.3543
  179SAPS   C3620504   0.130   0.631   3.197 -0.8723 -0.1978  0.7130
  179SAPS   H6X20505   0.211   0.706   3.204 -1.6395  0.7629 -0.3082
  179SAPS   H6Y20506   0.167   0.538   3.149 -0.3864 -0.0267  0.7550
  179SAPS   C3720507   0.076   0.609   3.335  0.9966 -0.1161 -0.1572
  179SAPS   H7X20508  -0.005   0.533   3.345 -0.1633  0.7563 -2.2502
  179SAPS   H7Y20509   0.027   0.704   3.364  1.0591  0.5307 -2.0535
  179SAPS   C3820510   0.187   0.569   3.427  0.3639 -0.0268 -0.4331
  179SAPS   H8X20511   0.250   0.661   3.431 -0.4225  0.4991  0.3498
  179SAPS   H8Y20512   0.264   0.502   3.382  1.8352 -0.2258  2.1863
  179SAPS   C3920513   0.144   0.513   3.566  0.0221 -0.4157 -0.0559
  179SAPS   H9X20514   0.237   0.479   3.615  0.3750 -0.0100 -0.4386
  179SAPS   H9Y20515   0.073   0.428   3.557 -1.7394  0.8498  1.1197
  179SAPS  C31020516   0.082   0.625   3.653 -0.0604  0.5518  0.2179
  179SAPS  H10X20517  -0.023   0.646   3.622 -0.4591  0.2981  1.3244
  179SAPS  H10Y20518   0.132   0.724   3.648  0.0157  0.5491  0.8562
  179SAPS  C31120519   0.079   0.582   3.802  0.3925 -0.1532  0.0216
  179SAPS  H11X20520   0.179   0.561   3.845  0.2172  3.1326  2.4019
  179SAPS  H11Y20521   0.021   0.487   3.811  0.0021  0.0843  0.0134
  179SAPS  C31220522   0.011   0.682   3.895 -0.3062 -0.6915 -0.1174
  179SAPS  H12X20523  -0.092   0.687   3.855 -0.3062 -2.9331 -0.4933
  179SAPS  H12Y20524   0.063   0.780   3.884 -2.3079  0.3949 -0.4587
  179SAPS  C31320525   0.019   0.637   4.048 -0.8405  0.0084  0.9894
  179SAPS  H13X20526   0.126   0.630   4.079 -0.3840  0.2009 -0.4837
  179SAPS  H13Y20527  -0.028   0.537   4.047 -1.7066  0.4109  0.4355
  179SAPS  C31420528  -0.060   0.723   4.136 -0.1053 -0.2500  0.2885
  179SAPS  H14X20529  -0.164   0.741   4.100 -0.4232  0.4914  1.5337
  179SAPS  H14Y20530  -0.017   0.825   4.131  0.9534 -0.6672  0.6528
  179SAPS  C31520531  -0.086   0.668   4.278 -0.1643  0.1152 -0.5132
  179SAPS  H15X20532   0.009   0.642   4.329 -1.2248 -0.7334  1.0983
  179SAPS  H15Y20533  -0.138   0.573   4.254  1.2966 -0.5892 -1.0593
  179SAPS  C31620534  -0.161   0.769   4.369 -0.1264 -0.0490 -0.1304
  179SAPS  H16X20535  -0.262   0.784   4.325  0.5131  1.2941 -1.2444
  179SAPS  H16Y20536  -0.109   0.868   4.364  0.6000 -0.4511 -0.7124
  179SAPS  C31720537  -0.179   0.720   4.512  0.0522 -0.8334 -0.2253
  179SAPS  H17X20538  -0.242   0.792   4.570  0.3898 -1.4164  0.8981
  179SAPS  H17Y20539  -0.082   0.702   4.563 -0.3186 -0.7800  0.5221
  179SAPS  C31820540  -0.261   0.586   4.513 -0.3243 -0.1429 -0.1241
  179SAPS  H18X20541  -0.364   0.611   4.479 -0.5988 -1.1690 -0.0783
  179SAPS  H18Y20542  -0.263   0.547   4.617  1.0044 -1.8534 -0.6999
  179SAPS  H18Z20543  -0.228   0.504   4.445  2.0488 -1.6331  2.6071
  180SAPS     N20544   0.607   0.382   1.993 -0.5934 -0.1001  0.4766
  180SAPS   HN120545   0.600   0.432   2.084  0.2678  2.8557 -0.9467
  180SAPS   HN220546   0.592   0.457   1.923  0.1360  2.0837  2.5308
  180SAPS   HN320547   0.540   0.304   1.983  0.8621 -1.1068 -2.7722
  180SAPS   C1220548   0.749   0.349   1.972  0.0932 -0.6035  0.1628
  180SAPS  H12A20549   0.758   0.290   1.882 -0.3060  0.0176 -0.2892
  180SAPS   C1320550   0.840   0.468   1.935 -0.3796  0.4382 -0.5194
  180SAPS  O13A20551   0.805   0.587   1.949 -0.8136  0.0098  0.5271
  180SAPS  O13B20552   0.958   0.440   1.912  0.0841  0.2941  0.3561
  180SAPS   C1120553   0.797   0.265   2.097  0.4337 -0.7780 -0.3386
  180SAPS  H11A20554   0.778   0.342   2.174  1.7702  0.5572 -1.2851
  180SAPS  H11B20555   0.908   0.253   2.096  0.7191  1.4534 -1.2041
  180SAPS     P20556   0.736   0.063   2.243 -0.1368  0.3008 -0.1504
  180SAPS   O1320557   0.642  -0.050   2.244 -0.1966  0.1515  0.1200
  180SAPS   O1420558   0.876   0.028   2.257  0.3625 -0.2796  0.9143
  180SAPS   O1220559   0.705   0.155   2.116 -0.3882 -0.0876  0.2848
  180SAPS   O1120560   0.705   0.151   2.372 -0.3025  0.4142 -0.6874
  180SAPS    C120561   0.613   0.254   2.375 -0.5225  0.4414  0.0778
  180SAPS    HA20562   0.681   0.342   2.373  0.8923 -0.4350  3.2147
  180SAPS    HB20563   0.550   0.269   2.285  0.5163  0.0360 -0.7355
  180SAPS    C220564   0.537   0.261   2.512  0.4964  0.0875  0.0602
  180SAPS    HS20565   0.617   0.276   2.588  0.3770  1.2837 -0.0179
  180SAPS   O2120566   0.455   0.144   2.518  0.0104 -1.4021 -0.1069
  180SAPS   C2120567   0.458   0.075   2.625  0.2132 -0.1131  0.0933
  180SAPS   O2220568   0.529   0.100   2.722  0.1209 -0.3440 -0.0556
  180SAPS   C2220569   0.352  -0.034   2.615  0.4004  0.2580 -0.4533
  180SAPS   H2R20570   0.251   0.011   2.603 -0.1695 -0.6890  0.6366
  180SAPS   H2S20571   0.372  -0.093   2.523 -0.1951  1.8722 -1.6757
  180SAPS    C320572   0.445   0.384   2.519  0.5935  0.9636  0.7529
  180SAPS    HX20573   0.365   0.380   2.441  2.2262 -0.8980 -0.9344
  180SAPS    HY20574   0.507   0.474   2.497  0.4632  0.6027 -1.3616
  180SAPS   O3120575   0.383   0.402   2.649 -0.1532  0.2575 -0.0945
  180SAPS   C3120576   0.256   0.372   2.669  0.0328 -0.8529  0.6441
  180SAPS   O3220577   0.175   0.337   2.586  0.6326  0.2104  0.6819
  180SAPS   C3220578   0.229   0.391   2.819 -0.2462  0.0218  0.2620
  180SAPS   H2X20579   0.130   0.438   2.838 -0.5378 -1.3870  2.6076
  180SAPS   H2Y20580   0.312   0.451   2.861  0.4551  0.1991 -1.2862
  180SAPS   C2320581   0.349  -0.125   2.737 -0.2739 -0.0509 -0.1592
  180SAPS   H3R20582   0.327  -0.073   2.832  0.6471 -0.4641  0.2925
  180SAPS   H3S20583   0.452  -0.166   2.744 -0.0036  0.7797  1.0556
  180SAPS   C2420584   0.243  -0.232   2.726  0.3059  0.4971 -0.4157
  180SAPS   H4R20585   0.265  -0.302   2.810  1.3280  0.8507 -0.3757
  180SAPS   H4S20586   0.257  -0.283   2.629 -0.3334  1.6901 -1.1516
  180SAPS   C2520587   0.108  -0.168   2.737  0.7873 -0.4506  0.0577
  180SAPS   H5R20588   0.079  -0.113   2.646  1.1935  0.4513  0.4635
  180SAPS   C2620589   0.017  -0.169   2.839  0.4951  0.5234 -0.1424
  180SAPS   H6R20590  -0.075  -0.109   2.837 -0.6806 -1.1335  1.5607
  180SAPS   C2720591   0.034  -0.234   2.973 -0.4161 -0.4396 -0.4659
  180SAPS   H7R20592  -0.013  -0.182   3.059 -0.9988 -4.5121  1.8803
  180SAPS   H7S20593   0.143  -0.234   2.996 -0.2485 -1.0020 -1.2360
  180SAPS   C2820594  -0.027  -0.370   2.980  0.2540  0.3462  0.0600
  180SAPS   H8R20595  -0.062  -0.397   2.879  0.3691  0.9441 -0.1405
  180SAPS   C2920596  -0.029  -0.460   3.080 -0.2732 -0.1535 -0.0438
  180SAPS   H9R20597  -0.087  -0.550   3.058 -1.7578  1.1772 -1.9128
  180SAPS  C21020598   0.036  -0.445   3.216  0.6006 -0.3372  0.2285
  180SAPS  H10R20599   0.087  -0.346   3.219 -2.3791  1.2951  2.5787
  180SAPS  H10S20600   0.116  -0.521   3.227  1.8531  0.8156 -0.4825
  180SAPS  C21120601  -0.065  -0.449   3.321  0.1475 -0.1402 -0.6842
  180SAPS  H11R20602  -0.166  -0.411   3.302  0.2138  1.4309  1.6487
  180SAPS  C21220603  -0.039  -0.490   3.449  0.3321 -0.0673 -0.2978
  180SAPS  H12R20604  -0.116  -0.479   3.527 -1.2652  2.6203 -2.0554
  180SAPS  C21320605   0.093  -0.544   3.500  0.5149  0.0983  0.2631
  180SAPS  H13R20606   0.106  -0.514   3.606 -0.3958  0.9501  0.1489
  180SAPS  H13S20607   0.174  -0.497   3.441 -1.2874  1.7014 -1.0532
  180SAPS  C21420608   0.128  -0.686   3.479  0.0868  0.1380  0.1261
  180SAPS  H14R20609   0.117  -0.715   3.373  0.3253  0.5724 -0.0180
  180SAPS  C21520610   0.183  -0.760   3.578  0.5419  0.4522  0.6367
  180SAPS  H15R20611   0.206  -0.866   3.555  4.0361  1.0638  0.6828
  180SAPS  C21620612   0.218  -0.726   3.717 -0.1194  0.3307 -0.1420
  180SAPS  H16R20613   0.171  -0.806   3.778 -2.9363  0.9451 -1.3492
  180SAPS  H16S20614   0.163  -0.637   3.755  1.4808  1.6648 -0.8204
  180SAPS  C21720615   0.359  -0.684   3.743  0.9158  0.6090 -0.0457
  180SAPS  H17R20616   0.365  -0.582   3.700 -1.4700  1.7949  2.0984
  180SAPS  H17S20617   0.426  -0.760   3.698 -0.3932 -1.6078  1.5636
  180SAPS  C21820618   0.398  -0.673   3.898 -0.3570 -0.1886 -0.1952
  180SAPS  H18R20619   0.505  -0.643   3.904 -1.0137  2.1692  1.3286
  180SAPS  H18S20620   0.379  -0.771   3.946  0.7161  0.3811  1.4912
  180SAPS  C21920621   0.318  -0.572   3.975  0.4805  0.1433 -0.1801
  180SAPS  H19R20622   0.211  -0.604   3.980 -0.1520  2.1659  0.0574
  180SAPS  H19S20623   0.313  -0.468   3.936 -0.4377  0.3120  0.3441
  180SAPS  C22020624   0.343  -0.546   4.126  0.3203  0.1143 -0.3476
  180SAPS  H20R20625   0.338  -0.641   4.183  1.1804 -1.1115 -2.2147
  180SAPS  H20S20626   0.444  -0.500   4.137 -0.7593  3.3168 -2.6178
  180SAPS  H20T20627   0.267  -0.475   4.165  0.0786 -0.2739 -0.1109
  180SAPS   C3320628   0.207   0.256   2.891  0.1162 -0.4960 -0.1308
  180SAPS   H3X20629   0.288   0.180   2.883  1.8648  1.0881  1.5902
  180SAPS   H3Y20630   0.116   0.202   2.857 -0.5530  0.0163  0.7966
  180SAPS   C3420631   0.179   0.272   3.043  0.1000 -0.1101 -0.1800
  180SAPS   H4X20632   0.104   0.350   3.066 -0.0218 -0.3329  0.1882
  180SAPS   H4Y20633   0.271   0.318   3.087 -0.9988  0.7184  1.3361
  180SAPS   C3520634   0.166   0.131   3.107 -1.3441  0.4915 -0.9085
  180SAPS   H5X20635   0.258   0.073   3.086 -0.5276  1.6838 -0.7205
  180SAPS   H5Y20636   0.082   0.063   3.082 -1.0366 -0.6830  1.0158
  180SAPS   C3620637   0.165   0.138   3.259  0.1095 -0.0786 -0.1354
  180SAPS   H6X20638   0.081   0.197   3.304  1.0684 -0.0846  1.7891
  180SAPS   H6Y20639   0.256   0.197   3.285 -0.2228  1.3951 -2.0772
  180SAPS   C3720640   0.168   0.004   3.336 -0.1356  0.6848 -0.6321
  180SAPS   H7X20641   0.261  -0.050   3.307 -0.4533  1.3102 -3.1055
  180SAPS   H7Y20642   0.076  -0.053   3.310  0.9239 -0.7510 -1.3918
  180SAPS   C3820643   0.170   0.027   3.488  0.4055 -0.2588 -0.4470
  180SAPS   H8X20644   0.088   0.096   3.518 -0.5425 -0.9481 -1.3941
  180SAPS   H8Y20645   0.259   0.089   3.512  0.0337  0.5215 -1.0220
  180SAPS   C3920646   0.160  -0.106   3.570 -0.6061  0.5737  0.0665
  180SAPS   H9X20647   0.239  -0.178   3.539 -0.1655  0.1296  2.0333
  180SAPS   H9Y20648   0.068  -0.153   3.531  1.2041 -2.6940 -0.6577
  180SAPS  C31020649   0.177  -0.099   3.723  0.3524  0.2747  0.3387
  180SAPS  H10X20650   0.092  -0.038   3.759  1.0929  0.6833  1.4488
  180SAPS  H10Y20651   0.271  -0.045   3.748 -0.6360  2.0708  0.2944
  180SAPS  C31120652   0.152  -0.236   3.793  0.2999  0.2087 -0.1202
  180SAPS  H11X20653   0.205  -0.319   3.741 -1.9729 -0.8160 -0.9386
  180SAPS  H11Y20654   0.046  -0.256   3.766 -1.2546  0.7676  4.6354
  180SAPS  C31220655   0.178  -0.237   3.942  0.1861  0.2266  0.2512
  180SAPS  H12X20656   0.286  -0.225   3.961  0.1655  1.1889 -0.1970
  180SAPS  H12Y20657   0.146  -0.333   3.990  1.7602 -0.1747  0.5403
  180SAPS  C31320658   0.095  -0.126   4.013  0.4677 -0.1080 -1.0071
  180SAPS  H13X20659  -0.005  -0.127   3.963  0.1300 -0.5779 -0.3295
  180SAPS  H13Y20660   0.137  -0.026   3.989 -0.2722  0.2558 -0.7936
  180SAPS  C31420661   0.069  -0.158   4.160 -0.2119 -0.1759 -0.2931
  180SAPS  H14X20662   0.031  -0.262   4.159 -1.8095  0.3870 -0.3743
  180SAPS  H14Y20663  -0.014  -0.094   4.195  0.1681  0.6777 -0.9063
  180SAPS  C31520664   0.192  -0.141   4.252 -0.9226 -0.1714 -0.2929
  180SAPS  H15X20665   0.226  -0.040   4.284 -0.4912 -0.9836  2.0100
  180SAPS  H15Y20666   0.280  -0.195   4.210  0.1087  2.1106 -1.2506
  180SAPS  C31620667   0.173  -0.205   4.391 -0.0769 -0.3255 -0.0618
  180SAPS  H16X20668   0.144  -0.309   4.364  0.8270 -0.7388  0.5049
  180SAPS  H16Y20669   0.081  -0.172   4.444  0.8849  2.3005  0.1291
  180SAPS  C31720670   0.304  -0.211   4.476  0.3438  0.0315 -0.0765
  180SAPS  H17X20671   0.356  -0.295   4.425  1.5926  0.8454 -0.1829
  180SAPS  H17Y20672   0.271  -0.230   4.580 -0.5550  0.1803 -0.3183
  180SAPS  C31820673   0.404  -0.091   4.470 -0.3765  0.6850  0.2212
  180SAPS  H18X20674   0.373  -0.019   4.548  0.1279  1.6829 -0.4740
  180SAPS  H18Y20675   0.408  -0.040   4.371  0.0572 -0.4397 -0.3644
  180SAPS  H18Z20676   0.509  -0.111   4.501 -0.2523 -1.5483 -1.3970
  181POPC     N20677   5.763   6.309   7.013  0.9020  0.1824  0.0140
  181POPC   C1220678   5.844   6.264   6.888 -0.1517  0.3460 -0.7269
  181POPC  H12A20679   5.855   6.156   6.890 -1.2107  0.2142  2.0596
  181POPC  H12B20680   5.947   6.286   6.912 -0.5252  1.2670  0.0895
  181POPC   C1320681   5.779   6.450   7.044 -0.1956 -0.3153 -0.2667
  181POPC  H13A20682   5.715   6.473   7.128  0.0162  0.0808 -0.2086
  181POPC  H13B20683   5.883   6.471   7.063  0.0312 -2.0481  0.5389
  181POPC  H13C20684   5.737   6.504   6.960 -1.0714 -2.3267 -1.1705
  181POPC   C1420685   5.620   6.276   6.988 -0.5987 -0.7389 -0.2307
  181POPC  H14A20686   5.546   6.282   7.066 -2.4613 -0.0053 -1.9572
  181POPC  H14B20687   5.569   6.337   6.915 -1.3027 -0.2339  0.6655
  181POPC  H14C20688   5.609   6.172   6.961 -0.3061 -0.9835  0.5573
  181POPC   C1520689   5.813   6.224   7.129 -0.1714  0.4533  0.5254
  181POPC  H15A20690   5.760   6.254   7.218 -1.7837  1.3567 -0.6943
  181POPC  H15B20691   5.920   6.237   7.139 -0.2391  1.7813 -0.2791
  181POPC  H15C20692   5.803   6.118   7.111  0.4189  0.2486  1.3548
  181POPC   C1120693   5.816   6.325   6.751  0.2971 -0.1519 -0.8894
  181POPC  H11A20694   5.706   6.330   6.736  0.1895  2.4906  0.1592
  181POPC  H11B20695   5.873   6.273   6.670 -0.2759  0.7674 -1.9063
  181POPC     P20696   5.990   6.525   6.741 -0.3423  0.0752 -0.1262
  181POPC   O1320697   6.077   6.427   6.806 -0.1096 -0.2511  0.8612
  181POPC   O1420698   5.996   6.667   6.784  0.0542  0.2499 -0.6488
  181POPC   O1220699   5.844   6.464   6.756 -0.0457 -0.1685  0.3749
  181POPC   O1120700   6.024   6.524   6.592 -0.4783  0.0200 -0.3671
  181POPC    C120701   5.935   6.534   6.478  0.4687 -0.7272 -0.0770
  181POPC    HA20702   5.830   6.556   6.505  0.6163 -0.1966  0.0695
  181POPC    HB20703   5.923   6.433   6.433 -0.0185 -1.1662  1.0125
  181POPC    C220704   5.998   6.635   6.378  0.2447 -0.6464 -0.2379
  181POPC    HS20705   5.914   6.673   6.317  2.3143 -1.3323 -3.8163
  181POPC   O2120706   6.094   6.579   6.291  0.5027  0.5410  0.0352
  181POPC   C2120707   6.050   6.516   6.174 -0.4773 -0.4935 -0.2162
  181POPC   O2220708   5.940   6.482   6.152  0.2799 -0.2948 -0.3713
  181POPC   C2220709   6.174   6.478   6.094  0.1368 -0.2502  0.9528
  181POPC   H2R20710   6.220   6.390   6.142  2.9600  0.5435 -0.1135
  181POPC   H2S20711   6.242   6.565   6.079 -1.6641  0.8511 -1.6568
  181POPC    C320712   6.062   6.756   6.450  0.0059  0.2815 -0.3836
  181POPC    HX20713   6.144   6.707   6.506 -1.2121  0.4320  1.6264
  181POPC    HY20714   5.984   6.789   6.522  2.1653 -0.9730  2.7029
  181POPC   O3120715   6.110   6.854   6.351  0.5612 -0.1704 -0.0676
  181POPC   C3120716   6.021   6.947   6.312  0.0979 -0.3813 -0.5977
  181POPC   O3220717   5.908   6.957   6.360  0.1646  0.0425 -0.5396
  181POPC   C3220718   6.079   7.041   6.207 -0.6174 -0.3273  0.7063
  181POPC   H2X20719   6.161   7.099   6.255  0.8119 -2.1665  0.6119
  181POPC   H2Y20720   5.993   7.099   6.167 -0.6270 -0.9867 -0.2534
  181POPC   C2320721   6.124   6.432   5.952 -0.3803 -0.2964 -0.0793
  181POPC   H3R20722   6.036   6.491   5.919  0.6570  2.3007  1.4133
  181POPC   H3S20723   6.096   6.325   5.961  0.5783 -0.6398 -0.9338
  181POPC   C2420724   6.238   6.435   5.846 -0.2143  0.0173  0.2171
  181POPC   H4R20725   6.319   6.371   5.887 -1.9373 -2.1437  0.5115
  181POPC   H4S20726   6.289   6.532   5.833  2.2049 -1.4388 -2.1582
  181POPC   C2520727   6.201   6.374   5.706 -0.1081  0.0527  0.6111
  181POPC   H5R20728   6.137   6.284   5.720  0.8440 -0.6525  0.5498
  181POPC   H5S20729   6.293   6.343   5.651 -0.5895  1.6277 -1.2005
  181POPC   C2620730   6.121   6.471   5.614 -0.5733 -0.0255 -0.9212
  181POPC   H6R20731   6.179   6.551   5.564  0.3417 -0.1660 -0.1053
  181POPC   H6S20732   6.044   6.521   5.676 -1.2472 -0.9920 -0.9500
  181POPC   C2720733   6.034   6.399   5.513 -0.3071  0.1599  0.6926
  181POPC   H7R20734   5.978   6.481   5.463 -0.1791  1.5439  2.6727
  181POPC   H7S20735   5.959   6.325   5.547  1.0918 -1.3983  0.5119
  181POPC   C2820736   6.112   6.326   5.401  0.1091  0.2628 -0.6851
  181POPC   H8R20737   6.033   6.292   5.330 -0.6615 -0.2795  0.4001
  181POPC   H8S20738   6.149   6.242   5.463  0.1807 -1.5579 -3.0523
  181POPC   C2920739   6.231   6.392   5.345  0.3910 -0.5626 -0.1765
  181POPC   H9120740   6.300   6.436   5.418  0.0176  0.5253 -0.4646
  181POPC  C21020741   6.257   6.403   5.211  0.5715 -0.1268 -0.9639
  181POPC  H10120742   6.345   6.461   5.179 -1.3419  2.5897 -1.6497
  181POPC  C21120743   6.155   6.376   5.099 -0.5722  0.3359 -0.1516
  181POPC  H11R20744   6.056   6.394   5.146 -0.0694 -2.7975  2.4765
  181POPC  H11S20745   6.160   6.268   5.074 -0.9024  0.5082 -0.9719
  181POPC  C21220746   6.168   6.453   4.973 -0.1649 -0.6042  0.3384
  181POPC  H12R20747   6.139   6.559   4.988  0.5564 -0.1878 -1.0520
  181POPC  H12S20748   6.093   6.413   4.901 -0.2139 -0.4023  0.2747
  181POPC  C21320749   6.297   6.435   4.900 -0.2380  0.7470 -0.2379
  181POPC  H13R20750   6.338   6.332   4.895 -1.4509  0.2932 -1.6321
  181POPC  H13S20751   6.369   6.499   4.956 -0.0778  1.5320 -1.3117
  181POPC  C21420752   6.275   6.481   4.752 -0.1067 -0.2494 -0.1571
  181POPC  H14R20753   6.193   6.555   4.745  0.0444 -0.2241 -2.8781
  181POPC  H14S20754   6.232   6.401   4.688 -2.4715  0.7169  0.1374
  181POPC  C21520755   6.399   6.533   4.686  0.4957  0.2417  0.2394
  181POPC  H15R20756   6.482   6.460   4.699  1.0158  0.9587  1.0499
  181POPC  H15S20757   6.437   6.621   4.741 -0.7344  1.0361 -0.1388
  181POPC  C21620758   6.390   6.574   4.540 -0.1927 -0.7352 -0.9283
  181POPC  H16R20759   6.313   6.654   4.534 -0.1399 -0.6997 -1.1650
  181POPC  H16S20760   6.368   6.490   4.470  0.9167 -1.5869 -0.2817
  181POPC  C21720761   6.513   6.650   4.488 -0.2728  0.0548 -0.3972
  181POPC  H17R20762   6.604   6.588   4.503  0.6255  1.3476 -0.3666
  181POPC  H17S20763   6.517   6.744   4.547 -2.3982  0.3066 -0.5854
  181POPC  C21820764   6.514   6.703   4.350  0.0797  0.2942  0.2585
  181POPC  H18R20765   6.425   6.768   4.333 -1.3160 -1.4444  0.5902
  181POPC  H18S20766   6.507   6.614   4.283 -1.1770 -0.4217  1.2859
  181POPC  H18T20767   6.605   6.764   4.334 -0.7085  1.2415 -0.6889
  181POPC   C3320768   6.133   6.971   6.076 -0.1836  0.9039 -0.0536
  181POPC   H3X20769   6.221   6.907   6.097  1.1286  1.9442 -2.0404
  181POPC   H3Y20770   6.179   7.049   6.012  1.1896  1.1734  1.1990
  181POPC   C3420771   6.035   6.891   5.995  0.4087 -0.7101 -0.9445
  181POPC   H4X20772   5.952   6.961   5.968 -0.0992 -1.0762 -0.3580
  181POPC   H4Y20773   5.980   6.825   6.065  1.2925 -0.3838  0.0756
  181POPC   C3520774   6.087   6.816   5.876  1.1290  0.1368  0.4334
  181POPC   H5X20775   6.015   6.733   5.860 -0.8796  1.5391  1.8446
  181POPC   H5Y20776   6.179   6.756   5.891  1.7862  1.4325  1.8762
  181POPC   C3620777   6.102   6.913   5.754 -0.0347  1.0761  0.3347
  181POPC   H6X20778   6.181   6.992   5.760 -0.0500  1.0923  0.3226
  181POPC   H6Y20779   6.004   6.964   5.761  0.1033  1.2254  1.3678
  181POPC   C3720780   6.127   6.835   5.624 -0.4837  0.0694 -0.3954
  181POPC   H7X20781   6.042   6.766   5.606  0.8684 -1.2349 -2.2594
  181POPC   H7Y20782   6.218   6.773   5.631 -0.8341 -0.5648 -1.2442
  181POPC   C3820783   6.155   6.928   5.509 -0.2090  0.0972  0.2446
  181POPC   H8X20784   6.259   6.966   5.514 -0.1154 -0.0254 -0.5991
  181POPC   H8Y20785   6.090   7.019   5.507  1.1870  1.2119  2.3459
  181POPC   C3920786   6.140   6.861   5.372  0.0685  0.4551 -0.3950
  181POPC   H9X20787   6.032   6.843   5.351  0.0817  0.8994 -0.8886
  181POPC   H9Y20788   6.182   6.759   5.385 -0.0701  0.2425 -1.4995
  181POPC  C31020789   6.213   6.919   5.249 -0.7289 -0.0664  0.3600
  181POPC  H10X20790   6.319   6.886   5.250 -0.8991 -0.6512  1.8331
  181POPC  H10Y20791   6.200   7.029   5.244  2.5228  0.3578 -1.3466
  181POPC  C31120792   6.168   6.846   5.127  0.3408  0.5623  0.7655
  181POPC  H11X20793   6.070   6.892   5.102 -0.6356 -2.2718 -1.0752
  181POPC  H11Y20794   6.160   6.738   5.148  0.2997  0.3246 -0.4033
  181POPC  C31220795   6.261   6.853   4.999  0.3451  0.1964  0.2191
  181POPC  H12X20796   6.262   6.752   4.953  0.8526  1.2780 -2.3184
  181POPC  H12Y20797   6.364   6.872   5.037  0.5637  0.6777 -0.5854
  181POPC  C31320798   6.224   6.968   4.902  0.2367 -0.0295 -0.4633
  181POPC  H13X20799   6.241   7.058   4.964 -0.6811 -0.3183  0.2228
  181POPC  H13Y20800   6.115   6.970   4.881 -0.4618 -0.9767  2.6003
  181POPC  C31420801   6.321   6.973   4.786 -0.2545  0.8274 -0.5044
  181POPC  H14X20802   6.290   6.896   4.713  0.8232 -1.0877  0.9895
  181POPC  H14Y20803   6.426   6.955   4.816 -0.6284  1.4727  1.3708
  181POPC  C31520804   6.331   7.102   4.710 -0.5137 -0.2271 -0.1529
  181POPC  H15X20805   6.232   7.133   4.670 -0.1471 -0.3467 -1.1646
  181POPC  H15Y20806   6.387   7.101   4.615 -0.3336 -1.5026 -0.0561
  181POPC  C31620807   6.401   7.216   4.793  0.0712 -0.8901 -0.6492
  181POPC  H16X20808   6.410   7.304   4.726 -2.4393  0.4762  0.6573
  181POPC  H16Y20809   6.506   7.200   4.825 -0.1601  0.6763  1.0649
  181POPC  H16Z20810   6.343   7.250   4.881 -2.0319 -0.4696 -2.1310
  182POPC     N20811   2.291   6.006   6.683 -0.1369  0.2417 -0.3385
  182POPC   C1220812   2.442   5.947   6.687  0.4205  0.1797  0.6059
  182POPC  H12A20813   2.486   5.956   6.588 -0.9787  0.5607 -0.0025
  182POPC  H12B20814   2.439   5.842   6.710  0.4079 -0.0368 -0.3295
  182POPC   C1320815   2.217   5.932   6.792  0.3634  0.7833 -0.4491
  182POPC  H13A20816   2.114   5.961   6.803  0.6863  1.9608 -0.4286
  182POPC  H13B20817   2.225   5.825   6.775 -0.4788  0.5294  0.6469
  182POPC  H13C20818   2.269   5.946   6.886  1.1876 -0.6193 -0.6626
  182POPC   C1420819   2.283   6.149   6.707  0.2759  0.0696 -0.2327
  182POPC  H14A20820   2.298   6.214   6.622 -0.2158  0.6341  0.1033
  182POPC  H14B20821   2.192   6.179   6.756 -1.5422 -2.3247 -1.9272
  182POPC  H14C20822   2.364   6.171   6.775 -0.9000  1.0394  0.9166
  182POPC   C1520823   2.231   5.973   6.550  0.4085 -0.1527  0.0606
  182POPC  H15A20824   2.125   5.994   6.542 -0.8820 -4.1781  2.9933
  182POPC  H15B20825   2.234   5.866   6.536 -0.8204 -0.0412 -1.3175
  182POPC  H15C20826   2.284   6.019   6.468 -1.2123 -0.6861 -1.3460
  182POPC   C1120827   2.539   6.012   6.786 -0.2464 -0.5417 -0.0779
  182POPC  H11A20828   2.626   5.944   6.786  0.6182  0.5340 -0.9249
  182POPC  H11B20829   2.504   6.019   6.892 -2.8974 -1.2182 -0.8331
  182POPC     P20830   2.702   6.171   6.668 -0.0686 -0.1271 -0.3651
  182POPC   O1320831   2.806   6.167   6.772 -1.1206  0.1500  0.2596
  182POPC   O1420832   2.682   6.292   6.586  0.2509 -0.0956  0.7862
  182POPC   O1220833   2.569   6.141   6.743  0.2029 -0.3605 -0.2717
  182POPC   O1120834   2.720   6.046   6.581 -0.0970 -0.7619  0.2880
  182POPC    C120835   2.851   6.035   6.515  0.9337  0.0202 -0.5001
  182POPC    HA20836   2.918   5.960   6.562  0.8475  0.2080 -0.0787
  182POPC    HB20837   2.910   6.129   6.511  1.1026 -0.0640 -0.0310
  182POPC    C220838   2.830   5.971   6.377 -0.0261  0.2881  0.5630
  182POPC    HS20839   2.928   5.947   6.330 -1.3474 -0.9578 -1.7239
  182POPC   O2120840   2.760   6.061   6.290 -0.1799  0.3170  0.2133
  182POPC   C2120841   2.808   6.174   6.255  0.4415  0.0158 -0.1100
  182POPC   O2220842   2.920   6.215   6.273  0.2946  0.0493  0.2796
  182POPC   C2220843   2.695   6.257   6.187  0.5020 -0.0071  0.2897
  182POPC   H2R20844   2.724   6.364   6.185  1.9338 -0.2984  1.9862
  182POPC   H2S20845   2.608   6.257   6.257  0.8359 -0.4384  0.7195
  182POPC    C320846   2.763   5.831   6.388 -0.2326  0.2004  0.0575
  182POPC    HX20847   2.673   5.845   6.452 -0.1345  2.3481 -0.1938
  182POPC    HY20848   2.835   5.765   6.440 -0.7653 -0.7147 -0.3392
  182POPC   O3120849   2.726   5.786   6.260 -0.5886  0.6364 -0.0312
  182POPC   C3120850   2.598   5.822   6.224 -0.6358 -0.8184  0.2827
  182POPC   O3220851   2.520   5.879   6.297  0.6525  0.0110  0.6724
  182POPC   C3220852   2.573   5.792   6.083  0.0939  0.1101  0.0428
  182POPC   H2X20853   2.650   5.723   6.043  0.1637  0.0539  0.2755
  182POPC   H2Y20854   2.601   5.882   6.024 -2.0568  1.1687  0.5337
  182POPC   C2320855   2.643   6.200   6.053  0.1692 -0.3679 -0.1705
  182POPC   H3R20856   2.532   6.209   6.051  0.3083  2.8827  0.9202
  182POPC   H3S20857   2.670   6.092   6.052  1.2800 -0.1169  0.5505
  182POPC   C2420858   2.719   6.256   5.926 -0.5164 -0.0847  0.3358
  182POPC   H4R20859   2.827   6.245   5.950 -0.1535 -1.7844 -1.7548
  182POPC   H4S20860   2.697   6.365   5.923  0.0406  0.0234 -1.8488
  182POPC   C2520861   2.695   6.184   5.793 -0.1276 -0.2145 -0.4395
  182POPC   H5R20862   2.729   6.079   5.810  2.7711  0.5193 -1.2483
  182POPC   H5S20863   2.766   6.214   5.714  1.6394 -0.1073  1.1088
  182POPC   C2620864   2.552   6.193   5.748 -0.4977 -0.0349  0.9920
  182POPC   H6R20865   2.519   6.293   5.712  0.3550 -0.3937 -0.9456
  182POPC   H6S20866   2.488   6.163   5.833 -1.2679  1.0353  0.8047
  182POPC   C2720867   2.516   6.095   5.634 -0.5401 -0.2486 -0.1666
  182POPC   H7R20868   2.539   5.990   5.661 -2.1904 -0.4962  0.3567
  182POPC   H7S20869   2.574   6.118   5.542  2.6365 -0.1944  1.6986
  182POPC   C2820870   2.372   6.113   5.594  0.8604  0.7225 -0.0226
  182POPC   H8R20871   2.368   6.068   5.492  0.2391  1.2405 -0.2381
  182POPC   H8S20872   2.345   6.220   5.581 -2.7259 -0.0184  0.1692
  182POPC   C2920873   2.263   6.055   5.679 -0.1706  0.2574 -0.1778
  182POPC   H9120874   2.230   6.119   5.762  0.3316  0.6933 -0.3084
  182POPC  C21020875   2.183   5.948   5.655 -0.3883  0.4081 -0.3026
  182POPC  H10120876   2.102   5.932   5.727 -0.5937  1.9927 -0.1408
  182POPC  C21120877   2.187   5.850   5.546 -0.1655  0.4324 -0.3780
  182POPC  H11R20878   2.205   5.749   5.588  0.8491 -0.0775 -1.9462
  182POPC  H11S20879   2.281   5.859   5.486  0.0168  0.8389 -0.0404
  182POPC  C21220880   2.079   5.860   5.434 -0.5506  0.6643 -0.4320
  182POPC  H12R20881   1.983   5.878   5.486 -0.4937  2.9756 -1.0257
  182POPC  H12S20882   2.074   5.766   5.375  1.6838  0.0079  0.3264
  182POPC  C21320883   2.102   5.968   5.331 -0.1847 -0.1021 -0.3445
  182POPC  H13R20884   2.208   5.961   5.299 -0.4532  0.9510 -1.5690
  182POPC  H13S20885   2.086   6.069   5.374  1.8200  0.3327 -0.5319
  182POPC  C21420886   2.016   5.967   5.208  0.2490  0.7153 -0.0246
  182POPC  H14R20887   1.912   5.974   5.248 -0.3351 -1.0441 -1.1344
  182POPC  H14S20888   2.015   5.867   5.160  0.9998  1.5366 -1.8468
  182POPC  C21520889   2.028   6.074   5.109 -0.5190  0.1179  0.5589
  182POPC  H15R20890   2.012   6.178   5.143  0.9777  0.3000  0.7960
  182POPC  H15S20891   1.954   6.053   5.029 -0.8024  0.9124  0.6093
  182POPC  C21620892   2.169   6.088   5.045 -0.6213 -0.2488 -0.4731
  182POPC  H16R20893   2.231   6.114   5.133  0.9466 -2.2308 -0.9261
  182POPC  H16S20894   2.170   6.170   4.970  1.6592 -1.8059 -2.3048
  182POPC  C21720895   2.230   5.962   4.986  0.1552 -0.0556  0.4837
  182POPC  H17R20896   2.218   5.869   5.045  0.2534 -0.2040  0.2696
  182POPC  H17S20897   2.340   5.977   4.983  0.5607 -2.0852  2.6498
  182POPC  C21820898   2.193   5.941   4.834 -0.7222 -0.7853  0.7221
  182POPC  H18R20899   2.181   6.042   4.790  1.3066  0.3154  2.4792
  182POPC  H18S20900   2.093   5.897   4.816 -0.6209 -0.8451  0.3049
  182POPC  H18T20901   2.275   5.888   4.780 -1.3387 -0.5011 -0.5276
  182POPC   C3320902   2.426   5.749   6.055 -0.1982 -0.2528  0.1043
  182POPC   H3X20903   2.360   5.838   6.065  1.9666  1.3276  1.2391
  182POPC   H3Y20904   2.400   5.675   6.133 -1.1740 -0.2871 -0.2501
  182POPC   C3420905   2.393   5.694   5.912 -0.3668  0.5706 -0.5990
  182POPC   H4X20906   2.422   5.775   5.842  0.6115  1.1672  0.4536
  182POPC   H4Y20907   2.284   5.681   5.898 -0.0911  0.1634 -2.6449
  182POPC   C3520908   2.465   5.559   5.876  0.6984 -0.7335 -0.4707
  182POPC   H5X20909   2.417   5.476   5.932  0.8364  0.4970  1.5831
  182POPC   H5Y20910   2.567   5.569   5.918 -0.3857 -2.4360  2.9640
  182POPC   C3620911   2.463   5.538   5.727  0.4288 -0.6443 -0.4084
  182POPC   H6X20912   2.522   5.622   5.685  1.8372  0.1304  2.8122
  182POPC   H6Y20913   2.353   5.538   5.708 -0.4785 -1.0060  3.7864
  182POPC   C3720914   2.524   5.409   5.679 -0.1730 -0.2644 -0.3376
  182POPC   H7X20915   2.479   5.320   5.727  0.1707 -1.6384 -2.4434
  182POPC   H7Y20916   2.633   5.413   5.696 -0.2564  0.5889  0.0972
  182POPC   C3820917   2.503   5.392   5.526  0.1688  0.7037 -0.2082
  182POPC   H8X20918   2.395   5.405   5.503 -0.4478 -1.7340  0.9509
  182POPC   H8Y20919   2.524   5.285   5.505 -0.4009  0.7937 -1.3169
  182POPC   C3920920   2.598   5.467   5.423 -0.5217 -0.1516 -0.1101
  182POPC   H9X20921   2.693   5.409   5.425 -0.7278 -0.4830  1.6018
  182POPC   H9Y20922   2.632   5.567   5.460  0.8208 -0.5016 -0.3442
  182POPC  C31020923   2.546   5.483   5.283 -0.4549 -0.4989  0.0618
  182POPC  H10X20924   2.446   5.532   5.286 -1.0210 -1.4523 -1.6915
  182POPC  H10Y20925   2.543   5.386   5.229  0.9228  0.6039 -2.1555
  182POPC  C31120926   2.632   5.573   5.196 -0.0931  0.0641 -0.2220
  182POPC  H11X20927   2.730   5.522   5.191 -1.3522 -2.3235 -3.4934
  182POPC  H11Y20928   2.645   5.664   5.259 -2.2550  2.1452 -2.5605
  182POPC  C31220929   2.589   5.609   5.057 -0.4282  0.3333 -0.2015
  182POPC  H12X20930   2.670   5.663   5.004  0.1774  0.8128  1.1679
  182POPC  H12Y20931   2.498   5.674   5.060 -2.3878 -2.2431 -0.2492
  182POPC  C31320932   2.545   5.494   4.960  0.1007 -0.2933  0.0867
  182POPC  H13X20933   2.451   5.445   4.995 -1.0986  0.9468 -1.2444
  182POPC  H13Y20934   2.630   5.424   4.952 -0.0199 -0.2424 -2.5862
  182POPC  C31420935   2.523   5.532   4.810 -0.1692 -0.2745 -0.4510
  182POPC  H14X20936   2.618   5.576   4.771  0.9737 -0.9878  1.3828
  182POPC  H14Y20937   2.434   5.597   4.801 -1.0032 -1.3762 -0.4292
  182POPC  C31520938   2.502   5.408   4.721 -0.2085 -0.0241 -0.5373
  182POPC  H15X20939   2.408   5.361   4.757  1.4592  0.6256  5.8138
  182POPC  H15Y20940   2.596   5.352   4.741 -0.5062  0.2393  1.8005
  182POPC  C31620941   2.494   5.444   4.571  0.7989  0.4640 -0.2701
  182POPC  H16X20942   2.574   5.512   4.536  2.8906 -1.9692 -0.5284
  182POPC  H16Y20943   2.399   5.484   4.531  0.0873  1.2448  2.0173
  182POPC  H16Z20944   2.511   5.352   4.511 -2.0653  0.5870 -1.4346
  183POPC     N20945   4.107   3.460   6.842  0.1733  0.2675 -0.5882
  183POPC   C1220946   4.189   3.374   6.754 -0.1931 -0.2400  0.4721
  183POPC  H12A20947   4.125   3.290   6.732  0.4269 -0.2176 -1.7445
  183POPC  H12B20948   4.274   3.340   6.811 -0.0402  0.5217  0.7012
  183POPC   C1320949   4.195   3.544   6.926 -0.6888  0.8342 -0.5468
  183POPC  H13A20950   4.249   3.597   6.850 -1.2437 -0.7870 -2.1464
  183POPC  H13B20951   4.146   3.625   6.979  1.0321  1.9211 -0.5360
  183POPC  H13C20952   4.265   3.488   6.987  0.1095  2.0103 -0.3608
  183POPC   C1420953   4.017   3.544   6.766  0.5335 -0.1428  0.9243
  183POPC  H14A20954   3.937   3.484   6.726 -0.5731  1.6436  0.3502
  183POPC  H14B20955   3.984   3.621   6.835  0.1527  0.1908  0.3781
  183POPC  H14C20956   4.052   3.608   6.686 -1.4329  1.7022  1.4298
  183POPC   C1520957   4.021   3.378   6.931 -0.2033 -0.1273 -0.0405
  183POPC  H15A20958   3.968   3.443   6.999  1.7861  1.0763  0.4446
  183POPC  H15B20959   4.081   3.307   6.986  1.0399  0.3036 -0.7932
  183POPC  H15C20960   3.947   3.335   6.867  0.4224  1.0528 -1.6244
  183POPC   C1120961   4.235   3.420   6.616  0.5204 -0.3200 -0.4898
  183POPC  H11A20962   4.139   3.426   6.560 -0.8339 -0.2709  1.7253
  183POPC  H11B20963   4.295   3.346   6.559  0.6458 -0.9863  0.4765
  183POPC     P20964   4.457   3.555   6.648 -0.1926 -0.1456  0.4298
  183POPC   O1320965   4.500   3.458   6.755  0.2760 -0.3787 -0.1681
  183POPC   O1420966   4.490   3.696   6.673  0.4995  0.0643  0.1218
  183POPC   O1220967   4.297   3.552   6.619  0.7477  0.2426 -0.7657
  183POPC   O1120968   4.517   3.510   6.508 -0.5515  0.3116  0.7249
  183POPC    C120969   4.455   3.527   6.383 -0.2374 -0.4521 -0.4302
  183POPC    HA20970   4.419   3.631   6.372  2.0443  0.4576  0.1755
  183POPC    HB20971   4.369   3.458   6.365 -3.3594  3.0347 -0.1652
  183POPC    C220972   4.561   3.501   6.277 -0.6157  0.3869  0.7061
  183POPC    HS20973   4.642   3.573   6.303 -0.1315  0.8470 -1.8271
  183POPC   O2120974   4.505   3.527   6.146 -0.0889  0.2498  0.2414
  183POPC   C2120975   4.594   3.579   6.061 -0.0188  0.7942  0.8058
  183POPC   O2220976   4.711   3.599   6.087  0.2696  0.5646  0.1508
  183POPC   C2220977   4.523   3.593   5.930  0.4579 -0.6404  0.6711
  183POPC   H2R20978   4.433   3.659   5.937 -0.5960 -1.5157 -2.8088
  183POPC   H2S20979   4.489   3.493   5.897 -1.8330  0.7407 -1.5016
  183POPC    C320980   4.610   3.357   6.280  1.0317  0.1116 -0.9223
  183POPC    HX20981   4.521   3.295   6.254  1.1000  0.5102 -2.1249
  183POPC    HY20982   4.632   3.340   6.388 -0.0288  0.0868 -0.6986
  183POPC   O3120983   4.721   3.328   6.191 -0.2022  0.4960 -0.2844
  183POPC   C3120984   4.721   3.208   6.137 -1.5466  0.3122  0.5631
  183POPC   O3220985   4.647   3.116   6.163 -0.3791  0.3478 -0.0768
  183POPC   C3220986   4.851   3.190   6.053 -0.1352  0.4199  0.4822
  183POPC   H2X20987   4.921   3.129   6.115 -1.2559  1.0520  2.4549
  183POPC   H2Y20988   4.903   3.287   6.040  1.0435 -0.1684  0.6486
  183POPC   C2320989   4.620   3.661   5.829 -0.2471  0.4351 -0.4978
  183POPC   H3R20990   4.716   3.605   5.832 -0.8853 -0.6401  1.2996
  183POPC   H3S20991   4.631   3.767   5.861 -1.8426  0.3891  0.3115
  183POPC   C2420992   4.570   3.657   5.689  0.4247 -0.3443 -0.5368
  183POPC   H4R20993   4.485   3.729   5.683 -0.4316 -1.3337 -0.5655
  183POPC   H4S20994   4.526   3.561   5.654 -1.1161  0.4907 -1.0088
  183POPC   C2520995   4.677   3.713   5.594  0.0418 -0.0552 -0.4653
  183POPC   H5R20996   4.769   3.652   5.595 -1.0270 -1.7573 -1.6958
  183POPC   H5S20997   4.704   3.811   5.640 -1.0406 -0.2551  0.6684
  183POPC   C2620998   4.622   3.743   5.455 -0.1279  0.2779  0.7215
  183POPC   H6R20999   4.534   3.808   5.477 -0.4278 -0.1985  0.9620
  183POPC   H6S21000   4.589   3.646   5.413  2.5266 -0.3684 -0.0639
  183POPC   C2721001   4.727   3.793   5.359  0.0945  0.9361 -0.5038
  183POPC   H7R21002   4.793   3.709   5.329 -0.2948 -0.4041  2.0437
  183POPC   H7S21003   4.797   3.861   5.410 -0.2308  0.0752  1.1760
  183POPC   C2821004   4.666   3.850   5.230  0.0655  0.2726 -1.0641
  183POPC   H8R21005   4.591   3.928   5.257 -1.1282 -1.2061  0.0780
  183POPC   H8S21006   4.616   3.771   5.170  1.4070  0.0565 -1.9441
  183POPC   C2921007   4.773   3.930   5.152  0.4874  0.9433 -0.3925
  183POPC   H9121008   4.816   4.006   5.220  0.0038 -0.6989  1.8351
  183POPC  C21021009   4.834   3.894   5.043 -0.5274  1.0049  0.2940
  183POPC  H10121010   4.909   3.964   5.003  0.6733 -0.7287 -0.5982
  183POPC  C21121011   4.798   3.781   4.952  0.0008 -0.1931 -0.1663
  183POPC  H11R21012   4.761   3.692   5.008  0.1973 -0.9568 -1.2326
  183POPC  H11S21013   4.885   3.742   4.896  2.1088  1.9496  1.4449
  183POPC  C21221014   4.700   3.835   4.844  0.5770  0.3314 -0.5968
  183POPC  H12R21015   4.675   3.741   4.789  1.3630 -0.0461 -0.3171
  183POPC  H12S21016   4.753   3.897   4.768 -0.5325 -1.5028 -2.9993
  183POPC  C21321017   4.569   3.897   4.896 -0.6498  0.9285 -0.5013
  183POPC  H13R21018   4.598   3.979   4.965 -2.2104 -1.0285  2.7053
  183POPC  H13S21019   4.513   3.829   4.963  1.0609  1.2081  1.3038
  183POPC  C21421020   4.483   3.951   4.784 -0.2229  0.0956  0.5262
  183POPC  H14R21021   4.451   3.875   4.710 -1.7845  1.5107 -0.3116
  183POPC  H14S21022   4.542   4.017   4.717 -2.1545  0.7573 -0.5927
  183POPC  C21521023   4.362   4.026   4.832 -0.5375 -0.0632 -0.0614
  183POPC  H15R21024   4.396   4.118   4.885 -3.1757  1.8606 -1.4886
  183POPC  H15S21025   4.306   3.967   4.907  1.6670 -1.1762  0.8167
  183POPC  C21621026   4.257   4.070   4.724  0.5526  0.6152  0.0698
  183POPC  H16R21027   4.294   4.145   4.650 -0.5040  1.0219 -0.0729
  183POPC  H16S21028   4.190   4.128   4.791  0.4029 -1.6705  2.0052
  183POPC  C21721029   4.193   3.955   4.643 -0.1872  0.1435  0.3147
  183POPC  H17R21030   4.278   3.916   4.584 -0.2104 -0.5283  0.7140
  183POPC  H17S21031   4.112   3.991   4.576 -1.7328 -2.9645  0.3217
  183POPC  C21821032   4.138   3.846   4.734  0.6276 -0.6090  0.3700
  183POPC  H18R21033   4.084   3.880   4.824 -1.0985 -1.5113 -0.2807
  183POPC  H18S21034   4.221   3.790   4.782  0.8814 -1.2281 -0.7417
  183POPC  H18T21035   4.072   3.771   4.685 -0.4310 -3.1861  5.1915
  183POPC   C3321036   4.832   3.119   5.921 -0.3946  0.4124  0.1292
  183POPC   H3X21037   4.785   3.019   5.929 -0.3549  0.4132  0.4054
  183POPC   H3Y21038   4.924   3.114   5.858 -0.2723 -2.8464  0.4249
  183POPC   C3421039   4.731   3.196   5.835 -0.3237  0.3160 -0.3617
  183POPC   H4X21040   4.764   3.302   5.826 -0.2666  0.1956 -1.7861
  183POPC   H4Y21041   4.628   3.187   5.876  0.2008  0.6107  1.0820
  183POPC   C3521042   4.720   3.151   5.694 -0.0082 -0.7111 -0.2915
  183POPC   H5X21043   4.700   3.042   5.697  1.6775 -1.1038 -1.5836
  183POPC   H5Y21044   4.819   3.172   5.649  0.0816  0.9260  0.6074
  183POPC   C3621045   4.601   3.223   5.616  0.2005  1.0791  0.1548
  183POPC   H6X21046   4.591   3.331   5.640  0.1535  1.0243  0.3846
  183POPC   H6Y21047   4.510   3.168   5.648  0.9551  0.9790  2.2889
  183POPC   C3721048   4.616   3.204   5.461 -0.4222 -0.4994 -0.0170
  183POPC   H7X21049   4.521   3.228   5.410 -1.5769 -0.9261  1.8550
  183POPC   H7Y21050   4.647   3.100   5.438  2.2065  0.2686 -0.3259
  183POPC   C3821051   4.726   3.295   5.403  0.0712  0.3076  0.1904
  183POPC   H8X21052   4.822   3.259   5.446 -0.7652 -2.3731  0.0379
  183POPC   H8Y21053   4.708   3.401   5.431  2.1482  0.4756  1.0911
  183POPC   C3921054   4.724   3.267   5.257  0.4908  0.4699 -0.4663
  183POPC   H9X21055   4.625   3.284   5.209  0.2862 -1.5245 -0.8303
  183POPC   H9Y21056   4.743   3.158   5.247 -1.6009  0.1100 -1.0638
  183POPC  C31021057   4.818   3.355   5.170  0.0495  0.2695  0.1527
  183POPC  H10X21058   4.918   3.337   5.215  0.6451 -2.3832 -1.9760
  183POPC  H10Y21059   4.800   3.465   5.174 -0.5952  0.1653  0.3099
  183POPC  C31121060   4.829   3.309   5.025  0.3689  0.4899 -0.4291
  183POPC  H11X21061   4.751   3.366   4.971 -0.8667  0.5342  1.3069
  183POPC  H11Y21062   4.788   3.206   5.019 -1.3846  1.0940  0.5470
  183POPC  C31221063   4.965   3.323   4.960  0.0919  0.8270  0.1715
  183POPC  H12X21064   5.037   3.248   5.000  0.5816  1.5285  0.6343
  183POPC  H12Y21065   5.011   3.419   4.990  1.6423 -0.2356  1.3783
  183POPC  C31321066   4.964   3.321   4.808  0.3369 -0.0255 -0.7771
  183POPC  H13X21067   4.891   3.394   4.766 -1.3273 -1.7750 -1.0410
  183POPC  H13Y21068   4.933   3.218   4.779 -1.1102 -0.5856  2.2553
  183POPC  C31421069   5.109   3.361   4.758  0.4791  0.3970 -0.1921
  183POPC  H14X21070   5.181   3.289   4.803 -1.2427 -1.1258  0.2478
  183POPC  H14Y21071   5.124   3.462   4.802  0.0408 -0.3820  1.9020
  183POPC  C31521072   5.115   3.371   4.603 -0.6389 -0.3924 -0.2985
  183POPC  H15X21073   5.113   3.273   4.551  0.6275 -1.1590  1.0390
  183POPC  H15Y21074   5.212   3.423   4.585 -0.7187  0.9674  2.5979
  183POPC  C31621075   5.011   3.463   4.540  0.2394  0.0057 -0.4220
  183POPC  H16X21076   5.033   3.512   4.443 -1.0612  0.3011 -0.5899
  183POPC  H16Y21077   4.976   3.547   4.604 -0.0725 -0.5569  0.1683
  183POPC  H16Z21078   4.929   3.391   4.516 -2.1473  2.3413  0.2166
  184POPC     N21079   4.658   4.795   7.060  0.4017 -0.1733  0.9734
  184POPC   C1221080   4.647   4.859   6.922 -0.5768 -0.3051 -0.3839
  184POPC  H12A21081   4.623   4.964   6.928  2.3513  0.6063 -2.2642
  184POPC  H12B21082   4.571   4.805   6.867 -0.6213  0.5793 -1.2132
  184POPC   C1321083   4.783   4.842   7.121  0.6067 -0.1384 -0.3515
  184POPC  H13A21084   4.819   4.778   7.200 -0.4004  0.4026  0.5811
  184POPC  H13B21085   4.852   4.854   7.039  0.1235 -2.6872 -1.2196
  184POPC  H13C21086   4.765   4.942   7.158 -1.4705  0.1452 -1.9784
  184POPC   C1421087   4.536   4.829   7.143 -0.0107  0.4947 -0.7651
  184POPC  H14A21088   4.451   4.791   7.087  2.1543 -0.3328 -3.7442
  184POPC  H14B21089   4.555   4.782   7.239  2.7565  0.7306 -1.1058
  184POPC  H14C21090   4.529   4.935   7.163 -0.1934  0.3725 -0.1398
  184POPC   C1521091   4.667   4.642   7.051  0.4969  0.2346  0.0925
  184POPC  H15A21092   4.760   4.615   7.003  0.1597  1.3720 -1.2732
  184POPC  H15B21093   4.584   4.595   6.999 -3.1122  4.3465  1.5714
  184POPC  H15C21094   4.670   4.592   7.146 -1.0740 -0.7026 -0.3050
  184POPC   C1121095   4.770   4.865   6.827  0.1608 -0.7204  0.0011
  184POPC  H11A21096   4.830   4.943   6.879 -1.1061  1.1747 -1.2292
  184POPC  H11B21097   4.742   4.905   6.727  0.0018 -0.4744  0.1428
  184POPC     P21098   4.997   4.752   6.789  0.3193  0.0635 -0.5548
  184POPC   O1321099   5.062   4.636   6.850 -0.4176 -0.2248 -0.4744
  184POPC   O1421100   5.047   4.880   6.840 -0.2214  0.1094 -0.7996
  184POPC   O1221101   4.841   4.738   6.807 -0.3430 -0.1062 -0.0301
  184POPC   O1121102   4.998   4.736   6.629  0.3021 -0.1687 -0.2773
  184POPC    C121103   4.936   4.626   6.555 -0.2369  0.0803 -0.3617
  184POPC    HA21104   4.858   4.670   6.490 -1.8634  1.6834  2.4653
  184POPC    HB21105   4.890   4.556   6.628 -0.5325 -0.3627 -0.9697
  184POPC    C221106   5.029   4.551   6.466 -0.2127 -0.3159  0.0062
  184POPC    HS21107   5.108   4.496   6.521  2.3028  0.8435 -2.2508
  184POPC   O2121108   5.083   4.655   6.375  0.2272 -0.1188  0.5788
  184POPC   C2121109   5.206   4.624   6.333  0.3350 -0.4193  0.2846
  184POPC   O2221110   5.265   4.521   6.359 -0.2588 -0.1469  0.0099
  184POPC   C2221111   5.256   4.721   6.232 -0.5183  0.4094  0.4148
  184POPC   H2R21112   5.352   4.684   6.189 -0.4825  0.6466  0.2869
  184POPC   H2S21113   5.258   4.820   6.282  0.4685  0.8311 -0.4365
  184POPC    C321114   4.948   4.443   6.379  0.1339  0.1762 -0.4168
  184POPC    HX21115   4.892   4.505   6.306 -0.1914  1.6823  1.0484
  184POPC    HY21116   4.875   4.387   6.442 -0.8305  0.2031 -1.4807
  184POPC   O3121117   5.032   4.350   6.315 -0.9810 -0.4670 -0.4164
  184POPC   C3121118   5.076   4.243   6.379  0.0349 -0.1053 -0.1414
  184POPC   O3221119   5.045   4.218   6.495  0.2892  0.5973 -0.2867
  184POPC   C3221120   5.188   4.168   6.298 -0.2612  0.1347 -0.1199
  184POPC   H2X21121   5.151   4.063   6.289 -0.4860 -0.0975  2.6463
  184POPC   H2Y21122   5.271   4.165   6.372  0.0741 -2.5830 -0.4761
  184POPC   C2321123   5.166   4.729   6.111 -0.7185 -0.4720 -0.5576
  184POPC   H3R21124   5.150   4.833   6.077 -1.3243 -0.2727  0.3064
  184POPC   H3S21125   5.061   4.702   6.137 -0.7328  0.2564  0.1971
  184POPC   C2421126   5.200   4.636   5.997 -0.1905  0.0152  0.6497
  184POPC   H4R21127   5.215   4.535   6.041  1.4747  0.2431  0.6823
  184POPC   H4S21128   5.289   4.665   5.937 -2.8318  1.0803 -3.0576
  184POPC   C2521129   5.084   4.634   5.892  0.2110 -0.2690 -0.2163
  184POPC   H5R21130   5.094   4.721   5.824  0.1035  1.0488  1.3976
  184POPC   H5S21131   4.986   4.646   5.944  0.5591  1.6471  0.0348
  184POPC   C2621132   5.078   4.502   5.810  0.5121  0.1950 -0.6901
  184POPC   H6R21133   5.036   4.418   5.869 -1.1350  1.7918  0.5262
  184POPC   H6S21134   5.175   4.461   5.775  0.9674  0.7306 -0.0544
  184POPC   C2721135   4.991   4.512   5.679  0.0388 -0.2392  0.0915
  184POPC   H7R21136   5.029   4.598   5.619  0.1598  0.1404  0.7051
  184POPC   H7S21137   4.894   4.556   5.713  0.3050  2.2601 -2.0841
  184POPC   C2821138   4.978   4.376   5.609  0.2780 -0.6961 -0.3084
  184POPC   H8R21139   4.918   4.320   5.684  1.5609  0.4759  1.6922
  184POPC   H8S21140   5.078   4.329   5.600  0.0150 -2.4929  3.7972
  184POPC   C2921141   4.905   4.387   5.479 -1.0915 -0.4831  0.1197
  184POPC   H9121142   4.964   4.457   5.417  0.4994 -0.1837  1.9010
  184POPC  C21021143   4.801   4.308   5.435  0.1611 -0.2320  0.6410
  184POPC  H10121144   4.759   4.327   5.335 -1.7284 -3.2008  0.7433
  184POPC  C21121145   4.718   4.200   5.511 -0.0526  0.2151 -0.2970
  184POPC  H11R21146   4.767   4.185   5.610  0.2213  0.9789 -0.3076
  184POPC  H11S21147   4.699   4.109   5.451 -2.1704  2.0194 -2.5644
  184POPC  C21221148   4.587   4.270   5.550 -0.8682 -0.8448  0.5390
  184POPC  H12R21149   4.522   4.309   5.469 -0.4618  1.0150  1.0580
  184POPC  H12S21150   4.615   4.364   5.604 -0.0451 -1.0078  0.3991
  184POPC  C21321151   4.500   4.197   5.657  0.6554 -0.0921 -0.8264
  184POPC  H13R21152   4.422   4.269   5.688 -0.8332 -1.9033 -0.1708
  184POPC  H13S21153   4.579   4.178   5.733 -0.6527  0.5188  0.7197
  184POPC  C21421154   4.444   4.065   5.612  0.7532  0.0660  0.2095
  184POPC  H14R21155   4.532   4.000   5.591 -0.3557 -0.6896 -2.5584
  184POPC  H14S21156   4.410   4.087   5.509  3.6659  0.6023 -0.7256
  184POPC  C21521157   4.337   4.015   5.711 -0.0576  0.7299  0.8658
  184POPC  H15R21158   4.290   3.920   5.677  1.6975  0.6351 -1.5021
  184POPC  H15S21159   4.264   4.098   5.712  0.0722  0.9893 -2.3405
  184POPC  C21621160   4.397   3.987   5.851  0.0134  0.4886 -0.1265
  184POPC  H16R21161   4.450   4.078   5.886 -0.2905  0.8383 -0.5867
  184POPC  H16S21162   4.459   3.895   5.852  1.0532  1.1426  1.9186
  184POPC  C21721163   4.280   3.973   5.948 -0.2227 -0.1765  0.5041
  184POPC  H17R21164   4.241   3.875   5.915 -0.2088  0.4238 -1.4314
  184POPC  H17S21165   4.200   4.049   5.942 -1.7241 -1.7852 -0.5582
  184POPC  C21821166   4.325   3.956   6.094 -0.2285  0.1155 -0.0463
  184POPC  H18R21167   4.406   3.880   6.102  0.5284  1.0728  2.9958
  184POPC  H18S21168   4.244   3.927   6.165  1.6947 -1.4995  1.6063
  184POPC  H18T21169   4.368   4.051   6.132  0.2556 -0.0836 -0.0903
  184POPC   C3321170   5.241   4.229   6.172 -0.0809 -0.4259  0.0831
  184POPC   H3X21171   5.249   4.340   6.170  0.8448 -0.4907 -1.2055
  184POPC   H3Y21172   5.168   4.207   6.092 -0.8650  2.1717  0.0040
  184POPC   C3421173   5.366   4.167   6.133  0.0632 -0.5424  0.4185
  184POPC   H4X21174   5.342   4.058   6.128 -1.0387 -0.3648  1.2951
  184POPC   H4Y21175   5.449   4.170   6.207  0.1481 -1.6120  0.3909
  184POPC   C3521176   5.427   4.210   6.000 -0.2347 -0.1512  0.1222
  184POPC   H5X21177   5.349   4.210   5.921  1.0175  2.3968 -1.2282
  184POPC   H5Y21178   5.495   4.123   5.988  2.2702  1.4843  1.5045
  184POPC   C3621179   5.494   4.345   6.006 -0.1447  0.0753  0.2458
  184POPC   H6X21180   5.557   4.341   6.097 -0.0544 -1.2439  0.1407
  184POPC   H6Y21181   5.425   4.431   6.013  0.0901  0.1585  1.9212
  184POPC   C3721182   5.588   4.356   5.886  0.8896 -0.0034  0.1780
  184POPC   H7X21183   5.670   4.282   5.903 -1.1814 -2.4390  0.2236
  184POPC   H7Y21184   5.636   4.456   5.881 -2.3902  1.7499  0.4490
  184POPC   C3821185   5.527   4.348   5.748 -0.2837 -0.1751  0.1038
  184POPC   H8X21186   5.452   4.428   5.730 -0.7351 -0.4296  0.8480
  184POPC   H8Y21187   5.479   4.248   5.752 -0.1987 -0.1870  0.8466
  184POPC   C3921188   5.637   4.359   5.632  0.7825  0.4504  0.3921
  184POPC   H9X21189   5.707   4.275   5.653  1.0209  0.8634  1.3134
  184POPC   H9Y21190   5.690   4.456   5.641 -0.3172  1.1431 -0.4671
  184POPC  C31021191   5.567   4.353   5.499  0.2151 -0.5132  0.0247
  184POPC  H10X21192   5.487   4.431   5.494  0.2422 -0.4889 -0.0270
  184POPC  H10Y21193   5.521   4.253   5.490 -0.6455 -0.2430  1.1468
  184POPC  C31121194   5.660   4.366   5.380  0.4202  0.2047 -1.1016
  184POPC  H11X21195   5.618   4.358   5.278 -2.5131 -0.6379  0.0591
  184POPC  H11Y21196   5.739   4.290   5.395  0.8803  1.2205  2.7255
  184POPC  C31221197   5.737   4.495   5.388 -0.1376 -0.2640 -0.0087
  184POPC  H12X21198   5.801   4.511   5.478  1.7071  1.1185 -1.4828
  184POPC  H12Y21199   5.653   4.566   5.376  0.3315  0.6655  1.7511
  184POPC  C31321200   5.831   4.507   5.267  0.4491 -0.0477 -0.0975
  184POPC  H13X21201   5.792   4.451   5.178 -1.6671  1.0256  0.0770
  184POPC  H13Y21202   5.925   4.456   5.293  1.3880  1.5827 -0.1749
  184POPC  C31421203   5.869   4.651   5.231 -0.7157  0.1835 -0.3399
  184POPC  H14X21204   5.961   4.651   5.168 -0.2999 -1.1267  0.2316
  184POPC  H14Y21205   5.896   4.703   5.325 -2.7402 -0.2528  0.5360
  184POPC  C31521206   5.756   4.727   5.160 -0.0278 -0.8326  0.0711
  184POPC  H15X21207   5.795   4.830   5.143 -1.5096 -0.4071 -1.0507
  184POPC  H15Y21208   5.667   4.733   5.226  0.7589 -3.9652  1.6060
  184POPC  C31621209   5.716   4.681   5.022  0.0675  0.1363  0.6030
  184POPC  H16X21210   5.659   4.761   4.970  1.2716  1.8277  1.7720
  184POPC  H16Y21211   5.663   4.584   5.018  2.7133 -1.4141  0.4069
  184POPC  H16Z21212   5.810   4.668   4.964 -0.0371  0.0853  0.4439
  185POPC     N21213   4.574   3.104   1.927 -0.6407 -0.4546  0.4725
  185POPC   C1221214   4.481   3.081   2.050  0.6426  0.9277  0.4494
  185POPC  H12A21215   4.411   3.160   2.072  0.0700  0.9799 -1.4080
  185POPC  H12B21216   4.549   3.072   2.133  0.0073  2.6142  1.1922
  185POPC   C1321217   4.653   3.227   1.957 -0.3392  0.6033  0.1004
  185POPC  H13A21218   4.711   3.271   1.877 -0.1781 -0.1757 -0.2272
  185POPC  H13B21219   4.586   3.305   1.988 -0.7073  0.7235 -0.9540
  185POPC  H13C21220   4.709   3.217   2.049 -0.1153 -3.2128 -0.2865
  185POPC   C1421221   4.667   2.985   1.924  0.1789  0.4130  0.2189
  185POPC  H14A21222   4.626   2.907   1.861  0.7932  2.1498 -2.4750
  185POPC  H14B21223   4.760   3.004   1.873  0.5083 -0.1539  0.5932
  185POPC  H14C21224   4.680   2.944   2.023 -2.6570  1.2996  1.0611
  185POPC   C1521225   4.505   3.112   1.796 -0.5987 -0.3873 -0.2234
  185POPC  H15A21226   4.565   3.158   1.718 -1.4837 -0.3731 -0.9027
  185POPC  H15B21227   4.414   3.169   1.809 -1.1184 -1.2252 -0.1209
  185POPC  H15C21228   4.465   3.020   1.757 -1.7266  0.1963 -0.4850
  185POPC   C1121229   4.392   2.948   2.037 -0.2796 -0.3370 -0.7224
  185POPC  H11A21230   4.348   2.948   1.935  0.8999 -1.1634 -1.2491
  185POPC  H11B21231   4.313   2.948   2.115  0.1371  1.6662 -0.2320
  185POPC     P21232   4.529   2.785   2.187 -0.1205  0.2338  0.1407
  185POPC   O1321233   4.611   2.895   2.242 -0.3659  0.3837  0.1098
  185POPC   O1421234   4.605   2.659   2.166  0.2373  0.2222 -0.3711
  185POPC   O1221235   4.461   2.827   2.045 -0.0768  0.1891  0.1273
  185POPC   O1121236   4.415   2.759   2.288  0.1153  0.4239  0.8431
  185POPC    C121237   4.444   2.731   2.428  0.4046 -0.9119  0.0679
  185POPC    HA21238   4.395   2.806   2.494 -0.1760  0.2587 -1.6362
  185POPC    HB21239   4.552   2.730   2.451  0.3546 -0.9147  0.3080
  185POPC    C221240   4.379   2.597   2.466  0.2462 -0.0912  0.1793
  185POPC    HS21241   4.425   2.514   2.408  0.6205 -1.2950  2.0811
  185POPC   O2121242   4.239   2.611   2.439  0.1271  0.0233 -0.0184
  185POPC   C2121243   4.159   2.509   2.458 -0.0566  0.6705  0.5628
  185POPC   O2221244   4.190   2.393   2.471  0.4758  0.0439 -0.4921
  185POPC   C2221245   4.013   2.548   2.452 -0.2139  0.1374 -0.5112
  185POPC   H2R21246   3.990   2.576   2.347  2.4889 -0.6921 -1.4022
  185POPC   H2S21247   4.009   2.641   2.513 -0.4836 -0.0657 -0.2147
  185POPC    C321248   4.412   2.557   2.612  0.7424  0.1222  0.4734
  185POPC    HX21249   4.515   2.515   2.608  1.2736  1.3337  0.8372
  185POPC    HY21250   4.345   2.477   2.652  2.7676 -2.2292 -0.5864
  185POPC   O3121251   4.412   2.679   2.699  0.5238 -0.3140 -0.0454
  185POPC   C3121252   4.311   2.698   2.789 -0.5514 -0.2487 -0.8704
  185POPC   O3221253   4.208   2.632   2.790 -0.4305  0.4448  0.4622
  185POPC   C3221254   4.357   2.801   2.898  0.0637 -0.9218  0.2199
  185POPC   H2X21255   4.353   2.906   2.862 -0.3960 -0.7289  0.8201
  185POPC   H2Y21256   4.458   2.773   2.936 -0.6746 -2.0943  1.4236
  185POPC   C2321257   3.921   2.441   2.494  0.2442  0.0311  0.5834
  185POPC   H3R21258   3.949   2.350   2.437  2.1684  0.5922  0.5771
  185POPC   H3S21259   3.815   2.461   2.466  1.0328 -0.7240 -3.5241
  185POPC   C2421260   3.923   2.423   2.650  0.0008  0.6978  0.2491
  185POPC   H4R21261   3.914   2.514   2.713 -2.6341  0.1614  0.7526
  185POPC   H4S21262   4.015   2.368   2.680 -0.8563 -1.4094 -0.7660
  185POPC   C2521263   3.812   2.320   2.685  0.0809 -0.0506 -0.3636
  185POPC   H5R21264   3.796   2.237   2.613 -0.7708 -1.1519  1.0195
  185POPC   H5S21265   3.714   2.372   2.681 -0.7660 -1.6323 -0.8310
  185POPC   C2621266   3.836   2.260   2.829 -0.0018 -0.8315  0.7730
  185POPC   H6R21267   3.929   2.198   2.826  0.5933  0.0858 -1.3242
  185POPC   H6S21268   3.752   2.201   2.871 -1.0192 -0.2839 -0.4463
  185POPC   C2721269   3.875   2.361   2.944 -0.5735  0.3561 -0.0768
  185POPC   H7R21270   3.785   2.406   2.992  0.8379  4.2366 -0.6977
  185POPC   H7S21271   3.940   2.446   2.912  0.1273 -0.6111 -1.3192
  185POPC   C2821272   3.962   2.293   3.056  0.5538  0.1140 -0.4687
  185POPC   H8R21273   4.062   2.259   3.021  0.2378 -1.8093  0.3713
  185POPC   H8S21274   3.911   2.201   3.091  0.4717  1.2997  2.8029
  185POPC   C2921275   3.995   2.380   3.175  0.0770  0.1920 -0.4782
  185POPC   H9121276   4.002   2.489   3.163  0.3337  0.1840 -0.4005
  185POPC  C21021277   4.001   2.335   3.306  0.4797 -0.0598  0.4691
  185POPC  H10121278   4.013   2.409   3.386  0.8664 -1.3278  1.6199
  185POPC  C21121279   3.996   2.189   3.355 -0.1466  0.5406  0.5638
  185POPC  H11R21280   4.096   2.149   3.382  0.9768  1.8875 -1.3306
  185POPC  H11S21281   3.969   2.116   3.275 -1.6180 -0.7927  2.1915
  185POPC  C21221282   3.893   2.172   3.463  0.3271 -0.5936  0.3791
  185POPC  H12R21283   3.873   2.065   3.487 -2.4207 -0.6689 -1.7720
  185POPC  H12S21284   3.799   2.213   3.419  0.5677 -1.2483 -0.7896
  185POPC  C21321285   3.925   2.227   3.604  0.6719 -0.2714  0.0973
  185POPC  H13R21286   3.826   2.227   3.656  0.1930  2.6815 -0.6540
  185POPC  H13S21287   3.944   2.334   3.583 -2.1562  0.1568 -0.8092
  185POPC  C21421288   4.032   2.144   3.680 -0.2706  0.0242  0.9605
  185POPC  H14R21289   4.130   2.181   3.642 -0.3723  3.1396  3.3007
  185POPC  H14S21290   4.025   2.038   3.646 -0.9086  0.1376  0.7156
  185POPC  C21521291   4.027   2.153   3.826 -0.4847 -0.7436  0.1627
  185POPC  H15R21292   3.933   2.106   3.863 -0.8505  1.3235  2.0343
  185POPC  H15S21293   4.010   2.256   3.864  1.4015 -0.0631 -0.7435
  185POPC  C21621294   4.156   2.102   3.894 -0.0732  0.2802 -0.0159
  185POPC  H16R21295   4.238   2.136   3.827 -0.3924 -1.2010 -1.1940
  185POPC  H16S21296   4.158   1.992   3.884  0.1885  0.3212 -0.4541
  185POPC  C21721297   4.179   2.142   4.040 -0.0654 -0.2608  0.0343
  185POPC  H17R21298   4.152   2.250   4.045  1.7784  0.1912  1.2462
  185POPC  H17S21299   4.284   2.138   4.075 -0.9694  0.2867  3.1051
  185POPC  C21821300   4.090   2.077   4.149  0.3824  0.0919  0.5868
  185POPC  H18R21301   4.110   1.968   4.144  1.9402  0.3976 -1.0054
  185POPC  H18S21302   3.982   2.092   4.124  0.1607 -2.2299 -0.0756
  185POPC  H18T21303   4.125   2.114   4.247  0.8694  2.2481 -0.3409
  185POPC   C3321304   4.260   2.804   3.021 -0.2932  0.1134  0.3664
  185POPC   H3X21305   4.154   2.785   2.992 -1.1079  0.7297  2.7597
  185POPC   H3Y21306   4.252   2.904   3.067  1.0122  1.2142 -1.6538
  185POPC   C3421307   4.287   2.708   3.139 -0.2744 -0.0329  0.3243
  185POPC   H4X21308   4.393   2.719   3.171 -0.2741  0.1700  0.2489
  185POPC   H4Y21309   4.263   2.605   3.103 -0.9652  0.1907  0.1364
  185POPC   C3521310   4.194   2.727   3.260 -0.3343  0.0444 -0.0301
  185POPC   H5X21311   4.092   2.692   3.236 -0.4756 -0.4405  1.1941
  185POPC   H5Y21312   4.187   2.833   3.290  0.8726  0.0441  0.3336
  185POPC   C3621313   4.245   2.652   3.387 -0.1319  0.4972  0.2893
  185POPC   H6X21314   4.351   2.684   3.396  0.2716 -0.2794 -1.2842
  185POPC   H6Y21315   4.245   2.543   3.370  0.5619  0.2092  1.9224
  185POPC   C3721316   4.156   2.678   3.503 -0.4424  0.2031  0.8586
  185POPC   H7X21317   4.064   2.614   3.500  1.7783 -3.3113  1.4304
  185POPC   H7Y21318   4.122   2.783   3.493 -1.9144 -0.2132  1.2270
  185POPC   C3821319   4.220   2.662   3.640 -0.1627  0.7095  0.4667
  185POPC   H8X21320   4.147   2.703   3.713 -0.7763  1.4754 -0.5423
  185POPC   H8Y21321   4.317   2.711   3.663  1.2739 -1.1376 -1.2487
  185POPC   C3921322   4.233   2.512   3.681  0.3925 -0.2572  0.3275
  185POPC   H9X21323   4.305   2.465   3.611  0.2607  0.3057 -0.1932
  185POPC   H9Y21324   4.136   2.460   3.666 -0.0834  0.4615  0.8648
  185POPC  C31021325   4.261   2.483   3.832  0.6007  0.0611  0.5794
  185POPC  H10X21326   4.360   2.530   3.851  0.0594  0.6084  2.3076
  185POPC  H10Y21327   4.273   2.373   3.837 -1.0972 -0.3392 -2.1612
  185POPC  C31121328   4.151   2.528   3.935  0.1334  0.4813  0.3719
  185POPC  H11X21329   4.061   2.462   3.937 -0.4949  1.3150  2.4448
  185POPC  H11Y21330   4.115   2.631   3.910  0.0845  0.7423  1.4356
  185POPC  C31221331   4.210   2.528   4.074 -0.2602  0.1103 -0.1293
  185POPC  H12X21332   4.292   2.599   4.099 -0.7343  0.5278  0.2865
  185POPC  H12Y21333   4.254   2.434   4.112  0.3206  1.1905  2.0502
  185POPC  C31321334   4.103   2.569   4.173 -0.2572 -0.0481  0.3156
  185POPC  H13X21335   4.011   2.507   4.166 -0.2326 -0.0518  0.0282
  185POPC  H13Y21336   4.087   2.678   4.158 -0.1475 -0.1495 -0.6307
  185POPC  C31421337   4.159   2.561   4.318 -0.1281  0.1687  0.1674
  185POPC  H14X21338   4.262   2.601   4.335 -0.7950  1.4900  1.3661
  185POPC  H14Y21339   4.165   2.456   4.353 -1.0117  0.3586  0.9338
  185POPC  C31521340   4.080   2.642   4.417 -0.1274 -0.0184  0.4954
  185POPC  H15X21341   4.046   2.737   4.371  4.2953  2.1966  1.2337
  185POPC  H15Y21342   4.136   2.667   4.510  0.3093  0.9776 -0.0209
  185POPC  C31621343   3.958   2.557   4.464 -0.5725 -0.0418 -0.2313
  185POPC  H16X21344   3.911   2.578   4.562  3.4479 -0.1226  1.9086
  185POPC  H16Y21345   3.984   2.450   4.476 -1.3346 -0.1717  0.3544
  185POPC  H16Z21346   3.877   2.555   4.388  1.5882 -0.0668 -2.6901
  186POPC     N21347   6.278   4.954   2.112 -0.1991  0.6492  0.9061
  186POPC   C1221348   6.326   5.036   2.230  0.1064 -0.6066  0.1705
  186POPC  H12A21349   6.388   4.974   2.294 -1.8226 -1.9900  0.8190
  186POPC  H12B21350   6.245   5.040   2.303  0.6460  0.9363  0.7278
  186POPC   C1321351   6.395   4.910   2.029 -0.1011  0.1925  0.0273
  186POPC  H13A21352   6.451   4.834   2.082  2.3216  0.9971 -1.2420
  186POPC  H13B21353   6.363   4.877   1.931  0.2817  0.3096 -0.1402
  186POPC  H13C21354   6.473   4.984   2.033  1.3528 -1.2589 -0.2481
  186POPC   C1421355   6.209   4.830   2.154 -0.5121 -1.1653  0.4268
  186POPC  H14A21356   6.266   4.765   2.219  1.3509 -0.2212 -0.1913
  186POPC  H14B21357   6.121   4.861   2.209  1.5208  2.5401  1.9235
  186POPC  H14C21358   6.173   4.787   2.062  1.0477 -1.1109 -0.2210
  186POPC   C1521359   6.191   5.042   2.028  0.4573 -0.1890  0.4972
  186POPC  H15A21360   6.259   5.116   1.989  0.0744  1.4386  2.6753
  186POPC  H15B21361   6.113   5.093   2.083 -0.8666  0.6232 -1.9802
  186POPC  H15C21362   6.144   4.985   1.949 -1.4161  1.0340  0.6524
  186POPC   C1121363   6.393   5.171   2.213  0.1020  0.0207 -0.1070
  186POPC  H11A21364   6.394   5.235   2.303  2.2247 -0.8367  0.5340
  186POPC  H11B21365   6.362   5.244   2.135  3.8059  1.4559 -0.4406
  186POPC     P21366   6.621   5.254   2.129 -0.0320 -0.3120  0.1376
  186POPC   O1321367   6.573   5.298   1.997  0.4254  0.0444 -0.3030
  186POPC   O1421368   6.758   5.203   2.140 -0.4090 -0.0289 -0.7109
  186POPC   O1221369   6.526   5.142   2.179 -0.2135  0.0647  0.3539
  186POPC   O1121370   6.591   5.371   2.236  0.3555 -0.5344  0.2910
  186POPC    C121371   6.684   5.406   2.339  0.1077 -0.1859  0.1384
  186POPC    HA21372   6.696   5.517   2.335  0.7472 -0.2401  0.4972
  186POPC    HB21373   6.788   5.381   2.311 -0.0291 -0.9061  0.2556
  186POPC    C221374   6.641   5.360   2.480 -0.1153  0.3135  0.0238
  186POPC    HS21375   6.644   5.251   2.458 -0.1518  0.0097  1.4305
  186POPC   O2121376   6.517   5.424   2.517 -0.1228  0.2759 -0.7307
  186POPC   C2121377   6.412   5.342   2.550  0.5238  0.4036 -0.5301
  186POPC   O2221378   6.407   5.219   2.540 -0.2457 -0.5031 -0.1214
  186POPC   C2221379   6.306   5.427   2.615 -0.2393  0.6131  0.5055
  186POPC   H2R21380   6.224   5.443   2.541 -1.5245 -1.8783  1.2617
  186POPC   H2S21381   6.347   5.526   2.642 -0.3282  1.1828 -1.3447
  186POPC    C321382   6.756   5.388   2.585  0.4756 -0.2308 -0.2354
  186POPC    HX21383   6.754   5.491   2.627  2.4427 -0.0708 -0.4085
  186POPC    HY21384   6.853   5.376   2.531  0.4619 -2.1425  0.1127
  186POPC   O3121385   6.740   5.297   2.691  0.6431 -0.2032 -0.5512
  186POPC   C3121386   6.842   5.222   2.724 -0.5422 -0.8462  0.2063
  186POPC   O3221387   6.949   5.214   2.664  0.4644  0.5268 -0.9742
  186POPC   C3221388   6.795   5.134   2.845 -0.4512 -0.2988  0.1261
  186POPC   H2X21389   6.889   5.090   2.886 -0.7132 -0.5798  0.4434
  186POPC   H2Y21390   6.731   5.053   2.803  1.5349 -3.0225  1.9766
  186POPC   C2321391   6.234   5.377   2.740  0.1284 -0.2450  0.3300
  186POPC   H3R21392   6.198   5.275   2.711 -1.3053  0.0034  1.1367
  186POPC   H3S21393   6.148   5.445   2.760  0.1574 -0.5103  1.3740
  186POPC   C2421394   6.319   5.370   2.868  0.2305  0.2443 -0.1564
  186POPC   H4R21395   6.370   5.464   2.898  0.0025  0.0127  1.0249
  186POPC   H4S21396   6.389   5.286   2.884  0.0478  0.6478  3.7231
  186POPC   C2521397   6.231   5.362   2.997 -0.4436 -0.5043 -0.4003
  186POPC   H5R21398   6.161   5.279   2.974 -0.4993  0.0658 -2.5017
  186POPC   H5S21399   6.180   5.458   3.022  1.9407  0.0978  2.6736
  186POPC   C2621400   6.318   5.332   3.118 -0.3196  0.4697 -0.4912
  186POPC   H6R21401   6.379   5.421   3.146 -0.1825  0.5943 -1.1844
  186POPC   H6S21402   6.381   5.247   3.086 -0.8018  0.1658 -0.6416
  186POPC   C2721403   6.234   5.304   3.243 -0.8100  0.5082  0.2569
  186POPC   H7R21404   6.171   5.215   3.222 -1.9697  0.9425  1.6825
  186POPC   H7S21405   6.161   5.388   3.243 -0.2485  1.0081  1.0664
  186POPC   C2821406   6.313   5.286   3.371 -0.1372  0.0618 -0.0093
  186POPC   H8R21407   6.393   5.363   3.375 -0.8499  0.8210 -0.2394
  186POPC   H8S21408   6.369   5.190   3.376  0.6873  0.4079 -1.6529
  186POPC   C2921409   6.254   5.313   3.509  0.2459  0.4531 -0.4110
  186POPC   H9121410   6.185   5.398   3.513 -0.7234 -0.2361 -1.7352
  186POPC  C21021411   6.246   5.235   3.623 -0.5329  0.1291 -0.1325
  186POPC  H10121412   6.191   5.272   3.711  1.3941 -2.3128  2.2871
  186POPC  C21121413   6.332   5.116   3.652 -0.1576  0.3673 -0.5963
  186POPC  H11R21414   6.388   5.079   3.564 -1.1434  0.2838 -1.2044
  186POPC  H11S21415   6.262   5.040   3.692 -0.2143  0.0636 -1.2651
  186POPC  C21221416   6.431   5.156   3.770 -0.6625 -0.2647 -0.3817
  186POPC  H12R21417   6.493   5.238   3.730 -1.1357  0.6129  0.6289
  186POPC  H12S21418   6.510   5.077   3.774  1.1757  1.5147  0.1861
  186POPC  C21321419   6.381   5.192   3.908 -0.2995 -0.8185  0.0925
  186POPC  H13R21420   6.318   5.283   3.912  1.0282  0.1476 -0.0518
  186POPC  H13S21421   6.462   5.231   3.974 -1.8238 -0.3104  1.7553
  186POPC  C21421422   6.302   5.075   3.976 -0.5815  0.0413  0.7077
  186POPC  H14R21423   6.362   4.982   3.981  0.5441  0.5234 -2.0938
  186POPC  H14S21424   6.227   5.052   3.898  1.6273 -1.2627 -1.1457
  186POPC  C21521425   6.249   5.107   4.118  0.5135 -0.1308 -0.2014
  186POPC  H15R21426   6.173   5.189   4.115 -0.7614 -1.3041 -1.4380
  186POPC  H15S21427   6.331   5.135   4.188  2.3369 -2.6204 -1.2247
  186POPC  C21621428   6.156   4.987   4.167  0.7535 -0.4044  0.1245
  186POPC  H16R21429   6.223   4.904   4.196  0.3760 -0.4807  0.7809
  186POPC  H16S21430   6.084   4.959   4.087 -0.4604  1.6288  0.4132
  186POPC  C21721431   6.079   5.022   4.295  0.9011 -0.6431  0.2706
  186POPC  H17R21432   5.992   5.088   4.271 -0.6906 -2.4315  0.8744
  186POPC  H17S21433   6.143   5.087   4.359  0.5271  1.4938 -1.3787
  186POPC  C21821434   6.024   4.900   4.372  0.0076  0.8406  0.5235
  186POPC  H18R21435   5.960   4.935   4.456  0.2598 -0.7395  1.3958
  186POPC  H18S21436   5.957   4.847   4.301 -2.1052  2.4224  1.2280
  186POPC  H18T21437   6.103   4.839   4.420 -0.2413 -0.7505 -0.9825
  186POPC   C3321438   6.725   5.208   2.956 -0.0956  0.1932 -0.3428
  186POPC   H3X21439   6.633   5.246   2.907 -1.3340 -4.2323 -1.9163
  186POPC   H3Y21440   6.787   5.290   2.997  3.6299 -2.6081  0.1671
  186POPC   C3421441   6.673   5.114   3.058 -0.6793 -0.5966  0.0035
  186POPC   H4X21442   6.639   5.016   3.021 -0.1692 -1.4289  1.6452
  186POPC   H4Y21443   6.583   5.160   3.105  0.2262  1.2066  0.0869
  186POPC   C3521444   6.778   5.085   3.173 -0.6959 -0.3296  0.1489
  186POPC   H5X21445   6.790   5.178   3.232 -2.4618  0.2143 -0.2894
  186POPC   H5Y21446   6.872   5.054   3.123 -0.6258  1.2903 -0.7831
  186POPC   C3621447   6.742   4.974   3.276 -0.9332 -1.0126 -0.6845
  186POPC   H6X21448   6.748   4.878   3.220 -0.3685 -1.4551  0.1214
  186POPC   H6Y21449   6.642   5.010   3.306 -0.2292  2.3989 -1.9378
  186POPC   C3721450   6.831   4.972   3.402 -0.5383 -0.2548  0.3254
  186POPC   H7X21451   6.835   5.071   3.452 -0.4437 -0.4064  0.6196
  186POPC   H7Y21452   6.932   4.941   3.368 -0.9786 -0.0282 -1.2847
  186POPC   C3821453   6.775   4.881   3.514  0.0079  0.4789  0.4433
  186POPC   H8X21454   6.831   4.785   3.507 -0.8616  0.0889 -2.0786
  186POPC   H8Y21455   6.674   4.850   3.477  0.6541 -0.3453 -0.7025
  186POPC   C3921456   6.779   4.944   3.654  0.5859  0.4888 -0.1875
  186POPC   H9X21457   6.728   5.042   3.662  0.0032  0.6750 -4.2288
  186POPC   H9Y21458   6.888   4.958   3.675  1.1438 -0.2571 -2.2828
  186POPC  C31021459   6.725   4.843   3.757  0.1195 -1.0229 -0.7077
  186POPC  H10X21460   6.781   4.747   3.742 -1.0818 -1.9689  0.5961
  186POPC  H10Y21461   6.619   4.830   3.728 -0.2407 -0.2805  0.2227
  186POPC  C31121462   6.746   4.879   3.908 -0.8499  0.2184  0.0269
  186POPC  H11X21463   6.701   4.979   3.927  1.0820  0.7619  2.0637
  186POPC  H11Y21464   6.857   4.883   3.911 -0.7308 -2.0158 -0.0358
  186POPC  C31221465   6.695   4.761   3.995 -0.0451  0.4939  1.0314
  186POPC  H12X21466   6.726   4.670   3.939  1.0098  0.0638  2.2446
  186POPC  H12Y21467   6.586   4.752   4.014  0.1604 -2.6082  1.2642
  186POPC  C31321468   6.775   4.728   4.129 -0.2643 -0.3619 -0.9236
  186POPC  H13X21469   6.725   4.644   4.182 -1.2704  0.6260 -0.2607
  186POPC  H13Y21470   6.777   4.818   4.193 -0.4006 -1.5774  0.8654
  186POPC  C31421471   6.926   4.689   4.105 -0.2592 -0.1336 -0.2045
  186POPC  H14X21472   6.975   4.754   4.029  1.8170 -0.5191  0.7392
  186POPC  H14Y21473   6.946   4.584   4.076  2.8121 -0.7007  3.2510
  186POPC  C31521474   7.004   4.716   4.233  0.7159 -0.0292  0.5113
  186POPC  H15X21475   6.965   4.654   4.317  0.6531 -0.0471  0.4690
  186POPC  H15Y21476   6.994   4.824   4.255  2.1345  0.2374 -0.0735
  186POPC  C31621477   7.148   4.689   4.215  0.1299  0.0865 -0.3249
  186POPC  H16X21478   7.194   4.757   4.140  0.2949 -1.9330 -2.1448
  186POPC  H16Y21479   7.159   4.583   4.183 -1.7160 -0.3925  0.5144
  186POPC  H16Z21480   7.196   4.700   4.314  0.1113  1.4131 -0.4401
  187POPC     N21481   3.141   2.904   2.166  0.2605  0.4330  0.1629
  187POPC   C1221482   3.264   2.949   2.090  0.1595 -0.8655  0.7136
  187POPC  H12A21483   3.347   2.962   2.158  1.3728 -1.1672 -0.6571
  187POPC  H12B21484   3.250   3.050   2.056 -1.8071 -0.6954  1.8482
  187POPC   C1321485   3.102   3.009   2.267 -0.0198 -0.2200  0.1836
  187POPC  H13A21486   3.034   2.975   2.344 -0.0550 -0.0428  0.2325
  187POPC  H13B21487   3.193   3.041   2.315  1.6666 -0.7618 -2.4385
  187POPC  H13C21488   3.053   3.096   2.225  1.0119  1.6711  2.6614
  187POPC   C1421489   3.032   2.864   2.076  0.0039 -0.0757 -0.7799
  187POPC  H14A21490   2.971   2.952   2.060  1.7602  1.4164  0.3705
  187POPC  H14B21491   3.066   2.814   1.986  0.2588 -1.8568  0.2545
  187POPC  H14C21492   2.966   2.793   2.125  1.0010 -0.1848  0.4538
  187POPC   C1521493   3.173   2.782   2.247  0.0651 -0.0151 -0.9519
  187POPC  H15A21494   3.098   2.751   2.317 -0.3075 -0.3505 -1.4928
  187POPC  H15B21495   3.268   2.802   2.294 -0.5912  0.7706  0.0794
  187POPC  H15C21496   3.193   2.697   2.183  3.7997  0.7315 -1.0230
  187POPC   C1121497   3.319   2.859   1.977  0.1729 -0.9745  0.9881
  187POPC  H11A21498   3.412   2.901   1.935 -1.3200  1.9119  0.3070
  187POPC  H11B21499   3.241   2.865   1.898  1.3569  0.0973 -0.1264
  187POPC     P21500   3.469   2.674   2.085 -0.1917 -0.4030 -0.0209
  187POPC   O1321501   3.581   2.721   2.010  0.0963  0.0947 -0.1047
  187POPC   O1421502   3.451   2.528   2.102 -0.0112 -0.7923 -0.3014
  187POPC   O1221503   3.336   2.718   2.009 -0.1001  0.4578 -0.3916
  187POPC   O1121504   3.475   2.746   2.229 -0.0327 -0.3293  0.2281
  187POPC    C121505   3.601   2.741   2.300 -0.0775  0.1328 -0.0726
  187POPC    HA21506   3.671   2.824   2.277 -1.6763  1.2885 -0.9922
  187POPC    HB21507   3.648   2.643   2.276 -2.1728 -0.5344 -1.8310
  187POPC    C221508   3.570   2.739   2.453 -0.4361  0.3318  0.0587
  187POPC    HS21509   3.658   2.700   2.508 -0.7144  0.7868  0.8365
  187POPC   O2121510   3.450   2.665   2.490 -0.0495 -0.2521  0.1968
  187POPC   C2121511   3.452   2.536   2.449 -0.1411 -0.0784  0.4110
  187POPC   O2221512   3.554   2.473   2.437 -0.7349 -0.0611 -0.4850
  187POPC   C2221513   3.319   2.473   2.412  0.9206 -0.0667  0.0774
  187POPC   H2R21514   3.321   2.442   2.305 -2.3019  0.8634 -0.3501
  187POPC   H2S21515   3.240   2.550   2.420  0.7712 -0.2899  0.8124
  187POPC    C321516   3.555   2.886   2.502 -0.3905 -0.4067  0.2782
  187POPC    HX21517   3.480   2.946   2.446  0.0507 -0.5875 -0.5192
  187POPC    HY21518   3.651   2.934   2.473 -1.0780 -0.4952 -2.3637
  187POPC   O3121519   3.541   2.888   2.643  0.3922 -0.1942 -0.1379
  187POPC   C3121520   3.415   2.885   2.694  0.1713 -0.2090  0.5283
  187POPC   O3221521   3.316   2.914   2.628 -0.0338  0.1623 -0.5330
  187POPC   C3221522   3.422   2.840   2.837 -0.3414  0.4439  0.7845
  187POPC   H2X21523   3.454   2.926   2.900  0.9996  0.2690  0.3827
  187POPC   H2Y21524   3.506   2.770   2.856  0.9400  2.2469  2.2027
  187POPC   C2321525   3.292   2.348   2.490 -0.4802 -0.1669 -0.0247
  187POPC   H3R21526   3.363   2.265   2.473  0.6711  0.6420  0.7021
  187POPC   H3S21527   3.198   2.310   2.445 -1.4771 -0.7266  2.3372
  187POPC   C2421528   3.250   2.371   2.634 -0.4663  0.2958  0.2313
  187POPC   H4R21529   3.194   2.286   2.678 -0.3669  0.3099  0.3835
  187POPC   H4S21530   3.183   2.459   2.640  0.6459  1.0590  1.9406
  187POPC   C2521531   3.371   2.390   2.724  0.4220  0.3388  0.0723
  187POPC   H5R21532   3.425   2.486   2.710  2.3718 -0.8005 -0.7144
  187POPC   H5S21533   3.445   2.312   2.694  0.0472  0.6400 -1.7024
  187POPC   C2621534   3.336   2.368   2.873  0.8056 -0.5794  0.8375
  187POPC   H6R21535   3.276   2.275   2.885 -0.0392 -0.2284 -0.3800
  187POPC   H6S21536   3.269   2.454   2.893 -0.5810 -1.4410  0.1357
  187POPC   C2721537   3.457   2.389   2.973  0.5322  0.0486  0.3430
  187POPC   H7R21538   3.494   2.493   2.977  1.4543 -0.3179  2.0439
  187POPC   H7S21539   3.553   2.341   2.944  0.2936  0.4347 -1.2056
  187POPC   C2821540   3.421   2.333   3.118  0.1351  1.0030 -0.0151
  187POPC   H8R21541   3.520   2.335   3.170  0.2070  0.0036 -0.1088
  187POPC   H8S21542   3.378   2.231   3.122 -0.5739  1.3330  1.5305
  187POPC   C2921543   3.321   2.423   3.192 -0.5865  0.4909  0.8928
  187POPC   H9121544   3.248   2.475   3.129 -1.4277 -1.7694 -0.1145
  187POPC  C21021545   3.321   2.432   3.326  0.1022  0.6693 -0.0381
  187POPC  H10121546   3.248   2.496   3.377 -0.7055 -0.5722  0.3867
  187POPC  C21121547   3.416   2.360   3.416  0.3294 -0.5627 -0.6426
  187POPC  H11R21548   3.505   2.421   3.439  1.8943 -1.8762 -2.7469
  187POPC  H11S21549   3.441   2.260   3.372 -1.0885 -1.7414  1.1061
  187POPC  C21221550   3.351   2.341   3.558 -0.1319  0.6829 -0.2746
  187POPC  H12R21551   3.248   2.299   3.551  0.0419  0.3416 -0.9271
  187POPC  H12S21552   3.342   2.442   3.603 -0.5545  0.7308 -0.4627
  187POPC  C21321553   3.444   2.257   3.656  0.6499  0.3796 -0.7636
  187POPC  H13R21554   3.521   2.320   3.705 -0.9671  2.7930 -1.1163
  187POPC  H13S21555   3.496   2.184   3.591 -0.4236 -0.3519 -0.8293
  187POPC  C21421556   3.359   2.173   3.749  0.1005 -0.4713  0.1926
  187POPC  H14R21557   3.406   2.072   3.755 -0.1659 -0.5546  0.9864
  187POPC  H14S21558   3.256   2.159   3.709  0.0150  1.2848 -0.2801
  187POPC  C21521559   3.360   2.224   3.898  0.5486  0.5474  0.3368
  187POPC  H15R21560   3.298   2.315   3.911 -0.1633  0.0945  0.2067
  187POPC  H15S21561   3.468   2.247   3.898  0.7297  0.4779 -3.5950
  187POPC  C21621562   3.327   2.134   4.018  1.0615  0.4468 -1.2899
  187POPC  H16R21563   3.239   2.079   3.979  0.5550 -0.1506  0.5929
  187POPC  H16S21564   3.302   2.195   4.107  0.8447  2.0811 -2.4189
  187POPC  C21721565   3.422   2.021   4.051 -0.3294  0.8511 -0.7110
  187POPC  H17R21566   3.526   2.058   4.063 -0.8428  1.8418  0.9783
  187POPC  H17S21567   3.412   1.941   3.975 -0.5805 -0.0588  0.2497
  187POPC  C21821568   3.379   1.943   4.182  0.6174 -0.2768  0.2517
  187POPC  H18R21569   3.398   2.017   4.263  2.5923 -1.1023  0.5953
  187POPC  H18S21570   3.447   1.856   4.196  1.3064  0.2558  0.3037
  187POPC  H18T21571   3.276   1.903   4.182  1.0347 -1.3941 -0.2838
  187POPC   C3321572   3.297   2.766   2.879  0.1110  0.7330 -0.0299
  187POPC   H3X21573   3.329   2.747   2.984  1.9552 -1.3205 -0.8582
  187POPC   H3Y21574   3.289   2.668   2.827  0.5714  1.3714 -1.3638
  187POPC   C3421575   3.163   2.841   2.881 -0.0619  0.1709 -0.7370
  187POPC   H4X21576   3.114   2.856   2.782  0.9322  0.1204 -1.2532
  187POPC   H4Y21577   3.180   2.940   2.929  0.5831  0.2719 -1.1634
  187POPC   C3521578   3.060   2.781   2.978  0.0648  0.1586 -0.0690
  187POPC   H5X21579   3.119   2.751   3.067  1.9095 -1.4977 -1.7586
  187POPC   H5Y21580   3.017   2.686   2.940 -2.7152  0.4977  1.9443
  187POPC   C3621581   2.945   2.867   3.023  0.1403  0.8993  0.7619
  187POPC   H6X21582   2.876   2.873   2.937 -0.4856 -5.9621  0.1891
  187POPC   H6Y21583   2.987   2.966   3.051  1.0787  0.7935 -0.1714
  187POPC   C3721584   2.863   2.805   3.135  0.2614  0.1864 -0.0508
  187POPC   H7X21585   2.925   2.788   3.226 -0.5768 -0.0902  0.4744
  187POPC   H7Y21586   2.825   2.704   3.111 -2.2363  0.8032  1.0091
  187POPC   C3821587   2.737   2.898   3.149 -0.2996 -0.4558  0.0455
  187POPC   H8X21588   2.646   2.837   3.170 -1.0634  0.4019 -0.6942
  187POPC   H8Y21589   2.716   2.946   3.051  0.8216  2.0005  0.9364
  187POPC   C3921590   2.753   3.014   3.255 -0.5891 -0.3072  0.5784
  187POPC   H9X21591   2.661   3.072   3.235 -0.5887 -0.9166 -1.3981
  187POPC   H9Y21592   2.829   3.084   3.215 -1.9788  1.6996  1.2747
  187POPC  C31021593   2.767   2.961   3.392  0.1189 -0.1585  0.6125
  187POPC  H10X21594   2.871   2.924   3.402  0.1989 -0.3097 -0.6801
  187POPC  H10Y21595   2.698   2.874   3.400 -0.4955  0.0637 -1.6530
  187POPC  C31121596   2.751   3.070   3.501  0.1925  0.3706 -0.4509
  187POPC  H11X21597   2.772   3.166   3.449 -0.3845 -0.1158 -1.6212
  187POPC  H11Y21598   2.836   3.065   3.572  0.6691  0.7170 -0.9837
  187POPC  C31221599   2.607   3.080   3.565  0.1471 -0.2921 -0.2025
  187POPC  H12X21600   2.585   2.989   3.625  0.1305  0.0787  0.3605
  187POPC  H12Y21601   2.533   3.066   3.483 -0.1261  1.5905 -0.3056
  187POPC  C31321602   2.577   3.211   3.641  0.4937 -0.1438  0.6527
  187POPC  H13X21603   2.469   3.224   3.619  0.7679  0.5115 -0.3729
  187POPC  H13Y21604   2.624   3.295   3.585 -2.6308  2.0891  1.0676
  187POPC  C31421605   2.604   3.206   3.788  0.1104  0.6195  0.3296
  187POPC  H14X21606   2.714   3.190   3.795  0.2729  0.8222 -1.3645
  187POPC  H14Y21607   2.546   3.120   3.829  1.1290 -1.0278 -1.5028
  187POPC  C31521608   2.565   3.324   3.872 -0.1263 -0.2074  0.4439
  187POPC  H15X21609   2.456   3.340   3.854  0.1849  1.9816  0.2475
  187POPC  H15Y21610   2.618   3.410   3.826  0.1577 -0.5593  0.1048
  187POPC  C31621611   2.587   3.300   4.021  0.5252  0.3867 -0.0635
  187POPC  H16X21612   2.669   3.226   4.028  1.4231  1.1166 -2.1227
  187POPC  H16Y21613   2.493   3.252   4.054  0.9321 -2.4369 -2.5989
  187POPC  H16Z21614   2.610   3.396   4.071 -0.3331  0.1884  0.7324
  188POPC     N21615   5.424   1.684   2.177 -0.4335  0.2222 -0.0166
  188POPC   C1221616   5.502   1.617   2.295  0.5911  0.8066 -0.4470
  188POPC  H12A21617   5.606   1.618   2.264  0.7481  1.8603  0.0862
  188POPC  H12B21618   5.471   1.514   2.308 -0.3240  0.9886 -1.1208
  188POPC   C1321619   5.434   1.610   2.045  0.3924  1.1265  0.1187
  188POPC  H13A21620   5.537   1.588   2.022 -0.1528 -0.3809 -1.1070
  188POPC  H13B21621   5.377   1.519   2.033  0.4654  1.2671 -1.4905
  188POPC  H13C21622   5.389   1.671   1.968  0.6142  0.3610 -0.6361
  188POPC   C1421623   5.279   1.700   2.205 -0.1979  0.2984 -0.5835
  188POPC  H14A21624   5.265   1.751   2.299  1.0485  1.0237 -0.7626
  188POPC  H14B21625   5.234   1.766   2.133  1.6888  1.8848 -0.4103
  188POPC  H14C21626   5.231   1.603   2.211 -0.5076  0.4389 -0.7958
  188POPC   C1521627   5.483   1.824   2.143  0.3776  1.0276  1.0803
  188POPC  H15A21628   5.583   1.812   2.107 -0.8873 -1.9039 -1.9830
  188POPC  H15B21629   5.490   1.887   2.231 -0.0429  2.8724 -0.1556
  188POPC  H15C21630   5.422   1.874   2.069 -0.6555  0.9667  1.8498
  188POPC   C1121631   5.495   1.685   2.430 -0.0064  1.3856 -0.1556
  188POPC  H11A21632   5.528   1.618   2.512 -0.7803  1.3791  0.1626
  188POPC  H11B21633   5.387   1.704   2.449 -0.3954 -0.3131 -0.5051
  188POPC     P21634   5.718   1.822   2.440 -0.1015 -0.2533 -0.0446
  188POPC   O1321635   5.759   1.963   2.439 -0.4458  0.3429  0.2812
  188POPC   O1421636   5.786   1.733   2.345 -0.4167  0.7379  0.1838
  188POPC   O1221637   5.562   1.807   2.422 -0.0065  0.3605 -0.2290
  188POPC   O1121638   5.739   1.768   2.583 -0.0264 -0.7827  0.5251
  188POPC    C121639   5.664   1.825   2.691 -0.6194 -1.5256 -0.7970
  188POPC    HA21640   5.672   1.765   2.784  0.5542  0.1602  0.2409
  188POPC    HB21641   5.557   1.841   2.666 -0.2343  1.9510 -0.7003
  188POPC    C221642   5.696   1.971   2.735  1.0161 -0.9495 -0.8267
  188POPC    HS21643   5.672   2.039   2.651  1.9080  1.9455  1.1150
  188POPC   O2121644   5.835   1.975   2.781  0.7812  0.1868  0.1978
  188POPC   C2121645   5.894   2.096   2.770 -0.4801  0.7973 -0.5473
  188POPC   O2221646   5.838   2.196   2.734  0.2734 -0.0144  0.1632
  188POPC   C2221647   6.041   2.082   2.798  0.2447  0.5953 -0.3318
  188POPC   H2R21648   6.097   2.138   2.719  0.6690 -0.8102 -1.0639
  188POPC   H2S21649   6.082   1.979   2.808  1.9855  1.4806  3.3814
  188POPC    C321650   5.598   2.019   2.849  0.1096 -0.7286 -0.3797
  188POPC    HX21651   5.494   1.983   2.833 -0.4931 -0.0811  1.6779
  188POPC    HY21652   5.585   2.129   2.860  1.7138 -0.5770  0.3364
  188POPC   O3121653   5.618   1.960   2.982  0.4382  0.4573  0.0898
  188POPC   C3121654   5.683   2.047   3.071  0.3031 -1.2503  0.3290
  188POPC   O3221655   5.745   2.147   3.039  0.0449 -0.1800 -0.1431
  188POPC   C3221656   5.686   1.976   3.203  0.3425 -0.2549 -0.3078
  188POPC   H2X21657   5.771   1.904   3.201  2.7891  2.4372 -2.0953
  188POPC   H2Y21658   5.592   1.918   3.213  0.0364  0.4148  1.0860
  188POPC   C2321659   6.064   2.136   2.942  0.1550  0.5619 -0.5931
  188POPC   H3R21660   6.011   2.069   3.014 -1.3394 -0.3148 -2.4073
  188POPC   H3S21661   6.028   2.237   2.968  0.0704  1.0992 -2.5791
  188POPC   C2421662   6.216   2.124   2.985 -0.3825  0.4718  0.1131
  188POPC   H4R21663   6.280   2.173   2.909 -1.4542 -0.9596 -1.8011
  188POPC   H4S21664   6.234   2.014   2.984 -0.6169  0.4133  1.3641
  188POPC   C2521665   6.253   2.181   3.118 -0.2138 -0.2515 -0.1074
  188POPC   H5R21666   6.213   2.283   3.140 -2.3499 -1.2681  1.0020
  188POPC   H5S21667   6.363   2.195   3.123 -0.2105 -0.6943  2.2355
  188POPC   C2621668   6.228   2.093   3.246  0.2324 -0.7822  0.1178
  188POPC   H6R21669   6.305   2.100   3.326  0.7113 -2.6243 -0.1170
  188POPC   H6S21670   6.235   1.986   3.215  0.7732 -0.6823 -0.1162
  188POPC   C2721671   6.090   2.131   3.313 -0.5378  0.5233 -0.2255
  188POPC   H7R21672   6.012   2.123   3.233  1.0981 -0.0868 -1.8247
  188POPC   H7S21673   6.092   2.239   3.337  3.2226  0.6342 -0.4205
  188POPC   C2821674   6.067   2.047   3.451  0.5424  0.7749 -0.0668
  188POPC   H8R21675   6.052   1.938   3.438 -0.7481  1.0055 -0.6995
  188POPC   H8S21676   5.964   2.080   3.478  0.6075  0.0465  1.1426
  188POPC   C2921677   6.161   2.077   3.564 -0.4164 -0.3113  0.6942
  188POPC   H9121678   6.266   2.050   3.545 -0.2434  0.6240  0.2175
  188POPC  C21021679   6.142   2.177   3.650 -0.1507  0.9682 -0.4355
  188POPC  H10121680   6.215   2.186   3.732 -0.7158 -2.1943  0.5490
  188POPC  C21121681   6.022   2.263   3.670 -0.4379  1.2008 -0.0663
  188POPC  H11R21682   5.977   2.245   3.770  1.2405 -2.4299  0.2139
  188POPC  H11S21683   5.943   2.232   3.598 -1.4447  0.4002  1.3282
  188POPC  C21221684   6.034   2.410   3.630 -0.3549  0.2604  0.2816
  188POPC  H12R21685   5.937   2.462   3.610  0.7866  1.7867 -1.7465
  188POPC  H12S21686   6.093   2.409   3.536 -0.0075 -2.1280  0.4595
  188POPC  C21321687   6.112   2.495   3.738 -0.1735 -0.3205  0.0918
  188POPC  H13R21688   6.198   2.430   3.765  1.0052  0.9802 -0.4192
  188POPC  H13S21689   6.040   2.513   3.820  0.3725  1.2894  0.2543
  188POPC  C21421690   6.162   2.637   3.698  0.1066 -0.0287 -0.4456
  188POPC  H14R21691   6.069   2.696   3.717  1.3106  2.5414 -1.9943
  188POPC  H14S21692   6.187   2.640   3.590  1.9925  3.3587 -0.0395
  188POPC  C21521693   6.273   2.698   3.792 -0.2188  0.2415 -0.1256
  188POPC  H15R21694   6.367   2.641   3.785  0.4347  1.2807 -0.0692
  188POPC  H15S21695   6.241   2.690   3.899 -0.5852 -4.0886 -0.3945
  188POPC  C21621696   6.292   2.849   3.779  0.2437  0.3063 -0.6151
  188POPC  H16R21697   6.202   2.913   3.766 -0.5190 -0.9138 -1.5289
  188POPC  H16S21698   6.350   2.881   3.690 -1.4997  3.0820 -0.8698
  188POPC  C21721699   6.357   2.899   3.904 -0.6147 -0.2274 -0.4820
  188POPC  H17R21700   6.466   2.874   3.903 -0.2376  1.1625  1.1415
  188POPC  H17S21701   6.307   2.854   3.992  0.0898  0.4024  0.2639
  188POPC  C21821702   6.349   3.051   3.906  0.1839 -0.7439 -0.0284
  188POPC  H18R21703   6.383   3.099   3.812  1.0462  0.8689  1.0718
  188POPC  H18S21704   6.415   3.088   3.988 -2.5690  2.0508  1.1115
  188POPC  H18T21705   6.245   3.078   3.933  0.1047 -2.0907  1.1527
  188POPC   C3321706   5.707   2.065   3.320  0.4541 -0.1511 -0.0571
  188POPC   H3X21707   5.804   2.118   3.307  1.1847 -0.4817  3.2906
  188POPC   H3Y21708   5.718   2.001   3.409 -1.4789 -2.0216 -1.0708
  188POPC   C3421709   5.592   2.161   3.339  0.7691  0.2054 -0.1549
  188POPC   H4X21710   5.495   2.107   3.350  1.1328 -0.6373 -0.9771
  188POPC   H4Y21711   5.586   2.233   3.254  2.0075  0.7985  0.2245
  188POPC   C3521712   5.619   2.241   3.468  0.6515  0.4118 -0.5906
  188POPC   H5X21713   5.537   2.309   3.497  0.8887 -0.5567  2.7125
  188POPC   H5Y21714   5.703   2.314   3.469  2.2864 -1.3297 -1.8118
  188POPC   C3621715   5.632   2.154   3.593  0.1315  0.0691  0.0726
  188POPC   H6X21716   5.727   2.095   3.594  1.0111  1.3981 -1.1475
  188POPC   H6Y21717   5.546   2.085   3.589 -0.1038  0.1937  1.9279
  188POPC   C3721718   5.627   2.234   3.722 -0.0523  0.5151  0.0409
  188POPC   H7X21719   5.555   2.318   3.715 -2.5487 -1.5369 -0.2201
  188POPC   H7Y21720   5.719   2.295   3.739  0.3280  0.8802 -2.8345
  188POPC   C3821721   5.581   2.144   3.843  0.1137 -1.0260 -0.0753
  188POPC   H8X21722   5.483   2.100   3.817  0.5346 -2.0735  0.0790
  188POPC   H8Y21723   5.555   2.204   3.932  0.4482 -0.6729 -0.2119
  188POPC   C3921724   5.678   2.033   3.876  0.1144 -0.0960  0.1445
  188POPC   H9X21725   5.770   2.090   3.905 -0.9857  2.8403 -1.6204
  188POPC   H9Y21726   5.699   1.962   3.794 -1.5144  0.1701 -0.5247
  188POPC  C31021727   5.629   1.947   3.990 -0.5465 -0.2394 -0.1571
  188POPC  H10X21728   5.696   1.859   4.001  0.6769  0.7123  0.2473
  188POPC  H10Y21729   5.527   1.903   3.980 -0.9498  0.8581 -0.9989
  188POPC  C31121730   5.619   2.018   4.126 -0.0406  0.5386  0.1445
  188POPC  H11X21731   5.567   2.115   4.115 -0.9745 -0.1046 -1.4140
  188POPC  H11Y21732   5.728   2.029   4.148  0.6069  0.2243 -2.5792
  188POPC  C31221733   5.558   1.925   4.239 -0.2743  0.2828  0.0978
  188POPC  H12X21734   5.635   1.846   4.246  0.3602  0.8995  0.2481
  188POPC  H12Y21735   5.473   1.873   4.189  0.0632 -0.5869  0.4185
  188POPC  C31321736   5.516   2.007   4.353  0.1451 -0.1256  0.0932
  188POPC  H13X21737   5.435   2.070   4.312  1.5022  1.0444 -0.8530
  188POPC  H13Y21738   5.598   2.070   4.392  1.0540  0.3698 -2.4412
  188POPC  C31421739   5.453   1.925   4.475 -0.0666 -0.2208  0.4022
  188POPC  H14X21740   5.377   1.854   4.435  0.2576  0.5232 -1.6626
  188POPC  H14Y21741   5.391   1.999   4.531  0.7660  2.0953 -1.5882
  188POPC  C31521742   5.552   1.839   4.549  0.1435 -0.1114 -1.0082
  188POPC  H15X21743   5.613   1.902   4.617  1.6217  0.1931 -2.5319
  188POPC  H15Y21744   5.625   1.808   4.471  1.9146 -0.2111  0.6177
  188POPC  C31621745   5.491   1.716   4.622  0.1701 -0.6818  0.3437
  188POPC  H16X21746   5.403   1.751   4.681  0.4642 -0.0175  0.3965
  188POPC  H16Y21747   5.571   1.668   4.682 -0.3609 -3.2690 -0.8943
  188POPC  H16Z21748   5.448   1.642   4.551 -3.7981 -0.7597  2.5550
  189SAPI   C1221749   5.442   5.847   6.753 -0.2090 -0.0471 -0.6433
  189SAPI    H221750   5.395   5.923   6.688  1.7870  0.7815 -1.1902
  189SAPI    O221751   5.515   5.751   6.679 -0.4384 -0.4561  0.4513
  189SAPI   HO221752   5.457   5.692   6.631  0.9522 -2.3187  0.9754
  189SAPI   C1321753   5.533   5.934   6.844 -0.1520 -0.1760 -0.2582
  189SAPI    H321754   5.482   6.007   6.910  0.5313 -0.9790  1.2159
  189SAPI    O321755   5.622   6.004   6.765  0.3020 -0.3187 -0.3072
  189SAPI   HO321756   5.658   5.941   6.702 -0.5758 -0.7964 -0.3484
  189SAPI   C1421757   5.611   5.841   6.936  0.1818 -0.2078 -0.5171
  189SAPI    H421758   5.681   5.783   6.872 -0.0328 -1.3802  0.2814
  189SAPI    O421759   5.690   5.912   7.034  0.0214  0.3731  0.0551
  189SAPI   HO421760   5.784   5.905   7.018  0.0766 -0.6082  0.7173
  189SAPI   C1521761   5.527   5.736   7.003 -0.0153 -0.1391 -0.0644
  189SAPI    H521762   5.502   5.775   7.104 -0.4579  0.4242 -0.3900
  189SAPI    O521763   5.599   5.617   7.037 -0.4500  0.1005  0.2679
  189SAPI   HO521764   5.564   5.587   7.121  1.8615  2.2428  2.1513
  189SAPI   C1621765   5.386   5.693   6.938  0.9655 -0.2688  0.1195
  189SAPI    H621766   5.401   5.606   6.871 -1.2324 -1.2773  0.8509
  189SAPI    O621767   5.292   5.643   7.035 -0.0624 -0.8917 -0.2481
  189SAPI   HO621768   5.257   5.720   7.081 -0.6154 -1.1068 -0.3042
  189SAPI   C1121769   5.330   5.793   6.838  1.0364 -0.7169 -0.1460
  189SAPI    H121770   5.294   5.879   6.899 -0.2345 -0.0658 -1.7241
  189SAPI     P21771   5.097   5.847   6.719 -0.2249  0.3262  0.1356
  189SAPI   O1321772   5.078   5.951   6.823 -0.4832  0.0498 -0.0529
  189SAPI   O1421773   4.982   5.766   6.675 -0.1167  0.3783  0.6772
  189SAPI   O1221774   5.215   5.739   6.767  0.0307  0.5133  0.3894
  189SAPI   O1121775   5.161   5.907   6.589  0.3744  0.0048 -0.0923
  189SAPI    C121776   5.148   5.839   6.464 -0.3377 -1.0517 -0.9991
  189SAPI    HA21777   5.133   5.730   6.479  0.6595 -1.0904 -0.2008
  189SAPI    HB21778   5.059   5.883   6.414 -0.2859  0.5696  0.2397
  189SAPI    C221779   5.271   5.878   6.374  0.5593 -0.0174 -0.2629
  189SAPI    HS21780   5.354   5.810   6.401 -1.2990 -2.3654 -0.1857
  189SAPI   O2121781   5.307   6.011   6.390 -0.1486  0.4734  0.3094
  189SAPI   C2121782   5.432   6.044   6.378 -0.2812 -0.3835  0.6640
  189SAPI   O2221783   5.530   5.967   6.375  0.7785 -0.2281  0.2997
  189SAPI   C2221784   5.432   6.199   6.371  0.2118  0.1403  0.6175
  189SAPI   H2R21785   5.397   6.217   6.267 -1.1366  0.3347  1.0828
  189SAPI   H2S21786   5.353   6.240   6.437  0.9793  1.9200  0.4928
  189SAPI    C321787   5.237   5.858   6.225  0.3280 -0.1587  0.2018
  189SAPI    HX21788   5.165   5.936   6.193 -1.0301 -2.1192 -1.8220
  189SAPI    HY21789   5.185   5.760   6.213  1.1110 -0.3933 -1.4706
  189SAPI   O3121790   5.354   5.867   6.144 -0.0314 -0.3841 -0.1503
  189SAPI   C3121791   5.424   5.763   6.141 -0.3052  0.5859  0.6572
  189SAPI   O3221792   5.421   5.661   6.205  0.2204 -0.9560 -0.8551
  189SAPI   C3221793   5.519   5.771   6.016  0.1695 -1.0036 -0.4556
  189SAPI   H2X21794   5.602   5.699   6.034 -0.4102 -0.9308  3.4081
  189SAPI   H2Y21795   5.551   5.877   6.021 -2.2728 -0.1469 -1.6353
  189SAPI   C2321796   5.570   6.263   6.412  0.0570 -0.3575  0.0311
  189SAPI   H3R21797   5.625   6.196   6.481  1.2797 -1.1245 -1.6149
  189SAPI   H3S21798   5.535   6.354   6.467 -0.3068 -1.3157  1.4214
  189SAPI   C2421799   5.664   6.312   6.293 -0.3534 -0.1599 -0.6205
  189SAPI   H4R21800   5.720   6.401   6.328  1.1707 -1.6610  0.9565
  189SAPI   H4S21801   5.596   6.349   6.213  0.4721  0.8597 -0.8729
  189SAPI   C2521802   5.753   6.204   6.252  0.2835  0.8633  0.5200
  189SAPI   H5R21803   5.809   6.162   6.337 -1.7937  0.4319  1.7443
  189SAPI   C2621804   5.751   6.154   6.125 -0.3959  0.0183  0.5706
  189SAPI   H6R21805   5.820   6.072   6.099  0.4752  1.1066 -0.6903
  189SAPI   C2721806   5.686   6.222   6.002  0.1828  0.0926 -0.1807
  189SAPI   H7R21807   5.617   6.304   6.028 -0.3993 -0.0931 -1.1110
  189SAPI   H7S21808   5.621   6.141   5.963 -2.8351  1.9599  0.6283
  189SAPI   C2821809   5.793   6.260   5.906 -0.3169 -0.2802 -0.0271
  189SAPI   H8R21810   5.882   6.312   5.944 -0.4454  0.1369 -0.2889
  189SAPI   C2921811   5.802   6.225   5.776 -0.8580  0.9013  0.9386
  189SAPI   H9R21812   5.898   6.235   5.723 -1.9028  2.4878 -0.7698
  189SAPI  C21021813   5.704   6.140   5.705  0.0949  0.2344 -0.3802
  189SAPI  H10R21814   5.693   6.047   5.764 -0.7529 -0.3255 -1.3864
  189SAPI  H10S21815   5.762   6.108   5.615  2.2819  1.0951  0.6530
  189SAPI  C21121816   5.561   6.173   5.673 -0.6056 -0.5720  0.3031
  189SAPI  H11R21817   5.485   6.156   5.750  1.4331 -0.7842  2.3591
  189SAPI  C21221818   5.522   6.211   5.551 -0.5375  0.2579  0.5771
  189SAPI  H12R21819   5.414   6.222   5.536 -0.2412  3.6394  0.0491
  189SAPI  C21321820   5.601   6.242   5.422 -0.1684 -0.2089  0.0794
  189SAPI  H13R21821   5.710   6.222   5.434 -0.5282 -2.0520  0.6429
  189SAPI  H13S21822   5.597   6.352   5.409 -1.2897 -0.1580  0.7120
  189SAPI  C21421823   5.550   6.178   5.296 -0.4291  0.1888 -0.0273
  189SAPI  H14R21824   5.492   6.085   5.308  1.7780 -1.4192 -1.1646
  189SAPI  C21521825   5.570   6.223   5.171  0.3656  0.1130  0.2219
  189SAPI  H15R21826   5.536   6.157   5.090 -0.3612 -0.1428  0.7267
  189SAPI  C21621827   5.655   6.340   5.128 -0.2070  0.1209 -0.3907
  189SAPI  H16R21828   5.708   6.378   5.218 -2.8618  1.2219  0.8309
  189SAPI  H16S21829   5.587   6.423   5.096 -0.3749 -0.2406 -0.9833
  189SAPI  C21721830   5.767   6.311   5.023 -0.0525 -0.3071  0.4486
  189SAPI  H17R21831   5.827   6.221   5.047  1.4269  0.0784 -1.5672
  189SAPI  H17S21832   5.823   6.407   5.012 -2.1926  0.7637 -2.2351
  189SAPI  C21821833   5.712   6.313   4.882 -0.5573  0.2039  0.2311
  189SAPI  H18R21834   5.644   6.399   4.862 -0.0812  0.1135 -2.0577
  189SAPI  H18S21835   5.645   6.225   4.871 -2.1913  1.2133  1.5527
  189SAPI  C21921836   5.826   6.316   4.786  0.2826  0.2870  0.5985
  189SAPI  H19R21837   5.893   6.229   4.808 -0.6329 -0.5464  0.1896
  189SAPI  H19S21838   5.886   6.409   4.793  1.2974 -0.4530  2.9052
  189SAPI  C22021839   5.788   6.301   4.638 -0.2261  0.7720  0.1816
  189SAPI  H20R21840   5.699   6.358   4.605 -1.9386 -1.3025  1.0194
  189SAPI  H20S21841   5.758   6.196   4.618  0.0237  0.8555 -0.6458
  189SAPI  H20T21842   5.873   6.314   4.568  0.1248 -1.6594  0.0704
  189SAPI   C3321843   5.457   5.748   5.873  0.0191  0.2024  0.3984
  189SAPI   H3X21844   5.387   5.829   5.842 -0.7244 -0.9752 -1.1207
  189SAPI   H3Y21845   5.397   5.655   5.865 -0.0640  0.4402 -3.7444
  189SAPI   C3421846   5.565   5.746   5.770  0.0797  0.3323  0.2210
  189SAPI   H4X21847   5.616   5.648   5.772  0.1978  0.3051 -1.9286
  189SAPI   H4Y21848   5.641   5.826   5.783  0.3389  0.0844  0.2344
  189SAPI   C3521849   5.501   5.752   5.629 -0.0852  0.0888 -0.8172
  189SAPI   H5X21850   5.454   5.852   5.617  3.1057  1.9995  1.1514
  189SAPI   H5Y21851   5.416   5.680   5.625 -0.9981  0.8584  2.0639
  189SAPI   C3621852   5.600   5.731   5.515 -0.6117  0.3922  0.0019
  189SAPI   H6X21853   5.663   5.641   5.535  0.8121  1.7189  1.8596
  189SAPI   H6Y21854   5.666   5.820   5.508  0.1168 -0.1723 -0.4937
  189SAPI   C3721855   5.522   5.725   5.377  0.4562 -0.2290  0.2791
  189SAPI   H7X21856   5.443   5.804   5.378  1.7912  1.2970 -2.6393
  189SAPI   H7Y21857   5.475   5.627   5.360  0.0397 -0.0140  0.1874
  189SAPI   C3821858   5.620   5.741   5.258  0.0357  0.0203 -0.8503
  189SAPI   H8X21859   5.680   5.648   5.254  0.1999  0.0081  1.1087
  189SAPI   H8Y21860   5.692   5.819   5.291 -0.8895 -0.1548  1.8482
  189SAPI   C3921861   5.568   5.782   5.121  0.6302  0.1471  0.5006
  189SAPI   H9X21862   5.647   5.826   5.057 -1.3556  0.8758 -1.5852
  189SAPI   H9Y21863   5.492   5.863   5.122  0.1418 -0.1929 -1.9523
  189SAPI  C31021864   5.501   5.667   5.044  0.5764 -0.0578  0.0107
  189SAPI  H10X21865   5.429   5.624   5.116  0.7205  1.7487  1.2951
  189SAPI  H10Y21866   5.579   5.594   5.014  0.2237  0.1047 -1.4190
  189SAPI  C31121867   5.440   5.717   4.903 -0.2211 -0.8707 -0.4755
  189SAPI  H11X21868   5.523   5.765   4.847  0.2201 -1.7800 -0.6354
  189SAPI  H11Y21869   5.373   5.803   4.922  0.7325 -0.4199  1.0457
  189SAPI  C31221870   5.366   5.606   4.819  0.1802 -0.1304 -0.6485
  189SAPI  H12X21871   5.273   5.579   4.873 -1.0055  0.9543 -2.0663
  189SAPI  H12Y21872   5.433   5.518   4.821  1.1144  0.5746 -0.3321
  189SAPI  C31321873   5.333   5.643   4.673 -0.8010  0.0089 -0.5114
  189SAPI  H13X21874   5.429   5.690   4.643 -1.4789  1.9014  0.1041
  189SAPI  H13Y21875   5.249   5.715   4.672 -1.6362 -0.9502 -0.9017
  189SAPI  C31421876   5.306   5.521   4.583  0.1939  0.5415  0.8673
  189SAPI  H14X21877   5.392   5.453   4.598 -0.4074 -1.1743 -2.5241
  189SAPI  H14Y21878   5.300   5.551   4.476 -1.6897  1.3030  1.1566
  189SAPI  C31521879   5.174   5.450   4.633 -0.5899 -0.0212  0.2925
  189SAPI  H15X21880   5.089   5.504   4.586  0.2632  0.2434 -1.0015
  189SAPI  H15Y21881   5.162   5.456   4.743 -0.1853  1.1990  0.2786
  189SAPI  C31621882   5.153   5.309   4.582 -0.3081  0.5687  0.3026
  189SAPI  H16X21883   5.160   5.311   4.471 -0.6690  0.1580  0.2712
  189SAPI  H16Y21884   5.055   5.266   4.613 -0.1900  0.7276  0.9038
  189SAPI  C31721885   5.254   5.209   4.636 -0.3173  0.2541  0.3067
  189SAPI  H17X21886   5.251   5.204   4.747 -2.7321  0.3570  0.2978
  189SAPI  H17Y21887   5.354   5.248   4.608  0.2441 -1.1325  0.2893
  189SAPI  C31821888   5.224   5.060   4.594 -0.2842  0.0457 -0.3949
  189SAPI  H18X21889   5.116   5.037   4.604 -0.0433 -0.6848  0.7467
  189SAPI  H18Y21890   5.277   4.991   4.663 -1.1833  1.1128  1.4465
  189SAPI  H18Z21891   5.259   5.040   4.491 -1.3711 -2.6386 -0.3133
  190SAPI   C1221892   4.880   5.194   6.525  0.0860  0.0613  0.0543
  190SAPI    H221893   4.791   5.135   6.494 -0.1097  0.4458 -0.1362
  190SAPI    O221894   4.971   5.108   6.590  0.3633  0.1903  0.3226
  190SAPI   HO221895   4.960   5.123   6.684 -0.6198 -0.8563  0.4087
  190SAPI   C1321896   4.953   5.259   6.403 -0.0211 -0.1831  0.1907
  190SAPI    H321897   4.863   5.315   6.370  1.7823  0.6895 -3.8178
  190SAPI    O321898   4.992   5.176   6.293  0.1004  0.1961  0.4847
  190SAPI   HO321899   5.001   5.084   6.318 -1.0582  0.2798  1.2868
  190SAPI   C1421900   5.062   5.356   6.451 -0.0824 -0.1195  0.4450
  190SAPI    H421901   5.146   5.292   6.485  0.0974  1.1732  2.5854
  190SAPI    O421902   5.113   5.437   6.343  0.1963  0.1090 -0.0246
  190SAPI   HO421903   5.199   5.412   6.307  0.5399  2.3688 -0.9178
  190SAPI   C1521904   5.047   5.440   6.578  0.4077  0.6745 -0.3186
  190SAPI    H521905   5.014   5.535   6.532 -3.6179  0.1296  1.0429
  190SAPI    O521906   5.176   5.473   6.630  0.1191  0.3397 -0.8682
  190SAPI   HO521907   5.169   5.556   6.677 -0.0875 -0.9360  1.4783
  190SAPI   C1621908   4.955   5.381   6.685  0.0178 -1.4798 -0.3487
  190SAPI    H621909   5.009   5.316   6.756  0.4307  0.8921  1.6482
  190SAPI    O621910   4.906   5.493   6.763 -0.0244  0.1652 -0.1901
  190SAPI   HO621911   4.912   5.567   6.703  1.3750  1.6494  1.6784
  190SAPI   C1121912   4.837   5.301   6.628  0.6356  0.3036  0.5053
  190SAPI    H121913   4.773   5.367   6.566  1.3440 -0.5600 -1.2117
  190SAPI     P21914   4.590   5.248   6.732  0.1754  0.1532  0.0847
  190SAPI   O1321915   4.530   5.368   6.670 -0.3973 -0.4573 -0.0936
  190SAPI   O1421916   4.544   5.207   6.870  0.4006 -0.1330  0.0442
  190SAPI   O1221917   4.755   5.242   6.733 -0.0367 -0.3087  0.2854
  190SAPI   O1121918   4.566   5.123   6.631 -0.4952 -0.1865 -0.0117
  190SAPI    C121919   4.433   5.070   6.618  0.0710 -0.7182  0.1297
  190SAPI    HA21920   4.403   4.998   6.697 -0.8043  1.2378  1.6669
  190SAPI    HB21921   4.354   5.147   6.604 -0.4943 -1.0076  1.5539
  190SAPI    C221922   4.411   4.991   6.492  0.2418 -0.0347 -0.0483
  190SAPI    HS21923   4.422   4.884   6.517  1.2720 -0.0849 -0.6410
  190SAPI   O2121924   4.500   5.044   6.398  0.4646  0.2044  0.2453
  190SAPI   C2121925   4.540   4.950   6.313 -0.0424 -0.4203  0.2264
  190SAPI   O2221926   4.506   4.835   6.309 -0.3958  0.2552 -0.0387
  190SAPI   C2221927   4.622   5.014   6.203  0.1263  0.0812  0.2222
  190SAPI   H2R21928   4.618   5.125   6.200 -2.3012  0.0615 -3.1269
  190SAPI   H2S21929   4.722   4.997   6.248  0.1571 -1.8434 -0.4887
  190SAPI    C321930   4.256   5.003   6.449 -0.6766  0.4749  0.2037
  190SAPI    HX21931   4.231   5.111   6.438  3.3265  1.5091 -0.2140
  190SAPI    HY21932   4.191   4.971   6.533  0.2353  2.7566  1.8990
  190SAPI   O3121933   4.233   4.939   6.319  0.1481  0.5845 -0.4768
  190SAPI   C3121934   4.205   4.808   6.320 -0.3531  0.0417  0.5224
  190SAPI   O3221935   4.210   4.742   6.422  0.4103 -0.3685 -0.5938
  190SAPI   C3221936   4.165   4.766   6.178  0.8515  0.0582  0.0022
  190SAPI   H2X21937   4.192   4.846   6.106 -1.8599  1.7456  0.6969
  190SAPI   H2Y21938   4.055   4.759   6.171  0.5871  2.9989  0.1661
  190SAPI   C2321939   4.605   4.950   6.066  0.0820  0.4750  0.6676
  190SAPI   H3R21940   4.497   4.931   6.047  0.2936 -1.4431  1.2185
  190SAPI   H3S21941   4.658   4.852   6.074  0.0915  0.4697  0.5451
  190SAPI   C2421942   4.672   5.011   5.938 -0.1971  0.0276  0.5545
  190SAPI   H4R21943   4.649   5.119   5.937 -1.8602 -0.2707  1.8265
  190SAPI   H4S21944   4.633   4.960   5.848 -0.3088 -0.8820  1.0964
  190SAPI   C2521945   4.821   4.997   5.953 -0.7184  0.0040  0.1332
  190SAPI   H5R21946   4.861   4.985   6.056 -0.1922 -1.9743 -0.2501
  190SAPI   C2621947   4.912   4.987   5.851 -0.0766  0.2741 -0.4082
  190SAPI   H6R21948   5.017   5.001   5.883 -0.1514 -0.5854  0.2628
  190SAPI   C2721949   4.883   4.992   5.699  0.2472  0.1876  0.1963
  190SAPI   H7R21950   4.870   5.098   5.670  3.9225  1.4325  2.4612
  190SAPI   H7S21951   4.786   4.940   5.678  0.2600  0.2422 -0.0003
  190SAPI   C2821952   4.997   4.945   5.614  0.2006  0.9515 -0.0738
  190SAPI   H8R21953   5.099   4.962   5.653  0.4327  1.1666 -0.7639
  190SAPI   C2921954   4.991   4.864   5.501  0.9756  0.2640 -0.1788
  190SAPI   H9R21955   5.089   4.843   5.456  0.7898 -0.1810 -0.3859
  190SAPI  C21021956   4.870   4.808   5.438 -0.2082  0.2179 -0.4796
  190SAPI  H10R21957   4.791   4.823   5.515 -0.0966 -0.5884 -0.1958
  190SAPI  H10S21958   4.875   4.698   5.452 -5.2171 -0.6591 -2.9277
  190SAPI  C21121959   4.838   4.856   5.298 -1.2429  0.3265 -1.0572
  190SAPI  H11R21960   4.839   4.966   5.291  0.1708  0.3903 -0.1811
  190SAPI  C21221961   4.800   4.776   5.201  0.6845  0.1621 -0.8340
  190SAPI  H12R21962   4.769   4.823   5.107  0.1587  1.2704 -0.1269
  190SAPI  C21321963   4.779   4.624   5.202 -0.5388 -0.0846 -0.5566
  190SAPI  H13R21964   4.669   4.608   5.210 -0.5988  0.7404  0.5201
  190SAPI  H13S21965   4.817   4.581   5.297 -0.3918  0.4449 -0.3698
  190SAPI  C21421966   4.845   4.558   5.089 -0.0998  0.6065  0.1846
  190SAPI  H14R21967   4.954   4.561   5.101  0.1843 -1.0916 -1.4281
  190SAPI  C21521968   4.790   4.473   4.998  0.2176 -1.0091 -0.6918
  190SAPI  H15R21969   4.855   4.449   4.913  1.4882 -0.0545 -0.0443
  190SAPI  C21621970   4.644   4.439   4.983 -0.3593  0.0391 -0.0753
  190SAPI  H16R21971   4.616   4.440   4.875  0.7397  0.9726 -0.3802
  190SAPI  H16S21972   4.588   4.521   5.033 -0.4808  1.1178 -1.8776
  190SAPI  C21721973   4.613   4.305   5.042 -0.2565  0.4990 -0.3074
  190SAPI  H17R21974   4.674   4.281   5.132 -0.9874  2.8490  0.8964
  190SAPI  H17S21975   4.627   4.219   4.972  1.9136  1.0914 -0.6939
  190SAPI  C21821976   4.472   4.308   5.110  0.3443  0.7491  0.5253
  190SAPI  H18R21977   4.398   4.339   5.033  1.2417  0.8193 -0.3321
  190SAPI  H18S21978   4.460   4.391   5.182 -2.1966  1.1540 -0.2802
  190SAPI  C21921979   4.437   4.174   5.168  0.7801  0.2193 -0.2262
  190SAPI  H19R21980   4.493   4.148   5.260 -0.7004 -0.5413  0.4944
  190SAPI  H19S21981   4.457   4.092   5.096 -0.9624 -1.1214  0.7494
  190SAPI  C22021982   4.286   4.163   5.209  0.4157 -0.3920  0.1138
  190SAPI  H20R21983   4.264   4.249   5.276  0.3696  1.5195 -2.1936
  190SAPI  H20S21984   4.260   4.064   5.252 -0.6659 -0.1788 -0.0218
  190SAPI  H20T21985   4.227   4.178   5.115  0.4036 -0.9648  0.0261
  190SAPI   C3321986   4.208   4.622   6.137 -0.6607  0.0409  0.4678
  190SAPI   H3X21987   4.190   4.536   6.205  0.1419 -1.8547 -1.5699
  190SAPI   H3Y21988   4.319   4.632   6.134 -0.5990 -0.7261 -0.6963
  190SAPI   C3421989   4.162   4.577   5.990  0.7871  0.1278 -0.1950
  190SAPI   H4X21990   4.053   4.556   5.978  0.8338 -3.2925  3.5322
  190SAPI   H4Y21991   4.201   4.474   5.973  2.3635  0.6763  0.0149
  190SAPI   C3521992   4.203   4.661   5.874  0.6167  0.9711 -0.2596
  190SAPI   H5X21993   4.201   4.770   5.896 -0.0075  0.7828  0.6839
  190SAPI   H5Y21994   4.140   4.636   5.787  1.4750 -0.7341 -0.4417
  190SAPI   C3621995   4.349   4.651   5.821 -0.3137  0.8091  0.2467
  190SAPI   H6X21996   4.366   4.542   5.808  1.1915  1.0508  0.0291
  190SAPI   H6Y21997   4.425   4.699   5.886 -0.7795  0.7217  0.8642
  190SAPI   C3721998   4.350   4.724   5.686  0.1456  0.4951 -0.1245
  190SAPI   H7X21999   4.359   4.834   5.702  2.8188  0.2158  0.9283
  190SAPI   H7Y22000   4.258   4.704   5.628  0.2716  1.8587 -0.8318
  190SAPI   C3822001   4.480   4.681   5.603  0.1961  0.3506 -0.4772
  190SAPI   H8X22002   4.470   4.575   5.572  2.0881  0.6954 -2.5778
  190SAPI   H8Y22003   4.566   4.680   5.674  0.8380 -2.7937 -1.1503
  190SAPI   C3922004   4.509   4.760   5.482 -0.5555 -0.7117 -0.2230
  190SAPI   H9X22005   4.582   4.704   5.419 -1.5165  0.4565 -2.4899
  190SAPI   H9Y22006   4.552   4.862   5.488 -0.7462 -0.5056 -1.7713
  190SAPI  C31022007   4.380   4.757   5.396 -0.4229  0.1728 -0.5265
  190SAPI  H10X22008   4.319   4.848   5.415 -0.0101 -0.0541  2.2281
  190SAPI  H10Y22009   4.321   4.670   5.431  1.2063 -0.7335  0.0843
  190SAPI  C31122010   4.406   4.746   5.252 -0.3356  0.2823  0.2672
  190SAPI  H11X22011   4.457   4.654   5.216  0.5366 -0.4001  3.0374
  190SAPI  H11Y22012   4.474   4.829   5.222 -1.1014 -0.0413 -2.6813
  190SAPI  C31222013   4.273   4.746   5.171 -0.2285 -0.6417 -0.3993
  190SAPI  H12X22014   4.261   4.841   5.114  1.5669 -0.7566 -1.0225
  190SAPI  H12Y22015   4.185   4.750   5.239 -0.5533 -1.7837 -0.7329
  190SAPI  C31322016   4.262   4.640   5.069 -0.0314  0.3240 -0.3798
  190SAPI  H13X22017   4.152   4.633   5.052  0.0854  2.7451 -2.6735
  190SAPI  H13Y22018   4.287   4.540   5.111 -0.2727 -1.0761 -3.2827
  190SAPI  C31422019   4.337   4.660   4.934  0.3303  0.4830  0.0618
  190SAPI  H14X22020   4.444   4.675   4.958  0.5201  0.3543 -0.6699
  190SAPI  H14Y22021   4.305   4.755   4.887 -1.9424 -0.1360  0.2190
  190SAPI  C31522022   4.308   4.557   4.829  0.4268 -0.2956 -0.2846
  190SAPI  H15X22023   4.203   4.564   4.794  0.9071 -2.0271 -2.3063
  190SAPI  H15Y22024   4.313   4.456   4.874  2.8865 -0.4322 -0.6870
  190SAPI  C31622025   4.405   4.573   4.709  0.1471 -0.2341  0.1477
  190SAPI  H16X22026   4.506   4.594   4.750  0.1992  1.5296 -0.7698
  190SAPI  H16Y22027   4.376   4.666   4.655  2.5913 -0.4146 -1.6818
  190SAPI  C31722028   4.418   4.446   4.617  0.7588  0.2993 -0.0932
  190SAPI  H17X22029   4.467   4.362   4.670 -1.1465 -2.2685 -2.0676
  190SAPI  H17Y22030   4.477   4.481   4.529 -0.2055 -0.7891 -1.2212
  190SAPI  C31822031   4.284   4.393   4.558  0.0646 -0.4818  0.0387
  190SAPI  H18X22032   4.219   4.353   4.638  0.9558 -0.2602  0.8954
  190SAPI  H18Y22033   4.299   4.315   4.481  0.0452 -1.3565  0.9009
  190SAPI  H18Z22034   4.224   4.471   4.505 -0.3997 -0.8403  0.0311
  191SAPI   C1222035   2.553   3.978   2.194 -0.5640 -0.3405  0.1846
  191SAPI    H222036   2.486   3.925   2.123  1.1252 -1.4533 -0.6346
  191SAPI    O222037   2.577   3.888   2.294 -0.2306  0.0794  0.7601
  191SAPI   HO222038   2.507   3.822   2.298 -1.4836  1.0973 -1.9527
  191SAPI   C1322039   2.683   4.013   2.123  0.2741  0.7731  0.7739
  191SAPI    H322040   2.652   4.074   2.036  0.7538  0.4673  0.3838
  191SAPI    O322041   2.745   3.891   2.068  0.2904  0.1333 -0.2016
  191SAPI   HO322042   2.717   3.822   2.128  1.7166 -0.8269 -0.5825
  191SAPI   C1422043   2.780   4.095   2.203  0.2707 -0.1123  0.3215
  191SAPI    H422044   2.804   4.037   2.295 -1.7465 -0.7072  0.5159
  191SAPI    O422045   2.895   4.127   2.123 -0.3607 -0.3485 -0.3837
  191SAPI   HO422046   2.969   4.091   2.173 -0.6849  0.7493  0.9434
  191SAPI   C1522047   2.708   4.221   2.262 -0.1779  0.3888 -0.1582
  191SAPI    H522048   2.701   4.297   2.181 -0.8848 -0.0476 -0.5219
  191SAPI    O522049   2.805   4.289   2.348  0.8434  0.3903  0.1685
  191SAPI   HO522050   2.831   4.238   2.425  2.4638  1.2718  0.2343
  191SAPI   C1622051   2.578   4.188   2.331  0.2512 -0.7360 -0.0150
  191SAPI    H622052   2.584   4.124   2.422 -1.1922 -3.7450 -1.8921
  191SAPI    O622053   2.502   4.306   2.348 -0.4628  0.3570 -0.4440
  191SAPI   HO622054   2.425   4.274   2.395  0.2303  0.5263  0.8335
  191SAPI   C1122055   2.483   4.106   2.237 -0.4830 -0.0530  0.5778
  191SAPI    H122056   2.477   4.167   2.145  1.8163  1.1147  1.1336
  191SAPI     P22057   2.221   4.062   2.205 -0.2826 -0.3081 -0.1664
  191SAPI   O1322058   2.146   3.947   2.255  0.2113  0.2622 -0.4925
  191SAPI   O1422059   2.254   4.070   2.061 -0.1363  0.3458  0.5793
  191SAPI   O1222060   2.353   4.077   2.297 -0.0661 -0.1508  0.5393
  191SAPI   O1122061   2.139   4.190   2.237  0.0085  0.1123  0.2924
  191SAPI    C122062   2.156   4.277   2.344 -0.0579  0.6453 -0.2997
  191SAPI    HA22063   2.259   4.319   2.352  0.4881 -0.0965 -2.4989
  191SAPI    HB22064   2.091   4.366   2.336 -0.7261  0.5765  3.0280
  191SAPI    C222065   2.097   4.218   2.475 -0.0195 -0.0850  0.2743
  191SAPI    HS22066   2.106   4.293   2.557  0.2345  0.2083 -0.0164
  191SAPI   O2122067   2.160   4.102   2.516 -0.5484 -0.1576 -0.1480
  191SAPI   C2122068   2.280   4.125   2.569  0.4962  0.6077  0.7696
  191SAPI   O2222069   2.337   4.230   2.585  0.1677  0.0190 -0.1271
  191SAPI   C2222070   2.339   3.988   2.605  0.3142  0.1850  0.0967
  191SAPI   H2R22071   2.258   3.925   2.647  0.4202 -0.2735 -0.3755
  191SAPI   H2S22072   2.382   3.944   2.512  1.4494  1.2390  0.1035
  191SAPI    C322073   1.939   4.194   2.470  0.0156  0.0252 -0.0945
  191SAPI    HX22074   1.924   4.110   2.399 -2.6214 -1.1457  1.6937
  191SAPI    HY22075   1.876   4.280   2.437 -0.0867 -0.1318 -0.3136
  191SAPI   O3122076   1.895   4.166   2.611 -0.0382 -0.2438  0.3885
  191SAPI   C3122077   1.885   4.039   2.632 -0.3818 -0.3759  0.4407
  191SAPI   O3222078   1.909   3.952   2.548  0.3415  0.1415  0.0908
  191SAPI   C3222079   1.829   3.997   2.769  0.5599 -0.4522  0.7983
  191SAPI   H2X22080   1.738   3.936   2.745  1.3920 -0.9174 -1.3460
  191SAPI   H2Y22081   1.809   4.089   2.827 -1.2807 -1.7823  2.4588
  191SAPI   C2322082   2.460   3.985   2.701 -0.3537 -0.5074  0.0243
  191SAPI   H3R22083   2.539   4.046   2.651  1.0808 -0.5834  2.1006
  191SAPI   H3S22084   2.488   3.879   2.716  2.9287  0.3346  0.6531
  191SAPI   C2422085   2.419   4.045   2.837 -0.0210 -0.0226 -0.3741
  191SAPI   H4R22086   2.353   3.964   2.873 -0.0024 -0.6296 -1.6477
  191SAPI   H4S22087   2.365   4.141   2.829  0.4669  0.2549 -0.3939
  191SAPI   C2522088   2.541   4.054   2.922 -0.7621 -0.2366 -0.3291
  191SAPI   H5R22089   2.628   4.100   2.872 -0.2784  0.9173  1.4648
  191SAPI   C2622090   2.563   4.013   3.050  0.4506 -0.3378 -0.1485
  191SAPI   H6R22091   2.653   4.055   3.097  0.1961 -0.5075  0.4890
  191SAPI   C2722092   2.453   3.948   3.131  0.3109 -0.2565 -0.4861
  191SAPI   H7R22093   2.400   3.873   3.068 -0.8251 -0.0242  0.1669
  191SAPI   H7S22094   2.381   4.022   3.173  1.8228  0.3162  1.2220
  191SAPI   C2822095   2.515   3.882   3.254  0.0106  1.5349  0.3069
  191SAPI   H8R22096   2.536   3.774   3.247  0.8930  1.7059  0.1958
  191SAPI   C2922097   2.551   3.942   3.369  1.3973 -0.0955  0.0527
  191SAPI   H9R22098   2.605   3.890   3.450  1.1376 -1.1937 -0.4667
  191SAPI  C21022099   2.520   4.094   3.382 -0.1263 -0.1229 -0.4577
  191SAPI  H10R22100   2.502   4.150   3.288  2.2211 -0.2137 -1.0367
  191SAPI  H10S22101   2.622   4.136   3.402  0.3205 -0.1976 -2.4391
  191SAPI  C21122102   2.420   4.136   3.485 -0.0336 -0.3559 -0.2010
  191SAPI  H11R22103   2.329   4.174   3.436 -0.3544  1.9655  1.9866
  191SAPI  C21222104   2.430   4.142   3.619  0.5991 -0.4297  0.1546
  191SAPI  H12R22105   2.348   4.182   3.681  0.7565  0.9776 -0.5193
  191SAPI  C21322106   2.551   4.110   3.699 -0.3739  0.3937 -0.0974
  191SAPI  H13R22107   2.644   4.098   3.641  1.2480 -0.0622  2.4204
  191SAPI  H13S22108   2.527   4.012   3.747 -0.4557 -0.6665 -2.2133
  191SAPI  C21422109   2.567   4.214   3.803  0.0081 -0.5772 -0.2103
  191SAPI  H14R22110   2.615   4.306   3.767 -0.6294  0.4580  1.4582
  191SAPI  C21522111   2.518   4.221   3.927 -0.7094 -0.0371 -0.0513
  191SAPI  H15R22112   2.548   4.302   3.995 -1.3277  0.0365  0.1425
  191SAPI  C21622113   2.432   4.113   3.997 -0.3402 -0.0111  0.6211
  191SAPI  H16R22114   2.493   4.066   4.077 -0.3426 -0.4781  0.3548
  191SAPI  H16S22115   2.387   4.042   3.925 -0.4385  1.2727 -0.6171
  191SAPI  C21722116   2.304   4.178   4.066  0.1522  0.0207  0.4477
  191SAPI  H17R22117   2.245   4.090   4.101  1.0428 -0.2938  1.1991
  191SAPI  H17S22118   2.242   4.232   3.991  2.2048  0.6342 -0.8775
  191SAPI  C21822119   2.347   4.272   4.181  0.8884  0.7660 -0.5042
  191SAPI  H18R22120   2.381   4.370   4.141 -2.0440  1.4452 -1.5915
  191SAPI  H18S22121   2.420   4.219   4.247 -0.9789 -0.4533  0.6767
  191SAPI  C21922122   2.246   4.309   4.295  0.3320 -0.5128  0.3308
  191SAPI  H19R22123   2.149   4.327   4.245  1.0085  0.6901 -0.6153
  191SAPI  H19S22124   2.295   4.399   4.339  2.3694 -0.4595 -1.8320
  191SAPI  C22022125   2.233   4.199   4.398  0.1598  0.3203 -0.3058
  191SAPI  H20R22126   2.322   4.177   4.461  0.5684  0.6931 -0.7510
  191SAPI  H20S22127   2.199   4.105   4.349  3.4743 -2.4567  2.2542
  191SAPI  H20T22128   2.152   4.224   4.471  0.0346  0.3362 -0.4493
  191SAPI   C3322129   1.913   3.892   2.840 -0.0489  0.0045 -0.6291
  191SAPI   H3X22130   1.945   3.813   2.768  0.7697  0.1481 -0.4361
  191SAPI   H3Y22131   1.843   3.845   2.912 -0.8218  1.5473 -0.3457
  191SAPI   C3422132   2.033   3.971   2.904 -0.1118 -0.1003 -0.8111
  191SAPI   H4X22133   2.078   4.038   2.827  0.7278  3.1931  2.2658
  191SAPI   H4Y22134   2.113   3.905   2.943  0.5469  1.4296  0.5634
  191SAPI   C3522135   1.991   4.057   3.025  0.2085  0.2746 -0.9033
  191SAPI   H5X22136   1.910   4.001   3.076 -0.4440  1.4236 -0.6370
  191SAPI   H5Y22137   1.939   4.145   2.981 -0.0046  0.0805 -1.0479
  191SAPI   C3622138   2.102   4.095   3.119  0.4217 -0.3273  0.3546
  191SAPI   H6X22139   2.192   4.130   3.064  0.7123  0.2459  1.1716
  191SAPI   H6Y22140   2.131   3.994   3.155  0.7925 -1.0840 -1.9047
  191SAPI   C3722141   2.057   4.194   3.231  0.8720  0.2049 -0.0589
  191SAPI   H7X22142   2.022   4.288   3.183  0.9026  0.3968  0.2945
  191SAPI   H7Y22143   2.145   4.231   3.288 -1.5545  2.4225  2.5573
  191SAPI   C3822144   1.955   4.147   3.343  0.2863 -0.1583 -0.2986
  191SAPI   H8X22145   1.996   4.047   3.371 -1.4755 -0.9783 -0.5305
  191SAPI   H8Y22146   1.854   4.123   3.305  0.4580  0.4187 -1.1445
  191SAPI   C3922147   1.928   4.255   3.447 -0.5032 -0.7446 -0.5524
  191SAPI   H9X22148   1.868   4.334   3.398  0.5107  1.5880  1.7664
  191SAPI   H9Y22149   2.022   4.309   3.470 -0.3680 -1.9504  2.0551
  191SAPI  C31022150   1.865   4.213   3.576  0.7266 -0.0497  0.1023
  191SAPI  H10X22151   1.759   4.180   3.573  0.2434  1.1478  2.3257
  191SAPI  H10Y22152   1.861   4.309   3.632 -1.7419  1.7843 -2.9188
  191SAPI  C31122153   1.953   4.107   3.651  0.1592  0.0580  0.7162
  191SAPI  H11X22154   2.060   4.135   3.665 -0.3119  1.0324  2.6864
  191SAPI  H11Y22155   1.944   4.015   3.590 -0.3966  1.0962 -0.8530
  191SAPI  C31222156   1.895   4.072   3.790  0.7467 -0.4195  0.3615
  191SAPI  H12X22157   1.931   3.975   3.830  0.7117 -0.8147 -0.5388
  191SAPI  H12Y22158   1.787   4.052   3.768  1.1236 -0.3394 -1.8319
  191SAPI  C31322159   1.923   4.178   3.898 -0.4771  0.5752 -0.8396
  191SAPI  H13X22160   1.902   4.281   3.863 -0.2110  0.6927 -0.6561
  191SAPI  H13Y22161   2.030   4.174   3.928 -1.1905  2.6097  2.4809
  191SAPI  C31422162   1.841   4.157   4.021  0.6302  0.3601 -0.5432
  191SAPI  H14X22163   1.834   4.052   4.057 -1.0095  0.4430 -0.5528
  191SAPI  H14Y22164   1.735   4.189   4.008  0.8738  2.1373  1.2995
  191SAPI  C31522165   1.903   4.236   4.139 -0.5256 -0.4859  0.4030
  191SAPI  H15X22166   1.924   4.342   4.114 -0.9042 -0.5827 -0.3594
  191SAPI  H15Y22167   2.003   4.190   4.157 -0.7721 -1.5932 -0.8801
  191SAPI  C31622168   1.831   4.236   4.271  0.1347  0.1375 -0.2448
  191SAPI  H16X22169   1.907   4.265   4.346  1.5211  1.3764 -2.0334
  191SAPI  H16Y22170   1.812   4.134   4.310  0.7308 -0.2959 -1.0516
  191SAPI  C31722171   1.721   4.332   4.293 -0.1550 -0.7817  0.6619
  191SAPI  H17X22172   1.639   4.294   4.228  0.1693  1.6852 -1.3295
  191SAPI  H17Y22173   1.752   4.431   4.254  1.2444 -1.4526 -0.0121
  191SAPI  C31822174   1.668   4.356   4.431  0.2864 -0.2768 -0.1373
  191SAPI  H18X22175   1.745   4.370   4.509 -1.9608  0.7541  2.0378
  191SAPI  H18Y22176   1.593   4.279   4.457  0.5415 -1.9261 -3.6411
  191SAPI  H18Z22177   1.600   4.444   4.425 -1.5308 -1.7078 -2.8420
  192SAPI   C1222178   4.064   4.441   2.269 -0.1296 -0.6724  0.3147
  192SAPI    H222179   4.048   4.501   2.361  0.2895 -3.8780  2.6469
  192SAPI    O222180   4.205   4.436   2.247 -0.1899  0.1076  0.8583
  192SAPI   HO222181   4.216   4.477   2.161  0.0804 -2.6821 -0.5281
  192SAPI   C1322182   3.998   4.305   2.278 -0.5299 -0.2132 -0.2293
  192SAPI    H322183   3.888   4.315   2.291 -0.3181  0.1104  1.5268
  192SAPI    O322184   4.050   4.238   2.397  0.3017  0.2672  0.9439
  192SAPI   HO322185   3.998   4.161   2.419 -0.2029 -0.8685 -3.4339
  192SAPI   C1422186   4.028   4.219   2.160 -0.2602  1.4221  0.0395
  192SAPI    H422187   4.137   4.196   2.166 -0.7628 -1.2824  0.1400
  192SAPI    O422188   3.973   4.087   2.161  0.1613 -0.2572  0.5077
  192SAPI   HO422189   4.028   4.029   2.107 -1.2769 -0.7860 -0.4615
  192SAPI   C1522190   3.987   4.285   2.030 -0.2739  0.8874 -0.1128
  192SAPI    H522191   3.878   4.263   2.022 -0.2674 -0.5392  2.5326
  192SAPI    O522192   4.042   4.224   1.912 -0.1300 -0.6113 -0.1826
  192SAPI   HO522193   4.136   4.243   1.909  0.0797 -1.4744  0.5748
  192SAPI   C1622194   3.979   4.435   2.023  0.8086  0.1320 -0.6967
  192SAPI    H622195   4.075   4.460   1.974  0.5823  2.3468 -0.1341
  192SAPI    O622196   3.876   4.491   1.939 -0.1010 -0.1397  0.1399
  192SAPI   HO622197   3.909   4.560   1.881 -2.6418  1.0127 -0.0947
  192SAPI   C1122198   4.002   4.516   2.149  0.6592 -0.4316 -0.7143
  192SAPI    H122199   3.895   4.540   2.167  0.5690 -1.4008  0.1222
  192SAPI     P22200   4.029   4.786   2.166 -0.2601 -0.1256 -0.0458
  192SAPI   O1322201   3.884   4.799   2.166  0.3052 -0.6607 -0.1437
  192SAPI   O1422202   4.105   4.886   2.089  0.0003 -0.3519  0.1530
  192SAPI   O1222203   4.072   4.640   2.106 -0.0869 -0.0707  0.3159
  192SAPI   O1122204   4.069   4.791   2.318 -0.0543  0.3907  0.1228
  192SAPI    C122205   4.207   4.785   2.351  0.6955 -0.2313  0.2745
  192SAPI    HA22206   4.268   4.719   2.285 -0.1628  1.5325 -2.3808
  192SAPI    HB22207   4.249   4.888   2.352 -2.2161  1.0509  1.5867
  192SAPI    C222208   4.224   4.727   2.490 -0.6333  0.3992 -0.1020
  192SAPI    HS22209   4.184   4.624   2.483  1.4118 -0.4643  0.3412
  192SAPI   O2122210   4.175   4.816   2.589  0.4571 -0.3151  0.1489
  192SAPI   C2122211   4.140   4.754   2.706  0.1513 -0.1052  0.2873
  192SAPI   O2222212   4.120   4.637   2.720  0.2864 -0.0992  0.1879
  192SAPI   C2222213   4.120   4.865   2.821  0.1210  0.0107  0.5197
  192SAPI   H2R22214   4.214   4.924   2.825  1.9958 -2.7835  0.4230
  192SAPI   H2S22215   4.043   4.937   2.786  0.1383 -0.6967 -1.0464
  192SAPI    C322216   4.376   4.704   2.518  0.5434  0.5137 -0.4543
  192SAPI    HX22217   4.418   4.806   2.509 -2.1356  1.8776  1.2269
  192SAPI    HY22218   4.422   4.642   2.438  0.6645 -1.8509  1.3311
  192SAPI   O3122219   4.411   4.659   2.655  0.1514 -0.3168  0.5108
  192SAPI   C3122220   4.386   4.527   2.680 -0.7823  0.1381  0.3456
  192SAPI   O3222221   4.334   4.459   2.594 -0.2967  0.0292 -0.0138
  192SAPI   C3222222   4.433   4.494   2.819 -0.1511 -0.4713  0.1869
  192SAPI   H2X22223   4.357   4.531   2.892 -0.4230 -0.1785 -0.2409
  192SAPI   H2Y22224   4.526   4.552   2.840  0.3425 -0.5228 -1.6811
  192SAPI   C2322225   4.082   4.799   2.951  0.2859 -0.0928  0.5090
  192SAPI   H3R22226   4.088   4.870   3.036  1.3454  1.0249 -0.4465
  192SAPI   H3S22227   4.147   4.711   2.969  1.3697  0.0377 -2.1694
  192SAPI   C2422228   3.928   4.767   2.950  0.4466  0.2094 -0.4399
  192SAPI   H4R22229   3.893   4.725   2.853 -2.6719 -1.6171  1.3201
  192SAPI   H4S22230   3.875   4.864   2.964  1.6914  0.6792  1.3716
  192SAPI   C2522231   3.889   4.675   3.057  0.1305 -0.0283  0.5230
  192SAPI   H5R22232   3.924   4.574   3.030  0.3903 -0.1253  1.1972
  192SAPI   C2622233   3.808   4.693   3.163 -0.5042 -0.1286  0.9936
  192SAPI   H6R22234   3.785   4.603   3.222  0.4519 -0.8021  0.3677
  192SAPI   C2722235   3.754   4.826   3.214  0.3623  0.2810 -0.2482
  192SAPI   H7R22236   3.820   4.901   3.165 -1.6117  0.8894 -2.1768
  192SAPI   H7S22237   3.755   4.837   3.325  4.4004  0.2724 -0.1446
  192SAPI   C2822238   3.615   4.853   3.160  0.3745  0.4219  0.3984
  192SAPI   H8R22239   3.606   4.896   3.059 -0.4985 -1.0149 -0.1651
  192SAPI   C2922240   3.510   4.827   3.243  0.8656  0.1022 -1.0497
  192SAPI   H9R22241   3.407   4.841   3.208 -0.6188  1.0393  3.0737
  192SAPI  C21022242   3.505   4.775   3.390 -0.7663  0.0036 -0.7867
  192SAPI  H10R22243   3.597   4.811   3.441  0.4125  0.3996 -3.0449
  192SAPI  H10S22244   3.505   4.664   3.388  0.1082 -0.0108 -0.3557
  192SAPI  C21122245   3.389   4.822   3.468 -0.2503 -0.0186  0.1034
  192SAPI  H11R22246   3.308   4.869   3.410  0.0449  0.6235  0.2034
  192SAPI  C21222247   3.390   4.848   3.599  0.1090 -0.5850 -0.0948
  192SAPI  H12R22248   3.297   4.885   3.646  0.7471  2.7026 -1.1663
  192SAPI  C21322249   3.487   4.804   3.701 -0.0445 -0.5411 -0.2299
  192SAPI  H13R22250   3.509   4.890   3.769 -2.1695 -0.7241  0.7713
  192SAPI  H13S22251   3.590   4.777   3.671  0.6080  0.5685  0.8931
  192SAPI  C21422252   3.432   4.696   3.786 -0.8791 -0.3750  0.6938
  192SAPI  H14R22253   3.324   4.673   3.788 -1.4494  2.1377  1.1762
  192SAPI  C21522254   3.504   4.623   3.874 -0.3681 -0.0328 -0.7726
  192SAPI  H15R22255   3.448   4.537   3.916  0.6257 -0.1815  0.2819
  192SAPI  C21622256   3.646   4.637   3.905 -0.1130  0.7922 -0.0183
  192SAPI  H16R22257   3.647   4.666   4.013  0.6820 -1.1468  0.5448
  192SAPI  H16S22258   3.693   4.729   3.864  1.0819  1.7831  3.2055
  192SAPI  C21722259   3.712   4.504   3.870 -0.6136  0.0243 -0.0332
  192SAPI  H17R22260   3.673   4.420   3.931  0.5015  0.3698  1.1976
  192SAPI  H17S22261   3.819   4.506   3.901 -0.9617  0.3065  1.1956
  192SAPI  C21822262   3.709   4.471   3.719  0.3554  0.0430  0.3729
  192SAPI  H18R22263   3.602   4.471   3.691  0.2493  1.0571  0.7650
  192SAPI  H18S22264   3.738   4.365   3.699 -0.1038  0.1047 -0.6590
  192SAPI  C21922265   3.793   4.567   3.630 -0.0561  0.3373 -0.5451
  192SAPI  H19R22266   3.803   4.664   3.685  2.3358  0.4582 -1.0914
  192SAPI  H19S22267   3.746   4.579   3.530  1.1511 -1.5200 -1.3799
  192SAPI  C22022268   3.934   4.509   3.603 -0.1491  0.1228 -0.5829
  192SAPI  H20R22269   3.986   4.574   3.530  0.9960  2.0037  1.7849
  192SAPI  H20S22270   3.929   4.402   3.573  1.3867  0.0142 -0.5406
  192SAPI  H20T22271   3.995   4.510   3.696  1.7987 -3.1615 -1.6336
  192SAPI   C3322272   4.433   4.346   2.844  0.1153 -0.8978  0.4488
  192SAPI   H3X22273   4.533   4.303   2.821  0.9058  1.3759 -0.6462
  192SAPI   H3Y22274   4.352   4.296   2.786  2.0737 -1.1173 -2.2876
  192SAPI   C3422275   4.418   4.309   2.991  0.3627  0.0822  0.1396
  192SAPI   H4X22276   4.382   4.205   3.003  1.2070 -0.4954 -1.9518
  192SAPI   H4Y22277   4.339   4.377   3.030  0.1998  1.0919 -1.8464
  192SAPI   C3522278   4.538   4.330   3.083 -0.3863  0.0705  0.8320
  192SAPI   H5X22279   4.599   4.416   3.049  1.0989 -0.9978  0.6820
  192SAPI   H5Y22280   4.598   4.239   3.061 -0.2284  0.2076  0.7007
  192SAPI   C3622281   4.505   4.337   3.234 -0.3621 -0.1635 -0.3493
  192SAPI   H6X22282   4.452   4.431   3.261 -3.0531 -1.7213  0.1939
  192SAPI   H6Y22283   4.593   4.329   3.301 -0.4366 -0.6886 -0.3121
  192SAPI   C3722284   4.405   4.227   3.284 -0.0659 -0.3809 -0.8373
  192SAPI   H7X22285   4.440   4.129   3.247  0.6790 -0.1487 -0.7560
  192SAPI   H7Y22286   4.305   4.251   3.242  0.3531  0.6196 -1.3050
  192SAPI   C3822287   4.390   4.208   3.442 -0.3684 -0.4210  0.5372
  192SAPI   H8X22288   4.470   4.143   3.485  0.3871 -0.2238 -0.5236
  192SAPI   H8Y22289   4.308   4.134   3.452 -0.8316  0.0048 -0.0580
  192SAPI   C3922290   4.385   4.329   3.534  0.2991  0.0319  0.6035
  192SAPI   H9X22291   4.306   4.400   3.503 -0.9247 -0.7139  1.8895
  192SAPI   H9Y22292   4.483   4.382   3.538  1.4415 -2.0138  1.5959
  192SAPI  C31022293   4.353   4.286   3.672  0.1518  0.3470 -0.2766
  192SAPI  H10X22294   4.423   4.205   3.704  0.3445  0.1343 -1.2055
  192SAPI  H10Y22295   4.252   4.243   3.685  0.2548  0.6934  2.1306
  192SAPI  C31122296   4.368   4.396   3.780  0.2890 -0.4714 -0.1432
  192SAPI  H11X22297   4.377   4.494   3.730 -3.3285  0.5694  0.9693
  192SAPI  H11Y22298   4.464   4.372   3.831 -0.4005 -0.1314  1.3729
  192SAPI  C31222299   4.256   4.386   3.895  0.1966 -0.3331 -0.9577
  192SAPI  H12X22300   4.269   4.283   3.936  2.7740  0.7378  1.2091
  192SAPI  H12Y22301   4.157   4.417   3.856  0.6571  2.2381 -0.2703
  192SAPI  C31322302   4.272   4.493   4.001 -0.4100 -0.7540 -0.1400
  192SAPI  H13X22303   4.264   4.584   3.938 -2.9078 -0.1619  0.8913
  192SAPI  H13Y22304   4.373   4.494   4.047 -0.6031  1.0558  0.3233
  192SAPI  C31422305   4.162   4.496   4.109  0.8452 -0.9333  0.4000
  192SAPI  H14X22306   4.066   4.531   4.064  1.5114 -0.4730 -0.7057
  192SAPI  H14Y22307   4.177   4.570   4.190  1.4235  0.1115 -0.6283
  192SAPI  C31522308   4.142   4.364   4.185 -0.7384 -0.4690  1.1380
  192SAPI  H15X22309   4.240   4.331   4.226 -1.1576 -2.5936  0.5437
  192SAPI  H15Y22310   4.129   4.293   4.101  3.4763  0.2313 -0.3766
  192SAPI  C31622311   4.022   4.356   4.286 -0.5934  0.0478 -0.4256
  192SAPI  H16X22312   3.960   4.439   4.245 -0.9622 -0.6208 -1.2542
  192SAPI  H16Y22313   4.058   4.362   4.391  0.8843  1.3048 -0.9666
  192SAPI  C31722314   3.952   4.222   4.261 -0.0259 -0.2830 -0.0272
  192SAPI  H17X22315   4.016   4.132   4.267 -0.5649 -0.8106 -1.6480
  192SAPI  H17Y22316   3.926   4.236   4.154  1.3868  2.9584 -0.0706
  192SAPI  C31822317   3.828   4.188   4.342 -0.5885  0.2526 -0.3049
  192SAPI  H18X22318   3.852   4.129   4.432  1.0181  2.2733  0.6746
  192SAPI  H18Y22319   3.756   4.133   4.276 -0.6420 -0.2763  0.1863
  192SAPI  H18Z22320   3.782   4.277   4.389  0.2923 -0.4304  1.9504
  193SOD    SOD22321   5.730   4.166   6.538 -0.0478  0.7714 -0.2351
  194SOD    SOD22322   1.054   5.868   6.826  0.1878  0.3031 -0.3738
  195SOD    SOD22323   3.545   4.948   2.471 -0.1981  0.3645  0.1604
  196SOD    SOD22324   1.698   3.388   6.995  0.0675  0.0024  0.1798
  197SOD    SOD22325   4.327   4.312   2.408  0.1531  0.3181  0.3654
  198SOD    SOD22326   5.562   0.417   6.475  0.0959  0.2259 -0.4037
  199SOD    SOD22327   0.063   6.264   2.406  0.8398 -0.2586 -0.0877
  200SOD    SOD22328   6.770   5.263   8.638 -0.1167  0.1928  0.2565
  201SOD    SOD22329   4.046   1.909   2.126 -0.0350  0.3121  0.0053
  202SOD    SOD22330   0.417   5.456   7.194  0.1177 -0.6501 -0.3538
  203SOD    SOD22331   3.563   1.161   7.810  0.0290 -0.2747 -0.2798
  204SOD    SOD22332   5.643   1.192   1.881 -0.4338 -0.3359  0.1984
  205SOD    SOD22333   3.161   4.448   8.168 -0.8652 -0.1917  0.0810
  206SOD    SOD22334   1.344   3.029   2.207  0.4392 -0.0666  0.1906
  207SOD    SOD22335   6.775   5.876   0.998 -0.2136  0.1046 -0.1578
  208SOD    SOD22336   5.751   1.705   7.068  0.6088  0.1974  0.1490
  209SOD    SOD22337   3.820   6.396   0.650  0.1444  0.0730 -0.0474
  210SOD    SOD22338   5.571   3.465   7.247 -0.4441 -0.4431  0.1694
  211SOD    SOD22339   4.595   5.917   7.471 -0.1047 -0.2983 -0.5766
  212SOD    SOD22340   1.482   2.805   1.766  0.0658  0.5255  0.0704
  213SOD    SOD22341   2.260   3.413   7.307  0.2496  0.0408  0.0172
  214SOD    SOD22342   0.363   3.412   2.024 -0.2479 -0.1051  0.0401
  215SOD    SOD22343   6.051   6.615   7.344  0.1615 -0.0328 -0.4278
  216SOD    SOD22344   1.252   4.861   7.373  0.8685  0.0846 -0.0494
  217SOD    SOD22345   4.734   3.789   1.312  0.3868  0.2373  0.5906
  218SOD    SOD22346   3.788   0.707   6.305 -0.3845  0.1986 -0.5448
  219SOD    SOD22347   5.041   5.914   0.108  0.0473  0.0757  0.7405
  220SOD    SOD22348   2.049   3.790   7.801 -0.1865 -0.4258  0.9715
  221SOD    SOD22349   3.269   1.845   0.156 -0.1210  0.4268  0.1000
  222SOD    SOD22350   0.368   0.110   1.105  0.1774  0.2673  0.0646
  223SOD    SOD22351   3.338   6.399   1.781 -0.0001  0.0225  0.1028
  224SOD    SOD22352   3.274   2.390   7.589 -0.2288 -0.4581 -0.3961
  225SOD    SOD22353   0.805   4.174   6.730 -0.4871  0.1426  0.0696
  226SOD    SOD22354   2.465   5.380   0.922  0.2281 -0.1148 -0.5744
  227SOD    SOD22355   0.825   5.145   8.125 -0.3490 -0.0619 -0.3971
  228SOD    SOD22356   0.729   2.365   0.641 -0.1478  0.0596  0.3670
  229SOD    SOD22357   4.799   1.928   6.899  0.2481 -0.3698  0.1883
  230CLA    CLA22358   2.769   4.682   0.195  0.0908  0.3812  0.3774
  231CLA    CLA22359   4.673   0.722   0.832  0.1624  0.1475 -0.1758
  232CLA    CLA22360   0.356   2.995   8.070 -0.1110  0.0007  0.2843
  233CLA    CLA22361   5.945   4.319   7.614  0.3200 -0.0068  0.3448
  234CLA    CLA22362   6.666   0.256   0.666 -0.3128  0.0919 -0.2485
  235CLA    CLA22363   4.964   1.656   0.166 -0.5323 -0.2808 -0.0833
  236CLA    CLA22364   4.219   5.558   0.711 -0.0556  0.0961  0.2220
  237CLA    CLA22365   0.798   3.474   1.558 -0.0794  0.1785  0.1910
  238CLA    CLA22366   1.147   6.569   8.574 -0.2954 -0.4061 -0.4978
  239CLA    CLA22367   4.461   2.904   8.648  0.1277  0.5399 -0.5763
  240CLA    CLA22368   1.202   1.934   8.559 -0.1069 -0.0049  0.0539
  241CLA    CLA22369   6.787   3.200   7.902 -0.2066  0.1895 -0.1413
  242CLA    CLA22370   2.042   3.877   0.486 -0.0085 -0.0812 -0.3111
  243CLA    CLA22371   5.230   2.277   0.296 -0.3308  0.0089  0.4640
  244CLA    CLA22372   1.198   4.612   7.404  0.0567 -0.4593  0.1773
  245CLA    CLA22373   1.454   5.214   0.981  0.3136 -0.3853 -0.1442
  246CLA    CLA22374   4.397   1.238   8.126 -0.0266  0.1473  0.2963
  247TIP3   OH222375   5.977   5.982   7.018 -0.4683 -0.1804 -0.0301
  247TIP3    H122376   6.023   5.901   6.995 -1.6072 -0.6328 -0.8445
  247TIP3    H222377   6.043   6.051   7.009  0.1004 -0.8284 -0.9790
  248TIP3   OH222378   5.725   5.123   7.394  0.4059 -0.4916 -0.7223
  248TIP3    H122379   5.677   5.040   7.393 -1.3517  0.3724  1.6168
  248TIP3    H222380   5.679   5.178   7.331 -0.1292 -0.4614 -0.3131
  249TIP3   OH222381   3.306   4.295   0.712  0.4153  0.3520  0.2542
  249TIP3    H122382   3.260   4.375   0.686 -0.4152 -0.4694 -0.9571
  249TIP3    H222383   3.344   4.262   0.630  1.7431  0.1124  0.9416
  250TIP3   OH222384   0.800   1.297   0.261 -0.1140 -0.5962 -0.2520
  250TIP3    H122385   0.875   1.238   0.247  0.0100 -0.5181  0.0708
  250TIP3    H222386   0.759   1.264   0.342  0.5101  0.3287  0.4624
  251TIP3   OH222387   4.677   2.619   0.130 -0.5834 -0.3452 -0.8941
  251TIP3    H122388   4.654   2.709   0.106 -0.5913 -0.5691 -1.7932
  251TIP3    H222389   4.768   2.609   0.103 -0.0538 -0.1079  0.7377
  252TIP3   OH222390   5.449   5.966   0.269 -0.1580 -0.5341 -0.2406
  252TIP3    H122391   5.478   6.057   0.264  2.8587 -1.4143 -0.7227
  252TIP3    H222392   5.478   5.936   0.355 -0.1757 -1.3133 -0.4983
  253TIP3   OH222393   6.768   3.243   0.125 -0.1870 -0.2614 -0.5909
  253TIP3    H122394   6.778   3.236   0.030  2.6854 -0.6812 -0.3557
  253TIP3    H222395   6.768   3.152   0.156  1.7934 -0.1221 -0.0427
  254TIP3   OH222396   1.454   2.440   7.161  0.7278  0.3763 -0.2057
  254TIP3    H122397   1.514   2.388   7.214  0.5442  0.1404 -0.2272
  254TIP3    H222398   1.370   2.395   7.169  0.6742  0.4006 -0.6089
  255TIP3   OH222399   3.316   4.403   0.121 -0.2810  0.2505 -0.3940
  255TIP3    H122400   3.353   4.435   0.203  0.0726 -0.3844 -0.2995
  255TIP3    H222401   3.228   4.374   0.143 -0.3069  0.3876 -0.3125
  256TIP3   OH222402   5.389   4.282   6.886 -0.4638  0.4110  0.3145
  256TIP3    H122403   5.351   4.196   6.868  1.2086 -0.3956  0.4914
  256TIP3    H222404   5.332   4.343   6.839 -1.0046 -0.8840 -0.7884
  257TIP3   OH222405   4.829   4.639   8.651  0.1688  0.2011 -0.2706
  257TIP3    H122406   4.741   4.669   8.628 -1.1123 -1.9873  1.3257
  257TIP3    H222407   4.843   4.672   8.739  0.8085  0.2501 -0.3912
  258TIP3   OH222408   1.847   3.532   2.090 -0.5873  0.2416 -0.3087
  258TIP3    H122409   1.861   3.627   2.087 -0.8287  0.2588 -0.8684
  258TIP3    H222410   1.924   3.495   2.049  0.3793  0.1024  1.5106
  259TIP3   OH222411   4.762   1.892   0.644 -0.2597 -0.0081 -0.4295
  259TIP3    H122412   4.668   1.896   0.627 -0.4017  2.7830  0.5587
  259TIP3    H222413   4.799   1.856   0.564 -2.0964 -0.3470 -1.1690
  260TIP3   OH222414   0.407   0.099   8.752 -0.6865 -0.4485 -0.7160
  260TIP3    H122415   0.391   0.140   8.838 -2.9655  1.3544 -1.8702
  260TIP3    H222416   0.443   0.170   8.699 -0.5369 -1.1701 -1.5972
  261TIP3   OH222417   0.056   5.470   0.535 -0.3735  0.1254  0.0338
  261TIP3    H122418   0.105   5.511   0.465  0.6735 -0.7603  0.2215
  261TIP3    H222419  -0.002   5.539   0.568 -0.2214  0.8049 -1.0697
  262TIP3   OH222420   0.832   2.075   7.463  0.2380 -0.7538  0.1271
  262TIP3    H122421   0.891   2.100   7.392  0.1549 -1.9119 -0.3715
  262TIP3    H222422   0.868   2.118   7.540  0.8357 -0.1913 -0.4549
  263TIP3   OH222423   0.684   5.924   0.902 -0.1131 -0.2292 -0.0402
  263TIP3    H122424   0.650   5.851   0.851 -1.8304  0.9273 -0.6443
  263TIP3    H222425   0.662   5.903   0.992  0.9724 -1.2598 -0.0016
  264TIP3   OH222426   4.201   3.070   2.436 -0.0875 -0.3873 -0.0105
  264TIP3    H122427   4.222   2.982   2.404 -0.1121 -0.2479 -0.4150
  264TIP3    H222428   4.117   3.060   2.481  0.6940 -0.8997  1.3893
  265TIP3   OH222429   3.095   5.028   7.602 -0.1900  0.4782 -0.1536
  265TIP3    H122430   3.168   4.980   7.565  0.5583  0.6904  0.9865
  265TIP3    H222431   3.017   4.982   7.571  0.3973  0.5403 -1.7642
  266TIP3   OH222432   0.944   3.146   1.822  0.6276  0.2740 -0.5063
  266TIP3    H122433   0.960   3.053   1.806 -0.2384  0.3070 -1.7519
  266TIP3    H222434   0.923   3.151   1.915  0.4288 -0.8242 -0.4791
  267TIP3   OH222435   0.752   5.285   6.960  0.2921  0.1713 -0.0694
  267TIP3    H122436   0.799   5.304   6.878 -0.8557  1.7024 -0.4043
  267TIP3    H222437   0.696   5.210   6.938  0.4475  0.1794 -0.5024
  268TIP3   OH222438   3.500   4.056   8.699 -0.0633  0.3387  0.3678
  268TIP3    H122439   3.405   4.056   8.706 -0.3113  3.5108 -1.3961
  268TIP3    H222440   3.531   4.083   8.786 -0.7307 -0.4960  0.8839
  269TIP3   OH222441   2.743   3.075   8.759  0.0281 -0.0353  0.0069
  269TIP3    H122442   2.830   3.079   8.720 -0.4948 -0.3420 -1.2097
  269TIP3    H222443   2.732   3.160   8.802  0.0706  0.8851 -1.7306
  270TIP3   OH222444   2.576   3.168   1.232 -0.3027 -0.1407  0.3072
  270TIP3    H122445   2.568   3.150   1.326 -0.1927  0.7337  0.4889
  270TIP3    H222446   2.514   3.239   1.216 -0.9080 -0.8125 -0.4500
  271TIP3   OH222447   2.159   3.842   1.813 -0.5591 -0.1498  0.2021
  271TIP3    H122448   2.165   3.778   1.742 -0.1873 -0.3490  0.4122
  271TIP3    H222449   2.221   3.911   1.788 -0.1924 -0.3715  0.4834
  272TIP3   OH222450   2.720   1.867   6.364  0.1360 -0.1909  0.2336
  272TIP3    H122451   2.806   1.880   6.405 -0.6125  0.3144  1.7276
  272TIP3    H222452   2.730   1.788   6.311  2.5582  1.8621 -2.6506
  273TIP3   OH222453   4.818   5.814   1.948  0.2550 -1.0451 -0.1717
  273TIP3    H122454   4.761   5.787   2.020 -0.6257 -0.0976 -0.4895
  273TIP3    H222455   4.902   5.833   1.990 -0.8983  1.8373  1.0450
  274TIP3   OH222456   1.159   4.200   1.766 -0.1458  0.2158  0.1319
  274TIP3    H122457   1.201   4.180   1.849 -1.9342  0.9246  1.2531
  274TIP3    H222458   1.084   4.254   1.789 -1.0665 -0.1038 -1.8931
  275TIP3   OH222459   3.798   2.723   8.812 -0.4408 -0.0841  0.1780
  275TIP3    H122460   3.838   2.774   8.742  0.0267 -1.5646 -0.6761
  275TIP3    H222461   3.758   2.788   8.869  0.2455  1.2314 -0.7906
  276TIP3   OH222462   0.858   5.275   2.179  0.2865 -0.0827 -0.0772
  276TIP3    H122463   0.800   5.203   2.153 -0.0140 -0.7257  2.1762
  276TIP3    H222464   0.918   5.236   2.242 -0.1425  1.6889  1.5189
  277TIP3   OH222465   6.355   6.580   1.486 -0.0251 -0.0231  0.5807
  277TIP3    H122466   6.439   6.618   1.510 -0.8679  1.0229  2.0437
  277TIP3    H222467   6.347   6.596   1.392  0.9662  0.7504  0.6174
  278TIP3   OH222468   3.728   6.741   7.321 -0.2655 -0.2240 -0.0172
  278TIP3    H122469   3.775   6.812   7.280  0.3928  0.0556  1.1711
  278TIP3    H222470   3.654   6.724   7.263 -0.2723  1.2261 -0.4683
  279TIP3   OH222471   0.705   2.640   1.952 -0.7067 -0.2119 -0.2926
  279TIP3    H122472   0.658   2.556   1.948 -1.5575  0.1166  1.4976
  279TIP3    H222473   0.782   2.622   2.006  1.2760 -0.7089 -3.0971
  280TIP3   OH222474   5.814   4.419   1.162 -0.4002  0.4835 -0.0221
  280TIP3    H122475   5.737   4.465   1.130 -0.5183  0.5248  0.3108
  280TIP3    H222476   5.779   4.355   1.225 -0.0292  1.7927  1.5946
  281TIP3   OH222477   0.853   3.319   1.170 -0.3611  0.4112 -0.1573
  281TIP3    H122478   0.823   3.248   1.226 -1.8313  2.0503  1.2543
  281TIP3    H222479   0.840   3.286   1.081  0.1393 -1.4986  0.4330
  282TIP3   OH222480   3.639   6.455   0.833 -0.4017 -0.3224 -0.0117
  282TIP3    H122481   3.595   6.540   0.830 -1.1119 -0.6836 -0.0862
  282TIP3    H222482   3.572   6.395   0.864  0.1856 -0.8071  0.3307
  283TIP3   OH222483   4.866   6.529   7.296 -0.7298 -0.2994  0.1969
  283TIP3    H122484   4.808   6.454   7.287  0.4327 -1.1382 -0.7260
  283TIP3    H222485   4.926   6.504   7.366  1.1144 -1.3082 -1.6235
  284TIP3   OH222486   0.843   2.053   1.110 -0.4917  0.3678 -0.1322
  284TIP3    H122487   0.813   2.144   1.110  1.0276  0.8950  0.3637
  284TIP3    H222488   0.837   2.026   1.202 -0.1631  0.2246 -0.1527
  285TIP3   OH222489   0.835   4.969   0.459 -0.2066 -0.0913 -0.1174
  285TIP3    H122490   0.842   4.994   0.551  2.2614 -1.5762  0.1774
  285TIP3    H222491   0.835   4.874   0.460 -1.2351 -0.1524 -1.6416
  286TIP3   OH222492   6.275   3.775   6.803 -0.2235  0.0709  0.3663
  286TIP3    H122493   6.289   3.721   6.725  1.2563  1.5162 -0.4297
  286TIP3    H222494   6.190   3.746   6.837 -1.2953 -0.0877 -2.1981
  287TIP3   OH222495   2.150   3.961   8.134 -0.0221  0.5634  0.3308
  287TIP3    H122496   2.140   4.056   8.149 -0.5759  0.9320 -1.9974
  287TIP3    H222497   2.235   3.952   8.091  0.6741 -0.2174  1.7773
  288TIP3   OH222498   2.459   2.227   0.251 -0.1172 -0.0890 -0.2611
  288TIP3    H122499   2.370   2.206   0.280 -0.1507 -0.2072 -0.4477
  288TIP3    H222500   2.515   2.169   0.302 -0.0614  0.7672  0.6734
  289TIP3   OH222501   5.964   3.869   8.184 -0.0215  0.1518  0.6084
  289TIP3    H122502   6.027   3.798   8.178 -2.2423 -1.9073  0.2628
  289TIP3    H222503   5.901   3.841   8.251 -1.1909  1.6029  0.1920
  290TIP3   OH222504   5.838   0.517   7.710  0.0289  0.0008  0.4514
  290TIP3    H122505   5.782   0.594   7.712  0.4644  0.3618 -0.4576
  290TIP3    H222506   5.778   0.443   7.709 -0.4133  0.3599  0.2435
  291TIP3   OH222507   1.658   3.565   1.128  0.1993 -0.3749 -0.0455
  291TIP3    H122508   1.585   3.504   1.138  1.0463 -1.2223  1.2642
  291TIP3    H222509   1.672   3.569   1.033 -0.5420 -1.4091 -0.2205
  292TIP3   OH222510   1.868   0.584   8.258  0.2523 -0.3336 -0.0373
  292TIP3    H122511   1.820   0.571   8.340  0.4719 -0.8666  0.0129
  292TIP3    H222512   1.959   0.596   8.286  0.3819 -0.8622 -0.2189
  293TIP3   OH222513   3.541   5.031   7.628  0.7151  0.0737  0.6566
  293TIP3    H122514   3.572   5.025   7.718 -1.3232  0.2412  1.4103
  293TIP3    H222515   3.520   5.124   7.615  2.5008  0.3623 -0.5666
  294TIP3   OH222516   6.313   2.587   1.332  0.2139 -0.0067 -0.5330
  294TIP3    H122517   6.343   2.667   1.288  1.8690  0.5543  1.4660
  294TIP3    H222518   6.394   2.545   1.362 -0.7429 -1.4859  0.0700
  295TIP3   OH222519   5.236   3.870   7.904  0.4185 -0.2357  0.1391
  295TIP3    H122520   5.206   3.958   7.883  0.4796 -0.4346 -0.8554
  295TIP3    H222521   5.321   3.863   7.859 -0.3000 -1.3237 -1.0983
  296TIP3   OH222522   2.666   2.051   7.551 -0.4990 -0.1875  0.5800
  296TIP3    H122523   2.600   1.982   7.566 -0.5940 -0.2224  0.0330
  296TIP3    H222524   2.624   2.131   7.582 -1.3939  0.0381 -1.0937
  297TIP3   OH222525   3.436   4.809   1.148  0.0147 -0.0501 -0.0370
  297TIP3    H122526   3.442   4.728   1.096 -3.0033 -0.2911 -0.2289
  297TIP3    H222527   3.397   4.781   1.231  1.0429  0.9232  0.7919
  298TIP3   OH222528   3.304   6.074   6.536  0.2661 -0.1474 -1.2175
  298TIP3    H122529   3.245   6.130   6.587  0.8335 -1.5929  1.1583
  298TIP3    H222530   3.358   6.136   6.486  0.2325  1.4036  0.5500
  299TIP3   OH222531   4.810   6.021   0.509  0.2304 -0.6086  0.1345
  299TIP3    H122532   4.848   5.935   0.494 -0.2344 -0.8668  0.4102
  299TIP3    H222533   4.794   6.024   0.603 -2.8534 -1.5707 -0.2457
  300TIP3   OH222534   2.483   5.756   1.230  1.2182 -0.0426  0.2506
  300TIP3    H122535   2.419   5.781   1.163  0.6243  0.6260  1.0412
  300TIP3    H222536   2.518   5.839   1.262  1.0523 -0.3149  1.1724
  301TIP3   OH222537   6.529   0.811   7.414  0.4362  0.2106 -0.3924
  301TIP3    H122538   6.604   0.845   7.365  0.7641  0.7063  0.4369
  301TIP3    H222539   6.471   0.886   7.426 -0.1972 -0.1631 -1.0046
  302TIP3   OH222540   4.378   2.784   6.536  0.1591  0.7584 -0.3224
  302TIP3    H122541   4.374   2.878   6.553 -0.2062  0.4500  1.5821
  302TIP3    H222542   4.291   2.761   6.506 -0.2131  0.8029  0.6868
  303TIP3   OH222543   5.797   5.646   1.828 -0.7612 -0.3036  0.2617
  303TIP3    H122544   5.759   5.733   1.819 -0.2417  0.2036  2.3594
  303TIP3    H222545   5.732   5.596   1.877 -0.6193 -0.8016 -0.0436
  304TIP3   OH222546   1.246   3.854   1.772  0.5334  0.0042 -0.5482
  304TIP3    H122547   1.260   3.761   1.756  0.6989  0.1056 -1.0139
  304TIP3    H222548   1.215   3.889   1.689 -1.1168  0.0647  0.0548
  305TIP3   OH222549   2.701   3.481   8.175  0.2509 -0.2945  0.2849
  305TIP3    H122550   2.656   3.546   8.229  0.7106 -1.1768  1.8218
  305TIP3    H222551   2.746   3.532   8.108 -0.9292  0.7944  0.2940
  306TIP3   OH222552   2.632   5.482   8.465 -0.2895  0.1979  0.2959
  306TIP3    H122553   2.588   5.495   8.549 -1.2066 -0.1003 -0.1258
  306TIP3    H222554   2.592   5.546   8.406 -1.1458 -0.9502 -0.4333
  307TIP3   OH222555   0.417   1.686   7.488  0.3345 -0.5514  0.0742
  307TIP3    H122556   0.468   1.652   7.415 -1.8198 -0.7174 -1.4403
  307TIP3    H222557   0.329   1.698   7.453 -0.3171  1.3484  2.0795
  308TIP3   OH222558   4.335   5.203   7.223  0.3677  0.2400 -0.5525
  308TIP3    H122559   4.294   5.242   7.146 -2.2471  0.1923  0.6667
  308TIP3    H222560   4.295   5.116   7.230 -0.2248  0.6129  1.3300
  309TIP3   OH222561   3.468   5.506   1.080  0.2098 -0.4530  0.4148
  309TIP3    H122562   3.451   5.566   1.008 -0.3731 -2.0076 -0.8251
  309TIP3    H222563   3.395   5.520   1.140 -0.3057 -0.3880 -0.2072
  310TIP3   OH222564   3.573   3.253   0.942 -0.1633 -0.1350  0.3279
  310TIP3    H122565   3.511   3.231   0.872 -1.9073 -0.1404  1.8054
  310TIP3    H222566   3.653   3.278   0.895 -0.8687 -1.2653 -1.6261
  311TIP3   OH222567   5.696   1.260   1.460 -0.2035  0.0922 -0.5148
  311TIP3    H122568   5.627   1.326   1.472 -0.2800 -0.0011 -0.4314
  311TIP3    H222569   5.704   1.219   1.546  0.7415  0.8554 -0.2199
  312TIP3   OH222570   1.331   6.294   0.963  0.3148 -0.6328  0.3137
  312TIP3    H122571   1.278   6.221   0.931  0.7400 -0.6473 -0.3622
  312TIP3    H222572   1.279   6.331   1.035 -0.2814 -1.0816  0.1243
  313TIP3   OH222573   3.261   3.437   0.153 -0.0746  0.7178  0.1077
  313TIP3    H122574   3.212   3.459   0.232 -0.1481 -0.3225  0.3647
  313TIP3    H222575   3.260   3.341   0.150 -0.9175  0.7443 -1.6869
  314TIP3   OH222576   5.772   2.833   0.935  0.2267 -0.3539  0.3575
  314TIP3    H122577   5.838   2.899   0.955 -0.1413  0.1537 -0.0761
  314TIP3    H222578   5.793   2.759   0.993  2.6690 -1.2248 -1.5263
  315TIP3   OH222579   0.929   3.940   1.434 -0.2848  0.1245 -0.1579
  315TIP3    H122580   0.867   4.011   1.452  0.7976  1.1501 -0.3206
  315TIP3    H222581   0.917   3.878   1.506  0.8660  1.9763  1.7664
  316TIP3   OH222582   6.055   2.930   8.772 -0.6723 -0.4248  0.5956
  316TIP3    H122583   5.979   2.899   8.822  0.2279 -0.6210  1.9081
  316TIP3    H222584   6.046   2.889   8.686 -1.3796 -1.4988  1.1548
  317TIP3   OH222585   1.472   4.799   2.266  0.1419 -0.3479  0.2998
  317TIP3    H122586   1.542   4.804   2.200  0.0140 -2.3948 -0.0513
  317TIP3    H222587   1.475   4.884   2.310  0.2943  1.0567 -2.2551
  318TIP3   OH222588   3.341   0.102   8.416 -0.0865  0.4087 -0.5206
  318TIP3    H122589   3.343   0.009   8.397 -0.2200  0.9998 -4.0939
  318TIP3    H222590   3.432   0.128   8.423 -0.0449 -0.1215  1.9447
  319TIP3   OH222591   6.438   3.236   7.759  0.3442 -0.3628  0.7319
  319TIP3    H122592   6.527   3.207   7.775  1.0409  2.0913  1.7186
  319TIP3    H222593   6.407   3.269   7.844 -0.9210  0.3020  0.0465
  320TIP3   OH222594   2.453   6.334   6.438  0.2903  0.2475  0.2853
  320TIP3    H122595   2.428   6.272   6.370  0.1918  0.4133  0.1713
  320TIP3    H222596   2.520   6.288   6.489  0.8624  0.3707 -0.3320
  321TIP3   OH222597   0.224   3.475   7.161  0.2202 -0.0400 -0.1831
  321TIP3    H122598   0.248   3.537   7.229  0.4281  2.7648 -2.6028
  321TIP3    H222599   0.128   3.472   7.162  0.2055  0.4706 -0.1624
  322TIP3   OH222600   2.724   2.498   0.632 -0.1955  0.7465 -0.3873
  322TIP3    H122601   2.797   2.464   0.684 -1.2240 -3.2230 -1.2135
  322TIP3    H222602   2.677   2.556   0.692  0.6323 -0.8985  2.0154
  323TIP3   OH222603   0.520   2.957   1.799  0.0721  0.3904 -0.2263
  323TIP3    H122604   0.559   3.023   1.742 -0.6884  1.1983  0.1648
  323TIP3    H222605   0.574   2.879   1.786  0.3826  0.7881 -1.4522
  324TIP3   OH222606   1.220   0.322   0.459 -0.1290 -0.1947  0.0857
  324TIP3    H122607   1.187   0.289   0.376  0.8276 -0.0552 -0.3604
  324TIP3    H222608   1.143   0.359   0.502 -0.1837  2.5790 -2.0920
  325TIP3   OH222609   4.491   3.292   0.812 -0.1206 -0.3583 -0.1031
  325TIP3    H122610   4.557   3.342   0.860  0.1893 -0.6194 -0.2592
  325TIP3    H222611   4.438   3.359   0.768 -0.5417 -0.1071  0.7690
  326TIP3   OH222612   3.207   6.661   1.005  0.9312 -0.2419  0.1992
  326TIP3    H122613   3.209   6.570   0.974  0.6633  0.2198 -1.2575
  326TIP3    H222614   3.256   6.660   1.087 -3.0803 -2.6546  2.9311
  327TIP3   OH222615   0.929   2.146   8.058 -0.2936  0.9423  0.1841
  327TIP3    H122616   0.989   2.135   8.132 -0.5607 -0.0810  0.2621
  327TIP3    H222617   0.842   2.138   8.096 -0.4408 -2.4148 -0.5716
  328TIP3   OH222618   0.631   6.078   7.139 -0.3356 -0.1952 -0.0236
  328TIP3    H122619   0.543   6.116   7.142 -0.5866 -0.7401 -0.4027
  328TIP3    H222620   0.624   6.006   7.077  0.1335 -0.8922  0.7255
  329TIP3   OH222621   6.785   4.930   1.486 -0.0186  0.1656 -0.0655
  329TIP3    H122622   6.733   4.856   1.452 -0.9198  1.3902 -1.5233
  329TIP3    H222623   6.767   4.930   1.580 -0.1477 -1.3456 -0.0566
  330TIP3   OH222624   5.383   4.781   2.055 -0.0903  0.5343 -0.7194
  330TIP3    H122625   5.393   4.802   1.962  1.2375  1.5783 -0.3870
  330TIP3    H222626   5.473   4.769   2.087 -0.4903  0.5818  0.4997
  331TIP3   OH222627   0.032   1.444   8.342  0.1450  0.3766 -0.2720
  331TIP3    H122628  -0.055   1.420   8.310  1.0514 -0.5391 -2.1844
  331TIP3    H222629   0.060   1.367   8.393  0.9721 -0.6067 -2.1169
  332TIP3   OH222630   3.744   1.795   7.834  0.4070  0.0449 -0.6211
  332TIP3    H122631   3.819   1.822   7.781 -0.2281  0.0753 -1.5130
  332TIP3    H222632   3.731   1.703   7.811 -0.8950  0.4844 -1.7928
  333TIP3   OH222633   4.840   2.555   1.752  0.1512 -0.1835  0.4406
  333TIP3    H122634   4.776   2.485   1.765 -0.1725 -0.3235 -1.5232
  333TIP3    H222635   4.873   2.575   1.839  0.2320 -2.7552  1.0568
  334TIP3   OH222636   6.146   4.814   0.486  0.4496 -0.1437 -0.3060
  334TIP3    H122637   6.150   4.895   0.434 -0.3795 -0.2055 -0.4940
  334TIP3    H222638   6.093   4.839   0.562  1.2106 -0.1958  0.2402
  335TIP3   OH222639   0.784   2.798   0.645  0.5534  0.5311 -0.2248
  335TIP3    H122640   0.718   2.832   0.706 -1.0859 -0.3869 -1.4294
  335TIP3    H222641   0.865   2.795   0.697 -0.4995  0.9784  1.5194
  336TIP3   OH222642   4.594   4.553   0.967  0.1436 -0.0575  0.5403
  336TIP3    H122643   4.565   4.462   0.956  1.1260 -0.3492  0.2887
  336TIP3    H222644   4.568   4.576   1.056 -1.3349 -0.1179  0.1473
  337TIP3   OH222645   3.701   5.860   0.745 -0.4818  0.2626  0.1029
  337TIP3    H122646   3.786   5.819   0.732 -1.2201 -1.2929 -0.0747
  337TIP3    H222647   3.718   5.931   0.808  0.8810 -0.1905  0.2774
  338TIP3   OH222648   4.789   0.123   1.700  0.0435 -0.1153 -0.0930
  338TIP3    H122649   4.786   0.114   1.796  2.0718  1.5689  0.2158
  338TIP3    H222650   4.771   0.215   1.684 -0.0317 -0.3282 -1.3320
  339TIP3   OH222651   5.587   4.263   1.839 -0.8253 -0.2380 -1.0142
  339TIP3    H122652   5.502   4.268   1.794 -0.9465 -0.7883 -0.8535
  339TIP3    H222653   5.625   4.350   1.827 -2.5733  0.9385  1.2262
  340TIP3   OH222654   6.548   2.552   1.461  0.8303  0.0481  0.6791
  340TIP3    H122655   6.599   2.490   1.515  2.4714 -1.1210 -2.0098
  340TIP3    H222656   6.591   2.636   1.476  0.9317 -0.1481  1.5711
  341TIP3   OH222657   4.596   4.192   1.459  0.0412 -0.0911 -0.2030
  341TIP3    H122658   4.591   4.259   1.527 -0.3920 -0.2087 -0.1143
  341TIP3    H222659   4.509   4.193   1.419  0.4284  0.2981 -1.0624
  342TIP3   OH222660   2.374   1.864   7.166  0.7811 -1.0177  0.2342
  342TIP3    H122661   2.349   1.907   7.085 -0.5995 -1.0562  0.6174
  342TIP3    H222662   2.434   1.926   7.209 -2.0579  1.1718  1.3437
  343TIP3   OH222663   5.916   2.584   0.271  0.1774  0.8050  0.4531
  343TIP3    H122664   5.822   2.588   0.252  0.0655  1.2861  1.0905
  343TIP3    H222665   5.949   2.518   0.209 -0.6401  0.3503  0.4736
  344TIP3   OH222666   0.565   6.357   1.756  0.3264  0.0783  0.3417
  344TIP3    H122667   0.595   6.379   1.843 -0.6300  0.9065  0.4827
  344TIP3    H222668   0.481   6.312   1.770  0.4687 -0.3451 -0.1234
  345TIP3   OH222669   2.481   5.470   8.721  0.1515 -0.0045 -0.2112
  345TIP3    H122670   2.475   5.406   8.792 -1.4473  0.2419 -0.0978
  345TIP3    H222671   2.451   5.422   8.644 -3.9664  1.2774  0.3648
  346TIP3   OH222672   1.883   5.446   7.177 -0.1003  0.0455  0.2932
  346TIP3    H122673   1.897   5.351   7.177 -0.4198 -0.0100  1.3009
  346TIP3    H222674   1.827   5.461   7.101 -0.2828 -0.6079  0.2872
  347TIP3   OH222675   5.140   3.668   1.228 -0.1966 -0.0840 -0.3638
  347TIP3    H122676   5.046   3.681   1.213 -0.4309 -1.6414 -0.4014
  347TIP3    H222677   5.178   3.667   1.140  0.3090  3.0867 -0.3241
  348TIP3   OH222678   5.243   4.496   0.835 -0.0091 -0.1340 -0.3539
  348TIP3    H122679   5.339   4.490   0.838  0.0613  0.9224  0.1093
  348TIP3    H222680   5.225   4.542   0.753  0.0735  2.1365  0.8176
  349TIP3   OH222681   6.158   5.833   6.721  0.3071 -0.6043  0.3306
  349TIP3    H122682   6.116   5.762   6.672 -1.4855 -0.5141  1.6616
  349TIP3    H222683   6.164   5.800   6.811  0.5387  0.4750  0.7287
  350TIP3   OH222684   1.288   0.172   8.313  0.4282 -0.1509  0.5762
  350TIP3    H122685   1.303   0.251   8.366  0.9298 -0.5866  1.1079
  350TIP3    H222686   1.374   0.153   8.275  0.1809 -0.1260 -0.0032
  351TIP3   OH222687   4.082   0.133   1.056 -0.9333 -0.2963  0.4925
  351TIP3    H122688   4.135   0.157   1.132  1.0265 -0.7747 -0.6553
  351TIP3    H222689   4.069   0.038   1.064 -0.5312 -0.3850  0.1275
  352TIP3   OH222690   1.042   4.755   7.664  0.4512  0.4819  0.0501
  352TIP3    H122691   1.056   4.679   7.721 -0.5880  0.0708 -0.2239
  352TIP3    H222692   1.056   4.721   7.575  1.1746  0.9047 -0.0033
  353TIP3   OH222693   4.124   4.113   7.411 -0.1091 -1.0337 -0.0844
  353TIP3    H122694   4.118   4.027   7.452 -0.9922 -1.3744 -0.8943
  353TIP3    H222695   4.203   4.109   7.358 -0.1660 -1.3489 -0.1421
  354TIP3   OH222696   5.212   3.145   8.290  0.2524 -0.0738 -1.3217
  354TIP3    H122697   5.177   3.061   8.261  0.7228 -0.7605 -0.0086
  354TIP3    H222698   5.305   3.139   8.272  0.5439 -0.4898  0.1660
  355TIP3   OH222699   4.760   0.039   0.820  1.0648 -0.5905  0.2083
  355TIP3    H122700   4.746  -0.047   0.859  0.8190  0.0942  1.7194
  355TIP3    H222701   4.812   0.086   0.885  0.4543  0.6880 -0.1890
  356TIP3   OH222702   4.246   4.054   0.014 -0.3597  0.6919  0.2193
  356TIP3    H122703   4.238   3.971   0.062 -0.7184 -0.4942 -1.7973
  356TIP3    H222704   4.166   4.060  -0.037  0.0408  1.8725 -0.3039
  357TIP3   OH222705   3.840   5.155   8.811  0.0979 -0.1036 -0.3264
  357TIP3    H122706   3.883   5.226   8.763 -0.3128  0.4825  0.1534
  357TIP3    H222707   3.880   5.075   8.778  0.7993  0.3750 -0.6394
  358TIP3   OH222708   4.730   4.932   2.056  0.4039 -0.0587  0.5231
  358TIP3    H122709   4.649   4.890   2.083  0.8221 -1.2790 -0.0569
  358TIP3    H222710   4.794   4.909   2.124  0.8191 -1.0232 -0.1675
  359TIP3   OH222711   1.687   5.820   0.787 -0.3467 -0.2308  0.1295
  359TIP3    H122712   1.776   5.853   0.776  0.0627 -1.1046  0.6810
  359TIP3    H222713   1.636   5.864   0.719  0.9891 -1.5159 -1.8145
  360TIP3   OH222714   5.784   5.756   6.631  0.7681 -0.3154 -0.3823
  360TIP3    H122715   5.793   5.769   6.537  2.3812 -1.2631 -0.3947
  360TIP3    H222716   5.693   5.730   6.644  0.1210  1.2746 -1.4734
  361TIP3   OH222717   4.985   3.824   8.376 -0.2562 -0.2725 -0.4320
  361TIP3    H122718   4.939   3.742   8.394  0.3760 -0.6203 -0.3507
  361TIP3    H222719   4.980   3.835   8.281 -0.3063 -0.4302 -0.4465
  362TIP3   OH222720   6.209   3.267   0.300 -0.1594  0.8818  0.3008
  362TIP3    H122721   6.293   3.236   0.334 -1.2938 -0.1635  2.3637
  362TIP3    H222722   6.209   3.361   0.316  0.6588  0.9111  0.1574
  363TIP3   OH222723   2.095   6.046   0.895 -0.7318 -0.2158  0.8050
  363TIP3    H122724   2.120   6.133   0.866  1.2698 -0.7511  0.8128
  363TIP3    H222725   2.062   6.003   0.816  0.5066 -0.2018  0.2587
  364TIP3   OH222726   0.961   2.318   1.328  0.1279  0.5349  0.2911
  364TIP3    H122727   1.012   2.274   1.396 -1.3888 -3.1810 -0.7253
  364TIP3    H222728   0.936   2.247   1.268 -2.9746  2.7730 -1.2866
  365TIP3   OH222729   1.993   5.622   1.138 -0.2211 -0.3306 -0.1919
  365TIP3    H122730   1.918   5.633   1.080 -0.4892  0.4270  0.2875
  365TIP3    H222731   2.010   5.710   1.173  1.3599 -0.3204 -0.8774
  366TIP3   OH222732   0.725   3.095   6.956  0.4616  0.7627  0.6283
  366TIP3    H122733   0.796   3.148   6.922 -0.4849  0.5523 -1.9432
  366TIP3    H222734   0.679   3.064   6.878 -1.3136 -0.6644  2.1342
  367TIP3   OH222735   2.438   5.766   7.119 -0.2706  0.7147  0.3143
  367TIP3    H122736   2.391   5.745   7.039  0.0357  2.7866 -0.4721
  367TIP3    H222737   2.427   5.861   7.129  1.5939  0.8643  1.4630
  368TIP3   OH222738   2.772   5.444   6.757  1.0983  0.1414 -0.0798
  368TIP3    H122739   2.795   5.428   6.849 -0.7619  0.1162  0.4370
  368TIP3    H222740   2.740   5.360   6.725  1.7622  0.1472 -0.7717
  369TIP3   OH222741   3.086   1.723   1.606 -0.3342  0.7120  0.1094
  369TIP3    H122742   3.112   1.669   1.680  1.2866  2.5097  0.9285
  369TIP3    H222743   3.053   1.661   1.541  0.3321 -1.1205  1.4524
  370TIP3   OH222744   3.660   2.244   8.364  0.2844  0.2271 -0.2112
  370TIP3    H122745   3.639   2.327   8.406  0.8183  0.0354  0.4446
  370TIP3    H222746   3.576   2.213   8.329  0.4617  2.2181 -2.6782
  371TIP3   OH222747   5.123   1.133   8.808 -0.0475  0.0918  0.1026
  371TIP3    H122748   5.093   1.222   8.792  2.3711  0.9901  0.2708
  371TIP3    H222749   5.204   1.143   8.858 -0.8187 -2.2766  2.0170
  372TIP3   OH222750   6.071   3.200   1.276  0.1018  0.7505  0.1894
  372TIP3    H122751   6.161   3.232   1.282  0.9568 -1.6917  1.5940
  372TIP3    H222752   6.062   3.139   1.349 -1.3656 -2.1904 -2.2243
  373TIP3   OH222753   3.734   5.632   1.010 -0.5038 -0.1128  0.2655
  373TIP3    H122754   3.758   5.598   0.924 -0.3478  0.5994  0.0233
  373TIP3    H222755   3.639   5.646   1.005 -0.8025 -1.7216  0.8020
  374TIP3   OH222756   4.399   3.724   8.470 -0.5304  0.3147 -0.8055
  374TIP3    H122757   4.462   3.665   8.511  0.1656  0.2810 -1.8726
  374TIP3    H222758   4.314   3.683   8.486 -0.2584  0.1732  0.3433
  375TIP3   OH222759   2.103   4.859   7.768  0.0219  0.1873  0.0748
  375TIP3    H122760   2.161   4.835   7.840  0.1489  0.2752  0.0034
  375TIP3    H222761   2.153   4.925   7.719  2.0121 -3.1373 -2.8515
  376TIP3   OH222762   5.418   1.257   8.243  0.0334 -0.3995  0.3977
  376TIP3    H122763   5.453   1.307   8.170 -1.0171 -0.5192 -0.2091
  376TIP3    H222764   5.405   1.322   8.313 -0.1656 -0.0433  0.0331
  377TIP3   OH222765   3.493   0.146   8.743 -0.3668 -0.3334  0.2617
  377TIP3    H122766   3.527   0.173   8.658 -1.1894  0.0768  0.0477
  377TIP3    H222767   3.424   0.210   8.763 -0.3243 -0.5488  1.1389
  378TIP3   OH222768   2.366   0.739   1.072  0.1444  0.1984 -0.3317
  378TIP3    H122769   2.298   0.710   1.011  0.2416  0.6896 -0.6825
  378TIP3    H222770   2.444   0.746   1.017  0.0240  1.5338 -0.3539
  379TIP3   OH222771   4.564   4.386   2.393 -0.1471  0.0788  0.1188
  379TIP3    H122772   4.639   4.363   2.337 -0.1333  0.0154  0.1628
  379TIP3    H222773   4.602   4.438   2.463 -0.0922 -0.2321  0.3222
  380TIP3   OH222774   0.367   5.127   8.136  0.3068  0.1518  0.0627
  380TIP3    H122775   0.352   5.187   8.063  2.2308  2.1840  1.2285
  380TIP3    H222776   0.442   5.074   8.109  0.3124  0.1254  0.1302
  381TIP3   OH222777   4.696   1.538   8.094  0.6076  0.4828  0.5863
  381TIP3    H122778   4.607   1.529   8.060  0.5608  0.8373  0.6126
  381TIP3    H222779   4.710   1.459   8.147 -1.0138  2.0277  3.5896
  382TIP3   OH222780   5.587   1.291   0.110 -0.2299  0.0794 -0.4173
  382TIP3    H122781   5.571   1.295   0.016 -2.2213  0.4626 -0.1005
  382TIP3    H222782   5.524   1.351   0.148  0.6934  0.1051  1.1729
  383TIP3   OH222783   1.838   2.650   8.068 -0.5234 -0.0374  0.5107
  383TIP3    H122784   1.779   2.595   8.120 -1.5647 -1.0664 -1.6147
  383TIP3    H222785   1.839   2.734   8.113 -1.4462 -0.8282  2.1040
  384TIP3   OH222786   3.121   3.854   1.453  0.2577  0.0136  0.6020
  384TIP3    H122787   3.165   3.924   1.404 -0.3575  0.3746  0.5504
  384TIP3    H222788   3.031   3.886   1.464  0.4917  0.1549  2.3709
  385TIP3   OH222789   4.096   0.428   2.354 -0.3626 -0.0150  0.0175
  385TIP3    H122790   4.051   0.511   2.339  2.2625  1.5385  0.0919
  385TIP3    H222791   4.189   0.451   2.357  0.3603 -2.6079  2.3501
  386TIP3   OH222792   3.396   3.012   0.307  0.0573 -0.7496  0.3264
  386TIP3    H122793   3.460   2.991   0.375  2.0886  1.3916 -0.7995
  386TIP3    H222794   3.373   2.928   0.268  0.8504 -1.7358  1.8966
  387TIP3   OH222795   6.682   1.230   2.173 -0.0108 -0.0290  0.3660
  387TIP3    H122796   6.600   1.264   2.136  1.0415  0.9647 -1.1170
  387TIP3    H222797   6.671   1.241   2.267 -0.6646  2.2810  0.0671
  388TIP3   OH222798   2.338   3.744   2.314 -0.6073  0.3133 -0.0524
  388TIP3    H122799   2.268   3.740   2.379 -0.1541  1.3819  0.5261
  388TIP3    H222800   2.293   3.757   2.231 -1.1498 -0.2632  0.1476
  389TIP3   OH222801   4.397   1.951   6.707  0.2239  0.2807 -0.0446
  389TIP3    H122802   4.392   1.893   6.631  0.8092  2.1657 -1.5771
  389TIP3    H222803   4.308   1.984   6.718  0.6290  2.0887 -1.6712
  390TIP3   OH222804   4.490   5.575   6.336 -0.2300 -0.0286 -0.0102
  390TIP3    H122805   4.476   5.481   6.343 -0.9666  0.1988  2.9781
  390TIP3    H222806   4.584   5.587   6.353  0.2627 -0.2795 -2.2434
  391TIP3   OH222807   2.128   5.158   7.950  0.4936 -0.6722 -0.5692
  391TIP3    H122808   2.061   5.222   7.930 -0.6120 -1.4801  0.4238
  391TIP3    H222809   2.121   5.092   7.881  1.1375 -0.1109 -1.1788
  392TIP3   OH222810   1.500   3.854   0.660  0.3088 -0.2376  0.0764
  392TIP3    H122811   1.458   3.898   0.586 -1.2897 -2.4697 -0.4270
  392TIP3    H222812   1.585   3.825   0.626  1.0710  1.6764  0.2051
  393TIP3   OH222813   5.930   6.827   2.038  0.3809 -0.2500 -0.2663
  393TIP3    H122814   5.939   6.891   2.110 -0.2461 -1.8201  1.2900
  393TIP3    H222815   5.969   6.747   2.073  1.0558 -0.7808 -2.1337
  394TIP3   OH222816   5.360   4.390   7.447  0.6279 -0.7581  0.1921
  394TIP3    H122817   5.397   4.305   7.424 -1.3049 -1.6952  0.2979
  394TIP3    H222818   5.299   4.370   7.519  2.5174  1.2330  2.5400
  395TIP3   OH222819   3.475   6.168   0.308  0.2408 -0.1551 -0.4700
  395TIP3    H122820   3.383   6.195   0.317 -0.2070 -1.7475 -0.0512
  395TIP3    H222821   3.471   6.074   0.292  1.8514 -0.5884  1.2879
  396TIP3   OH222822   4.668   2.704   6.672  0.7747  0.4501 -0.1541
  396TIP3    H122823   4.651   2.697   6.578  0.2311 -1.3847  0.0382
  396TIP3    H222824   4.635   2.622   6.709  0.8403  1.1850  1.6720
  397TIP3   OH222825   0.439   6.279   7.590 -0.4412  0.7181 -0.2060
  397TIP3    H122826   0.415   6.232   7.669 -3.0076  1.4963 -0.4325
  397TIP3    H222827   0.359   6.280   7.537  1.5387 -1.1518 -3.5954
  398TIP3   OH222828   1.221   0.648   1.537 -0.5062 -0.0590 -0.2664
  398TIP3    H122829   1.207   0.584   1.467 -0.9883  0.6729 -0.8615
  398TIP3    H222830   1.316   0.660   1.540 -0.4751 -0.1692 -0.7360
  399TIP3   OH222831   2.317   2.653   7.216  0.3366  0.2856 -0.1766
  399TIP3    H122832   2.379   2.592   7.175 -1.1008 -1.7124  0.4718
  399TIP3    H222833   2.343   2.656   7.308 -0.1144 -0.0137 -0.0405
  400TIP3   OH222834   6.775   6.443   1.677 -0.4303  0.0807 -0.1257
  400TIP3    H122835   6.749   6.358   1.643  0.2493 -0.0683 -0.2875
  400TIP3    H222836   6.773   6.433   1.772 -2.7621  0.6261 -0.0569
  401TIP3   OH222837   5.945   4.189   8.531  0.5170  0.0145  0.6295
  401TIP3    H122838   5.993   4.210   8.451  0.7536 -0.8386  0.5396
  401TIP3    H222839   6.011   4.192   8.600  0.2704  0.9712  0.8381
  402TIP3   OH222840   4.116   6.102   7.371  0.9375  0.6507  0.2696
  402TIP3    H122841   4.060   6.024   7.374  1.7267  0.0747  0.3262
  402TIP3    H222842   4.081   6.158   7.440 -0.3350  0.8437 -0.4956
  403TIP3   OH222843   2.795   1.501   0.019  0.3551 -0.5102 -0.3970
  403TIP3    H122844   2.777   1.453  -0.061 -1.8795 -1.7335  0.7519
  403TIP3    H222845   2.868   1.454   0.059 -0.1759 -1.4455 -0.5073
  404TIP3   OH222846   0.925   6.147   0.656 -0.5612  0.7021  0.6106
  404TIP3    H122847   0.850   6.110   0.609  0.5109  0.3577 -0.9395
  404TIP3    H222848   0.942   6.086   0.727 -0.8697 -0.0044  0.0934
  405TIP3   OH222849   4.662   6.125   0.314  0.1614  0.1734  0.1272
  405TIP3    H122850   4.600   6.051   0.311  1.4454 -1.0455  1.5436
  405TIP3    H222851   4.715   6.107   0.392  1.4787  1.8402 -0.3475
  406TIP3   OH222852   4.862   1.020   6.950 -0.2170 -0.2789  0.1748
  406TIP3    H122853   4.830   0.936   6.981 -1.5464 -0.0202 -0.3913
  406TIP3    H222854   4.824   1.084   7.010 -1.6715  0.1109 -1.0779
  407TIP3   OH222855   4.848   5.750   0.533  0.7564  0.4485 -0.0515
  407TIP3    H122856   4.792   5.692   0.481  2.1183  0.7180 -1.9739
  407TIP3    H222857   4.886   5.693   0.600 -1.0332  0.0730  0.7020
  408TIP3   OH222858   0.332   4.209   0.967 -0.3332 -0.2736 -0.2069
  408TIP3    H122859   0.410   4.265   0.974 -0.6295  0.2882 -1.2616
  408TIP3    H222860   0.364   4.122   0.989 -0.0177  0.3757  2.3195
  409TIP3   OH222861   4.066   1.771   6.024  1.2341 -0.1989 -0.1898
  409TIP3    H122862   3.983   1.729   6.001 -0.3485  1.6971  1.5987
  409TIP3    H222863   4.120   1.699   6.057 -0.1405 -1.3162 -0.2474
  410TIP3   OH222864   6.693   2.603   2.578 -0.2395  0.6298 -0.8116
  410TIP3    H122865   6.671   2.597   2.485 -0.8209  0.3076 -0.6572
  410TIP3    H222866   6.739   2.521   2.596 -2.1466 -0.3727 -0.2944
  411TIP3   OH222867   4.117   5.666   0.423 -0.1074  0.1381  0.2068
  411TIP3    H122868   4.173   5.628   0.355  2.2605  0.6747  1.7317
  411TIP3    H222869   4.143   5.620   0.503 -1.2533  1.0309  1.1240
  412TIP3   OH222870   1.526   6.556   1.100  0.6200  0.2552 -0.4891
  412TIP3    H122871   1.472   6.498   1.153  2.1108 -1.2404 -0.5277
  412TIP3    H222872   1.558   6.501   1.028  1.9236  1.1513 -0.6372
  413TIP3   OH222873   1.726   1.237   0.866  0.3340  0.0835 -0.7868
  413TIP3    H122874   1.810   1.266   0.832 -0.3412 -0.0356 -2.6472
  413TIP3    H222875   1.748   1.165   0.926  1.4629 -1.4835 -2.9563
  414TIP3   OH222876   1.400   3.102   2.426 -0.0254  0.3356  0.4714
  414TIP3    H122877   1.355   3.104   2.511 -0.2112  0.2665  0.3744
  414TIP3    H222878   1.437   3.190   2.417  0.0832  0.3128  0.6701
  415TIP3   OH222879   0.364   3.778   0.588  0.0339 -0.1501  0.3411
  415TIP3    H122880   0.301   3.838   0.549  1.1090  0.4187 -0.6010
  415TIP3    H222881   0.420   3.750   0.515 -0.5369 -2.4843  0.6950
  416TIP3   OH222882   5.353   0.046   8.396 -0.3292 -0.1452  0.0342
  416TIP3    H122883   5.313   0.024   8.480 -0.6160  1.2624  0.2837
  416TIP3    H222884   5.446   0.055   8.415 -0.4868  0.8862  0.3669
  417TIP3   OH222885   3.577   3.696   6.859  0.8201 -0.7408 -0.0365
  417TIP3    H122886   3.636   3.770   6.877  1.1097 -1.3230  1.6645
  417TIP3    H222887   3.635   3.625   6.831  0.5083 -0.2732 -2.0081
  418TIP3   OH222888   4.504   2.769   7.207 -0.7294 -0.2814 -0.2385
  418TIP3    H122889   4.481   2.685   7.247 -1.8675  0.0357 -0.1890
  418TIP3    H222890   4.578   2.801   7.258 -0.1276 -1.3573 -0.4025
  419TIP3   OH222891   5.708   2.296   1.291  0.1557  0.4123  0.3520
  419TIP3    H122892   5.617   2.266   1.287  0.7222 -1.3831 -0.0250
  419TIP3    H222893   5.708   2.377   1.240 -0.6580 -1.2111 -2.4341
  420TIP3   OH222894   0.548   0.052   8.277  0.4239  0.1212  0.2766
  420TIP3    H122895   0.481   0.053   8.346  0.5951 -0.2355  0.4480
  420TIP3    H222896   0.580   0.142   8.274  1.4708 -0.1829  1.6908
  421TIP3   OH222897   4.770   3.347   0.615  0.0438  0.1187 -0.7100
  421TIP3    H122898   4.754   3.254   0.630 -2.3620  0.2935 -1.7268
  421TIP3    H222899   4.765   3.387   0.702 -2.2404 -0.3093 -0.6005
  422TIP3   OH222900   6.505   0.154   2.174  0.5905 -0.0609  0.6391
  422TIP3    H122901   6.442   0.086   2.153  1.3513 -0.9729  1.2012
  422TIP3    H222902   6.548   0.123   2.254  1.8516  0.4421  0.1815
  423TIP3   OH222903   4.171   4.517   1.179  0.4724 -0.5056  0.0250
  423TIP3    H122904   4.263   4.531   1.160  0.6692 -0.8404  0.7068
  423TIP3    H222905   4.146   4.440   1.127  1.0196 -1.4519  1.1305
  424TIP3   OH222906   2.569   0.442   8.467 -0.0752  0.4623  0.2414
  424TIP3    H122907   2.641   0.460   8.527 -0.3161  2.0046  0.1182
  424TIP3    H222908   2.533   0.358   8.496  0.2991  0.8012  1.7569
  425TIP3   OH222909   0.997   3.674   1.873  0.4340  0.1636 -0.4446
  425TIP3    H122910   1.027   3.707   1.958  1.6133  1.5216 -1.3419
  425TIP3    H222911   1.074   3.630   1.836  0.5130  1.2400 -1.6047
  426TIP3   OH222912   6.622   2.472   8.473  0.1354 -0.3871  0.1506
  426TIP3    H122913   6.572   2.391   8.465  0.5755 -0.6736  0.3039
  426TIP3    H222914   6.710   2.444   8.496 -0.1350  0.2326  2.0743
  427TIP3   OH222915   3.774   0.024   7.607 -0.5467  0.0812 -0.5241
  427TIP3    H122916   3.734  -0.063   7.604 -0.0697 -0.1564 -0.1559
  427TIP3    H222917   3.743   0.067   7.527 -0.4217 -0.5911 -0.9486
  428TIP3   OH222918   2.404   0.505   2.292  0.2991  0.1820  0.4453
  428TIP3    H122919   2.405   0.474   2.382 -1.1508 -1.1076  0.0769
  428TIP3    H222920   2.432   0.428   2.241  0.5970  0.7320 -0.2295
  429TIP3   OH222921   3.603   4.052   7.504  0.0657  0.1759  0.5345
  429TIP3    H122922   3.568   3.992   7.570 -1.2376 -0.1003 -0.3860
  429TIP3    H222923   3.541   4.125   7.502  0.7906  0.8023  0.5130
  430TIP3   OH222924   2.413   1.330   7.448 -0.2960  0.4354 -0.2291
  430TIP3    H122925   2.418   1.309   7.354  1.0326 -0.5814  0.0459
  430TIP3    H222926   2.319   1.334   7.466 -0.5786  1.2734 -1.7256
  431TIP3   OH222927   4.833   6.767   6.026  0.0664  0.2719 -0.3456
  431TIP3    H122928   4.858   6.859   6.035 -2.5775  0.8638  2.2398
  431TIP3    H222929   4.756   6.768   5.970 -1.3386 -0.0234  1.4991
  432TIP3   OH222930   0.778   5.601   7.416 -0.1081 -0.0810  0.5037
  432TIP3    H122931   0.862   5.578   7.376 -0.7949  1.9426 -2.3957
  432TIP3    H222932   0.802   5.634   7.503  1.7135 -2.3964  0.9841
  433TIP3   OH222933   0.769   1.709   2.567 -0.5519  0.0946  0.5148
  433TIP3    H122934   0.740   1.630   2.522 -0.3620  0.9715 -1.2338
  433TIP3    H222935   0.863   1.713   2.550 -0.9030  1.8228 -1.3701
  434TIP3   OH222936   3.479   5.630   7.388 -0.1118  0.0609 -0.6628
  434TIP3    H122937   3.452   5.576   7.463 -1.3266  2.5496  0.7948
  434TIP3    H222938   3.574   5.636   7.396 -0.3050  1.2775  1.4750
  435TIP3   OH222939   6.325   5.614   1.648  0.4432  0.0686  0.0049
  435TIP3    H122940   6.342   5.704   1.677 -0.4954 -0.1326  1.2779
  435TIP3    H222941   6.233   5.600   1.669  0.5325 -1.1261 -0.3592
  436TIP3   OH222942   4.544   3.950   0.779  0.2814  0.0560  0.2092
  436TIP3    H122943   4.533   4.024   0.839  0.1891 -0.5961  1.0184
  436TIP3    H222944   4.522   3.985   0.693 -0.7897  0.7091  0.7271
  437TIP3   OH222945   1.724   0.745   8.096 -0.7033  0.3984  0.2258
  437TIP3    H122946   1.797   0.785   8.049 -2.9084  3.5383 -0.8382
  437TIP3    H222947   1.764   0.701   8.171  2.2729  1.6736 -0.5046
  438TIP3   OH222948   4.855   4.450   6.894 -0.1748 -0.0136  0.7849
  438TIP3    H122949   4.914   4.524   6.875 -0.0675 -0.2664  0.1143
  438TIP3    H222950   4.910   4.373   6.882 -0.7266 -0.2674 -0.1833
  439TIP3   OH222951   5.527   2.917   7.192  0.0432  0.1808  0.5097
  439TIP3    H122952   5.569   2.972   7.257  0.8983 -1.8187  1.7453
  439TIP3    H222953   5.455   2.875   7.239 -0.4073  0.0101 -0.3124
  440TIP3   OH222954   0.268   5.407   2.707 -0.0012 -0.5050  0.6360
  440TIP3    H122955   0.323   5.365   2.773 -0.7616 -0.2499  1.4644
  440TIP3    H222956   0.196   5.346   2.693 -0.0037 -0.4202  0.2661
  441TIP3   OH222957   4.475   1.584   7.764  0.3256  0.4885  0.6978
  441TIP3    H122958   4.470   1.671   7.724  0.6236  0.3527  0.3497
  441TIP3    H222959   4.549   1.542   7.719 -1.5184 -0.9707 -1.2005
  442TIP3   OH222960   4.414   2.741   7.876  0.6532  0.7821  0.0544
  442TIP3    H122961   4.431   2.692   7.956  0.7110 -4.1322 -2.5643
  442TIP3    H222962   4.497   2.785   7.856  0.6328  2.0863  2.5499
  443TIP3   OH222963   5.296   1.315   7.268  0.3563 -0.3850  0.0199
  443TIP3    H122964   5.232   1.386   7.266  0.4552 -0.0691  3.0697
  443TIP3    H222965   5.295   1.285   7.359  0.6788 -4.0143 -1.0206
  444TIP3   OH222966   5.178   4.907   0.462  0.0069 -0.3470 -0.2393
  444TIP3    H122967   5.141   4.890   0.376  0.0065  0.0420 -0.3186
  444TIP3    H222968   5.143   4.993   0.487  0.9883  0.1076 -0.3942
  445TIP3   OH222969   1.943   5.391   1.299  0.1504 -0.3267  0.1381
  445TIP3    H122970   1.875   5.406   1.364  1.9654  0.9478  1.8417
  445TIP3    H222971   1.922   5.451   1.227 -1.7214 -1.5571 -0.4008
  446TIP3   OH222972   6.059   2.239   8.680 -0.0074 -0.4383 -0.0195
  446TIP3    H122973   5.990   2.182   8.714  0.5997 -0.8703  0.5398
  446TIP3    H222974   6.127   2.178   8.650  0.5222 -0.0176  0.2961
  447TIP3   OH222975   6.647   1.633   7.632  0.6341 -0.0415  0.2203
  447TIP3    H122976   6.653   1.725   7.658  1.2719 -0.2938  1.0510
  447TIP3    H222977   6.681   1.630   7.543  0.6035  0.5340  0.1884
  448TIP3   OH222978   2.559   6.233   0.606 -0.6650  0.0817  0.1377
  448TIP3    H122979   2.646   6.231   0.647 -0.5720  1.1438  0.0046
  448TIP3    H222980   2.499   6.246   0.679 -0.4750  2.3129 -0.0349
  449TIP3   OH222981   5.169   1.975   7.075 -0.3711  0.6310  0.1069
  449TIP3    H122982   5.230   2.025   7.130 -0.3717  0.6639  0.0773
  449TIP3    H222983   5.210   1.973   6.989 -0.1088  0.1142  0.2419
  450TIP3   OH222984   0.584   3.350   2.039  0.0850 -0.2615  0.6612
  450TIP3    H122985   0.635   3.352   1.958 -0.1979  0.0353  0.4893
  450TIP3    H222986   0.647   3.322   2.106 -0.2147 -2.9258 -0.0393
  451TIP3   OH222987   3.493   5.257   0.948 -0.1047  0.0399 -0.0748
  451TIP3    H122988   3.500   5.338   1.000  2.5002 -2.0731  3.2573
  451TIP3    H222989   3.583   5.234   0.928 -0.6873 -2.5729  0.0045
  452TIP3   OH222990   2.373   5.512   1.607 -0.0070 -0.3575  0.1431
  452TIP3    H122991   2.423   5.584   1.569  0.4795 -0.3028  0.8578
  452TIP3    H222992   2.282   5.535   1.591  0.1698 -0.1881 -0.7028
  453TIP3   OH222993   6.486   0.850   2.270 -0.2663 -0.0354  0.4557
  453TIP3    H122994   6.556   0.824   2.330  0.8229  1.6069 -0.0252
  453TIP3    H222995   6.530   0.903   2.203 -1.7894  0.0195 -0.5577
  454TIP3   OH222996   3.319   3.158   0.691  0.1451 -0.2700 -0.1382
  454TIP3    H122997   3.320   3.254   0.699 -1.7300 -0.2530  0.5477
  454TIP3    H222998   3.267   3.141   0.613 -1.3878 -0.7186  0.9434
  455TIP3   OH222999   1.121   1.998   7.043  0.0453 -0.0135  0.6548
  455TIP3    H123000   1.184   2.059   7.005 -1.4370  1.7258  0.8535
  455TIP3    H223001   1.071   1.965   6.969 -0.5555  0.6826  0.7437
  456TIP3   OH223002   4.307   2.175   0.562  0.4965 -0.6474 -0.4068
  456TIP3    H123003   4.233   2.231   0.582  1.3892 -0.0785  1.5000
  456TIP3    H223004   4.276   2.086   0.582  0.5262 -0.3443  1.0667
  457TIP3   OH223005   4.088   6.593   7.949  0.3377  0.1475  0.6182
  457TIP3    H123006   4.133   6.558   8.026  1.0450  0.2188  0.2377
  457TIP3    H223007   4.061   6.516   7.900  0.5213  0.1135  0.5710
  458TIP3   OH223008   0.030   3.797   2.455  0.3297 -0.4641 -0.4970
  458TIP3    H123009  -0.064   3.810   2.473  0.3240 -1.5929  0.4091
  458TIP3    H223010   0.061   3.883   2.429 -1.0430 -0.1401 -1.1956
  459TIP3   OH223011   0.436   4.251   0.647  0.2332  0.6395  0.1181
  459TIP3    H123012   0.439   4.326   0.707 -1.6786 -0.2578  1.4485
  459TIP3    H223013   0.343   4.229   0.642  0.7906 -2.0006  0.2404
  460TIP3   OH223014   0.601   3.447   0.948  0.2398  0.4780  1.1377
  460TIP3    H123015   0.562   3.476   1.030  1.3275  2.2327  1.0978
  460TIP3    H223016   0.533   3.396   0.905 -0.5637  0.0614  2.8324
  461TIP3   OH223017   1.727   5.121   1.971 -0.5334  0.0732  0.2979
  461TIP3    H123018   1.759   5.199   2.016 -0.1216 -0.5547  1.1220
  461TIP3    H223019   1.797   5.056   1.982 -0.2789 -0.0123 -1.5334
  462TIP3   OH223020   2.273   6.667   1.628 -0.0115 -0.0402 -0.0234
  462TIP3    H123021   2.297   6.703   1.542 -0.2265  0.6536  0.2041
  462TIP3    H223022   2.352   6.623   1.658 -0.3265 -1.4636 -1.1659
  463TIP3   OH223023   4.630   1.613   8.484  0.0522  0.2370  0.1136
  463TIP3    H123024   4.695   1.561   8.437 -0.2638 -0.1014  0.0477
  463TIP3    H223025   4.587   1.550   8.542 -2.5824 -0.3075 -2.2658
  464TIP3   OH223026   1.895   1.798   0.634  0.3207  1.1954 -0.0910
  464TIP3    H123027   1.829   1.781   0.701 -0.0747  0.2410 -0.7048
  464TIP3    H223028   1.873   1.885   0.601  0.0292  1.3346  0.4458
  465TIP3   OH223029   5.800   5.697   7.776 -0.1592 -0.1730 -0.4576
  465TIP3    H123030   5.874   5.674   7.720 -0.5542 -1.4970 -0.4817
  465TIP3    H223031   5.737   5.737   7.716 -0.2200 -0.7818 -0.8195
  466TIP3   OH223032   3.526   2.946   0.556  0.4564  0.2470 -0.3506
  466TIP3    H123033   3.484   2.864   0.532  0.4664  0.9385 -2.9988
  466TIP3    H223034   3.523   2.947   0.652 -3.7772 -0.6162 -0.2874
  467TIP3   OH223035   0.556   6.642   1.345  0.1110 -0.1544  0.0805
  467TIP3    H123036   0.477   6.693   1.364  0.1652 -0.2777  0.6369
  467TIP3    H223037   0.540   6.556   1.385  0.0149 -0.5871 -0.8598
  468TIP3   OH223038   1.486   4.032   7.611  0.2238  0.0016 -0.0244
  468TIP3    H123039   1.481   4.121   7.645  0.6182  0.4876 -1.2009
  468TIP3    H223040   1.417   4.027   7.544 -1.8779 -1.5474  2.0619
  469TIP3   OH223041   6.247   1.553   1.031 -0.5102  0.2074 -0.3219
  469TIP3    H123042   6.311   1.501   0.981 -3.5900 -0.7119 -3.7732
  469TIP3    H223043   6.269   1.644   1.010  1.1156  0.0874  0.6565
  470TIP3   OH223044   5.273   4.794   8.057 -0.2163 -0.0059 -0.8504
  470TIP3    H123045   5.230   4.876   8.082  1.6752  1.1977 -1.3093
  470TIP3    H223046   5.312   4.762   8.139  1.2436  0.9766 -1.1225
  471TIP3   OH223047   1.008   4.821   8.682  0.5135 -0.6128 -0.0984
  471TIP3    H123048   0.919   4.796   8.655 -0.0106  0.7020  0.3231
  471TIP3    H223049   1.014   4.794   8.773  0.2243  0.0672  0.1286
  472TIP3   OH223050   1.709   2.251   6.546  0.2273 -0.1699 -0.4452
  472TIP3    H123051   1.769   2.307   6.595 -1.9333  2.1859 -0.2622
  472TIP3    H223052   1.689   2.179   6.606  0.1574  0.9155  0.8840
  473TIP3   OH223053   1.840   6.670   8.514 -0.1825  0.0024 -0.1136
  473TIP3    H123054   1.815   6.729   8.443  0.1692  1.0244  0.5923
  473TIP3    H223055   1.935   6.671   8.514 -0.1663 -1.0665 -0.4978
  474TIP3   OH223056   2.724   5.907   1.576  0.2100  0.1961  0.5278
  474TIP3    H123057   2.800   5.883   1.630  1.2314  0.9845 -0.5093
  474TIP3    H223058   2.713   5.832   1.517  0.0015 -0.0397  0.8629
  475TIP3   OH223059   1.874   6.714   0.358 -0.1300 -0.3137 -0.0268
  475TIP3    H123060   1.926   6.661   0.419 -0.7507  0.8228  1.5768
  475TIP3    H223061   1.797   6.660   0.339  1.1613 -1.6513 -1.7408
  476TIP3   OH223062   0.616   5.459   0.489 -0.2135  0.3804 -0.3131
  476TIP3    H123063   0.695   5.406   0.481  0.3862  1.2255 -0.1116
  476TIP3    H223064   0.552   5.401   0.531  0.5044 -0.1099  0.1176
  477TIP3   OH223065   1.032   1.842   6.646  0.4921 -0.0102 -0.3261
  477TIP3    H123066   1.057   1.831   6.554 -1.9537  0.6309 -1.1408
  477TIP3    H223067   0.939   1.821   6.648  0.7505 -1.2462  2.2883
  478TIP3   OH223068   3.005   1.663   1.023 -0.5078 -0.4992 -0.0238
  478TIP3    H123069   2.982   1.744   1.067 -2.5788  0.3809 -2.4693
  478TIP3    H223070   3.101   1.662   1.023 -0.4271  1.8228  0.3369
  479TIP3   OH223071   2.314   4.181   1.074 -0.0759  0.1213  0.4436
  479TIP3    H123072   2.312   4.277   1.077 -0.9660  0.0976  1.3519
  479TIP3    H223073   2.400   4.157   1.107  0.1424  0.6098  0.2365
  480TIP3   OH223074   5.168   3.544   6.997  0.2576 -0.2032  0.2049
  480TIP3    H123075   5.159   3.593   6.915 -0.1503  1.0150  0.9365
  480TIP3    H223076   5.153   3.453   6.973 -3.0510  0.4322 -0.5933
  481TIP3   OH223077   0.221   3.310   8.010 -0.9860  0.3646  0.8183
  481TIP3    H123078   0.140   3.271   7.978 -1.1691  1.0552  0.4182
  481TIP3    H223079   0.288   3.245   7.990 -1.2114  0.4381 -0.2690
  482TIP3   OH223080   5.534   2.802   7.804  0.5435 -0.0728 -0.3525
  482TIP3    H123081   5.623   2.828   7.826  0.1476  1.1249 -0.1331
  482TIP3    H223082   5.540   2.707   7.790  1.6952 -0.1339  0.4182
  483TIP3   OH223083   4.098   5.133   6.698 -0.2356 -0.0235 -0.0577
  483TIP3    H123084   4.101   5.217   6.652 -1.7057 -0.0476 -0.2339
  483TIP3    H223085   4.017   5.092   6.667  0.0119 -1.1115  0.7102
  484TIP3   OH223086   6.234   4.144   0.795 -0.0113  0.1782  0.1994
  484TIP3    H123087   6.288   4.223   0.793 -0.5670  0.6980  2.7246
  484TIP3    H223088   6.146   4.174   0.772  0.4846 -0.5861 -3.4063
  485TIP3   OH223089   0.564   0.935   6.709  0.3872 -0.3501 -0.9761
  485TIP3    H123090   0.489   0.981   6.748  1.2414 -0.2031  0.5566
  485TIP3    H223091   0.578   0.979   6.626 -1.1444 -0.3052 -1.2524
  486TIP3   OH223092   1.338   5.481   1.303  0.1347  0.1040  0.0790
  486TIP3    H123093   1.345   5.576   1.312  2.7568  0.0543 -0.4961
  486TIP3    H223094   1.382   5.446   1.381 -2.8073 -0.7503  1.4784
  487TIP3   OH223095   4.780   5.202   1.716 -0.5179  0.5173  0.5410
  487TIP3    H123096   4.746   5.240   1.797 -0.5502 -0.1973  0.8659
  487TIP3    H223097   4.705   5.202   1.656 -0.9061 -0.3344  1.0028
  488TIP3   OH223098   5.635   4.964   0.804 -0.3378  0.1592  0.1017
  488TIP3    H123099   5.553   5.007   0.781  0.0762  0.1004 -1.6374
  488TIP3    H223100   5.698   5.035   0.812 -0.1059  0.0494 -0.6931
  489TIP3   OH223101   6.034   4.498   0.483 -0.3674 -0.0435 -0.6064
  489TIP3    H123102   6.127   4.500   0.460 -0.2146 -2.4089 -0.4532
  489TIP3    H223103   6.008   4.407   0.470 -1.9084 -0.1347  2.2747
  490TIP3   OH223104   4.212   4.965   7.216 -0.5238  0.3867 -0.3201
  490TIP3    H123105   4.196   4.888   7.270 -0.9880 -0.8364 -2.0959
  490TIP3    H223106   4.192   4.936   7.127 -0.8783  2.6159 -1.0329
  491TIP3   OH223107   3.840   3.486   7.827 -0.2069  0.0745 -0.1371
  491TIP3    H123108   3.788   3.501   7.749  1.6741  1.1893 -1.2548
  491TIP3    H223109   3.860   3.573   7.861  1.7814 -0.2142 -0.4009
  492TIP3   OH223110   3.052   1.600   7.250 -0.5767  0.4366 -0.0986
  492TIP3    H123111   3.115   1.530   7.270 -0.1421  0.0936 -2.3210
  492TIP3    H223112   2.970   1.571   7.290  0.2063 -0.0837  1.1705
  493TIP3   OH223113   0.984   4.937   1.027 -0.6050  0.1050  0.5938
  493TIP3    H123114   0.975   5.004   1.095  0.4245 -0.2910  1.1431
  493TIP3    H223115   1.077   4.937   1.005 -0.8111 -0.2407 -0.3473
  494TIP3   OH223116   3.231   3.162   0.131  0.5412  0.0945  0.4316
  494TIP3    H123117   3.264   3.119   0.210  0.1866 -0.4600  0.2820
  494TIP3    H223118   3.272   3.113   0.059 -0.2393 -0.3112  0.2516
  495TIP3   OH223119   2.918   4.515   1.924 -0.0253 -0.2454  0.2065
  495TIP3    H123120   2.887   4.425   1.933  0.5809 -0.4659  0.1816
  495TIP3    H223121   3.012   4.505   1.906 -0.3186  0.3203 -1.8540
  496TIP3   OH223122   2.070   2.315   7.838 -0.0619 -0.6214 -0.0479
  496TIP3    H123123   1.981   2.335   7.867 -0.1760  0.4251 -1.0475
  496TIP3    H223124   2.062   2.299   7.744  0.7329 -1.0785 -0.0521
  497TIP3   OH223125   4.942   0.100   7.258  0.6254  0.3931  0.1129
  497TIP3    H123126   4.997   0.070   7.331  1.7396  0.2870 -0.7389
  497TIP3    H223127   4.863   0.046   7.264 -0.3956  1.9856  2.6277
  498TIP3   OH223128   5.401   4.545   1.726  0.2036 -0.0209  0.3974
  498TIP3    H123129   5.391   4.458   1.687 -0.5794  0.9233 -1.6702
  498TIP3    H223130   5.345   4.543   1.804 -0.6053 -1.0541 -0.1849
  499TIP3   OH223131   5.213   6.066   8.642 -0.0917  0.1885  0.1148
  499TIP3    H123132   5.225   6.147   8.592 -0.4056 -0.1366 -0.5096
  499TIP3    H223133   5.195   6.000   8.575  1.0862 -0.5849  0.5291
  500TIP3   OH223134   5.801   5.607   8.323 -0.2425  0.6330 -0.0271
  500TIP3    H123135   5.830   5.693   8.295 -0.1311  0.1801 -1.3439
  500TIP3    H223136   5.823   5.549   8.250 -0.4250 -0.4895  0.7855
  501TIP3   OH223137   4.280   4.140   6.951  0.0913  0.4057 -0.2752
  501TIP3    H123138   4.243   4.210   6.898 -0.7873 -0.2086 -0.4960
  501TIP3    H223139   4.238   4.060   6.918 -2.7285  0.2278  3.1506
  502TIP3   OH223140   4.764   3.767   0.389 -0.4079  0.0775  0.0029
  502TIP3    H123141   4.834   3.832   0.394 -1.7146  1.6098 -0.7958
  502TIP3    H223142   4.803   3.693   0.342  1.0165  0.3883  0.6526
  503TIP3   OH223143   5.007   0.487   6.125  0.1614 -0.2920 -0.5740
  503TIP3    H123144   5.033   0.575   6.150 -1.3721 -0.1786  0.8289
  503TIP3    H223145   5.003   0.438   6.207 -1.3374 -0.9881 -1.0060
  504TIP3   OH223146   6.447   4.140   1.721  0.3773  0.0866 -0.5265
  504TIP3    H123147   6.473   4.142   1.629 -0.0741  0.3193 -0.6513
  504TIP3    H223148   6.476   4.225   1.755 -0.0709  0.2889 -0.6313
  505TIP3   OH223149   2.805   3.652   0.050  0.3400  0.3566 -0.0443
  505TIP3    H123150   2.857   3.722   0.089 -0.7320  1.2120 -0.0750
  505TIP3    H223151   2.723   3.652   0.101  0.4420 -1.1010  0.1565
  506TIP3   OH223152   3.861   6.498   0.159  0.3934 -0.1521 -0.4709
  506TIP3    H123153   3.816   6.537   0.085  1.6033  0.7927 -0.7466
  506TIP3    H223154   3.809   6.421   0.182 -0.3890 -0.0548 -1.8393
  507TIP3   OH223155   4.551   3.907   8.066 -0.4418  0.1598 -0.3831
  507TIP3    H123156   4.462   3.890   8.097 -0.4602  0.7788 -0.0700
  507TIP3    H223157   4.560   3.856   7.986 -0.5440 -1.1354  0.4178
  508TIP3   OH223158   5.268   6.267   7.767 -0.2706 -0.6868  0.6137
  508TIP3    H123159   5.280   6.183   7.812  0.3224 -0.0945  1.6201
  508TIP3    H223160   5.353   6.312   7.778 -0.8774  0.4252  0.9297
  509TIP3   OH223161   1.011   6.613   7.648 -0.3170  0.1971  0.0934
  509TIP3    H123162   0.971   6.615   7.561 -0.0592 -0.3041 -0.0420
  509TIP3    H223163   0.971   6.687   7.695 -2.3038 -0.9747  0.3614
  510TIP3   OH223164   0.911   0.513   8.470 -0.1624  0.2006 -0.8126
  510TIP3    H123165   0.853   0.482   8.400 -2.2160 -1.4070  1.4267
  510TIP3    H223166   0.873   0.478   8.551  2.6190  1.1275  1.0772
  511TIP3   OH223167   3.317   2.576   7.169 -0.0572 -0.1917 -0.1786
  511TIP3    H123168   3.245   2.579   7.106 -0.8795  0.3039  0.7563
  511TIP3    H223169   3.365   2.658   7.155  0.2962 -0.4823 -0.7397
  512TIP3   OH223170   3.466   1.949   0.116  0.7687 -0.0046  0.0229
  512TIP3    H123171   3.510   2.018   0.164 -0.4984  0.7241  0.1761
  512TIP3    H223172   3.453   1.985   0.028 -0.2679  0.1356  0.2216
  513TIP3   OH223173   5.806   6.723   1.490  0.1727 -0.2291  0.2178
  513TIP3    H123174   5.789   6.797   1.432 -0.2901  0.4182  1.1569
  513TIP3    H223175   5.882   6.750   1.542 -1.2925  0.5166  2.0582
  514TIP3   OH223176   3.571   4.538   2.421  0.5409  0.3250  0.1393
  514TIP3    H123177   3.481   4.551   2.389  1.0209  0.9291 -1.0522
  514TIP3    H223178   3.619   4.613   2.386  1.2505  0.6979  1.8459
  515TIP3   OH223179   1.780   2.440   8.573 -0.1419 -0.0836 -0.2178
  515TIP3    H123180   1.795   2.509   8.637 -1.0241 -0.3989  0.3484
  515TIP3    H223181   1.731   2.373   8.621 -1.2918 -0.0918 -1.3596
  516TIP3   OH223182   3.467   3.097   7.686  0.5879  0.2149 -0.2233
  516TIP3    H123183   3.512   3.172   7.647  1.5944 -0.5963 -0.6432
  516TIP3    H223184   3.425   3.133   7.765  2.0014  0.9930  0.2048
  517TIP3   OH223185   4.696   2.426   2.789 -0.1435 -0.3615  0.2584
  517TIP3    H123186   4.765   2.422   2.722 -0.3869 -0.1998 -0.0057
  517TIP3    H223187   4.662   2.337   2.794  1.3133 -0.8734  1.7026
  518TIP3   OH223188   3.447   1.802   1.313  0.6327  0.0497  0.3541
  518TIP3    H123189   3.392   1.724   1.310 -0.4923  0.8131  0.2200
  518TIP3    H223190   3.447   1.835   1.223 -1.0848  1.6130  0.8516
  519TIP3   OH223191   4.041   6.232   7.610 -0.8485 -0.4419 -0.4524
  519TIP3    H123192   4.000   6.317   7.623 -2.2713 -1.1771  0.0494
  519TIP3    H223193   4.029   6.187   7.694  1.7734 -0.4060  0.0315
  520TIP3   OH223194   1.246   4.954   1.529  0.5215  0.5502 -0.1144
  520TIP3    H123195   1.313   5.014   1.562  0.4795  1.6743 -1.9055
  520TIP3    H223196   1.173   5.011   1.505  0.3053 -0.2442 -1.4391
  521TIP3   OH223197   6.376   5.498   7.742 -0.1323  0.1752 -0.4568
  521TIP3    H123198   6.281   5.486   7.735 -0.0640 -0.0084 -1.1595
  521TIP3    H223199   6.410   5.462   7.660  0.5542  0.1325 -0.1543
  522TIP3   OH223200   4.758   5.862   7.648  0.0999  0.2104 -0.4428
  522TIP3    H123201   4.667   5.850   7.676 -0.6321  2.4890 -1.6256
  522TIP3    H223202   4.801   5.900   7.725 -0.2032  0.1250 -0.2261
  523TIP3   OH223203   4.441   4.372   0.158  0.0410 -0.2686  0.0786
  523TIP3    H123204   4.424   4.277   0.157 -1.4446 -0.0348 -0.7750
  523TIP3    H223205   4.528   4.381   0.120 -0.4558 -1.2331 -1.4044
  524TIP3   OH223206   6.665   1.735   0.844 -0.7306  0.8732  0.4635
  524TIP3    H123207   6.623   1.770   0.766  1.0082  1.6544 -0.1608
  524TIP3    H223208   6.700   1.811   0.890  2.7777  0.1696 -0.7227
  525TIP3   OH223209   3.324   3.308   1.577 -0.4769  0.2373  0.5348
  525TIP3    H123210   3.283   3.393   1.594 -2.3609 -1.0649  3.3165
  525TIP3    H223211   3.253   3.253   1.543  0.3326 -0.6399  0.1966
  526TIP3   OH223212   4.877   5.055   1.498 -0.4485  0.2266 -0.0694
  526TIP3    H123213   4.849   5.098   1.578  0.2963  2.1710 -0.7793
  526TIP3    H223214   4.958   5.009   1.522 -0.2175  0.8157  0.3063
  527TIP3   OH223215   6.654   4.308   1.578  0.1185 -0.4188 -0.4189
  527TIP3    H123216   6.597   4.360   1.634 -0.0558 -0.4449 -0.5743
  527TIP3    H223217   6.741   4.346   1.591 -0.2633  1.0427 -1.8429
  528TIP3   OH223218   6.445   3.596   0.178 -0.3731 -0.1054 -0.2682
  528TIP3    H123219   6.515   3.649   0.139 -1.3184  1.3861 -0.0479
  528TIP3    H223220   6.488   3.514   0.203  0.9957  0.2475 -1.3053
  529TIP3   OH223221   3.916   0.848   0.571  0.4323 -0.6156  0.2174
  529TIP3    H123222   3.885   0.770   0.617 -0.9268 -1.0309 -1.2880
  529TIP3    H223223   3.985   0.815   0.513 -0.4929 -0.8183 -0.7895
  530TIP3   OH223224   6.237   4.891   8.529 -0.8058  0.7103 -0.3171
  530TIP3    H123225   6.239   4.841   8.611 -1.8004 -0.2285 -0.8437
  530TIP3    H223226   6.146   4.919   8.521 -1.1866 -0.8851 -2.0765
  531TIP3   OH223227   0.875   1.044   1.735 -0.3597 -0.1436  0.0022
  531TIP3    H123228   0.800   1.100   1.714  0.0182  1.1285  1.7933
  531TIP3    H223229   0.876   1.040   1.831  2.5641  0.9040  0.1075
  532TIP3   OH223230   5.707   3.271   7.597 -0.1672  0.2305 -0.1081
  532TIP3    H123231   5.714   3.331   7.672 -2.8076 -3.1618  3.2375
  532TIP3    H223232   5.615   3.273   7.573  0.1143 -0.8650 -1.3905
  533TIP3   OH223233   1.856   2.186   7.376  0.6425 -0.3894  0.7073
  533TIP3    H123234   1.884   2.104   7.335 -1.9384  0.2351 -2.8075
  533TIP3    H223235   1.937   2.226   7.408  2.3080 -3.0404  0.0986
  534TIP3   OH223236   2.017   3.548   7.266 -0.5443 -0.1086 -0.4958
  534TIP3    H123237   2.009   3.570   7.173 -0.5970  0.4837 -0.3547
  534TIP3    H223238   2.024   3.632   7.310 -0.2874 -0.3952  0.0206
  535TIP3   OH223239   4.322   2.252   8.151  0.0855 -0.5978  0.2983
  535TIP3    H123240   4.308   2.318   8.083  1.3886  0.1229  0.7130
  535TIP3    H223241   4.249   2.265   8.212  0.4380  0.6115  0.4880
  536TIP3   OH223242   0.707   4.041   6.550 -0.1322 -0.0833 -0.3966
  536TIP3    H123243   0.636   3.977   6.546 -1.3310  1.1961 -0.5854
  536TIP3    H223244   0.781   3.998   6.508 -0.7872 -1.4569 -0.2102
  537TIP3   OH223245   4.515   3.049   1.446 -0.2042  0.1731 -0.7815
  537TIP3    H123246   4.607   3.065   1.465  0.2285  1.2207 -3.3421
  537TIP3    H223247   4.511   2.957   1.421  0.0096 -0.0479 -0.0249
  538TIP3   OH223248   3.422   2.305   7.738 -0.3195 -0.0658  0.4388
  538TIP3    H123249   3.508   2.274   7.710 -0.9569 -0.5997 -0.9935
  538TIP3    H223250   3.390   2.237   7.797 -0.8989 -1.2594 -1.1883
  539TIP3   OH223251   1.865   6.105   0.053 -0.0779 -0.0120  0.0078
  539TIP3    H123252   1.817   6.118   0.134  0.5575 -1.4525  0.6428
  539TIP3    H223253   1.812   6.150  -0.014 -1.1380  0.3011  1.0342
  540TIP3   OH223254   5.011   6.351   7.706  0.0685  0.0587  0.1112
  540TIP3    H123255   5.098   6.320   7.730 -0.1141 -2.1057 -1.7397
  540TIP3    H223256   4.958   6.338   7.785  1.0902  0.0428  0.8080
  541TIP3   OH223257   4.786   3.967   1.455  0.5950 -0.0780  0.1878
  541TIP3    H123258   4.709   4.021   1.441  0.9330  0.1970 -0.7214
  541TIP3    H223259   4.856   4.029   1.475  0.5590 -0.3328  1.1398
  542TIP3   OH223260   4.162   5.138   2.150  0.1921 -0.2207  0.4147
  542TIP3    H123261   4.135   5.053   2.116  0.2617  0.6763 -2.0629
  542TIP3    H223262   4.255   5.144   2.128  0.0472  0.7208 -0.0240
  543TIP3   OH223263   6.656   2.933   6.884  0.5288 -0.5173  0.1828
  543TIP3    H123264   6.686   2.843   6.896  0.0767 -0.7694 -0.4887
  543TIP3    H223265   6.569   2.924   6.845 -0.6419  0.1769  2.4303
  544TIP3   OH223266   2.988   5.608   7.900 -0.4142 -0.8615 -0.4014
  544TIP3    H123267   3.017   5.531   7.850  1.1870 -2.3751  2.5388
  544TIP3    H223268   2.926   5.573   7.964  0.3997  0.2163  1.0520
  545TIP3   OH223269   4.197   0.374   6.251 -0.6318 -0.1491 -0.2100
  545TIP3    H123270   4.276   0.385   6.199 -0.3859 -2.0834 -0.3328
  545TIP3    H223271   4.126   0.369   6.187 -0.4001 -1.9055 -0.3901
  546TIP3   OH223272   3.932   0.385   1.828 -0.1790 -0.1036  0.1634
  546TIP3    H123273   3.844   0.397   1.792  0.3445  1.9720 -0.5703
  546TIP3    H223274   3.938   0.448   1.900  0.8756  0.1983 -0.1616
  547TIP3   OH223275   2.077   5.646   0.756  0.1763  0.3990  0.1067
  547TIP3    H123276   2.158   5.697   0.743  1.4245 -1.7776 -1.2965
  547TIP3    H223277   2.012   5.691   0.703  0.7257  1.5614  0.3679
  548TIP3   OH223278   6.528   1.835   7.312 -0.0213 -0.0052 -0.7075
  548TIP3    H123279   6.537   1.860   7.404 -0.0780 -1.9143 -0.1285
  548TIP3    H223280   6.436   1.850   7.291 -0.4942 -1.4397  0.1933
  549TIP3   OH223281   5.699   3.368   0.825 -0.5007  0.3405 -0.3817
  549TIP3    H123282   5.708   3.442   0.886 -0.6493  0.8496 -0.9642
  549TIP3    H223283   5.607   3.369   0.800 -0.7102 -0.6196  0.3088
  550TIP3   OH223284   6.294   1.131   7.066  0.0880 -0.1616  0.1765
  550TIP3    H123285   6.340   1.202   7.022 -1.8232  1.9410  1.3768
  550TIP3    H223286   6.203   1.140   7.036 -0.6849 -0.4849  2.2711
  551TIP3   OH223287   4.260   4.165   2.581  0.5448  0.3630 -0.0773
  551TIP3    H123288   4.293   4.094   2.636  0.9658 -0.2006 -1.0255
  551TIP3    H223289   4.178   4.191   2.622  1.0371  0.2244  1.0289
  552TIP3   OH223290   4.937   6.285   0.185  0.2631  0.4052 -0.0274
  552TIP3    H123291   4.843   6.293   0.199  0.2613  1.4111 -0.4969
  552TIP3    H223292   4.946   6.206   0.130 -0.1860 -0.3633  0.9760
  553TIP3   OH223293   0.475   6.747   0.570  0.1101  0.1836 -0.2230
  553TIP3    H123294   0.511   6.779   0.487 -1.0205  1.7089 -0.1701
  553TIP3    H223295   0.412   6.680   0.545  0.2876  0.1298 -0.5387
  554TIP3   OH223296   2.229   5.673   2.033  0.2365  0.1995  0.3448
  554TIP3    H123297   2.187   5.596   2.071 -0.0878  1.3537  2.5172
  554TIP3    H223298   2.170   5.745   2.055  2.1041  1.5065  1.2672
  555TIP3   OH223299   2.945   1.830   8.051  0.0524 -0.3529  0.0499
  555TIP3    H123300   2.968   1.832   8.144  2.0837  0.4758 -0.4115
  555TIP3    H223301   2.872   1.891   8.043  0.5172  0.3548  0.9590
  556TIP3   OH223302   5.437   6.822   1.624 -0.1290 -0.4092 -0.5148
  556TIP3    H123303   5.352   6.825   1.580 -0.2682 -0.1316 -0.2282
  556TIP3    H223304   5.485   6.753   1.578 -1.5981 -2.7827  1.2333
  557TIP3   OH223305   6.299   2.871   8.571  0.1763 -0.5098 -0.6139
  557TIP3    H123306   6.207   2.846   8.562  0.1151 -0.4695 -0.1451
  557TIP3    H223307   6.348   2.794   8.542  0.0185 -0.0196 -2.3170
  558TIP3   OH223308   5.112   6.815   0.779 -0.4054 -0.0452  0.5453
  558TIP3    H123309   5.116   6.786   0.871  0.9897 -1.6409  0.0323
  558TIP3    H223310   5.071   6.902   0.783 -0.9253 -0.3320  2.6065
  559TIP3   OH223311   2.155   1.856   8.482 -0.9085 -0.1161 -0.4877
  559TIP3    H123312   2.198   1.771   8.488  0.1083  0.1945 -2.4190
  559TIP3    H223313   2.115   1.857   8.395  0.2539  1.8217 -1.0745
  560TIP3   OH223314   3.034   1.321   8.551 -0.0929 -0.5942 -0.1751
  560TIP3    H123315   2.945   1.349   8.572 -0.5515  0.1325 -2.7204
  560TIP3    H223316   3.068   1.390   8.494  2.6866 -0.1347  1.8519
  561TIP3   OH223317   0.847   5.370   1.472  0.1455 -0.2261 -0.3907
  561TIP3    H123318   0.783   5.355   1.541 -0.1380 -0.1006 -0.6261
  561TIP3    H223319   0.931   5.372   1.518  0.4037 -3.8761 -0.4708
  562TIP3   OH223320   2.226   6.009   1.859  0.0041 -0.1570  0.2276
  562TIP3    H123321   2.215   6.104   1.865 -2.2667 -0.3264 -0.4098
  562TIP3    H223322   2.174   5.974   1.932  0.8023 -0.9182  0.4432
  563TIP3   OH223323   6.133   3.215   1.686  0.4119  0.3266 -0.2948
  563TIP3    H123324   6.066   3.280   1.664 -0.2187 -0.8044 -1.9554
  563TIP3    H223325   6.125   3.149   1.617  1.7608 -0.9629  0.7303
  564TIP3   OH223326   2.190   4.991   1.502 -0.0730  0.2193 -0.2557
  564TIP3    H123327   2.251   4.954   1.439 -0.2664 -1.1680  0.3430
  564TIP3    H223328   2.125   5.036   1.448 -0.7630 -1.7374 -1.1544
  565TIP3   OH223329   3.152   2.745   8.513  0.0760 -0.0361 -0.2115
  565TIP3    H123330   3.149   2.665   8.460  0.0117  0.3161 -0.7526
  565TIP3    H223331   3.060   2.769   8.526  0.0043 -1.1774  1.7217
  566TIP3   OH223332   1.547   0.646   1.525 -0.4562 -0.3391  0.2179
  566TIP3    H123333   1.578   0.557   1.511  0.2845  0.0935 -1.0214
  566TIP3    H223334   1.626   0.700   1.521 -1.0089  0.4770 -0.0573
  567TIP3   OH223335   2.341   0.862   7.295  0.0416  0.4441 -0.1401
  567TIP3    H123336   2.294   0.780   7.310 -1.1447  0.9006 -1.2385
  567TIP3    H223337   2.426   0.848   7.337  0.4170 -1.8856 -1.5009
  568TIP3   OH223338   1.862   2.667   1.577  0.7160  0.8355  0.6972
  568TIP3    H123339   1.807   2.595   1.546  0.2404  1.5932 -0.2612
  568TIP3    H223340   1.930   2.624   1.629  0.1053 -0.2519  0.6268
  569TIP3   OH223341   1.541   2.032   0.828 -0.3016 -0.0646 -0.3767
  569TIP3    H123342   1.465   2.019   0.885  0.0068  1.4724  0.4442
  569TIP3    H223343   1.591   2.103   0.870  0.7531  0.0484 -1.7411
  570TIP3   OH223344   2.276   5.753   1.789  0.7597 -0.1693  0.6315
  570TIP3    H123345   2.280   5.848   1.798  0.0424 -0.1763  1.1510
  570TIP3    H223346   2.260   5.721   1.878 -1.5550 -0.5801  0.1441
  571TIP3   OH223347   3.068   5.792   1.985  0.2061  0.0842  0.3847
  571TIP3    H123348   3.116   5.761   2.062  0.9146  0.3924  0.0842
  571TIP3    H223349   3.022   5.870   2.014 -0.4255 -0.4331  0.7778
  572TIP3   OH223350   3.369   1.969   7.391  0.0775  1.0075 -0.4522
  572TIP3    H123351   3.293   1.935   7.344  0.6279 -2.6106  1.0013
  572TIP3    H223352   3.367   1.926   7.476  4.0050  0.2747 -0.5221
  573TIP3   OH223353   0.565   3.253   2.472  0.5735 -0.2554 -0.0152
  573TIP3    H123354   0.591   3.268   2.563  0.6732 -1.1323  0.1106
  573TIP3    H223355   0.647   3.256   2.423  0.6008 -0.4450  0.0184
  574TIP3   OH223356   4.841   2.440   7.113 -0.0276  0.5462  0.3317
  574TIP3    H123357   4.756   2.396   7.119 -0.9284  2.1794  0.2533
  574TIP3    H223358   4.820   2.527   7.078  1.9899  0.1288 -2.2447
  575TIP3   OH223359   1.200   1.841   0.632  0.0091 -0.0283 -0.2065
  575TIP3    H123360   1.258   1.912   0.605  0.3434  0.3933  1.4919
  575TIP3    H223361   1.191   1.852   0.727  0.5786 -2.6565  0.2256
  576TIP3   OH223362   5.874   3.532   8.509  0.5072  0.0051  0.3239
  576TIP3    H123363   5.805   3.483   8.554 -0.2197  1.2024  0.5528
  576TIP3    H223364   5.927   3.465   8.466 -2.2443 -0.8714 -1.9867
  577TIP3   OH223365   2.581   4.981   0.915 -0.1182  0.1751  0.3185
  577TIP3    H123366   2.612   5.064   0.882 -1.4980  0.5656 -0.0611
  577TIP3    H223367   2.520   5.004   0.986  0.2542 -0.5422  0.8915
  578TIP3   OH223368   0.302   1.008   0.466  0.1223 -0.1566  0.2426
  578TIP3    H123369   0.298   0.996   0.371 -1.3870  0.6425  0.1829
  578TIP3    H223370   0.348   0.930   0.498  0.6050 -0.4622 -1.1232
  579TIP3   OH223371   4.043   6.001   8.782 -0.0074 -0.4705  0.6881
  579TIP3    H123372   4.128   6.039   8.805  0.0929 -2.1702  3.7858
  579TIP3    H223373   4.064   5.917   8.743 -0.3040  0.4433 -1.5785
  580TIP3   OH223374   6.575   6.684   7.791  0.0517 -0.1397  0.3032
  580TIP3    H123375   6.542   6.755   7.846  1.1130  1.0059 -0.4596
  580TIP3    H223376   6.668   6.703   7.781  0.5586 -2.1632  0.7870
  581TIP3   OH223377   6.327   6.060   6.803 -0.5641  0.0776  0.4861
  581TIP3    H123378   6.281   5.977   6.813  2.6150 -1.6831  1.7832
  581TIP3    H223379   6.360   6.081   6.890  1.2894  1.0625 -0.3797
  582TIP3   OH223380   2.541   6.513   1.346 -0.6243 -0.0837 -0.3048
  582TIP3    H123381   2.584   6.516   1.431 -1.2996  2.5116  0.0099
  582TIP3    H223382   2.457   6.472   1.363  0.0874 -1.5745 -0.1905
  583TIP3   OH223383   6.385   6.356   7.556  0.3869  0.2584 -0.4777
  583TIP3    H123384   6.351   6.435   7.597  1.2805  0.0084  0.8063
  583TIP3    H223385   6.362   6.285   7.617 -0.8655 -0.5821 -1.8477
  584TIP3   OH223386   5.299   4.202   7.913 -0.1115  0.2419 -0.2132
  584TIP3    H123387   5.217   4.176   7.954  0.1048  0.0528  0.0975
  584TIP3    H223388   5.273   4.228   7.824 -0.6619  1.2261  0.2163
  585TIP3   OH223389   3.911   1.589   8.561  0.3171 -0.0938  0.0486
  585TIP3    H123390   3.999   1.557   8.579  0.0223 -1.1569 -0.3653
  585TIP3    H223391   3.853   1.532   8.611 -0.2782 -0.9412 -1.5274
  586TIP3   OH223392   0.547   4.339   1.372  0.6354  0.3164  0.0005
  586TIP3    H123393   0.614   4.388   1.326  0.1687  0.1283 -0.9023
  586TIP3    H223394   0.466   4.388   1.356  0.3390 -0.1829 -0.0491
  587TIP3   OH223395   2.044   3.271   8.355 -0.5117 -0.5899  0.3798
  587TIP3    H123396   2.019   3.260   8.447  2.4427 -0.0976  1.3561
  587TIP3    H223397   2.013   3.359   8.331  0.1784 -0.0300  1.4790
  588TIP3   OH223398   2.191   3.553   0.934 -0.3495 -0.5462  0.1733
  588TIP3    H123399   2.138   3.475   0.949 -0.1301 -0.8685 -0.6596
  588TIP3    H223400   2.131   3.613   0.888 -0.7658  0.1048  1.5319
  589TIP3   OH223401   0.872   1.398   1.523 -0.0061  0.1045  0.2630
  589TIP3    H123402   0.794   1.348   1.547  1.3839 -2.0239  0.7125
  589TIP3    H223403   0.871   1.474   1.581 -1.3141 -0.3133  0.8199
  590TIP3   OH223404   5.831   6.378   0.824 -0.4137  0.7005 -0.3243
  590TIP3    H123405   5.821   6.381   0.919  3.0105  1.6071  0.1272
  590TIP3    H223406   5.826   6.469   0.796  1.2471  0.7175 -0.6203
  591TIP3   OH223407   5.064   0.648   8.331  0.6598 -0.0318 -0.0030
  591TIP3    H123408   5.034   0.561   8.304  1.1004 -0.1142 -0.2275
  591TIP3    H223409   5.159   0.645   8.322  0.6235  0.7610 -0.8894
  592TIP3   OH223410   1.901   1.501   7.190 -0.0838  0.5655 -0.0232
  592TIP3    H123411   1.855   1.491   7.273 -1.1549  1.7663 -0.4318
  592TIP3    H223412   1.911   1.412   7.156 -0.1930  0.1238  1.0894
  593TIP3   OH223413   5.743   1.035   0.162 -0.2246 -0.5146  0.1761
  593TIP3    H123414   5.708   1.123   0.152 -0.7829 -0.4512  2.2727
  593TIP3    H223415   5.761   1.006   0.072 -0.6230  1.4671 -0.5974
  594TIP3   OH223416   5.562   0.322   6.271  0.5367 -1.1004  0.3471
  594TIP3    H123417   5.592   0.317   6.180  0.1644 -0.7899  0.2044
  594TIP3    H223418   5.498   0.251   6.279 -0.7885 -0.0080 -0.1621
  595TIP3   OH223419   4.455   2.237   0.080 -0.0732  0.6172 -0.3492
  595TIP3    H123420   4.484   2.314   0.032 -0.9804  0.7120 -0.7614
  595TIP3    H223421   4.379   2.205   0.031  0.7206 -0.9716 -0.6165
  596TIP3   OH223422   6.535   0.969   0.432 -1.0881  0.8151  0.1123
  596TIP3    H123423   6.552   1.058   0.462 -0.7144  0.1901  1.8932
  596TIP3    H223424   6.495   0.980   0.346  2.2511  2.5743 -1.3955
  597TIP3   OH223425   0.550   2.317   8.672  0.1811 -0.3393 -0.4622
  597TIP3    H123426   0.574   2.410   8.673  1.0773 -0.5316  1.4139
  597TIP3    H223427   0.631   2.272   8.647  0.0263 -0.6537 -0.4020
  598TIP3   OH223428   6.729   0.309   1.491 -0.2249 -0.3327 -0.5484
  598TIP3    H123429   6.791   0.325   1.419 -0.2142  2.5264 -0.0401
  598TIP3    H223430   6.654   0.269   1.448  1.6922 -3.5444 -1.2475
  599TIP3   OH223431   4.372   4.523   7.940  0.8354 -0.1396  0.4674
  599TIP3    H123432   4.390   4.554   8.029  1.2213 -1.6808  0.9495
  599TIP3    H223433   4.381   4.428   7.945  0.2511 -0.3065 -1.0905
  600TIP3   OH223434   2.450   4.532   7.229 -0.1855  0.2576 -0.0855
  600TIP3    H123435   2.444   4.563   7.139  0.2684 -2.2933 -1.0572
  600TIP3    H223436   2.544   4.525   7.246 -0.2260  1.8394  1.0625
  601TIP3   OH223437   5.978   6.808   8.787 -0.0012 -0.2301  0.2075
  601TIP3    H123438   5.947   6.812   8.878  0.4942 -1.7314  0.4581
  601TIP3    H223439   5.899   6.794   8.736 -0.4693  1.9239  0.2346
  602TIP3   OH223440   0.357   1.821   1.368  0.5528 -0.6936 -0.3941
  602TIP3    H123441   0.447   1.852   1.356  0.3895  0.4646  1.1364
  602TIP3    H223442   0.318   1.825   1.280  0.8357  2.6285 -0.4825
  603TIP3   OH223443   6.303   0.279   7.805 -0.0129  0.7720 -0.2078
  603TIP3    H123444   6.389   0.321   7.812  0.3277 -0.1083  1.3178
  603TIP3    H223445   6.245   0.332   7.860 -0.1081  0.5440 -0.0859
  604TIP3   OH223446   0.820   3.781   1.648 -0.5690  0.2469 -0.3833
  604TIP3    H123447   0.882   3.769   1.720 -2.4973  0.3633  1.4157
  604TIP3    H223448   0.808   3.694   1.610  0.4624  0.1846 -0.5800
  605TIP3   OH223449   0.992   3.673   8.553 -0.0976 -0.5879  0.5805
  605TIP3    H123450   1.038   3.594   8.523  1.4521  0.1308  1.0057
  605TIP3    H223451   0.970   3.654   8.644 -2.6163 -1.7720 -0.1651
  606TIP3   OH223452   5.332   1.453   0.979  0.1272 -0.1742  0.1772
  606TIP3    H123453   5.400   1.412   1.032  0.2151  0.9311  0.9396
  606TIP3    H223454   5.320   1.539   1.018 -2.5077 -0.7333  0.7850
  607TIP3   OH223455   4.301   4.205   7.220 -0.7032  0.3809 -0.3126
  607TIP3    H123456   4.292   4.177   7.129  0.3525 -0.2815 -0.2423
  607TIP3    H223457   4.386   4.249   7.223 -0.2124 -0.5646  0.5523
  608TIP3   OH223458   4.422   0.263   2.121  0.3468  0.6435  0.1386
  608TIP3    H123459   4.371   0.329   2.072 -0.4695  0.7422  1.0906
  608TIP3    H223460   4.485   0.314   2.171  0.2907  0.6367  0.2158
  609TIP3   OH223461   0.229   4.469   7.832 -0.6069  0.1412 -0.0110
  609TIP3    H123462   0.240   4.402   7.900  0.2808  0.1864 -0.0968
  609TIP3    H223463   0.147   4.513   7.855 -0.8127 -0.4719  0.4763
  610TIP3   OH223464   1.603   6.087   8.028 -0.3793 -0.5585  0.4603
  610TIP3    H123465   1.522   6.106   8.075  0.4060  0.8037  1.3455
  610TIP3    H223466   1.629   6.171   7.990  1.0363 -0.7610  0.9089
  611TIP3   OH223467   4.025   1.338   8.298  0.3982 -0.2029 -0.1781
  611TIP3    H123468   4.066   1.368   8.217  1.0331 -2.1421 -0.6203
  611TIP3    H223469   4.036   1.243   8.298 -1.1907 -0.4511  1.3229
  612TIP3   OH223470   4.862   5.714   8.237 -0.0115 -0.2477 -0.4487
  612TIP3    H123471   4.925   5.731   8.168 -0.5419  0.9492 -0.6610
  612TIP3    H223472   4.906   5.652   8.295  1.1528  0.1465 -0.8805
  613TIP3   OH223473   5.608   1.624   0.045 -0.5094 -0.4005  0.3221
  613TIP3    H123474   5.672   1.576   0.097 -0.1847  1.6795  1.9943
  613TIP3    H223475   5.524   1.587   0.070 -0.1499 -1.4870 -0.0277
  614TIP3   OH223476   5.580   4.610   0.305 -0.0712  0.2505 -0.2224
  614TIP3    H123477   5.655   4.599   0.247  1.0780 -0.6570  1.3696
  614TIP3    H223478   5.517   4.545   0.276 -0.5895  1.4605 -2.0034
  615TIP3   OH223479   4.426   3.155   1.185  0.0787 -0.0223  0.0820
  615TIP3    H123480   4.517   3.170   1.157  0.4501 -1.9053  0.1328
  615TIP3    H223481   4.434   3.113   1.271 -0.9135  1.1407  0.7737
  616TIP3   OH223482   5.841   6.011   6.533  0.4161  0.6430 -0.4518
  616TIP3    H123483   5.845   5.958   6.613  1.3417  2.2105  0.5853
  616TIP3    H223484   5.747   6.026   6.519  0.0436 -1.8744 -1.2532
  617TIP3   OH223485   3.819   0.801   8.291 -0.7774 -0.1235  0.0394
  617TIP3    H123486   3.728   0.771   8.297 -1.2877  1.5384  1.4607
  617TIP3    H223487   3.869   0.736   8.340 -1.1859 -1.0179 -0.6986
  618TIP3   OH223488   3.955   4.107   7.778 -0.0150 -0.1161 -0.1198
  618TIP3    H123489   4.006   4.029   7.756  0.8038  0.0401  1.1509
  618TIP3    H223490   4.000   4.179   7.734  0.1411 -0.1468 -0.0092
  619TIP3   OH223491   3.537   3.531   7.845 -0.1372  0.6595  0.1960
  619TIP3    H123492   3.452   3.486   7.838 -0.3828  1.2994 -1.5273
  619TIP3    H223493   3.582   3.486   7.916 -0.3020 -2.4757 -1.4822
  620TIP3   OH223494   3.687   4.882   2.017  0.0824 -0.2589 -0.1014
  620TIP3    H123495   3.736   4.929   1.949  0.1189 -1.5646 -1.0289
  620TIP3    H223496   3.752   4.825   2.058 -0.2259 -0.4874  0.0753
  621TIP3   OH223497   3.649   2.012   0.920 -0.2462  0.7111 -0.0932
  621TIP3    H123498   3.716   1.972   0.865 -1.3908 -0.7560 -0.4523
  621TIP3    H223499   3.609   2.079   0.865 -0.4553  0.1885 -0.5802
  622TIP3   OH223500   1.710   2.476   2.305 -0.5638  0.1170 -0.0538
  622TIP3    H123501   1.642   2.538   2.332  0.0198  1.2568 -1.1141
  622TIP3    H223502   1.784   2.531   2.280  1.1654 -1.1418  2.0564
  623TIP3   OH223503   2.445   2.845   8.436 -0.8049  0.0206 -0.4968
  623TIP3    H123504   2.498   2.925   8.439 -1.8290  0.6962  1.9399
  623TIP3    H223505   2.355   2.877   8.431 -1.2626 -0.9306  1.0330
  624TIP3   OH223506   5.073   1.436   1.204  0.4858 -0.0349 -0.0926
  624TIP3    H123507   5.017   1.398   1.271  0.8815 -2.7485 -1.1621
  624TIP3    H223508   5.145   1.374   1.195  0.7059  0.4700 -2.6368
  625TIP3   OH223509   0.455   3.823   0.335 -0.4898  0.6358 -0.2249
  625TIP3    H123510   0.417   3.755   0.280  2.2152 -1.9509  0.8377
  625TIP3    H223511   0.541   3.841   0.296  0.1340  1.1061  1.2952
  626TIP3   OH223512   3.853   1.763   2.175 -0.4238 -0.5390  0.3355
  626TIP3    H123513   3.896   1.683   2.207 -0.4574 -2.2506 -3.4224
  626TIP3    H223514   3.762   1.737   2.162 -1.1953  1.1235  1.9707
  627TIP3   OH223515   4.834   3.131   8.352  0.7320  0.1736  0.1803
  627TIP3    H123516   4.855   3.044   8.316 -1.3068 -0.4786  0.4139
  627TIP3    H223517   4.800   3.112   8.440  0.8426  1.2703  0.4672
  628TIP3   OH223518   2.977   5.337   2.875  0.2656  1.1306  1.1394
  628TIP3    H123519   3.043   5.268   2.879  0.3838  1.1766  0.1812
  628TIP3    H223520   3.027   5.418   2.864  0.0677  0.9435 -2.2558
  629TIP3   OH223521   2.300   2.271   1.262 -0.4707  0.2026  0.3933
  629TIP3    H123522   2.395   2.260   1.273 -0.4926 -1.3985 -0.7029
  629TIP3    H223523   2.282   2.234   1.176 -2.1444  0.2456  0.6989
  630TIP3   OH223524   1.752   6.668   8.772 -0.3261  0.3956  0.2042
  630TIP3    H123525   1.745   6.661   8.677 -0.3476  1.2097  0.1315
  630TIP3    H223526   1.814   6.740   8.786  0.6341 -0.5246  0.8163
  631TIP3   OH223527   2.647   1.771   7.324  0.4631  0.6040 -0.1181
  631TIP3    H123528   2.662   1.688   7.279 -1.9625 -0.5445  1.0072
  631TIP3    H223529   2.733   1.798   7.354  1.4424 -1.0241 -1.2996
  632TIP3   OH223530   0.647   1.632   0.574 -0.7964  0.1906  0.3676
  632TIP3    H123531   0.673   1.599   0.660  1.3167 -0.3964 -0.4550
  632TIP3    H223532   0.640   1.726   0.586  0.4623  0.2255  0.9471
  633TIP3   OH223533   6.102   2.709   6.978  0.0774 -0.0297  0.1631
  633TIP3    H123534   6.170   2.670   6.922  0.0638 -1.5417  1.1374
  633TIP3    H223535   6.082   2.792   6.937  0.3797 -0.8929 -1.8452
  634TIP3   OH223536   2.694   2.274   0.041  0.1313  0.5187  0.2981
  634TIP3    H123537   2.650   2.354   0.068  1.4727  1.0614  0.9703
  634TIP3    H223538   2.737   2.243   0.121 -2.7778 -2.5723  0.9181
  635TIP3   OH223539   6.277   5.429   0.384  0.1352 -0.0177 -0.0565
  635TIP3    H123540   6.229   5.502   0.422 -0.2319 -0.4306  0.2741
  635TIP3    H223541   6.268   5.358   0.447 -1.6846 -1.1795 -1.5116
  636TIP3   OH223542   4.666   1.564   1.381 -0.2832 -0.4797 -0.7492
  636TIP3    H123543   4.664   1.573   1.286 -0.1338  0.1392 -0.7004
  636TIP3    H223544   4.605   1.493   1.401 -0.1694 -0.7368 -1.3190
  637TIP3   OH223545   2.984   5.884   1.693 -0.1696  0.9817  0.0268
  637TIP3    H123546   3.007   5.972   1.665 -0.5412  1.2595  0.5903
  637TIP3    H223547   3.054   5.857   1.752 -0.2481  1.0395  0.1453
  638TIP3   OH223548   1.949   3.567   2.427 -0.8340 -0.3870 -0.8281
  638TIP3    H123549   1.856   3.587   2.431 -1.0851 -1.6272  1.4089
  638TIP3    H223550   1.993   3.649   2.448 -1.5001 -0.1337 -0.3958
  639TIP3   OH223551   6.314   3.489   7.488  0.4457 -0.3202  0.1660
  639TIP3    H123552   6.378   3.426   7.522 -0.5663 -1.5839 -0.2334
  639TIP3    H223553   6.349   3.516   7.403  0.5385 -0.8540  0.0355
  640TIP3   OH223554   5.217   2.488   0.083 -0.4396 -0.0211  0.2276
  640TIP3    H123555   5.183   2.463  -0.002 -0.9562 -1.9280  0.9382
  640TIP3    H223556   5.210   2.408   0.136  0.2645  0.9876  1.9257
  641TIP3   OH223557   4.382   1.825   6.467  0.5082  0.1292 -0.1484
  641TIP3    H123558   4.453   1.871   6.422  0.9866 -1.5422 -1.1811
  641TIP3    H223559   4.338   1.776   6.398 -1.2708  0.6053  0.5931
  642TIP3   OH223560   2.467   3.542   0.767 -0.2374 -0.6425  0.2542
  642TIP3    H123561   2.452   3.465   0.822  0.0790 -2.9872 -2.7147
  642TIP3    H223562   2.380   3.568   0.737 -0.1964 -0.9898 -0.1727
  643TIP3   OH223563   1.562   3.872   6.970 -0.3003  0.3166 -0.0591
  643TIP3    H123564   1.468   3.869   6.985 -0.5820  0.9400 -1.5668
  643TIP3    H223565   1.584   3.784   6.938 -0.4873  0.3753 -0.3489
  644TIP3   OH223566   3.238   0.399   0.528  0.5640  0.4613 -0.2624
  644TIP3    H123567   3.258   0.470   0.466  1.0631  0.4532 -0.1157
  644TIP3    H223568   3.304   0.409   0.597 -0.3787  0.8685  0.6017
  645TIP3   OH223569   6.477   4.119   7.226 -0.2846 -0.4253 -0.3082
  645TIP3    H123570   6.400   4.071   7.256  0.6657 -1.2294  0.9371
  645TIP3    H223571   6.522   4.059   7.166 -0.2169 -0.2471 -0.4390
  646TIP3   OH223572   2.266   6.458   7.335 -0.9533  0.0729  0.1801
  646TIP3    H123573   2.358   6.461   7.362 -0.6246  2.6827 -0.8772
  646TIP3    H223574   2.217   6.455   7.418  0.0551 -0.9862  0.7635
  647TIP3   OH223575   3.147   0.946   8.610 -0.1015  0.1505  0.1004
  647TIP3    H123576   3.115   0.890   8.539  0.3842  0.8008 -0.6511
  647TIP3    H223577   3.239   0.962   8.589 -0.5713  2.4754 -0.6037
  648TIP3   OH223578   1.716   4.785   6.987  0.7147  0.4422 -0.2388
  648TIP3    H123579   1.667   4.835   6.922  0.9065  0.1826 -0.5949
  648TIP3    H223580   1.702   4.693   6.962 -1.6744  0.1405  1.8668
  649TIP3   OH223581   3.435   4.425   0.372 -0.1943  0.1072 -0.0859
  649TIP3    H123582   3.464   4.362   0.438 -0.9506  0.3158  0.4616
  649TIP3    H223583   3.497   4.498   0.379 -0.0211 -0.0560  0.0956
  650TIP3   OH223584   0.626   4.417   7.667  0.2259 -0.1853  0.0603
  650TIP3    H123585   0.693   4.375   7.719 -1.2052 -1.6102  0.8400
  650TIP3    H223586   0.562   4.348   7.649 -0.1850  0.6694 -2.1602
  651TIP3   OH223587   1.471   3.157   0.943  0.4582  0.1625  0.1024
  651TIP3    H123588   1.444   3.184   0.855  1.4390  1.3290  0.1264
  651TIP3    H223589   1.502   3.068   0.932 -1.7661 -0.6337 -0.2309
  652TIP3   OH223590   5.539   1.803   6.901 -0.7834  0.2212  0.3550
  652TIP3    H123591   5.556   1.711   6.923  0.1944  0.6093  1.3197
  652TIP3    H223592   5.626   1.842   6.892 -1.1784  0.8488 -1.0537
  653TIP3   OH223593   4.931   1.895   1.478 -0.2980 -0.0346  0.1668
  653TIP3    H123594   4.898   1.960   1.541  0.4248 -0.3245  0.8647
  653TIP3    H223595   4.882   1.815   1.499 -1.4334  0.3473 -0.9155
  654TIP3   OH223596   3.151   2.845   1.632 -0.1943 -0.1570 -0.3772
  654TIP3    H123597   3.164   2.932   1.670 -0.5516 -0.3921  0.3044
  654TIP3    H223598   3.184   2.853   1.543  2.2838 -0.0666  0.4776
  655TIP3   OH223599   1.645   4.427   0.865 -0.8013 -0.0803  0.0120
  655TIP3    H123600   1.658   4.362   0.934  2.8650  2.0334  1.6032
  655TIP3    H223601   1.668   4.381   0.784  1.9805 -0.8050  1.1119
  656TIP3   OH223602   1.348   2.232   0.736 -0.8495  0.4684 -0.7807
  656TIP3    H123603   1.415   2.170   0.765 -2.0933 -0.2409  0.7143
  656TIP3    H223604   1.381   2.317   0.765 -0.6122  0.1203  0.0068
  657TIP3   OH223605   4.068   3.263   8.271  0.4549 -0.3388 -0.0368
  657TIP3    H123606   4.154   3.301   8.287  0.1521  0.3286  0.0132
  657TIP3    H223607   4.028   3.320   8.205  0.3868 -1.1494 -0.7219
  658TIP3   OH223608   3.271   0.069   7.079 -0.4343 -0.8474  0.0535
  658TIP3    H123609   3.330  -0.002   7.052 -1.7171 -1.9477  0.0628
  658TIP3    H223610   3.311   0.104   7.158  1.4427  0.0098 -1.1858
  659TIP3   OH223611   0.365   3.385   8.572 -0.1785 -0.0124  0.1807
  659TIP3    H123612   0.402   3.434   8.645  0.7123  0.1617 -0.3723
  659TIP3    H223613   0.282   3.429   8.554 -1.6001 -1.5198  2.6003
  660TIP3   OH223614   4.254   3.316   2.056  0.3541  0.0873  0.2129
  660TIP3    H123615   4.172   3.287   2.017  0.2660 -0.6298  0.9111
  660TIP3    H223616   4.277   3.247   2.119  1.1185  0.6255  0.5423
  661TIP3   OH223617   2.449   6.536   1.791 -0.2592 -0.3489 -0.8623
  661TIP3    H123618   2.478   6.488   1.868  1.4185  1.8369 -0.0228
  661TIP3    H223619   2.424   6.469   1.728  1.8968 -2.2910  0.2438
  662TIP3   OH223620   3.495   4.773   2.636  1.1030 -0.0251 -0.8236
  662TIP3    H123621   3.586   4.753   2.615  1.5676  1.3142 -0.2116
  662TIP3    H223622   3.499   4.811   2.724 -0.3197 -1.9569  0.1333
  663TIP3   OH223623   2.919   3.882   1.024  0.0080 -0.0069  0.6703
  663TIP3    H123624   2.835   3.851   0.992  0.1721  0.3110 -0.0915
  663TIP3    H223625   2.984   3.843   0.966  0.3274  0.3782  0.7570
  664TIP3   OH223626   2.277   2.217   7.149 -0.0190  0.3255 -0.0916
  664TIP3    H123627   2.274   2.127   7.116 -0.7211 -0.4108  1.8786
  664TIP3    H223628   2.221   2.265   7.088  1.1341 -0.3259 -1.7496
  665TIP3   OH223629   4.436   1.481   7.438  0.2032 -0.9247 -0.2377
  665TIP3    H123630   4.524   1.443   7.433  1.7863  2.5359 -1.5930
  665TIP3    H223631   4.449   1.575   7.428 -3.7185 -0.2390 -0.7296
  666TIP3   OH223632   6.845   4.391   0.034  0.6105 -0.5315 -0.3908
  666TIP3    H123633   6.851   4.400   0.129 -1.1864  0.0744 -0.3011
  666TIP3    H223634   6.825   4.299   0.019 -0.4009 -0.3693 -0.0863
  667TIP3   OH223635   3.840   2.163   6.633  0.6420  0.2179 -0.3595
  667TIP3    H123636   3.795   2.092   6.588 -1.6000  1.1498  0.2619
  667TIP3    H223637   3.909   2.190   6.573 -0.7937 -0.0693 -2.2354
  668TIP3   OH223638   4.933   0.085   8.311 -0.0732  0.5051  0.0346
  668TIP3    H123639   5.019   0.114   8.282  0.5007 -0.2385  0.9266
  668TIP3    H223640   4.948   0.049   8.399 -0.8061 -1.9429 -0.7576
  669TIP3   OH223641   5.626   2.212   0.857  0.2773 -0.1952 -0.6520
  669TIP3    H123642   5.539   2.233   0.823  0.5131 -0.7132 -1.6090
  669TIP3    H223643   5.673   2.296   0.855 -1.1579  0.8638  3.0222
  670TIP3   OH223644   1.805   2.233   1.660 -0.3299 -0.2870  0.0203
  670TIP3    H123645   1.769   2.144   1.650 -1.7495  0.0980  1.3184
  670TIP3    H223646   1.882   2.222   1.714 -0.2100 -0.7881 -0.2467
  671TIP3   OH223647   3.720   5.020   2.614  0.0095  0.6309 -0.2518
  671TIP3    H123648   3.761   5.077   2.679  1.2310  0.1920 -0.6185
  671TIP3    H223649   3.791   4.993   2.556 -0.1920 -2.3804  0.7038
  672TIP3   OH223650   0.524   2.968   7.445 -0.9813  0.0549  0.0151
  672TIP3    H123651   0.502   3.048   7.396 -0.6987 -0.1500 -0.4498
  672TIP3    H223652   0.568   3.000   7.524  0.7490  0.3126 -0.9990
  673TIP3   OH223653   0.141   2.487   7.115 -0.2639  0.1150 -0.1269
  673TIP3    H123654   0.162   2.425   7.046  0.5990  0.8421 -0.5387
  673TIP3    H223655   0.050   2.512   7.098  0.1074  0.6936 -1.3304
  674TIP3   OH223656   0.370   1.397   1.104 -0.2510 -0.7113 -0.3567
  674TIP3    H123657   0.302   1.464   1.098  0.5990  0.0776 -1.8768
  674TIP3    H223658   0.378   1.379   1.198 -1.6547  0.0871 -0.0532
  675TIP3   OH223659   6.229   3.848   8.735 -0.4594 -0.3333 -0.6966
  675TIP3    H123660   6.294   3.896   8.786  2.0722 -2.6825 -1.4552
  675TIP3    H223661   6.169   3.812   8.800 -1.3282  2.1982 -0.0009
  676TIP3   OH223662   4.014   5.846   7.333  0.0143  0.3214 -0.1293
  676TIP3    H123663   4.108   5.831   7.333 -0.2292 -1.3698 -0.2571
  676TIP3    H223664   3.985   5.817   7.247 -0.5729  1.2954 -0.2742
  677TIP3   OH223665   6.231   4.824   6.782  0.5839  0.6283  0.1742
  677TIP3    H123666   6.221   4.747   6.725 -0.5284  0.0215  1.1689
  677TIP3    H223667   6.311   4.806   6.832  0.7860  0.5129 -0.1838
  678TIP3   OH223668   6.752   6.063   0.841  0.2717 -0.0391  0.2051
  678TIP3    H123669   6.840   6.088   0.811  0.4955 -0.7445  0.2564
  678TIP3    H223670   6.701   6.144   0.835  0.9171  0.3710  0.1474
  679TIP3   OH223671   2.720   5.787   0.636  0.4653  0.7658 -1.1345
  679TIP3    H123672   2.660   5.857   0.663 -0.5370 -0.3451 -0.3341
  679TIP3    H223673   2.721   5.792   0.540 -1.1958  0.6236 -1.1966
  680TIP3   OH223674   4.339   4.358   6.515 -0.0199  0.2537  0.2984
  680TIP3    H123675   4.319   4.445   6.548  1.9146  0.7270  0.3735
  680TIP3    H223676   4.433   4.347   6.533 -0.1875 -1.7899  0.1777
  681TIP3   OH223677   2.257   5.339   7.101  0.1741  0.1461  0.2990
  681TIP3    H123678   2.238   5.252   7.067 -0.3313  0.1385  0.5938
  681TIP3    H223679   2.289   5.388   7.025  0.0220 -0.1646  0.0336
  682TIP3   OH223680   5.188   4.139   2.183 -0.1352 -0.1054  0.3963
  682TIP3    H123681   5.097   4.167   2.191 -0.1743 -0.3522  0.7857
  682TIP3    H223682   5.219   4.130   2.273  0.1468 -0.4417  0.2647
  683TIP3   OH223683   4.736   1.722   1.587 -0.4019 -0.0483 -0.2971
  683TIP3    H123684   4.702   1.666   1.517  1.3797 -0.9381 -0.5004
  683TIP3    H223685   4.658   1.749   1.635 -1.7328  0.7633 -2.7019
  684TIP3   OH223686   2.239   5.445   0.991  0.1502  0.1998  0.1690
  684TIP3    H123687   2.182   5.428   1.065 -0.8546  0.7585 -0.4505
  684TIP3    H223688   2.181   5.482   0.924  1.0338 -0.2635 -0.8840
  685TIP3   OH223689   1.793   5.388   8.196  0.4454  0.0310  0.3082
  685TIP3    H123690   1.838   5.340   8.266  1.3314  1.4082  0.7360
  685TIP3    H223691   1.843   5.470   8.188 -0.4754  0.4912 -0.9973
  686TIP3   OH223692   6.304   0.692   8.749  0.3097  0.3532  0.2959
  686TIP3    H123693   6.233   0.667   8.689  0.8680 -0.5083 -0.0317
  686TIP3    H223694   6.384   0.671   8.701  0.7712 -1.5388  1.7831
  687TIP3   OH223695   3.138   6.457   7.495  0.2833 -0.2981 -0.0986
  687TIP3    H123696   3.120   6.450   7.401 -0.6385 -0.7249  0.0929
  687TIP3    H223697   3.222   6.414   7.507  0.0009 -1.0230 -0.6141
  688TIP3   OH223698   5.970   5.605   2.151  0.6082  0.2193  0.1838
  688TIP3    H123699   6.026   5.538   2.112  0.7745 -1.4759  3.0556
  688TIP3    H223700   5.881   5.572   2.139  0.5246  0.6156 -0.3289
  689TIP3   OH223701   0.574   4.762   8.386  0.0703 -0.1035  0.4206
  689TIP3    H123702   0.524   4.801   8.457 -0.2514 -1.3620  0.9281
  689TIP3    H223703   0.657   4.735   8.427 -0.0794 -0.7510  0.3200
  690TIP3   OH223704   5.278   3.125   7.855 -0.5482  0.1288  0.1223
  690TIP3    H123705   5.263   3.215   7.825  0.3647  0.8771  1.7767
  690TIP3    H223706   5.198   3.078   7.830 -1.5253  1.6688  0.2197
  691TIP3   OH223707   6.121   1.100   1.291  0.2434  0.5957  0.1730
  691TIP3    H123708   6.176   1.151   1.232  0.4700  1.3271  0.9956
  691TIP3    H223709   6.120   1.012   1.253  1.2432  0.7899 -0.3366
  692TIP3   OH223710   5.947   6.122   1.432 -0.4463 -0.0058 -0.1519
  692TIP3    H123711   6.019   6.070   1.465  0.6066  1.3600 -0.2074
  692TIP3    H223712   5.880   6.117   1.500  0.7544  0.8402  1.1287
  693TIP3   OH223713   5.328   0.670   8.312  0.2678 -0.4197 -0.4251
  693TIP3    H123714   5.337   0.576   8.326 -2.1420 -0.8875 -1.5739
  693TIP3    H223715   5.388   0.710   8.376 -0.6683 -2.6372  1.9925
  694TIP3   OH223716   5.401   3.992   1.790 -0.0432 -0.0208 -0.2677
  694TIP3    H123717   5.326   4.051   1.788 -0.7542 -0.9196 -0.7091
  694TIP3    H223718   5.366   3.909   1.822  0.5958 -0.6730 -1.1975
  695TIP3   OH223719   4.616   5.678   7.398  0.6608 -0.0028  0.5390
  695TIP3    H123720   4.652   5.625   7.469  0.7398  0.1705  0.6311
  695TIP3    H223721   4.578   5.615   7.337  1.4509 -0.2171  0.2560
  696TIP3   OH223722   4.637   4.617   6.376  0.0496  0.2210 -0.2475
  696TIP3    H123723   4.593   4.694   6.340 -0.6852 -0.3043 -0.5258
  696TIP3    H223724   4.620   4.620   6.470  1.6534  1.3988  0.0410
  697TIP3   OH223725   2.670   1.563   1.411 -0.2106 -0.0009 -0.3146
  697TIP3    H123726   2.753   1.605   1.386 -0.2453  0.4454  0.2940
  697TIP3    H223727   2.693   1.502   1.480 -0.4091  0.2596 -0.0119
  698TIP3   OH223728   4.034   3.631   0.148 -0.0397  0.4012 -0.1560
  698TIP3    H123729   4.041   3.643   0.243 -3.6959  0.4092  0.2691
  698TIP3    H223730   4.040   3.720   0.113  0.3170  0.5177  0.1949
  699TIP3   OH223731   2.271   2.518   2.016 -0.3415  0.0627 -0.1434
  699TIP3    H123732   2.224   2.442   1.983 -0.0090 -0.4007  0.4249
  699TIP3    H223733   2.340   2.481   2.071  0.7350  0.7202 -1.0112
  700TIP3   OH223734   6.327   6.318   8.567 -0.1158 -0.0175 -0.5000
  700TIP3    H123735   6.367   6.383   8.509  2.5175 -0.4468  0.6875
  700TIP3    H223736   6.333   6.236   8.518  1.8427 -0.3295  0.1934
  701TIP3   OH223737   1.627   2.138   8.428  0.1043  0.6806  0.2919
  701TIP3    H123738   1.680   2.200   8.379  0.4553  0.1237 -0.0483
  701TIP3    H223739   1.664   2.139   8.516 -1.4570  2.7870  0.9980
  702TIP3   OH223740   1.386   2.709   0.434  0.4610 -0.3560 -0.0758
  702TIP3    H123741   1.357   2.690   0.345  1.7145 -2.0966 -0.1648
  702TIP3    H223742   1.477   2.680   0.436  1.8738  3.4863  0.5929
  703TIP3   OH223743   1.839   1.035   7.235  0.1662  0.2581  0.4245
  703TIP3    H123744   1.902   0.964   7.246 -1.3210 -1.2593 -0.3201
  703TIP3    H223745   1.882   1.096   7.176  1.9439  0.6193  2.0002
  704TIP3   OH223746   0.746   6.054   2.062 -0.1383  0.5514 -0.0270
  704TIP3    H123747   0.799   6.100   2.128 -0.3726  1.7590 -0.6467
  704TIP3    H223748   0.792   5.972   2.047 -0.6428 -0.2301  2.3909
  705TIP3   OH223749   4.272   2.893   0.752 -0.5035  0.0650  0.0883
  705TIP3    H123750   4.274   2.945   0.832 -2.4025 -0.9708  0.8531
  705TIP3    H223751   4.345   2.832   0.762 -0.8437 -0.1886  1.1408
  706TIP3   OH223752   3.374   6.717   7.531 -0.5974 -0.0579  0.0033
  706TIP3    H123753   3.344   6.674   7.451  0.8193  0.5767 -0.8840
  706TIP3    H223754   3.466   6.695   7.538 -0.4208  0.8650  0.8369
  707TIP3   OH223755   5.214   6.365   2.307  0.2935  0.4096  0.2555
  707TIP3    H123756   5.127   6.403   2.324  0.2146 -1.1931  4.4634
  707TIP3    H223757   5.274   6.438   2.320 -0.2639  1.3515 -1.9371
  708TIP3   OH223758   0.999   3.400   7.270  0.6999 -0.4970  0.0270
  708TIP3    H123759   0.970   3.317   7.308  0.5051 -1.0933 -1.3873
  708TIP3    H223760   0.926   3.428   7.216  0.4710  0.9935  1.0484
  709TIP3   OH223761   5.016   4.776   1.291 -0.0777  0.2946  0.5875
  709TIP3    H123762   5.014   4.681   1.284 -1.6506  0.3438  0.0629
  709TIP3    H223763   5.091   4.794   1.347  0.3895 -1.2337  0.4998
  710TIP3   OH223764   2.003   6.711   8.205  0.6412  0.0255  0.0307
  710TIP3    H123765   1.925   6.656   8.196  1.9269 -1.8231 -0.3129
  710TIP3    H223766   2.005   6.735   8.298  0.0059 -0.4104  0.1620
  711TIP3   OH223767   1.153   6.780   1.706 -0.6304  0.1328 -0.1000
  711TIP3    H123768   1.224   6.716   1.710  1.2481  2.1777  2.0733
  711TIP3    H223769   1.104   6.767   1.787 -1.7875 -0.1725 -0.8256
  712TIP3   OH223770   1.780   1.725   7.043 -0.3816 -0.7024 -0.0092
  712TIP3    H123771   1.804   1.815   7.066 -3.2855  0.5122 -1.2967
  712TIP3    H223772   1.805   1.673   7.119  1.5432  1.1031  0.6903
  713TIP3   OH223773   5.737   2.799   0.638  0.1306  0.1059 -0.4075
  713TIP3    H123774   5.780   2.803   0.724 -0.0512 -2.6281 -0.0730
  713TIP3    H223775   5.697   2.885   0.627  2.4471  1.4716  0.9866
  714TIP3   OH223776   4.628   1.447   8.757  0.2063  0.7235 -0.4173
  714TIP3    H123777   4.609   1.360   8.792 -0.6787  0.7890 -0.6861
  714TIP3    H223778   4.655   1.498   8.833  0.4815  0.2810 -0.2133
  715TIP3   OH223779   1.380   3.820   8.233  0.0718 -0.2810 -0.0238
  715TIP3    H123780   1.407   3.746   8.178 -0.9211 -1.0898  0.5413
  715TIP3    H223781   1.290   3.799   8.259  0.3893  0.2578  1.6080
  716TIP3   OH223782   0.948   3.086   2.082  0.0724  0.7441 -0.3662
  716TIP3    H123783   0.948   3.162   2.139  1.3875 -0.6534  1.6365
  716TIP3    H223784   0.860   3.049   2.090 -0.1857  1.3474 -0.3816
  717TIP3   OH223785   0.140   4.951   6.634  0.1761 -0.7651 -0.1873
  717TIP3    H123786   0.196   4.913   6.566  1.0638  1.2574 -0.6551
  717TIP3    H223787   0.200   5.002   6.688 -1.0807  0.8312 -0.2282
  718TIP3   OH223788   0.577   2.583   8.724  0.0376 -0.1012 -0.4967
  718TIP3    H123789   0.547   2.662   8.678  2.2033  0.3078 -1.3140
  718TIP3    H223790   0.635   2.616   8.792  3.0977 -0.9876 -2.4912
  719TIP3   OH223791   4.014   2.184   0.819 -0.0204  0.0582  0.0996
  719TIP3    H123792   4.066   2.131   0.879 -0.7433  0.9167  1.5380
  719TIP3    H223793   4.076   2.248   0.784  0.3175 -0.1751  0.2662
  720TIP3   OH223794   6.004   1.994   7.219 -0.2597 -0.3126  0.1295
  720TIP3    H123795   5.968   2.078   7.192  0.8740 -0.4366 -2.0266
  720TIP3    H223796   6.062   2.014   7.291  3.1892  1.5552 -2.8356
  721TIP3   OH223797   2.489   3.974   0.341  0.2533 -0.1874  0.1722
  721TIP3    H123798   2.556   3.960   0.407 -2.0154 -0.1066  2.6578
  721TIP3    H223799   2.438   3.893   0.339  0.3802 -0.2814 -1.7160
  722TIP3   OH223800   5.627   0.670   8.309 -0.1134  0.7397  0.3301
  722TIP3    H123801   5.565   0.708   8.371 -1.2208  1.2058 -1.0283
  722TIP3    H223802   5.689   0.742   8.291 -0.8404  1.1809 -0.4563
  723TIP3   OH223803   2.786   5.264   8.368 -0.0187  0.4514 -0.2162
  723TIP3    H123804   2.735   5.327   8.418  0.5820 -1.2477  2.7926
  723TIP3    H223805   2.721   5.205   8.329 -0.5008  0.2827  0.7961
  724TIP3   OH223806   6.336   1.989   1.818  0.1278  0.2366 -0.0164
  724TIP3    H123807   6.370   2.042   1.745  0.9335 -0.7578 -0.3873
  724TIP3    H223808   6.414   1.960   1.865 -0.4058  1.3709  1.6499
  725TIP3   OH223809   2.692   6.211   7.198  0.0869  0.1177  0.1507
  725TIP3    H123810   2.597   6.222   7.197 -0.0376 -0.9120 -0.5715
  725TIP3    H223811   2.712   6.181   7.287 -0.0332  1.9868  0.8565
  726TIP3   OH223812   1.069   0.008   2.050  0.5568  0.7327 -0.3225
  726TIP3    H123813   1.095  -0.084   2.046 -0.4365  0.3935  0.5247
  726TIP3    H223814   1.014   0.014   2.128 -0.4512  1.7692 -1.0739
  727TIP3   OH223815   3.622   2.117   7.662 -0.6329  0.5756  0.0232
  727TIP3    H123816   3.646   2.137   7.572  0.2595 -1.0493 -0.1493
  727TIP3    H223817   3.706   2.098   7.705 -1.0075  1.6962  1.3083
  728TIP3   OH223818   1.231   6.626   7.812 -0.5512  0.0873  0.0040
  728TIP3    H123819   1.225   6.554   7.874 -0.6209  0.0992  0.0120
  728TIP3    H223820   1.166   6.605   7.745 -0.6865  0.2232  0.0915
  729TIP3   OH223821   1.894   3.293   7.092  0.2735  0.0673  0.3016
  729TIP3    H123822   1.941   3.244   7.024 -0.9540 -0.6439 -0.0600
  729TIP3    H223823   1.963   3.322   7.152  1.1002 -1.7098  0.2873
  730TIP3   OH223824   1.311   4.973   6.473  0.5426 -0.3483 -0.5230
  730TIP3    H123825   1.227   5.017   6.484  1.8489  1.8181  2.0850
  730TIP3    H223826   1.312   4.904   6.539  1.3823  0.7268  0.6401
  731TIP3   OH223827   5.286   5.447   0.680 -0.6248  0.3232  0.4290
  731TIP3    H123828   5.238   5.382   0.731 -0.5892  1.1352  1.5295
  731TIP3    H223829   5.373   5.451   0.721 -0.2739  0.2979 -0.2958
  732TIP3   OH223830   2.723   3.790   1.343 -0.4295  0.0135  0.4194
  732TIP3    H123831   2.809   3.766   1.308 -0.5259  0.5964 -0.2295
  732TIP3    H223832   2.738   3.874   1.386 -0.3994 -0.5042  1.4453
  733TIP3   OH223833   1.408   3.632   7.097  0.2627 -0.2153  0.4232
  733TIP3    H123834   1.355   3.582   7.035 -0.7380 -0.6511  1.5861
  733TIP3    H223835   1.371   3.720   7.094  1.0818  0.0983 -0.5663
  734TIP3   OH223836   2.091   3.343   1.074 -0.0165 -0.5979 -0.1431
  734TIP3    H123837   2.095   3.324   1.168  0.6839 -0.4705 -0.1402
  734TIP3    H223838   2.015   3.294   1.043 -0.7952  0.0844  0.6572
  735TIP3   OH223839   4.938   2.521   8.108  0.1639 -0.1158 -0.1465
  735TIP3    H123840   4.942   2.483   8.020  3.7624  0.3156 -0.2853
  735TIP3    H223841   4.933   2.616   8.092  0.3051 -0.0645  0.1145
  736TIP3   OH223842   3.974   1.092   8.508 -0.6065 -0.1490 -0.4246
  736TIP3    H123843   4.044   1.097   8.443  0.8035 -1.4146  0.9161
  736TIP3    H223844   4.012   1.129   8.588 -2.1603  0.9959 -0.1591
  737TIP3   OH223845   4.552   4.387   0.648 -0.0028 -0.2632 -0.0013
  737TIP3    H123846   4.591   4.466   0.612 -0.3743  0.7070  1.6484
  737TIP3    H223847   4.473   4.372   0.595  0.2087  0.3114 -0.4835
  738TIP3   OH223848   0.869   6.429   1.782  0.3274  0.1462  0.3109
  738TIP3    H123849   0.775   6.438   1.770  0.3529 -0.0128 -0.0239
  738TIP3    H223850   0.890   6.345   1.741  0.2619 -0.9230  2.3579
  739TIP3   OH223851   0.609   5.552   7.688  0.2721  0.1894 -0.0108
  739TIP3    H123852   0.701   5.530   7.683  0.7966  1.5879  2.1283
  739TIP3    H223853   0.570   5.483   7.742  0.6202  0.8849  1.1859
  740TIP3   OH223854   3.032   1.841   8.624 -0.1826  0.0479  0.0661
  740TIP3    H123855   2.954   1.792   8.650 -0.1954 -1.0424 -1.8276
  740TIP3    H223856   3.026   1.923   8.673 -2.4920 -0.0329  0.0317
  741TIP3   OH223857   5.346   2.740   8.518  0.0792  0.2794 -0.1277
  741TIP3    H123858   5.385   2.820   8.483 -0.4441  0.2897 -0.7070
  741TIP3    H223859   5.331   2.759   8.611 -0.2023  0.9190 -0.2997
  742TIP3   OH223860   4.288   6.383   1.362  0.2512  0.4774 -0.0325
  742TIP3    H123861   4.315   6.457   1.308  0.5733  0.1499 -0.3284
  742TIP3    H223862   4.264   6.422   1.446  0.3334  0.9260 -0.2152
  743TIP3   OH223863   6.810   0.682   0.321  0.0387 -0.3274  0.6061
  743TIP3    H123864   6.743   0.701   0.387  0.0220  0.7273  0.2966
  743TIP3    H223865   6.849   0.767   0.301 -0.6621 -0.4749 -1.5172
  744TIP3   OH223866   1.199   5.308   0.034 -0.0578  0.2618  0.0583
  744TIP3    H123867   1.289   5.337   0.049  0.5154 -1.4613  0.1568
  744TIP3    H223868   1.195   5.221   0.073 -1.2668 -0.4087 -1.4791
  745TIP3   OH223869   2.475   5.392   1.145 -0.1652  0.1062  0.0523
  745TIP3    H123870   2.403   5.448   1.173 -1.1989 -0.7172 -0.9065
  745TIP3    H223871   2.519   5.367   1.227 -0.0955  1.7128  0.5544
  746TIP3   OH223872   4.221   4.477   0.305  0.3439 -0.5025  0.2135
  746TIP3    H123873   4.302   4.447   0.262  1.8182  0.7175  1.9966
  746TIP3    H223874   4.184   4.540   0.244  2.2679  1.0260  0.5168
  747TIP3   OH223875   3.300   1.395   1.540  0.5289  0.0887 -0.2567
  747TIP3    H123876   3.342   1.409   1.624 -2.0186  1.6740  0.8827
  747TIP3    H223877   3.235   1.327   1.557 -2.2452  2.5978  0.0939
  748TIP3   OH223878   4.009   6.483   7.394  0.1227  0.0400  0.1771
  748TIP3    H123879   3.964   6.527   7.321  0.3804  1.1783  0.6779
  748TIP3    H223880   3.939   6.444   7.446 -0.0943 -0.4012 -0.4365
  749TIP3   OH223881   2.032   4.903   6.186  0.0604  0.0269 -0.2541
  749TIP3    H123882   2.110   4.848   6.184 -0.0180 -0.1682 -3.5669
  749TIP3    H223883   1.959   4.841   6.179 -0.2562  0.3543  0.1239
  750TIP3   OH223884   1.561   5.303   7.256  0.3316  0.5689 -0.4825
  750TIP3    H123885   1.638   5.342   7.297  2.2946 -3.0090 -0.3018
  750TIP3    H223886   1.593   5.269   7.172 -1.5576  0.6078 -1.2758
  751TIP3   OH223887   5.947   5.614   6.801  0.0753  0.0814 -0.3348
  751TIP3    H123888   5.875   5.658   6.756 -1.4717 -1.2642  0.7377
  751TIP3    H223889   5.926   5.521   6.797  2.5752 -0.5143 -1.3479
  752TIP3   OH223890   2.592   3.987   0.852 -0.6556  0.1734  0.3875
  752TIP3    H123891   2.520   4.037   0.814 -0.7679 -0.7480 -0.6776
  752TIP3    H223892   2.576   3.990   0.946 -1.0155  1.5634  0.2934
  753TIP3   OH223893   4.613   4.862   1.008 -0.1710  0.6604 -0.1421
  753TIP3    H123894   4.672   4.808   0.955 -0.2949  0.4153 -0.0358
  753TIP3    H223895   4.620   4.950   0.970 -1.0351  0.2885 -1.2494
  754TIP3   OH223896   0.781   5.526   0.248  0.4616 -0.0187  0.1163
  754TIP3    H123897   0.831   5.445   0.235  0.3057 -0.2734  1.0802
  754TIP3    H223898   0.729   5.511   0.326 -1.6229  0.0118 -1.1973
  755TIP3   OH223899   2.912   4.712   1.718  0.2277  0.1359  0.1316
  755TIP3    H123900   2.903   4.787   1.777 -1.7008 -0.6538  0.9144
  755TIP3    H223901   2.913   4.636   1.776  0.8492 -0.5200 -0.7239
  756TIP3   OH223902   0.680   6.126   7.412 -0.2068  0.4564 -0.5325
  756TIP3    H123903   0.634   6.102   7.331 -0.7564  0.8434 -0.3428
  756TIP3    H223904   0.617   6.105   7.481  0.9847 -1.7443 -0.0281
  757TIP3   OH223905   0.932   4.523   8.502  0.4285 -0.8377  0.4921
  757TIP3    H123906   0.999   4.494   8.440 -0.4709  0.8512 -1.4123
  757TIP3    H223907   0.856   4.468   8.483  0.5126 -1.0987  0.9128
  758TIP3   OH223908   4.625   4.267   8.167  0.0069  0.0813 -0.4158
  758TIP3    H123909   4.541   4.288   8.209 -0.1170  0.9632 -1.0825
  758TIP3    H223910   4.602   4.208   8.096 -0.2691  1.4832 -1.5385
  759TIP3   OH223911   4.156   6.820   1.558 -0.6389 -0.0889  0.7281
  759TIP3    H123912   4.185   6.907   1.528 -0.5811 -0.7508 -1.2213
  759TIP3    H223913   4.214   6.801   1.632 -0.1087  1.1772  0.6758
  760TIP3   OH223914   1.415   6.472   0.349 -0.0706 -0.2775  0.8507
  760TIP3    H123915   1.436   6.390   0.306  0.0857 -0.7915  1.8774
  760TIP3    H223916   1.323   6.488   0.329  0.0250 -0.4496  0.2612
  761TIP3   OH223917   4.607   3.941   1.213  0.1569 -0.1524  0.4940
  761TIP3    H123918   4.518   3.946   1.180  0.2910 -0.4609  0.0788
  761TIP3    H223919   4.634   4.033   1.224  0.0258 -0.0499 -0.0244
  762TIP3   OH223920   6.778   3.909   0.224  0.1838  0.5572  0.0559
  762TIP3    H123921   6.834   3.922   0.148  0.0069 -0.3990 -0.2435
  762TIP3    H223922   6.706   3.855   0.192  0.5340 -0.5605  1.0849
  763TIP3   OH223923   2.426   0.583   1.290 -0.5164 -0.4966  0.0568
  763TIP3    H123924   2.454   0.637   1.365  1.6683 -1.2742 -0.1261
  763TIP3    H223925   2.415   0.646   1.219 -0.8146  0.0269  0.5473
  764TIP3   OH223926   6.041   5.611   1.702 -0.2703 -0.4323 -0.4035
  764TIP3    H123927   5.975   5.617   1.771  1.7805 -0.1436  1.6415
  764TIP3    H223928   6.020   5.682   1.642 -1.9090 -0.4732  0.0771
  765TIP3   OH223929   0.877   4.258   1.922 -0.4354  0.1745  0.4678
  765TIP3    H123930   0.878   4.322   1.993 -0.0000 -0.3664  0.9557
  765TIP3    H223931   0.785   4.257   1.892 -0.1702  2.1710 -0.6219
  766TIP3   OH223932   3.049   2.436   8.049  0.0281 -0.0982  0.4020
  766TIP3    H123933   3.000   2.357   8.024 -1.9440  1.0412  0.4602
  766TIP3    H223934   3.068   2.479   7.966  1.1114 -0.6110  0.3699
  767TIP3   OH223935   5.620   3.634   0.557  0.5367 -0.3652  0.6713
  767TIP3    H123936   5.608   3.545   0.590  3.3186 -0.4638  1.6780
  767TIP3    H223937   5.712   3.653   0.574 -0.0016  2.7714  0.5900
  768TIP3   OH223938   3.414   1.767   6.476 -0.1667 -0.1341 -0.0385
  768TIP3    H123939   3.408   1.694   6.539  0.5954 -0.7594 -0.6682
  768TIP3    H223940   3.333   1.816   6.489  0.8935  1.0182  2.9460
  769TIP3   OH223941   6.824   5.695   8.605 -0.2167  0.6136 -0.0804
  769TIP3    H123942   6.801   5.780   8.642 -0.1049  0.0361  1.3837
  769TIP3    H223943   6.820   5.634   8.679  1.7619 -0.2868 -0.6335
  770TIP3   OH223944   5.388   3.857   8.590 -0.1972 -0.3071 -0.3155
  770TIP3    H123945   5.404   3.944   8.625  1.6705 -0.1543 -1.3716
  770TIP3    H223946   5.329   3.870   8.516 -0.0993  0.0419 -0.3321
  771TIP3   OH223947   2.019   3.893   0.951  0.1301  0.0965 -0.0469
  771TIP3    H123948   2.105   3.922   0.921 -0.1795 -0.8604 -2.0863
  771TIP3    H223949   2.030   3.877   1.044  1.4314  2.4762  0.2914
  772TIP3   OH223950   5.626   2.965   6.752 -0.0099  0.2179  0.1515
  772TIP3    H123951   5.628   3.015   6.833 -1.7004  1.2051 -0.3670
  772TIP3    H223952   5.536   2.933   6.745  1.0261 -3.1238  0.5468
  773TIP3   OH223953   5.922   1.320   7.872 -0.7886  0.1002  0.5937
  773TIP3    H123954   5.995   1.283   7.822 -1.9437 -0.9767 -0.3522
  773TIP3    H223955   5.964   1.364   7.946  0.9307  1.3402 -1.0375
  774TIP3   OH223956   5.787   0.304   0.164 -0.2755  0.1824  1.2705
  774TIP3    H123957   5.779   0.394   0.196  0.9408  0.2601  1.4142
  774TIP3    H223958   5.715   0.293   0.103 -0.2119  1.3927  0.9506
  775TIP3   OH223959   3.969   2.999   8.788 -0.1090 -0.2822 -0.1433
  775TIP3    H123960   4.009   3.051   8.719  1.8989  1.8394  2.3914
  775TIP3    H223961   4.023   2.921   8.795 -1.2467 -1.2871 -1.8755
  776TIP3   OH223962   3.727   1.385   0.580  0.3960  0.1221  0.2998
  776TIP3    H123963   3.709   1.309   0.635 -0.2958 -0.8957 -1.2885
  776TIP3    H223964   3.703   1.358   0.492 -0.9499  2.5570 -0.1679
  777TIP3   OH223965   1.982   5.557   8.211  0.3038  0.4412 -0.2475
  777TIP3    H123966   1.986   5.629   8.148 -1.7755  0.9381  0.1284
  777TIP3    H223967   1.996   5.599   8.296 -4.2353  1.1405  0.3759
  778TIP3   OH223968   5.701   5.747   1.368  0.0460  0.3700 -0.2864
  778TIP3    H123969   5.753   5.743   1.287  1.0870  1.3850  0.2920
  778TIP3    H223970   5.659   5.833   1.365 -0.7819 -0.0220 -0.2397
  779TIP3   OH223971   3.755   6.213   1.834  0.0095 -0.0920 -0.7996
  779TIP3    H123972   3.722   6.230   1.745 -0.0264  0.9956 -0.5940
  779TIP3    H223973   3.708   6.136   1.863 -1.4229  0.6771 -1.0064
  780TIP3   OH223974   0.212   0.052   1.256  0.3801 -0.1879 -0.4444
  780TIP3    H123975   0.261   0.031   1.336 -0.8755  0.5883  0.5723
  780TIP3    H223976   0.136  -0.005   1.259 -1.0800  1.6759  0.3723
  781TIP3   OH223977   1.152   5.941   1.772  0.3830  0.3463  0.1958
  781TIP3    H123978   1.236   5.903   1.747 -0.6170 -1.7970 -0.1344
  781TIP3    H223979   1.096   5.866   1.789 -0.9261  1.7160  2.4016
  782TIP3   OH223980   2.007   6.728   6.612 -0.5028 -0.1881 -0.5982
  782TIP3    H123981   1.979   6.760   6.698 -1.1384  0.1488 -0.9209
  782TIP3    H223982   1.927   6.695   6.571  0.1730 -2.5697 -0.1498
  783TIP3   OH223983   1.558   5.886   0.088  0.2846 -0.4756 -0.3885
  783TIP3    H123984   1.470   5.891   0.125  0.5206  0.3828  0.0820
  783TIP3    H223985   1.548   5.920  -0.001  0.1768 -0.1621 -0.2579
  784TIP3   OH223986   5.342   5.421   1.589  0.3568  0.2822 -0.4210
  784TIP3    H123987   5.379   5.477   1.658  0.4611  0.5343 -0.6786
  784TIP3    H223988   5.263   5.383   1.628  1.5148 -1.2251  0.5747
  785TIP3   OH223989   3.775   3.872   7.806  0.1418  0.6423  0.0093
  785TIP3    H123990   3.708   3.845   7.743  1.0700 -0.6174 -0.4557
  785TIP3    H223991   3.751   3.962   7.828 -0.9524  0.6588 -1.1385
  786TIP3   OH223992   4.227   6.417   0.551 -0.3497  0.1836 -0.2661
  786TIP3    H123993   4.261   6.466   0.626 -0.7716  0.1749 -0.0658
  786TIP3    H223994   4.176   6.346   0.590  0.5831 -0.6683 -0.5464
  787TIP3   OH223995   1.670   1.582   2.312 -0.4400 -0.3954  0.6700
  787TIP3    H123996   1.582   1.584   2.349 -0.5574 -1.0244  0.4496
  787TIP3    H223997   1.656   1.591   2.217 -0.1533  1.0646  0.7430
  788TIP3   OH223998   4.440   4.999   7.500  0.2657  0.1993  0.0674
  788TIP3    H123999   4.446   4.963   7.588 -0.3813  3.2463  1.5214
  788TIP3    H224000   4.384   5.076   7.510  2.4755  2.3255 -2.3926
  789TIP3   OH224001   1.860   1.921   8.476  0.0943 -0.3967 -0.3191
  789TIP3    H124002   1.897   2.005   8.451  0.0350 -0.1584  0.3953
  789TIP3    H224003   1.813   1.892   8.397 -0.5912  0.6255 -0.3091
  790TIP3   OH224004   4.013   6.790   7.692 -0.0083 -0.0402 -0.5774
  790TIP3    H124005   4.068   6.798   7.614  0.1114 -0.4596 -0.5386
  790TIP3    H224006   3.927   6.823   7.665  0.0448 -0.1420 -0.8728
  791TIP3   OH224007   5.146   2.226   8.614  0.0326  0.3626  0.4542
  791TIP3    H124008   5.164   2.314   8.647 -0.4896  0.7807 -0.3356
  791TIP3    H224009   5.159   2.233   8.520  2.7452 -1.1150  0.6173
  792TIP3   OH224010   3.430   3.649   7.066 -0.4829  0.6336 -0.0467
  792TIP3    H124011   3.469   3.562   7.078 -2.5069 -0.3532 -0.2757
  792TIP3    H224012   3.468   3.681   6.984 -0.8169 -0.6754 -0.7454
  793TIP3   OH224013   0.281   1.008   1.929  0.0180  0.3966  0.4140
  793TIP3    H124014   0.365   1.041   1.899 -0.2059  0.3398 -0.2810
  793TIP3    H224015   0.250   1.076   1.990  1.5676 -0.6191  2.4727
  794TIP3   OH224016   4.299   4.599   6.624 -0.2194  0.2257  0.4234
  794TIP3    H124017   4.393   4.614   6.639  0.0509 -1.1339  0.1343
  794TIP3    H224018   4.280   4.646   6.543 -0.2209  2.0414  1.4167
  795TIP3   OH224019   2.311   3.441   7.803 -0.0778  0.8241 -0.4608
  795TIP3    H124020   2.318   3.412   7.894 -0.7655  0.1784 -0.6044
  795TIP3    H224021   2.349   3.529   7.803  1.5446  0.1627  0.0919
  796TIP3   OH224022   1.959   2.627   0.633  0.1229  0.2606 -0.0770
  796TIP3    H124023   2.002   2.712   0.639  2.7961 -0.9772 -0.0577
  796TIP3    H224024   1.911   2.618   0.716 -0.6820  1.9212 -0.3166
  797TIP3   OH224025   0.159   6.844   7.887 -0.3859 -0.4506  0.0759
  797TIP3    H124026   0.237   6.848   7.831 -1.4173  1.3816 -1.3314
  797TIP3    H224027   0.086   6.833   7.826 -1.4167 -0.0832  1.2079
  798TIP3   OH224028   1.653   3.242   8.594 -0.0780 -0.3494  0.2669
  798TIP3    H124029   1.575   3.221   8.646 -0.6643 -0.0573 -0.4827
  798TIP3    H224030   1.668   3.335   8.610 -0.5764 -0.1323 -0.4912
  799TIP3   OH224031   3.382   2.586   7.527 -0.6423  0.1830  0.2744
  799TIP3    H124032   3.347   2.616   7.443  0.3913 -0.4282 -0.4003
  799TIP3    H224033   3.474   2.613   7.526 -0.5422 -0.0967  1.0703
  800TIP3   OH224034   5.070   3.352   0.579  0.5188 -0.2887 -0.1256
  800TIP3    H124035   4.980   3.344   0.609  0.2334  0.9587 -0.5731
  800TIP3    H224036   5.075   3.298   0.500 -0.5238  1.4640 -1.4583
  801TIP3   OH224037   5.542   4.529   8.071 -0.1630 -0.1440  0.0891
  801TIP3    H124038   5.535   4.434   8.085 -0.0718 -0.1326  0.2051
  801TIP3    H224039   5.509   4.568   8.151 -2.1463 -0.0472 -0.7144
  802TIP3   OH224040   3.754   0.343   8.296 -0.1842  0.1213  0.3901
  802TIP3    H124041   3.667   0.335   8.259 -1.0220  0.5563  2.1547
  802TIP3    H224042   3.802   0.267   8.262 -1.5673 -0.7131  0.2439
  803TIP3   OH224043   4.132   6.574   0.326 -0.0249 -0.3433 -0.6205
  803TIP3    H124044   4.047   6.584   0.368 -0.3539 -1.0478 -1.1029
  803TIP3    H224045   4.193   6.563   0.398 -0.5064 -0.9993 -0.3071
  804TIP3   OH224046   4.156   3.590   7.798  0.6551 -0.3873  0.6143
  804TIP3    H124047   4.129   3.503   7.769 -2.6150  0.8785 -0.5959
  804TIP3    H224048   4.218   3.619   7.731 -2.2845  0.1564 -2.1165
  805TIP3   OH224049   6.421   1.507   6.770  0.2837 -0.3130  0.4523
  805TIP3    H124050   6.331   1.530   6.793 -0.4519 -2.6667  0.1182
  805TIP3    H224051   6.473   1.581   6.802 -1.7673  1.2043  0.4562
  806TIP3   OH224052   1.265   0.194   6.730  0.3585  0.5184  0.1925
  806TIP3    H124053   1.332   0.130   6.708  0.2291 -0.3534  2.1030
  806TIP3    H224054   1.182   0.148   6.715  0.2653  0.0145  1.9413
  807TIP3   OH224055   0.925   3.625   0.584  0.3915  0.4058  0.3359
  807TIP3    H124056   1.006   3.619   0.635  0.1399 -0.1236  0.6814
  807TIP3    H224057   0.913   3.719   0.570  0.0316  0.6348  1.9731
  808TIP3   OH224058   6.274   2.671   7.754  0.6409  0.3765  0.5582
  808TIP3    H124059   6.337   2.715   7.811  0.4883  0.2312  0.8444
  808TIP3    H224060   6.192   2.672   7.804  1.2188 -2.6192  1.7792
  809TIP3   OH224061   0.609   5.765   7.273  0.5588 -0.2243 -0.3721
  809TIP3    H124062   0.552   5.816   7.331 -0.9815 -1.7114 -0.5019
  809TIP3    H224063   0.665   5.715   7.332  1.8446  1.2931 -0.2434
  810TIP3   OH224064   5.586   0.033   2.195  0.3160  0.2126  0.6652
  810TIP3    H124065   5.671   0.075   2.209 -0.0788  1.1453  0.3343
  810TIP3    H224066   5.525   0.106   2.180 -0.4066 -0.4768  0.1733
  811TIP3   OH224067   5.277   1.294   7.567  0.1489 -0.2347  0.3431
  811TIP3    H124068   5.263   1.387   7.584 -0.5258 -0.4444  0.9830
  811TIP3    H224069   5.269   1.252   7.653 -0.0146 -0.9358 -0.0047
  812TIP3   OH224070   0.147   3.359   1.615 -0.0727 -0.0056  0.0094
  812TIP3    H124071   0.172   3.372   1.524  0.9847  0.7871  0.4018
  812TIP3    H224072   0.141   3.447   1.651 -0.6815 -0.3061  0.6670
  813TIP3   OH224073   0.597   6.321   8.132  0.2069  0.0258 -0.2108
  813TIP3    H124074   0.590   6.267   8.210  4.7253 -3.0377 -1.5107
  813TIP3    H224075   0.651   6.395   8.159 -0.2268  0.2457  0.0600
  814TIP3   OH224076   2.769   5.332   0.068 -0.7477 -0.3938 -0.1573
  814TIP3    H124077   2.785   5.266   0.136  1.0905 -1.2483 -1.3481
  814TIP3    H224078   2.734   5.282  -0.006  0.0929  0.0530 -0.8674
  815TIP3   OH224079   0.874   5.692   7.662  0.3772  0.1329  0.0794
  815TIP3    H124080   0.889   5.598   7.675 -1.5488 -0.6757 -2.7595
  815TIP3    H224081   0.949   5.733   7.705  0.6898 -2.5780  2.4856
  816TIP3   OH224082   0.393   3.634   2.056 -0.5990 -0.2242  0.1117
  816TIP3    H124083   0.434   3.700   2.000 -1.5278 -0.5312 -0.9607
  816TIP3    H224084   0.343   3.685   2.120  1.2038  0.1525  1.3272
  817TIP3   OH224085   6.466   3.886   1.526  0.2917  0.2961  0.4064
  817TIP3    H124086   6.497   3.804   1.564  1.4605 -0.4721 -2.0251
  817TIP3    H224087   6.545   3.936   1.507 -0.2473  0.7664 -0.7054
  818TIP3   OH224088   0.066   1.158   1.800 -0.1554  0.2118 -0.7183
  818TIP3    H124089   0.095   1.067   1.795 -0.1668  0.2502 -1.5166
  818TIP3    H224090  -0.029   1.153   1.813 -0.3447  0.1112 -2.0571
  819TIP3   OH224091   1.546   5.239   8.313  0.2311 -0.1136 -0.3604
  819TIP3    H124092   1.601   5.298   8.262  0.5569 -0.6383 -0.6200
  819TIP3    H224093   1.605   5.196   8.374 -0.0344 -0.0435 -0.0481
  820TIP3   OH224094   6.258   6.432   0.417 -0.4520 -0.1600  0.3991
  820TIP3    H124095   6.175   6.478   0.429 -0.4842 -0.0508 -0.2274
  820TIP3    H224096   6.294   6.467   0.336 -1.1284 -2.1729 -0.8341
  821TIP3   OH224097   5.037   3.695   1.702  0.4289  0.4334  0.2222
  821TIP3    H124098   5.016   3.707   1.795 -2.8162  0.7825 -0.4394
  821TIP3    H224099   5.073   3.606   1.697 -0.9089 -0.2316  1.6058
  822TIP3   OH224100   1.830   0.564   7.834  0.1350 -0.2771 -0.0011
  822TIP3    H124101   1.767   0.632   7.856  0.6833  0.5915 -0.9939
  822TIP3    H224102   1.778   0.493   7.796 -0.9176 -2.0311  4.1283
  823TIP3   OH224103   1.696   5.711   1.320 -0.6448  0.1604  0.2539
  823TIP3    H124104   1.650   5.724   1.237 -1.5227 -0.5889  0.5969
  823TIP3    H224105   1.782   5.750   1.307 -0.8171  0.1642 -0.9614
  824TIP3   OH224106   3.768   0.699   1.192  0.1994  0.0639 -0.0164
  824TIP3    H124107   3.859   0.696   1.165  0.8886  0.0183  2.0884
  824TIP3    H224108   3.732   0.776   1.148  1.2927  0.1721 -0.7488
  825TIP3   OH224109   1.320   6.644   1.426  0.5203  0.3939 -0.2077
  825TIP3    H124110   1.355   6.663   1.513  3.4506  2.4939 -1.7041
  825TIP3    H224111   1.290   6.553   1.433  1.2089  0.2781  2.7989
  826TIP3   OH224112   0.755   0.944   6.887  0.0030  0.1697  0.0993
  826TIP3    H124113   0.690   0.943   6.817  0.6214 -2.0124 -0.5322
  826TIP3    H224114   0.823   1.005   6.857 -0.7701  0.9204 -0.1587
  827TIP3   OH224115   4.393   1.962   1.147 -0.4269  0.7924  0.0293
  827TIP3    H124116   4.413   2.042   1.097  0.4565  0.5040 -0.0821
  827TIP3    H224117   4.458   1.960   1.217 -0.5715  0.2639  0.1517
  828TIP3   OH224118   0.077   1.929   0.043  0.0467 -0.6288  0.0032
  828TIP3    H124119   0.037   2.015   0.034  1.4781 -0.0613 -1.3004
  828TIP3    H224120   0.170   1.946   0.051  0.4421 -2.0825 -1.0276
  829TIP3   OH224121   1.269   3.848   7.024 -0.7866 -0.3662 -0.4011
  829TIP3    H124122   1.233   3.924   7.070 -0.4880 -0.2573 -0.3473
  829TIP3    H224123   1.195   3.812   6.977 -0.3576  1.6758 -2.8487
  830TIP3   OH224124   2.660   0.864   0.096  0.2589  0.0909 -0.0382
  830TIP3    H124125   2.590   0.929   0.100  0.3368  0.1566  0.3065
  830TIP3    H224126   2.696   0.862   0.185  0.9462  0.3331 -0.3048
  831TIP3   OH224127   5.584   1.742   7.554  0.0489  0.3420  0.2148
  831TIP3    H124128   5.607   1.801   7.483  1.1988 -0.0926  0.2155
  831TIP3    H224129   5.566   1.800   7.628  3.8500  0.7338  1.0321
  832TIP3   OH224130   3.004   1.439   1.547  0.7669  0.2463 -0.1063
  832TIP3    H124131   2.977   1.444   1.455  1.3520 -0.7036 -0.3353
  832TIP3    H224132   3.045   1.353   1.556  0.9202  0.4210  0.9930
  833TIP3   OH224133   5.495   2.025   1.229 -0.0696  0.0217  0.1856
  833TIP3    H124134   5.573   2.003   1.178 -0.7409 -1.1011 -0.4059
  833TIP3    H224135   5.463   1.941   1.261 -1.2057  0.4172  0.1584
  834TIP3   OH224136   1.936   2.744   1.870 -0.4791 -0.3018  0.5549
  834TIP3    H124137   1.981   2.660   1.872 -0.6458 -0.3805  1.3164
  834TIP3    H224138   1.881   2.744   1.949  0.3486  0.9798  1.1612
  835TIP3   OH224139   4.799   6.545   1.411 -0.8371 -0.3050 -0.0265
  835TIP3    H124140   4.889   6.526   1.383 -1.7220 -2.0394 -2.0274
  835TIP3    H224141   4.784   6.635   1.384  0.6003  0.3781  1.2990
  836TIP3   OH224142   5.542   3.914   1.340  0.3122  0.0079 -0.0995
  836TIP3    H124143   5.450   3.895   1.357  0.7701 -2.6368 -0.0358
  836TIP3    H224144   5.549   3.921   1.245 -0.0976  1.2410 -0.0477
  837TIP3   OH224145   5.977   3.188   0.470  0.6422 -0.0420  0.2792
  837TIP3    H124146   6.033   3.218   0.399 -0.1377 -0.2770 -0.4493
  837TIP3    H224147   5.996   3.248   0.543  0.7525  0.8043 -0.4296
  838TIP3   OH224148   6.805   4.894   1.207  0.0369 -0.7771  0.2575
  838TIP3    H124149   6.886   4.901   1.157 -0.3014  0.3537 -0.1676
  838TIP3    H224150   6.815   4.957   1.278 -0.5918 -0.3734  0.0011
  839TIP3   OH224151   1.639   3.449   0.515  0.2032  0.3930 -0.0442
  839TIP3    H124152   1.662   3.414   0.429  0.2261  0.0355  0.1071
  839TIP3    H224153   1.551   3.486   0.502  0.2429  0.4205 -0.2424
  840TIP3   OH224154   6.380   4.262   7.665 -0.2679  0.1811 -0.0288
  840TIP3    H124155   6.305   4.233   7.718 -0.6508 -0.6249 -0.9879
  840TIP3    H224156   6.432   4.316   7.725 -0.8176 -0.5035  1.0997
  841TIP3   OH224157   0.432   2.254   8.439 -0.0776  0.3957 -0.7500
  841TIP3    H124158   0.501   2.273   8.376 -0.0270 -0.2171 -0.8851
  841TIP3    H224159   0.465   2.289   8.522  1.6987 -2.3443 -0.1727
  842TIP3   OH224160   3.165   1.337   6.992 -0.7907  0.7102  0.3750
  842TIP3    H124161   3.187   1.312   7.082  0.0182  1.0985  0.2965
  842TIP3    H224162   3.141   1.430   6.999 -0.2555  0.8692  0.1164
  843TIP3   OH224163   5.007   6.630   7.744 -0.3809 -0.6662  0.4028
  843TIP3    H124164   5.028   6.540   7.770 -3.6019 -2.1036 -1.3426
  843TIP3    H224165   4.941   6.659   7.808 -0.8485 -0.3483 -0.2120
  844TIP3   OH224166   4.604   0.282   1.041  0.4182  0.0732  0.4268
  844TIP3    H124167   4.528   0.336   1.022  0.3260  0.1655  1.0279
  844TIP3    H224168   4.612   0.285   1.136  0.2820 -1.1296  0.4921
  845TIP3   OH224169   4.932   0.330   7.420  0.9308  0.6403  0.1322
  845TIP3    H124170   4.961   0.246   7.384  3.1415  1.7923 -0.9972
  845TIP3    H224171   4.866   0.361   7.358 -0.8062 -0.7505  1.2078
  846TIP3   OH224172   3.700   0.497   0.890  0.2075 -0.6146 -0.0323
  846TIP3    H124173   3.768   0.434   0.867  1.0524  0.0695  0.5225
  846TIP3    H224174   3.668   0.467   0.975  0.6127 -0.2910  0.2338
  847TIP3   OH224175   4.387   5.971   7.353 -0.2254  0.1787  0.0563
  847TIP3    H124176   4.323   6.027   7.308 -2.7757 -0.7459  2.2755
  847TIP3    H224177   4.367   5.883   7.320  1.0803  0.0562 -0.4487
  848TIP3   OH224178   6.436   2.825   0.668 -0.0172  0.1959 -0.5756
  848TIP3    H124179   6.391   2.845   0.750  0.8934  1.3765 -0.3346
  848TIP3    H224180   6.370   2.837   0.600 -0.2098  1.4586 -0.1861
  849TIP3   OH224181   0.169   6.229   0.100  0.3227  0.4814 -0.0400
  849TIP3    H124182   0.227   6.218   0.176  0.2264  0.0034 -0.0355
  849TIP3    H224183   0.227   6.219   0.025  0.2458  0.0044 -0.0356
  850TIP3   OH224184   0.645   1.263   8.713 -0.6896  0.2974 -0.2124
  850TIP3    H124185   0.596   1.345   8.705 -2.4561 -0.8306 -1.9792
  850TIP3    H224186   0.708   1.265   8.641 -0.0810  0.4904  0.3163
  851TIP3   OH224187   0.267   3.058   0.051 -0.5736  0.2695 -0.0581
  851TIP3    H124188   0.275   3.087  -0.040  1.3934  1.9701  0.5857
  851TIP3    H224189   0.202   2.987   0.048 -1.0115  0.6849 -2.6676
  852TIP3   OH224190   3.974   0.306   0.402  0.0187  0.7073 -0.1206
  852TIP3    H124191   3.987   0.268   0.489  5.1909 -0.1596 -0.9548
  852TIP3    H224192   3.947   0.233   0.347  2.1963 -0.0755 -0.2121
  853TIP3   OH224193   2.344   6.672   1.081 -0.1001  0.0445 -0.3982
  853TIP3    H124194   2.270   6.635   1.128  1.4109 -2.1565  0.4187
  853TIP3    H224195   2.374   6.744   1.136 -1.8170  1.2208 -0.9400
  854TIP3   OH224196   6.180   4.153   6.403 -0.3726 -0.7122  0.0538
  854TIP3    H124197   6.190   4.235   6.450 -0.6917  0.3839 -1.6884
  854TIP3    H224198   6.266   4.137   6.363 -0.5630 -0.7207 -0.3617
  855TIP3   OH224199   4.078   4.113   8.016  0.7321  0.3337 -0.3385
  855TIP3    H124200   4.113   4.202   8.010  0.2839  0.5219 -0.2393
  855TIP3    H224201   4.027   4.102   7.936  0.9338  0.1021 -0.4345
  856TIP3   OH224202   1.688   3.492   8.659 -0.0237  0.4997 -0.2053
  856TIP3    H124203   1.776   3.523   8.681  0.2777 -0.2101 -0.3995
  856TIP3    H224204   1.640   3.572   8.638  0.4247  0.9414  0.4143
  857TIP3   OH224205   3.104   5.184   7.330 -0.0593  0.1287  0.0522
  857TIP3    H124206   3.015   5.149   7.319  0.1001 -0.2238 -0.1354
  857TIP3    H224207   3.119   5.236   7.251  0.0890 -0.2266 -0.1558
  858TIP3   OH224208   2.530   3.088   2.066 -0.1935 -0.3704 -0.7227
  858TIP3    H124209   2.503   3.141   1.991 -1.3403 -2.0743 -1.5893
  858TIP3    H224210   2.625   3.093   2.066 -0.2116  0.3640 -1.7781
  859TIP3   OH224211   3.255   2.663   8.103 -0.6974 -0.1611  0.2421
  859TIP3    H124212   3.187   2.683   8.167 -1.5108 -1.3649 -0.2243
  859TIP3    H224213   3.275   2.570   8.115  1.8351  0.4176  1.2489
  860TIP3   OH224214   2.432   3.525   8.820 -0.0108  0.2325  0.2849
  860TIP3    H124215   2.443   3.608   8.773  2.4323 -0.1025  0.0881
  860TIP3    H224216   2.469   3.543   8.907 -0.7616 -0.2683  0.7088
  861TIP3   OH224217   5.309   1.449   8.031 -0.1615 -0.1045  0.2663
  861TIP3    H124218   5.277   1.508   8.100  0.7776  0.2615  0.3970
  861TIP3    H224219   5.401   1.436   8.052  0.4800  0.9963 -1.6044
  862TIP3   OH224220   2.814   0.830   6.990  0.3464  0.4539 -0.0078
  862TIP3    H124221   2.776   0.754   6.946  2.6699  0.0880 -1.5209
  862TIP3    H224222   2.860   0.793   7.066  1.7978  0.2332 -0.9537
  863TIP3   OH224223   4.496   6.032   1.699  0.1886 -0.0192  0.1829
  863TIP3    H124224   4.444   6.005   1.624  0.9838 -0.5686 -0.1853
  863TIP3    H224225   4.563   5.964   1.708 -0.5488 -0.5648  2.0671
  864TIP3   OH224226   4.286   3.495   0.279  0.1127  0.1758 -0.5584
  864TIP3    H124227   4.352   3.485   0.348 -3.0809 -0.6864  2.7014
  864TIP3    H224228   4.227   3.420   0.291 -3.0278  2.3347 -1.3112
  865TIP3   OH224229   5.562   4.900   6.484 -1.0323  0.5080  0.0541
  865TIP3    H124230   5.626   4.829   6.475 -0.4852  0.7324  1.7804
  865TIP3    H224231   5.582   4.959   6.411 -0.5219 -0.3526 -0.5314
  866TIP3   OH224232   0.367   1.602   1.924 -0.0216  0.0100 -0.4544
  866TIP3    H124233   0.408   1.563   2.001  0.8545  0.0398 -0.8901
  866TIP3    H224234   0.342   1.527   1.870  1.7224 -0.0154 -1.3227
  867TIP3   OH224235   5.231   5.022   7.613  0.3950 -0.3851 -0.0930
  867TIP3    H124236   5.320   5.023   7.577  0.8309  3.6118  0.6579
  867TIP3    H224237   5.234   4.959   7.685  2.8407  0.1409  0.3329
  868TIP3   OH224238   0.914   2.105   0.237 -0.1231  0.1440  0.3676
  868TIP3    H124239   0.958   2.084   0.154 -1.4633 -1.8810  0.0795
  868TIP3    H224240   0.959   2.183   0.269  2.6127 -0.8869 -0.6310
  869TIP3   OH224241   2.915   2.196   0.895 -0.3242  0.2471  0.6126
  869TIP3    H124242   2.827   2.160   0.903 -1.1381  1.5573 -1.6697
  869TIP3    H224243   2.956   2.145   0.825  1.6880 -1.8852  3.0770
  870TIP3   OH224244   5.549   4.515   1.094  0.1437  0.6647  0.8209
  870TIP3    H124245   5.520   4.579   1.029 -1.1961 -0.6707  0.0432
  870TIP3    H224246   5.487   4.525   1.167 -0.2412  0.0774  0.5783
  871TIP3   OH224247   4.200   3.434   2.587 -0.5138 -0.7159 -0.7425
  871TIP3    H124248   4.128   3.375   2.611  0.0192 -1.1637 -0.2121
  871TIP3    H224249   4.172   3.472   2.504 -1.0431 -1.4289 -0.9053
  872TIP3   OH224250   4.282   1.311   2.087 -0.1398 -0.1971 -0.4723
  872TIP3    H124251   4.341   1.375   2.047 -0.6652  1.4699  1.2437
  872TIP3    H224252   4.301   1.318   2.181 -1.2172 -1.5715 -0.1270
  873TIP3   OH224253   2.668   5.740   6.922  0.2636  0.7865  0.1749
  873TIP3    H124254   2.577   5.731   6.896 -0.3540  0.7558  2.1911
  873TIP3    H224255   2.668   5.806   6.992  1.5438 -0.2112  1.1901
  874TIP3   OH224256   5.900   3.107   7.150  0.2027 -0.1855 -0.2086
  874TIP3    H124257   5.978   3.161   7.166  0.4128  0.1338 -2.0814
  874TIP3    H224258   5.909   3.078   7.059 -1.0245 -1.5750  0.0623
  875TIP3   OH224259   2.568   3.053   0.772 -0.2519  0.3651  0.5122
  875TIP3    H124260   2.609   3.029   0.855 -1.5181 -1.5978  0.6284
  875TIP3    H224261   2.626   3.017   0.705 -0.8098 -0.8015  0.6379
  876TIP3   OH224262   5.773   4.900   8.605  0.2844 -0.2694 -0.8240
  876TIP3    H124263   5.792   4.850   8.684  0.0067  2.1337  0.8786
  876TIP3    H224264   5.733   4.837   8.545 -1.4476 -1.7477  1.7269
  877TIP3   OH224265   6.053   2.146   0.138  0.5931  0.1583 -0.2501
  877TIP3    H124266   5.988   2.103   0.083  1.3135  1.2658 -2.0615
  877TIP3    H224267   6.123   2.081   0.150  0.3912 -0.1215 -0.5840
  878TIP3   OH224268   6.545   6.685   2.525  0.5897  0.2141  0.1075
  878TIP3    H124269   6.464   6.681   2.577  0.5631  0.3724  0.0770
  878TIP3    H224270   6.544   6.604   2.474  1.1513 -0.4784  1.1555
  879TIP3   OH224271   4.539   5.008   2.326 -0.5298  0.1022 -0.1596
  879TIP3    H124272   4.497   4.959   2.255 -1.2780  0.1736  0.2291
  879TIP3    H224273   4.593   4.944   2.371  0.2202  0.1266 -0.9989
  880TIP3   OH224274   5.418   2.979   6.497  0.0514 -0.1444  0.6339
  880TIP3    H124275   5.421   2.884   6.490 -0.7737 -0.0633 -1.2268
  880TIP3    H224276   5.330   2.998   6.531 -0.1881 -0.0144 -0.0432
  881TIP3   OH224277   2.020   5.782   0.163  0.1694 -0.4944 -0.3374
  881TIP3    H124278   1.936   5.799   0.206 -0.3270 -0.7692 -1.1608
  881TIP3    H224279   2.059   5.868   0.150 -0.0233 -0.3581 -0.0124
  882TIP3   OH224280   4.334   0.453   0.780  0.3241 -0.1451 -0.3095
  882TIP3    H124281   4.385   0.485   0.854 -0.6436 -0.0071  0.3189
  882TIP3    H224282   4.354   0.359   0.775 -0.0976 -0.2841  0.5405
  883TIP3   OH224283   4.602   3.241   6.697 -0.0509 -0.0208 -0.2016
  883TIP3    H124284   4.677   3.268   6.643  0.7823 -1.0166  0.4160
  883TIP3    H224285   4.563   3.323   6.727  1.0929  0.5164 -0.1334
  884TIP3   OH224286   5.645   4.831   1.042  0.4069  0.2029  0.0211
  884TIP3    H124287   5.678   4.907   0.994  2.0115 -1.0478 -0.9496
  884TIP3    H224288   5.619   4.769   0.973  1.0745 -0.9227  0.7476
  885TIP3   OH224289   6.841   0.680   7.119 -0.3382  0.3414  0.3847
  885TIP3    H124290   6.892   0.699   7.040 -2.0629  0.8174 -0.6726
  885TIP3    H224291   6.898   0.626   7.172  1.3341  1.0335 -0.6443
  886TIP3   OH224292   1.485   4.599   7.254  0.1443  0.2370  0.0841
  886TIP3    H124293   1.454   4.576   7.166  0.1142 -0.6248  0.3107
  886TIP3    H224294   1.408   4.586   7.310  0.0835  1.0609  0.1983
  887TIP3   OH224295   3.271   3.323   2.372 -0.0042  0.2405 -0.6155
  887TIP3    H124296   3.281   3.254   2.437  0.0466 -0.2051 -1.0837
  887TIP3    H224297   3.234   3.397   2.420  1.2525  0.3749  0.2073
  888TIP3   OH224298   5.740   3.668   6.664  0.5464 -0.5808 -0.2510
  888TIP3    H124299   5.661   3.633   6.704 -0.7209 -1.2748 -3.0573
  888TIP3    H224300   5.791   3.591   6.638  1.8875 -0.1447  0.9744
  889TIP3   OH224301   5.660   1.058   0.802 -0.2134  0.7343  0.2264
  889TIP3    H124302   5.715   1.088   0.874  1.1383 -0.7493 -0.1343
  889TIP3    H224303   5.572   1.089   0.824  0.4004  1.4275  1.8313
  890TIP3   OH224304   5.443   1.144   0.951  0.5216 -0.3037 -0.0983
  890TIP3    H124305   5.450   1.166   1.044  0.3479 -1.3102  0.1624
  890TIP3    H224306   5.366   1.087   0.945 -1.2257  2.0031 -1.3120
  891TIP3   OH224307   1.474   2.385   0.388  0.4712 -0.0355  0.4050
  891TIP3    H124308   1.440   2.428   0.309 -0.4137 -1.0063  0.2379
  891TIP3    H224309   1.548   2.439   0.415  0.0310  0.9957 -0.3943
  892TIP3   OH224310   6.216   6.344   6.490  0.3199  0.1728  0.4791
  892TIP3    H124311   6.150   6.413   6.485 -0.0571 -0.2597 -1.7420
  892TIP3    H224312   6.170   6.270   6.528 -1.4707 -0.9827 -3.3636
  893TIP3   OH224313   4.569   1.384   0.425 -0.0074  0.3340 -0.1261
  893TIP3    H124314   4.601   1.333   0.500 -0.1013 -0.1906 -0.4363
  893TIP3    H224315   4.647   1.398   0.371 -0.4037 -1.8588 -1.4219
  894TIP3   OH224316   1.947   5.117   0.684 -0.3319 -1.0480 -0.1544
  894TIP3    H124317   1.859   5.083   0.699 -1.3001  1.4720  0.5040
  894TIP3    H224318   1.935   5.212   0.681  2.3638 -0.6370 -0.1915
  895TIP3   OH224319   5.711   4.334   7.411 -0.5792 -0.1615 -0.3368
  895TIP3    H124320   5.674   4.421   7.429 -1.0538 -0.4464  0.0751
  895TIP3    H224321   5.799   4.337   7.449 -1.1820 -0.3969  1.1315
  896TIP3   OH224322   5.532   5.990   7.967  0.4023  0.3343 -0.2515
  896TIP3    H124323   5.444   6.018   7.941  0.4122  0.0692 -0.5814
  896TIP3    H224324   5.590   6.029   7.900  0.2620 -1.8620 -1.7518
  897TIP3   OH224325   3.216   6.118   0.216 -1.0293  0.2143  0.0108
  897TIP3    H124326   3.152   6.100   0.286  0.4660 -0.6439  1.2235
  897TIP3    H224327   3.226   6.034   0.171 -2.8913  1.0419 -2.1155
  898TIP3   OH224328   1.325   6.070   8.532  0.4109 -0.6556  0.0410
  898TIP3    H124329   1.356   6.092   8.620 -1.0093 -0.9388  0.6404
  898TIP3    H224330   1.317   6.154   8.487  1.1454 -0.5120  0.1580
  899TIP3   OH224331   1.993   4.027   7.739 -0.1629 -0.6589 -0.4632
  899TIP3    H124332   1.910   4.055   7.702  0.3489  0.4228 -0.8155
  899TIP3    H224333   2.002   4.077   7.821  0.6244  0.0412 -0.9593
  900TIP3   OH224334   3.369   1.069   8.259  0.1346 -0.1420  0.1837
  900TIP3    H124335   3.398   1.046   8.347 -0.2504 -3.4169 -0.4108
  900TIP3    H224336   3.282   1.106   8.270 -0.0064 -0.7399  1.1824
  901TIP3   OH224337   4.774   2.415   1.080  0.0417  0.1211 -0.9264
  901TIP3    H124338   4.779   2.352   1.152 -0.2575  0.9641 -0.1472
  901TIP3    H224339   4.862   2.451   1.073  0.1314 -0.1419 -1.1482
  902TIP3   OH224340   6.799   0.892   7.842 -0.2053  0.0888  0.3291
  902TIP3    H124341   6.732   0.940   7.793 -0.0222  0.0226  0.0144
  902TIP3    H224342   6.798   0.933   7.929 -1.0858 -0.3236  0.5273
  903TIP3   OH224343   3.288   0.959   6.299 -0.0459 -0.3451  0.4870
  903TIP3    H124344   3.219   0.965   6.365  0.1474  4.0701  0.5692
  903TIP3    H224345   3.243   0.972   6.216  0.3657 -0.0493  0.3067
  904TIP3   OH224346   1.226   0.380   7.120  0.7856 -0.2246  0.2540
  904TIP3    H124347   1.318   0.378   7.094  0.5703  0.4256 -0.6164
  904TIP3    H224348   1.225   0.428   7.202  1.0725  1.0891 -0.4913
  905TIP3   OH224349   5.259   5.646   8.647 -0.4139  0.5836 -0.3538
  905TIP3    H124350   5.333   5.621   8.591 -2.0305 -1.6492 -1.6436
  905TIP3    H224351   5.286   5.617   8.735 -0.7156 -2.8685 -1.2347
  906TIP3   OH224352   1.234   4.544   3.001 -0.2593  0.7592  0.1114
  906TIP3    H124353   1.226   4.635   3.028  0.5562  0.9228 -0.1700
  906TIP3    H224354   1.326   4.533   2.980 -0.2692 -0.2434  0.5218
  907TIP3   OH224355   3.880   0.699   0.818  0.1974 -0.5027 -0.0937
  907TIP3    H124356   3.800   0.651   0.840 -1.2627  1.5034 -0.7746
  907TIP3    H224357   3.940   0.631   0.788 -1.5206 -1.9972 -0.3378
  908TIP3   OH224358   6.638   4.973   2.503  0.2306 -0.8530 -0.1270
  908TIP3    H124359   6.604   4.991   2.591  0.8016  1.1293 -0.2700
  908TIP3    H224360   6.562   4.984   2.446  0.5277  1.2343 -0.1960
  909TIP3   OH224361   4.499   6.313   8.137  0.1901 -0.9553  0.5144
  909TIP3    H124362   4.501   6.408   8.132 -1.0943 -0.7876  2.2330
  909TIP3    H224363   4.497   6.284   8.045 -0.8285  0.7279 -0.0463
  910TIP3   OH224364   1.369   2.024   1.014  0.6053 -0.0396 -0.0400
  910TIP3    H124365   1.276   2.010   0.996  0.4862  2.2277 -1.7106
  910TIP3    H224366   1.400   1.941   1.049 -1.9487 -0.9856  0.1775
  911TIP3   OH224367   4.001   3.680   7.472  0.4762  0.0644 -0.3639
  911TIP3    H124368   4.013   3.754   7.532 -1.9107  0.6519 -0.5218
  911TIP3    H224369   4.090   3.657   7.446  1.3962  1.8380  0.9395
  912TIP3   OH224370   4.653   0.410   7.803  0.0098  0.1956 -0.3208
  912TIP3    H124371   4.720   0.462   7.758 -0.4082  1.2255  0.2217
  912TIP3    H224372   4.700   0.367   7.875  0.0308  1.2320  0.3024
  913TIP3   OH224373   2.894   5.049   0.015  0.3243  0.1607  0.0370
  913TIP3    H124374   2.939   5.063  -0.068  1.1350  0.3653  0.5085
  913TIP3    H224375   2.963   5.052   0.081 -0.2053 -0.7550  0.6514
  914TIP3   OH224376   6.714   6.327   2.094  0.4486  0.7005  0.2652
  914TIP3    H124377   6.730   6.232   2.096 -0.8344  0.4806  1.3395
  914TIP3    H224378   6.625   6.337   2.127  0.4059  2.2617 -0.2618
  915TIP3   OH224379   4.400   5.520   8.804 -0.4233  0.3342  0.3091
  915TIP3    H124380   4.396   5.574   8.726 -0.6296  1.0407  0.7997
  915TIP3    H224381   4.315   5.476   8.808 -0.6851  0.8528  0.5211
  916TIP3   OH224382   0.802   2.643   0.057  0.0690 -0.3940  0.4228
  916TIP3    H124383   0.889   2.682   0.052 -0.1406 -0.0794 -1.6626
  916TIP3    H224384   0.796   2.608   0.145  1.6261  1.1635  1.2072
  917TIP3   OH224385   1.745   1.982   0.248  0.4300 -0.2639  0.4198
  917TIP3    H124386   1.812   1.931   0.202  0.3071 -0.5851  0.5942
  917TIP3    H224387   1.772   1.980   0.340  0.1193 -0.4900  0.5064
  918TIP3   OH224388   4.753   1.218   1.088  0.3534 -0.1626  0.2338
  918TIP3    H124389   4.837   1.204   1.132  1.1354  0.9061 -0.8477
  918TIP3    H224390   4.704   1.137   1.103  1.5293 -0.7607  0.9962
  919TIP3   OH224391   4.771   6.190   8.204  0.4233 -0.1902  0.1191
  919TIP3    H124392   4.678   6.172   8.196 -0.1290  2.9747 -3.2736
  919TIP3    H224393   4.777   6.264   8.264  0.7624 -0.3993  0.3489
  920TIP3   OH224394   1.954   2.211   2.175 -0.0701 -0.0603 -0.1110
  920TIP3    H124395   1.983   2.166   2.254 -0.1829 -0.8815 -0.5282
  920TIP3    H224396   2.027   2.201   2.113 -0.5747 -0.7053 -0.6080
  921TIP3   OH224397   3.774   4.908   8.474 -0.2866  0.0713  0.2109
  921TIP3    H124398   3.741   4.820   8.491  0.5881 -0.2926  0.0916
  921TIP3    H224399   3.704   4.966   8.504 -0.3470 -0.6350  1.5188
  922TIP3   OH224400   4.471   5.620   0.239 -0.4209 -0.3503 -0.5105
  922TIP3    H124401   4.437   5.572   0.164 -0.0518 -0.5885 -0.5293
  922TIP3    H224402   4.430   5.580   0.315 -0.9539  0.0261 -0.5969
  923TIP3   OH224403   2.710   1.744   1.065  0.0302  0.1381 -0.3841
  923TIP3    H124404   2.780   1.751   1.130  0.8515 -0.6187 -1.1401
  923TIP3    H224405   2.641   1.802   1.096  1.2900  1.4840  0.0147
  924TIP3   OH224406   3.676   4.156   7.775 -0.4293 -0.5130 -0.0729
  924TIP3    H124407   3.643   4.230   7.724  0.2835 -0.6682 -0.7660
  924TIP3    H224408   3.771   4.158   7.762 -0.3093 -0.9647  0.6946
  925TIP3   OH224409   3.078   0.114   1.046  0.4184  0.1853 -0.0806
  925TIP3    H124410   2.993   0.078   1.023 -0.4426  1.5822  0.7864
  925TIP3    H224411   3.134   0.094   0.971 -0.5800 -1.0083 -0.5310
  926TIP3   OH224412   6.825   2.372   2.260 -0.3623  0.2154  0.0154
  926TIP3    H124413   6.746   2.396   2.308  0.6135  1.3703  1.1120
  926TIP3    H224414   6.872   2.455   2.248  0.0939 -0.2604 -1.7171
  927TIP3   OH224415   4.039   5.192   8.109  0.2216 -0.1109  0.0062
  927TIP3    H124416   4.073   5.171   8.196  0.1389  0.0085  0.0668
  927TIP3    H224417   4.114   5.178   8.051  1.0814  2.2836  0.3863
  928TIP3   OH224418   1.871   0.643   0.338 -0.1844 -0.1668 -0.8614
  928TIP3    H124419   1.882   0.562   0.287 -1.3894 -2.0928  1.7089
  928TIP3    H224420   1.790   0.630   0.387  0.2896  2.0393  0.6760
  929TIP3   OH224421   1.050   4.984   7.396  0.3197  0.0109  0.0865
  929TIP3    H124422   1.006   5.019   7.318  1.6080  0.5833 -0.4159
  929TIP3    H224423   0.986   4.995   7.467  0.7078  3.7554  0.0527
  930TIP3   OH224424   0.556   4.933   8.044 -0.4960  0.2121  0.2468
  930TIP3    H124425   0.569   4.908   7.952  0.9867 -0.1681  0.5391
  930TIP3    H224426   0.512   4.858   8.083  1.2986 -0.7937  0.4408
  931TIP3   OH224427   6.163   0.455   8.539  0.2084 -0.5241 -0.5607
  931TIP3    H124428   6.146   0.368   8.573 -1.1939 -0.0459  0.0391
  931TIP3    H224429   6.254   0.452   8.507  0.3769 -1.9987  0.0146
  932TIP3   OH224430   6.185   3.550   8.783 -0.2550 -0.0425 -1.3204
  932TIP3    H124431   6.270   3.541   8.740 -0.0287 -0.3705 -0.8097
  932TIP3    H224432   6.146   3.463   8.777  0.5938 -0.6248  0.8241
  933TIP3   OH224433   0.543   5.397   2.095 -0.7500  0.6383 -0.1587
  933TIP3    H124434   0.633   5.431   2.102  0.4570 -1.8965 -1.9772
  933TIP3    H224435   0.530   5.345   2.174 -0.4599  0.6612 -0.0956
  934TIP3   OH224436   1.012   1.272   7.639 -0.6281  0.0980  0.1727
  934TIP3    H124437   0.994   1.281   7.732 -3.0713  3.1425 -0.3980
  934TIP3    H224438   1.079   1.337   7.621  0.0886 -0.7222 -0.1551
  935TIP3   OH224439   5.661   2.483   0.901 -0.2561 -0.4588  0.4803
  935TIP3    H124440   5.722   2.556   0.896 -2.3648  1.3443 -1.4304
  935TIP3    H224441   5.605   2.493   0.823 -0.6722 -4.1348  0.1261
  936TIP3   OH224442   2.617   4.624   0.823 -0.0850 -0.3375  0.1002
  936TIP3    H124443   2.598   4.567   0.898  0.4666 -2.0458 -1.0158
  936TIP3    H224444   2.596   4.571   0.746  2.0036  0.3633 -1.0147
  937TIP3   OH224445   3.394   6.715   6.908 -0.5899  0.4983 -0.1736
  937TIP3    H124446   3.470   6.658   6.924 -2.2960 -1.9989 -0.3506
  937TIP3    H224447   3.409   6.749   6.819  0.8262  0.9571  0.2097
  938TIP3   OH224448   4.041   6.339   2.081 -1.0374  0.2380 -0.3511
  938TIP3    H124449   3.986   6.306   2.152 -1.1567  2.1355  0.4926
  938TIP3    H224450   4.130   6.317   2.107 -1.0657  1.0723  0.5084
  939TIP3   OH224451   1.371   1.478   6.661 -0.0961  0.5714 -0.7152
  939TIP3    H124452   1.305   1.543   6.684 -0.1454 -0.2566  1.6690
  939TIP3    H224453   1.320   1.402   6.632 -0.3561 -0.5056  2.2688
  940TIP3   OH224454   2.135   1.597   6.524 -0.3669  0.7144 -0.0678
  940TIP3    H124455   2.055   1.545   6.512 -0.0947 -0.0270  1.0803
  940TIP3    H224456   2.205   1.532   6.523  0.1386  1.2615 -0.2221
  941TIP3   OH224457   4.431   0.537   7.382  0.0568  0.2240  0.4330
  941TIP3    H124458   4.406   0.484   7.306  1.1928 -0.4159  0.4742
  941TIP3    H224459   4.416   0.480   7.457 -1.8898  1.1600  0.7982
  942TIP3   OH224460   0.022   2.509   6.725 -0.3984  0.2724  0.6430
  942TIP3    H124461   0.009   2.544   6.637 -1.7312  1.2259  1.1826
  942TIP3    H224462  -0.065   2.511   6.764 -0.0345 -1.2130  1.6091
  943TIP3   OH224463   0.183   0.103   8.315 -0.1764  0.6418 -0.0016
  943TIP3    H124464   0.141   0.032   8.364  1.5211 -0.8947 -0.6405
  943TIP3    H224465   0.270   0.110   8.355  0.1136  1.5400 -0.7662
  944TIP3   OH224466   6.408   2.653   8.462 -0.3095 -0.9442 -0.4970
  944TIP3    H124467   6.349   2.587   8.499 -1.7518 -1.3388 -3.2324
  944TIP3    H224468   6.491   2.607   8.450 -0.8667 -1.8394 -1.0023
  945TIP3   OH224469   3.843   4.054   8.198  0.2898  0.2328 -0.3043
  945TIP3    H124470   3.833   4.117   8.126 -0.3615  1.2192  0.6285
  945TIP3    H224471   3.910   4.092   8.254  1.1541 -0.7778 -0.6012
  946TIP3   OH224472   2.336   4.258   7.096 -0.0579 -0.1942  0.0003
  946TIP3    H124473   2.352   4.316   7.022 -1.6520 -0.4530 -0.5941
  946TIP3    H224474   2.419   4.256   7.144  0.3969  1.5964 -0.6308
  947TIP3   OH224475   3.401   3.957   1.027  0.0773 -0.7629  0.1637
  947TIP3    H124476   3.311   3.976   1.000 -0.1407 -0.6569  0.9555
  947TIP3    H224477   3.434   4.040   1.061  0.2053 -1.0073  0.6329
  948TIP3   OH224478   6.237   1.884   0.311  0.1699 -0.1804 -0.5467
  948TIP3    H124479   6.298   1.831   0.362 -0.9462 -1.3036 -0.3267
  948TIP3    H224480   6.159   1.891   0.366  0.1085  1.3066 -0.7813
  949TIP3   OH224481   3.910   6.362   8.102 -0.7793 -0.0366  0.3889
  949TIP3    H124482   3.853   6.323   8.036 -0.4103 -0.2751  0.2082
  949TIP3    H224483   3.852   6.379   8.176 -1.0317 -0.5404  0.3131
  950TIP3   OH224484   0.552   5.696   0.796  0.4480  0.0102 -0.4924
  950TIP3    H124485   0.477   5.652   0.836  0.0580  0.0652 -1.1441
  950TIP3    H224486   0.626   5.637   0.811  0.8044  0.9738  2.1779
  951TIP3   OH224487   6.593   4.970   0.571 -0.0024 -0.0148  0.2937
  951TIP3    H124488   6.687   4.989   0.574 -0.1274  0.5499  1.7059
  951TIP3    H224489   6.588   4.876   0.556  0.7555  0.1022 -0.8530
  952TIP3   OH224490   3.058   5.169   8.373  0.6312 -0.0227  0.3353
  952TIP3    H124491   2.969   5.192   8.399  0.4982 -0.9773  0.7602
  952TIP3    H224492   3.051   5.145   8.281  0.2750 -0.9212  0.5845
  953TIP3   OH224493   2.766   5.611   1.729 -0.0856 -0.1207 -0.2378
  953TIP3    H124494   2.701   5.682   1.723 -0.2642 -0.3721 -1.5944
  953TIP3    H224495   2.718   5.537   1.764 -0.3461 -0.0843 -0.5142
  954TIP3   OH224496   6.094   6.133   1.196  0.6734 -0.1725  0.0620
  954TIP3    H124497   6.053   6.136   1.283 -0.5002  0.8874 -0.4980
  954TIP3    H224498   6.021   6.116   1.136  1.3308  0.0260 -0.8000
  955TIP3   OH224499   6.634   6.316   0.246  0.0804 -0.4661 -0.3245
  955TIP3    H124500   6.696   6.344   0.313 -0.5661  0.2913 -0.0129
  955TIP3    H224501   6.583   6.247   0.288 -0.2905 -0.0274 -0.0422
  956TIP3   OH224502   1.671   0.907   0.053 -0.1754  0.4844 -0.3691
  956TIP3    H124503   1.647   0.961  -0.022  1.3085 -1.5989 -2.4919
  956TIP3    H224504   1.602   0.840   0.057 -0.5425  0.9034  0.5102
  957TIP3   OH224505   0.014   0.719   7.638  0.5288 -0.0144 -0.5525
  957TIP3    H124506   0.014   0.767   7.721 -0.8727 -0.2852 -0.3843
  957TIP3    H224507   0.003   0.787   7.571 -0.2665  0.0155 -0.3917
  958TIP3   OH224508   2.528   6.502   7.427 -0.4333  0.1956  0.0962
  958TIP3    H124509   2.526   6.584   7.376  0.6958  0.8214  1.0016
  958TIP3    H224510   2.587   6.521   7.500 -1.8415 -0.7382  1.5453
  959TIP3   OH224511   3.393   1.749   7.013  0.0264  0.3298  0.0749
  959TIP3    H124512   3.328   1.759   6.943  1.1965  0.2460 -1.0559
  959TIP3    H224513   3.349   1.782   7.092 -1.0925  1.0607 -0.8303
  960TIP3   OH224514   2.462   2.810   2.134 -0.1839  0.0996  0.1264
  960TIP3    H124515   2.545   2.763   2.126  0.4919  0.8657  2.0414
  960TIP3    H224516   2.481   2.899   2.106 -0.5512  0.1083 -0.1059
  961TIP3   OH224517   3.160   4.378   1.941  0.1667 -0.3074  0.8156
  961TIP3    H124518   3.244   4.333   1.954 -1.4134 -3.9581 -0.2441
  961TIP3    H224519   3.144   4.369   1.847 -0.7599  1.6773  0.7529
  962TIP3   OH224520   3.395   1.141   6.710 -0.2765  0.3568 -0.5558
  962TIP3    H124521   3.399   1.163   6.617 -0.5064  1.7965 -0.2484
  962TIP3    H224522   3.307   1.105   6.723  0.5341 -2.1006 -1.3136
  963TIP3   OH224523   5.428   4.160   8.654 -0.1639  0.0394  0.1050
  963TIP3    H124524   5.485   4.109   8.712  0.2336  1.3060  0.8479
  963TIP3    H224525   5.487   4.210   8.599 -0.4952  2.0000  1.4374
  964TIP3   OH224526   5.544   4.241   1.189 -0.2440  0.0045  0.1194
  964TIP3    H124527   5.534   4.181   1.115  0.7862  1.1850 -1.0166
  964TIP3    H224528   5.532   4.328   1.152 -0.9506  0.5745  1.6002
  965TIP3   OH224529   1.089   2.133   0.716 -0.2617  0.2085  0.0903
  965TIP3    H124530   1.168   2.185   0.730  0.3971 -0.5095 -0.8328
  965TIP3    H224531   1.062   2.107   0.805  0.1013  1.0709  0.4656
  966TIP3   OH224532   3.995   0.498   7.195  0.6077  0.0373  0.2978
  966TIP3    H124533   3.922   0.441   7.173  2.1139 -1.8891  0.0113
  966TIP3    H224534   3.965   0.586   7.174 -1.0002 -0.8774 -1.4374
  967TIP3   OH224535   2.067   4.388   0.842  0.5200 -0.1784  0.1059
  967TIP3    H124536   1.975   4.363   0.832  0.7039 -1.2335  0.8995
  967TIP3    H224537   2.076   4.410   0.934  0.7410  1.3997 -0.2623
  968TIP3   OH224538   4.822   0.278   0.433  0.1685  0.4686 -0.1049
  968TIP3    H124539   4.739   0.274   0.480 -0.8548 -1.0413 -1.8903
  968TIP3    H224540   4.865   0.195   0.453  0.8019  0.8307  0.0411
  969TIP3   OH224541   0.246   2.714   8.152  0.0975  0.0725  0.4190
  969TIP3    H124542   0.301   2.791   8.138  1.3618 -0.7034  0.8973
  969TIP3    H224543   0.253   2.665   8.070 -0.3043  0.2231  0.2939
  970TIP3   OH224544   2.598   4.356   6.850 -0.2264 -0.4451  0.0853
  970TIP3    H124545   2.523   4.413   6.864  0.9394  0.9104  1.1210
  970TIP3    H224546   2.570   4.295   6.781 -0.8493  2.6152 -2.5851
  971TIP3   OH224547   1.582   3.660   1.777 -0.3948  0.3133 -0.1217
  971TIP3    H124548   1.606   3.747   1.745 -0.1599  0.3814  0.2311
  971TIP3    H224549   1.571   3.607   1.698  1.3102  0.1783 -0.3076
  972TIP3   OH224550   2.758   5.353   7.485 -0.1435 -0.0227  0.3478
  972TIP3    H124551   2.787   5.262   7.477 -1.2994 -0.2236 -3.0932
  972TIP3    H224552   2.831   5.397   7.528  0.4650 -2.4874  2.1130
  973TIP3   OH224553   0.726   2.651   0.915 -0.3329  0.0281  0.2071
  973TIP3    H124554   0.808   2.674   0.871  0.0094 -0.9946  0.2959
  973TIP3    H224555   0.673   2.611   0.846 -1.1617  1.5617 -0.0929
  974TIP3   OH224556   6.021   6.254   0.137  0.1168  0.3969 -0.1649
  974TIP3    H124557   6.025   6.348   0.120  0.8462  0.4503  0.2827
  974TIP3    H224558   6.110   6.223   0.126 -0.0281 -0.1591  0.1822
  975TIP3   OH224559   2.666   2.118   1.231  0.9443  0.0287 -0.4480
  975TIP3    H124560   2.680   2.207   1.199  0.5875 -0.1390 -1.0775
  975TIP3    H224561   2.691   2.122   1.323 -2.3173  1.6695  0.5352
  976TIP3   OH224562   6.527   4.645   0.227 -0.4557 -0.4723  0.3325
  976TIP3    H124563   6.590   4.625   0.159 -0.9171 -0.2751 -0.1616
  976TIP3    H224564   6.470   4.712   0.188  0.3477  0.9725  1.5223
  977TIP3   OH224565   5.968   5.312   8.411  1.1724  0.4325  0.1637
  977TIP3    H124566   5.954   5.217   8.413 -2.1614  0.7917  3.0698
  977TIP3    H224567   5.911   5.342   8.340  0.9129  0.3767  0.3453
  978TIP3   OH224568   1.877   0.312   1.771 -0.0323  0.6245  0.2090
  978TIP3    H124569   1.959   0.361   1.771  0.8935 -0.8340 -0.8938
  978TIP3    H224570   1.864   0.287   1.863  0.6417  1.0574  0.4261
  979TIP3   OH224571   2.834   4.467   8.823 -0.6984 -0.7829 -0.0921
  979TIP3    H124572   2.771   4.504   8.761 -0.2414  1.1830  0.5380
  979TIP3    H224573   2.836   4.530   8.895  0.6049 -1.7682  0.7779
  980TIP3   OH224574   6.433   6.493   0.207  0.0747  0.1271  0.9613
  980TIP3    H124575   6.497   6.422   0.205  1.2484  1.1674  0.3726
  980TIP3    H224576   6.403   6.500   0.116  0.9697  1.2463  0.7329
  981TIP3   OH224577   4.291   4.571   0.632  0.0095  0.7680 -0.5688
  981TIP3    H124578   4.210   4.523   0.614 -0.3636  0.6451  1.2453
  981TIP3    H224579   4.281   4.603   0.721  2.3868 -0.1576  0.1262
  982TIP3   OH224580   5.456   3.370   7.844  0.2602  0.3982 -0.1596
  982TIP3    H124581   5.551   3.384   7.841  0.1493  1.1530 -0.4293
  982TIP3    H224582   5.429   3.408   7.928  0.4608 -1.7108  0.9447
  983TIP3   OH224583   0.569   5.453   1.360 -0.2716  1.1527 -0.1772
  983TIP3    H124584   0.576   5.391   1.433  1.9002  0.0707 -1.2272
  983TIP3    H224585   0.572   5.539   1.403  1.3599  0.5472  1.0331
  984TIP3   OH224586   3.257   0.136   0.440  0.0598 -0.0176 -0.0360
  984TIP3    H124587   3.245   0.230   0.457 -2.9572 -0.1351 -0.8780
  984TIP3    H224588   3.179   0.095   0.478  1.0967 -2.1734 -0.0676
  985TIP3   OH224589   5.983   2.570   0.914 -0.4004 -0.2702  0.5557
  985TIP3    H124590   6.009   2.574   1.006  0.1539  0.7420  0.3675
  985TIP3    H224591   6.040   2.632   0.870 -0.5268 -0.8888 -0.5144
  986TIP3   OH224592   1.242   1.548   7.900 -0.3761 -0.0743 -0.3017
  986TIP3    H124593   1.266   1.561   7.992 -0.0667  1.4427 -0.5836
  986TIP3    H224594   1.149   1.569   7.897 -0.1366  0.9984 -0.5343
  987TIP3   OH224595   1.751   4.037   0.431  0.6421 -0.0147 -0.2152
  987TIP3    H124596   1.830   3.992   0.461  0.7321  0.3871  0.1624
  987TIP3    H224597   1.780   4.092   0.358  0.5330 -0.5509 -0.6737
  988TIP3   OH224598   1.687   5.838   6.684 -0.4699 -0.0992  0.0117
  988TIP3    H124599   1.644   5.761   6.721 -0.1213 -0.9459 -1.2658
  988TIP3    H224600   1.632   5.911   6.711 -1.9712 -1.0092 -0.4043
  989TIP3   OH224601   5.059   5.133   6.977  0.1794 -0.4178 -0.0450
  989TIP3    H124602   4.963   5.135   6.984  0.1496  1.0118 -0.5616
  989TIP3    H224603   5.080   5.041   6.961 -1.0105 -0.9598  1.2881
  990TIP3   OH224604   1.367   4.450   1.687 -0.5392  0.1823 -0.4538
  990TIP3    H124605   1.420   4.370   1.687  0.2719  0.7095 -1.5543
  990TIP3    H224606   1.278   4.419   1.700  0.0400 -0.6883  1.9002
  991TIP3   OH224607   4.596   4.856   1.571 -0.3110 -0.0966  0.2923
  991TIP3    H124608   4.656   4.858   1.496 -0.0973 -1.1027  0.4234
  991TIP3    H224609   4.653   4.865   1.647 -0.4622  0.2763  0.3597
  992TIP3   OH224610   1.318   1.845   7.760 -0.8076 -0.0621 -0.4214
  992TIP3    H124611   1.399   1.794   7.755 -0.2701  0.7306 -0.0713
  992TIP3    H224612   1.304   1.858   7.854 -0.4769  1.1289 -0.5234
  993TIP3   OH224613   0.135   6.446   2.054 -0.8073  0.3694 -0.2558
  993TIP3    H124614   0.064   6.401   2.101 -0.6302  0.5180  0.1604
  993TIP3    H224615   0.169   6.509   2.117 -0.5945  0.6039 -0.6056
  994TIP3   OH224616   1.724   1.775   0.879 -0.0244  0.1430  0.0304
  994TIP3    H124617   1.746   1.701   0.936 -0.6808  0.1876  0.3518
  994TIP3    H224618   1.747   1.852   0.931  0.5152  0.1722 -0.2451
  995TIP3   OH224619   4.295   4.233   1.197  0.1253 -0.1149  0.2177
  995TIP3    H124620   4.303   4.140   1.218 -1.7688 -1.1331 -2.9098
  995TIP3    H224621   4.201   4.249   1.193  0.3084  2.6302  2.8389
  996TIP3   OH224622   2.018   5.234   8.300  0.4708 -0.6073 -0.2500
  996TIP3    H124623   2.070   5.297   8.251 -2.9507  1.0362 -2.1499
  996TIP3    H224624   2.058   5.232   8.387  1.3142  3.5625 -0.3648
  997TIP3   OH224625   6.048   5.018   1.040 -0.5016 -0.1918  0.5157
  997TIP3    H124626   6.003   5.053   1.117 -3.5558 -0.8916 -0.8045
  997TIP3    H224627   6.065   4.926   1.062  3.0664  0.6851  2.0845
  998TIP3   OH224628   2.083   3.341   0.368 -0.1918 -0.2699 -0.1346
  998TIP3    H124629   2.010   3.282   0.387  0.3513 -1.1004 -0.5779
  998TIP3    H224630   2.162   3.288   0.379  0.3806  0.7006  0.6574
  999TIP3   OH224631   5.783   3.067   5.955 -0.2502  0.3469  0.3279
  999TIP3    H124632   5.847   3.049   6.024 -0.3107  3.0837  1.2067
  999TIP3    H224633   5.719   3.125   5.997 -1.2509  0.6664 -1.5588
 1000TIP3   OH224634   0.655   0.969   8.522 -0.1055 -0.4686 -0.1355
 1000TIP3    H124635   0.618   0.979   8.434 -0.4509  0.8260  0.1271
 1000TIP3    H224636   0.607   1.033   8.575  1.0414 -0.2494  0.6800
 1001TIP3   OH224637   3.100   4.534   6.713 -0.7845 -0.3866  0.0047
 1001TIP3    H124638   3.041   4.600   6.677  0.0236 -0.1150 -0.8480
 1001TIP3    H224639   3.135   4.488   6.637  1.3752  0.5629  0.3267
 1002TIP3   OH224640   3.573   5.110   2.077 -0.6397  0.5231 -0.0089
 1002TIP3    H124641   3.557   5.106   2.171 -1.5645 -0.5581 -0.2002
 1002TIP3    H224642   3.613   5.026   2.055 -0.9100  0.5595 -0.6663
 1003TIP3   OH224643   3.098   4.571   1.487 -0.2697 -0.6873  0.9607
 1003TIP3    H124644   3.004   4.582   1.473  0.0903  0.4005 -1.1283
 1003TIP3    H224645   3.126   4.655   1.525  0.5370  1.3243 -3.3444
 1004TIP3   OH224646   1.425   4.645   1.512  0.6037 -0.5752 -0.4289
 1004TIP3    H124647   1.435   4.572   1.573  0.8603 -1.6333 -1.6865
 1004TIP3    H224648   1.450   4.723   1.562 -0.2366 -1.2632  1.1164
 1005TIP3   OH224649   0.859   6.197   1.132  0.5476 -0.5488  0.4850
 1005TIP3    H124650   0.951   6.221   1.129  0.4586 -0.1279  1.0037
 1005TIP3    H224651   0.817   6.254   1.067  0.4502  0.2115  1.1980
 1006TIP3   OH224652   5.034   3.672   7.255  0.5301  0.2643  0.3665
 1006TIP3    H124653   5.079   3.587   7.252  1.5032  0.7765 -0.5790
 1006TIP3    H224654   4.957   3.660   7.200  1.3817  0.3437 -0.9115
 1007TIP3   OH224655   5.851   4.482   6.767  0.3160 -0.9046  0.2888
 1007TIP3    H124656   5.809   4.549   6.822 -2.2063 -2.2304  0.1444
 1007TIP3    H224657   5.797   4.479   6.689  2.0660 -1.1977 -0.9655
 1008TIP3   OH224658   4.566   6.455   1.643  0.6087  0.0396 -0.2129
 1008TIP3    H124659   4.591   6.471   1.552 -1.5116  1.4944 -0.6067
 1008TIP3    H224660   4.613   6.375   1.667  0.3993 -0.9876 -2.9233
 1009TIP3   OH224661   2.931   4.130   7.320  0.0529  0.1158 -0.1787
 1009TIP3    H124662   3.003   4.087   7.366 -0.8207 -0.9433  0.2479
 1009TIP3    H224663   2.959   4.132   7.229  0.1321 -1.3980 -0.2223
 1010TIP3   OH224664   3.073   4.031   2.345  0.3421  0.1768 -0.3633
 1010TIP3    H124665   3.074   3.937   2.360  0.8058  0.1881 -0.3115
 1010TIP3    H224666   3.014   4.066   2.412 -0.4667 -0.1589 -0.8838
 1011TIP3   OH224667   5.405   2.278   8.282  0.2647 -0.1357  0.3968
 1011TIP3    H124668   5.402   2.370   8.258 -1.3036  0.6050  3.0349
 1011TIP3    H224669   5.484   2.269   8.336 -0.5506  0.1668  1.6971
 1012TIP3   OH224670   6.091   3.626   8.238 -0.1666 -0.3318 -0.3794
 1012TIP3    H124671   6.123   3.636   8.327  0.4452 -0.8300 -0.5377
 1012TIP3    H224672   6.018   3.563   8.246  0.7878 -1.4717 -0.4089
 1013TIP3   OH224673   6.563   0.489   7.006 -0.2117 -0.0120 -0.3357
 1013TIP3    H124674   6.636   0.523   7.057 -2.7437  3.7844  1.1790
 1013TIP3    H224675   6.603   0.450   6.928  3.4062  0.7936  0.9665
 1014TIP3   OH224676   1.018   1.672   7.437  0.4113 -0.7960 -0.2643
 1014TIP3    H124677   1.013   1.656   7.343 -0.0431 -2.7275  0.0369
 1014TIP3    H224678   1.023   1.767   7.446  0.2216 -0.5754 -2.2215
 1015TIP3   OH224679   0.553   3.668   8.317 -0.0353  0.2340  0.1662
 1015TIP3    H124680   0.640   3.693   8.286 -0.2202  1.3111  0.4687
 1015TIP3    H224681   0.548   3.574   8.303  0.0831  0.5669 -2.6182
 1016TIP3   OH224682   1.055   5.622   1.473  0.0231 -0.2252  0.7212
 1016TIP3    H124683   1.124   5.662   1.421  0.1301 -0.3837  0.7406
 1016TIP3    H224684   0.999   5.578   1.409 -0.0328 -0.1378  0.7100
 1017TIP3   OH224685   6.035   6.686   1.324 -0.4299 -0.3379  0.1712
 1017TIP3    H124686   5.972   6.622   1.356 -1.9193  0.8448 -0.2289
 1017TIP3    H224687   6.049   6.745   1.398 -0.2963 -0.2358  0.0661
 1018TIP3   OH224688   0.490   2.378   1.136 -0.2126 -0.0845 -0.4698
 1018TIP3    H124689   0.468   2.296   1.180 -2.9228  0.7191 -0.1105
 1018TIP3    H224690   0.556   2.419   1.192  0.6987 -1.6949 -0.3139
 1019TIP3   OH224691   4.540   2.367   0.604 -0.1911  0.2908  0.2692
 1019TIP3    H124692   4.467   2.306   0.599 -0.7112  0.9252  0.0346
 1019TIP3    H224693   4.570   2.377   0.514  1.8096 -1.8627  0.5848
 1020TIP3   OH224694   4.153   1.978   1.637 -0.0324  0.5085  0.3297
 1020TIP3    H124695   4.239   1.938   1.647 -0.8482 -1.4453 -0.0012
 1020TIP3    H224696   4.170   2.059   1.589  1.5975  0.0805  0.1164
 1021TIP3   OH224697   4.374   0.918   6.916  0.0634 -0.3546  0.4059
 1021TIP3    H124698   4.422   0.866   6.980  2.6650  0.0071 -1.0914
 1021TIP3    H224699   4.442   0.968   6.870 -2.1327  4.7377  1.9122
 1022TIP3   OH224700   0.799   3.399   7.065  0.7294  0.0037  0.1701
 1022TIP3    H124701   0.858   3.439   7.002  0.0799  0.1979 -0.3246
 1022TIP3    H224702   0.722   3.373   7.014  0.5725 -0.6464  0.7232
 1023TIP3   OH224703   4.384   5.510   6.897 -0.0574 -0.1407 -0.5454
 1023TIP3    H124704   4.318   5.452   6.935 -1.5315  1.3224 -0.7400
 1023TIP3    H224705   4.425   5.458   6.827 -1.5367 -0.8537 -0.9198
 1024TIP3   OH224706   1.182   6.762   1.112  0.1804  0.5712  0.0500
 1024TIP3    H124707   1.134   6.794   1.036 -1.3151  0.1934  0.8090
 1024TIP3    H224708   1.271   6.796   1.100 -0.2948  1.4088 -1.3087
 1025TIP3   OH224709   3.364   2.235   6.347  0.2511 -0.1379  0.0303
 1025TIP3    H124710   3.312   2.174   6.295  0.0327  0.4152 -0.4171
 1025TIP3    H224711   3.317   2.244   6.430 -0.5561  0.6076 -0.4943
 1026TIP3   OH224712   1.414   1.352   1.753  0.3267  0.3288  0.4717
 1026TIP3    H124713   1.431   1.360   1.847 -0.4600 -1.6036  0.8168
 1026TIP3    H224714   1.424   1.259   1.735  1.2873  0.7874 -1.5539
 1027TIP3   OH224715   3.362   2.483   0.889 -0.1243 -0.3957 -0.1700
 1027TIP3    H124716   3.366   2.502   0.982  0.6023 -1.9355  0.1435
 1027TIP3    H224717   3.417   2.550   0.849 -2.4768  1.8776  0.1660
 1028TIP3   OH224718   3.293   6.473   8.567  0.2517 -0.1825 -0.6924
 1028TIP3    H124719   3.300   6.554   8.617 -0.2072  0.5887 -1.8341
 1028TIP3    H224720   3.321   6.405   8.628 -0.8145  0.6359  0.7968
 1029TIP3   OH224721   5.048   5.314   7.188 -0.1994  1.2998  0.6959
 1029TIP3    H124722   5.089   5.253   7.249 -1.9981  0.1314  0.8239
 1029TIP3    H224723   5.041   5.264   7.106  1.7874  2.6906 -0.4166
 1030TIP3   OH224724   5.382   4.127   7.397  0.8120  0.4962  0.1560
 1030TIP3    H124725   5.395   4.035   7.374  0.5056  0.3296  0.6309
 1030TIP3    H224726   5.420   4.134   7.485  0.0921  0.6290  0.4568
 1031TIP3   OH224727   5.961   1.202   7.300 -0.5885  0.4744 -0.0404
 1031TIP3    H124728   5.920   1.119   7.275 -0.4797 -0.5115  2.7864
 1031TIP3    H224729   6.040   1.177   7.347 -0.1461  2.2315  0.2194
 1032TIP3   OH224730   4.112   3.096   7.132 -0.4043  0.4782 -0.1676
 1032TIP3    H124731   4.024   3.115   7.098 -0.6788 -0.9216 -0.2938
 1032TIP3    H224732   4.099   3.025   7.194  0.8339 -0.8186 -1.3306
 1033TIP3   OH224733   3.199   6.568   6.551 -0.4477  0.2404  0.6012
 1033TIP3    H124734   3.155   6.649   6.576 -1.8662  0.0653 -1.1053
 1033TIP3    H224735   3.131   6.517   6.507  0.6167 -1.5529  0.9557
 1034TIP3   OH224736   0.184   0.294   6.868 -0.2282 -0.2068  0.1337
 1034TIP3    H124737   0.198   0.374   6.817  0.1703 -0.8410 -0.7810
 1034TIP3    H224738   0.115   0.248   6.821 -1.5879  0.3222  1.5493
 1035TIP3   OH224739   6.348   2.804   1.719 -0.4511  0.8560  0.4450
 1035TIP3    H124740   6.277   2.750   1.753 -1.8453  1.3919 -1.3936
 1035TIP3    H224741   6.322   2.822   1.628  1.7681  1.5745 -0.1016
 1036TIP3   OH224742   5.201   1.983   2.110  0.9983  0.5079  0.1230
 1036TIP3    H124743   5.248   2.035   2.175  0.5976 -0.5294  1.2903
 1036TIP3    H224744   5.205   2.035   2.030  1.6411  1.7579  0.9313
 1037TIP3   OH224745   6.768   2.119   2.342 -0.3226  0.2600  0.0189
 1037TIP3    H124746   6.812   2.067   2.274  1.5495 -0.2444  1.5481
 1037TIP3    H224747   6.796   2.209   2.325 -0.0689  0.1704 -0.0468
 1038TIP3   OH224748   1.501   0.386   7.089  0.1236 -0.3436  0.0005
 1038TIP3    H124749   1.517   0.300   7.049  2.5566 -0.2860  0.6455
 1038TIP3    H224750   1.557   0.446   7.039  1.2604  0.1678  1.7794
 1039TIP3   OH224751   4.477   5.897   8.495 -0.1121 -0.4318  0.5150
 1039TIP3    H124752   4.416   5.938   8.434  0.3536 -1.9852 -1.0919
 1039TIP3    H224753   4.493   5.964   8.562  0.9032  2.1714 -2.1100
 1040TIP3   OH224754   4.183   2.974   7.477 -0.6062 -0.2118 -0.3900
 1040TIP3    H124755   4.179   2.925   7.559  0.0729 -0.4845 -0.5092
 1040TIP3    H224756   4.277   2.988   7.462 -0.7920  2.7652  0.5895
 1041TIP3   OH224757   0.296   5.626   7.595 -0.1728  0.0404  0.3942
 1041TIP3    H124758   0.343   5.709   7.607  1.7895 -0.8089 -0.9130
 1041TIP3    H224759   0.298   5.585   7.682  1.6688 -0.0095  0.3745
 1042TIP3   OH224760   4.214   4.856   8.469 -0.0768 -0.4079  0.1361
 1042TIP3    H124761   4.268   4.875   8.545 -1.0124 -0.0333  0.7252
 1042TIP3    H224762   4.154   4.787   8.499 -1.3585  0.6934  0.1745
 1043TIP3   OH224763   1.075   4.414   1.167  0.6618  0.2624  0.3487
 1043TIP3    H124764   1.086   4.422   1.072 -0.0334  0.1574  0.2571
 1043TIP3    H224765   1.133   4.481   1.203 -1.1187  2.2075 -0.2320
 1044TIP3   OH224766   2.095   4.376   0.458 -0.4013 -0.5868  0.4152
 1044TIP3    H124767   2.117   4.364   0.551 -1.2661  1.5763  0.9702
 1044TIP3    H224768   2.180   4.387   0.415 -0.0410 -0.3976  1.1458
 1045TIP3   OH224769   3.645   1.489   8.330  0.1942  0.1585  0.6026
 1045TIP3    H124770   3.729   1.521   8.299  0.3620 -0.2487  0.6352
 1045TIP3    H224771   3.651   1.394   8.322  0.0132  0.0861  1.3212
 1046TIP3   OH224772   1.439   2.736   7.111 -0.2068 -0.2300 -0.1362
 1046TIP3    H124773   1.479   2.765   7.192  0.8188  0.2032 -0.7788
 1046TIP3    H224774   1.458   2.642   7.107 -1.2004 -0.4803  0.6355
 1047TIP3   OH224775   2.041   4.744   6.669  0.1597  0.0220 -0.0920
 1047TIP3    H124776   2.026   4.705   6.583  2.6445  0.8511 -0.9984
 1047TIP3    H224777   2.093   4.678   6.717 -0.7079 -0.1889  0.5955
 1048TIP3   OH224778   2.990   5.987   8.495  0.7458  0.1938  0.1041
 1048TIP3    H124779   2.904   6.028   8.492 -0.3273 -1.8424  1.0122
 1048TIP3    H224780   3.050   6.059   8.517 -1.2679  1.0689  3.5611
 1049TIP3   OH224781   2.471   1.756   1.743 -0.3158 -0.2265 -0.0451
 1049TIP3    H124782   2.380   1.728   1.752 -0.8067  0.6389 -1.8542
 1049TIP3    H224783   2.495   1.789   1.830 -0.4308 -3.9028  1.5476
 1050TIP3   OH224784   5.037   4.405   1.565 -0.4719 -0.6352  0.4228
 1050TIP3    H124785   5.045   4.384   1.658 -1.5079 -1.7137  0.2965
 1050TIP3    H224786   5.063   4.497   1.559  2.2170 -1.2414  1.3431
 1051TIP3   OH224787   3.880   1.639   1.810  0.5009  0.4016 -1.0042
 1051TIP3    H124788   3.801   1.586   1.823  1.4092 -0.6427  0.5721
 1051TIP3    H224789   3.926   1.597   1.738  1.9006 -1.9272  1.0995
 1052TIP3   OH224790   4.639   2.355   2.477  0.2020 -0.1160 -0.1969
 1052TIP3    H124791   4.589   2.282   2.513  1.8395 -0.6531  1.1173
 1052TIP3    H224792   4.721   2.355   2.527  0.1438  2.7860  0.0655
 1053TIP3   OH224793   6.222   1.042   1.816  0.1534  0.1236 -0.0399
 1053TIP3    H124794   6.237   1.015   1.907 -1.2579  0.5006  0.3355
 1053TIP3    H224795   6.258   1.130   1.810 -0.8273  0.5781  0.5201
 1054TIP3   OH224796   5.751   5.611   7.485  0.2800  0.4211 -0.5467
 1054TIP3    H124797   5.793   5.541   7.535 -0.1563 -0.9570 -2.0179
 1054TIP3    H224798   5.818   5.640   7.423  0.7165  1.9004  0.5626
 1055TIP3   OH224799   3.953   0.517   0.606 -0.1421  0.1091  0.3150
 1055TIP3    H124800   4.017   0.456   0.569  0.3985  0.7052  0.2576
 1055TIP3    H224801   3.875   0.463   0.622  1.0288 -1.1306  2.3271
 1056TIP3   OH224802   3.256   5.671   1.737 -0.9265  0.1775  0.2239
 1056TIP3    H124803   3.168   5.655   1.704 -0.3864  0.2586 -1.3319
 1056TIP3    H224804   3.277   5.594   1.789 -1.1552 -0.7863 -1.0693
 1057TIP3   OH224805   5.669   6.024   2.080 -0.6778  0.2407 -0.0881
 1057TIP3    H124806   5.671   6.097   2.142 -1.1183  0.2810 -0.1222
 1057TIP3    H224807   5.671   5.946   2.134 -0.2380  0.2736 -0.0501
 1058TIP3   OH224808   2.990   6.491   8.472 -0.6383  0.2236  0.2591
 1058TIP3    H124809   2.963   6.514   8.561  2.0477 -0.5558  1.3782
 1058TIP3    H224810   3.084   6.508   8.471 -0.6730  0.7703 -2.6633
 1059TIP3   OH224811   3.637   6.645   1.250 -1.0023 -0.0208 -0.5186
 1059TIP3    H124812   3.621   6.664   1.342 -2.1740 -1.2236 -0.4444
 1059TIP3    H224813   3.724   6.603   1.249 -1.0303 -0.0966  0.0529
 1060TIP3   OH224814   0.098   4.839   0.023 -0.2180  0.3390  0.1870
 1060TIP3    H124815   0.143   4.757   0.001  1.5030  1.2612  0.1309
 1060TIP3    H224816   0.048   4.817   0.102  0.9134 -0.5633  0.6899
 1061TIP3   OH224817   2.610   1.852   1.513  0.5734 -0.0710 -0.1292
 1061TIP3    H124818   2.564   1.814   1.588 -0.1877 -1.0591 -1.0721
 1061TIP3    H224819   2.592   1.792   1.441  0.1473  1.5957 -1.4518
 1062TIP3   OH224820   5.414   3.821   6.979 -0.4111  0.0604 -0.5721
 1062TIP3    H124821   5.379   3.886   7.040  0.2268  1.2116 -1.4058
 1062TIP3    H224822   5.505   3.847   6.966 -0.8562  0.6278 -3.0173
 1063TIP3   OH224823   0.805   6.610   1.265 -0.3826  0.2818  0.1446
 1063TIP3    H124824   0.846   6.695   1.279 -0.3156 -0.1659  3.1704
 1063TIP3    H224825   0.711   6.627   1.273 -0.3444  0.0131  1.2565
 1064TIP3   OH224826   2.760   2.394   1.148 -0.3934 -0.2627 -0.0701
 1064TIP3    H124827   2.767   2.421   1.240 -0.8833 -1.8846  0.4675
 1064TIP3    H224828   2.843   2.422   1.109 -1.3443  3.2721  0.0262
 1065TIP3   OH224829   2.467   3.267   7.962 -0.1134  0.4197  0.0521
 1065TIP3    H124830   2.490   3.214   8.038 -0.9520 -2.7274 -1.7137
 1065TIP3    H224831   2.550   3.285   7.919  0.0978 -0.5478  0.0399
 1066TIP3   OH224832   4.335   3.084   8.246 -0.1265  0.5147  0.4269
 1066TIP3    H124833   4.376   3.064   8.331  1.7286 -0.5860 -0.6429
 1066TIP3    H224834   4.383   3.160   8.214 -1.3460  1.4137  0.6608
 1067TIP3   OH224835   5.011   5.581   8.421 -0.3970 -0.0439 -0.3775
 1067TIP3    H124836   5.079   5.588   8.488 -0.1295 -0.2143 -0.6274
 1067TIP3    H224837   5.034   5.502   8.372 -3.5185 -3.1619  2.5834
 1068TIP3   OH224838   6.611   4.536   8.530 -0.0261 -0.2603  0.9345
 1068TIP3    H124839   6.678   4.593   8.492 -0.5045 -0.1088  0.2940
 1068TIP3    H224840   6.528   4.571   8.497 -0.3255 -1.3907  0.4242
 1069TIP3   OH224841   5.249   0.022   0.459  0.0056 -0.3660 -0.0437
 1069TIP3    H124842   5.339   0.003   0.488  0.7176  0.6564 -1.4833
 1069TIP3    H224843   5.216  -0.062   0.427  0.0487 -0.9833  1.4451
 1070TIP3   OH224844   5.267   0.176   2.306 -0.0655  0.3255  0.0216
 1070TIP3    H124845   5.307   0.210   2.226  0.6408  0.7577  0.5466
 1070TIP3    H224846   5.309   0.226   2.376 -0.1445 -0.5587  0.7080
 1071TIP3   OH224847   4.167   5.521   7.852  0.2811  0.0787  0.6842
 1071TIP3    H124848   4.191   5.613   7.860  0.7358  0.1392 -1.0338
 1071TIP3    H224849   4.078   5.516   7.887 -1.2126  1.9293 -2.4058
 1072TIP3   OH224850   2.369   4.831   0.111 -0.3347  0.0453 -0.3982
 1072TIP3    H124851   2.317   4.821   0.190 -0.3582  0.8088 -0.3146
 1072TIP3    H224852   2.442   4.887   0.136 -1.5589  2.2250 -1.4398
 1073TIP3   OH224853   3.814   5.770   7.928 -0.0222  0.1793  0.6329
 1073TIP3    H124854   3.837   5.694   7.875  1.1619  1.6370 -1.0907
 1073TIP3    H224855   3.719   5.763   7.940 -0.0354 -1.2094 -0.0687
 1074TIP3   OH224856   5.434   5.282   7.631  0.4036  0.3552  0.4182
 1074TIP3    H124857   5.415   5.212   7.569  0.7549  1.6789 -1.2575
 1074TIP3    H224858   5.510   5.251   7.681 -0.9695 -1.4779  1.4742
 1075TIP3   OH224859   1.298   3.163   7.252  0.1623  0.1525 -0.0907
 1075TIP3    H124860   1.279   3.257   7.244  1.3424  0.5839  1.7320
 1075TIP3    H224861   1.342   3.154   7.336 -0.6542 -2.1827  0.1588
 1076TIP3   OH224862   3.569   0.239   1.333 -0.2336 -0.9255  0.6121
 1076TIP3    H124863   3.491   0.193   1.303 -1.2862  0.1308  1.6767
 1076TIP3    H224864   3.599   0.189   1.409  1.5593 -2.7123 -1.1402
 1077TIP3   OH224865   6.461   6.198   6.600  0.5306 -0.0093  0.2722
 1077TIP3    H124866   6.486   6.142   6.527  2.2076  0.1287  0.6879
 1077TIP3    H224867   6.419   6.139   6.663  1.0292 -0.5413  0.1116
 1078TIP3   OH224868   5.248   5.344   2.487  0.6857 -0.0394  0.8778
 1078TIP3    H124869   5.289   5.308   2.566  0.6177 -0.2904  0.7996
 1078TIP3    H224870   5.223   5.267   2.436  0.3646  0.1168  0.7972
 1079TIP3   OH224871   1.101   5.914   7.053 -0.1232  0.6201 -0.4947
 1079TIP3    H124872   1.174   5.958   7.095  0.5110 -0.0150 -0.9058
 1079TIP3    H224873   1.029   5.921   7.116  0.6140  0.2505  0.4138
 1080TIP3   OH224874   3.434   4.266   7.492  0.3497  0.0705  0.0276
 1080TIP3    H124875   3.339   4.273   7.497  0.4218  2.3187 -0.5848
 1080TIP3    H224876   3.451   4.237   7.402  0.2725 -0.0253  0.0434
 1081TIP3   OH224877   4.364   0.727   0.974 -0.4024 -0.1290  0.4107
 1081TIP3    H124878   4.438   0.739   0.915 -0.6736  0.6675  0.2090
 1081TIP3    H224879   4.287   0.747   0.920 -0.5818  2.0490  1.3763
 1082TIP3   OH224880   5.759   3.703   7.725 -0.1851  0.3231  0.3055
 1082TIP3    H124881   5.730   3.791   7.749 -2.8765 -0.2034 -0.6024
 1082TIP3    H224882   5.823   3.717   7.656 -1.5175  1.6108 -0.7445
 1083TIP3   OH224883   3.113   6.085   1.944  0.0239 -0.0992  0.7303
 1083TIP3    H124884   3.143   6.168   1.906  0.3986  0.1553  1.5388
 1083TIP3    H224885   3.193   6.037   1.964  0.1208  1.2199  4.3167
 1084TIP3   OH224886   1.612   1.088   1.356 -0.2995 -0.8196 -0.0100
 1084TIP3    H124887   1.567   1.083   1.272  1.4467  0.9993 -1.1606
 1084TIP3    H224888   1.705   1.076   1.333  0.1106 -1.3421  1.8143
 1085TIP3   OH224889   2.945   6.736   7.753 -0.2828  0.1176  0.2374
 1085TIP3    H124890   2.974   6.729   7.844  0.1184 -0.0110  0.1027
 1085TIP3    H224891   2.976   6.655   7.711 -0.3537  0.2324 -0.0429
 1086TIP3   OH224892   3.964   6.225   8.552  0.3373  0.5456 -0.1183
 1086TIP3    H124893   3.961   6.161   8.623  0.0532  0.2367 -0.3977
 1086TIP3    H224894   3.979   6.172   8.473  1.8525  0.9923 -0.1566
 1087TIP3   OH224895   1.186   4.041   8.400  0.4268  0.6992 -0.5479
 1087TIP3    H124896   1.169   3.951   8.372 -1.1035  1.2406 -1.4696
 1087TIP3    H224897   1.277   4.040   8.429  0.2059 -1.3268  0.2486
 1088TIP3   OH224898   2.175   6.269   1.885  0.2182 -0.3005  0.1500
 1088TIP3    H124899   2.203   6.331   1.818  0.1882 -1.0924 -0.6182
 1088TIP3    H224900   2.114   6.318   1.940 -0.1940  0.1995 -0.7397
 1089TIP3   OH224901   5.335   6.533   8.516 -0.3840  0.3087  0.2923
 1089TIP3    H124902   5.383   6.455   8.488  0.3975  1.0770 -0.5872
 1089TIP3    H224903   5.296   6.509   8.599 -1.2733 -1.4666 -0.6044
 1090TIP3   OH224904   3.913   5.174   0.983 -0.6100 -0.3341 -0.0866
 1090TIP3    H124905   3.987   5.220   1.023 -0.1959  0.5005 -1.7573
 1090TIP3    H224906   3.839   5.195   1.041 -0.3850  2.2542 -0.5869
 1091TIP3   OH224907   2.934   6.447   7.681 -0.4838  0.0211 -0.2525
 1091TIP3    H124908   3.004   6.461   7.618 -0.6942 -1.3578 -0.8219
 1091TIP3    H224909   2.853   6.453   7.630 -0.6428 -1.4931 -0.2369
 1092TIP3   OH224910   6.004   0.863   8.385 -0.2191 -0.4289  0.7660
 1092TIP3    H124911   5.920   0.887   8.345  0.7694  1.7605 -0.1028
 1092TIP3    H224912   6.021   0.774   8.352 -0.6848  0.3069 -1.6298
 1093TIP3   OH224913   5.428   2.640   1.464  0.1846  0.9706  0.1940
 1093TIP3    H124914   5.422   2.715   1.405  0.6477  0.0869 -1.0079
 1093TIP3    H224915   5.517   2.644   1.498  0.5618  0.3747 -0.6986
 1094TIP3   OH224916   0.074   6.155   0.412 -0.8574  0.1764  0.4388
 1094TIP3    H124917   0.165   6.158   0.382 -0.8564 -0.9004  0.2613
 1094TIP3    H224918   0.049   6.246   0.423 -0.4377  0.5768 -1.5837
 1095TIP3   OH224919   1.076   1.886   7.589  0.1224  0.4088 -0.2987
 1095TIP3    H124920   1.142   1.828   7.627 -0.3272  0.0216 -0.0843
 1095TIP3    H224921   1.025   1.915   7.665 -0.3340  0.2048 -0.5254
 1096TIP3   OH224922   2.436   1.086   0.116 -0.0936 -0.5964  0.2354
 1096TIP3    H124923   2.377   1.130   0.056  0.7086  1.4160  0.8448
 1096TIP3    H224924   2.382   1.062   0.191  0.1727  3.9114  2.1915
 1097TIP3   OH224925   3.311   5.954   8.587  0.5166  0.5849  0.2565
 1097TIP3    H124926   3.307   6.048   8.570  1.6988  1.7496  4.8096
 1097TIP3    H224927   3.397   5.941   8.628 -0.2128 -2.1579  1.1404
 1098TIP3   OH224928   2.836   2.548   8.768 -0.0087 -0.7594  0.1300
 1098TIP3    H124929   2.838   2.643   8.765  1.7803 -0.7894 -0.6171
 1098TIP3    H224930   2.752   2.527   8.810 -0.7750  1.1069 -0.3877
 1099TIP3   OH224931   4.372   4.002   8.403 -0.5127  0.2520  0.1234
 1099TIP3    H124932   4.387   4.035   8.492 -0.3604  0.2721  0.0908
 1099TIP3    H224933   4.407   3.913   8.404 -0.4004  0.2938  0.0515
 1100TIP3   OH224934   1.018   0.764   0.626 -0.1596  0.1941 -0.0810
 1100TIP3    H124935   0.925   0.785   0.635  0.2402  1.6071  1.1024
 1100TIP3    H224936   1.043   0.727   0.711  0.6454  1.0488  0.0657
 1101TIP3   OH224937   3.329   3.174   8.259 -1.0488  0.4078  0.1266
 1101TIP3    H124938   3.415   3.214   8.273 -2.0440  2.5067  0.7926
 1101TIP3    H224939   3.339   3.084   8.290  1.2213  0.1824 -1.0294
 1102TIP3   OH224940   5.863   3.426   0.041  0.2820 -1.1808  0.0845
 1102TIP3    H124941   5.925   3.353   0.044 -1.1726 -2.5112 -0.9345
 1102TIP3    H224942   5.800   3.402  -0.026 -0.1136  1.1664 -0.4881
 1103TIP3   OH224943   0.646   1.584   6.985 -0.1075  0.4775 -0.2085
 1103TIP3    H124944   0.736   1.599   6.954  0.0899 -0.7820 -0.2788
 1103TIP3    H224945   0.591   1.624   6.918  0.3674 -0.2362 -1.0470
 1104TIP3   OH224946   2.196   2.767   2.019 -0.2284 -0.4639 -0.4725
 1104TIP3    H124947   2.284   2.771   2.057 -0.5735 -0.1110  0.3194
 1104TIP3    H224948   2.186   2.676   1.991 -0.0190 -0.7870  0.4561
 1105TIP3   OH224949   3.997   0.302   8.137 -0.4431  0.0387 -0.3478
 1105TIP3    H124950   4.003   0.366   8.208 -0.4501 -0.7976  0.4212
 1105TIP3    H224951   3.982   0.355   8.059  2.0080  1.2065 -0.1356
 1106TIP3   OH224952   1.714   0.134   1.145 -0.0491  0.0563  0.3350
 1106TIP3    H124953   1.645   0.170   1.089  0.0280 -1.1974 -0.6263
 1106TIP3    H224954   1.719   0.194   1.219 -2.2146  0.1837  0.4576
 1107TIP3   OH224955   6.590   6.001   8.231 -0.5304 -0.1735 -0.1088
 1107TIP3    H124956   6.685   5.994   8.218 -0.1931  1.0981  1.4261
 1107TIP3    H224957   6.559   5.910   8.226  0.4720 -0.4634 -2.3883
 1108TIP3   OH224958   2.335   4.838   7.013 -0.1279  0.3325  0.4516
 1108TIP3    H124959   2.326   4.800   6.925 -0.8248 -0.7352  0.9626
 1108TIP3    H224960   2.429   4.852   7.024  0.1938 -1.4848  0.3192
 1109TIP3   OH224961   6.120   3.313   8.564  0.3850 -0.3081  0.1943
 1109TIP3    H124962   6.073   3.277   8.488  0.1744  1.4626 -0.5604
 1109TIP3    H224963   6.081   3.269   8.639 -0.9483 -0.5059 -0.5769
 1110TIP3   OH224964   0.173   6.358   7.480  0.3541  0.0817  0.2970
 1110TIP3    H124965   0.096   6.301   7.478 -0.0133  0.5806  0.0697
 1110TIP3    H224966   0.179   6.392   7.391  1.2279 -0.4669  0.1376
 1111TIP3   OH224967   4.636   6.698   6.626 -0.0638 -0.1224 -0.5118
 1111TIP3    H124968   4.643   6.603   6.622 -0.0462 -0.1812  0.6676
 1111TIP3    H224969   4.600   6.723   6.540 -0.1634 -1.1894 -0.7939
 1112TIP3   OH224970   2.399   6.045   2.157 -0.3296  0.0668  0.6754
 1112TIP3    H124971   2.370   6.013   2.071  0.9634 -0.6324  0.4794
 1112TIP3    H224972   2.392   6.140   2.150  0.6681  0.0806 -0.5666
 1113TIP3   OH224973   0.915   0.926   8.522 -0.7917  0.1987  0.0208
 1113TIP3    H124974   0.820   0.929   8.517 -0.8717  0.6448  1.3928
 1113TIP3    H224975   0.938   0.999   8.579  0.3810  0.0902 -0.2845
 1114TIP3   OH224976   3.532   4.757   0.149 -1.3086  0.5875  0.3657
 1114TIP3    H124977   3.534   4.755   0.054 -1.4066  1.1551  0.3504
 1114TIP3    H224978   3.440   4.740   0.171 -1.1507 -0.3033  0.3872
 1115TIP3   OH224979   2.031   1.129   1.945  0.2167  0.0705 -0.3453
 1115TIP3    H124980   2.025   1.096   2.035  0.4366 -0.1814 -0.4215
 1115TIP3    H224981   2.077   1.213   1.954 -1.6414  1.0906  0.0170
 1116TIP3   OH224982   2.125   3.420   2.280 -0.0290  0.1967  0.2943
 1116TIP3    H124983   2.081   3.378   2.206 -0.2529 -0.0042  0.5389
 1116TIP3    H224984   2.055   3.461   2.330  0.1688  0.6945  0.1672
 1117TIP3   OH224985   3.567   6.721   8.592 -0.4564  0.4313  0.2301
 1117TIP3    H124986   3.589   6.779   8.519  2.3496 -0.5249  0.2067
 1117TIP3    H224987   3.533   6.780   8.660  0.8382  1.9289 -0.3554
 1118TIP3   OH224988   3.794   6.485   1.912  0.2292 -0.5952  0.1850
 1118TIP3    H124989   3.875   6.525   1.942  1.4346 -1.3643 -1.8536
 1118TIP3    H224990   3.815   6.392   1.902 -1.0158 -0.8770  0.0017
 1119TIP3   OH224991   2.865   2.248   7.175  0.0702 -0.3846  0.1245
 1119TIP3    H124992   2.851   2.154   7.187  0.5956 -0.5378 -0.4211
 1119TIP3    H224993   2.958   2.261   7.196  0.3930 -0.2467 -1.3110
 1120TIP3   OH224994   2.272   4.362   0.033 -0.1939 -0.0405  0.2771
 1120TIP3    H124995   2.240   4.395   0.117  0.4387  0.7901  0.2146
 1120TIP3    H224996   2.261   4.436  -0.027 -2.2930 -1.1797 -0.8311
 1121TIP3   OH224997   0.135   3.442   7.595 -0.0990 -0.3143 -0.9196
 1121TIP3    H124998   0.088   3.378   7.648 -1.4874  0.8061 -0.7537
 1121TIP3    H224999   0.068   3.503   7.565  1.0070  0.3999 -2.0612
 1122TIP3   OH225000   1.024   6.711   8.165  0.2977 -0.2034  0.1985
 1122TIP3    H125001   1.106   6.662   8.154  0.1899 -1.1560  2.9775
 1122TIP3    H225002   1.038   6.766   8.242 -1.5144 -0.0163  0.4409
 1123TIP3   OH225003   3.809   2.443   8.772  0.5897  0.5425  0.3285
 1123TIP3    H125004   3.855   2.527   8.769  0.4200  0.6644  0.9338
 1123TIP3    H225005   3.868   2.382   8.728  0.3246  1.1491 -0.9040
 1124TIP3   OH225006   4.685   4.755   2.362 -0.3915  0.2509  0.1348
 1124TIP3    H125007   4.714   4.685   2.421 -0.4416 -0.6788 -0.8995
 1124TIP3    H225008   4.764   4.808   2.348 -0.0264 -0.3083 -0.0015
 1125TIP3   OH225009   0.673   0.750   7.660  0.3014  0.1170  0.1060
 1125TIP3    H125010   0.593   0.736   7.712  0.1043 -0.3339 -0.3103
 1125TIP3    H225011   0.675   0.844   7.645 -0.0486  0.1582  0.2887
 1126TIP3   OH225012   4.985   0.234   0.147 -0.0125 -0.1412  0.3473
 1126TIP3    H125013   5.039   0.244   0.225  0.5765 -0.3136 -0.0274
 1126TIP3    H225014   5.043   0.257   0.075 -0.7541  0.7261 -0.0011
 1127TIP3   OH225015   6.840   0.860   0.858  0.3111  0.8248  0.2128
 1127TIP3    H125016   6.902   0.932   0.869  0.9257  0.2124  0.8570
 1127TIP3    H225017   6.813   0.838   0.947  0.7791 -0.2919  0.0899
 1128TIP3   OH225018   3.666   6.706   1.517 -0.1388  0.8804 -0.0032
 1128TIP3    H125019   3.710   6.791   1.521 -0.0041  0.7765  0.8142
 1128TIP3    H225020   3.678   6.669   1.604  1.6084 -0.8976 -0.9278
 1129TIP3   OH225021   6.785   4.120   8.213 -0.3763  0.6913  0.2079
 1129TIP3    H125022   6.734   4.168   8.278  0.0228  1.1934  0.1591
 1129TIP3    H225023   6.774   4.170   8.132 -1.7238 -0.4982 -0.3936
 1130TIP3   OH225024   2.901   5.783   0.999  0.1332 -0.6496  0.3201
 1130TIP3    H125025   2.967   5.851   0.998 -1.1070  0.5978 -0.5220
 1130TIP3    H225026   2.938   5.712   0.946  0.7920  0.0208 -0.1337
 1131TIP3   OH225027   1.005   1.005   6.416  0.3029  0.2387  0.2111
 1131TIP3    H125028   1.097   0.991   6.438  0.7123  0.9626 -0.9189
 1131TIP3    H225029   0.999   0.979   6.324 -1.0614 -1.5847  0.7592
 1132TIP3   OH225030   5.322   2.538   7.653 -0.2118 -0.0951  0.4379
 1132TIP3    H125031   5.275   2.602   7.600  0.0012  0.7654  1.2565
 1132TIP3    H225032   5.386   2.590   7.702  3.7068 -1.4784 -2.6909
 1133TIP3   OH225033   5.237   2.179   1.932 -0.0358 -0.3055  0.5210
 1133TIP3    H125034   5.309   2.240   1.916 -0.6947  0.8134  1.5670
 1133TIP3    H225035   5.167   2.210   1.874 -0.6187  0.4380  1.5754
 1134TIP3   OH225036   4.708   0.513   6.275 -0.6071 -0.4474 -0.3466
 1134TIP3    H125037   4.771   0.442   6.259  0.2072  0.6712 -2.6166
 1134TIP3    H225038   4.762   0.587   6.303 -0.9802  0.2985 -1.5381
 1135TIP3   OH225039   1.046   4.319   7.356  0.5904  0.1567 -0.4657
 1135TIP3    H125040   1.032   4.290   7.266 -0.7881 -0.5220 -0.0632
 1135TIP3    H225041   1.068   4.412   7.348 -2.0120  0.7951 -1.4150
 1136TIP3   OH225042   3.882   4.407   0.960  0.2527 -0.2262  0.6875
 1136TIP3    H125043   3.815   4.376   0.899 -1.4686  1.4894  1.6245
 1136TIP3    H225044   3.873   4.351   1.037  0.2246 -0.3121  0.6220
 1137TIP3   OH225045   4.409   0.988   7.695  0.3247  0.2604  0.2583
 1137TIP3    H125046   4.358   0.978   7.775  0.8829 -2.0567  0.3825
 1137TIP3    H225047   4.437   1.080   7.696 -0.2368  0.4631  2.3592
 1138TIP3   OH225048   2.263   1.348   1.012 -0.2610 -0.2945 -0.3595
 1138TIP3    H125049   2.255   1.252   1.014  0.9518 -0.4198 -0.3923
 1138TIP3    H225050   2.356   1.363   0.996 -0.7302  0.8835 -2.2846
 1139TIP3   OH225051   1.914   2.733   0.068 -0.4494  0.3630 -0.1398
 1139TIP3    H125052   1.904   2.641   0.046 -0.0336 -0.0689  1.3360
 1139TIP3    H225053   1.836   2.754   0.120 -0.7417  0.9573 -0.8087
 1140TIP3   OH225054   5.509   0.199   0.696 -0.9549 -0.1046 -0.1710
 1140TIP3    H125055   5.492   0.140   0.623 -0.7610  0.1646 -0.4392
 1140TIP3    H225056   5.521   0.142   0.772 -0.4751 -0.4224 -0.4852
 1141TIP3   OH225057   6.524   3.862   0.992 -0.0587 -0.4915 -0.6933
 1141TIP3    H125058   6.492   3.876   1.081  1.9866 -0.0296  0.0348
 1141TIP3    H225059   6.570   3.779   0.996 -0.3002 -0.6701 -1.4453
 1142TIP3   OH225060   0.245   2.608   0.314 -0.4983  0.4451 -0.7293
 1142TIP3    H125061   0.279   2.552   0.245  1.2365  0.5834 -0.0472
 1142TIP3    H225062   0.264   2.697   0.284  2.8044  0.4796  1.0156
 1143TIP3   OH225063   1.917   2.283   0.681  0.0940  0.2852  0.0337
 1143TIP3    H125064   1.883   2.338   0.610  0.1736 -0.2938 -0.4659
 1143TIP3    H225065   2.008   2.265   0.656 -0.4049 -1.4486 -0.6973
 1144TIP3   OH225066   1.848   6.315   7.158  0.3268  0.0024  0.0706
 1144TIP3    H125067   1.904   6.389   7.136 -0.0522  0.3673  0.3063
 1144TIP3    H225068   1.815   6.336   7.245 -0.6423  0.0897 -0.3025
 1145TIP3   OH225069   5.421   5.104   0.707  0.0217  0.0201  0.1305
 1145TIP3    H125070   5.392   5.019   0.674 -0.0079  0.4122 -0.9087
 1145TIP3    H225071   5.446   5.153   0.628 -1.9098  1.7065  0.4691
 1146TIP3   OH225072   1.361   4.296   0.810 -0.1635  0.5864 -0.1007
 1146TIP3    H125073   1.390   4.342   0.731 -2.3457 -1.1165 -2.0657
 1146TIP3    H225074   1.425   4.225   0.821  0.1613  0.8414 -0.3432
 1147TIP3   OH225075   2.254   2.435   8.801 -0.3714  0.3829  1.1160
 1147TIP3    H125076   2.244   2.528   8.821 -0.8414  1.1971 -2.1970
 1147TIP3    H225077   2.306   2.434   8.721  0.7131 -2.3238  1.7568
 1148TIP3   OH225078   2.771   5.186   1.136  0.2294  0.1439  0.1754
 1148TIP3    H125079   2.859   5.162   1.164  0.3311 -0.0933 -0.3322
 1148TIP3    H225080   2.714   5.119   1.173  0.2464  0.3754  0.6194
 1149TIP3   OH225081   3.705   2.725   7.100  0.0876  0.1496 -0.5615
 1149TIP3    H125082   3.779   2.749   7.044  0.1662 -3.1457 -2.0962
 1149TIP3    H225083   3.736   2.742   7.189  2.6636 -0.8998 -1.1719
 1150TIP3   OH225084   3.420   4.061   7.826  0.4109 -0.2233  0.3002
 1150TIP3    H125085   3.367   3.986   7.855 -0.0307  0.4245  1.2097
 1150TIP3    H225086   3.507   4.043   7.861  0.4027 -0.4981  0.1849
 1151TIP3   OH225087   5.806   6.634   0.682 -0.4311 -0.4593  0.5256
 1151TIP3    H125088   5.772   6.644   0.593  1.1394 -0.7864 -0.1432
 1151TIP3    H225089   5.806   6.723   0.718  1.5605  0.1665 -0.8486
 1152TIP3   OH225090   1.898   2.300   6.330  0.0815  0.5204 -0.2774
 1152TIP3    H125091   1.973   2.345   6.369 -1.0570  1.9509  0.3615
 1152TIP3    H225092   1.836   2.292   6.402 -0.0140 -1.5649 -0.5385
 1153TIP3   OH225093   2.737   0.070   8.455 -0.3552 -0.1170 -0.1163
 1153TIP3    H125094   2.678   0.017   8.402  0.2210 -0.0958 -0.7841
 1153TIP3    H225095   2.713   0.048   8.545  1.4766 -3.4336 -0.2729
 1154TIP3   OH225096   3.816   6.696   8.043  0.3116  0.2176  0.3945
 1154TIP3    H125097   3.895   6.647   8.021  0.4837 -0.4502  2.2964
 1154TIP3    H225098   3.811   6.766   7.979  0.2454 -2.0649 -2.2766
 1155TIP3   OH225099   4.744   3.049   8.582  0.1550 -0.0447 -0.0257
 1155TIP3    H125100   4.655   3.020   8.605 -0.0076  0.5753  0.1297
 1155TIP3    H225101   4.796   2.968   8.584  0.0531 -0.1097  2.0355
 1156TIP3   OH225102   6.327   1.031   7.680 -0.0052  0.7519  0.8063
 1156TIP3    H125103   6.409   1.059   7.719  0.1120  1.6608 -0.0585
 1156TIP3    H225104   6.312   0.943   7.716  1.4876  0.4506  0.7554
 1157TIP3   OH225105   0.562   1.469   0.358 -0.2405  0.2703  0.1926
 1157TIP3    H125106   0.607   1.484   0.276  1.3725  0.7947  1.1393
 1157TIP3    H225107   0.589   1.541   0.415 -0.5074 -0.6213  1.5069
 1158TIP3   OH225108   0.712   6.082   8.083  0.2346  0.1613  0.3368
 1158TIP3    H125109   0.762   6.080   8.164 -0.3405 -0.6751  0.6808
 1158TIP3    H225110   0.647   6.151   8.096 -0.5131 -0.6546  0.9909
 1159TIP3   OH225111   2.251   4.009   0.868  0.1403  0.0061 -0.0811
 1159TIP3    H125112   2.278   4.056   0.947 -5.4011  0.3243  2.0868
 1159TIP3    H225113   2.224   4.077   0.807  0.3499 -0.2988 -0.5185
 1160TIP3   OH225114   2.899   3.693   1.705 -0.9821 -0.1117 -0.2199
 1160TIP3    H125115   2.924   3.631   1.636 -0.8155 -1.1279  0.7274
 1160TIP3    H225116   2.831   3.647   1.755 -1.3556  0.7554  0.0841
 1161TIP3   OH225117   2.915   3.292   7.190  0.1802 -0.2122  0.4009
 1161TIP3    H125118   2.973   3.353   7.235  0.4977  0.0471 -0.3349
 1161TIP3    H225119   2.962   3.209   7.189  0.4494 -0.0587  0.0047
 1162TIP3   OH225120   3.653   3.195   2.395 -0.1951 -0.5349  0.2672
 1162TIP3    H125121   3.725   3.142   2.362 -0.9307 -1.9602  0.8822
 1162TIP3    H225122   3.693   3.280   2.415  0.6724 -0.2502 -2.3100
 1163TIP3   OH225123   5.324   6.178   6.979  0.5609 -0.5482 -0.2274
 1163TIP3    H125124   5.262   6.116   7.018  0.8032 -1.9033 -1.8816
 1163TIP3    H225125   5.286   6.264   6.997 -1.5712 -1.3075 -0.7432
 1164TIP3   OH225126   2.359   6.433   0.724 -0.6769 -0.1275  0.4807
 1164TIP3    H125127   2.392   6.438   0.814  1.0236 -0.3130 -0.0857
 1164TIP3    H225128   2.384   6.517   0.685 -1.0148 -0.2182  0.0616
 1165TIP3   OH225129   3.925   5.761   1.378  0.0429  0.0474  0.0934
 1165TIP3    H125130   4.007   5.746   1.330  1.5574  1.4799  2.0528
 1165TIP3    H225131   3.953   5.803   1.460 -2.7923  2.0468  0.1644
 1166TIP3   OH225132   6.060   0.451   7.871 -0.4133 -1.0231 -0.4659
 1166TIP3    H125133   6.099   0.537   7.889  2.9067 -2.0598 -1.8663
 1166TIP3    H225134   5.990   0.469   7.808  0.5012  0.6496 -1.0691
 1167TIP3   OH225135   1.642   2.018   7.226  0.1561 -0.0922 -0.7113
 1167TIP3    H125136   1.661   1.943   7.282  0.0639  0.8423  0.5955
 1167TIP3    H225137   1.553   2.002   7.194 -1.0333  0.8208  1.8913
 1168TIP3   OH225138   3.656   5.291   7.680  0.2790 -0.0611 -0.5216
 1168TIP3    H125139   3.678   5.289   7.587  0.2896  0.2233 -0.5243
 1168TIP3    H225140   3.700   5.214   7.716 -0.6744 -0.8426 -0.9601
 1169TIP3   OH225141   5.420   1.791   1.334  0.2241 -0.1926 -0.2951
 1169TIP3    H125142   5.500   1.743   1.358 -1.2515 -2.3521  0.5664
 1169TIP3    H225143   5.352   1.724   1.330 -1.4164  1.4763 -1.8127
 1170TIP3   OH225144   4.952   2.575   0.073  0.2513  0.1746 -0.0418
 1170TIP3    H125145   5.047   2.573   0.079  0.1719 -1.2203  1.3042
 1170TIP3    H225146   4.929   2.490   0.035 -0.5216 -0.1040  1.0201
 1171TIP3   OH225147   5.472   4.277   8.098  0.0579  0.5792 -0.4171
 1171TIP3    H125148   5.540   4.217   8.067 -1.2646 -1.7853  0.9626
 1171TIP3    H225149   5.399   4.264   8.037 -1.4613 -1.8815  1.7138
 1172TIP3   OH225150   5.890   1.596   0.426 -0.3962  0.0073 -0.6761
 1172TIP3    H125151   5.892   1.568   0.518 -0.7031  0.8076 -0.4068
 1172TIP3    H225152   5.979   1.629   0.409 -0.0342 -1.1159 -0.9980
 1173TIP3   OH225153   5.989   1.659   1.096  0.1654  0.3317  0.3472
 1173TIP3    H125154   6.065   1.629   1.047  1.2030  0.6036  1.7303
 1173TIP3    H225155   6.020   1.735   1.146 -0.7581 -0.0987  1.6383
 1174TIP3   OH225156   5.554   5.560   7.281 -0.0089 -0.6143 -0.7635
 1174TIP3    H125157   5.622   5.595   7.338  0.4702  1.4154 -2.4424
 1174TIP3    H225158   5.474   5.563   7.334  0.4457  1.0388 -0.1075
 1175TIP3   OH225159   3.405   2.487   1.157 -0.1171 -0.4127 -0.1041
 1175TIP3    H125160   3.430   2.473   1.248  0.1701  0.4175 -0.0477
 1175TIP3    H225161   3.376   2.578   1.154  0.6244 -0.1889 -1.0047
 1176TIP3   OH225162   1.894   6.083   1.082  0.5699  0.1078 -0.7388
 1176TIP3    H125163   1.967   6.078   1.020  0.7241  2.0011 -0.7673
 1176TIP3    H225164   1.924   6.144   1.150 -0.6391  0.2312 -0.2849
 1177TIP3   OH225165   0.103   5.848   8.412 -0.2839 -0.4688  0.6490
 1177TIP3    H125166   0.065   5.783   8.472 -0.6648 -0.8142  0.0522
 1177TIP3    H225167   0.066   5.932   8.441  1.5106 -0.2360  2.4876
 1178TIP3   OH225168   0.241   3.631   7.387 -0.2613  0.0636 -0.2081
 1178TIP3    H125169   0.203   3.715   7.414  0.0786  0.7540 -1.7546
 1178TIP3    H225170   0.189   3.565   7.433 -2.8577  0.9867 -1.6167
 1179TIP3   OH225171   1.777   6.134   0.383 -0.1318  0.2893 -0.4030
 1179TIP3    H125172   1.757   6.185   0.461  0.4896 -0.2243  0.1107
 1179TIP3    H225173   1.830   6.192   0.328 -1.6295  1.0953 -1.0418
 1180TIP3   OH225174   4.849   0.530   6.931  0.7581 -0.4153  0.1765
 1180TIP3    H125175   4.905   0.453   6.926  1.7398  0.2266  0.9318
 1180TIP3    H225176   4.783   0.508   6.997  1.0976 -0.5762  0.4658
 1181TIP3   OH225177   5.035   1.042   7.236  0.4672  0.2151 -0.5908
 1181TIP3    H125178   5.129   1.033   7.221  0.6404  2.2962 -0.9370
 1181TIP3    H225179   5.005   0.952   7.251  2.5778 -0.4316  0.0379
 1182TIP3   OH225180   4.728   5.955   8.362 -0.4074 -0.1705  0.0504
 1182TIP3    H125181   4.771   5.886   8.311  2.9126  1.4254  0.3802
 1182TIP3    H225182   4.740   6.035   8.311  0.2330  0.9339  1.8006
 1183TIP3   OH225183   1.749   5.377   1.637 -0.2143  0.3162 -0.3177
 1183TIP3    H125184   1.837   5.344   1.658  0.0958  0.9304 -0.6128
 1183TIP3    H225185   1.707   5.390   1.722  0.0334  0.1507 -0.1679
 1184TIP3   OH225186   5.154   1.991   2.429  0.1640  0.4625 -0.1494
 1184TIP3    H125187   5.121   1.954   2.347  0.0495 -1.1468  0.5744
 1184TIP3    H225188   5.075   2.016   2.477  0.2187  1.1024 -0.3842
 1185TIP3   OH225189   2.760   0.936   7.411  0.2196 -0.6622  0.0846
 1185TIP3    H125190   2.790   0.917   7.322  0.4129 -0.2785  0.0663
 1185TIP3    H225191   2.699   1.008   7.401  1.2042  0.2360  0.3951
 1186TIP3   OH225192   4.716   3.470   0.873  0.1520 -0.2561  0.4147
 1186TIP3    H125193   4.810   3.459   0.883  0.1713  0.1734  0.7284
 1186TIP3    H225194   4.699   3.561   0.900 -0.5133 -0.6968  1.5158
 1187TIP3   OH225195   5.471   4.640   0.783 -0.0810  0.2457 -0.9683
 1187TIP3    H125196   5.434   4.722   0.750 -0.5582 -0.0017 -1.0635
 1187TIP3    H225197   5.539   4.618   0.719  0.2808  0.7378 -0.7596
 1188TIP3   OH225198   4.653   1.598   1.091 -0.0026  0.0957  0.0836
 1188TIP3    H125199   4.561   1.607   1.114  0.0346  1.2577 -0.1579
 1188TIP3    H225200   4.653   1.597   0.995  0.2189 -0.1786  0.0844
 1189TIP3   OH225201   6.338   0.597   0.406 -0.0874 -0.0020  0.1109
 1189TIP3    H125202   6.387   0.556   0.335  1.4152 -1.8122  2.0634
 1189TIP3    H225203   6.268   0.535   0.426 -0.4447  0.4499  0.2718
 1190TIP3   OH225204   1.725   6.594   1.728  0.0434  0.3230  0.4832
 1190TIP3    H125205   1.812   6.555   1.738 -0.7846 -1.9440 -0.3900
 1190TIP3    H225206   1.737   6.686   1.750  2.4178 -0.1502  1.4980
 1191TIP3   OH225207   1.833   2.584   7.310  0.1026  0.0543  0.8046
 1191TIP3    H125208   1.917   2.601   7.354  0.1319 -0.4678  0.9621
 1191TIP3    H225209   1.796   2.510   7.358  0.6511 -1.2748 -0.7479
 1192TIP3   OH225210   3.135   0.763   0.398 -0.0182 -0.1292  0.1718
 1192TIP3    H125211   3.149   0.730   0.309  0.1889 -1.7800  0.7761
 1192TIP3    H225212   3.208   0.823   0.414  0.4206 -0.4796 -0.4795
 1193TIP3   OH225213   2.907   2.465   0.825  0.1537  0.1421  0.5756
 1193TIP3    H125214   2.902   2.374   0.854 -1.6400  1.1341  4.0157
 1193TIP3    H225215   2.935   2.513   0.903 -1.1154  2.7376 -0.4512
 1194TIP3   OH225216   0.847   3.457   0.860  0.0315 -0.3725 -0.1985
 1194TIP3    H125217   0.755   3.432   0.873 -0.2723  0.6499 -0.3236
 1194TIP3    H225218   0.844   3.550   0.837  0.8212 -1.0153 -3.5135
 1195TIP3   OH225219   5.593   3.590   7.460 -0.2088  0.5376  0.1142
 1195TIP3    H125220   5.644   3.596   7.541 -0.2317  1.1153  0.0912
 1195TIP3    H225221   5.602   3.677   7.420 -0.6942  0.4464 -0.1989
 1196TIP3   OH225222   2.410   0.160   0.078  0.0827  0.3831 -0.3305
 1196TIP3    H125223   2.501   0.186   0.065  0.6046 -2.6669 -5.2657
 1196TIP3    H225224   2.360   0.239   0.060  1.6773  1.5272 -0.0239
 1197TIP3   OH225225   3.182   3.231   2.021 -0.0952  0.3372  0.5967
 1197TIP3    H125226   3.198   3.309   1.967 -2.4656  0.8708  0.5684
 1197TIP3    H225227   3.108   3.256   2.076 -1.9202 -2.3986 -0.4574
 1198TIP3   OH225228   2.045   3.701   0.761  0.1053  0.0947 -0.0265
 1198TIP3    H125229   2.079   3.757   0.691  1.4345 -1.0365 -0.3356
 1198TIP3    H225230   2.042   3.757   0.838  3.8889  0.0367  0.3241
 1199TIP3   OH225231   4.945   3.565   8.447 -0.6826 -0.5350  0.3174
 1199TIP3    H125232   4.990   3.485   8.418 -1.4512 -0.5701 -0.8686
 1199TIP3    H225233   4.853   3.549   8.425 -1.2634 -0.3630  2.4559
 1200TIP3   OH225234   0.242   1.995   0.539 -0.2542 -0.0295 -0.0763
 1200TIP3    H125235   0.254   2.000   0.633  0.1865  1.2988 -0.1793
 1200TIP3    H225236   0.239   1.901   0.519 -0.7865 -0.3181  1.2924
 1201TIP3   OH225237   6.224   6.324   1.051 -0.0225 -0.9890  0.1026
 1201TIP3    H125238   6.175   6.326   0.969 -0.0741 -0.3068  0.1460
 1201TIP3    H225239   6.181   6.256   1.103 -0.5006 -0.8543 -0.1149
 1202TIP3   OH225240   0.339   6.426   8.271  0.2817 -0.6478 -0.2736
 1202TIP3    H125241   0.356   6.519   8.256  0.3982 -0.5958  0.1555
 1202TIP3    H225242   0.337   6.387   8.184  0.0042 -0.2031 -0.4672
 1203TIP3   OH225243   6.220   5.637   8.513 -0.0485 -0.3789 -0.1147
 1203TIP3    H125244   6.143   5.685   8.546 -0.0317  0.1416 -0.8074
 1203TIP3    H225245   6.188   5.592   8.434  0.4883  0.3013 -0.7342
 1204TIP3   OH225246   4.068   2.009   6.164 -0.2946 -0.0824  0.3032
 1204TIP3    H125247   4.082   1.925   6.119  0.0234 -0.5790  1.2848
 1204TIP3    H225248   4.030   2.066   6.098 -0.9922 -1.1603 -0.2578
 1205TIP3   OH225249   4.362   1.355   2.404 -0.0673  0.4794  0.1994
 1205TIP3    H125250   4.453   1.375   2.383 -0.3547  1.4064 -0.2177
 1205TIP3    H225251   4.329   1.435   2.444 -1.0565  0.6106 -0.8302
 1206TIP3   OH225252   5.769   1.349   8.756  0.5591  0.3195  0.3788
 1206TIP3    H125253   5.691   1.330   8.705  0.5726  0.5974  0.2540
 1206TIP3    H225254   5.746   1.325   8.846  0.7073 -0.6651  0.1689
 1207TIP3   OH225255   5.155   2.970   7.572  0.2550  0.1081  0.0415
 1207TIP3    H125256   5.127   3.057   7.602  0.3624 -0.0572  0.6215
 1207TIP3    H225257   5.075   2.932   7.535  0.0595  0.2170  0.3439
 1208TIP3   OH225258   3.601   5.104   7.915  0.7827 -0.6045 -0.0252
 1208TIP3    H125259   3.681   5.097   7.967  1.1047  0.3070 -0.3883
 1208TIP3    H225260   3.533   5.065   7.970  0.9822  0.9692  1.4085
 1209TIP3   OH225261   6.446   0.857   1.041  0.4252  0.4351  0.1322
 1209TIP3    H125262   6.438   0.941   0.995 -1.6786 -1.0291 -2.4575
 1209TIP3    H225263   6.363   0.848   1.088  1.5177  0.7082  2.2216
 1210TIP3   OH225264   6.720   4.220   8.607 -0.1907 -0.5953 -0.4074
 1210TIP3    H125265   6.748   4.139   8.563  1.3706  0.5145 -1.5935
 1210TIP3    H225266   6.791   4.282   8.590 -1.3678  1.0580  0.4197
 1211TIP3   OH225267   4.014   3.913   1.126 -0.0254  0.0354  0.3439
 1211TIP3    H125268   3.986   3.875   1.210  2.9031 -1.7419  0.6416
 1211TIP3    H225269   4.035   4.004   1.148  3.1407 -1.0108  2.3172
 1212TIP3   OH225270   6.602   2.027   0.855 -0.9600  0.2771 -0.0909
 1212TIP3    H125271   6.613   2.079   0.935 -1.0764 -0.6843  0.5698
 1212TIP3    H225272   6.507   2.021   0.844 -0.9473  0.1819 -0.1459
 1213TIP3   OH225273   2.538   1.855   0.423  0.2603  0.0502  0.3634
 1213TIP3    H125274   2.626   1.820   0.410 -0.3467 -1.9766  1.2639
 1213TIP3    H225275   2.534   1.876   0.516 -0.6791 -1.4091  0.6835
 1214TIP3   OH225276   3.321   3.306   7.365 -0.4802  0.3967  0.4525
 1214TIP3    H125277   3.353   3.266   7.284 -0.8536 -1.3011  1.0975
 1214TIP3    H225278   3.394   3.296   7.427 -0.9593 -0.2867  0.9224
 1215TIP3   OH225279   3.793   6.598   7.042  0.0544 -0.2703  0.1073
 1215TIP3    H125280   3.716   6.654   7.035 -0.1989 -0.5895  0.2612
 1215TIP3    H225281   3.797   6.552   6.958  0.4391  0.1955 -0.1347
 1216TIP3   OH225282   1.725   5.223   0.818  0.4710  0.1853 -0.0298
 1216TIP3    H125283   1.778   5.301   0.828  0.0103  0.4244  0.6386
 1216TIP3    H225284   1.654   5.234   0.881  2.0176 -2.1512  2.3001
 1217TIP3   OH225285   4.301   2.449   7.121 -0.5649 -0.2573  0.8968
 1217TIP3    H125286   4.340   2.401   7.048 -0.2784 -0.5844  1.2550
 1217TIP3    H225287   4.227   2.394   7.149 -1.3808  0.4297  0.1320
 1218TIP3   OH225288   2.589   3.017   7.183  0.4437 -0.2563 -0.4388
 1218TIP3    H125289   2.514   3.074   7.173 -0.5540 -1.3960  0.2514
 1218TIP3    H225290   2.636   3.051   7.259  0.0297 -0.1618 -0.2247
 1219TIP3   OH225291   4.554   1.701   7.307 -0.3251 -0.3032 -0.7497
 1219TIP3    H125292   4.624   1.637   7.288 -0.3586  0.2551 -3.0904
 1219TIP3    H225293   4.598   1.786   7.303 -0.8749 -0.0211 -0.9057
 1220TIP3   OH225294   1.872   6.776   1.007  0.3294 -0.6164  0.6138
 1220TIP3    H125295   1.802   6.793   1.070  0.0581 -2.0116  0.7229
 1220TIP3    H225296   1.921   6.858   1.003 -0.4277 -0.0865  1.6478
 1221TIP3   OH225297   5.685   2.104   1.681  0.3747 -0.3607  0.2940
 1221TIP3    H125298   5.683   2.103   1.777  0.2547 -1.8770  0.3068
 1221TIP3    H225299   5.599   2.073   1.655  0.2936  0.3735 -0.3157
 1222TIP3   OH225300   0.607   2.546   0.276 -0.2159 -0.1337 -0.2150
 1222TIP3    H125301   0.594   2.453   0.258  0.0469  0.1249 -1.8682
 1222TIP3    H225302   0.520   2.585   0.267 -0.1632 -0.0724 -0.4529
 1223TIP3   OH225303   4.740   3.138   7.666 -0.0252 -0.7114 -0.3477
 1223TIP3    H125304   4.766   3.071   7.729 -2.8759 -1.6663 -0.0285
 1223TIP3    H225305   4.663   3.180   7.705 -0.0571  0.7628 -1.8561
 1224TIP3   OH225306   2.902   0.214   8.218  0.0831 -0.2811 -0.4811
 1224TIP3    H125307   2.823   0.170   8.249  1.3799 -2.7811 -0.5163
 1224TIP3    H225308   2.975   0.162   8.253  1.7280  1.3967 -1.2149
 1225TIP3   OH225309   4.066   4.606   1.430 -0.4868  0.0153  0.2988
 1225TIP3    H125310   4.133   4.550   1.467 -0.8470 -0.1379  0.7202
 1225TIP3    H225311   4.090   4.614   1.337  0.2545  0.1779  0.5031
 1226TIP3   OH225312   2.377   2.509   0.533 -0.0104  0.2237  0.1447
 1226TIP3    H125313   2.437   2.569   0.577 -0.4539  0.5918  0.2540
 1226TIP3    H225314   2.408   2.507   0.442  0.4981 -0.0169  0.3204
 1227TIP3   OH225315   2.460   4.201   0.466  0.4527  0.6860  0.5941
 1227TIP3    H125316   2.384   4.245   0.427 -1.1233 -0.9956  1.6232
 1227TIP3    H225317   2.477   4.127   0.407  0.5429  0.3779  1.0079
 1228TIP3   OH225318   3.125   2.205   6.995 -0.2051 -0.1254 -0.0722
 1228TIP3    H125319   3.107   2.277   7.055  2.8092  1.3323 -0.7302
 1228TIP3    H225320   3.122   2.244   6.908  2.2780 -0.4889 -0.4000
 1229TIP3   OH225321   5.137   1.541   1.893  0.4727  1.1028  0.3868
 1229TIP3    H125322   5.173   1.464   1.936 -1.3137 -0.7759 -1.2101
 1229TIP3    H225323   5.080   1.581   1.959 -1.3541 -1.0652  0.2426
 1230TIP3   OH225324   2.940   0.707   7.196  0.1504 -0.4290  0.1310
 1230TIP3    H125325   3.000   0.636   7.172  0.6527  0.4369 -1.3546
 1230TIP3    H225326   2.877   0.667   7.256 -0.2710 -2.4369 -1.5402
 1231TIP3   OH225327   0.327   6.218   1.988  0.3063 -0.0213  0.2313
 1231TIP3    H125328   0.402   6.272   2.011 -0.2170  0.5693  0.5825
 1231TIP3    H225329   0.254   6.280   1.980 -0.0751 -0.5399 -0.4418
 1232TIP3   OH225330   5.075   4.433   8.151  0.1485 -0.4543  0.3811
 1232TIP3    H125331   5.082   4.341   8.125 -1.0354 -0.8065  1.1809
 1232TIP3    H225332   4.988   4.439   8.192  1.3468  0.3038  3.0685
 1233TIP3   OH225333   5.986   5.023   8.491 -0.3219  0.3542 -0.1867
 1233TIP3    H125334   5.909   4.993   8.539 -0.2842  1.2584  0.4431
 1233TIP3    H225335   5.966   5.002   8.399 -0.1597 -1.8767  0.2300
 1234TIP3   OH225336   0.418   3.242   0.839 -0.5908 -0.9974  0.1275
 1234TIP3    H125337   0.454   3.237   0.750 -1.4591  1.3857 -0.4522
 1234TIP3    H225338   0.334   3.287   0.828  0.0522  0.9111  2.3016
 1235TIP3   OH225339   5.606   0.163   6.926  0.7564 -0.0795 -0.2084
 1235TIP3    H125340   5.662   0.088   6.946 -0.0905 -0.6475  0.0922
 1235TIP3    H225341   5.541   0.128   6.865  0.9930  0.6824 -0.9074
 1236TIP3   OH225342   6.791   3.448   7.175  0.0786 -0.0103 -0.2915
 1236TIP3    H125343   6.720   3.511   7.168 -0.1079 -0.2419 -0.4789
 1236TIP3    H225344   6.754   3.374   7.222  0.3019  0.0235 -0.0575
 1237TIP3   OH225345   5.417   4.409   6.535 -0.4608  0.3336  0.4201
 1237TIP3    H125346   5.361   4.418   6.611 -1.4856 -2.4042  0.0958
 1237TIP3    H225347   5.364   4.441   6.461 -0.6869 -0.0157  0.4315
 1238TIP3   OH225348   1.810   0.999   2.088  0.5251 -0.3837  0.1758
 1238TIP3    H125349   1.893   0.959   2.112  1.3132  1.6529  0.9537
 1238TIP3    H225350   1.760   1.002   2.169  0.0413 -0.7428 -0.1019
 1239TIP3   OH225351   5.922   2.108   8.362 -0.0225  0.2711 -0.2121
 1239TIP3    H125352   5.936   2.051   8.438  2.4595 -0.7413 -1.3066
 1239TIP3    H225353   5.867   2.057   8.303  0.7789 -0.3442 -0.4544
 1240TIP3   OH225354   1.183   1.810   0.127  0.0771  0.0184  0.0068
 1240TIP3    H125355   1.136   1.759   0.194 -0.5312 -0.3351 -0.6767
 1240TIP3    H225356   1.141   1.896   0.130  0.0470  0.0019  0.0689
 1241TIP3   OH225357   0.510   3.423   7.172 -0.0793  0.6547 -0.5191
 1241TIP3    H125358   0.566   3.416   7.095 -0.2981 -1.5809 -0.5474
 1241TIP3    H225359   0.422   3.432   7.136 -0.0180  1.3617 -0.5008
 1242TIP3   OH225360   5.193   0.915   8.439 -0.7853  0.5395 -0.0356
 1242TIP3    H125361   5.175   0.826   8.407  1.9031  0.3184 -1.1752
 1242TIP3    H225362   5.165   0.913   8.530  3.6185 -3.1622  1.6095
 1243TIP3   OH225363   0.701   4.088   7.970  0.6045 -0.4332  0.7838
 1243TIP3    H125364   0.608   4.067   7.968  0.3472  0.6738  0.1964
 1243TIP3    H225365   0.728   4.068   8.060  0.5027 -3.4515  0.2485
 1244TIP3   OH225366   0.505   3.997   0.723  0.1969  0.0373 -0.0238
 1244TIP3    H125367   0.458   4.078   0.704 -1.8735 -1.0154  0.3584
 1244TIP3    H225368   0.456   3.929   0.678  1.7013 -1.0678 -0.0618
 1245TIP3   OH225369   4.611   2.379   7.368  0.0652 -0.5761  0.4932
 1245TIP3    H125370   4.575   2.315   7.429  0.1948 -0.7011  0.4392
 1245TIP3    H225371   4.609   2.462   7.416  0.1937 -0.6794  0.6776
 1246TIP3   OH225372   5.305   0.776   0.643  0.0191 -0.1353  0.0623
 1246TIP3    H125373   5.230   0.717   0.642 -0.3994  0.3727  0.7407
 1246TIP3    H225374   5.373   0.726   0.688 -0.4451  0.0177  0.9575
 1247TIP3   OH225375   4.538   3.902   0.210 -0.6714 -0.3666  0.3291
 1247TIP3    H125376   4.622   3.948   0.204 -0.9864  0.2361  0.4669
 1247TIP3    H225377   4.562   3.812   0.235 -0.0784 -0.1589  0.5352
 1248TIP3   OH225378   0.538   4.481   8.738 -0.1583 -0.0822 -0.0508
 1248TIP3    H125379   0.562   4.485   8.831 -0.0689 -0.8509 -0.0325
 1248TIP3    H225380   0.453   4.437   8.737 -1.8332  2.8747 -0.0902
 1249TIP3   OH225381   6.442   4.078   8.316  0.0339 -0.5355 -0.2899
 1249TIP3    H125382   6.463   4.010   8.381  0.2355  2.0995  2.6327
 1249TIP3    H225383   6.511   4.143   8.326  0.2912 -0.1611 -3.5731
 1250TIP3   OH225384   6.131   0.547   6.883 -0.1377  0.0224 -0.2939
 1250TIP3    H125385   6.097   0.596   6.809 -2.0603 -0.5520  0.1679
 1250TIP3    H225386   6.093   0.460   6.874  0.0035 -0.2066  1.0801
 1251TIP3   OH225387   3.600   0.590   8.470  0.0705  0.3749 -0.0740
 1251TIP3    H125388   3.615   0.681   8.496 -0.2117  0.6362 -0.8082
 1251TIP3    H225389   3.586   0.594   8.376 -1.2851 -0.2605  0.0849
 1252TIP3   OH225390   6.100   4.592   7.678 -0.3984 -0.0143 -0.3673
 1252TIP3    H125391   6.054   4.517   7.641 -0.1665  0.7446 -2.3114
 1252TIP3    H225392   6.159   4.621   7.608  2.2080 -0.2319  1.6042
 1253TIP3   OH225393   5.403   6.805   0.868  0.2917 -0.1327  0.1759
 1253TIP3    H125394   5.323   6.765   0.835 -0.6760 -0.7041  2.9702
 1253TIP3    H225395   5.374   6.883   0.914  1.3600 -0.1776  0.9699
 1254TIP3   OH225396   2.346   4.037   0.032  0.1237  0.4206  0.2205
 1254TIP3    H125397   2.279   4.036   0.100 -1.0139 -3.5513 -0.7414
 1254TIP3    H225398   2.423   4.000   0.074 -0.0435 -0.3794 -0.1707
 1255TIP3   OH225399   5.798   4.054   0.582  1.1332  0.5308  0.2897
 1255TIP3    H125400   5.720   4.019   0.623 -1.8080  0.4126 -4.6496
 1255TIP3    H225401   5.849   3.978   0.556  1.1427  0.4571  0.5273
 1256TIP3   OH225402   1.572   6.506   7.576  0.4112 -0.0830 -0.1728
 1256TIP3    H125403   1.558   6.574   7.643  1.5352  0.5740 -0.5810
 1256TIP3    H225404   1.521   6.535   7.501  0.3921 -0.0218 -0.1363
 1257TIP3   OH225405   1.105   0.829   7.920 -0.6365 -0.0209  0.0981
 1257TIP3    H125406   1.040   0.773   7.962 -1.2006 -0.4140 -1.2738
 1257TIP3    H225407   1.110   0.798   7.830 -0.0366  1.3223 -0.3575
 1258TIP3   OH225408   2.796   3.374   7.534  0.2119  0.2166  0.0222
 1258TIP3    H125409   2.861   3.403   7.471  1.2303  1.1109  1.4353
 1258TIP3    H225410   2.827   3.288   7.562 -0.7430 -0.6091 -1.3275
 1259TIP3   OH225411   1.051   0.567   8.784 -0.1495  0.0471  0.0095
 1259TIP3    H125412   0.982   0.625   8.754  0.1101  1.2010  1.5272
 1259TIP3    H225413   1.011   0.516   8.855  0.1210 -0.3622 -0.1275
 1260TIP3   OH225414   3.430   5.669   7.978 -0.3565 -0.1032 -0.1728
 1260TIP3    H125415   3.346   5.712   7.996  0.2851  0.8735  0.5574
 1260TIP3    H225416   3.496   5.728   8.014  0.6309 -1.0767 -0.3300
 1261TIP3   OH225417   5.772   3.025   1.864  0.3304 -0.5205 -0.0374
 1261TIP3    H125418   5.776   3.042   1.770  0.2369 -0.8585 -0.1034
 1261TIP3    H225419   5.827   2.948   1.877 -0.3396 -0.9956  0.0561
 1262TIP3   OH225420   5.996   5.111   7.331 -0.6465  0.2562 -0.2062
 1262TIP3    H125421   5.978   5.106   7.237 -0.2391 -0.3700 -0.2524
 1262TIP3    H225422   5.911   5.132   7.369 -1.0413 -0.5171 -0.6264
 1263TIP3   OH225423   1.951   4.795   0.005  0.3494 -0.6569 -0.5400
 1263TIP3    H125424   1.942   4.774   0.098 -1.5877 -0.2548 -0.5963
 1263TIP3    H225425   1.899   4.728  -0.040 -0.0114  0.0440 -1.2054
 1264TIP3   OH225426   3.760   2.117   6.280  0.3078  0.4726 -0.0633
 1264TIP3    H125427   3.800   2.121   6.193 -1.7098  0.5655 -1.0313
 1264TIP3    H225428   3.679   2.069   6.268 -0.1732  0.7433  1.7266
 1265TIP3   OH225429   0.322   3.598   6.928 -0.0605  0.2922 -0.2419
 1265TIP3    H125430   0.391   3.583   6.864 -0.6051 -2.2261 -0.3140
 1265TIP3    H225431   0.326   3.522   6.986 -1.2640  1.2506  1.1638
 1266TIP3   OH225432   3.842   4.663   0.585 -0.3142  0.8698 -0.2702
 1266TIP3    H125433   3.908   4.650   0.653 -0.6208  0.5959 -0.0199
 1266TIP3    H225434   3.794   4.741   0.614 -1.6870 -0.3292  0.8648
 1267TIP3   OH225435   1.258   4.303   8.583 -0.4359  0.6845  0.2993
 1267TIP3    H125436   1.293   4.235   8.640  1.8097  1.8594  0.4790
 1267TIP3    H225437   1.214   4.364   8.642 -0.6886  0.4136  0.3909
 1268TIP3   OH225438   6.374   1.578   1.310  0.1409  0.0961  0.1387
 1268TIP3    H125439   6.328   1.660   1.327  3.0655  1.7016  0.9575
 1268TIP3    H225440   6.307   1.510   1.321 -2.1114  2.2458  0.6330
 1269TIP3   OH225441   5.437   2.331   1.384 -0.5385 -0.6738 -0.8931
 1269TIP3    H125442   5.461   2.423   1.370  1.1569 -1.1704 -1.4916
 1269TIP3    H225443   5.384   2.309   1.307 -1.1561 -0.1341 -0.6264
 1270TIP3   OH225444   0.372   5.024   0.770  0.0822  0.0322  0.1149
 1270TIP3    H125445   0.278   5.016   0.753 -0.2718  0.6697  1.5588
 1270TIP3    H225446   0.377   5.080   0.848  1.6162 -0.6641  0.5544
 1271TIP3   OH225447   0.773   4.109   8.255 -0.1587 -0.1970  0.0583
 1271TIP3    H125448   0.859   4.131   8.219 -0.5892  0.6440 -0.4880
 1271TIP3    H225449   0.787   4.103   8.349  0.2795  1.0969  0.1023
 1272TIP3   OH225450   1.454   3.273   0.687 -0.3688 -0.5408  0.1068
 1272TIP3    H125451   1.524   3.336   0.666 -0.4214 -0.4816  0.1100
 1272TIP3    H225452   1.468   3.201   0.626 -0.1472 -0.6446  0.2792
 1273TIP3   OH225453   6.299   0.351   7.251  0.3106  0.1716 -0.4324
 1273TIP3    H125454   6.305   0.382   7.341  0.7310 -0.9408 -0.0639
 1273TIP3    H225455   6.315   0.429   7.198 -2.2791  1.3787  0.3853
 1274TIP3   OH225456   1.702   2.221   8.708  0.2980 -0.0468  0.4923
 1274TIP3    H125457   1.788   2.206   8.746 -0.2004  1.9197  2.6641
 1274TIP3    H225458   1.645   2.157   8.751  0.8248 -2.5059 -2.1684
 1275TIP3   OH225459   2.227   0.577   7.310 -0.2883 -0.8022  0.3277
 1275TIP3    H125460   2.209   0.487   7.285 -1.2822 -0.2622 -1.0377
 1275TIP3    H225461   2.236   0.624   7.227 -2.5697  0.8614  0.9053
 1276TIP3   OH225462   2.012   4.715   7.558  0.2977  0.0460 -0.2039
 1276TIP3    H125463   1.973   4.786   7.507 -0.2392  0.2317  0.4505
 1276TIP3    H225464   2.013   4.748   7.648  1.4139 -0.1986 -0.1037
 1277TIP3   OH225465   4.387   3.594   7.634  0.2986  0.0998 -0.8247
 1277TIP3    H125466   4.441   3.522   7.667  0.8401  0.6919 -0.3766
 1277TIP3    H225467   4.369   3.571   7.543  2.1143  0.3159 -1.2852
 1278TIP3   OH225468   0.507   4.098   8.308 -0.4713  0.4498 -0.5925
 1278TIP3    H125469   0.576   4.059   8.362 -0.4432  1.9124  0.5114
 1278TIP3    H225470   0.553   4.148   8.241 -0.4936 -0.0697 -1.0032
 1279TIP3   OH225471   5.819   4.007   1.455  0.1497 -0.4386  0.2855
 1279TIP3    H125472   5.736   4.010   1.408 -0.9744 -0.8842  2.1190
 1279TIP3    H225473   5.883   3.976   1.391 -1.0941 -0.0868 -1.1624
 1280TIP3   OH225474   2.289   0.428   7.541 -0.0809 -0.2080 -0.4333
 1280TIP3    H125475   2.209   0.375   7.552 -2.0204  2.4746 -0.5757
 1280TIP3    H225476   2.278   0.472   7.457  0.1364  2.3271  0.7545
 1281TIP3   OH225477   6.185   3.143   6.397  0.5311 -0.0412  0.3324
 1281TIP3    H125478   6.134   3.217   6.430 -0.2013  1.1847 -3.1348
 1281TIP3    H225479   6.268   3.147   6.445  0.0988  2.3770  0.9855
 1282TIP3   OH225480   6.554   0.776   0.156 -0.0271  0.6857 -0.0027
 1282TIP3    H125481   6.590   0.689   0.174  1.1974  1.2046  0.1235
 1282TIP3    H225482   6.459   0.764   0.162  0.0344 -1.0291 -1.7460
 1283TIP3   OH225483   4.161   1.219   1.274  0.1848 -0.1331  0.4958
 1283TIP3    H125484   4.253   1.224   1.246  0.5049  0.7188  1.5830
 1283TIP3    H225485   4.119   1.160   1.212  0.9839  1.1171 -1.2944
 1284TIP3   OH225486   2.627   3.139   7.452 -0.2901 -0.2852  0.4722
 1284TIP3    H125487   2.679   3.216   7.476  0.5470  0.1449 -2.3371
 1284TIP3    H225488   2.670   3.066   7.497 -0.0583  0.6390  1.8113
 1285TIP3   OH225489   2.163   6.409   7.949  0.5576  0.2126  0.4265
 1285TIP3    H125490   2.119   6.488   7.918 -0.8287 -0.5375  0.4025
 1285TIP3    H225491   2.184   6.360   7.870  1.6432  0.6382  0.4248
 1286TIP3   OH225492   6.710   6.328   0.944  0.2449  0.0989  0.5437
 1286TIP3    H125493   6.656   6.329   1.024  0.2410  0.5349  0.5365
 1286TIP3    H225494   6.796   6.299   0.974  0.1021 -0.2553  0.6161
 1287TIP3   OH225495   4.297   1.037   5.994 -0.1178  0.4861  0.2567
 1287TIP3    H125496   4.235   0.966   5.978  0.2531  0.4563 -1.1586
 1287TIP3    H225497   4.372   0.994   6.034 -0.2965  0.2457  0.3360
 1288TIP3   OH225498   5.867   1.161   1.974  0.0428  0.2197  0.5907
 1288TIP3    H125499   5.916   1.238   2.002 -1.4040  1.2482  0.3683
 1288TIP3    H225500   5.884   1.096   2.042  0.9817  0.8444  0.9710
 1289TIP3   OH225501   0.350   6.821   8.495  0.0756  0.0090 -0.1051
 1289TIP3    H125502   0.393   6.834   8.580 -0.0766  2.3910 -0.3382
 1289TIP3    H225503   0.266   6.780   8.517  1.3006 -2.3484  0.5661
 1290TIP3   OH225504   2.189   2.556   7.850  0.3753  0.1846  0.2871
 1290TIP3    H125505   2.158   2.466   7.861  0.8722  0.1576  1.7631
 1290TIP3    H225506   2.109   2.607   7.836  0.0874 -0.4631 -0.5006
 1291TIP3   OH225507   0.590   0.873   0.213  0.2283  0.3948  0.3566
 1291TIP3    H125508   0.497   0.858   0.231  0.6511  0.7225  3.4791
 1291TIP3    H225509   0.593   0.948   0.154 -1.5067  1.4352  1.5185
 1292TIP3   OH225510   3.592   1.664   2.117 -0.7251 -0.4069  0.1618
 1292TIP3    H125511   3.606   1.585   2.170 -0.7079 -0.5728 -0.0884
 1292TIP3    H225512   3.507   1.650   2.077 -0.7074 -0.3112  0.0925
 1293TIP3   OH225513   0.777   4.942   8.253  0.2040  0.0551  0.0876
 1293TIP3    H125514   0.827   4.861   8.262 -0.0406  0.0756  1.8428
 1293TIP3    H225515   0.686   4.916   8.267 -0.1435  0.3087 -1.4416
 1294TIP3   OH225516   5.413   6.677   7.685 -0.4647 -0.8240  0.0391
 1294TIP3    H125517   5.356   6.672   7.608  1.2636 -0.3307 -1.3593
 1294TIP3    H225518   5.365   6.731   7.748 -1.8700 -1.1264 -0.7356
 1295TIP3   OH225519   2.967   4.470   8.026  0.1705  0.2060 -0.0947
 1295TIP3    H125520   2.883   4.511   8.048 -0.0410 -0.1822 -0.1588
 1295TIP3    H225521   2.964   4.458   7.931  0.4854  0.5966 -0.1507
 1296TIP3   OH225522   5.736   4.232   0.827 -0.6716 -0.2854 -0.2487
 1296TIP3    H125523   5.800   4.173   0.867 -1.4979  0.3661  2.2123
 1296TIP3    H225524   5.654   4.182   0.827 -0.9451  0.1650 -0.0065
 1297TIP3   OH225525   1.231   3.157   1.637  0.2367 -0.6396 -0.3998
 1297TIP3    H125526   1.189   3.236   1.672  0.9356 -1.4405  2.5427
 1297TIP3    H225527   1.267   3.184   1.552 -0.5463  1.8557 -0.0138
 1298TIP3   OH225528   2.241   6.087   7.488  0.2173 -0.5577  0.3484
 1298TIP3    H125529   2.210   5.998   7.472 -1.1507  0.4758 -4.3009
 1298TIP3    H225530   2.163   6.136   7.515  0.7309 -0.4648  1.7633
 1299TIP3   OH225531   6.468   4.435   7.882 -0.2072  0.4521 -0.1527
 1299TIP3    H125532   6.414   4.510   7.856 -2.0599 -0.9546 -0.6174
 1299TIP3    H225533   6.420   4.395   7.955 -0.5513 -1.5916 -1.4129
 1300TIP3   OH225534   3.171   3.112   0.960 -0.5697  0.2226 -0.0899
 1300TIP3    H125535   3.215   3.192   0.932 -0.0237 -0.2341 -0.5640
 1300TIP3    H225536   3.208   3.044   0.904  0.4938 -0.7098  1.6788
 1301TIP3   OH225537   2.503   6.218   7.494 -0.0644 -0.2958 -0.4908
 1301TIP3    H125538   2.426   6.163   7.475  0.9135 -1.3569 -1.5870
 1301TIP3    H225539   2.507   6.279   7.421 -0.8728  0.9817  0.4876
 1302TIP3   OH225540   4.748   4.708   7.416 -0.0305 -0.6842  0.0007
 1302TIP3    H125541   4.809   4.711   7.490 -1.0881 -3.2786  1.0779
 1302TIP3    H225542   4.781   4.637   7.361 -0.4088 -0.1110 -0.9946
 1303TIP3   OH225543   0.264   0.152   7.251  0.6995  0.6122 -0.0654
 1303TIP3    H125544   0.314   0.225   7.289 -0.1069  0.8717  0.5239
 1303TIP3    H225545   0.326   0.109   7.192  1.7250  0.7385  0.8763
 1304TIP3   OH225546   5.421   3.156   1.084  0.2363  0.1911 -0.4569
 1304TIP3    H125547   5.515   3.176   1.085  0.0006  1.6271  2.4450
 1304TIP3    H225548   5.382   3.234   1.044  0.2195 -0.3445 -1.5272
 1305TIP3   OH225549   6.749   3.258   2.217  0.1724  0.2249  0.5420
 1305TIP3    H125550   6.746   3.207   2.136  3.1911  0.4967  0.1461
 1305TIP3    H225551   6.657   3.279   2.235 -0.6771 -0.4271 -2.4039
 1306TIP3   OH225552   0.572   0.579   8.313 -0.5718 -0.5070  0.1036
 1306TIP3    H125553   0.485   0.589   8.273 -0.2337 -0.4324 -0.6208
 1306TIP3    H225554   0.564   0.499   8.366 -1.5529  0.3523  1.3382
 1307TIP3   OH225555   5.398   0.836   8.099  0.4920  0.3454 -0.0305
 1307TIP3    H125556   5.357   0.775   8.160  0.1633  1.5116  0.9636
 1307TIP3    H225557   5.451   0.893   8.154  0.8389  0.9234 -0.9338
 1308TIP3   OH225558   1.999   4.383   8.419  0.1425  0.5710  1.0288
 1308TIP3    H125559   2.066   4.320   8.442 -1.8809 -1.9677  0.4572
 1308TIP3    H225560   2.022   4.412   8.330 -0.6259 -2.0737 -0.1374
 1309TIP3   OH225561   0.045   0.071   0.590 -0.2330 -0.0975  0.1965
 1309TIP3    H125562  -0.015   0.146   0.597 -0.5541  0.2019 -3.6728
 1309TIP3    H225563   0.132   0.109   0.601 -0.4276  0.7990 -1.1296
 1310TIP3   OH225564   3.590   4.220   0.510 -0.1283 -0.1400 -0.3326
 1310TIP3    H125565   3.565   4.128   0.511  1.2564 -0.5330  0.5383
 1310TIP3    H225566   3.652   4.229   0.583  2.3219  0.7163 -2.3859
 1311TIP3   OH225567   3.665   4.984   1.230 -0.0253 -0.4575  0.3645
 1311TIP3    H125568   3.586   4.936   1.204 -0.1624  0.3310 -0.7563
 1311TIP3    H225569   3.727   4.915   1.256 -0.4421 -1.2136 -0.5787
 1312TIP3   OH225570   4.691   3.736   6.853 -0.2805  0.1391 -0.1034
 1312TIP3    H125571   4.625   3.742   6.784  0.8544 -1.1869 -1.3840
 1312TIP3    H225572   4.758   3.679   6.816  0.3343 -0.6923  2.1563
 1313TIP3   OH225573   2.599   4.876   1.773 -0.2308 -0.3154 -0.0079
 1313TIP3    H125574   2.549   4.958   1.772 -0.2390 -0.2685  1.3633
 1313TIP3    H225575   2.675   4.893   1.717 -0.0476  0.7770  0.5323
 1314TIP3   OH225576   0.256   5.094   7.542  0.2699 -0.2150 -0.4387
 1314TIP3    H125577   0.224   5.098   7.452 -1.7830  0.1713  0.2579
 1314TIP3    H225578   0.193   5.039   7.587  2.1050 -1.6764  0.4860
 1315TIP3   OH225579   1.469   4.273   8.212  0.1675  0.4124  0.1570
 1315TIP3    H125580   1.483   4.233   8.297  1.0195  0.2486 -0.0495
 1315TIP3    H225581   1.479   4.202   8.149 -0.2089  0.5792 -0.0978
 1316TIP3   OH225582   6.499   1.122   8.546 -0.0272  0.1195  0.0447
 1316TIP3    H125583   6.437   1.055   8.517  0.8885 -0.8681  0.3110
 1316TIP3    H225584   6.529   1.092   8.631  0.3736  0.9029  0.1910
 1317TIP3   OH225585   2.271   1.526   0.380  0.0836 -0.3918 -1.0140
 1317TIP3    H125586   2.350   1.517   0.434  0.9837  0.9265 -2.0260
 1317TIP3    H225587   2.237   1.437   0.372  1.0933 -0.8973 -0.0014
 1318TIP3   OH225588   4.455   5.568   7.164  0.4521  0.2184  0.2309
 1318TIP3    H125589   4.456   5.491   7.221  0.9453  1.4572  2.0002
 1318TIP3    H225590   4.459   5.533   7.075 -0.0524 -1.7960  0.9619
 1319TIP3   OH225591   3.542   6.725   0.854  0.5311  0.1197 -0.3635
 1319TIP3    H125592   3.626   6.756   0.820  0.3623 -0.3128 -1.1911
 1319TIP3    H225593   3.530   6.773   0.936  0.5864  1.7547 -1.2774
 1320TIP3   OH225594   0.890   4.019   6.887  0.1687 -0.0511  0.5090
 1320TIP3    H125595   0.934   3.935   6.880  1.0238  0.4876 -1.5885
 1320TIP3    H225596   0.959   4.080   6.914  0.4667  0.5385 -1.3812
 1321TIP3   OH225597   3.713   0.787   6.093 -0.1595  0.0512 -0.5280
 1321TIP3    H125598   3.703   0.726   6.020 -0.2939  0.9166 -1.2573
 1321TIP3    H225599   3.626   0.792   6.132 -0.8362  1.7242 -2.0921
 1322TIP3   OH225600   2.799   5.090   2.967 -0.0144  0.5904 -0.4713
 1322TIP3    H125601   2.887   5.124   2.987 -0.2528  0.2226  1.2646
 1322TIP3    H225602   2.808   4.996   2.976  0.1411  0.2419 -3.3432
 1323TIP3   OH225603   3.530   5.150   1.576  0.1730  0.3000  0.2290
 1323TIP3    H125604   3.516   5.157   1.482  0.8553  0.2063  0.1187
 1323TIP3    H225605   3.466   5.085   1.605  0.6891 -0.4712 -0.3442
 1324TIP3   OH225606   5.914   3.847   1.638 -0.8390 -0.2894  0.0536
 1324TIP3    H125607   5.871   3.905   1.575 -0.8285 -0.7219 -0.3625
 1324TIP3    H225608   6.007   3.864   1.628 -0.8289 -0.4665 -0.1593
 1325TIP3   OH225609   2.113   1.405   8.012  0.0842  0.1488 -0.6254
 1325TIP3    H125610   2.102   1.331   8.072  1.5688 -0.9794 -1.6916
 1325TIP3    H225611   2.191   1.450   8.044  1.0485 -0.6211 -1.8245
 1326TIP3   OH225612   1.265   5.739   8.103  0.2449  0.5608  0.5494
 1326TIP3    H125613   1.306   5.660   8.069  3.3225  2.4662 -0.6160
 1326TIP3    H225614   1.306   5.753   8.188 -1.6956 -0.0137  1.6478
 1327TIP3   OH225615   6.812   6.016   8.047 -0.3286 -0.2240  0.5871
 1327TIP3    H125616   6.896   6.006   8.092  0.0665  0.3620 -0.0022
 1327TIP3    H225617   6.818   6.102   8.005 -0.9922 -0.4333  0.0558
 1328TIP3   OH225618   0.144   1.106   0.960 -0.3798  0.2567  0.5852
 1328TIP3    H125619   0.181   1.123   0.873  0.1037 -1.0131  0.5198
 1328TIP3    H225620   0.153   1.189   1.006  0.2424  0.6858 -0.2630
 1329TIP3   OH225621   0.407   6.452   0.788 -0.4948 -0.3390  0.5768
 1329TIP3    H125622   0.342   6.493   0.845  1.1637 -1.4135  3.5272
 1329TIP3    H225623   0.482   6.512   0.791 -0.0710 -0.8445  0.2567
 1330TIP3   OH225624   6.423   2.249   8.393  0.6733  0.9356 -0.5068
 1330TIP3    H125625   6.338   2.215   8.363  1.2328  0.1270 -1.2229
 1330TIP3    H225626   6.479   2.244   8.316  2.4064 -1.9913  0.7924
 1331TIP3   OH225627   5.778   3.554   8.168 -0.0294 -0.4639 -0.0461
 1331TIP3    H125628   5.690   3.531   8.197 -0.2964 -0.9358 -1.1828
 1331TIP3    H225629   5.790   3.505   8.086  1.0407  0.0992 -0.2445
 1332TIP3   OH225630   3.961   0.319   6.107  0.1369 -0.2013  0.2922
 1332TIP3    H125631   3.876   0.311   6.151  0.4059  1.8481  1.2944
 1332TIP3    H225632   3.940   0.356   6.021  0.0823  1.7833  1.1130
 1333TIP3   OH225633   1.368   3.599   8.037  0.3771  0.1034 -0.0365
 1333TIP3    H125634   1.275   3.585   8.053 -0.4403  5.1277  1.2783
 1333TIP3    H225635   1.375   3.612   7.942 -0.7776  1.7827  0.0592
 1334TIP3   OH225636   3.817   4.274   0.709  0.0214  0.6174 -0.1944
 1334TIP3    H125637   3.880   4.246   0.643  0.0123  2.9017 -1.2749
 1334TIP3    H225638   3.780   4.193   0.743  1.7524 -0.6958 -1.2874
 1335TIP3   OH225639   5.203   3.582   8.338 -0.5449 -0.0341 -0.0090
 1335TIP3    H125640   5.231   3.494   8.364 -2.7249 -0.6937  0.2872
 1335TIP3    H225641   5.162   3.619   8.416  0.0203  1.1314 -0.2371
 1336TIP3   OH225642   0.313   0.831   0.225  0.4509 -0.1188 -0.2476
 1336TIP3    H125643   0.263   0.758   0.262 -1.2213  0.8006 -0.5835
 1336TIP3    H225644   0.277   0.842   0.137  2.2063 -0.2631 -1.0230
 1337TIP3   OH225645   4.416   1.863   7.616  0.3099 -0.0287  0.8325
 1337TIP3    H125646   4.387   1.809   7.543  2.7335  1.4346 -1.3805
 1337TIP3    H225647   4.336   1.905   7.648 -0.8602 -0.9353 -0.7874
 1338TIP3   OH225648   0.312   2.468   0.913 -0.2100 -0.1507 -0.6510
 1338TIP3    H125649   0.295   2.416   0.834  0.6197  0.1790 -1.0600
 1338TIP3    H225650   0.377   2.417   0.962 -0.2635 -0.0582 -0.4829
 1339TIP3   OH225651   0.444   3.912   8.022  0.7423  0.2940 -0.0831
 1339TIP3    H125652   0.417   3.889   8.111  0.3877  2.3307  0.3805
 1339TIP3    H225653   0.467   3.828   7.981 -2.7346 -1.1944  0.6832
 1340TIP3   OH225654   5.988   1.719   7.120 -0.2010 -0.0391 -0.6475
 1340TIP3    H125655   5.979   1.808   7.153 -1.2468 -0.1342 -0.6503
 1340TIP3    H225656   6.064   1.723   7.062  0.7293  0.4787  0.5579
 1341TIP3   OH225657   5.179   3.920   1.591 -0.1885  0.5564 -0.4013
 1341TIP3    H125658   5.138   3.851   1.643 -1.2033  1.4253  0.0138
 1341TIP3    H225659   5.230   3.874   1.525  0.1534 -0.5719  0.6265
 1342TIP3   OH225660   2.100   1.897   8.232  0.4566  0.2445 -0.3689
 1342TIP3    H125661   2.030   1.957   8.258  1.3147  0.4382  1.6510
 1342TIP3    H225662   2.178   1.952   8.227  0.5288  0.0270 -2.5685
 1343TIP3   OH225663   4.537   1.832   8.321 -0.1923  0.1446 -0.4482
 1343TIP3    H125664   4.530   1.872   8.408 -1.7602  1.2113 -1.0221
 1343TIP3    H225665   4.579   1.748   8.337 -0.0231  0.5139  1.2826
 1344TIP3   OH225666   5.302   3.676   7.610 -0.1928 -0.8637  0.5128
 1344TIP3    H125667   5.341   3.706   7.691  0.6506 -0.3726 -0.0651
 1344TIP3    H225668   5.352   3.598   7.586  0.5549 -0.1634 -0.2917
 1345TIP3   OH225669   0.210   5.923   8.131  0.1656 -0.6840  0.5046
 1345TIP3    H125670   0.218   5.858   8.201  1.6705 -1.1299 -0.0412
 1345TIP3    H225671   0.286   5.980   8.142  0.3949 -0.7283 -0.7101
 1346TIP3   OH225672   5.661   2.313   7.902  0.0224 -0.0077  0.6200
 1346TIP3    H125673   5.713   2.323   7.982 -1.2590  2.0646  1.2689
 1346TIP3    H225674   5.606   2.237   7.919  1.9499 -1.5303  0.3777
 1347TIP3   OH225675   3.084   5.141   8.688  0.0698 -0.3511  0.3768
 1347TIP3    H125676   3.084   5.115   8.596 -0.5947 -0.0818  0.2956
 1347TIP3    H225677   3.113   5.232   8.688  0.2677 -0.4133  0.4540
 1348TIP3   OH225678   1.305   3.375   1.404 -0.2188 -0.1756 -0.4586
 1348TIP3    H125679   1.335   3.377   1.313 -2.1741  2.1979 -1.1723
 1348TIP3    H225680   1.212   3.398   1.399 -0.6490 -1.0372  2.0831
 1349TIP3   OH225681   0.650   4.830   7.100 -0.2164 -0.5732  0.1274
 1349TIP3    H125682   0.601   4.840   7.019  0.8315 -1.5626 -0.6769
 1349TIP3    H225683   0.739   4.858   7.078  0.5634 -2.6952  0.3262
 1350TIP3   OH225684   5.523   5.502   8.768  0.0967 -0.5318 -0.4435
 1350TIP3    H125685   5.526   5.407   8.771  2.1952 -0.4902  0.6387
 1350TIP3    H225686   5.604   5.527   8.723 -1.0069  0.7459 -1.8510
 1351TIP3   OH225687   3.302   2.843   1.385 -0.4493 -0.4150  0.5181
 1351TIP3    H125688   3.338   2.904   1.320 -1.6440  0.8953  1.0215
 1351TIP3    H225689   3.296   2.760   1.339  0.2584  0.0883 -0.5356
 1352TIP3   OH225690   5.150   6.276   1.068  0.4990 -0.1868 -0.2448
 1352TIP3    H125691   5.065   6.232   1.078 -1.5159  2.6567 -2.8592
 1352TIP3    H225692   5.147   6.347   1.132  0.2576  0.7044 -1.2174
 1353TIP3   OH225693   2.353   4.528   8.355  0.0004 -0.5257 -0.3246
 1353TIP3    H125694   2.348   4.573   8.270  0.3177  1.3269  0.5777
 1353TIP3    H225695   2.320   4.440   8.338 -2.2396  0.5177 -1.8655
 1354TIP3   OH225696   0.171   3.238   7.374  0.6927 -0.5412 -0.0579
 1354TIP3    H125697   0.089   3.189   7.384 -0.2756  0.7531 -1.0635
 1354TIP3    H225698   0.164   3.308   7.438  0.3188  0.3860 -1.0644
 1355TIP3   OH225699   6.182   0.229   1.121 -0.4452  0.3868  0.3712
 1355TIP3    H125700   6.159   0.309   1.169 -0.2950 -0.8030  2.5583
 1355TIP3    H225701   6.098   0.189   1.098 -0.6398 -0.7015  2.6780
 1356TIP3   OH225702   5.563   1.456   8.075 -0.8904  0.2565 -0.0547
 1356TIP3    H125703   5.604   1.404   8.007 -0.8878 -0.6261  0.6013
 1356TIP3    H225704   5.578   1.547   8.049 -0.8702 -0.0634 -1.2023
 1357TIP3   OH225705   3.839   4.790   7.582 -0.0597  0.0556  0.5521
 1357TIP3    H125706   3.863   4.735   7.657  2.0013 -0.0038 -0.0893
 1357TIP3    H225707   3.768   4.743   7.539  1.3157 -1.9294  0.2931
 1358TIP3   OH225708   1.357   3.779   6.438 -0.0075  0.0578 -0.3275
 1358TIP3    H125709   1.347   3.728   6.518  2.7083  0.0062  0.0913
 1358TIP3    H225710   1.450   3.770   6.416  0.0425  2.7755 -1.6345
 1359TIP3   OH225711   5.757   2.753   6.316  0.2141 -0.2338  0.2829
 1359TIP3    H125712   5.718   2.712   6.394  1.2192 -1.1143  0.3574
 1359TIP3    H225713   5.704   2.721   6.243 -0.4671  0.2510  0.5473
 1360TIP3   OH225714   3.108   1.193   7.613 -0.0236 -0.0793  0.1982
 1360TIP3    H125715   3.093   1.285   7.591 -2.1356 -0.5904 -0.7682
 1360TIP3    H225716   3.020   1.155   7.617  0.7333 -1.7938  1.8322
 1361TIP3   OH225717   2.678   0.213   0.900  0.2125  0.8011 -0.3796
 1361TIP3    H125718   2.617   0.276   0.938  0.3406 -0.8238  2.9266
 1361TIP3    H225719   2.623   0.137   0.880  0.8302 -0.0976  1.1658
 1362TIP3   OH225720   5.953   2.995   0.249 -0.2752 -0.7777  0.4833
 1362TIP3    H125721   5.976   3.063   0.312  0.3453 -0.3729 -0.1775
 1362TIP3    H225722   6.011   2.922   0.270  0.2362 -0.4848  0.1127
 1363TIP3   OH225723   5.833   1.766   6.870  0.4809  0.0224 -0.2528
 1363TIP3    H125724   5.910   1.729   6.827 -0.0753 -0.7326 -0.6224
 1363TIP3    H225725   5.824   1.853   6.831  1.9308  0.6751  0.7869
 1364TIP3   OH225726   5.737   4.631   1.860  0.6643 -0.3360  0.1361
 1364TIP3    H125727   5.727   4.604   1.769  0.3707  0.1199  0.0282
 1364TIP3    H225728   5.666   4.588   1.906 -0.0169  0.5119 -0.0974
 1365TIP3   OH225729   4.057   4.465   8.435 -0.2201 -0.2598 -0.0030
 1365TIP3    H125730   4.077   4.434   8.523  1.7076 -0.0786 -0.3240
 1365TIP3    H225731   3.981   4.414   8.408 -0.3594 -0.8714  1.4676
 1366TIP3   OH225732   5.738   4.927   1.932  0.4287 -0.0355  0.3329
 1366TIP3    H125733   5.759   4.836   1.910  0.8979 -0.5857  2.7250
 1366TIP3    H225734   5.719   4.924   2.026  0.6889  2.3757  0.5072
 1367TIP3   OH225735   2.237   1.025   8.534 -0.0763 -0.3856  0.4046
 1367TIP3    H125736   2.207   0.955   8.477  0.5361  0.8741 -1.5518
 1367TIP3    H225737   2.160   1.082   8.545  0.1638  0.1064 -0.3574
 1368TIP3   OH225738   1.003   0.431   0.595 -0.4488  0.1226 -0.3463
 1368TIP3    H125739   0.909   0.421   0.582 -0.5270 -0.9768  0.8386
 1368TIP3    H225740   1.014   0.523   0.622 -1.4731 -0.2511  1.5109
 1369TIP3   OH225741   2.148   5.379   1.984 -0.6516 -0.8255  0.1393
 1369TIP3    H125742   2.066   5.424   2.008  0.2391  0.5500  0.7243
 1369TIP3    H225743   2.161   5.315   2.054 -0.2351  0.3151  1.1495
 1370TIP3   OH225744   1.640   2.584   0.501 -1.0769 -0.3711  0.0099
 1370TIP3    H125745   1.720   2.533   0.488 -1.0650 -0.6626  1.1057
 1370TIP3    H225746   1.612   2.562   0.590 -1.1329  1.4498  0.4759
 1371TIP3   OH225747   2.418   3.624   1.913 -0.1443 -0.5894 -0.3868
 1371TIP3    H125748   2.359   3.684   1.960  0.8206  0.0321  0.0721
 1371TIP3    H225749   2.375   3.539   1.919 -2.1141  0.2007 -2.0221
 1372TIP3   OH225750   0.644   6.228   8.365  0.4854  0.5674 -0.0894
 1372TIP3    H125751   0.656   6.303   8.423  1.3503 -0.0020  0.4910
 1372TIP3    H225752   0.715   6.168   8.389 -0.3462 -0.5475 -0.3494
 1373TIP3   OH225753   3.147   0.088   8.244  0.0706 -0.2580  0.0040
 1373TIP3    H125754   3.198   0.081   8.163  1.0521  0.3683  0.5474
 1373TIP3    H225755   3.213   0.101   8.313 -0.8034  0.1424  0.7823
 1374TIP3   OH225756   3.500   5.381   0.156  0.8141  0.4755 -0.2542
 1374TIP3    H125757   3.446   5.316   0.202  1.8598 -0.1461  0.1297
 1374TIP3    H225758   3.489   5.461   0.207 -0.5401  0.6525 -0.7704
 1375TIP3   OH225759   1.425   4.514   1.058  0.5701  0.4540  0.2792
 1375TIP3    H125760   1.469   4.485   0.978  1.7889 -0.0633  1.0946
 1375TIP3    H225761   1.436   4.441   1.119 -0.8205  0.6179  0.7582
 1376TIP3   OH225762   1.518   1.706   0.679  0.0540  0.6881  0.0417
 1376TIP3    H125763   1.572   1.732   0.754 -0.3358  0.3322  0.4474
 1376TIP3    H225764   1.467   1.784   0.658  0.9562  1.1351 -0.5547
 1377TIP3   OH225765   1.851   2.019   0.963  0.5152  0.6097  0.6135
 1377TIP3    H125766   1.810   2.105   0.952  0.5027  0.7472  1.6057
 1377TIP3    H225767   1.943   2.034   0.939  0.0519  0.3412 -1.4377
 1378TIP3   OH225768   3.473   4.226   0.922 -0.1708  0.0143 -0.4895
 1378TIP3    H125769   3.431   4.269   0.847 -2.1456  1.0086  1.0895
 1378TIP3    H225770   3.456   4.285   0.995  2.4061 -0.5131  0.6444
 1379TIP3   OH225771   3.173   4.398   1.253 -0.0892 -0.5393  0.1075
 1379TIP3    H125772   3.098   4.413   1.196 -0.0078 -1.5176 -0.2861
 1379TIP3    H225773   3.162   4.460   1.325  0.3749  1.4807 -1.4756
 1380TIP3   OH225774   4.706   2.239   8.033  0.3053 -0.3376 -0.0271
 1380TIP3    H125775   4.766   2.227   8.107  2.1462 -1.3380 -1.5760
 1380TIP3    H225776   4.631   2.184   8.054  0.1985  0.3813  1.6524
 1381TIP3   OH225777   1.714   2.281   7.169 -0.3004  0.1776 -0.1015
 1381TIP3    H125778   1.714   2.191   7.201 -1.6432  1.1441  3.0603
 1381TIP3    H225779   1.715   2.273   7.073 -0.9004 -3.1714  0.0612
 1382TIP3   OH225780   5.163   2.446   6.800  0.1391 -0.1832 -0.1759
 1382TIP3    H125781   5.238   2.394   6.831  0.4690  1.4705  2.0727
 1382TIP3    H225782   5.201   2.530   6.775 -0.7119 -0.0643 -1.1018
 1383TIP3   OH225783   2.018   6.593   0.838  0.7023  0.2468  0.1181
 1383TIP3    H125784   1.984   6.664   0.892 -0.3235 -1.1270  1.3782
 1383TIP3    H225785   1.941   6.540   0.817  1.2302  0.2084 -1.9202
 1384TIP3   OH225786   4.386   0.268   8.319 -0.2098  0.4177  0.1826
 1384TIP3    H125787   4.313   0.294   8.375 -0.8232 -0.4850 -0.1657
 1384TIP3    H225788   4.345   0.246   8.235  0.5564  0.6404 -0.2535
 1385TIP3   OH225789   3.129   3.451   1.270 -0.3886 -0.4236 -0.2304
 1385TIP3    H125790   3.121   3.451   1.174  0.5180  0.4628 -0.3298
 1385TIP3    H225791   3.220   3.425   1.286  0.3588  2.1487  0.2287
 1386TIP3   OH225792   5.459   3.365   0.730 -0.2502  0.0421  0.1173
 1386TIP3    H125793   5.419   3.400   0.649 -1.8878  0.0631  0.8872
 1386TIP3    H225794   5.386   3.359   0.791  0.6406 -1.6065  1.0689
 1387TIP3   OH225795   0.679   6.592   2.529 -0.7011  0.3434 -0.6813
 1387TIP3    H125796   0.620   6.524   2.497 -1.0355  0.4137 -0.2246
 1387TIP3    H225797   0.724   6.624   2.450  0.4121 -1.2725 -0.7697
 1388TIP3   OH225798   3.006   5.111   0.905 -0.4007 -0.3250 -0.2138
 1388TIP3    H125799   3.101   5.122   0.897 -0.3825 -0.9026 -0.9060
 1388TIP3    H225800   2.969   5.195   0.878 -0.0943 -0.1130  0.0131
 1389TIP3   OH225801   0.991   2.249   2.007 -0.5916 -0.4312 -0.4189
 1389TIP3    H125802   1.058   2.317   2.020 -0.2678 -0.7271 -0.5270
 1389TIP3    H225803   0.988   2.202   2.090 -0.8662 -0.2421 -0.3208
 1390TIP3   OH225804   3.164   4.277   7.431  0.5819 -1.0187  0.4079
 1390TIP3    H125805   3.085   4.331   7.433  0.4116 -1.2779  1.9848
 1390TIP3    H225806   3.156   4.225   7.351 -1.5499 -2.0234  1.1895
 1391TIP3   OH225807   2.576   2.378   1.454 -0.6859 -0.2087  0.1133
 1391TIP3    H125808   2.671   2.363   1.455 -0.6946 -0.3737 -0.5933
 1391TIP3    H225809   2.563   2.442   1.383 -0.9900  0.6693  0.9454
 1392TIP3   OH225810   3.205   1.454   7.817  0.0603  0.2591  0.1696
 1392TIP3    H125811   3.285   1.506   7.811  0.6444 -0.6456 -0.1668
 1392TIP3    H225812   3.164   1.461   7.731 -0.5617  1.2195  0.5257
 1393TIP3   OH225813   3.412   1.385   6.880  0.4033  0.4298 -0.5649
 1393TIP3    H125814   3.324   1.374   6.915  0.4774  0.3284 -0.4091
 1393TIP3    H225815   3.420   1.319   6.811 -1.0950  3.0076 -3.4686
 1394TIP3   OH225816   6.794   0.567   8.799 -0.4639 -0.1103 -0.0702
 1394TIP3    H125817   6.755   0.480   8.808  0.3712 -0.6813 -1.5730
 1394TIP3    H225818   6.857   0.574   8.870 -0.5677 -0.7148  0.0820
 1395TIP3   OH225819   0.403   2.189   7.620  0.1505  0.2239  0.2786
 1395TIP3    H125820   0.475   2.190   7.683  1.1469 -1.9078 -0.7164
 1395TIP3    H225821   0.356   2.108   7.639  1.5160 -1.4377 -2.6843
 1396TIP3   OH225822   0.941   6.537   7.032 -0.5763  0.3139  0.1957
 1396TIP3    H125823   0.901   6.450   7.031  1.3074 -0.6032 -0.8229
 1396TIP3    H225824   0.895   6.585   6.962 -0.9221 -0.2018  0.0625
 1397TIP3   OH225825   4.149   1.091   8.273  0.0567 -0.3771 -0.2012
 1397TIP3    H125826   4.219   1.139   8.230 -0.8571  0.4159 -0.8413
 1397TIP3    H225827   4.189   1.009   8.300  1.4379  0.3873  0.1618
 1398TIP3   OH225828   3.219   1.467   6.597 -0.2264  0.2961  0.2531
 1398TIP3    H125829   3.295   1.511   6.634  0.7354 -1.2693  0.2472
 1398TIP3    H225830   3.145   1.523   6.620  0.8084  1.3561  1.1221
 1399TIP3   OH225831   3.911   4.647   1.124 -0.6738 -0.2597 -0.7184
 1399TIP3    H125832   4.000   4.613   1.132 -0.0962  1.2072 -0.6081
 1399TIP3    H225833   3.859   4.572   1.096  0.4428 -1.3339  0.0044
 1400TIP3   OH225834   5.145   0.691   7.832  0.9203 -0.5875 -0.1312
 1400TIP3    H125835   5.123   0.626   7.898 -0.7534 -1.9057 -1.8751
 1400TIP3    H225836   5.183   0.641   7.760 -0.0405  0.3783 -1.3583
 1401TIP3   OH225837   3.917   6.419   6.860 -0.0235  0.5222  0.1898
 1401TIP3    H125838   3.945   6.448   6.773  0.1177  0.9502  0.3737
 1401TIP3    H225839   3.938   6.326   6.862  1.9008  0.9196  0.5112
 1402TIP3   OH225840   2.974   6.513   2.628  0.0777 -0.0578  0.4843
 1402TIP3    H125841   3.027   6.539   2.553  0.3739  0.9006  1.0116
 1402TIP3    H225842   2.924   6.591   2.651 -1.7197 -0.9873 -0.0967
 1403TIP3   OH225843   5.358   0.422   1.262  0.1262  0.4594 -0.2154
 1403TIP3    H125844   5.291   0.452   1.200  0.7835 -0.8662 -1.6418
 1403TIP3    H225845   5.440   0.456   1.226  0.3167  1.5314  1.1675
 1404TIP3   OH225846   0.273   0.337   1.455 -0.4605 -0.2176 -0.3228
 1404TIP3    H125847   0.354   0.337   1.506  0.1719 -0.2387 -1.3011
 1404TIP3    H225848   0.203   0.337   1.521  0.2825  2.3072  0.5933
 1405TIP3   OH225849   2.614   1.363   8.051  0.2097 -0.1209 -0.1591
 1405TIP3    H125850   2.610   1.363   7.955  1.8828  0.1639 -0.2476
 1405TIP3    H225851   2.526   1.390   8.078 -0.3511 -0.3904 -1.5987
 1406TIP3   OH225852   0.932   4.489   0.894  0.3987  0.7735  0.0685
 1406TIP3    H125853   1.023   4.516   0.908  0.2746  1.8436 -1.0344
 1406TIP3    H225854   0.881   4.541   0.956  0.6389 -1.0371  1.8990
 1407TIP3   OH225855   4.197   3.683   1.040  0.1893  0.4150  0.7758
 1407TIP3    H125856   4.115   3.731   1.039 -0.8489 -1.2626  0.6788
 1407TIP3    H225857   4.250   3.724   0.971 -2.0074 -0.7011 -1.7937
 1408TIP3   OH225858   1.128   2.859   8.399 -0.3917  0.4328  0.0342
 1408TIP3    H125859   1.092   2.946   8.381  0.0695  0.5898 -0.1568
 1408TIP3    H225860   1.203   2.852   8.339 -1.6318 -0.9218 -1.4380
 1409TIP3   OH225861   1.297   1.484   6.968 -0.4641 -0.0340 -0.6479
 1409TIP3    H125862   1.358   1.547   6.929 -0.5551 -1.1843 -2.7922
 1409TIP3    H225863   1.336   1.398   6.950 -1.6620 -0.7045 -0.1423
 1410TIP3   OH225864   4.910   5.312   0.611 -0.2206  0.2835  0.1812
 1410TIP3    H125865   4.951   5.391   0.648 -0.1839 -0.2126  1.2126
 1410TIP3    H225866   4.819   5.318   0.638 -0.2570  0.0565  0.1050
 1411TIP3   OH225867   3.355   2.246   7.407  0.5511 -0.1766 -0.1104
 1411TIP3    H125868   3.414   2.259   7.333  0.0838 -0.4459 -0.5362
 1411TIP3    H225869   3.353   2.151   7.420  0.8560 -0.1149  0.4367
 1412TIP3   OH225870   3.749   5.516   8.209 -0.3912 -0.0241 -0.3563
 1412TIP3    H125871   3.699   5.443   8.245 -0.1872  0.3647  0.7381
 1412TIP3    H225872   3.695   5.593   8.227  0.9116  0.4975  1.5379
 1413TIP3   OH225873   4.474   4.941   0.777 -0.0265  0.0880  0.1130
 1413TIP3    H125874   4.486   4.893   0.695 -1.3459  0.6700 -0.4444
 1413TIP3    H225875   4.499   4.878   0.845  2.7691  0.1262 -0.7300
 1414TIP3   OH225876   5.482   2.335   7.522 -0.4816  0.1142 -0.2584
 1414TIP3    H125877   5.423   2.390   7.574  0.1187  1.5557 -1.0439
 1414TIP3    H225878   5.475   2.369   7.433  1.0873 -0.0248 -0.4725
 1415TIP3   OH225879   2.599   4.526   2.201 -0.1186 -0.0879  0.2936
 1415TIP3    H125880   2.591   4.467   2.276 -2.3492 -0.7157 -0.3656
 1415TIP3    H225881   2.569   4.474   2.126 -0.3803  1.3135 -0.6041
 1416TIP3   OH225882   1.303   6.653   8.833  0.2439  0.1768 -0.3217
 1416TIP3    H125883   1.248   6.640   8.755  0.2039 -3.1991  0.1410
 1416TIP3    H225884   1.253   6.713   8.888 -1.1605  0.1998 -1.5644
 1417TIP3   OH225885   6.677   2.020   7.778  0.0148 -0.1516  0.2540
 1417TIP3    H125886   6.635   2.081   7.718 -1.3064 -2.0431 -0.8276
 1417TIP3    H225887   6.609   1.957   7.800  1.4074 -1.4276  1.0832
 1418TIP3   OH225888   5.479   4.789   7.330 -0.2714 -0.1057 -0.3363
 1418TIP3    H125889   5.398   4.739   7.325  0.4090 -1.1162 -1.9892
 1418TIP3    H225890   5.470   4.856   7.262 -0.0521  0.3131  0.0405
 1419TIP3   OH225891   3.004   5.373   0.816 -0.2026 -0.3585  0.2608
 1419TIP3    H125892   2.988   5.393   0.908 -2.2232 -0.1560 -0.0848
 1419TIP3    H225893   2.999   5.458   0.772  2.9314 -0.1273  0.1630
 1420TIP3   OH225894   2.354   4.825   8.371 -0.0085 -0.0809 -0.1362
 1420TIP3    H125895   2.437   4.824   8.324  0.7404  0.6205  1.1111
 1420TIP3    H225896   2.331   4.732   8.381  0.8103 -0.3010 -0.1896
 1421TIP3   OH225897   2.098   6.634   0.518 -0.2403 -0.1532  0.2034
 1421TIP3    H125898   2.159   6.560   0.514  0.5658  0.5300 -0.7665
 1421TIP3    H225899   2.071   6.637   0.610 -0.3546 -1.6831  0.2556
 1422TIP3   OH225900   4.015   5.167   8.399 -0.6478  0.4299  0.2859
 1422TIP3    H125901   3.931   5.157   8.354 -0.3050 -1.0905 -0.0945
 1422TIP3    H225902   4.016   5.257   8.430 -2.9064  0.1586  1.2949
 1423TIP3   OH225903   1.196   5.096   1.147 -0.2321  0.5165  0.1266
 1423TIP3    H125904   1.289   5.120   1.148 -0.1803  0.8358  4.2056
 1423TIP3    H225905   1.193   5.010   1.188 -1.7434  0.4996  0.0223
 1424TIP3   OH225906   1.844   1.385   7.828  0.2190  0.2835 -0.9556
 1424TIP3    H125907   1.939   1.398   7.835  0.2692 -0.4626 -0.2934
 1424TIP3    H225908   1.807   1.471   7.850  0.6972  0.2875 -0.1435
 1425TIP3   OH225909   3.557   6.469   1.766 -0.1839 -0.1610 -0.0697
 1425TIP3    H125910   3.592   6.466   1.677 -2.5557 -2.4113 -1.0707
 1425TIP3    H225911   3.631   6.445   1.822  1.2795  0.9926 -1.3882
 1426TIP3   OH225912   6.209   3.872   6.488  0.1739 -0.3493 -0.2071
 1426TIP3    H125913   6.300   3.874   6.519 -0.4457  0.7408  1.7474
 1426TIP3    H225914   6.174   3.957   6.514 -2.0057 -1.5693  1.1483
 1427TIP3   OH225915   0.800   0.259   1.289 -0.4123 -0.0211 -0.3142
 1427TIP3    H125916   0.802   0.354   1.298 -2.6269 -0.0533  1.6070
 1427TIP3    H225917   0.812   0.226   1.378 -0.6491 -1.5033 -0.7970
 1428TIP3   OH225918   3.590   1.205   0.758 -0.0556  0.3946 -0.0979
 1428TIP3    H125919   3.515   1.227   0.702  0.6078 -0.6334 -1.4458
 1428TIP3    H225920   3.575   1.114   0.784  1.3191 -0.2715 -1.4571
 1429TIP3   OH225921   3.964   0.589   7.520  0.1554 -0.3290 -0.0036
 1429TIP3    H125922   4.023   0.664   7.515  0.9779 -0.8839  0.8511
 1429TIP3    H225923   3.956   0.558   7.430  0.0431  0.5993 -0.3218
 1430TIP3   OH225924   6.710   6.583   6.405 -0.6529  0.8885 -0.0265
 1430TIP3    H125925   6.620   6.556   6.382 -0.4450 -0.1041  0.2516
 1430TIP3    H225926   6.701   6.625   6.491 -0.9087  1.1448 -0.1784
 1431TIP3   OH225927   0.356   5.584   0.945 -0.3750 -0.2094 -0.0507
 1431TIP3    H125928   0.262   5.593   0.955 -0.5758 -2.3954  0.4853
 1431TIP3    H225929   0.382   5.520   1.011  1.2458 -0.6851 -1.0699
 1432TIP3   OH225930   4.254   4.097   6.433  0.1960  0.0228 -0.1804
 1432TIP3    H125931   4.327   4.049   6.472  1.2500  2.0470  0.5473
 1432TIP3    H225932   4.273   4.189   6.455 -1.8360  0.7406 -1.2225
 1433TIP3   OH225933   1.457   5.308   2.235  0.1333  0.2058 -0.0906
 1433TIP3    H125934   1.387   5.348   2.183 -1.0557 -1.7046 -0.0701
 1433TIP3    H225935   1.425   5.310   2.325  0.8150  0.7118  0.1503
 1434TIP3   OH225936   1.918   3.090   0.691  0.2726 -0.4049 -0.0608
 1434TIP3    H125937   1.864   3.011   0.698 -0.0495 -0.1139  0.8460
 1434TIP3    H225938   1.920   3.109   0.597 -2.2248  0.2789 -0.0267
 1435TIP3   OH225939   1.618   4.834   8.272 -0.0871 -0.9040 -0.1882
 1435TIP3    H125940   1.570   4.895   8.328  0.4978  0.6212 -1.2785
 1435TIP3    H225941   1.676   4.787   8.332  1.1691  1.3084  0.4289
 1436TIP3   OH225942   0.281   1.682   1.602  0.6052 -0.1793 -0.4570
 1436TIP3    H125943   0.331   1.751   1.559  0.2694  2.0441  2.3999
 1436TIP3    H225944   0.307   1.688   1.694 -1.9789 -1.5940  0.4638
 1437TIP3   OH225945   0.262   0.408   8.837  0.3454  0.0298  0.6996
 1437TIP3    H125946   0.206   0.430   8.911  0.1818  0.1191  0.5503
 1437TIP3    H225947   0.351   0.406   8.873  0.0995 -1.7792  1.3272
 1438TIP3   OH225948   3.992   1.460   1.637  0.2680 -0.0064  0.6453
 1438TIP3    H125949   3.918   1.414   1.597 -0.0504  0.5061  0.6472
 1438TIP3    H225950   4.068   1.431   1.587 -0.2749  1.7439 -1.3413
 1439TIP3   OH225951   0.521   4.794   0.573  0.5021 -0.1093  0.1909
 1439TIP3    H125952   0.446   4.759   0.622  0.7616  0.5013  1.0476
 1439TIP3    H225953   0.515   4.889   0.585 -0.8537  0.3517 -3.0143
 1440TIP3   OH225954   6.407   2.237   1.633 -0.1497  1.1472 -0.2319
 1440TIP3    H125955   6.460   2.235   1.713 -0.2575 -4.4396  0.1495
 1440TIP3    H225956   6.317   2.234   1.665 -0.2251 -0.0579 -0.5143
 1441TIP3   OH225957   1.006   0.419   7.881  0.1821 -0.5118  0.2414
 1441TIP3    H125958   0.947   0.375   7.942 -0.1265  1.1676  1.2179
 1441TIP3    H225959   1.028   0.352   7.816 -3.0185 -1.1503 -0.3386
 1442TIP3   OH225960   6.757   0.785   2.387 -0.4740  0.0605  0.0608
 1442TIP3    H125961   6.748   0.743   2.302  1.6791 -1.2200  0.4031
 1442TIP3    H225962   6.828   0.739   2.430  1.7466  3.6641  0.7180
 1443TIP3   OH225963   3.919   2.205   1.707  0.0425  0.5519  0.4465
 1443TIP3    H125964   3.876   2.149   1.772  0.2168 -0.8711 -0.6372
 1443TIP3    H225965   3.954   2.145   1.642  1.1064  1.8689 -0.2553
 1444TIP3   OH225966   4.249   0.945   2.206  0.1855 -0.5071  0.1642
 1444TIP3    H125967   4.206   0.863   2.184 -1.0432 -0.0355  0.6868
 1444TIP3    H225968   4.177   1.006   2.222  1.0489  0.8500 -0.8143
 1445TIP3   OH225969   6.091   2.332   8.393 -0.2978 -0.2355 -0.1797
 1445TIP3    H125970   6.013   2.278   8.383 -0.4809 -0.1039  0.4781
 1445TIP3    H225971   6.065   2.401   8.454  0.3688 -0.2507  0.1286
 1446TIP3   OH225972   4.402   5.972   1.436 -0.1941 -0.5346 -0.5364
 1446TIP3    H125973   4.479   5.918   1.417 -0.2858 -1.0236  0.4047
 1446TIP3    H225974   4.354   5.976   1.354  0.3220 -1.0646 -0.8721
 1447TIP3   OH225975   5.748   0.270   7.978 -0.3448 -0.0614 -0.2913
 1447TIP3    H125976   5.830   0.282   8.026  0.3817  0.6397 -1.6118
 1447TIP3    H225977   5.695   0.346   8.001  0.4514  0.8778 -1.3800
 1448TIP3   OH225978   1.489   2.985   0.268  0.7305  0.9977 -0.3485
 1448TIP3    H125979   1.430   3.059   0.283  0.6439  0.8455  0.0679
 1448TIP3    H225980   1.437   2.922   0.218  0.8654  1.2978 -0.8749
 1449TIP3   OH225981   3.853   3.097   2.163  0.2825  0.3285  0.0780
 1449TIP3    H125982   3.859   3.026   2.227 -0.2941  1.3316  1.2703
 1449TIP3    H225983   3.922   3.158   2.188  0.3171  0.5368 -0.5125
 1450TIP3   OH225984   4.287   5.966   0.970 -0.3642  0.0923  0.6809
 1450TIP3    H125985   4.295   5.942   0.877  1.4780 -0.1148  0.8595
 1450TIP3    H225986   4.377   5.971   1.001 -0.9600 -0.1808  2.5629
 1451TIP3   OH225987   4.351   3.965   1.151  0.3104  0.1099  0.6130
 1451TIP3    H125988   4.344   3.876   1.187 -0.2673 -0.2674 -0.3983
 1451TIP3    H225989   4.299   3.963   1.071 -1.0352  1.8063  1.3667
 1452TIP3   OH225990   4.175   3.608   8.374  0.1268  0.3900 -0.0082
 1452TIP3    H125991   4.137   3.686   8.414 -1.0411  0.6390 -1.5353
 1452TIP3    H225992   4.187   3.631   8.282  1.7545 -0.5262 -0.0756
 1453TIP3   OH225993   4.068   1.326   2.416 -0.1209  0.0127  0.3264
 1453TIP3    H125994   4.029   1.240   2.433  1.9920 -0.9171  0.8729
 1453TIP3    H225995   4.161   1.315   2.439  0.3519  2.2585 -0.2486
 1454TIP3   OH225996   5.081   6.030   1.490 -0.2394 -0.2519  0.5956
 1454TIP3    H125997   5.004   6.015   1.436  0.0445  1.7979 -0.4899
 1454TIP3    H225998   5.046   6.062   1.573 -0.5977 -0.2645  0.4500
 1455TIP3   OH225999   6.673   3.521   1.413 -0.3097  0.2155  0.9557
 1455TIP3    H126000   6.742   3.549   1.352 -0.3638  0.0015  0.7929
 1455TIP3    H226001   6.600   3.580   1.395 -2.0561 -2.5812 -2.4705
 1456TIP3   OH226002   6.383   2.814   1.150 -0.2852  0.8355 -0.0243
 1456TIP3    H126003   6.388   2.892   1.205 -0.4741  0.3872  0.6374
 1456TIP3    H226004   6.351   2.846   1.066 -2.7496  1.1467  0.9596
 1457TIP3   OH226005   5.932   6.015   0.027 -0.1508 -0.3853 -0.5504
 1457TIP3    H126006   5.935   6.106   0.055  0.4285 -0.2795 -0.9368
 1457TIP3    H226007   6.022   5.984   0.039 -0.1307 -0.6364 -1.2942
 1458TIP3   OH226008   3.113   6.713   7.996 -0.1184  0.7617  1.0989
 1458TIP3    H126009   3.189   6.757   8.035  1.0134 -0.7762  0.7070
 1458TIP3    H226010   3.102   6.634   8.049  2.1057 -1.9621 -2.0663
 1459TIP3   OH226011   3.368   5.866   7.293 -0.0360  0.0614 -0.1883
 1459TIP3    H126012   3.395   5.788   7.343 -0.3646 -0.8443 -1.3708
 1459TIP3    H226013   3.380   5.939   7.354 -2.7560 -1.2254  2.1451
 1460TIP3   OH226014   1.124   2.067   8.276 -0.3232 -0.1927  0.1959
 1460TIP3    H126015   1.088   2.012   8.346  0.3802 -0.7347  0.1416
 1460TIP3    H226016   1.212   2.091   8.307 -0.6203  0.9376  0.2339
 1461TIP3   OH226017   2.661   0.377   6.001  0.1163 -0.1826 -0.6985
 1461TIP3    H126018   2.690   0.376   6.092  1.3974 -0.1302 -1.0872
 1461TIP3    H226019   2.705   0.452   5.963 -0.8455  0.1186 -1.2329
 1462TIP3   OH226020   2.862   1.210   7.221 -0.0829 -0.3545 -0.0045
 1462TIP3    H126021   2.953   1.179   7.218  0.4889  1.1427  0.7035
 1462TIP3    H226022   2.825   1.186   7.136  1.3495  0.0597 -0.7783
 1463TIP3   OH226023   3.874   3.287   1.536  0.1214  0.0853 -0.0251
 1463TIP3    H126024   3.875   3.286   1.632  0.6056 -0.7410 -0.0298
 1463TIP3    H226025   3.782   3.277   1.513 -0.3031  2.5921  0.3415
 1464TIP3   OH226026   0.842   6.690   0.772 -0.1050  0.2386 -0.1975
 1464TIP3    H126027   0.892   6.697   0.691 -1.1736  2.6456 -0.7422
 1464TIP3    H226028   0.888   6.623   0.823  1.5616 -0.1542 -2.0810
 1465TIP3   OH226029   3.152   3.643   6.241  0.0847  0.5999  0.0481
 1465TIP3    H126030   3.195   3.565   6.207 -1.3181  0.6526 -2.0234
 1465TIP3    H226031   3.220   3.710   6.242  1.0763 -0.3840  0.9871
 1466TIP3   OH226032   1.199   4.094   1.506  0.1336  0.8673 -0.0854
 1466TIP3    H126033   1.183   4.140   1.588 -0.2158 -0.6075  0.7255
 1466TIP3    H226034   1.115   4.100   1.459  0.2214  1.4014 -0.1803
 1467TIP3   OH226035   1.253   3.626   7.759  0.4283 -0.2354 -0.6707
 1467TIP3    H126036   1.267   3.710   7.716  1.6274  0.7697  1.5243
 1467TIP3    H226037   1.158   3.618   7.765  0.2553  2.0767  0.9906
 1468TIP3   OH226038   5.339   1.073   0.153 -0.3604 -0.0136 -0.2848
 1468TIP3    H126039   5.356   1.134   0.225  0.4451  1.3364 -1.5762
 1468TIP3    H226040   5.278   1.009   0.190 -0.0167  0.6785  1.5660
 1469TIP3   OH226041   2.847   1.108   7.613  0.2300  0.3817  0.2604
 1469TIP3    H126042   2.837   1.036   7.550 -0.6033 -0.3255  1.1841
 1469TIP3    H226043   2.758   1.128   7.641  0.6010  0.5718  1.3330
 1470TIP3   OH226044   4.926   5.233   1.309  1.2740  0.1655  0.1048
 1470TIP3    H126045   4.881   5.199   1.386  1.5239  1.7236  0.9886
 1470TIP3    H226046   5.013   5.193   1.313  0.3725 -2.0830 -1.0695
 1471TIP3   OH226047   0.185   4.348   7.584  0.8137 -0.5403  0.0262
 1471TIP3    H126048   0.161   4.437   7.560 -3.9814 -1.5283  0.2027
 1471TIP3    H226049   0.197   4.351   7.679  1.6316  0.0105 -0.0806
 1472TIP3   OH226050   6.150   2.460   0.590  0.2795  0.2077 -0.1567
 1472TIP3    H126051   6.063   2.498   0.583  0.1427  0.0093  0.4092
 1472TIP3    H226052   6.166   2.420   0.504  0.2377  1.1289 -0.6059
 1473TIP3   OH226053   6.701   6.548   8.712  0.4702 -0.6898 -0.4674
 1473TIP3    H126054   6.631   6.582   8.767  1.1230  1.9309 -1.1026
 1473TIP3    H226055   6.728   6.466   8.754 -1.9505 -1.0258  0.5840
 1474TIP3   OH226056   6.412   1.523   7.170 -0.0064  0.2566  0.3524
 1474TIP3    H126057   6.402   1.618   7.165 -0.3969  0.1520 -1.5775
 1474TIP3    H226058   6.347   1.489   7.110  1.4253 -1.1398 -0.4910
 1475TIP3   OH226059   4.559   4.245   0.880 -0.0256  0.7962 -0.0872
 1475TIP3    H126060   4.653   4.262   0.872 -0.1220  1.6076  0.4048
 1475TIP3    H226061   4.522   4.278   0.798 -0.0056  1.4776  0.1702
 1476TIP3   OH226062   1.165   0.481   7.417  0.0323 -0.3260  0.9533
 1476TIP3    H126063   1.116   0.427   7.478 -2.4280  0.4270 -0.2040
 1476TIP3    H226064   1.212   0.544   7.472 -0.8979 -0.6226  2.1278
 1477TIP3   OH226065   5.617   2.697   8.691 -0.5854  0.3103 -0.2550
 1477TIP3    H126066   5.564   2.732   8.620  0.0659  1.7422 -0.0646
 1477TIP3    H226067   5.554   2.682   8.762 -1.0158  0.2430 -0.6475
 1478TIP3   OH226068   6.587   3.830   7.503 -0.1361  0.1486 -0.5918
 1478TIP3    H126069   6.604   3.918   7.537 -0.3632 -0.0274 -0.0111
 1478TIP3    H226070   6.517   3.796   7.559 -0.4082 -0.2061 -1.1473
 1479TIP3   OH226071   6.503   4.854   6.683 -0.0782  0.5812 -0.0314
 1479TIP3    H126072   6.546   4.778   6.722  0.0943  0.7770  0.1626
 1479TIP3    H226073   6.489   4.914   6.756 -2.6795 -0.3619  0.3680
 1480TIP3   OH226074   2.090   5.330   8.761  0.1860  0.7258  0.0785
 1480TIP3    H126075   2.007   5.282   8.756  0.6881 -0.2895  1.0457
 1480TIP3    H226076   2.131   5.315   8.676 -0.1722  0.4039 -0.0416
 1481TIP3   OH226077   3.966   1.556   1.323 -0.6588 -0.0846 -0.2176
 1481TIP3    H126078   4.042   1.542   1.267 -1.0946 -1.2403 -0.5482
 1481TIP3    H226079   3.989   1.632   1.376 -0.4568  1.4244 -2.3362
 1482TIP3   OH226080   5.622   3.020   5.734 -0.1541 -0.2807  0.1299
 1482TIP3    H126081   5.635   2.927   5.750 -2.5695 -0.3512  2.3762
 1482TIP3    H226082   5.674   3.064   5.802 -0.9030 -0.1026  0.5965
 1483TIP3   OH226083   6.533   6.129   1.842  0.4189 -0.2014  0.1831
 1483TIP3    H126084   6.536   6.095   1.932 -0.1118 -1.3234 -0.2002
 1483TIP3    H226085   6.487   6.212   1.849 -0.7733 -0.8823  0.7957
 1484TIP3   OH226086   5.802   1.191   7.638  0.7453  0.1145 -0.3525
 1484TIP3    H126087   5.834   1.239   7.715 -0.4282 -0.3790  0.4827
 1484TIP3    H226088   5.838   1.103   7.647  0.8061  0.1250 -0.4948
 1485TIP3   OH226089   2.591   1.061   7.741 -0.5204  0.1813 -0.0929
 1485TIP3    H126090   2.523   1.117   7.779 -0.7872 -0.8849  1.0855
 1485TIP3    H226091   2.598   0.988   7.802  3.0195  1.1369  0.8800
 1486TIP3   OH226092   5.512   6.759   8.706  0.3415 -0.0765 -0.6127
 1486TIP3    H126093   5.465   6.675   8.706  0.2586 -0.0303 -0.6725
 1486TIP3    H226094   5.560   6.760   8.788  0.3225 -0.1722 -0.6009
 1487TIP3   OH226095   5.409   3.449   1.493 -0.2794  0.3285 -0.2243
 1487TIP3    H126096   5.471   3.444   1.566 -1.2747 -2.0738  0.5494
 1487TIP3    H226097   5.463   3.433   1.416  0.2670 -0.5516  0.3182
 1488TIP3   OH226098   3.429   3.936   0.146  0.5161 -0.1759  0.2843
 1488TIP3    H126099   3.455   4.026   0.129  1.4962 -0.4456  0.2708
 1488TIP3    H226100   3.406   3.934   0.239 -0.4916  0.2996  0.0590
 1489TIP3   OH226101   1.794   2.060   8.149  0.0753 -0.1450 -0.0134
 1489TIP3    H126102   1.838   2.145   8.144  0.4449 -0.1922  1.6158
 1489TIP3    H226103   1.778   2.035   8.058  2.9622  0.1416 -0.7005
 1490TIP3   OH226104   1.491   4.296   7.708 -0.0882 -0.2218  0.5761
 1490TIP3    H126105   1.444   4.348   7.644 -0.4505  0.5814  1.4800
 1490TIP3    H226106   1.485   4.345   7.789 -0.9018 -1.9083  1.6047
 1491TIP3   OH226107   2.306   0.352   8.274 -0.8511 -0.0031 -0.1400
 1491TIP3    H126108   2.344   0.315   8.353 -2.0946 -0.7599  0.1331
 1491TIP3    H226109   2.371   0.335   8.206 -0.9314 -1.8209  0.1803
 1492TIP3   OH226110   1.668   3.232   1.121 -0.0548  0.0244 -0.0792
 1492TIP3    H126111   1.751   3.250   1.077 -0.5974  1.0645 -0.7343
 1492TIP3    H226112   1.602   3.240   1.052 -0.8534  0.9335  0.7475
 1493TIP3   OH226113   2.152   5.056   7.344  0.3715 -0.1427  0.6047
 1493TIP3    H126114   2.081   4.993   7.355  0.0573  0.2560  0.8736
 1493TIP3    H226115   2.171   5.055   7.250  0.5104 -0.7897  0.6350
 1494TIP3   OH226116   0.614   5.559   1.856  0.0627 -0.2439  0.5079
 1494TIP3    H126117   0.585   5.570   1.946 -1.2039  0.3574  0.0623
 1494TIP3    H226118   0.532   5.552   1.806  0.7316  0.1249 -0.6666
 1495TIP3   OH226119   5.728   0.582   0.173  0.0112 -0.0192  0.0429
 1495TIP3    H126120   5.695   0.662   0.215 -1.4503 -1.4462  1.8135
 1495TIP3    H226121   5.651   0.545   0.129  0.3626 -1.0276  0.2558
 1496TIP3   OH226122   1.409   4.619   0.015  0.0967  0.1924  0.8993
 1496TIP3    H126123   1.412   4.602  -0.080  1.9780  1.2557  0.7195
 1496TIP3    H226124   1.401   4.533   0.055  0.2099 -0.3460 -0.2043
 1497TIP3   OH226125   1.818   5.662   1.811 -0.2745 -0.1351 -0.2852
 1497TIP3    H126126   1.731   5.694   1.832 -1.2204 -2.2219 -0.8274
 1497TIP3    H226127   1.815   5.568   1.829  2.4729 -0.0042  1.5990
 1498TIP3   OH226128   0.797   4.390   6.597 -0.0587  0.5397  0.2022
 1498TIP3    H126129   0.759   4.385   6.509  2.3552  2.3781 -1.0704
 1498TIP3    H226130   0.724   4.421   6.652 -1.3315  0.4984 -1.3676
 1499TIP3   OH226131   5.448   0.272   2.111 -0.0240  0.6088  0.7973
 1499TIP3    H126132   5.439   0.244   2.020  0.7583  1.0847  0.5597
 1499TIP3    H226133   5.401   0.355   2.116  0.8294  1.1157  0.5515
 1500TIP3   OH226134   6.267   4.363   7.166 -0.9411  0.4504  0.2057
 1500TIP3    H126135   6.280   4.357   7.261 -3.2636 -1.1334  0.5095
 1500TIP3    H226136   6.293   4.277   7.133 -2.6041  0.0704 -0.1934
 1501TIP3   OH226137   0.107   4.998   8.154  0.0109 -0.0077  0.0782
 1501TIP3    H126138   0.100   4.999   8.250  1.2590 -1.4359  0.2285
 1501TIP3    H226139   0.192   5.038   8.136  0.2951 -0.7882 -0.3459
 1502TIP3   OH226140   0.787   0.497   8.164 -0.5664  0.4335  0.4505
 1502TIP3    H126141   0.701   0.513   8.202 -0.6392  0.5003  0.2579
 1502TIP3    H226142   0.771   0.433   8.095 -0.1687 -1.1230  1.7299
 1503TIP3   OH226143   0.623   2.097   0.219  0.3095 -0.2240  0.0758
 1503TIP3    H126144   0.616   2.018   0.272 -0.6727 -1.4531 -1.7889
 1503TIP3    H226145   0.716   2.106   0.202  0.3019 -1.9995 -1.1036
 1504TIP3   OH226146   5.391   4.824   1.796  0.2417  0.3473 -0.1433
 1504TIP3    H126147   5.438   4.742   1.781  4.6327  1.7364  3.4925
 1504TIP3    H226148   5.435   4.887   1.739 -1.2305  0.7682 -0.8641
 1505TIP3   OH226149   4.348   6.577   0.076 -0.1032  0.5579  0.2253
 1505TIP3    H126150   4.426   6.632   0.079  1.2131 -1.1914 -0.3980
 1505TIP3    H226151   4.351   6.527   0.157  0.0841 -0.3759 -0.3523
 1506TIP3   OH226152   4.245   2.597   1.762  0.4619  0.2946  0.2062
 1506TIP3    H126153   4.156   2.560   1.756 -0.3242  2.1812 -1.0028
 1506TIP3    H226154   4.260   2.608   1.855 -0.2033 -0.8547  0.4797
 1507TIP3   OH226155   5.453   3.306   6.327  0.3801  0.0116  0.2453
 1507TIP3    H126156   5.395   3.382   6.336 -0.4103 -0.7084  1.5148
 1507TIP3    H226157   5.400   3.242   6.277  1.0924  0.3157 -0.9450
 1508TIP3   OH226158   1.066   3.946   2.374  0.0779 -0.0455 -0.3876
 1508TIP3    H126159   0.981   3.985   2.393 -0.3309 -0.3155 -1.6154
 1508TIP3    H226160   1.126   4.021   2.369 -0.2369  0.2127 -0.3344
 1509TIP3   OH226161   4.674   1.130   1.532  0.2211  0.2828 -0.2746
 1509TIP3    H126162   4.698   1.040   1.554  1.0471  0.5579 -0.0215
 1509TIP3    H226163   4.655   1.170   1.617 -0.4715  0.2662 -0.4135
 1510TIP3   OH226164   2.720   5.690   1.363  0.0667  0.1493 -0.4575
 1510TIP3    H126165   2.643   5.689   1.307 -1.6238  0.2397  1.6997
 1510TIP3    H226166   2.740   5.598   1.379  0.5205  0.1250 -1.1631
 1511TIP3   OH226167   6.490   5.686   8.800  0.1258 -0.1092 -0.3806
 1511TIP3    H126168   6.439   5.649   8.872 -0.5890  1.9855  0.2334
 1511TIP3    H226169   6.571   5.717   8.842  0.4127 -0.3174 -0.7736
 1512TIP3   OH226170   0.847   1.984   1.389  0.2077 -0.0505 -0.1461
 1512TIP3    H126171   0.859   1.891   1.409 -2.9552 -0.5614 -0.1929
 1512TIP3    H226172   0.852   2.027   1.474  2.8712  0.0177 -0.2286
 1513TIP3   OH226173   2.234   1.256   0.022 -0.4138 -0.0002 -0.6649
 1513TIP3    H126174   2.182   1.332   0.050 -0.7784  0.1752 -1.7894
 1513TIP3    H226175   2.249   1.270  -0.071  1.2223 -0.3160 -0.4850
 1514TIP3   OH226176   2.045   2.281   2.453  0.3399  0.3093 -0.2427
 1514TIP3    H126177   2.124   2.227   2.450  0.4299  0.4773 -1.8506
 1514TIP3    H226178   2.068   2.361   2.405 -0.1207  1.3707  1.1980
 1515TIP3   OH226179   4.416   1.314   0.193 -0.2039 -0.0785  0.1203
 1515TIP3    H126180   4.463   1.309   0.277 -0.6551 -1.7051  0.3166
 1515TIP3    H226181   4.481   1.287   0.128 -0.4598 -0.9906  0.2294
 1516TIP3   OH226182   4.797   0.695   8.334 -0.0213  0.1461 -0.1495
 1516TIP3    H126183   4.776   0.778   8.291  0.2085  1.1312  1.5195
 1516TIP3    H226184   4.887   0.676   8.308  0.3087  1.0180  0.3098
 1517TIP3   OH226185   3.088   4.455   0.539 -0.6291 -0.7179  0.2331
 1517TIP3    H126186   2.993   4.468   0.543 -0.6512 -0.6099 -0.6054
 1517TIP3    H226187   3.124   4.542   0.557 -0.7531  0.0810 -2.8213
 1518TIP3   OH226188   2.309   1.004   7.637  0.2603 -0.0750  0.9791
 1518TIP3    H126189   2.346   0.921   7.667  1.1450  0.0786  0.3485
 1518TIP3    H226190   2.257   1.035   7.711  0.2685 -0.9785  1.3748
 1519TIP3   OH226191   0.449   0.191   0.623  0.4114 -0.0279  0.5999
 1519TIP3    H126192   0.432   0.102   0.592  3.2266  0.0982 -1.7605
 1519TIP3    H226193   0.446   0.184   0.718  0.9083 -2.7799  0.4995
 1520TIP3   OH226194   6.761   1.085   8.043 -0.3886  0.2381  0.1753
 1520TIP3    H126195   6.713   1.096   8.125  0.4920  2.6386  0.4643
 1520TIP3    H226196   6.853   1.094   8.068  0.1079 -1.9139 -0.7080
 1521TIP3   OH226197   6.501   1.233   6.884 -0.2275  0.1906 -0.5468
 1521TIP3    H126198   6.448   1.312   6.873  1.0212  0.9387 -1.5206
 1521TIP3    H226199   6.591   1.266   6.891  0.2228 -1.0916  0.0317
 1522TIP3   OH226200   5.971   4.926   0.673 -0.3227 -0.7341  0.5408
 1522TIP3    H126201   5.903   4.885   0.726 -0.5679  0.4892  1.1816
 1522TIP3    H226202   5.934   5.009   0.645  1.7359  1.1180  2.9448
 1523TIP3   OH226203   2.857   0.803   1.299 -0.4430  0.3580  0.1221
 1523TIP3    H126204   2.834   0.819   1.390 -0.5451  0.2987  0.1065
 1523TIP3    H226205   2.857   0.708   1.290  1.5787  0.2568  0.5931
 1524TIP3   OH226206   1.109   1.203   1.736  0.6307 -0.3296  0.0383
 1524TIP3    H126207   1.181   1.151   1.701  0.7464  1.1029 -2.0507
 1524TIP3    H226208   1.032   1.149   1.723  1.0479 -0.9909  0.2527
 1525TIP3   OH226209   3.005   0.255   1.609 -0.3067 -0.3391  0.1792
 1525TIP3    H126210   3.025   0.248   1.702  0.8112 -0.2156 -0.0467
 1525TIP3    H226211   2.979   0.346   1.597 -0.0959 -0.2616  0.3032
 1526TIP3   OH226212   5.868   1.213   0.656 -0.0782 -0.0508  0.9042
 1526TIP3    H126213   5.780   1.175   0.653 -0.1078  0.0243  0.8291
 1526TIP3    H226214   5.888   1.217   0.750 -0.0458 -0.3176  0.9098
 1527TIP3   OH226215   5.783   5.094   2.763  0.0182  0.0951 -0.1532
 1527TIP3    H126216   5.765   5.025   2.826 -0.7718  0.7684  0.3756
 1527TIP3    H226217   5.803   5.047   2.681  1.3992 -0.7903  0.6440
 1528TIP3   OH226218   4.741   4.922   1.780  0.7242 -0.9746  0.0694
 1528TIP3    H126219   4.741   4.898   1.872  0.9484 -0.3227  0.2504
 1528TIP3    H226220   4.771   5.013   1.779 -1.9016 -0.0213 -0.3928
 1529TIP3   OH226221   6.453   1.073   6.412 -0.0042 -0.3471 -0.0808
 1529TIP3    H126222   6.418   1.105   6.329  1.4832  0.6539 -0.3660
 1529TIP3    H226223   6.376   1.065   6.469 -1.1950 -2.0355 -1.7994
 1530TIP3   OH226224   1.203   0.394   1.397 -0.0507 -0.1222 -0.1445
 1530TIP3    H126225   1.288   0.388   1.352 -0.2571  0.3393 -0.6142
 1530TIP3    H226226   1.203   0.321   1.458  0.0158 -1.0978 -1.2775
 1531TIP3   OH226227   3.194   3.481   8.716 -0.2907 -0.0398  0.0438
 1531TIP3    H126228   3.197   3.494   8.811  0.9826  0.9175 -0.0982
 1531TIP3    H226229   3.153   3.395   8.705  0.2377 -0.5168  1.5004
 1532TIP3   OH226230   5.012   0.027   8.561  0.5076 -0.7860  0.4248
 1532TIP3    H126231   5.004  -0.029   8.637 -0.3885 -0.4676  0.5692
 1532TIP3    H226232   5.102   0.060   8.565  1.5327 -3.2602 -0.4261
 1533TIP3   OH226233   0.425   0.152   1.951  0.1730 -0.3435 -0.0943
 1533TIP3    H126234   0.349   0.114   1.907  0.6867 -0.9104 -0.5067
 1533TIP3    H226235   0.397   0.161   2.042 -1.1151  1.4036 -0.5886
 1534TIP3   OH226236   6.041   0.200   1.521 -0.0729 -0.0467  0.0676
 1534TIP3    H126237   6.052   0.113   1.559 -2.1886 -0.5092 -0.2303
 1534TIP3    H226238   6.043   0.260   1.596 -3.0867 -0.8430  0.9120
 1535TIP3   OH226239   4.972   1.291   7.415  0.2459 -0.0120  0.5442
 1535TIP3    H126240   4.986   1.210   7.365 -1.2496 -0.3785  0.6549
 1535TIP3    H226241   5.056   1.309   7.455  1.4469  0.1331 -1.8493
 1536TIP3   OH226242   0.253   3.702   2.305 -0.1607  0.2661 -0.0645
 1536TIP3    H126243   0.235   3.608   2.303 -1.0282  0.4362 -1.0475
 1536TIP3    H226244   0.172   3.741   2.338 -0.8532  0.8651 -2.2965
 1537TIP3   OH226245   3.426   2.332   1.649  0.2356 -0.3421 -0.1471
 1537TIP3    H126246   3.485   2.397   1.688 -1.5084  0.8162  0.7067
 1537TIP3    H226247   3.475   2.250   1.653  0.7942  0.0025  3.0582
 1538TIP3   OH226248   2.502   5.415   7.552  0.1092 -0.3141 -0.5918
 1538TIP3    H126249   2.435   5.388   7.489 -0.2744  2.2859 -1.4022
 1538TIP3    H226250   2.584   5.405   7.505  0.1878 -1.8992 -0.1740
 1539TIP3   OH226251   6.261   5.368   0.776 -0.6604  0.0558 -0.4622
 1539TIP3    H126252   6.201   5.324   0.716 -0.6685 -0.8245  0.1774
 1539TIP3    H226253   6.343   5.319   0.769 -0.8401 -0.4197  0.6804
 1540TIP3   OH226254   6.755   1.453   8.611  0.3948 -0.1687 -0.1708
 1540TIP3    H126255   6.813   1.481   8.540 -0.3730  0.1841 -0.6638
 1540TIP3    H226256   6.784   1.503   8.687  1.9296 -1.3241  0.0665
 1541TIP3   OH226257   1.884   5.173   7.100 -0.2546  0.2958 -0.1308
 1541TIP3    H126258   1.797   5.163   7.061  0.8598 -0.4419 -2.6491
 1541TIP3    H226259   1.915   5.083   7.113  1.3160  0.4568 -2.2761
 1542TIP3   OH226260   6.320   6.455   8.289  0.2139  0.2098  0.6546
 1542TIP3    H126261   6.403   6.440   8.333  0.1591  0.9406  1.0341
 1542TIP3    H226262   6.316   6.389   8.221  2.0552  1.3978 -0.7151
 1543TIP3   OH226263   4.624   6.112   0.742 -0.1048 -0.5515  0.9467
 1543TIP3    H126264   4.668   6.196   0.728 -1.1479 -0.0632  0.5294
 1543TIP3    H226265   4.533   6.135   0.761 -0.0416 -1.4913  2.6035
 1544TIP3   OH226266   5.658   5.210   7.800  0.5480  0.2992 -0.3829
 1544TIP3    H126267   5.663   5.120   7.832  0.6237 -0.1544 -1.6299
 1544TIP3    H226268   5.629   5.261   7.876  0.6379 -0.7496  0.3700
 1545TIP3   OH226269   3.647   1.853   7.125 -0.1276 -0.4277  0.3668
 1545TIP3    H126270   3.587   1.911   7.172 -1.3889 -2.5605  1.6236
 1545TIP3    H226271   3.592   1.810   7.060  0.0372 -2.1603  1.3027
 1546TIP3   OH226272   6.484   5.768   7.834  0.2885  0.1311 -0.6709
 1546TIP3    H126273   6.444   5.682   7.821  0.9915 -0.0045 -2.2294
 1546TIP3    H226274   6.425   5.814   7.894  0.8372 -2.0311  1.6969
 1547TIP3   OH226275   5.597   6.095   0.865  0.3986  0.2825  0.5193
 1547TIP3    H126276   5.649   6.123   0.790 -0.7392  1.7307  0.2316
 1547TIP3    H226277   5.575   6.176   0.911  0.6253 -0.5336  2.1448
 1548TIP3   OH226278   2.507   4.628   8.786 -0.7618  0.4802  0.4070
 1548TIP3    H126279   2.468   4.697   8.839 -0.8889 -0.3170  1.3875
 1548TIP3    H226280   2.436   4.565   8.773 -1.2210  1.4159 -2.1516
 1549TIP3   OH226281   5.660   4.925   6.739 -0.0224  0.3056  0.0999
 1549TIP3    H126282   5.635   4.946   6.648  0.9200  0.7005 -0.0773
 1549TIP3    H226283   5.752   4.950   6.745  0.2467 -0.8006  0.8363
 1550TIP3   OH226284   6.678   3.287   1.894 -0.0243 -0.1788 -0.3887
 1550TIP3    H126285   6.711   3.210   1.940 -2.1997 -0.1866  1.3315
 1550TIP3    H226286   6.641   3.252   1.812 -0.7098 -0.9474  0.2283
 1551TIP3   OH226287   5.455   3.705   0.826  0.6399  0.1405 -0.0484
 1551TIP3    H126288   5.550   3.693   0.816  0.5099 -0.2970 -0.8226
 1551TIP3    H226289   5.420   3.693   0.738 -0.1448  0.2552  0.2433
 1552TIP3   OH226290   2.145   2.532   1.607  0.1923  0.3864  0.0664
 1552TIP3    H126291   2.179   2.621   1.604 -1.2021  0.9304 -0.7523
 1552TIP3    H226292   2.102   2.520   1.522 -0.0359 -0.9066  0.3429
 1553TIP3   OH226293   1.901   2.030   7.083 -0.0731 -0.3008 -0.2915
 1553TIP3    H126294   1.825   2.067   7.128 -0.8523 -1.1314 -0.8682
 1553TIP3    H226295   1.923   2.094   7.015  0.2633  0.3280  0.4048
 1554TIP3   OH226296   5.267   1.789   7.554  0.3935  0.0988  0.2679
 1554TIP3    H126297   5.296   1.719   7.496  0.4280 -0.0633  0.4803
 1554TIP3    H226298   5.346   1.839   7.573  0.6312 -0.5991  1.1986
 1555TIP3   OH226299   6.224   1.514   7.384 -0.2214  0.1883  0.0769
 1555TIP3    H126300   6.281   1.540   7.312 -0.4217 -1.6434 -0.8110
 1555TIP3    H226301   6.274   1.533   7.463  1.1844 -0.3568 -0.6451
 1556TIP3   OH226302   0.443   5.651   1.544  0.2408  0.6324 -0.1635
 1556TIP3    H126303   0.412   5.741   1.558  0.1180  0.8474 -1.6791
 1556TIP3    H226304   0.372   5.596   1.576  0.5227  1.0414  1.2575
 1557TIP3   OH226305   1.375   4.743   0.495 -0.2436 -0.0582  0.3690
 1557TIP3    H126306   1.419   4.725   0.412 -0.8056 -0.0898  0.0777
 1557TIP3    H226307   1.393   4.835   0.513 -1.1922  0.2980 -0.4378
 1558TIP3   OH226308   0.934   6.650   2.392 -0.7033 -0.4485  0.3433
 1558TIP3    H126309   0.971   6.603   2.317 -1.3987 -0.9048  0.2695
 1558TIP3    H226310   0.924   6.740   2.361 -1.0598 -0.6492 -0.1449
 1559TIP3   OH226311   0.399   0.171   0.198 -0.7888  0.2210 -0.1264
 1559TIP3    H126312   0.436   0.093   0.239 -0.8332 -0.6268 -1.6296
 1559TIP3    H226313   0.424   0.243   0.256 -2.3490 -1.0743  2.3309
 1560TIP3   OH226314   0.380   2.154   1.254  0.0450  0.3882 -0.3937
 1560TIP3    H126315   0.415   2.066   1.271  0.8218  0.7818  0.1165
 1560TIP3    H226316   0.296   2.155   1.299 -0.2661 -0.2962 -0.9310
 1561TIP3   OH226317   5.476   2.185   2.106 -0.0489 -0.2497 -0.0411
 1561TIP3    H126318   5.520   2.183   2.192  0.1629 -0.0555 -0.1429
 1561TIP3    H226319   5.390   2.222   2.124  0.6515  1.5399 -0.1888
 1562TIP3   OH226320   4.967   0.358   8.522 -0.0124  0.1747  0.4859
 1562TIP3    H126321   5.059   0.340   8.537  0.2494  2.0960  1.3624
 1562TIP3    H226322   4.940   0.291   8.459  1.4038 -1.7734  1.8446
 1563TIP3   OH226323   6.805   1.839   1.331  0.3292  0.5904  0.2794
 1563TIP3    H126324   6.789   1.920   1.378  0.3983  0.2799  0.8390
 1563TIP3    H226325   6.775   1.857   1.241 -0.3687  0.9780  0.5850
 1564TIP3   OH226326   2.465   6.615   6.441 -0.1888 -0.0433 -0.7448
 1564TIP3    H126327   2.379   6.655   6.452 -0.5404 -1.0678  0.4886
 1564TIP3    H226328   2.447   6.520   6.439  0.8393 -0.2470 -1.2927
 1565TIP3   OH226329   5.505   2.007   6.431 -0.0503  0.1867 -0.0080
 1565TIP3    H126330   5.591   2.036   6.462 -0.2615  1.2153 -0.3533
 1565TIP3    H226331   5.460   2.087   6.405  0.1166 -0.5694 -2.9505
 1566TIP3   OH226332   3.231   1.256   1.070 -0.4961 -0.5684 -0.0069
 1566TIP3    H126333   3.248   1.191   1.002  0.8710 -0.1726 -0.0868
 1566TIP3    H226334   3.309   1.312   1.069 -0.7811 -0.1060  1.3836
 1567TIP3   OH226335   0.408   4.402   8.301 -0.2774 -0.4782  0.2247
 1567TIP3    H126336   0.430   4.361   8.384  0.7808 -0.0588  0.1679
 1567TIP3    H226337   0.477   4.466   8.287 -1.0471  0.2251 -0.4494
 1568TIP3   OH226338   2.426   0.716   1.929 -0.3403  0.1967 -0.8106
 1568TIP3    H126339   2.409   0.806   1.957  0.5614 -0.4638  2.1582
 1568TIP3    H226340   2.370   0.662   1.985 -1.5848 -1.1482 -3.1598
 1569TIP3   OH226341   4.128   6.137   1.431 -0.7515  0.2333  0.5720
 1569TIP3    H126342   4.157   6.077   1.362 -0.9929  1.7580 -0.9380
 1569TIP3    H226343   4.189   6.210   1.427 -2.3468  1.6151  0.0695
 1570TIP3   OH226344   3.460   0.986   7.661 -0.3674 -0.0879  0.4568
 1570TIP3    H126345   3.371   0.965   7.690  0.5167 -2.3228  1.8746
 1570TIP3    H226346   3.479   0.921   7.593  0.2005  0.2989  0.2411
 1571TIP3   OH226347   0.209   3.443   0.797 -0.2454  0.5445  0.8294
 1571TIP3    H126348   0.225   3.533   0.767  0.8084  0.6001  1.5117
 1571TIP3    H226349   0.146   3.408   0.734  3.3154 -0.0157 -2.7943
 1572TIP3   OH226350   3.845   3.172   0.330 -0.6574  0.4452 -0.4419
 1572TIP3    H126351   3.803   3.218   0.257 -0.6770 -0.1511 -0.8170
 1572TIP3    H226352   3.880   3.092   0.290  2.5109  1.7552 -0.5531
 1573TIP3   OH226353   1.306   0.395   6.381 -0.0592 -0.2887  0.3082
 1573TIP3    H126354   1.341   0.311   6.354  0.1571  0.1363 -0.8133
 1573TIP3    H226355   1.222   0.374   6.422  0.7142 -1.1677  1.4983
 1574TIP3   OH226356   5.031   2.504   1.151  0.1862 -0.4276 -0.1881
 1574TIP3    H126357   5.092   2.519   1.223  1.2140  1.0480 -1.3349
 1574TIP3    H226358   5.085   2.472   1.079 -0.7124 -1.0681 -0.6036
 1575TIP3   OH226359   3.651   1.939   1.412  0.6023  0.2015 -0.0924
 1575TIP3    H126360   3.564   1.899   1.403  0.9919 -0.9190  0.8785
 1575TIP3    H226361   3.674   1.966   1.323 -1.7292  2.7596 -0.0862
 1576TIP3   OH226362   0.693   2.039   8.211 -0.0593 -0.1917 -0.1880
 1576TIP3    H126363   0.648   2.117   8.242 -1.6826 -0.9836 -0.4401
 1576TIP3    H226364   0.700   1.982   8.288 -0.0178 -0.3158 -0.2812
 1577TIP3   OH226365   6.072   2.607   1.459 -0.1131  0.1384  0.0890
 1577TIP3    H126366   6.158   2.583   1.422 -0.8523 -1.4018 -0.7342
 1577TIP3    H226367   6.070   2.564   1.544 -0.7407 -1.3613 -0.6476
 1578TIP3   OH226368   2.149   1.905   6.423 -0.0411  0.3192 -0.1729
 1578TIP3    H126369   2.059   1.932   6.406  0.1423  0.6032 -0.7188
 1578TIP3    H226370   2.144   1.810   6.437 -0.2637  0.1370 -1.4014
 1579TIP3   OH226371   0.564   3.372   0.508  0.5594  0.2649 -0.5219
 1579TIP3    H126372   0.629   3.330   0.452  0.6427 -0.6683  0.2457
 1579TIP3    H226373   0.510   3.300   0.541  0.8973  0.6973  1.0775
 1580TIP3   OH226374   0.563   5.288   7.755  0.0236  0.3658 -0.2005
 1580TIP3    H126375   0.574   5.204   7.711 -0.9445  0.6815 -1.0733
 1580TIP3    H226376   0.478   5.281   7.798  0.4254  0.5119  0.6394
 1581TIP3   OH226377   4.041   1.059   1.096 -0.0463  0.4028 -0.1573
 1581TIP3    H126378   3.984   1.070   1.020  0.2915  1.4268 -0.2800
 1581TIP3    H226379   4.126   1.037   1.060 -0.2390 -0.6858  0.0085
 1582TIP3   OH226380   2.815   0.004   1.061 -0.1425 -0.5885 -0.4326
 1582TIP3    H126381   2.779   0.092   1.051  0.1219 -0.4721 -0.3660
 1582TIP3    H226382   2.753  -0.041   1.118 -0.3177 -0.4694 -0.5273
 1583TIP3   OH226383   5.047   4.047   1.195 -0.6795  0.5772 -0.2404
 1583TIP3    H126384   5.018   4.070   1.283  0.9305  1.0959  0.1995
 1583TIP3    H226385   4.990   4.097   1.137 -1.0968  1.0346  0.5501
 1584TIP3   OH226386   1.162   5.192   7.002 -0.5511  0.6183  0.5703
 1584TIP3    H126387   1.193   5.279   7.028  0.6496  0.4528 -0.2183
 1584TIP3    H226388   1.182   5.186   6.909  0.2025 -0.8246  0.7967
 1585TIP3   OH226389   1.258   6.621   1.969 -0.2837 -0.2800  0.1794
 1585TIP3    H126390   1.195   6.552   1.947  0.4238 -1.2365  1.0873
 1585TIP3    H226391   1.342   6.587   1.939 -0.1728  1.0696 -1.1897
 1586TIP3   OH226392   6.798   3.111   2.458 -0.1491  0.4054  0.5466
 1586TIP3    H126393   6.814   3.020   2.434  0.2538  0.2905  1.2250
 1586TIP3    H226394   6.799   3.159   2.375  1.7547  0.1071  0.3490
 1587TIP3   OH226395   6.713   2.673   1.712 -0.0002  0.3422 -0.3485
 1587TIP3    H126396   6.777   2.619   1.758 -0.3861  0.2777  0.1212
 1587TIP3    H226397   6.628   2.637   1.738 -0.2551  1.0398 -0.1909
 1588TIP3   OH226398   1.305   2.112   6.466 -0.6004  0.2523 -0.3111
 1588TIP3    H126399   1.366   2.068   6.406  0.7349  0.0606  1.1412
 1588TIP3    H226400   1.348   2.109   6.551 -2.4854  0.4563  0.7090
 1589TIP3   OH226401   4.976   4.832   8.369 -0.2255  0.0179 -0.4423
 1589TIP3    H126402   4.911   4.763   8.358 -0.6896 -0.0073  1.8208
 1589TIP3    H226403   4.934   4.896   8.427  1.1012  0.9322 -0.4266
 1590TIP3   OH226404   2.740   6.035   7.416  0.1092 -0.5419 -0.7662
 1590TIP3    H126405   2.791   5.979   7.474  0.6786 -0.4221 -1.1498
 1590TIP3    H226406   2.659   6.052   7.465  0.7860 -0.0179  0.2146
 1591TIP3   OH226407   5.178   4.894   6.576  0.1028  0.3785  0.6247
 1591TIP3    H126408   5.119   4.818   6.575  1.8544 -1.0493  1.1227
 1591TIP3    H226409   5.119   4.969   6.583 -1.7718 -0.8254 -0.8808
 1592TIP3   OH226410   5.796   5.876   8.239  1.6542  0.6034 -0.8676
 1592TIP3    H126411   5.818   5.950   8.183  0.5885  1.6489  0.0448
 1592TIP3    H226412   5.753   5.813   8.181  2.9254  0.4904 -1.7284
 1593TIP3   OH226413   1.816   3.821   7.022  0.1839  0.0450  0.0583
 1593TIP3    H126414   1.810   3.726   7.023 -1.6789  0.1068 -0.6339
 1593TIP3    H226415   1.728   3.851   7.048  0.9345  1.5824  1.0008
 1594TIP3   OH226416   3.391   1.214   7.424 -0.6059  0.5476  0.8961
 1594TIP3    H126417   3.435   1.226   7.508 -2.2463 -0.7119  2.0020
 1594TIP3    H226418   3.435   1.138   7.384  1.1954  2.0614 -0.1659
 1595TIP3   OH226419   6.162   6.054   8.296 -0.5002  0.5937  0.2943
 1595TIP3    H126420   6.131   5.969   8.327 -0.5685  0.4767 -0.0963
 1595TIP3    H226421   6.244   6.068   8.344 -0.0596 -0.0721 -0.2531
 1596TIP3   OH226422   1.304   0.440   0.765  0.5223 -0.1740 -0.2310
 1596TIP3    H126423   1.258   0.392   0.696 -1.7184  2.2138 -0.5930
 1596TIP3    H226424   1.266   0.407   0.847  1.1680 -1.0520 -0.2707
 1597TIP3   OH226425   5.108   0.257   2.035  0.5337  0.0442  0.5324
 1597TIP3    H126426   5.115   0.205   1.954  0.1755  0.7049  0.0673
 1597TIP3    H226427   5.015   0.250   2.058  0.5646  0.1541  0.6847
 1598TIP3   OH226428   0.447   2.563   1.733 -0.0279  0.5264 -0.4374
 1598TIP3    H126429   0.499   2.512   1.796  0.1765 -0.3144 -1.2683
 1598TIP3    H226430   0.356   2.541   1.754 -0.0743  1.7769  0.8291
 1599TIP3   OH226431   0.572   2.252   0.507 -0.2136  0.1788 -0.2089
 1599TIP3    H126432   0.509   2.267   0.436 -1.6524  2.0174  1.3398
 1599TIP3    H226433   0.579   2.157   0.513 -3.8965 -0.2264  0.2978
 1600TIP3   OH226434   6.494   2.303   7.231 -0.5889 -0.2921  0.4490
 1600TIP3    H126435   6.567   2.332   7.286 -0.3734 -0.8880  0.4790
 1600TIP3    H226436   6.423   2.286   7.293 -0.4078 -0.7719  0.5276
 1601TIP3   OH226437   5.177   4.675   8.590  0.0694  0.6667 -0.3466
 1601TIP3    H126438   5.110   4.743   8.586  0.0595  0.6165 -1.4053
 1601TIP3    H226439   5.178   4.637   8.502  1.1720  0.3672 -0.2244
 1602TIP3   OH226440   2.164   6.225   8.165 -0.5076 -0.9091  0.0756
 1602TIP3    H126441   2.228   6.169   8.121  1.5600  0.4880  1.1189
 1602TIP3    H226442   2.138   6.288   8.098 -1.1736 -1.7800 -0.4927
 1603TIP3   OH226443   6.841   5.229   0.247  0.2219 -0.4857  0.0452
 1603TIP3    H126444   6.900   5.156   0.228  0.3301 -1.1721  2.6645
 1603TIP3    H226445   6.827   5.224   0.342  1.2388  3.6415  0.5947
 1604TIP3   OH226446   1.789   5.715   8.706 -0.1382  0.0953 -0.0904
 1604TIP3    H126447   1.763   5.803   8.677 -0.4946  0.1179  0.2823
 1604TIP3    H226448   1.706   5.673   8.730 -0.0489 -0.6047 -0.9823
 1605TIP3   OH226449   0.013   5.225   1.447 -0.1794 -0.1098 -0.1309
 1605TIP3    H126450  -0.003   5.131   1.439  0.6368 -0.2618 -0.0264
 1605TIP3    H226451  -0.060   5.258   1.499  0.1462 -0.8887  0.8397
 1606TIP3   OH226452   0.049   6.826   8.800  0.2497 -0.0108 -0.3002
 1606TIP3    H126453  -0.018   6.858   8.861  1.9546  0.0063  1.6701
 1606TIP3    H226454   0.086   6.749   8.842 -0.3015 -1.6591 -2.6204
 1607TIP3   OH226455   1.035   0.063   7.459  0.2128 -0.1240 -0.4607
 1607TIP3    H126456   1.041   0.158   7.467 -0.1643 -0.2245  1.4675
 1607TIP3    H226457   1.125   0.033   7.466  0.1274 -0.0425  2.1507
 1608TIP3   OH226458   1.332   1.566   1.252 -0.8963  0.1337 -0.4124
 1608TIP3    H126459   1.258   1.515   1.286 -0.9641  0.1918 -0.4713
 1608TIP3    H226460   1.371   1.509   1.185 -1.0919  0.2380 -0.6162
 1609TIP3   OH226461   1.963   6.750   7.488  0.1054 -0.0170  0.4576
 1609TIP3    H126462   1.986   6.659   7.473 -2.0766 -0.3976 -1.0520
 1609TIP3    H226463   2.046   6.797   7.489  1.2006 -1.8798  0.3079
 1610TIP3   OH226464   0.632   3.433   7.867  0.1928  0.8563 -0.4075
 1610TIP3    H126465   0.583   3.432   7.785  1.1442  0.9656 -0.9839
 1610TIP3    H226466   0.584   3.496   7.922 -0.7563  0.3804 -0.6695
 1611TIP3   OH226467   3.631   2.816   7.372 -0.4188  0.1758  0.2243
 1611TIP3    H126468   3.703   2.879   7.379 -0.0424 -0.2540  0.2775
 1611TIP3    H226469   3.560   2.855   7.422 -0.8611  1.4900 -1.3740
 1612TIP3   OH226470   5.657   1.686   6.532  0.2904 -0.5396 -0.4514
 1612TIP3    H126471   5.751   1.673   6.540  0.2674  0.3683  2.5100
 1612TIP3    H226472   5.624   1.603   6.499  2.0010 -1.3092 -0.3243
 1613TIP3   OH226473   4.507   0.916   1.356  0.3089  0.0070 -0.0791
 1613TIP3    H126474   4.480   0.961   1.436  2.2286  0.1280  0.5425
 1613TIP3    H226475   4.594   0.881   1.375 -0.4288 -2.6323 -1.0973
 1614TIP3   OH226476   2.266   0.325   1.261 -0.0326  0.4190  0.7851
 1614TIP3    H126477   2.328   0.369   1.319  1.3387 -1.2665  0.6750
 1614TIP3    H226478   2.273   0.372   1.178  0.2181  0.9712  1.1171
 1615TIP3   OH226479   0.841   6.407   8.734  0.3638  0.1651 -0.5126
 1615TIP3    H126480   0.816   6.350   8.807  0.6314  1.2487  0.4662
 1615TIP3    H226481   0.909   6.359   8.687  2.5368  0.6734  1.8497
 1616TIP3   OH226482   5.538   2.276   8.696  0.0148 -0.2415 -0.4096
 1616TIP3    H126483   5.517   2.278   8.789 -1.3570  0.4323 -0.7159
 1616TIP3    H226484   5.538   2.183   8.673  1.0807 -0.4615  0.3930
 1617TIP3   OH226485   6.032   6.780   7.819 -0.2359 -0.1712  0.4812
 1617TIP3    H126486   6.003   6.807   7.906  0.5025  0.9465  0.4062
 1617TIP3    H226487   6.030   6.684   7.821 -2.1734 -0.1579  1.0379
 1618TIP3   OH226488   0.951   5.701   0.437  0.1838 -0.5179  0.2529
 1618TIP3    H126489   0.948   5.637   0.508  1.5880 -1.1679 -0.2354
 1618TIP3    H226490   0.893   5.667   0.370 -0.0233 -0.6494  0.5009
 1619TIP3   OH226491   2.266   6.519   8.350  0.3480 -0.4911  0.1692
 1619TIP3    H126492   2.347   6.557   8.315  0.5355 -0.0609  1.0592
 1619TIP3    H226493   2.270   6.427   8.324  0.5098 -0.2003 -0.8872
 1620TIP3   OH226494   1.187   4.068   7.165  0.1035 -0.6305 -0.2551
 1620TIP3    H126495   1.144   4.106   7.088  1.5234  1.3790 -0.1480
 1620TIP3    H226496   1.191   4.141   7.227  2.4913 -1.0653  0.1830
 1621TIP3   OH226497   5.214   5.852   2.475 -0.1841  0.1236  0.1455
 1621TIP3    H126498   5.272   5.901   2.534 -0.0155  0.9261 -0.6599
 1621TIP3    H226499   5.236   5.885   2.388  0.0515 -1.5280 -0.4563
 1622TIP3   OH226500   0.386   1.702   0.302 -0.3722 -0.0217  0.0284
 1622TIP3    H126501   0.417   1.612   0.297  2.0458  0.5759  2.0734
 1622TIP3    H226502   0.302   1.696   0.349  0.1322 -1.1618  0.8312
 1623TIP3   OH226503   5.682   3.858   6.882  0.0263 -0.5131  0.4353
 1623TIP3    H126504   5.724   3.826   6.803 -0.8275  0.2667 -0.3662
 1623TIP3    H226505   5.726   3.941   6.901 -0.0064 -0.5263  0.5742
 1624TIP3   OH226506   6.644   3.079   8.756  0.7422  0.0446 -0.3905
 1624TIP3    H126507   6.722   3.111   8.711 -0.0931  0.3774 -1.6629
 1624TIP3    H226508   6.642   2.985   8.737 -0.4879  0.4389 -2.5460
 1625TIP3   OH226509   6.461   0.096   7.912  0.1376  0.0984 -0.2985
 1625TIP3    H126510   6.400   0.147   7.858  0.5423  0.1087 -0.7505
 1625TIP3    H226511   6.408   0.066   7.986 -0.9140 -1.3462 -1.5550
 1626TIP3   OH226512   1.796   5.474   0.545 -0.4075  0.0283 -0.1725
 1626TIP3    H126513   1.766   5.552   0.592 -0.6939  0.3251 -0.8329
 1626TIP3    H226514   1.736   5.405   0.573 -0.5946  0.2112 -0.1164
 1627TIP3   OH226515   6.814   5.603   0.107 -0.2975 -0.1556 -0.0677
 1627TIP3    H126516   6.797   5.547   0.182 -0.7016 -0.3204 -0.2783
 1627TIP3    H226517   6.773   5.687   0.130  2.5888  0.9735  1.4088
 1628TIP3   OH226518   2.145   0.720   1.821 -0.5011  1.1049 -0.2722
 1628TIP3    H126519   2.208   0.677   1.879 -1.5426 -0.2825 -0.1177
 1628TIP3    H226520   2.192   0.796   1.787  0.8226  0.8088  0.7978
 1629TIP3   OH226521   5.206   6.334   2.843 -0.5413  0.0167 -0.0046
 1629TIP3    H126522   5.162   6.405   2.795 -0.0776 -0.5004 -1.2500
 1629TIP3    H226523   5.145   6.261   2.839 -0.9390  0.2698  1.1186
 1630TIP3   OH226524   2.594   4.434   1.646 -0.4058  0.1948 -0.3163
 1630TIP3    H126525   2.520   4.395   1.600 -0.9630  0.0621  0.6524
 1630TIP3    H226526   2.581   4.408   1.738  0.4333  0.7952 -0.0155
 1631TIP3   OH226527   3.084   5.822   6.669 -0.5338  0.2952  0.0334
 1631TIP3    H126528   2.993   5.792   6.668 -0.0541 -1.3022 -1.6485
 1631TIP3    H226529   3.079   5.913   6.699 -2.5523 -0.0536  0.9801
 1632TIP3   OH226530   4.413   6.640   7.488  0.0536  0.1300  0.5199
 1632TIP3    H126531   4.385   6.664   7.577  1.2569 -0.5073  1.1021
 1632TIP3    H226532   4.505   6.665   7.485  0.2888 -0.7943 -0.2013
 1633TIP3   OH226533   1.623   1.534   6.640  0.0446  0.1672 -0.4420
 1633TIP3    H126534   1.535   1.514   6.672  0.3868  1.1889  1.2349
 1633TIP3    H226535   1.646   1.458   6.585 -2.0428  0.1204 -1.3313
 1634TIP3   OH226536   6.606   2.408   7.564  0.2900  0.5978 -0.1299
 1634TIP3    H126537   6.683   2.463   7.550  0.6520  0.3627  0.8446
 1634TIP3    H226538   6.594   2.408   7.659 -0.7594  0.4186 -0.2530
 1635TIP3   OH226539   1.905   5.314   6.519  1.1094 -0.1696 -0.2611
 1635TIP3    H126540   1.959   5.308   6.598  0.2145 -1.2835  0.3032
 1635TIP3    H226541   1.937   5.243   6.463  0.8760 -0.2245 -0.3276
 1636TIP3   OH226542   2.934   6.535   8.763  0.0427  0.0341 -0.2190
 1636TIP3    H126543   2.963   6.461   8.816 -0.6982  0.6172  1.0277
 1636TIP3    H226544   2.899   6.598   8.826 -2.7691 -0.0926 -1.4893
 1637TIP3   OH226545   2.656   5.424   7.083 -0.3186  0.0856  0.2387
 1637TIP3    H126546   2.749   5.411   7.067 -0.3012 -1.0921  1.1642
 1637TIP3    H226547   2.625   5.475   7.008  0.9971  0.2063 -0.2389
 1638TIP3   OH226548   0.371   3.347   2.262 -0.2223  0.5622 -0.4280
 1638TIP3    H126549   0.419   3.301   2.331 -0.7402 -0.1461 -0.5263
 1638TIP3    H226550   0.279   3.333   2.283 -0.4024 -0.3257 -1.6751
 1639TIP3   OH226551   1.450   2.157   1.239  0.2476 -0.5412  0.2680
 1639TIP3    H126552   1.405   2.089   1.189 -3.3318  0.9286  1.1938
 1639TIP3    H226553   1.449   2.126   1.329  1.0986 -0.4548  0.3176
 1640TIP3   OH226554   6.112   3.429   1.917  0.5345  0.4787  0.3953
 1640TIP3    H126555   6.110   3.505   1.974  1.2138  0.5343  0.3497
 1640TIP3    H226556   6.189   3.379   1.945  0.2871 -0.0205  0.2062
 1641TIP3   OH226557   6.153   2.096   7.420 -0.5506  0.0689  0.9040
 1641TIP3    H126558   6.200   2.038   7.481  2.2264 -0.7208 -1.7210
 1641TIP3    H226559   6.208   2.174   7.415  0.8844 -0.9624 -2.4289
 1642TIP3   OH226560   2.851   6.523   7.380  0.9597 -0.6404  0.1288
 1642TIP3    H126561   2.768   6.570   7.371  0.1404 -1.3543  2.8416
 1642TIP3    H226562   2.918   6.590   7.366 -0.0946  0.3341 -0.4129
 1643TIP3   OH226563   6.392   1.705   8.197  0.0620  0.3017 -1.0546
 1643TIP3    H126564   6.372   1.798   8.196  1.5175  0.6428 -0.9904
 1643TIP3    H226565   6.488   1.701   8.205 -0.0392 -1.1943 -0.2012
 1644TIP3   OH226566   6.152   6.474   7.171  0.4561 -0.3236  0.6628
 1644TIP3    H126567   6.225   6.421   7.203  0.6916 -0.4625 -0.0720
 1644TIP3    H226568   6.194   6.554   7.138  0.0704  0.5045  2.1003
 1645TIP3   OH226569   4.867   0.318   1.267  0.0676 -0.1827 -0.0142
 1645TIP3    H126570   4.789   0.363   1.298  0.1197  0.3027 -0.5705
 1645TIP3    H226571   4.903   0.275   1.345 -0.6405 -0.2474  0.2810
 1646TIP3   OH226572   1.408   2.594   7.960 -0.2549 -0.8783  0.2846
 1646TIP3    H126573   1.418   2.547   8.042 -1.0840 -1.4224  0.0955
 1646TIP3    H226574   1.322   2.566   7.927 -0.0021 -0.5570 -0.6864
 1647TIP3   OH226575   3.910   0.184   7.042 -0.8440  0.2113  0.1982
 1647TIP3    H126576   3.990   0.163   6.994  0.4141  2.2528  1.2276
 1647TIP3    H226577   3.863   0.244   6.984 -1.4203 -0.6124 -0.2042
 1648TIP3   OH226578   4.920   0.963   1.803  0.0392  0.1303  0.1819
 1648TIP3    H126579   4.919   0.930   1.892 -1.3446 -0.4522 -0.0132
 1648TIP3    H226580   4.980   0.905   1.756  0.2269 -0.0005  0.5831
 1649TIP3   OH226581   3.804   1.419   1.978 -0.0339 -0.1466 -0.2569
 1649TIP3    H126582   3.732   1.479   1.955 -1.6507 -2.0154 -0.3958
 1649TIP3    H226583   3.856   1.467   2.041  0.3053  2.4015 -2.2906
 1650TIP3   OH226584   5.144   3.396   7.539 -1.0687 -0.4329 -0.0307
 1650TIP3    H126585   5.057   3.364   7.561 -0.6924 -1.7967 -0.4509
 1650TIP3    H226586   5.142   3.407   7.444 -1.0238  0.3329  0.0457
 1651TIP3   OH226587   3.771   0.252   8.779  0.0335 -0.1413  0.0799
 1651TIP3    H126588   3.778   0.176   8.721  0.0362  0.3298 -0.5421
 1651TIP3    H226589   3.679   0.278   8.773  0.3080  0.7057 -0.7523
 1652TIP3   OH226590   2.625   0.906   0.514 -0.3606 -0.0280  0.1791
 1652TIP3    H126591   2.565   0.863   0.454  0.4962  0.4371 -1.0369
 1652TIP3    H226592   2.569   0.957   0.572 -1.0778  2.8476 -2.8155
 1653TIP3   OH226593   0.096   0.156   0.304 -0.1499  1.0925 -0.5125
 1653TIP3    H126594   0.176   0.163   0.253 -0.3012  0.4222 -0.8604
 1653TIP3    H226595   0.060   0.244   0.305  0.9533  1.5483  0.2607
 1654TIP3   OH226596   2.749   5.598   0.821  0.0951 -0.5323 -0.4949
 1654TIP3    H126597   2.660   5.598   0.856  0.2963  0.6377  0.0629
 1654TIP3    H226598   2.748   5.667   0.754  0.2351 -1.4180 -1.4280
 1655TIP3   OH226599   4.728   1.452   7.274  0.5128 -0.1214  0.0912
 1655TIP3    H126600   4.801   1.403   7.312  0.1083  0.8230  2.2676
 1655TIP3    H226601   4.677   1.386   7.228  2.8581 -0.7482 -1.7972
 1656TIP3   OH226602   3.359   6.596   1.224 -0.0696  0.2249 -0.4316
 1656TIP3    H126603   3.454   6.595   1.215  0.0391  0.9839  0.4320
 1656TIP3    H226604   3.344   6.629   1.313 -1.1396  0.1249 -0.5590
 1657TIP3   OH226605   4.315   4.383   8.380  0.4026  0.2419  0.0009
 1657TIP3    H126606   4.347   4.473   8.388  2.0758 -0.3827  0.7524
 1657TIP3    H226607   4.232   4.383   8.429 -0.1191  1.5734 -0.8174
 1658TIP3   OH226608   4.204   0.720   7.500  0.0452 -0.9994  0.1158
 1658TIP3    H126609   4.195   0.808   7.535  2.1467 -0.5662 -0.3095
 1658TIP3    H226610   4.281   0.684   7.544 -0.2445 -2.2899 -0.3786
 1659TIP3   OH226611   0.017   4.183   6.948  0.1400  0.0823  0.2052
 1659TIP3    H126612  -0.008   4.097   6.983  0.0012  0.7095  1.7125
 1659TIP3    H226613   0.091   4.165   6.891  0.6501 -0.9467  1.1611
 1660TIP3   OH226614   4.326   3.726   1.264 -0.4022  0.4190  0.3023
 1660TIP3    H126615   4.328   3.677   1.346  1.4411  0.8309  0.5449
 1660TIP3    H226616   4.257   3.684   1.212  1.4785 -2.8516  0.2359
 1661TIP3   OH226617   2.466   4.089   8.374  0.2151  0.8643  0.1129
 1661TIP3    H126618   2.445   4.045   8.456 -1.0569  0.6574 -0.3190
 1661TIP3    H226619   2.549   4.134   8.392  1.5118 -1.5879  0.5869
 1662TIP3   OH226620   1.454   2.193   7.834 -0.5196  0.2967 -0.2330
 1662TIP3    H126621   1.496   2.139   7.768 -0.1719 -0.5571  0.6559
 1662TIP3    H226622   1.360   2.184   7.818 -0.4319  0.2017 -0.6870
 1663TIP3   OH226623   2.579   1.654   7.826  0.3687 -0.3244 -0.2246
 1663TIP3    H126624   2.552   1.703   7.903 -0.6795  1.7503 -1.8056
 1663TIP3    H226625   2.522   1.576   7.826  0.7087 -0.5962  1.2987
 1664TIP3   OH226626   1.161   3.693   1.486  0.2267 -0.0700  0.1392
 1664TIP3    H126627   1.134   3.779   1.455  0.2028  0.2537  1.0115
 1664TIP3    H226628   1.136   3.633   1.416  0.9079  0.7068 -0.8011
 1665TIP3   OH226629   0.682   1.531   7.870 -0.0949  0.5323  0.5264
 1665TIP3    H126630   0.591   1.559   7.881 -0.9542 -2.5962  3.0072
 1665TIP3    H226631   0.708   1.568   7.786 -4.1770  0.3862 -1.0521
 1666TIP3   OH226632   1.738   3.162   7.364 -0.1738 -0.4850 -0.0947
 1666TIP3    H126633   1.728   3.247   7.408  0.3188  1.4048 -3.2959
 1666TIP3    H226634   1.826   3.133   7.387  0.9364  1.5651 -1.4122
 1667TIP3   OH226635   4.616   1.046   0.827 -0.6104 -0.1017  0.6188
 1667TIP3    H126636   4.618   1.038   0.922  2.3428 -0.6665  0.5924
 1667TIP3    H226637   4.652   0.964   0.795  0.0206  0.7305 -0.9054
 1668TIP3   OH226638   2.486   4.430   0.634  0.3102 -0.1460  0.3184
 1668TIP3    H126639   2.404   4.477   0.649  0.3382 -0.5141  1.8492
 1668TIP3    H226640   2.486   4.410   0.541 -0.9017  0.6603  0.1202
 1669TIP3   OH226641   4.291   5.349   1.554 -0.2485 -0.6902  1.1657
 1669TIP3    H126642   4.307   5.276   1.493  1.5108  0.7407 -0.1765
 1669TIP3    H226643   4.217   5.396   1.515  0.8963  0.2436  0.0300
 1670TIP3   OH226644   1.017   1.155   0.181  0.1003 -0.3003 -0.4442
 1670TIP3    H126645   1.034   1.114   0.097  0.1721 -0.8161 -0.1774
 1670TIP3    H226646   1.061   1.099   0.245 -1.6957 -1.0846  0.1513
 1671TIP3   OH226647   4.463   5.281   2.307 -0.0233  0.0390 -0.2335
 1671TIP3    H126648   4.489   5.194   2.337  0.7460 -0.1222 -1.3089
 1671TIP3    H226649   4.481   5.280   2.213 -2.1040  0.6057 -0.6950
 1672TIP3   OH226650   4.917   1.312   6.118  0.0128 -0.2175  0.3521
 1672TIP3    H126651   4.833   1.283   6.081  0.1622  0.6932 -0.7697
 1672TIP3    H226652   4.898   1.330   6.210 -0.8422 -0.7475  0.2853
 1673TIP3   OH226653   6.212   6.586   1.910  0.7396 -0.4456 -0.1651
 1673TIP3    H126654   6.189   6.531   1.985  2.0252 -0.3746  0.3197
 1673TIP3    H226655   6.198   6.530   1.834  0.6968 -0.9741  0.2260
 1674TIP3   OH226656   0.170   1.794   8.626  0.0017 -0.1532 -0.2436
 1674TIP3    H126657   0.197   1.751   8.708  1.3934 -1.4255 -1.3160
 1674TIP3    H226658   0.214   1.879   8.629  1.6026 -0.9235 -0.4626
 1675TIP3   OH226659   4.378   4.137   2.246 -0.6942  0.9201  0.7450
 1675TIP3    H126660   4.365   4.118   2.153  0.4601  0.4338  0.6663
 1675TIP3    H226661   4.395   4.052   2.286  0.8904  1.3338  1.0294
 1676TIP3   OH226662   6.178   5.881   0.080  0.0102 -0.1611  0.0985
 1676TIP3    H126663   6.259   5.920   0.047 -0.8759  0.9575 -0.8274
 1676TIP3    H226664   6.178   5.900   0.174  1.0910 -0.7017  0.2234
 1677TIP3   OH226665   0.488   0.266   0.970 -0.0576 -0.1611 -0.3626
 1677TIP3    H126666   0.440   0.339   0.932 -0.7498  0.2893  1.2805
 1677TIP3    H226667   0.580   0.289   0.959 -0.2700  0.9249  0.0295
 1678TIP3   OH226668   1.064   5.385   1.633  0.1833  0.0218 -0.2011
 1678TIP3    H126669   1.152   5.401   1.598  0.7710  1.2308  1.6514
 1678TIP3    H226670   1.056   5.448   1.705 -1.1782 -1.8392  1.3666
 1679TIP3   OH226671   4.006   0.592   8.049  0.2201  0.4283 -0.2029
 1679TIP3    H126672   4.096   0.575   8.077 -0.1298 -2.7157 -0.5795
 1679TIP3    H226673   4.011   0.673   7.999  2.7420  0.6336  0.2465
 1680TIP3   OH226674   6.678   5.493   7.985 -0.5291 -0.0109  0.0613
 1680TIP3    H126675   6.709   5.577   7.949  0.6771 -0.2724  0.4326
 1680TIP3    H226676   6.755   5.457   8.029 -0.9469 -1.4768 -0.3795
 1681TIP3   OH226677   5.525   4.496   1.994  0.1966 -0.4123  0.1144
 1681TIP3    H126678   5.435   4.507   1.964 -0.2493  0.0135  1.4964
 1681TIP3    H226679   5.522   4.524   2.086  2.0218  0.9911 -0.1934
 1682TIP3   OH226680   5.608   1.463   7.562 -0.0461 -0.2323  0.5732
 1682TIP3    H126681   5.590   1.553   7.592 -0.1897  0.7240 -2.0970
 1682TIP3    H226682   5.701   1.463   7.541 -0.0856 -0.6625  0.3924
 1683TIP3   OH226683   4.432   4.666   1.681 -0.0368 -0.2458 -0.0244
 1683TIP3    H126684   4.366   4.719   1.725  2.4710  0.8180  2.8092
 1683TIP3    H226685   4.487   4.729   1.634  2.6206 -0.1665  2.8973
 1684TIP3   OH226686   1.236   5.770   1.341  0.4608 -0.5756 -0.0392
 1684TIP3    H126687   1.281   5.841   1.387  1.2427 -1.2616  0.2588
 1684TIP3    H226688   1.193   5.814   1.267  1.0668  0.1863  0.0489
 1685TIP3   OH226689   2.883   4.678   8.262  0.2120  0.4635 -0.5581
 1685TIP3    H126690   2.967   4.639   8.237 -0.6368 -0.9415 -1.3993
 1685TIP3    H226691   2.836   4.688   8.179 -0.5120  1.0985 -0.0878
 1686TIP3   OH226692   5.153   1.845   0.645 -0.6974  0.2940  0.1238
 1686TIP3    H126693   5.091   1.851   0.718 -0.3234 -0.6010  0.5241
 1686TIP3    H226694   5.222   1.907   0.667 -2.1474  2.4385 -1.0547
 1687TIP3   OH226695   6.023   5.042   7.666 -0.0363  0.0792  0.2626
 1687TIP3    H126696   6.096   5.035   7.604  1.1594  3.4311  1.1107
 1687TIP3    H226697   5.945   5.051   7.611  0.4777 -0.9352 -0.6656
 1688TIP3   OH226698   3.233   2.022   1.068 -1.0222  0.3320  0.0764
 1688TIP3    H126699   3.295   1.952   1.088  0.2244 -0.7040 -5.6590
 1688TIP3    H226700   3.274   2.101   1.102 -0.1572 -1.0794  2.5727
 1689TIP3   OH226701   0.972   2.263   6.885 -0.3808 -0.0994 -0.1487
 1689TIP3    H126702   0.921   2.343   6.873 -0.1154  0.2108  0.7406
 1689TIP3    H226703   1.058   2.284   6.849 -0.2972  0.0334  0.1270
 1690TIP3   OH226704   0.070   3.060   8.168  0.0781  0.3742 -0.3927
 1690TIP3    H126705   0.042   3.106   8.089  0.2828  3.4299  1.1747
 1690TIP3    H226706   0.158   3.029   8.148  0.1981  1.2659 -1.3151
 1691TIP3   OH226707   0.215   4.874   2.181  0.5464 -0.2261  0.2851
 1691TIP3    H126708   0.169   4.828   2.110  0.4885  3.3236 -2.2395
 1691TIP3    H226709   0.146   4.895   2.244 -0.4105  0.6714 -1.0053
 1692TIP3   OH226710   2.703   1.366   1.607  0.8150 -0.0394 -0.4473
 1692TIP3    H126711   2.612   1.377   1.635  0.8026 -0.4941 -0.3078
 1692TIP3    H226712   2.711   1.273   1.587  0.7909  0.2857 -2.0906
 1693TIP3   OH226713   4.942   2.612   7.614 -0.1848 -0.1593 -0.2748
 1693TIP3    H126714   4.916   2.546   7.550 -0.6239  0.8660 -1.1885
 1693TIP3    H226715   5.010   2.569   7.666  0.4524 -0.9000 -1.6636
 1694TIP3   OH226716   4.287   4.152   0.703  0.2696 -0.4823  0.1312
 1694TIP3    H126717   4.339   4.179   0.626 -1.3317  0.0539 -0.8111
 1694TIP3    H226718   4.220   4.220   0.711 -2.2094 -2.7112 -0.6030
 1695TIP3   OH226719   1.719   5.364   6.739 -0.0119  0.2512  0.1548
 1695TIP3    H126720   1.772   5.334   6.665 -0.9413  1.7371 -1.1572
 1695TIP3    H226721   1.710   5.286   6.795  3.2385 -0.1326  0.2951
 1696TIP3   OH226722   6.322   1.762   8.559  0.9723 -0.1668  0.1711
 1696TIP3    H126723   6.233   1.742   8.530  0.9037  1.7556 -1.1509
 1696TIP3    H226724   6.328   1.724   8.646 -1.1888 -0.2353  0.3401
 1697TIP3   OH226725   5.433   4.521   7.223  0.1030  0.2933  0.1969
 1697TIP3    H126726   5.414   4.465   7.298  0.9342 -1.1111 -0.6046
 1697TIP3    H226727   5.349   4.529   7.178  0.1333 -0.9891 -0.1177
 1698TIP3   OH226728   5.303   5.540   8.002  0.2817  0.2114 -0.2148
 1698TIP3    H126729   5.384   5.492   7.986  0.7010  1.4304 -2.1489
 1698TIP3    H226730   5.330   5.631   8.011 -0.7889  0.5300 -0.0871
 1699TIP3   OH226731   5.530   6.815   0.522  0.4361  0.1786 -0.0987
 1699TIP3    H126732   5.553   6.841   0.433 -2.1861  1.6513 -0.4198
 1699TIP3    H226733   5.550   6.721   0.525  0.2515  0.0117 -2.3617
 1700TIP3   OH226734   1.690   1.017   2.313  0.1651  0.3294 -0.2639
 1700TIP3    H126735   1.604   1.057   2.322 -0.1009 -0.2772 -0.0635
 1700TIP3    H226736   1.698   0.959   2.389 -0.1624 -1.2910 -1.4306
 1701TIP3   OH226737   0.810   2.483   6.916 -0.0091 -0.0437  0.2568
 1701TIP3    H126738   0.831   2.533   6.994 -2.9784  1.7706  0.0825
 1701TIP3    H226739   0.792   2.550   6.849 -0.0602 -1.4692 -1.2084
 1702TIP3   OH226740   3.379   5.961   7.573 -0.0069  0.1982 -0.2854
 1702TIP3    H126741   3.348   5.902   7.642 -0.9357  0.4984 -0.4302
 1702TIP3    H226742   3.333   6.043   7.589  0.7287  0.6665 -0.5217
 1703TIP3   OH226743   1.407   0.310   7.737  0.1388  0.3675 -0.0017
 1703TIP3    H126744   1.392   0.231   7.789  0.6905  0.9758  1.0974
 1703TIP3    H226745   1.459   0.367   7.793  1.1997  0.8396 -1.4088
 1704TIP3   OH226746   1.187   1.433   2.285 -0.2020  0.0857 -0.0125
 1704TIP3    H126747   1.126   1.425   2.358 -0.5343 -0.7723 -0.3655
 1704TIP3    H226748   1.214   1.343   2.267  0.7101  0.3982 -0.2467
 1705TIP3   OH226749   6.408   0.025   8.820 -0.5025 -0.0537  0.1202
 1705TIP3    H126750   6.362   0.021   8.736 -1.0471 -1.7219  0.4532
 1705TIP3    H226751   6.352  -0.025   8.879 -0.4433  1.6185  1.6509
 1706TIP3   OH226752   1.770   2.289   7.981 -0.3681 -0.1540 -0.2369
 1706TIP3    H126753   1.729   2.346   7.916 -1.7623 -1.5261 -0.6155
 1706TIP3    H226754   1.698   2.264   8.039  0.9057  1.3951  2.1896
 1707TIP3   OH226755   0.129   5.429   1.612 -0.2814  0.0589  0.8540
 1707TIP3    H126756   0.100   5.469   1.530  1.8150  0.1658  0.1089
 1707TIP3    H226757   0.102   5.337   1.604  0.4775 -0.0810 -0.2556
 1708TIP3   OH226758   1.507   4.936   6.853 -0.1282  0.2046 -0.3128
 1708TIP3    H126759   1.536   5.005   6.793 -1.1824  1.1350  0.2141
 1708TIP3    H226760   1.428   4.899   6.812 -0.1908  0.0509 -0.0586
 1709TIP3   OH226761   0.187   1.299   7.489 -0.3163 -0.2265 -0.2478
 1709TIP3    H126762   0.212   1.237   7.420 -2.2314  0.3675 -1.5606
 1709TIP3    H226763   0.157   1.244   7.561  0.5379 -0.8394 -0.3404
 1710TIP3   OH226764   0.189   3.836   7.072 -0.1584 -0.3086  0.0901
 1710TIP3    H126765   0.233   3.878   6.998  0.2265 -0.3730  0.2787
 1710TIP3    H226766   0.207   3.743   7.061 -0.7149 -0.3921 -0.1332
 1711TIP3   OH226767   4.277   5.028   0.438  0.2403  0.6792  0.5679
 1711TIP3    H126768   4.183   5.025   0.417  0.3677  3.0031 -0.6510
 1711TIP3    H226769   4.318   4.976   0.369  0.0099  1.5621 -0.2503
 1712TIP3   OH226770   2.524   0.458   0.860 -0.1918  0.1428 -0.2730
 1712TIP3    H126771   2.602   0.490   0.905  0.6199 -0.3991 -1.2442
 1712TIP3    H226772   2.524   0.506   0.777 -1.1114  0.4198 -0.1142
 1713TIP3   OH226773   0.706   3.613   8.725 -0.3144  0.3260  0.3280
 1713TIP3    H126774   0.728   3.657   8.644 -0.0849  0.0658  0.2456
 1713TIP3    H226775   0.611   3.597   8.720 -0.3483  0.5619  0.2391
 1714TIP3   OH226776   0.462   2.769   6.800 -0.0929 -0.2621 -0.4089
 1714TIP3    H126777   0.456   2.752   6.894 -1.3545  1.5425 -0.1214
 1714TIP3    H226778   0.373   2.757   6.767 -0.2114  1.5734 -0.8791
 1715TIP3   OH226779   3.784   4.620   8.515  0.5973  0.7734 -0.6471
 1715TIP3    H126780   3.825   4.599   8.599  2.6308 -0.5055 -1.8805
 1715TIP3    H226781   3.800   4.544   8.461 -0.4080  1.6899 -2.3106
 1716TIP3   OH226782   4.144   3.669   8.070  0.0336  0.6035 -0.0476
 1716TIP3    H126783   4.051   3.674   8.049  0.1771 -1.0786 -1.2527
 1716TIP3    H226784   4.188   3.677   7.985  0.9172 -0.0248  0.3391
 1717TIP3   OH226785   2.723   1.196   8.363  0.1571  0.2463 -0.4554
 1717TIP3    H126786   2.792   1.159   8.417  0.5252 -1.6137 -2.0736
 1717TIP3    H226787   2.769   1.238   8.290 -0.3877 -0.6112 -1.3111
 1718TIP3   OH226788   1.898   6.597   1.999 -0.2125 -0.3742  0.3192
 1718TIP3    H126789   1.907   6.515   2.047  0.0937  0.0484  0.9959
 1718TIP3    H226790   1.983   6.608   1.955 -0.1515 -0.2774  0.4604
 1719TIP3   OH226791   5.795   1.922   8.163  0.0797 -0.2967  0.5104
 1719TIP3    H126792   5.866   1.864   8.190  1.1245  0.9965  0.6547
 1719TIP3    H226793   5.779   1.900   8.072  0.5814 -0.6884  0.5130
 1720TIP3   OH226794   5.943   5.482   8.616 -0.1528  0.1046  0.2809
 1720TIP3    H126795   5.866   5.537   8.602  0.2503  0.2378 -1.8254
 1720TIP3    H226796   5.953   5.434   8.533  1.1236 -1.0698  1.0693
 1721TIP3   OH226797   6.799   3.814   1.919 -0.0075  0.2482  0.1311
 1721TIP3    H126798   6.804   3.816   2.015  0.5101 -0.2266  0.1217
 1721TIP3    H226799   6.795   3.720   1.898 -0.2605  0.3590 -0.3013
 1722TIP3   OH226800   3.643   3.816   8.796  0.0401  0.2237 -0.7499
 1722TIP3    H126801   3.586   3.744   8.823 -1.1582  0.7115 -1.8798
 1722TIP3    H226802   3.593   3.862   8.729  1.3157  1.3540 -0.9602
 1723TIP3   OH226803   5.499   6.344   0.923  0.6650 -0.1016  0.5432
 1723TIP3    H126804   5.448   6.363   0.844  1.4046 -0.7718 -0.0958
 1723TIP3    H226805   5.534   6.430   0.949  1.1715 -0.0165 -0.3806
 1724TIP3   OH226806   1.915   1.643   8.490  0.1291  0.3397 -0.5823
 1724TIP3    H126807   1.894   1.734   8.471  0.4089  0.9329  1.6012
 1724TIP3    H226808   1.925   1.641   8.585  0.8094 -1.8388 -0.6516
 1725TIP3   OH226809   3.193   0.852   7.496  0.1613  0.0653  0.3006
 1725TIP3    H126810   3.279   0.844   7.454 -0.3617 -0.6336 -0.6613
 1725TIP3    H226811   3.213   0.863   7.589  1.2978  0.1150  0.0661
 1726TIP3   OH226812   0.730   4.770   6.793  0.0890  0.9328  0.6814
 1726TIP3    H126813   0.781   4.851   6.787 -0.5364  1.3943  1.4848
 1726TIP3    H226814   0.766   4.725   6.869  0.5216  0.3739  0.1624
 1727TIP3   OH226815   3.512   2.701   8.644  0.0545  0.2284  1.1409
 1727TIP3    H126816   3.536   2.788   8.614  0.8205 -0.0873  0.7948
 1727TIP3    H226817   3.588   2.672   8.695 -0.0004 -0.4070  0.8742
 1728TIP3   OH226818   6.066   2.043   1.320  0.1733  0.2923  0.0202
 1728TIP3    H126819   6.142   2.093   1.348 -0.5233  1.3131  0.1469
 1728TIP3    H226820   6.013   2.105   1.269 -0.9379 -0.1750  0.5693
 1729TIP3   OH226821   4.033   5.833   8.115 -0.8116  0.7727  0.4761
 1729TIP3    H126822   4.036   5.778   8.194 -1.3177  1.2293  0.8258
 1729TIP3    H226823   3.951   5.808   8.072  0.4888 -1.0622 -1.1109
 1730TIP3   OH226824   3.504   1.998   2.257  0.0856 -0.0233  0.0667
 1730TIP3    H126825   3.504   1.906   2.232  0.0689 -0.5984  1.9992
 1730TIP3    H226826   3.418   2.030   2.232  0.0292 -0.5700 -0.4609
 1731TIP3   OH226827   1.678   5.600   0.240  0.6555  0.5597  0.1092
 1731TIP3    H126828   1.687   5.695   0.247  0.6718  0.6471 -0.9144
 1731TIP3    H226829   1.768   5.568   0.238  0.6537  0.5653 -0.0488
 1732TIP3   OH226830   6.425   5.418   8.074  0.5662  0.1641  0.2983
 1732TIP3    H126831   6.362   5.434   8.004 -0.3978 -0.6994  0.9372
 1732TIP3    H226832   6.503   5.467   8.048  0.9050 -1.5446 -2.3024
 1733TIP3   OH226833   5.559   5.383   0.226 -0.6424  0.1465  0.1354
 1733TIP3    H126834   5.601   5.352   0.146  0.6705 -1.3987  1.3481
 1733TIP3    H226835   5.623   5.444   0.264 -1.2299  0.8243  0.0460
 1734TIP3   OH226836   6.604   4.082   2.354 -0.2166  0.0791  0.3292
 1734TIP3    H126837   6.655   4.099   2.275  0.5233  0.6346  0.9023
 1734TIP3    H226838   6.597   3.987   2.359  0.2896  0.0189 -0.0638
 1735TIP3   OH226839   1.712   5.960   1.567  0.3505  0.0902  0.9159
 1735TIP3    H126840   1.697   5.924   1.655 -0.8400 -0.3183  0.5718
 1735TIP3    H226841   1.654   5.909   1.511 -0.8456  2.0560  0.2813
 1736TIP3   OH226842   3.618   5.302   8.304  0.2604  0.9038 -0.1024
 1736TIP3    H126843   3.684   5.250   8.258 -0.0287  0.1812  0.2839
 1736TIP3    H226844   3.538   5.251   8.297 -0.0568  1.3509  0.1996
 1737TIP3   OH226845   2.308   5.128   8.140  0.0246  0.4563 -0.3056
 1737TIP3    H126846   2.252   5.059   8.176 -0.5896  2.0563  2.0546
 1737TIP3    H226847   2.255   5.169   8.071 -1.0862  0.8502  0.7476
 1738TIP3   OH226848   1.368   5.447   1.662  0.3597  0.2701  0.3099
 1738TIP3    H126849   1.317   5.485   1.733 -0.5493  1.2269 -0.8222
 1738TIP3    H226850   1.437   5.511   1.645  1.7600 -0.8289  1.5577
 1739TIP3   OH226851   4.787   5.964   7.337 -0.0937 -0.0856 -0.0053
 1739TIP3    H126852   4.857   5.900   7.346 -1.3038 -1.2189  2.2105
 1739TIP3    H226853   4.832   6.046   7.314  1.5104 -1.5553 -2.6173
 1740TIP3   OH226854   0.115   3.494   8.551  0.4413  0.7170 -0.2778
 1740TIP3    H126855   0.096   3.585   8.576 -1.0242  0.9378 -1.9830
 1740TIP3    H226856   0.030   3.459   8.524  0.4072 -2.0335  2.7359
 1741TIP3   OH226857   5.926   6.382   1.356  1.0408  0.9073  0.0611
 1741TIP3    H126858   5.916   6.289   1.378 -1.0231  1.4084  1.6115
 1741TIP3    H226859   5.879   6.392   1.273  0.5651  0.6953  0.3006
 1742TIP3   OH226860   6.321   0.111   2.630 -0.3826 -0.2833 -0.2612
 1742TIP3    H126861   6.293   0.020   2.641 -1.8096  0.1255 -0.2834
 1742TIP3    H226862   6.249   0.152   2.582 -0.1503  1.0526  0.4993
 1743TIP3   OH226863   3.540   0.391   6.646 -0.1811  0.2266  0.0095
 1743TIP3    H126864   3.561   0.485   6.646 -0.5785  0.3167  0.1774
 1743TIP3    H226865   3.526   0.370   6.554 -2.9992  0.9977  0.1794
 1744TIP3   OH226866   1.463   4.513   0.629  0.2417 -0.5876  0.2606
 1744TIP3    H126867   1.543   4.508   0.577 -0.0360 -0.9679 -0.1330
 1744TIP3    H226868   1.410   4.579   0.584  0.7864  0.5230  1.1655
 1745TIP3   OH226869   0.134   1.632   1.352 -0.2225  0.0721 -0.1676
 1745TIP3    H126870   0.089   1.714   1.332 -2.7488 -1.1341  0.2141
 1745TIP3    H226871   0.203   1.658   1.413 -0.0140  2.0868 -1.1601
 1746TIP3   OH226872   1.132   5.000   2.828  0.5153  0.1993 -0.0445
 1746TIP3    H126873   1.040   5.018   2.812  0.7502  2.2835  0.6982
 1746TIP3    H226874   1.178   5.043   2.756  1.0116  1.2253  0.8522
 1747TIP3   OH226875   0.498   3.756   7.336 -0.1515 -0.0077 -0.3767
 1747TIP3    H126876   0.496   3.822   7.404  2.3554 -0.1538 -0.0573
 1747TIP3    H226877   0.441   3.686   7.368  0.3724  0.2622  1.2171
 1748TIP3   OH226878   3.375   0.211   7.883  0.3539 -0.1938  0.6845
 1748TIP3    H126879   3.348   0.174   7.798 -0.0193  1.4351  0.0550
 1748TIP3    H226880   3.438   0.279   7.860 -0.0050  0.4989  1.6860
 1749TIP3   OH226881   4.562   2.683   1.114  0.0029 -0.2931 -0.1277
 1749TIP3    H126882   4.608   2.765   1.129  0.6289 -0.2334 -2.0505
 1749TIP3    H226883   4.600   2.649   1.032 -1.5087 -1.5808 -0.3481
 1750TIP3   OH226884   5.648   1.054   0.440 -0.4991  0.5109 -0.3603
 1750TIP3    H126885   5.705   1.053   0.363  1.1255  0.5886  0.7936
 1750TIP3    H226886   5.650   1.145   0.470  0.1034  0.1908  0.6219
 1751TIP3   OH226887   2.814   6.026   1.186 -0.0483 -0.0119  0.0039
 1751TIP3    H126888   2.863   5.959   1.234  0.1483 -0.6203 -1.0195
 1751TIP3    H226889   2.863   6.107   1.201  1.8119 -0.7513 -1.7019
 1752TIP3   OH226890   4.503   0.106   0.448 -0.2434 -0.4489 -0.1062
 1752TIP3    H126891   4.470   0.095   0.359 -1.8216 -1.0686  0.5193
 1752TIP3    H226892   4.501   0.201   0.463  0.1120 -0.3387 -0.7554
 1753TIP3   OH226893   5.813   6.587   8.497 -0.0289  0.4228  0.2625
 1753TIP3    H126894   5.892   6.558   8.542 -1.4534 -0.4876  2.3301
 1753TIP3    H226895   5.762   6.507   8.483 -0.4385  0.9365 -1.4112
 1754TIP3   OH226896   4.320   1.285   0.618  0.4521  0.2623  0.0936
 1754TIP3    H126897   4.326   1.303   0.712 -0.0811  2.0224 -0.1927
 1754TIP3    H226898   4.399   1.324   0.581  1.0155 -1.0271 -0.1448
 1755TIP3   OH226899   0.691   5.701   6.524 -0.5242 -0.2362  0.1368
 1755TIP3    H126900   0.715   5.791   6.503 -1.2972 -0.1065 -0.2467
 1755TIP3    H226901   0.713   5.691   6.617  4.1673 -1.2035 -0.8155
 1756TIP3   OH226902   3.607   0.069   8.392 -0.2584 -0.2550  0.1832
 1756TIP3    H126903   3.648   0.065   8.305 -2.8006 -0.8181 -1.0774
 1756TIP3    H226904   3.635   0.153   8.428  0.6911  0.0715 -1.2365
 1757TIP3   OH226905   1.454   5.792   7.837  0.2212  0.1204 -0.2811
 1757TIP3    H126906   1.515   5.737   7.788 -0.9238  0.0412 -1.7206
 1757TIP3    H226907   1.471   5.773   7.929  1.3219 -1.0113 -0.6997
 1758TIP3   OH226908   6.540   4.089   7.946  0.4040  0.1635  0.6866
 1758TIP3    H126909   6.460   4.134   7.970  0.4790  1.6945 -1.6338
 1758TIP3    H226910   6.611   4.147   7.973  0.5460  0.8440 -1.0057
 1759TIP3   OH226911   2.185   2.059   7.916 -0.5808  0.4798  0.4856
 1759TIP3    H126912   2.144   2.141   7.944  0.7505  1.5583 -0.6194
 1759TIP3    H226913   2.198   2.069   7.822 -0.7382 -1.1722  0.2552
 1760TIP3   OH226914   1.030   5.708   1.766 -0.0501 -0.4125  0.2158
 1760TIP3    H126915   1.106   5.651   1.780 -1.2025 -1.9785  0.4269
 1760TIP3    H226916   0.996   5.682   1.681 -1.3950 -1.0567  0.9187
 1761TIP3   OH226917   5.064   1.853   1.850 -0.0374 -0.4081 -0.3132
 1761TIP3    H126918   5.031   1.805   1.926 -0.7768 -0.1378 -0.4520
 1761TIP3    H226919   5.159   1.850   1.859 -0.1057 -0.8547  0.3246
 1762TIP3   OH226920   5.690   3.060   7.344 -0.3406  0.8784  0.3893
 1762TIP3    H126921   5.778   3.064   7.306 -1.1878 -0.8415 -1.9668
 1762TIP3    H226922   5.701   3.097   7.432  2.6664  0.9487  0.1037
 1763TIP3   OH226923   3.305   5.717   7.697  0.6060  0.4396 -0.3176
 1763TIP3    H126924   3.369   5.670   7.642  0.7779  0.4242 -0.1026
 1763TIP3    H226925   3.332   5.698   7.787  2.9602  3.9636 -0.1141
 1764TIP3   OH226926   4.209   1.802   0.352 -0.0642  0.5214 -0.4892
 1764TIP3    H126927   4.282   1.816   0.292  2.0613  1.6590  2.1296
 1764TIP3    H226928   4.175   1.889   0.370 -0.3590  0.2614  0.2726
 1765TIP3   OH226929   0.965   1.616   7.866  0.0281  0.9619 -0.3611
 1765TIP3    H126930   0.948   1.692   7.809  0.2460  0.3654 -1.2479
 1765TIP3    H226931   0.881   1.571   7.872  0.0047  1.0257 -0.2055
 1766TIP3   OH226932   5.707   2.423   6.318  0.5793 -0.1902 -0.0759
 1766TIP3    H126933   5.649   2.359   6.276 -0.1706 -0.5830  1.4819
 1766TIP3    H226934   5.733   2.482   6.247  1.1504 -2.0891 -1.5239
 1767TIP3   OH226935   3.736   5.520   0.032 -0.1976 -0.4484 -0.6506
 1767TIP3    H126936   3.711   5.447   0.088 -1.9721 -0.0043 -0.7882
 1767TIP3    H226937   3.807   5.486  -0.023  2.9564 -0.3747  2.9666
 1768TIP3   OH226938   5.998   4.671   1.932 -0.3382 -0.6658  0.0844
 1768TIP3    H126939   5.914   4.650   1.892 -0.7626  0.6997  0.1832
 1768TIP3    H226940   6.000   4.619   2.012 -1.5052 -0.0781  0.5254
 1769TIP3   OH226941   5.488   3.024   7.666 -0.0235  0.2382  0.4100
 1769TIP3    H126942   5.416   3.050   7.724 -1.5804  0.1852 -1.3741
 1769TIP3    H226943   5.505   2.933   7.688 -2.7284 -0.7822 -1.1324
 1770TIP3   OH226944   2.670   4.291   7.792 -0.1605 -0.4768 -0.1289
 1770TIP3    H126945   2.739   4.354   7.814 -1.1790  0.0448  1.7708
 1770TIP3    H226946   2.628   4.328   7.714  0.6362  0.0592 -0.3198
 1771TIP3   OH226947   1.100   3.112   8.303 -0.1753 -0.2914  0.8112
 1771TIP3    H126948   1.039   3.122   8.229  0.2173 -1.7920  0.2428
 1771TIP3    H226949   1.180   3.156   8.274 -0.3086 -0.1023  0.7222
 1772TIP3   OH226950   1.765   5.082   7.859  0.1663  0.1990  0.2512
 1772TIP3    H126951   1.813   5.022   7.917  3.4553  1.5173 -0.8795
 1772TIP3    H226952   1.745   5.029   7.782 -1.0293 -0.5969  1.0757
 1773TIP3   OH226953   6.540   6.440   7.952 -0.4171  0.0957 -0.0847
 1773TIP3    H126954   6.534   6.346   7.969  0.8659  0.1150  0.6526
 1773TIP3    H226955   6.625   6.450   7.909  0.4564  1.1406  1.7739
 1774TIP3   OH226956   3.859   5.644   1.653  0.1346 -0.7221 -0.2059
 1774TIP3    H126957   3.867   5.616   1.744  2.7666 -0.6661 -0.3411
 1774TIP3    H226958   3.766   5.636   1.634 -0.4576 -1.0307  2.3802
 1775TIP3   OH226959   6.547   6.570   7.070 -0.0920  0.0727  1.2040
 1775TIP3    H126960   6.603   6.633   7.026 -1.5811  1.1798  0.7912
 1775TIP3    H226961   6.566   6.582   7.163  0.5296  0.2556  1.0561
 1776TIP3   OH226962   6.794   6.396   0.466 -0.0807 -0.1192  0.2436
 1776TIP3    H126963   6.811   6.393   0.560  1.8186 -0.4930 -0.0712
 1776TIP3    H226964   6.800   6.489   0.444  1.5604 -0.2174  0.1791
 1777TIP3   OH226965   0.427   0.664   1.111  0.1333  0.0859  0.4312
 1777TIP3    H126966   0.461   0.746   1.148 -1.1665  0.4264  0.9261
 1777TIP3    H226967   0.447   0.597   1.176  0.0407  0.2540  0.6355
 1778TIP3   OH226968   5.361   6.615   1.239 -0.5279  0.0852  0.5521
 1778TIP3    H126969   5.419   6.600   1.165 -1.4618  3.5545 -1.1266
 1778TIP3    H226970   5.418   6.615   1.316  1.2804  0.7302 -0.7202
 1779TIP3   OH226971   2.020   6.564   7.257  0.3679  0.3572  0.0593
 1779TIP3    H126972   2.059   6.596   7.176  0.6544 -0.6125 -0.1898
 1779TIP3    H226973   2.092   6.520   7.303 -0.4592 -1.7197 -0.5471
 1780TIP3   OH226974   6.052   2.029   0.499  0.2775  0.2705 -0.6172
 1780TIP3    H126975   5.990   2.046   0.570  0.1423  0.2007 -0.7213
 1780TIP3    H226976   6.081   2.116   0.472 -0.9904  0.3913 -1.6725
 1781TIP3   OH226977   1.538   3.765   2.554 -0.1839  0.4895 -0.4329
 1781TIP3    H126978   1.536   3.680   2.598 -1.2661  0.3927 -0.6346
 1781TIP3    H226979   1.450   3.800   2.566  0.1999  1.5117 -0.5036
 1782TIP3   OH226980   1.621   3.793   8.376 -0.0689 -0.2908 -0.4171
 1782TIP3    H126981   1.534   3.818   8.347 -0.7778  0.0660  1.8484
 1782TIP3    H226982   1.610   3.767   8.467  1.7866 -2.6274 -0.7628
 1783TIP3   OH226983   2.865   5.099   7.242  0.0141  0.0240  0.2820
 1783TIP3    H126984   2.780   5.141   7.254  0.9683  2.0340  0.3866
 1783TIP3    H226985   2.885   5.111   7.149 -0.0540 -0.9613  0.1270
 1784TIP3   OH226986   1.628   0.128   8.000 -0.4561 -0.3171  0.1749
 1784TIP3    H126987   1.624   0.224   7.994  0.5191 -0.3416 -2.2797
 1784TIP3    H226988   1.555   0.098   7.946 -0.8814 -0.9838  1.0970
 1785TIP3   OH226989   2.980   1.110   1.170 -0.1780 -0.0580  0.0709
 1785TIP3    H126990   2.929   1.050   1.115  0.3142  0.1048 -0.5754
 1785TIP3    H226991   3.068   1.106   1.133  0.0257  0.4962  0.4984
 1786TIP3   OH226992   2.062   4.614   1.060  0.7382  0.2302 -0.3001
 1786TIP3    H126993   1.969   4.636   1.054  0.3536 -1.3574 -0.6432
 1786TIP3    H226994   2.065   4.536   1.115  1.5728 -1.1849 -2.2131
 1787TIP3   OH226995   0.227   6.620   0.548 -0.1043 -0.6626  0.1076
 1787TIP3    H126996   0.181   6.704   0.555  0.5577 -0.1535 -1.3846
 1787TIP3    H226997   0.194   6.569   0.623 -2.5388 -0.0585 -0.4552
 1788TIP3   OH226998   1.767   0.569   7.022  0.5355 -0.5355  0.3276
 1788TIP3    H126999   1.830   0.610   6.962  1.3924  0.4321  1.8404
 1788TIP3    H227000   1.703   0.528   6.964  0.1903  2.0886 -1.2997
 1789TIP3   OH227001   4.098   2.098   8.441  0.0628  0.5823  0.1967
 1789TIP3    H127002   4.160   2.069   8.375  0.2876  0.6190  0.3897
 1789TIP3    H227003   4.038   2.025   8.453  1.8900 -0.7118  2.2425
 1790TIP3   OH227004   6.272   4.861   1.446  0.6301 -0.2272 -0.1089
 1790TIP3    H127005   6.366   4.846   1.453  0.6215  0.2148  1.2784
 1790TIP3    H227006   6.232   4.783   1.484  0.4451 -0.1584 -0.1618
 1791TIP3   OH227007   2.414   4.676   1.692  0.1057 -0.2358  0.5443
 1791TIP3    H127008   2.478   4.734   1.734  1.2751 -0.4711 -0.8548
 1791TIP3    H227009   2.458   4.591   1.686  0.0105 -0.1984 -1.1590
 1792TIP3   OH227010   6.318   4.243   0.110  0.3401 -0.0125 -0.8650
 1792TIP3    H127011   6.245   4.198   0.069 -0.8304  0.0680  1.0266
 1792TIP3    H227012   6.331   4.321   0.056 -2.5404  1.2093  0.0414
 1793TIP3   OH227013   5.972   1.396   7.063  0.0349  0.4415 -0.1893
 1793TIP3    H127014   5.894   1.429   7.107 -0.9105 -0.2007 -1.3238
 1793TIP3    H227015   6.000   1.322   7.118  0.4292  1.2600  0.7389
 1794TIP3   OH227016   2.530   0.799   7.494 -0.3669  0.1168  0.7715
 1794TIP3    H127017   2.602   0.861   7.497  1.6010 -2.0329  0.5299
 1794TIP3    H227018   2.519   0.771   7.585 -0.8799  0.3967  0.7990
 1795TIP3   OH227019   4.191   0.960   7.241  0.3117 -0.6542  0.4710
 1795TIP3    H127020   4.234   0.874   7.230  0.5827 -0.4678  0.0597
 1795TIP3    H227021   4.253   1.011   7.293  1.6355  0.3475 -1.9362
 1796TIP3   OH227022   4.563   3.700   1.486 -1.0125 -0.3400 -0.1335
 1796TIP3    H127023   4.558   3.666   1.576 -0.0197 -1.9815 -0.6657
 1796TIP3    H227024   4.516   3.784   1.490  1.0552  0.8511  2.4706
 1797TIP3   OH227025   4.140   6.727   8.356  0.1769  0.5889  0.4143
 1797TIP3    H127026   4.076   6.795   8.333  0.4063  0.3303 -1.0656
 1797TIP3    H227027   4.136   6.665   8.283 -0.1024 -1.0737  1.7731
 1798TIP3   OH227028   0.416   0.422   7.230 -0.3777  0.5054 -0.5012
 1798TIP3    H127029   0.443   0.447   7.141  0.8828 -1.2149 -0.6523
 1798TIP3    H227030   0.449   0.492   7.285 -0.3403  1.1261 -1.2928
 1799TIP3   OH227031   6.517   5.061   0.997  0.5192  0.3637  0.0780
 1799TIP3    H127032   6.538   4.973   0.968  0.3033  0.3654 -0.0908
 1799TIP3    H227033   6.477   5.102   0.920  0.4619  0.5524  0.2080
 1800TIP3   OH227034   2.982   5.658   1.237  0.4021  0.1164  0.0189
 1800TIP3    H127035   2.925   5.681   1.163  1.0698  1.5355 -0.0858
 1800TIP3    H227036   2.934   5.690   1.313 -0.1344 -1.0570  0.2009
 1801TIP3   OH227037   4.221   6.643   1.364 -0.1793 -0.6377 -0.1831
 1801TIP3    H127038   4.307   6.679   1.343 -0.3417 -0.1468  0.0005
 1801TIP3    H227039   4.185   6.702   1.430  0.1943 -1.9838  1.2815
 1802TIP3   OH227040   2.232   5.508   1.287  0.1845 -0.2562 -0.2423
 1802TIP3    H127041   2.176   5.493   1.364  1.1884  1.1154  0.8065
 1802TIP3    H227042   2.186   5.575   1.237  0.8037  0.8136  0.5798
 1803TIP3   OH227043   1.861   2.682   0.870  0.2611 -0.6994 -0.0938
 1803TIP3    H127044   1.828   2.764   0.908  0.7368 -0.4348 -0.2473
 1803TIP3    H227045   1.941   2.663   0.920  0.8344 -0.4092 -0.8846
 1804TIP3   OH227046   6.782   5.210   0.532  0.2949 -0.0684  0.2364
 1804TIP3    H127047   6.799   5.304   0.539  1.2846 -0.2794  0.7927
 1804TIP3    H227048   6.689   5.201   0.555  0.1054  0.8081 -0.1555
 1805TIP3   OH227049   3.336   6.312   7.723  0.4298  0.2048  0.4823
 1805TIP3    H127050   3.336   6.335   7.630 -1.7697 -2.7362 -0.4253
 1805TIP3    H227051   3.312   6.392   7.768  0.9152  1.5550 -1.5334
 1806TIP3   OH227052   5.643   0.162   8.285 -0.3054  0.1809  0.5521
 1806TIP3    H127053   5.685   0.242   8.318  2.5743 -1.3470  0.9848
 1806TIP3    H227054   5.659   0.098   8.355  0.8385 -1.6874 -1.3249
 1807TIP3   OH227055   0.731   6.457   1.024 -0.2966  0.1784  0.3438
 1807TIP3    H127056   0.752   6.476   1.116  1.0005  1.5809 -0.2034
 1807TIP3    H227057   0.812   6.475   0.977 -1.0026 -0.3369 -1.1134
 1808TIP3   OH227058   6.608   2.473   8.158  0.0301  0.0394  0.3703
 1808TIP3    H127059   6.669   2.531   8.112 -1.6686  2.1986  0.6823
 1808TIP3    H227060   6.611   2.502   8.249 -1.5528  0.3158  0.3572
 1809TIP3   OH227061   0.692   0.123   7.801  0.4063 -0.0334 -0.2902
 1809TIP3    H127062   0.619   0.181   7.779 -0.0154 -0.1481  0.7664
 1809TIP3    H227063   0.724   0.091   7.716  0.3388  1.3563 -0.8546
 1810TIP3   OH227064   6.613   1.785   0.570  0.2660  0.3050  0.6743
 1810TIP3    H127065   6.703   1.782   0.538 -0.6299  1.4977 -2.2000
 1810TIP3    H227066   6.582   1.872   0.548 -1.7977 -0.2643  1.0946
 1811TIP3   OH227067   6.648   3.527   8.604 -0.0101  0.4466  0.0557
 1811TIP3    H127068   6.573   3.496   8.655 -1.6562  0.3915 -2.2483
 1811TIP3    H227069   6.636   3.622   8.601  0.3110  0.4897  0.0791
 1812TIP3   OH227070   1.638   1.634   8.836 -0.0200 -0.1393  0.1626
 1812TIP3    H127071   1.570   1.699   8.821  1.3086  1.3678  0.3850
 1812TIP3    H227072   1.627   1.609   8.928  0.1219  0.5955  0.3856
 1813TIP3   OH227073   2.429   1.789   8.145  0.4328  0.4102  0.1515
 1813TIP3    H127074   2.432   1.727   8.218  0.3791  0.8561  0.5398
 1813TIP3    H227075   2.457   1.872   8.183  0.1456  0.7063 -0.2764
 1814TIP3   OH227076   5.844   4.700   0.373 -0.3526 -0.1621 -0.1550
 1814TIP3    H127077   5.768   4.677   0.427 -0.8898 -0.3269 -0.9727
 1814TIP3    H227078   5.917   4.653   0.413 -0.2565  1.5442  1.8506
 1815TIP3   OH227079   0.864   3.876   7.239  0.0993  0.3669  0.4556
 1815TIP3    H127080   0.797   3.809   7.225  0.4825 -0.2480  1.4378
 1815TIP3    H227081   0.942   3.840   7.196 -0.2985  1.3131 -1.1340
 1816TIP3   OH227082   6.302   5.641   0.742  0.0509  0.5928  0.4104
 1816TIP3    H127083   6.253   5.688   0.810 -0.4320  1.2099 -0.3394
 1816TIP3    H227084   6.270   5.551   0.748 -0.0889  0.6687  0.9004
 1817TIP3   OH227085   5.005   6.439   8.121 -0.0529 -0.4584  0.2971
 1817TIP3    H127086   4.932   6.407   8.068  0.1963 -0.3777 -0.1004
 1817TIP3    H227087   4.986   6.408   8.209  0.5471 -2.3875 -0.1820
 1818TIP3   OH227088   3.253   5.598   1.211  0.1381 -0.6900 -0.4491
 1818TIP3    H127089   3.161   5.607   1.185  0.3069  0.1764 -0.7777
 1818TIP3    H227090   3.250   5.550   1.294 -0.6173 -0.5726 -0.4003
 1819TIP3   OH227091   5.587   5.296   7.223  0.6060 -0.3280 -0.0003
 1819TIP3    H127092   5.552   5.379   7.256  0.4069 -0.5752  0.4200
 1819TIP3    H227093   5.671   5.319   7.185 -1.2015  0.8430 -3.7568
 1820TIP3   OH227094   1.201   1.253   6.723 -0.3156 -0.4160  0.1886
 1820TIP3    H127095   1.281   1.260   6.776  0.7488 -0.0561 -1.4018
 1820TIP3    H227096   1.131   1.242   6.787  0.9355 -0.1445  1.6617
 1821TIP3   OH227097   5.843   5.231   0.838  0.2415  0.0707 -0.4313
 1821TIP3    H127098   5.845   5.258   0.930 -1.8811  0.6871 -0.5092
 1821TIP3    H227099   5.883   5.304   0.791  0.1742  0.3258 -0.0957
 1822TIP3   OH227100   5.757   4.716   6.500 -0.6740  0.5085  0.1021
 1822TIP3    H127101   5.818   4.763   6.557 -1.5250 -0.6357  2.0383
 1822TIP3    H227102   5.813   4.668   6.439  0.4122 -0.6018  1.8996
 1823TIP3   OH227103   4.280   5.471   2.295 -0.0292 -0.3833 -0.3742
 1823TIP3    H127104   4.351   5.535   2.285  0.3096 -0.6580  0.2259
 1823TIP3    H227105   4.323   5.386   2.285 -0.4800 -0.5338 -1.1893
 1824TIP3   OH227106   1.099   2.724   8.083 -0.4707 -0.5627  0.4475
 1824TIP3    H127107   1.139   2.788   8.024 -0.7028 -0.7383  0.1011
 1824TIP3    H227108   1.100   2.642   8.034  0.6479 -1.0324  1.2274
 1825TIP3   OH227109   3.283   1.634   1.064 -0.2559  0.5676 -0.0400
 1825TIP3    H127110   3.322   1.587   1.137 -2.1424  0.6238  1.0714
 1825TIP3    H227111   3.350   1.632   0.995  1.1845 -0.3453  1.3229
 1826TIP3   OH227112   5.627   5.015   8.005 -0.1824 -0.3059  0.2231
 1826TIP3    H127113   5.589   5.050   8.085 -1.6930 -0.8774 -0.2049
 1826TIP3    H227114   5.685   4.944   8.034  0.0100  0.1065  0.8528
 1827TIP3   OH227115   0.974   4.137   0.035  0.4459 -0.0301  0.5976
 1827TIP3    H127116   0.968   4.201  -0.035 -0.1867  0.3775  1.0134
 1827TIP3    H227117   0.911   4.167   0.101  1.3845 -0.1112  1.5661
 1828TIP3   OH227118   5.090   1.612   8.639  0.0703  0.0494  0.0831
 1828TIP3    H127119   5.083   1.618   8.544 -1.2881  0.6482  0.1881
 1828TIP3    H227120   5.118   1.699   8.666  0.0928 -0.0137  0.2620
 1829TIP3   OH227121   4.175   1.256   7.207  0.0658 -0.3403  0.3607
 1829TIP3    H127122   4.162   1.162   7.196  0.7755 -0.4894  0.7759
 1829TIP3    H227123   4.101   1.284   7.262 -0.7073 -0.4671 -0.5847
 1830TIP3   OH227124   5.984   0.797   0.995 -0.1491  0.3987 -0.2573
 1830TIP3    H127125   5.938   0.741   0.932 -1.2759 -0.1761  1.0208
 1830TIP3    H227126   6.030   0.861   0.941  1.5943 -1.9933 -1.8466
 1831TIP3   OH227127   5.979   1.528   2.370 -0.4744 -0.2225 -0.6998
 1831TIP3    H127128   5.906   1.587   2.391 -0.0305 -0.5149  2.0512
 1831TIP3    H227129   6.040   1.582   2.320 -0.8610  1.1605  0.2607
 1832TIP3   OH227130   5.786   0.930   7.964  0.1734  0.2952  0.6108
 1832TIP3    H127131   5.726   0.957   7.895 -0.8921 -1.5136  0.7706
 1832TIP3    H227132   5.863   0.896   7.917  0.2417  0.7991  0.3569
 1833TIP3   OH227133   2.692   5.635   7.601  0.3548 -0.0400 -0.0981
 1833TIP3    H127134   2.769   5.584   7.576 -1.3577 -2.4219 -0.9296
 1833TIP3    H227135   2.629   5.619   7.530 -1.5632  0.2354  1.4422
 1834TIP3   OH227136   2.010   1.449   1.760 -0.6952  0.1151  0.1188
 1834TIP3    H127137   2.092   1.398   1.763 -1.5103 -1.1980  1.1906
 1834TIP3    H227138   2.012   1.501   1.840 -0.3478  1.0480 -0.4762
 1835TIP3   OH227139   0.171   5.412   8.313 -0.4597 -0.0147  0.2212
 1835TIP3    H127140   0.236   5.408   8.383  0.6990  0.1463 -0.8048
 1835TIP3    H227141   0.090   5.381   8.353  0.3101 -0.4694  1.4706
 1836TIP3   OH227142   0.375   5.378   8.495 -0.4750  0.1915 -0.3895
 1836TIP3    H127143   0.431   5.454   8.510 -0.0053 -0.3366  0.5915
 1836TIP3    H227144   0.428   5.320   8.440  0.1023 -0.4415  0.7835
 1837TIP3   OH227145   1.183   3.083   7.652  0.3826  0.1951  0.3967
 1837TIP3    H127146   1.147   3.166   7.684  1.5584 -0.0356  2.5678
 1837TIP3    H227147   1.275   3.086   7.679  0.4879 -1.7222  0.3425
 1838TIP3   OH227148   2.606   6.832   6.803 -0.3289  0.2508  0.3647
 1838TIP3    H127149   2.652   6.913   6.825  1.5605 -0.8825  0.7859
 1838TIP3    H227150   2.629   6.815   6.712 -0.2488 -0.1053  0.4503
 1839TIP3   OH227151   5.078   6.175   7.324  0.6818  0.6294  0.3611
 1839TIP3    H127152   5.093   6.132   7.408  1.2766 -0.1092 -0.1159
 1839TIP3    H227153   5.102   6.110   7.259  1.6237  1.6731 -0.3786
 1840TIP3   OH227154   1.966   5.054   0.302 -0.2645 -0.5984 -0.4762
 1840TIP3    H127155   2.048   5.061   0.253  1.2400 -0.0074  1.9921
 1840TIP3    H227156   1.952   5.140   0.340 -3.2924 -0.0059 -2.5610
 1841TIP3   OH227157   3.919   0.085   8.267 -0.2786 -1.0832 -0.0045
 1841TIP3    H127158   3.960   0.154   8.215 -0.9492 -1.2308 -0.7574
 1841TIP3    H227159   3.874   0.030   8.202  0.8649 -2.6651  0.5026
 1842TIP3   OH227160   3.501   5.838   0.551 -0.2604  0.0499  0.3401
 1842TIP3    H127161   3.548   5.866   0.473  0.0530 -1.4993 -0.0599
 1842TIP3    H227162   3.569   5.833   0.619 -0.1313 -0.6496  0.1651
 1843TIP3   OH227163   2.847   2.070   7.843 -0.1499 -0.2889 -0.0553
 1843TIP3    H127164   2.806   2.154   7.864  0.4657 -0.4372  1.9091
 1843TIP3    H227165   2.810   2.046   7.758 -1.0086  1.5314 -0.2414
 1844TIP3   OH227166   1.797   1.665   1.528 -0.1413 -0.3541 -0.3576
 1844TIP3    H127167   1.725   1.614   1.565  0.2658 -0.3721  0.4180
 1844TIP3    H227168   1.839   1.706   1.603  0.3914  0.0094 -0.8467
 1845TIP3   OH227169   4.625   0.426   2.208  0.2003 -0.5763 -0.1979
 1845TIP3    H127170   4.675   0.369   2.266  0.2687 -0.5554 -0.2353
 1845TIP3    H227171   4.588   0.493   2.265 -0.3882 -1.0097 -0.0678
 1846TIP3   OH227172   3.166   0.280   1.852 -0.0369  0.0285 -0.1041
 1846TIP3    H127173   3.254   0.297   1.817 -0.1232 -0.4511 -0.5839
 1846TIP3    H227174   3.170   0.189   1.882 -0.4439 -0.0898 -0.3944
 1847TIP3   OH227175   3.399   0.748   0.765 -0.8390  0.5800 -0.0035
 1847TIP3    H127176   3.398   0.827   0.711  0.5971  0.0802 -0.8219
 1847TIP3    H227177   3.473   0.697   0.732 -1.3030 -0.7946  0.9714
 1848TIP3   OH227178   1.284   2.691   7.433  0.1020 -0.0635 -0.6586
 1848TIP3    H127179   1.246   2.775   7.459  0.9318  0.1729 -0.1472
 1848TIP3    H227180   1.268   2.685   7.339 -0.8308  0.2065 -0.5235
 1849TIP3   OH227181   5.482   3.192   8.171  0.0381  0.4528  0.3705
 1849TIP3    H127182   5.481   3.287   8.161 -0.4361  0.6955  2.2369
 1849TIP3    H227183   5.536   3.160   8.100 -0.8782  2.0112 -1.0915
 1850TIP3   OH227184   0.441   4.211   7.655 -0.6532  0.3502 -0.0597
 1850TIP3    H127185   0.467   4.121   7.678  0.6156  0.4394 -1.0323
 1850TIP3    H227186   0.346   4.207   7.650 -0.6149 -0.9853 -0.2535
 1851TIP3   OH227187   4.234   3.852   0.194 -0.6283 -0.1859  0.4236
 1851TIP3    H127188   4.299   3.789   0.164 -1.5881 -0.9966 -0.0324
 1851TIP3    H227189   4.261   3.874   0.283  1.3191  0.9693 -0.3852
 1852TIP3   OH227190   5.311   5.466   7.450  0.1614 -0.0062 -0.6635
 1852TIP3    H127191   5.265   5.397   7.401  0.8525 -1.4966  0.7327
 1852TIP3    H227192   5.354   5.420   7.522  1.5809  1.7458 -0.3455
 1853TIP3   OH227193   0.393   1.111   7.435  0.6818  0.6090 -0.3072
 1853TIP3    H127194   0.357   1.092   7.521  0.1518 -0.2880 -0.7066
 1853TIP3    H227195   0.397   1.026   7.391  1.8790  0.9007 -0.8226
 1854TIP3   OH227196   0.983   6.784   8.753  0.1051 -0.4926  0.5955
 1854TIP3    H127197   1.026   6.726   8.689  3.0827  0.7580  1.3599
 1854TIP3    H227198   0.961   6.726   8.826  5.0585 -0.6158  2.3580
 1855TIP3   OH227199   3.280   1.834   0.645  0.0839  0.1520  0.1221
 1855TIP3    H127200   3.229   1.913   0.666 -2.7348 -1.5987  0.4427
 1855TIP3    H227201   3.352   1.835   0.708 -1.1251  1.3977  1.5900
 1856TIP3   OH227202   3.543   0.006   1.077 -0.1839  0.0119 -0.0081
 1856TIP3    H127203   3.577  -0.047   1.150 -0.1874 -0.3665 -0.2742
 1856TIP3    H227204   3.461   0.042   1.110 -0.7976 -1.1314 -0.2255
 1857TIP3   OH227205   2.000   4.780   0.297  0.5515 -0.0548  0.7901
 1857TIP3    H127206   1.998   4.733   0.381 -0.6673 -0.8324  0.3628
 1857TIP3    H227207   2.001   4.873   0.321 -0.4578 -0.2559  1.6766
 1858TIP3   OH227208   6.242   6.668   6.891 -0.0570 -0.1546  0.5143
 1858TIP3    H127209   6.238   6.666   6.986  0.3675 -1.2607  0.5233
 1858TIP3    H227210   6.152   6.684   6.863 -0.5674 -1.8510  1.0815
 1859TIP3   OH227211   3.937   4.625   0.276 -0.3550 -0.0873  0.2330
 1859TIP3    H127212   3.886   4.650   0.353  0.7154 -1.0660  1.3003
 1859TIP3    H227213   3.925   4.698   0.215 -2.3315  0.0906  0.7456
 1860TIP3   OH227214   1.841   4.676   1.721  0.4258  0.2763 -0.4003
 1860TIP3    H127215   1.900   4.750   1.737 -0.3104  0.7445  0.1847
 1860TIP3    H227216   1.900   4.603   1.698  1.1957  0.8576 -0.3180
 1861TIP3   OH227217   5.537   1.026   8.313  0.0348  0.4236 -0.6402
 1861TIP3    H127218   5.500   1.113   8.297  3.2120  1.8209 -1.2882
 1861TIP3    H227219   5.507   1.002   8.400 -3.7568  0.4902 -1.7803
 1862TIP3   OH227220   6.755   4.445   0.337 -0.3676  0.1048  0.3629
 1862TIP3    H127221   6.738   4.351   0.345 -0.8224  0.3199  2.2309
 1862TIP3    H227222   6.672   4.482   0.307 -1.0877  0.2443  2.4280
 1863TIP3   OH227223   4.583   0.774   7.948 -0.6397  0.6443  0.4181
 1863TIP3    H127224   4.611   0.813   7.864 -2.9807  1.0378 -0.2390
 1863TIP3    H227225   4.570   0.849   8.006 -0.2117  0.4539  0.7665
 1864TIP3   OH227226   3.060   4.644   0.133 -0.1698 -0.6036  0.4847
 1864TIP3    H127227   3.058   4.548   0.136 -0.6939 -0.7914 -2.8294
 1864TIP3    H227228   2.968   4.669   0.144 -0.5073 -0.7284 -1.6157
 1865TIP3   OH227229   2.500   2.443   2.141  0.0030  0.0906  0.7607
 1865TIP3    H127230   2.541   2.527   2.122 -1.0378  1.0451  2.4387
 1865TIP3    H227231   2.568   2.391   2.184  1.0805 -0.5162 -1.5418
 1866TIP3   OH227232   1.899   3.689   1.797  0.4721  0.2976  0.1893
 1866TIP3    H127233   1.972   3.645   1.842  0.0834 -1.6523 -0.9947
 1866TIP3    H227234   1.824   3.633   1.812 -0.0489  0.5224 -1.4051
 1867TIP3   OH227235   1.380   2.902   8.247 -0.0054 -0.5041 -0.3060
 1867TIP3    H127236   1.391   2.809   8.228 -0.7287 -0.5104 -0.7249
 1867TIP3    H227237   1.407   2.946   8.166  2.8778 -0.1666  0.7029
 1868TIP3   OH227238   1.581   4.032   8.043 -0.6840 -0.5206  0.1076
 1868TIP3    H127239   1.637   4.083   7.984 -2.3612  1.5275  0.1392
 1868TIP3    H227240   1.506   4.007   7.989 -1.3737 -0.2061  0.8884
 1869TIP3   OH227241   0.019   6.002   0.172  0.2574 -0.0616  0.0433
 1869TIP3    H127242   0.052   6.086   0.205  0.3582 -0.4887  1.0643
 1869TIP3    H227243  -0.003   5.953   0.250 -1.1970 -0.4512 -0.5891
 1870TIP3   OH227244   4.201   3.741   0.648 -0.0838  0.2618 -0.0388
 1870TIP3    H127245   4.230   3.803   0.581  1.2873  0.3273  0.5688
 1870TIP3    H227246   4.199   3.793   0.729 -1.6042  0.1600  0.0169
 1871TIP3   OH227247   6.203   0.830   1.194 -0.6792 -0.4275  0.2255
 1871TIP3    H127248   6.127   0.800   1.145  0.1048 -1.9262 -0.1731
 1871TIP3    H227249   6.223   0.757   1.253  0.0127  0.2362  0.8366
 1872TIP3   OH227250   5.582   6.661   1.021 -0.5501 -0.5076 -0.1408
 1872TIP3    H127251   5.514   6.701   0.965 -1.7041 -0.8161  0.9878
 1872TIP3    H227252   5.589   6.721   1.096 -0.4189 -1.0796  0.3070
 1873TIP3   OH227253   0.135   4.761   1.953  0.3154  0.4311 -0.0227
 1873TIP3    H127254   0.157   4.812   1.875 -0.3762  0.7224 -0.0346
 1873TIP3    H227255   0.052   4.718   1.931  0.2010  0.3789  0.4902
 1874TIP3   OH227256   5.955   1.836   0.287  0.0272 -0.2484  0.3475
 1874TIP3    H127257   5.896   1.762   0.299 -1.5639  0.8356 -0.3508
 1874TIP3    H227258   5.904   1.912   0.316  0.8075  0.8172 -0.9438
 1875TIP3   OH227259   3.353   2.964   7.264 -0.5446  0.0223  0.0133
 1875TIP3    H127260   3.375   2.934   7.352  0.7494  2.1386  0.4934
 1875TIP3    H227261   3.393   2.899   7.206  1.7755  0.4892  0.9823
 1876TIP3   OH227262   6.431   5.277   1.645  0.0937  0.1322 -0.4567
 1876TIP3    H127263   6.360   5.216   1.626  0.2302 -0.1878  0.0321
 1876TIP3    H227264   6.458   5.311   1.560 -0.2086 -0.2366 -0.7001
 1877TIP3   OH227265   3.243   4.080   1.317 -0.0615 -0.3076 -0.1204
 1877TIP3    H127266   3.169   4.140   1.329  0.0882 -0.3712  1.2916
 1877TIP3    H227267   3.239   4.056   1.225 -1.3028  0.3483 -0.2658
 1878TIP3   OH227268   6.297   0.068   7.610  0.2253 -0.5302 -0.2197
 1878TIP3    H127269   6.382   0.089   7.571 -0.2761  1.5049 -0.3474
 1878TIP3    H227270   6.279   0.142   7.669 -2.2525  0.0317 -1.5389
 1879TIP3   OH227271   1.618   3.775   0.096 -0.1921 -0.1322 -0.2037
 1879TIP3    H127272   1.693   3.809   0.144 -0.3407  0.0891 -0.1253
 1879TIP3    H227273   1.551   3.761   0.162  0.1820 -1.5086 -0.0903
 1880TIP3   OH227274   2.345   6.297   7.708 -0.0970 -0.0988  0.4876
 1880TIP3    H127275   2.432   6.318   7.741  0.9585 -0.4204 -1.8860
 1880TIP3    H227276   2.361   6.243   7.630 -2.3752  0.5688 -0.5390
 1881TIP3   OH227277   3.146   3.951   7.356  0.6520 -0.4805 -0.6042
 1881TIP3    H127278   3.191   3.936   7.272  2.2530  0.0270  0.1233
 1881TIP3    H227279   3.209   3.921   7.422 -0.2826 -0.1720  0.4441
 1882TIP3   OH227280   0.639   2.817   2.317  0.4285 -0.4517  0.1311
 1882TIP3    H127281   0.603   2.736   2.352  1.4915 -0.5716  0.9893
 1882TIP3    H227282   0.733   2.801   2.309  0.3415 -0.1257 -2.0260
 1883TIP3   OH227283   0.963   5.125   7.162 -0.3140 -0.1019 -0.2373
 1883TIP3    H127284   1.009   5.140   7.080 -3.0738 -0.5227 -2.0149
 1883TIP3    H227285   0.887   5.183   7.158 -1.8863 -1.9461  0.7739
 1884TIP3   OH227286   5.180   1.194   1.260 -0.2869  0.2809 -0.6689
 1884TIP3    H127287   5.145   1.134   1.194 -1.5632 -0.6736  0.7931
 1884TIP3    H227288   5.161   1.152   1.343  0.6884  1.7514  0.3531
 1885TIP3   OH227289   3.038   0.942   0.743  0.0238 -0.0908  0.1846
 1885TIP3    H127290   3.116   0.933   0.688  0.0506 -1.2302  0.3817
 1885TIP3    H227291   2.973   0.981   0.685 -0.4078 -2.6156 -1.2140
 1886TIP3   OH227292   4.289   6.512   1.663 -0.3797  0.1909  0.0732
 1886TIP3    H127293   4.381   6.489   1.659 -0.9203 -2.0397 -1.6322
 1886TIP3    H227294   4.284   6.580   1.731  2.6429  1.3397 -0.7076
 1887TIP3   OH227295   2.079   6.018   7.920 -0.1780  0.4484 -0.7443
 1887TIP3    H127296   2.022   6.034   7.845 -2.5143 -1.3561  0.4988
 1887TIP3    H227297   2.110   5.928   7.908  0.0353  0.4062  0.0761
 1888TIP3   OH227298   2.349   4.894   1.319 -0.1549  0.1932  0.7550
 1888TIP3    H127299   2.408   4.819   1.317 -0.9570 -0.5281  2.3083
 1888TIP3    H227300   2.347   4.926   1.229  0.6327 -1.3153  0.1752
 1889TIP3   OH227301   1.761   3.113   0.163 -0.5499  0.1678  0.1321
 1889TIP3    H127302   1.708   3.038   0.189  0.3332 -0.2298  0.8537
 1889TIP3    H227303   1.792   3.091   0.075  0.1877 -0.6172  0.5626
 1890TIP3   OH227304   4.133   5.392   7.480  0.0712  0.0622  0.3326
 1890TIP3    H127305   4.156   5.432   7.564 -0.1698  2.1125 -0.5120
 1890TIP3    H227306   4.077   5.318   7.503  0.2118  0.4306  1.9979
 1891TIP3   OH227307   0.112   1.793   6.525 -0.1411  0.4620  0.1722
 1891TIP3    H127308   0.159   1.778   6.443 -0.3915  1.1757 -0.1110
 1891TIP3    H227309   0.175   1.771   6.593  0.2140  0.2737 -0.2131
 1892TIP3   OH227310   3.529   2.526   1.402 -0.3224  0.1824  0.7738
 1892TIP3    H127311   3.482   2.500   1.481 -1.4351 -0.3985 -0.0568
 1892TIP3    H227312   3.611   2.477   1.405 -0.4767 -0.0411  1.4191
 1893TIP3   OH227313   2.933   0.769   7.564 -0.3568  0.0777  0.2153
 1893TIP3    H127314   3.023   0.792   7.542 -1.1146  0.4078 -2.9934
 1893TIP3    H227315   2.879   0.824   7.507 -2.5410 -1.5848  0.5201
 1894TIP3   OH227316   6.798   4.940   0.795  0.3631 -0.2006  0.5396
 1894TIP3    H127317   6.834   5.012   0.846  2.3395 -0.3666 -0.5168
 1894TIP3    H227318   6.714   4.921   0.836 -0.2019  2.6262  0.8943
 1895TIP3   OH227319   0.753   6.133   8.778 -0.1253 -0.5281  0.4709
 1895TIP3    H127320   0.700   6.066   8.821  1.5560 -1.9283  0.4548
 1895TIP3    H227321   0.754   6.106   8.686 -0.1988  0.0615  0.2946
 1896TIP3   OH227322   3.433   1.060   8.003  0.4067  0.2539  0.3851
 1896TIP3    H127323   3.443   1.053   8.098  1.9938 -0.2519  0.2210
 1896TIP3    H227324   3.356   1.115   7.991 -0.0235  0.0516  1.9581
 1897TIP3   OH227325   5.660   2.685   2.409  0.4938  1.3824  0.3224
 1897TIP3    H127326   5.728   2.654   2.468  0.2485  0.9266  0.3688
 1897TIP3    H227327   5.595   2.726   2.466 -0.7468 -0.8216  0.6394
 1898TIP3   OH227328   3.116   3.938   6.543 -0.1926 -0.1628  0.0219
 1898TIP3    H127329   3.052   3.892   6.598  0.0718  0.1093  0.5738
 1898TIP3    H227330   3.091   4.030   6.549 -0.3076 -0.1550 -0.5220
 1899TIP3   OH227331   4.381   5.385   7.727 -0.1380 -0.1378 -0.1607
 1899TIP3    H127332   4.420   5.461   7.684 -0.0313  0.1624  0.4525
 1899TIP3    H227333   4.328   5.423   7.797 -2.5419 -0.4516 -1.7095
 1900TIP3   OH227334   2.104   2.425   1.341 -0.0446  0.4124  0.3300
 1900TIP3    H127335   2.020   2.406   1.299 -0.6814  0.1818  1.6662
 1900TIP3    H227336   2.161   2.354   1.314 -0.3364  0.4465 -0.4049
 1901TIP3   OH227337   6.545   2.902   7.352  0.2909  0.1590  0.0607
 1901TIP3    H127338   6.488   2.949   7.412  1.8364  1.4662  0.5970
 1901TIP3    H227339   6.518   2.811   7.358  0.4747  0.2313  2.8696
 1902TIP3   OH227340   2.594   4.899   0.327 -0.2093 -0.0163  0.1284
 1902TIP3    H127341   2.512   4.861   0.358 -0.3437 -1.2657 -1.5718
 1902TIP3    H227342   2.642   4.825   0.290 -0.2346  1.3185 -2.8689
 1903TIP3   OH227343   3.488   2.725   1.743  0.1163 -0.7441  0.0431
 1903TIP3    H127344   3.416   2.662   1.744 -1.1186  0.5851 -0.6707
 1903TIP3    H227345   3.525   2.722   1.831 -1.5038 -0.7109  0.7566
 1904TIP3   OH227346   2.931   3.663   1.199  0.4074  0.1125  0.1224
 1904TIP3    H127347   2.942   3.735   1.137 -0.6247 -1.9355 -2.6906
 1904TIP3    H227348   3.020   3.635   1.219  0.7911 -0.0562 -1.6527
 1905TIP3   OH227349   2.142   3.989   0.228 -0.3529  0.3913 -0.0327
 1905TIP3    H127350   2.099   4.074   0.219  1.6926  1.6764  1.4646
 1905TIP3    H227351   2.119   3.960   0.317  1.3648  0.8524  0.5926
 1906TIP3   OH227352   6.746   1.957   1.844 -0.1236 -0.5039  0.5652
 1906TIP3    H127353   6.686   1.955   1.769  1.0674 -1.8418 -0.4223
 1906TIP3    H227354   6.806   1.884   1.828  0.9079 -0.0746  2.2277
 1907TIP3   OH227355   4.044   6.517   6.319 -0.3009  0.7482  0.5571
 1907TIP3    H127356   4.080   6.547   6.235  0.4975 -0.5414  0.4129
 1907TIP3    H227357   4.119   6.513   6.378 -0.3385 -0.9434  0.5514
 1908TIP3   OH227358   5.206   0.038   1.472 -0.0645 -0.3315  0.2926
 1908TIP3    H127359   5.163   0.098   1.533 -0.3685 -2.7091  2.6533
 1908TIP3    H227360   5.153   0.041   1.393 -0.0222  2.4540  0.2958
 1909TIP3   OH227361   4.182   1.712   2.130  0.3010 -0.0317  1.0802
 1909TIP3    H127362   4.160   1.648   2.062 -0.8706 -0.2911  1.6716
 1909TIP3    H227363   4.275   1.697   2.148  1.0653  1.0816 -1.5044
 1910TIP3   OH227364   2.577   3.660   8.380  0.0619  0.1274 -0.0204
 1910TIP3    H127365   2.650   3.704   8.424  0.4684  1.5320 -1.9863
 1910TIP3    H227366   2.520   3.630   8.451  1.2702  1.2371  1.4696
 1911TIP3   OH227367   6.545   3.398   1.105 -0.6597  0.2319  0.2984
 1911TIP3    H127368   6.619   3.339   1.123 -1.6468 -1.4873 -0.9846
 1911TIP3    H227369   6.567   3.479   1.151  0.6560 -1.1962  2.3681
 1912TIP3   OH227370   0.873   5.689   8.249  0.3686 -0.1184 -0.5678
 1912TIP3    H127371   0.952   5.659   8.293 -0.6500 -1.4447  0.4199
 1912TIP3    H227372   0.889   5.783   8.233  0.8182  0.4470  2.6220
 1913TIP3   OH227373   4.305   5.148   0.881  0.2065  0.2035 -0.1887
 1913TIP3    H127374   4.373   5.088   0.849  1.0524  1.3198 -0.5510
 1913TIP3    H227375   4.283   5.115   0.968  1.0610 -0.3130 -0.1548
 1914TIP3   OH227376   1.073   5.880   6.357 -0.3088 -0.6613  0.0904
 1914TIP3    H127377   1.155   5.862   6.311  1.3789  2.5771  1.4623
 1914TIP3    H227378   1.015   5.916   6.290  0.3232 -0.6335 -0.4508
 1915TIP3   OH227379   5.327   0.385   7.450  0.5745 -0.3770 -0.3822
 1915TIP3    H127380   5.381   0.313   7.483  1.7073 -0.3015 -1.9367
 1915TIP3    H227381   5.318   0.367   7.356  1.1719  1.6591 -0.8852
 1916TIP3   OH227382   5.302   0.766   0.352 -0.1091 -0.4988  0.0529
 1916TIP3    H127383   5.235   0.820   0.309  1.3559  1.6481  0.3212
 1916TIP3    H227384   5.288   0.783   0.446  0.6307 -0.2265  0.1188
 1917TIP3   OH227385   4.022   6.682   7.167  0.1243  0.3577 -0.0430
 1917TIP3    H127386   4.097   6.675   7.107 -0.3997  3.5757 -1.2846
 1917TIP3    H227387   3.945   6.675   7.110 -0.5455 -1.6650  1.0468
 1918TIP3   OH227388   6.616   6.666   1.598  0.2871 -0.4633  0.1853
 1918TIP3    H127389   6.686   6.620   1.644  0.1533 -0.2968  0.5615
 1918TIP3    H227390   6.661   6.727   1.539  0.4570 -0.5062  0.2717
 1919TIP3   OH227391   3.251   4.509   7.925  0.0833 -0.0608  0.2535
 1919TIP3    H127392   3.222   4.561   7.850  1.8988  0.9173  0.1869
 1919TIP3    H227393   3.290   4.431   7.886 -2.8169 -1.6846  0.3581
 1920TIP3   OH227394   1.016   2.575   1.469  0.1955  0.6716  0.7181
 1920TIP3    H127395   0.981   2.655   1.430 -0.1006  1.5967  2.7643
 1920TIP3    H227396   0.988   2.506   1.410 -0.1139  1.9828 -0.7531
 1921TIP3   OH227397   1.544   3.023   2.096  0.2170  0.0736  0.2418
 1921TIP3    H127398   1.606   2.951   2.086  0.3937  0.1573  0.7233
 1921TIP3    H227399   1.598   3.101   2.106  0.0300  0.4882 -1.6474
 1922TIP3   OH227400   4.501   0.155   8.618  0.0206  0.0473 -0.2844
 1922TIP3    H127401   4.480   0.215   8.546 -0.1133  0.8879  0.4402
 1922TIP3    H227402   4.477   0.203   8.697 -0.2575 -1.0406  0.3133
 1923TIP3   OH227403   5.510   4.163   6.489  0.2385  0.3214 -0.7230
 1923TIP3    H127404   5.456   4.106   6.544  0.5327 -0.1658 -0.9338
 1923TIP3    H227405   5.473   4.250   6.502 -0.3003  0.0666 -0.4941
 1924TIP3   OH227406   4.711   2.488   6.181  0.4276  0.0385 -0.1357
 1924TIP3    H127407   4.653   2.549   6.228 -0.4099  0.3346 -1.4669
 1924TIP3    H227408   4.736   2.536   6.102  1.4966 -0.5676 -0.1778
 1925TIP3   OH227409   5.490   0.725   8.523  1.3018  0.9320  0.3616
 1925TIP3    H127410   5.429   0.746   8.593  2.5218 -1.1161  2.1528
 1925TIP3    H227411   5.577   0.743   8.559  1.9338  0.7299 -0.9728
 1926TIP3   OH227412   1.274   3.141   0.212  0.0009  0.4148  0.4053
 1926TIP3    H127413   1.198   3.126   0.268 -0.5290  1.4443 -0.0090
 1926TIP3    H227414   1.273   3.236   0.196  0.9191  0.3227 -0.2488
 1927TIP3   OH227415   2.305   3.074   0.955 -0.8951  0.2294  0.3622
 1927TIP3    H127416   2.209   3.077   0.946 -0.9361  1.1632  0.9450
 1927TIP3    H227417   2.331   2.995   0.908 -1.7764  0.8823 -1.3074
 1928TIP3   OH227418   5.790   5.427   7.057  0.3291 -0.0583  0.4947
 1928TIP3    H127419   5.813   5.403   6.968 -3.7619 -1.5729 -0.3908
 1928TIP3    H227420   5.752   5.515   7.049  1.5296  0.5384  1.1056
 1929TIP3   OH227421   5.811   1.381   8.296 -0.0741  0.0106  0.6625
 1929TIP3    H127422   5.898   1.420   8.296 -0.2124  0.3723  2.1120
 1929TIP3    H227423   5.771   1.411   8.214  0.6127  1.1124  0.7103
 1930TIP3   OH227424   2.566   2.398   0.953  0.3293 -0.4091 -0.4572
 1930TIP3    H127425   2.584   2.491   0.961 -0.8554 -0.2485  0.6323
 1930TIP3    H227426   2.648   2.355   0.980  0.7774  0.3033 -0.6663
 1931TIP3   OH227427   5.834   4.794   7.610 -0.1800 -0.5670  0.1533
 1931TIP3    H127428   5.912   4.741   7.627 -0.6244 -0.6176  2.2428
 1931TIP3    H227429   5.777   4.735   7.561  0.4229 -1.0936  0.0595
 1932TIP3   OH227430   2.755   0.551   0.955  0.5896  0.1938 -0.7915
 1932TIP3    H127431   2.808   0.509   0.886 -0.2462  0.0833 -1.3836
 1932TIP3    H227432   2.815   0.612   0.998  1.8477 -1.5718  0.0824
 1933TIP3   OH227433   0.402   6.119   0.862 -0.1990 -0.0797 -0.3799
 1933TIP3    H127434   0.472   6.166   0.816  0.2672 -2.2762 -2.0524
 1933TIP3    H227435   0.447   6.049   0.908 -1.0435  0.1745  0.8615
 1934TIP3   OH227436   5.461   4.039   0.321  0.0764 -0.5104 -0.1532
 1934TIP3    H127437   5.459   4.057   0.415  1.4743 -0.3645 -0.1286
 1934TIP3    H227438   5.551   4.056   0.295 -0.0566 -1.4728 -1.3484
 1935TIP3   OH227439   5.775   0.951   2.259 -0.0445  0.2935  0.5444
 1935TIP3    H127440   5.858   0.903   2.262 -0.4239 -0.3268  1.3769
 1935TIP3    H227441   5.709   0.884   2.238 -0.2031  0.9906 -1.4745
 1936TIP3   OH227442   0.331   5.295   0.442 -0.0529  0.7338 -0.0597
 1936TIP3    H127443   0.357   5.373   0.392 -0.8442  1.3286  0.4366
 1936TIP3    H227444   0.241   5.312   0.468 -0.0013 -0.0382  0.6650
 1937TIP3   OH227445   0.764   4.442   1.224  0.6549  0.4453  0.1210
 1937TIP3    H127446   0.840   4.393   1.191  0.7031  0.3953  0.3046
 1937TIP3    H227447   0.772   4.528   1.185 -0.8321 -0.4362 -2.3304
 1938TIP3   OH227448   2.880   4.435   0.873  0.5253 -0.1891  0.8403
 1938TIP3    H127449   2.785   4.425   0.870  0.6745 -1.4540 -0.5504
 1938TIP3    H227450   2.895   4.493   0.948 -1.3125 -0.1754  1.2511
 1939TIP3   OH227451   1.465   3.021   1.788 -0.2639  0.1040  0.3102
 1939TIP3    H127452   1.389   3.061   1.745  0.4538 -0.1525 -1.2576
 1939TIP3    H227453   1.511   3.095   1.829 -3.1273 -0.0596  4.4162
 1940TIP3   OH227454   5.702   2.005   0.995 -0.4819 -0.1358 -0.4180
 1940TIP3    H127455   5.649   1.926   0.984 -1.4308  0.3074  0.7497
 1940TIP3    H227456   5.652   2.073   0.951 -0.7877  0.2432  0.4949
 1941TIP3   OH227457   6.670   4.790   2.202  0.0192 -0.0380 -0.4119
 1941TIP3    H127458   6.736   4.725   2.226  3.2562  2.3820 -1.9333
 1941TIP3    H227459   6.597   4.774   2.262  0.1117 -5.5180 -1.2435
 1942TIP3   OH227460   2.765   3.823   0.321 -0.0928  0.4288  0.4567
 1942TIP3    H127461   2.705   3.842   0.394 -0.8940  0.8242 -0.2819
 1942TIP3    H227462   2.842   3.877   0.339 -1.3554  2.6404 -0.3436
 1943TIP3   OH227463   6.255   2.457   8.568  0.4003 -0.1663 -0.2308
 1943TIP3    H127464   6.208   2.396   8.512 -2.1599  1.7684 -0.3575
 1943TIP3    H227465   6.296   2.402   8.635 -2.5475 -2.0172  0.2319
 1944TIP3   OH227466   2.637   5.071   7.760  0.6596 -0.1094  0.7431
 1944TIP3    H127467   2.682   5.090   7.678  0.6151  0.2190  0.7932
 1944TIP3    H227468   2.549   5.108   7.749  1.3241  1.9574  1.7499
 1945TIP3   OH227469   0.209   2.750   0.922 -0.3199  0.1514 -0.3843
 1945TIP3    H127470   0.264   2.673   0.907 -0.6253 -0.4590  1.3612
 1945TIP3    H227471   0.269   2.824   0.918  0.2100 -0.2935 -0.8002
 1946TIP3   OH227472   4.685   2.150   8.811  0.3258  0.1547  0.5261
 1946TIP3    H127473   4.691   2.243   8.787  1.5857  0.0486  0.3625
 1946TIP3    H227474   4.592   2.136   8.829  0.0764  1.3850  0.2987
 1947TIP3   OH227475   4.455   3.415   7.928  0.4743 -0.1503 -0.4552
 1947TIP3    H127476   4.474   3.377   8.014 -0.6555  0.0828 -0.0921
 1947TIP3    H227477   4.403   3.349   7.883 -1.7052  0.9697  0.2628
 1948TIP3   OH227478   6.441   0.750   1.362 -0.2546  0.1236  0.1273
 1948TIP3    H127479   6.358   0.796   1.371 -1.0732 -1.5150  1.6364
 1948TIP3    H227480   6.508   0.819   1.364 -1.4537  1.3134  1.3106
 1949TIP3   OH227481   1.551   6.524   8.007  0.6433  0.1597 -0.1355
 1949TIP3    H127482   1.604   6.567   8.075 -0.0357 -0.5531  0.8843
 1949TIP3    H227483   1.612   6.464   7.963  1.0283  0.4241  0.0321
 1950TIP3   OH227484   2.182   0.313   7.282 -0.4479  0.0608  0.6701
 1950TIP3    H127485   2.177   0.258   7.360  2.4486  1.0790  1.7106
 1950TIP3    H227486   2.253   0.276   7.230  0.6326  1.9150  0.7246
 1951TIP3   OH227487   0.832   3.154   0.949 -0.2879  0.0143  0.1748
 1951TIP3    H127488   0.770   3.109   1.006 -1.8578  1.2939 -0.4527
 1951TIP3    H227489   0.778   3.188   0.877  1.5321 -1.1798 -1.8955
 1952TIP3   OH227490   5.252   0.088   8.668 -0.0999  0.7264 -0.3788
 1952TIP3    H127491   5.278   0.160   8.724  0.7856  0.3141 -0.2489
 1952TIP3    H227492   5.274   0.009   8.717 -4.1302  0.2180  1.0287
 1953TIP3   OH227493   4.862   3.717   0.912 -0.7289  0.8912  0.6854
 1953TIP3    H127494   4.931   3.662   0.876  1.5500  1.0890  4.2552
 1953TIP3    H227495   4.835   3.774   0.839  1.2359 -0.7290 -1.4328
 1954TIP3   OH227496   2.143   1.391   7.443 -0.5616  0.8080 -0.2049
 1954TIP3    H127497   2.051   1.385   7.419 -0.5375  1.8365 -0.6036
 1954TIP3    H227498   2.170   1.478   7.414  0.4484  0.6511  0.2133
 1955TIP3   OH227499   2.695   0.723   8.097 -0.3476 -0.2384  0.0511
 1955TIP3    H127500   2.708   0.698   8.005 -0.5589  0.2633 -0.1197
 1955TIP3    H227501   2.700   0.641   8.145 -0.4167 -0.5298 -0.4293
 1956TIP3   OH227502   1.746   6.358   7.417  0.0130 -0.2703 -0.3114
 1956TIP3    H127503   1.708   6.413   7.485  0.6237 -2.2957  1.8235
 1956TIP3    H227504   1.806   6.301   7.464  1.1760 -1.1712 -2.7287
 1957TIP3   OH227505   4.789   5.624   0.237  0.1560  0.7022  0.0479
 1957TIP3    H127506   4.878   5.645   0.265  0.7839 -2.3941  0.7655
 1957TIP3    H227507   4.743   5.602   0.318 -0.1652 -1.2595 -0.6160
 1958TIP3   OH227508   5.431   2.492   7.229 -0.3294  0.3078  0.0904
 1958TIP3    H127509   5.500   2.528   7.172 -1.8152  2.6294 -0.3322
 1958TIP3    H227510   5.404   2.412   7.184  2.5487 -1.1426  0.6730
 1959TIP3   OH227511   0.455   5.233   0.097  0.1506 -0.0333 -0.2810
 1959TIP3    H127512   0.531   5.203   0.147  1.4791  0.8020 -1.7292
 1959TIP3    H227513   0.381   5.218   0.156  1.5921  0.6619  1.8341
 1960TIP3   OH227514   6.771   3.124   6.752 -0.0042  0.4142  0.0089
 1960TIP3    H127515   6.739   3.042   6.789 -1.0400  0.3519 -0.9737
 1960TIP3    H227516   6.839   3.098   6.690  1.0556  0.4555  1.1150
 1961TIP3   OH227517   2.126   4.044   1.479  0.0144  0.2587 -0.1382
 1961TIP3    H127518   2.118   4.072   1.388 -1.3313 -0.1159 -0.1581
 1961TIP3    H227519   2.111   4.123   1.531 -1.0014  0.1476 -0.2356
 1962TIP3   OH227520   6.522   5.032   7.484  0.2302  1.2975  0.0467
 1962TIP3    H127521   6.612   5.060   7.496  0.1916  0.5361  2.7969
 1962TIP3    H227522   6.479   5.052   7.567 -1.3264 -1.1184 -0.0581
 1963TIP3   OH227523   3.545   3.274   8.581 -0.6514  0.4968  0.2188
 1963TIP3    H127524   3.616   3.210   8.588  0.7613  2.1427  2.3550
 1963TIP3    H227525   3.519   3.291   8.672 -1.6525  2.2346 -0.3502
 1964TIP3   OH227526   4.082   5.952   2.011  0.1299  0.0624  0.1191
 1964TIP3    H127527   4.115   6.021   1.954 -1.1659 -0.6722 -1.6419
 1964TIP3    H227528   4.011   5.993   2.060 -0.6259  0.0185 -0.9090
 1965TIP3   OH227529   5.159   6.161   2.488 -0.4047 -0.1699 -0.2511
 1965TIP3    H127530   5.196   6.230   2.433 -0.6428  0.0814 -0.0979
 1965TIP3    H227531   5.064   6.171   2.479 -0.4412 -0.7591 -0.5787
 1966TIP3   OH227532   5.375   6.214   1.329 -0.4103  0.7805  0.3428
 1966TIP3    H127533   5.369   6.173   1.415  1.4293  0.0266  0.1539
 1966TIP3    H227534   5.290   6.257   1.317 -0.6448  1.0575  2.5902
 1967TIP3   OH227535   6.187   4.114   1.076  0.2157  0.0270  0.2568
 1967TIP3    H127536   6.248   4.100   1.003  0.7441  2.2800  0.2042
 1967TIP3    H227537   6.193   4.208   1.095 -1.3845 -0.1536  1.9197
 1968TIP3   OH227538   0.036   0.394   2.291 -0.1040  0.1203  1.0341
 1968TIP3    H127539   0.018   0.329   2.358  0.7835 -2.0282 -0.6677
 1968TIP3    H227540   0.117   0.437   2.319 -0.0677 -0.3291  1.6198
 1969TIP3   OH227541   6.760   4.721   7.752  0.1488 -0.2196  0.0627
 1969TIP3    H127542   6.761   4.807   7.709 -0.3155 -1.2102 -2.0931
 1969TIP3    H227543   6.691   4.672   7.706 -1.9502 -0.7493  3.4218
 1970TIP3   OH227544   2.654   5.945   0.962 -0.2581  0.0244 -0.0159
 1970TIP3    H127545   2.675   5.852   0.969 -2.7250 -0.6060  0.0855
 1970TIP3    H227546   2.689   5.983   1.043  0.6073 -0.8454  0.0353
 1971TIP3   OH227547   5.316   3.730   1.440  0.1288  0.0391 -0.2914
 1971TIP3    H127548   5.255   3.712   1.368 -0.9556 -1.3616  0.9186
 1971TIP3    H227549   5.360   3.646   1.455  0.9279  0.5249  0.1827
 1972TIP3   OH227550   0.948   3.661   8.821  0.5829 -0.0473  0.6846
 1972TIP3    H127551   0.965   3.654   8.915 -0.1823  0.4139  0.8644
 1972TIP3    H227552   0.854   3.646   8.812  0.5329  0.5617  0.0675
 1973TIP3   OH227553   4.299   3.141   1.602 -0.2071 -0.7924 -0.0516
 1973TIP3    H127554   4.370   3.111   1.546 -0.0403 -0.8317  0.1821
 1973TIP3    H227555   4.273   3.225   1.564 -0.1190 -0.8370 -0.2097
 1974TIP3   OH227556   5.379   6.701   2.259 -0.5088 -0.4800 -0.2925
 1974TIP3    H127557   5.453   6.762   2.268 -1.0033  0.4398 -2.1001
 1974TIP3    H227558   5.377   6.655   2.343  1.4228  0.2455  0.2217
 1975TIP3   OH227559   3.074   3.873   0.633 -0.3994  0.1700  0.3010
 1975TIP3    H127560   3.004   3.809   0.618  1.0675 -1.1897 -1.1205
 1975TIP3    H227561   3.031   3.943   0.682 -2.3979 -1.2720  0.7717
 1976TIP3   OH227562   6.033   4.703   1.477  0.1409  0.0875 -0.4005
 1976TIP3    H127563   5.939   4.723   1.474  0.0232 -0.5556 -1.9872
 1976TIP3    H227564   6.045   4.636   1.411  1.9642  1.1630 -1.2254
 1977TIP3   OH227565   1.652   5.656   8.040 -0.3660  0.3164 -0.9427
 1977TIP3    H127566   1.594   5.585   8.014  0.5302 -0.3601 -1.1534
 1977TIP3    H227567   1.691   5.626   8.123  1.1866 -0.1749 -1.8002
 1978TIP3   OH227568   2.700   6.202   8.733  0.6122 -0.3875 -0.2431
 1978TIP3    H127569   2.722   6.292   8.708  2.3647 -0.8518 -0.5000
 1978TIP3    H227570   2.721   6.150   8.655  0.2150 -1.1039  0.1178
 1979TIP3   OH227571   2.112   4.130   1.831 -0.1037  1.0470 -0.1461
 1979TIP3    H127572   2.181   4.126   1.898  0.7326  1.5404 -0.9422
 1979TIP3    H227573   2.042   4.075   1.865  1.7823 -1.7819 -0.5576
 1980TIP3   OH227574   4.758   2.197   0.711  0.1251  0.5380  0.1495
 1980TIP3    H127575   4.678   2.218   0.663  0.9017 -1.3927 -2.1897
 1980TIP3    H227576   4.759   2.102   0.715  0.6960  0.5883  3.1265
 1981TIP3   OH227577   5.409   6.073   8.203  0.1160  0.1432  0.0801
 1981TIP3    H127578   5.360   6.140   8.155  0.3232  0.3356  0.1374
 1981TIP3    H227579   5.481   6.050   8.144  1.1065  1.2728  0.7896
 1982TIP3   OH227580   1.828   4.250   6.589 -0.2980 -0.0305 -0.7819
 1982TIP3    H127581   1.797   4.289   6.507 -1.0615  0.9409 -0.0677
 1982TIP3    H227582   1.920   4.230   6.573 -1.0150 -2.2669 -2.7278
 1983TIP3   OH227583   1.733   0.446   1.051  0.5404 -0.2956  0.8244
 1983TIP3    H127584   1.755   0.406   1.135 -1.1156  2.1633  2.5415
 1983TIP3    H227585   1.652   0.403   1.024 -0.0615  0.3571  1.5691
 1984TIP3   OH227586   2.897   5.118   2.353  0.0705  0.4046  0.3122
 1984TIP3    H127587   2.901   5.049   2.287  0.1816  0.0179  0.7182
 1984TIP3    H227588   2.989   5.144   2.365  0.6319 -2.2661  3.1472
 1985TIP3   OH227589   5.209   4.111   7.170  0.1031 -0.7761 -0.0666
 1985TIP3    H127590   5.264   4.132   7.245 -1.9573  0.4823  1.2085
 1985TIP3    H227591   5.201   4.016   7.171  1.6115 -0.9243  0.1289
 1986TIP3   OH227592   6.415   3.253   0.893 -0.4183 -0.0049  0.3050
 1986TIP3    H127593   6.463   3.292   0.966 -2.2376  1.4300  0.8259
 1986TIP3    H227594   6.473   3.264   0.818  0.0742  1.7713  0.8802
 1987TIP3   OH227595   0.409   6.651   1.651 -0.0214 -0.2889  0.4184
 1987TIP3    H127596   0.366   6.719   1.600 -0.0823  0.4480  1.4338
 1987TIP3    H227597   0.503   6.666   1.639 -0.0359 -0.0931  0.5567
 1988TIP3   OH227598   0.561   0.122   1.237  0.3822  0.0320 -0.1876
 1988TIP3    H127599   0.624   0.194   1.235 -0.1041  0.5693  1.6218
 1988TIP3    H227600   0.591   0.066   1.308 -1.2647  0.4293  0.8889
 1989TIP3   OH227601   5.249   2.974   7.029  0.4823 -0.0292 -0.4002
 1989TIP3    H127602   5.298   2.911   7.082  0.9239  0.4580 -0.2234
 1989TIP3    H227603   5.159   2.966   7.060  0.1249 -2.0025 -1.7413
 1990TIP3   OH227604   5.697   1.731   1.379 -0.6556  0.0965  0.3676
 1990TIP3    H127605   5.749   1.808   1.402 -0.6446  0.0513  0.4908
 1990TIP3    H227606   5.735   1.659   1.430 -0.4265 -0.0677 -0.0303
 1991TIP3   OH227607   3.287   0.946   1.773 -0.0810  0.1048 -0.1205
 1991TIP3    H127608   3.209   0.961   1.719 -0.1745 -0.7971 -0.2479
 1991TIP3    H227609   3.355   0.923   1.710 -0.3429 -1.5643  0.1593
 1992TIP3   OH227610   5.167   6.353   0.797 -0.7675 -0.1794 -0.0054
 1992TIP3    H127611   5.154   6.300   0.875 -2.2705 -0.5710 -0.4893
 1992TIP3    H227612   5.231   6.304   0.745 -0.5567 -0.4428  0.5023
 1993TIP3   OH227613   3.773   1.529   7.802  0.5515  0.3584 -0.3216
 1993TIP3    H127614   3.867   1.513   7.793  0.8507  0.6524  1.6600
 1993TIP3    H227615   3.734   1.442   7.808  0.5577  0.2143 -2.0677
 1994TIP3   OH227616   1.876   3.836   0.214 -0.1340  0.2238  0.2160
 1994TIP3    H127617   1.902   3.746   0.193 -0.5755  0.6380 -2.4821
 1994TIP3    H227618   1.924   3.856   0.294 -0.3845 -2.5474  1.1876
 1995TIP3   OH227619   3.315   2.759   1.122  0.6665  0.5644 -0.1143
 1995TIP3    H127620   3.378   2.823   1.088 -0.5925  2.5138  1.0702
 1995TIP3    H227621   3.246   2.755   1.056  0.6686  0.5280 -0.1146
 1996TIP3   OH227622   3.320   3.923   0.404 -0.4599 -0.0808 -0.0855
 1996TIP3    H127623   3.391   3.905   0.466  3.0761  0.2002 -3.6069
 1996TIP3    H227624   3.295   4.014   0.423  0.6727  0.0755  0.8252
 1997TIP3   OH227625   1.302   1.795   7.431  0.2321  0.5855  0.1647
 1997TIP3    H127626   1.225   1.819   7.482 -0.4342 -0.4372 -0.3263
 1997TIP3    H227627   1.268   1.741   7.360  1.5082 -0.8227  0.5644
 1998TIP3   OH227628   0.764   5.557   0.764 -0.4136 -0.3874  0.3891
 1998TIP3    H127629   0.783   5.507   0.684 -2.8060  1.3469 -1.4527
 1998TIP3    H227630   0.846   5.557   0.813  1.1367 -1.6803 -1.9953
 1999TIP3   OH227631   5.159   5.470   1.811  0.2887 -0.1187 -0.4444
 1999TIP3    H127632   5.110   5.388   1.804 -0.3706  0.1587  0.7688
 1999TIP3    H227633   5.146   5.499   1.901  2.6735 -0.0000 -0.0746
 2000TIP3   OH227634   3.801   3.717   1.151 -0.4043 -0.5678 -0.0899
 2000TIP3    H127635   3.834   3.648   1.093 -0.4444 -0.7738  0.1316
 2000TIP3    H227636   3.858   3.713   1.228 -1.8699 -1.9577  0.9932
 2001TIP3   OH227637   3.318   5.301   1.654 -0.1398  0.4259 -0.2103
 2001TIP3    H127638   3.315   5.267   1.744  0.5880  0.7643 -0.0506
 2001TIP3    H227639   3.400   5.269   1.619 -0.1770  0.7293 -0.5828
 2002TIP3   OH227640   5.798   5.912   8.663  0.2039 -0.1312 -0.5257
 2002TIP3    H127641   5.738   5.963   8.608  0.5327 -0.0014 -0.7662
 2002TIP3    H227642   5.842   5.977   8.717  1.0177 -0.0949 -1.2119
 2003TIP3   OH227643   2.689   3.275   7.817 -0.0660 -0.3317 -0.3032
 2003TIP3    H127644   2.750   3.330   7.865 -0.3953 -0.8287  0.7125
 2003TIP3    H227645   2.707   3.293   7.725  2.0866 -0.9752 -0.0531
 2004TIP3   OH227646   5.097   5.568   0.990 -0.4571 -0.3533 -0.2098
 2004TIP3    H127647   5.091   5.664   0.995 -1.2079 -0.3820 -0.4224
 2004TIP3    H227648   5.148   5.551   0.911 -0.3355 -0.1330 -0.1800
 2005TIP3   OH227649   2.265   5.988   7.131 -0.6292  0.0132  0.4926
 2005TIP3    H127650   2.226   5.944   7.206 -0.3396  1.9269  1.8519
 2005TIP3    H227651   2.195   6.044   7.097 -0.2947  0.3266  0.3152
 2006TIP3   OH227652   6.346   4.154   6.957  0.1531  0.2694  0.2615
 2006TIP3    H127653   6.403   4.079   6.973 -0.4812 -0.8177 -2.1608
 2006TIP3    H227654   6.259   4.115   6.943 -0.2972  1.5082 -0.5037
 2007TIP3   OH227655   0.052   1.885   8.327 -0.5922 -0.7054  0.1362
 2007TIP3    H127656   0.061   1.980   8.341 -2.9175 -0.4177 -0.0268
 2007TIP3    H227657   0.128   1.848   8.373 -0.7883  1.1032  2.1269
 2008TIP3   OH227658   4.483   3.468   2.113 -0.0084 -0.4840 -0.5465
 2008TIP3    H127659   4.465   3.533   2.181  0.1529  0.7808 -1.6829
 2008TIP3    H227660   4.399   3.422   2.101 -0.2783 -0.1051 -0.1335
 2009TIP3   OH227661   4.540   5.125   1.590  0.1394 -0.0730  0.1600
 2009TIP3    H127662   4.557   5.031   1.588  1.2672  0.1260 -1.0870
 2009TIP3    H227663   4.491   5.143   1.509  0.5852  0.5187  0.0137
 2010TIP3   OH227664   3.782   3.958   0.180  0.1850 -0.4754 -0.0223
 2010TIP3    H127665   3.729   3.965   0.100  0.4642  0.7945 -0.1092
 2010TIP3    H227666   3.721   3.924   0.246 -1.1201  2.0273  0.1754
 2011TIP3   OH227667   6.079   4.694   0.146 -0.0109  0.1451  0.3097
 2011TIP3    H127668   5.994   4.708   0.188 -0.7926  0.3270 -1.2481
 2011TIP3    H227669   6.142   4.734   0.206 -0.7475 -1.6318  2.4483
 2012TIP3   OH227670   4.924   0.002   1.073  0.0386 -0.0715  0.3153
 2012TIP3    H127671   4.991   0.062   1.106  0.0366 -0.6332  1.3700
 2012TIP3    H227672   4.966  -0.084   1.074  0.1665 -0.0747 -1.5350
 2013TIP3   OH227673   3.914   2.282   8.364  0.3332 -0.8758  0.2499
 2013TIP3    H127674   3.826   2.243   8.363  0.3740 -0.9521 -0.7247
 2013TIP3    H227675   3.973   2.208   8.377  0.4110 -1.1709 -1.6088
 2014TIP3   OH227676   3.610   6.232   8.800 -0.2618 -0.0308 -0.0229
 2014TIP3    H127677   3.628   6.325   8.818 -0.6228 -0.0970  0.7310
 2014TIP3    H227678   3.515   6.225   8.803 -0.4515  0.1014 -2.8989
 2015TIP3   OH227679   5.635   2.668   7.069  0.3164 -0.1664  0.2611
 2015TIP3    H127680   5.721   2.703   7.091  0.7974  1.6911 -3.7690
 2015TIP3    H227681   5.575   2.742   7.078 -0.4241 -0.7811  0.5507
 2016TIP3   OH227682   2.228   5.045   7.597  0.1146 -0.3015 -0.4239
 2016TIP3    H127683   2.288   5.114   7.625  0.5004 -1.2594  1.2345
 2016TIP3    H227684   2.217   5.060   7.503  0.7958  1.5284 -0.2543
 2017TIP3   OH227685   6.149   1.818   0.060  0.0223 -0.5046  0.0771
 2017TIP3    H127686   6.061   1.789   0.084  0.4365 -1.9341 -0.0041
 2017TIP3    H227687   6.195   1.829   0.144 -0.0032 -0.5365  0.0954
 2018TIP3   OH227688   0.790   5.323   8.492 -0.4428 -0.2931  0.6091
 2018TIP3    H127689   0.735   5.334   8.415  1.1661 -0.4847 -0.6273
 2018TIP3    H227690   0.799   5.410   8.529  0.7165  0.2690 -0.8744
 2019TIP3   OH227691   3.393   2.124   8.204 -0.3796 -0.3572  0.3111
 2019TIP3    H127692   3.351   2.063   8.264  0.1647 -0.7347  0.3147
 2019TIP3    H227693   3.453   2.070   8.153  2.6667  0.6337  2.5902
 2020TIP3   OH227694   0.942   6.318   2.061  0.0693 -0.5006 -0.3342
 2020TIP3    H127695   0.982   6.263   1.993  1.2075 -1.1963  0.8618
 2020TIP3    H227696   0.940   6.263   2.139  1.0040  1.0543  0.8482
 2021TIP3   OH227697   6.587   4.730   8.203 -0.1742 -0.0986  0.5881
 2021TIP3    H127698   6.623   4.647   8.173  0.1407  0.1568  0.2490
 2021TIP3    H227699   6.597   4.789   8.128  0.7076  0.5748  1.2249
 2022TIP3   OH227700   3.097   5.222   2.547  0.2245  0.3385 -0.0009
 2022TIP3    H127701   3.121   5.148   2.492 -0.0678 -0.0815  0.4316
 2022TIP3    H227702   3.023   5.191   2.599  1.2613  0.2932  1.5304
 2023TIP3   OH227703   1.208   6.062   0.850  0.0042 -0.5741 -0.3167
 2023TIP3    H127704   1.125   6.013   0.852 -0.3565 -0.0317 -1.3861
 2023TIP3    H227705   1.238   6.055   0.759  0.3346  0.5356 -0.3067
 2024TIP3   OH227706   3.084   3.987   8.027  0.4470 -0.3534 -0.5616
 2024TIP3    H127707   3.011   4.033   8.068  0.7105  0.4205 -0.9316
 2024TIP3    H227708   3.086   3.902   8.069  0.2391  0.1508  0.5014
 2025TIP3   OH227709   3.110   5.578   2.928  0.5642 -0.2457 -0.3237
 2025TIP3    H127710   3.191   5.593   2.879  0.0880  0.7287 -0.8639
 2025TIP3    H227711   3.067   5.664   2.930  0.6080 -0.2372  1.9317
 2026TIP3   OH227712   2.718   2.811   8.733 -0.1307  0.1625  0.3484
 2026TIP3    H127713   2.628   2.778   8.727 -0.3299  0.8282 -0.4077
 2026TIP3    H227714   2.708   2.905   8.749  0.4259  0.3162 -0.1827
 2027TIP3   OH227715   3.632   4.173   2.003 -0.4359  0.2871 -0.1663
 2027TIP3    H127716   3.585   4.135   2.077 -0.4366 -0.2008 -0.4204
 2027TIP3    H227717   3.703   4.112   1.985  0.4203  1.1001  0.3311
 2028TIP3   OH227718   3.780   3.358   0.789  0.0092 -0.1508  0.1355
 2028TIP3    H127719   3.869   3.368   0.755 -0.1612  3.0939  0.3732
 2028TIP3    H227720   3.726   3.349   0.711  0.2546  1.1778 -0.2180
 2029TIP3   OH227721   4.364   1.920   7.100  0.0723  0.3546 -0.0256
 2029TIP3    H127722   4.321   1.835   7.095 -0.7384  0.7456  0.2752
 2029TIP3    H227723   4.297   1.983   7.075  0.7061  0.9024 -0.3910
 2030TIP3   OH227724   2.741   1.223   0.859  1.0799 -0.2455 -0.2358
 2030TIP3    H127725   2.733   1.254   0.769 -3.2821  1.5283  0.5042
 2030TIP3    H227726   2.807   1.280   0.898  1.3038  0.5663 -1.7230
 2031TIP3   OH227727   3.668   6.127   8.126  0.4975 -0.1049 -0.0562
 2031TIP3    H127728   3.649   6.199   8.187  0.0367 -0.4688  0.2394
 2031TIP3    H227729   3.613   6.144   8.050  0.1717 -0.2997  0.1348
 2032TIP3   OH227730   1.181   1.431   1.000  0.0857  0.5848  0.4591
 2032TIP3    H127731   1.132   1.512   1.017 -0.6281  0.4240 -0.7333
 2032TIP3    H227732   1.222   1.445   0.915  1.7024  0.4904  1.1737
 2033TIP3   OH227733   2.382   2.939   1.805  0.2722  0.2432 -0.2579
 2033TIP3    H127734   2.454   2.887   1.839  1.4754  0.8849 -1.7218
 2033TIP3    H227735   2.423   3.018   1.770 -1.0435  0.3646 -1.6548
 2034TIP3   OH227736   1.223   3.239   8.638  0.1058  0.2932 -0.0663
 2034TIP3    H127737   1.265   3.168   8.591  0.8964 -0.5045  1.7319
 2034TIP3    H227738   1.133   3.210   8.651 -0.1846  0.6302 -1.2608
 2035TIP3   OH227739   5.607   5.802   7.606  0.1877  0.1082 -0.1708
 2035TIP3    H127740   5.514   5.811   7.586  0.1177 -0.7064 -0.2516
 2035TIP3    H227741   5.638   5.733   7.547  1.0662  1.0276 -0.8345
 2036TIP3   OH227742   2.529   0.378   8.048 -0.0595 -0.5138  0.3056
 2036TIP3    H127743   2.446   0.421   8.027 -0.4221 -0.9979  0.7168
 2036TIP3    H227744   2.589   0.406   7.979 -0.5664 -0.1578  0.0062
 2037TIP3   OH227745   2.040   0.462   1.116 -0.6518 -0.4924 -0.0511
 2037TIP3    H127746   2.000   0.398   1.058 -1.4667 -1.6516  1.7008
 2037TIP3    H227747   2.123   0.485   1.073 -0.7302 -2.0767 -1.1478
 2038TIP3   OH227748   4.477   0.033   1.019 -0.1150  0.2089 -0.4424
 2038TIP3    H127749   4.535   0.109   1.026 -1.4446  1.1464  1.6369
 2038TIP3    H227750   4.416   0.056   0.949 -0.9011  1.4116  0.5847
 2039TIP3   OH227751   0.525   6.484   7.156 -0.3194 -0.0469 -0.0721
 2039TIP3    H127752   0.609   6.479   7.203 -1.1252 -2.4475  1.2981
 2039TIP3    H227753   0.484   6.564   7.188  1.3926  1.2031 -0.8003
 2040TIP3   OH227754   1.589   4.312   0.289 -0.7459 -0.0797 -0.8912
 2040TIP3    H127755   1.522   4.296   0.356  0.0918 -0.2764 -0.0894
 2040TIP3    H227756   1.671   4.319   0.337 -0.1607  0.0643 -1.8739
 2041TIP3   OH227757   2.525   3.935   1.097  0.0482  0.3338  0.4349
 2041TIP3    H127758   2.506   3.841   1.090  0.0149  0.3224  0.6751
 2041TIP3    H227759   2.578   3.943   1.176 -0.8681  0.6533  1.0339
 2042TIP3   OH227760   0.060   0.486   1.618  0.2798 -0.1067  0.1114
 2042TIP3    H127761   0.017   0.563   1.655  0.4389 -1.3319  3.1299
 2042TIP3    H227762  -0.012   0.426   1.599  0.3281 -1.1536  2.7510
 2043TIP3   OH227763   4.882   6.494   6.996 -0.2352 -0.3158  0.2810
 2043TIP3    H127764   4.787   6.491   7.011 -0.0701 -0.4136  1.3579
 2043TIP3    H227765   4.920   6.510   7.083  0.7580 -0.6716 -0.0741
 2044TIP3   OH227766   1.791   6.004   8.311  0.0338  0.0003 -0.2072
 2044TIP3    H127767   1.719   6.032   8.255 -0.3941  1.0157  0.8230
 2044TIP3    H227768   1.778   6.051   8.393  1.3864 -0.4633  0.3039
 2045TIP3   OH227769   2.904   6.585   1.227 -0.4453  0.5195  0.5887
 2045TIP3    H127770   2.835   6.557   1.167 -1.5112  1.3412  1.3881
 2045TIP3    H227771   2.953   6.651   1.178  0.1706 -0.5059 -0.2012
 2046TIP3   OH227772   6.699   5.976   0.394 -0.2988  0.8409  0.5587
 2046TIP3    H127773   6.783   6.011   0.423  0.0808 -1.4661  2.5962
 2046TIP3    H227774   6.641   5.987   0.470 -0.6118 -1.2871  0.6843
 2047TIP3   OH227775   2.738   5.136   1.999 -0.0211 -0.2995 -0.2061
 2047TIP3    H127776   2.797   5.064   2.025  0.2914  0.1859  0.4593
 2047TIP3    H227777   2.677   5.145   2.072  1.3317  1.5817  0.7770
 2048TIP3   OH227778   3.038   4.799   7.462 -0.1292 -0.4701 -0.4890
 2048TIP3    H127779   3.116   4.749   7.485  0.7209  1.0738  0.1015
 2048TIP3    H227780   3.050   4.821   7.370 -0.2690 -0.9322 -0.6177
 2049TIP3   OH227781   5.528   4.876   7.061  0.2189 -0.4260  0.3711
 2049TIP3    H127782   5.440   4.859   7.028  0.0612 -1.3483  1.2091
 2049TIP3    H227783   5.586   4.859   6.987 -0.2341 -0.9104  0.1208
 2050TIP3   OH227784   5.381   2.700   8.828  0.3352  0.4162  0.1605
 2050TIP3    H127785   5.323   2.624   8.829 -0.5789  1.0861 -0.2929
 2050TIP3    H227786   5.326   2.773   8.856  0.7143  1.2229 -1.0737
 2051TIP3   OH227787   6.130   2.733   0.742 -0.0482  0.5926 -0.0666
 2051TIP3    H127788   6.161   2.666   0.681  1.6657  0.7623  0.5538
 2051TIP3    H227789   6.079   2.793   0.688  0.1080 -0.1148 -1.0270
 2052TIP3   OH227790   2.127   0.186   7.976 -0.5241 -0.1877  0.0097
 2052TIP3    H127791   2.089   0.137   7.902 -0.6508 -0.1688  0.0620
 2052TIP3    H227792   2.079   0.268   7.977 -0.8836 -0.3984  0.4362
 2053TIP3   OH227793   6.758   1.168   8.784  0.1973 -0.3882  0.4235
 2053TIP3    H127794   6.706   1.247   8.798 -1.7144 -1.6331  0.7802
 2053TIP3    H227795   6.729   1.108   8.852 -0.1854 -2.2366 -1.2807
 2054TIP3   OH227796   1.475   4.668   6.349  0.1408 -0.3840  0.3174
 2054TIP3    H127797   1.532   4.689   6.275 -0.9529 -0.2515 -0.5272
 2054TIP3    H227798   1.386   4.676   6.313 -0.4439  0.3700  1.8256
 2055TIP3   OH227799   1.352   3.195   6.879 -0.7729 -0.5031 -1.3172
 2055TIP3    H127800   1.354   3.164   6.789  0.8058 -2.5170 -0.6877
 2055TIP3    H227801   1.352   3.115   6.932 -0.7897  0.6064  0.4655
 2056TIP3   OH227802   2.630   4.296   1.391 -0.0645 -0.0167 -0.4188
 2056TIP3    H127803   2.559   4.360   1.397 -0.9177 -0.9952  0.4600
 2056TIP3    H227804   2.627   4.250   1.475  0.8910 -0.8312 -0.8101
 2057TIP3   OH227805   1.220   5.202   7.913  0.3023 -0.3858  0.4173
 2057TIP3    H127806   1.173   5.276   7.875  1.0404  0.1345  0.5151
 2057TIP3    H227807   1.190   5.126   7.862 -1.1379 -0.1787  0.8986
 2058TIP3   OH227808   1.105   5.175   2.336  0.2860 -0.0127 -0.2888
 2058TIP3    H127809   1.163   5.231   2.387  1.9498  0.1731 -2.2674
 2058TIP3    H227810   1.137   5.086   2.351 -0.2994 -0.1390  0.2815
 2059TIP3   OH227811   6.399   5.145   1.345 -0.1332  0.2948  0.0269
 2059TIP3    H127812   6.437   5.056   1.344  3.5784  1.6512  1.4262
 2059TIP3    H227813   6.445   5.190   1.274  0.4294  1.8605  1.3227
 2060TIP3   OH227814   3.570   1.543   7.090 -0.2465 -0.3647  0.5680
 2060TIP3    H127815   3.487   1.590   7.099  0.3805  0.6980  1.0506
 2060TIP3    H227816   3.618   1.594   7.025  0.0352 -0.9745  0.2914
 2061TIP3   OH227817   2.950   3.718   6.401 -0.1840 -0.5386  0.1028
 2061TIP3    H127818   3.028   3.678   6.363 -0.2390 -1.0070  0.4718
 2061TIP3    H227819   2.958   3.701   6.495 -0.8260 -0.7606  0.1255
 2062TIP3   OH227820   3.220   5.511   1.463 -0.0151  0.1759  0.3738
 2062TIP3    H127821   3.259   5.448   1.524 -1.9536 -1.6919 -0.1935
 2062TIP3    H227822   3.146   5.548   1.510 -0.1899  0.3973 -0.0706
 2063TIP3   OH227823   6.706   0.483   8.373 -0.2329  0.3731 -0.2584
 2063TIP3    H127824   6.741   0.444   8.292 -0.0650  2.4704 -1.2740
 2063TIP3    H227825   6.784   0.506   8.424 -0.0024  3.5222 -1.7801
 2064TIP3   OH227826   2.239   6.071   1.570  0.1215  0.0202 -0.5901
 2064TIP3    H127827   2.144   6.064   1.570  0.1065  0.1385 -0.1393
 2064TIP3    H227828   2.264   6.056   1.662  0.8337 -3.6443 -1.2399
 2065TIP3   OH227829   6.216   1.837   0.967  0.2087  0.4794 -0.3116
 2065TIP3    H127830   6.133   1.883   0.971  0.5212  0.9753  1.3622
 2065TIP3    H227831   6.264   1.879   0.895 -1.2188 -0.2754 -1.7437
 2066TIP3   OH227832   6.645   1.599   1.201 -0.5828 -0.2882 -0.3031
 2066TIP3    H127833   6.628   1.621   1.293  0.1374 -0.7513 -0.0471
 2066TIP3    H227834   6.562   1.618   1.156 -0.7160  0.6509  0.3027
 2067TIP3   OH227835   0.482   5.713   1.160 -0.2703  0.4395 -0.4130
 2067TIP3    H127836   0.397   5.690   1.198  0.2485  0.0944  0.5669
 2067TIP3    H227837   0.506   5.637   1.107 -0.7617  0.7185 -1.0604
 2068TIP3   OH227838   2.043   1.165   0.560  0.6549 -0.0568  0.0802
 2068TIP3    H127839   2.068   1.218   0.484  1.0494 -1.3738 -0.7418
 2068TIP3    H227840   2.026   1.229   0.629  1.5489  1.1204 -0.7414
 2069TIP3   OH227841   4.728   1.290   8.178  0.3233 -0.6891  0.5668
 2069TIP3    H127842   4.637   1.259   8.176  0.6765 -1.8293  1.1397
 2069TIP3    H227843   4.762   1.260   8.262  1.6915 -1.7013 -0.2887
 2070TIP3   OH227844   3.668   2.232   2.337 -0.0720 -0.2045  0.5122
 2070TIP3    H127845   3.628   2.312   2.371  0.6585  1.2727 -1.8552
 2070TIP3    H227846   3.596   2.170   2.332 -0.5822  0.1028  2.7741
 2071TIP3   OH227847   1.977   1.665   8.120  0.5469  0.0393  0.1508
 2071TIP3    H127848   2.039   1.595   8.099 -0.4559 -0.4261 -1.4469
 2071TIP3    H227849   2.031   1.744   8.125  1.1747 -0.1212 -2.5362
 2072TIP3   OH227850   4.655   1.957   1.291 -0.2240 -0.1177  0.6092
 2072TIP3    H127851   4.716   1.973   1.364 -0.2531  0.0547  0.5965
 2072TIP3    H227852   4.712   1.933   1.218 -0.1092  0.6858  0.4142
 2073TIP3   OH227853   3.505   5.257   1.334 -0.2520  0.8918 -0.0474
 2073TIP3    H127854   3.593   5.294   1.323  0.1288 -0.1795 -0.8192
 2073TIP3    H227855   3.482   5.225   1.246 -0.1000 -1.6086  0.7289
 2074TIP3   OH227856   6.360   2.679   0.242 -0.3386  0.6735 -0.4637
 2074TIP3    H127857   6.416   2.602   0.251 -0.1548  0.9972  1.8211
 2074TIP3    H227858   6.332   2.678   0.151 -0.2974 -2.0644 -0.5250
 2075TIP3   OH227859   4.935   4.676   1.771 -0.0348 -0.0761  0.6411
 2075TIP3    H127860   4.996   4.728   1.823  0.8331 -0.3644 -0.0634
 2075TIP3    H227861   4.973   4.675   1.683 -1.5566  0.5384 -0.0574
 2076TIP3   OH227862   2.055   6.823   2.123 -0.1519 -0.1580 -0.2073
 2076TIP3    H127863   2.126   6.883   2.146  0.2728 -0.7218 -0.0183
 2076TIP3    H227864   2.096   6.757   2.068 -0.9589  0.6285 -1.8238
 2077TIP3   OH227865   3.821   4.844   7.920 -0.0127 -0.1520  0.3148
 2077TIP3    H127866   3.789   4.849   8.011 -0.4566  1.0544  0.1083
 2077TIP3    H227867   3.912   4.817   7.928  1.1642  3.5391  1.4195
 2078TIP3   OH227868   1.228   5.421   0.719 -0.0678  0.1751 -0.2578
 2078TIP3    H127869   1.288   5.446   0.790 -0.7358  0.4809  0.2022
 2078TIP3    H227870   1.285   5.377   0.655  0.4360 -0.7632  0.7921
 2079TIP3   OH227871   1.191   2.960   7.395 -0.3061  0.2254 -0.0965
 2079TIP3    H127872   1.218   3.027   7.333 -1.1551 -0.0419 -0.7875
 2079TIP3    H227873   1.212   2.996   7.481  0.5871  0.7430 -0.5196
 2080TIP3   OH227874   0.964   6.683   1.540  0.3328  0.2371 -0.0754
 2080TIP3    H127875   1.024   6.721   1.604  2.6391 -2.0891 -0.6644
 2080TIP3    H227876   1.004   6.701   1.455  0.4272 -1.5632 -0.4667
 2081TIP3   OH227877   3.667   1.960   8.049  0.4937 -0.2039 -0.0267
 2081TIP3    H127878   3.678   1.919   7.964  4.2161  1.3113 -0.4853
 2081TIP3    H227879   3.651   2.053   8.029  3.8895  0.6914  0.6641
 2082TIP3   OH227880   5.701   0.419   1.649 -0.4067 -0.4673 -0.3181
 2082TIP3    H127881   5.715   0.327   1.671 -2.1718 -1.0885 -1.5925
 2082TIP3    H227882   5.652   0.455   1.724  1.0993 -0.2843  0.6097
 2083TIP3   OH227883   3.904   5.930   2.685 -0.2627 -0.1924 -0.2478
 2083TIP3    H127884   3.888   6.006   2.629 -2.2397 -0.4318 -0.0869
 2083TIP3    H227885   3.914   5.857   2.625 -1.4413 -0.2922 -0.3438
 2084TIP3   OH227886   6.691   2.487   0.870 -0.4081  0.0580 -0.5772
 2084TIP3    H127887   6.701   2.417   0.805 -1.6742  1.0334 -1.9009
 2084TIP3    H227888   6.599   2.480   0.898 -0.6622  1.4089 -1.0250
 2085TIP3   OH227889   4.376   6.214   1.137  0.2477  0.5141  0.2097
 2085TIP3    H127890   4.402   6.229   1.228  0.3651  0.7722  0.1361
 2085TIP3    H227891   4.435   6.146   1.106  0.2109  0.4293  0.3260
 2086TIP3   OH227892   2.423   3.306   0.908  0.7726 -0.1480 -0.3301
 2086TIP3    H127893   2.421   3.317   1.003 -1.8056  1.2955 -0.4560
 2086TIP3    H227894   2.400   3.214   0.894  1.4005 -0.4292  0.4447
 2087TIP3   OH227895   6.159   1.439   0.451 -0.0178 -0.0388  0.1366
 2087TIP3    H127896   6.245   1.473   0.475 -0.9259  2.6424 -0.0709
 2087TIP3    H227897   6.113   1.427   0.534 -0.4451  1.4849  0.1415
 2088TIP3   OH227898   5.295   2.163   0.017 -0.1209 -0.3991 -0.6438
 2088TIP3    H127899   5.269   2.173   0.109  0.5044  1.6862 -0.6392
 2088TIP3    H227900   5.220   2.198  -0.032 -0.0714 -0.6362 -0.8874
 2089TIP3   OH227901   5.919   4.386   2.702 -0.4089  0.2720  0.0736
 2089TIP3    H127902   5.883   4.454   2.645 -1.3159  0.5086  0.8839
 2089TIP3    H227903   5.969   4.329   2.644 -1.8821  0.1056 -1.0912
 2090TIP3   OH227904   5.743   5.491   1.453 -0.3763  0.0481 -0.1813
 2090TIP3    H127905   5.744   5.584   1.433  0.4096 -0.2551 -1.7112
 2090TIP3    H227906   5.666   5.457   1.408 -1.9137  0.2658  2.1419
 2091TIP3   OH227907   5.897   3.600   0.575 -0.2115  0.0504  0.0840
 2091TIP3    H127908   5.889   3.538   0.647  1.2492 -1.3578 -0.9229
 2091TIP3    H227909   5.930   3.549   0.502 -0.7303  1.6445 -1.3317
 2092TIP3   OH227910   3.863   3.819   1.479 -0.1382 -0.3026  0.3617
 2092TIP3    H127911   3.836   3.727   1.472  0.7309 -0.5781  0.4007
 2092TIP3    H227912   3.949   3.815   1.521  0.0425  0.5091  0.0869
 2093TIP3   OH227913   4.174   1.067   6.571 -0.2185  0.0460  0.3618
 2093TIP3    H127914   4.095   1.085   6.519 -0.2883  3.1311  1.3393
 2093TIP3    H227915   4.239   1.129   6.537 -0.5215  2.8560  4.3056
 2094TIP3   OH227916   3.057   5.915   1.307 -0.2658  0.1777  0.7938
 2094TIP3    H127917   3.057   5.821   1.291 -1.3055  0.1148  1.0387
 2094TIP3    H227918   3.106   5.953   1.235 -3.5449 -0.1930 -1.8653
 2095TIP3   OH227919   4.695   5.231   7.785  0.0242  0.2929  0.4679
 2095TIP3    H127920   4.773   5.262   7.740  0.3967  0.0538  0.9364
 2095TIP3    H227921   4.622   5.267   7.735  0.4255  2.2544  1.1898
 2096TIP3   OH227922   0.777   0.692   0.176 -0.1540  0.7689  0.1971
 2096TIP3    H127923   0.835   0.717   0.104  0.7757 -0.0401  0.6515
 2096TIP3    H227924   0.743   0.775   0.208 -0.4865  1.1602 -1.0759
 2097TIP3   OH227925   1.285   2.778   1.899 -0.4779  0.0844 -0.6380
 2097TIP3    H127926   1.289   2.710   1.966 -2.9967  0.5200  0.0553
 2097TIP3    H227927   1.287   2.860   1.948  1.3177  0.5472 -1.3911
 2098TIP3   OH227928   5.520   0.440   0.027  0.5421 -0.2322 -0.3878
 2098TIP3    H127929   5.475   0.489  -0.042 -0.3215 -0.1462  0.2261
 2098TIP3    H227930   5.458   0.437   0.099  1.3992 -0.4128  0.3576
 2099TIP3   OH227931   1.167   5.092   0.582 -0.2193 -0.0616 -0.1329
 2099TIP3    H127932   1.161   5.091   0.486 -0.1530 -0.5046 -0.1324
 2099TIP3    H227933   1.261   5.094   0.600 -0.2360  0.3327 -0.0768
 2100TIP3   OH227934   3.322   3.843   6.375 -0.1240  0.1100 -0.3007
 2100TIP3    H127935   3.392   3.858   6.439  0.9939 -1.1346 -1.1560
 2100TIP3    H227936   3.241   3.861   6.423  0.4961 -2.8031  2.1841
 2101TIP3   OH227937   4.075   1.289   0.466 -0.1444 -0.8033 -0.2186
 2101TIP3    H127938   4.154   1.292   0.520 -0.9603 -0.5153  1.0039
 2101TIP3    H227939   4.012   1.240   0.518 -0.7332 -1.1945 -1.2579
 2102TIP3   OH227940   0.426   3.554   8.782  0.2047 -0.3659 -0.1487
 2102TIP3    H127941   0.367   3.630   8.776 -0.5779 -0.9640 -0.1608
 2102TIP3    H227942   0.429   3.534   8.876  0.6898 -0.1155 -0.1060
 2103TIP3   OH227943   3.950   4.937   8.686  0.1809 -0.4910 -0.4691
 2103TIP3    H127944   3.888   4.933   8.613  1.1142  0.6018 -1.3524
 2103TIP3    H227945   4.005   4.859   8.674  2.2578  1.1780 -2.7785
 2104TIP3   OH227946   4.850   1.403   1.953  0.1136  0.2089  0.2314
 2104TIP3    H127947   4.818   1.333   2.010  2.2336 -0.3273  0.8693
 2104TIP3    H227948   4.898   1.358   1.884  1.4268  0.9810  0.5941
 2105TIP3   OH227949   6.088   4.879   7.341  0.5470 -0.1329  0.0113
 2105TIP3    H127950   6.005   4.832   7.349  1.4486 -1.6398  1.2625
 2105TIP3    H227951   6.064   4.972   7.341 -1.1953 -0.5490 -0.8678
 2106TIP3   OH227952   2.885   5.366   1.930  0.2975 -0.2901 -0.0551
 2106TIP3    H127953   2.912   5.277   1.953 -0.7423 -0.5303  0.3120
 2106TIP3    H227954   2.805   5.354   1.878  0.1347  0.4296  0.0191
 2107TIP3   OH227955   3.951   6.311   0.821  0.1923 -0.0643  0.3220
 2107TIP3    H127956   3.977   6.383   0.878 -2.4618  0.2759  1.1956
 2107TIP3    H227957   3.981   6.232   0.867  1.8953  0.3549  0.0115
 2108TIP3   OH227958   4.196   2.294   2.086 -0.3707  0.5360  0.3771
 2108TIP3    H127959   4.219   2.213   2.041  0.9372  1.6994 -1.1687
 2108TIP3    H227960   4.119   2.327   2.038 -0.6262  0.4332  0.7161
 2109TIP3   OH227961   0.409   0.794   0.590  0.4676 -0.0489 -0.4150
 2109TIP3    H127962   0.327   0.748   0.606  0.1456 -0.7056 -3.4478
 2109TIP3    H227963   0.448   0.804   0.677 -1.7853 -1.6274  0.8729
 2110TIP3   OH227964   1.025   1.822   8.134  0.2142 -0.0134  0.5430
 2110TIP3    H127965   1.028   1.911   8.171 -0.3405 -0.0967  0.7816
 2110TIP3    H227966   0.934   1.795   8.141  0.7306 -1.4563  2.4855
 2111TIP3   OH227967   5.204   0.073   7.396 -0.2173 -0.4996  0.3530
 2111TIP3    H127968   5.188  -0.016   7.429 -0.1390 -0.7684 -0.3108
 2111TIP3    H227969   5.282   0.102   7.442  0.3135 -1.1466 -0.1212
 2112TIP3   OH227970   3.189   0.567   8.792 -0.1115  0.0363  0.1997
 2112TIP3    H127971   3.246   0.491   8.799 -2.1521 -1.5130  0.7306
 2112TIP3    H227972   3.164   0.571   8.700  0.3813  0.3957  0.0737
 2113TIP3   OH227973   4.646   5.095   7.303  0.3091  0.3187  0.1125
 2113TIP3    H127974   4.710   5.142   7.355  2.5224 -2.0926 -0.2042
 2113TIP3    H227975   4.599   5.040   7.365  0.9207 -0.4067 -0.0587
 2114TIP3   OH227976   6.757   5.078   8.797 -0.8227  0.1258  0.2301
 2114TIP3    H127977   6.682   5.027   8.767 -1.4865  0.8867  0.5572
 2114TIP3    H227978   6.825   5.013   8.814 -1.3333 -0.5587 -0.2729
 2115TIP3   OH227979   6.360   3.755   0.500 -0.6722  0.3218 -0.0407
 2115TIP3    H127980   6.350   3.712   0.585 -0.1909  1.1359  0.4400
 2115TIP3    H227981   6.357   3.683   0.437 -2.4063 -0.1629  0.5472
 2116TIP3   OH227982   4.605   4.608   6.659 -0.0330 -0.0439 -0.2214
 2116TIP3    H127983   4.657   4.674   6.704  0.3875 -0.6762  0.2295
 2116TIP3    H227984   4.637   4.524   6.693 -1.2910 -0.4531  0.0147
 2117TIP3   OH227985   5.533   2.829   8.255 -0.7601 -0.1748  0.2309
 2117TIP3    H127986   5.565   2.755   8.203 -1.4242 -1.2399  1.3040
 2117TIP3    H227987   5.477   2.878   8.195  0.1334 -0.2077 -0.6599
 2118TIP3   OH227988   1.288   0.013   7.392 -0.1056  0.1020 -0.1829
 2118TIP3    H127989   1.296   0.006   7.297 -0.6399  1.9785 -0.4020
 2118TIP3    H227990   1.319   0.101   7.413  1.6595 -0.8589  1.6282
 2119TIP3   OH227991   6.196   4.401   1.074  0.1871  0.1073  0.6430
 2119TIP3    H127992   6.147   4.432   1.150  0.1679  0.6031  0.4348
 2119TIP3    H227993   6.279   4.449   1.077  0.8898 -1.0923  1.2750
 2120TIP3   OH227994   3.647   1.041   7.301  0.0622  0.2327 -0.3900
 2120TIP3    H127995   3.588   1.101   7.255 -1.4715  0.3507  1.5998
 2120TIP3    H227996   3.602   0.957   7.298  0.3863  0.0419  0.0791
 2121TIP3   OH227997   0.596   1.890   8.655 -0.2475  0.5303 -0.4437
 2121TIP3    H127998   0.527   1.930   8.708 -1.3097 -0.5376 -0.9735
 2121TIP3    H227999   0.674   1.895   8.710 -0.7236  1.7935  0.1548
 2122TIP3   OH228000   5.467   1.333   7.059 -0.5594  0.3479 -0.3255
 2122TIP3    H128001   5.405   1.325   7.131  0.8907  4.0137  1.6059
 2122TIP3    H228002   5.530   1.263   7.073 -1.4787 -0.3099  0.6629
 2123TIP3   OH228003   2.274   0.980   0.293  0.4842 -0.5166 -0.6457
 2123TIP3    H128004   2.185   0.954   0.316  0.4560 -1.3218 -1.5967
 2123TIP3    H228005   2.330   0.914   0.335  0.5459 -0.7948 -1.1532
 2124TIP3   OH228006   4.029   1.881   6.482 -0.6627  0.0468  0.4391
 2124TIP3    H128007   4.078   1.906   6.404  2.5046 -0.9760  1.9120
 2124TIP3    H228008   4.047   1.788   6.493 -1.1945  0.1123  2.2439
 2125TIP3   OH228009   3.831   1.889   1.641  0.0031  0.1997  0.2202
 2125TIP3    H128010   3.792   1.891   1.554 -1.4563  0.4056  0.8608
 2125TIP3    H228011   3.885   1.810   1.640 -2.3142 -1.4847  0.0769
 2126TIP3   OH228012   4.495   6.576   0.460 -0.2181  0.6906  0.1074
 2126TIP3    H128013   4.537   6.662   0.465 -2.4998  2.2126 -3.1875
 2126TIP3    H228014   4.422   6.581   0.522  0.6094  0.4549  1.1234
 2127TIP3   OH228015   1.660   4.247   1.060  0.2418  0.0891 -0.1306
 2127TIP3    H128016   1.670   4.239   1.155  0.3484  0.6450 -0.0938
 2127TIP3    H228017   1.712   4.174   1.024 -0.2932 -0.4915  0.2516
 2128TIP3   OH228018   4.517   5.310   6.376  0.0818 -0.2362  0.3105
 2128TIP3    H128019   4.494   5.217   6.369  1.8326 -0.7323  0.7778
 2128TIP3    H228020   4.521   5.326   6.470 -1.3775  0.6521  0.2508
 2129TIP3   OH228021   4.264   0.144   8.103  0.3541  0.0886  0.0853
 2129TIP3    H128022   4.239   0.111   8.017  1.4576 -0.0141 -0.2128
 2129TIP3    H228023   4.211   0.223   8.116  0.1818  0.1021 -0.6805
 2130TIP3   OH228024   6.844   6.702   0.271 -0.5895  0.4348  0.1795
 2130TIP3    H128025   6.892   6.784   0.286  0.4618 -0.3908  1.6237
 2130TIP3    H228026   6.757   6.718   0.308  0.1237  0.4099  1.9922
 2131TIP3   OH228027   4.124   0.754   0.415 -0.0740  0.2745 -0.5010
 2131TIP3    H128028   4.201   0.798   0.450 -0.2871  0.2758 -0.0284
 2131TIP3    H228029   4.148   0.661   0.415 -0.5553  0.1246  0.9375
 2132TIP3   OH228030   4.460   1.738   0.598  0.2162 -0.4550 -0.5376
 2132TIP3    H128031   4.411   1.677   0.542 -1.0628  1.2156 -1.3443
 2132TIP3    H228032   4.393   1.799   0.630  1.4836  0.7074 -0.0283
 2133TIP3   OH228033   1.413   1.820   8.804 -0.4233  0.4941  0.9201
 2133TIP3    H128034   1.371   1.847   8.722 -0.4389 -2.7801 -0.3181
 2133TIP3    H228035   1.340   1.799   8.862 -0.7471 -3.1823 -0.5232
 2134TIP3   OH228036   6.218   1.311   1.147 -0.3833 -0.0345 -0.1023
 2134TIP3    H128037   6.214   1.403   1.121 -1.1600  0.1019  0.4631
 2134TIP3    H228038   6.298   1.278   1.106 -0.2706  0.8052 -0.5801
 2135TIP3   OH228039   2.806   5.206   2.709 -0.4036 -0.2084  0.3274
 2135TIP3    H128040   2.809   5.163   2.794 -0.5537 -0.7657  0.0582
 2135TIP3    H228041   2.824   5.298   2.727  2.7081 -0.7784  0.6366
 2136TIP3   OH228042   1.350   2.126   7.193  0.5820  0.1168  0.1797
 2136TIP3    H128043   1.258   2.102   7.184 -0.0976  2.6587 -0.2405
 2136TIP3    H228044   1.395   2.070   7.130 -0.8572 -0.2339 -0.5836
 2137TIP3   OH228045   2.429   2.501   7.758 -0.6112  0.3531  0.2101
 2137TIP3    H128046   2.480   2.575   7.792 -0.4486  0.3708 -0.0715
 2137TIP3    H228047   2.339   2.521   7.783 -0.4774  0.3005  0.7481
 2138TIP3   OH228048   2.926   0.324   6.638  0.0610 -0.2028 -0.6525
 2138TIP3    H128049   2.857   0.289   6.582  0.5108 -0.3021 -1.1643
 2138TIP3    H228050   2.982   0.249   6.658  0.1563 -0.0800 -0.4470
 2139TIP3   OH228051   2.881   1.003   0.942  0.1379  0.0083 -0.2051
 2139TIP3    H128052   2.947   0.997   0.873 -0.7102  0.5144 -1.0852
 2139TIP3    H228053   2.826   1.077   0.917 -1.0574 -0.6852  0.2392
 2140TIP3   OH228054   0.036   1.581   7.117 -0.5258 -0.0089  0.5114
 2140TIP3    H128055  -0.037   1.523   7.098 -0.1956  0.0527 -1.0280
 2140TIP3    H228056   0.051   1.628   7.035 -0.1672  1.5601  1.4449
 2141TIP3   OH228057   5.150   4.552   7.124 -0.2873 -0.3228  0.2040
 2141TIP3    H128058   5.130   4.462   7.101  2.0640 -0.3255 -2.2979
 2141TIP3    H228059   5.126   4.602   7.046  1.4438  0.7398  0.3065
 2142TIP3   OH228060   0.758   3.799   0.357 -0.5674  0.6463  0.1832
 2142TIP3    H128061   0.708   3.837   0.429 -1.1672  2.4058 -1.0917
 2142TIP3    H228062   0.846   3.835   0.368 -0.6257  0.8133  0.1002
 2143TIP3   OH228063   6.747   3.996   0.866 -0.5073 -0.1135 -0.3137
 2143TIP3    H128064   6.816   4.025   0.926  0.0217  1.3820 -1.5932
 2143TIP3    H228065   6.686   3.948   0.922  1.4444 -1.3126  0.8868
 2144TIP3   OH228066   0.898   5.399   6.765  0.6409  0.1597 -0.2389
 2144TIP3    H128067   0.979   5.389   6.714  1.1342 -0.1267  0.5905
 2144TIP3    H228068   0.828   5.393   6.699  1.2700 -0.1147 -0.8965
 2145TIP3   OH228069   3.761   6.406   7.511  1.0208  0.1201 -0.3647
 2145TIP3    H128070   3.728   6.343   7.448 -0.1558  0.3943 -0.0534
 2145TIP3    H228071   3.757   6.360   7.595  0.2844  0.5569 -0.1566
 2146TIP3   OH228072   3.278   6.580   7.792  0.4032 -0.1805  0.0930
 2146TIP3    H128073   3.278   6.628   7.709  1.2450  0.5946  0.5161
 2146TIP3    H228074   3.241   6.642   7.855 -0.7733 -0.9692  0.2013
 2147TIP3   OH228075   0.961   2.766   2.593 -0.3816  0.3129 -0.7214
 2147TIP3    H128076   0.951   2.786   2.500  0.4053  3.4254 -0.2573
 2147TIP3    H228077   1.031   2.701   2.597 -1.2818 -0.7985 -2.3401
 2148TIP3   OH228078   3.046   6.806   8.642 -0.1483  0.3983  0.2535
 2148TIP3    H128079   3.015   6.753   8.569  0.4278  2.1444 -1.3463
 2148TIP3    H228080   3.108   6.749   8.688 -1.7506 -1.3098  0.4225
 2149TIP3   OH228081   4.856   3.109   7.384 -0.3414 -0.5433  0.6213
 2149TIP3    H128082   4.913   3.041   7.419  0.4892  0.3885  1.1242
 2149TIP3    H228083   4.802   3.136   7.458 -0.1444 -0.1328  0.6179
 2150TIP3   OH228084   2.703   3.700   8.650 -0.0197 -0.2605 -0.4321
 2150TIP3    H128085   2.617   3.735   8.671 -0.2234  0.5318 -2.3468
 2150TIP3    H228086   2.742   3.680   8.735 -1.5545  0.6317  0.5418
 2151TIP3   OH228087   1.309   5.390   7.330 -0.3460  0.1166  0.5623
 2151TIP3    H128088   1.387   5.348   7.294 -0.2338  1.9419 -1.5508
 2151TIP3    H228089   1.326   5.484   7.319 -1.8145  0.6426  2.3568
 2152TIP3   OH228090   1.119   3.786   8.038  0.3585  0.8095 -0.4197
 2152TIP3    H128091   1.067   3.821   7.966 -1.2135  1.0035  0.7623
 2152TIP3    H228092   1.180   3.856   8.060 -0.7297  1.6637 -0.0534
 2153TIP3   OH228093   5.796   0.771   6.553  0.0944  0.2172  0.4601
 2153TIP3    H128094   5.717   0.773   6.607 -0.7852 -0.4088 -0.7565
 2153TIP3    H228095   5.785   0.842   6.491  0.1594 -0.3224 -0.1734
 2154TIP3   OH228096   5.291   3.924   1.126  0.7629  0.5038  0.5124
 2154TIP3    H128097   5.215   3.957   1.174 -0.5480 -0.8980 -0.5193
 2154TIP3    H228098   5.258   3.848   1.078  2.5851  0.4554 -0.7468
 2155TIP3   OH228099   3.171   0.968   6.704 -0.5346  0.1358 -0.7077
 2155TIP3    H128100   3.130   0.946   6.620 -1.2457  0.1290 -0.3643
 2155TIP3    H228101   3.189   0.884   6.745  0.5587  0.1085 -1.1841
 2156TIP3   OH228102   2.032   6.350   2.110 -0.1215  0.3054  0.2327
 2156TIP3    H128103   1.979   6.392   2.178  1.6330  0.4307  1.5859
 2156TIP3    H228104   2.031   6.257   2.133  0.3597  0.3293  0.3672
 2157TIP3   OH228105   1.946   4.785   1.383  0.2436  0.4613  0.2355
 2157TIP3    H128106   1.881   4.806   1.315 -0.3859  1.2736  1.0660
 2157TIP3    H228107   1.984   4.870   1.406  1.1190  0.0733  0.2490
 2158TIP3   OH228108   6.387   4.284   8.079  0.3142  0.4468  0.2381
 2158TIP3    H128109   6.401   4.260   8.171 -0.1612 -2.7672 -0.4126
 2158TIP3    H228110   6.294   4.269   8.064  0.5213  0.2117 -0.9235
 2159TIP3   OH228111   4.797   6.659   6.311 -0.4612 -0.4275  0.7936
 2159TIP3    H128112   4.709   6.690   6.327 -0.2391 -0.2118  1.6017
 2159TIP3    H228113   4.814   6.681   6.219 -1.4466 -0.9836  0.4619
 2160TIP3   OH228114   1.509   1.609   7.827  0.5675 -0.4078  0.4937
 2160TIP3    H128115   1.566   1.627   7.901  1.0181 -0.6090  0.1958
 2160TIP3    H228116   1.423   1.591   7.867  0.1579  2.0001  0.8398
 2161TIP3   OH228117   1.195   4.527   0.922  0.0131  0.7186  0.3210
 2161TIP3    H128118   1.261   4.561   0.983  2.9009 -1.2008 -1.4839
 2161TIP3    H228119   1.239   4.528   0.837 -2.7744  0.4268 -1.2298
 2162TIP3   OH228120   0.623   4.230   0.440  0.1746 -0.0111 -0.3880
 2162TIP3    H128121   0.574   4.263   0.365  0.1165  2.1526  0.5345
 2162TIP3    H228122   0.559   4.224   0.511  0.1175 -2.5130 -0.5641
 2163TIP3   OH228123   1.892   4.516   1.442  0.4573  0.2511  0.7302
 2163TIP3    H128124   1.797   4.508   1.447  0.5524 -0.9829  0.7486
 2163TIP3    H228125   1.908   4.611   1.439 -0.6999  0.4986  1.8444
 2164TIP3   OH228126   5.323   2.744   1.729  0.0413  0.6866  0.8053
 2164TIP3    H128127   5.343   2.796   1.652 -3.7985 -0.3889 -1.1624
 2164TIP3    H228128   5.376   2.665   1.719 -1.1154  0.1057 -1.4005
 2165TIP3   OH228129   0.353   2.640   1.271  0.6778  0.3691  0.4095
 2165TIP3    H128130   0.342   2.597   1.187  0.6682  1.2525 -0.0541
 2165TIP3    H228131   0.344   2.570   1.336 -0.2613 -0.1537 -0.2760
 2166TIP3   OH228132   1.124   2.390   8.259  0.1541  0.1799  0.1927
 2166TIP3    H128133   1.052   2.449   8.281  0.7010  0.6836  0.6763
 2166TIP3    H228134   1.087   2.302   8.267  0.3612  0.2853  3.4453
 2167TIP3   OH228135   1.970   4.127   0.656 -0.3590 -0.0491 -0.0529
 2167TIP3    H128136   1.986   4.040   0.619 -0.9307 -0.0094 -0.4027
 2167TIP3    H228137   2.049   4.177   0.634  0.0525 -0.5283  0.3131
 2168TIP3   OH228138   0.095   3.715   7.785  0.1929  0.3305 -0.2186
 2168TIP3    H128139   0.027   3.756   7.840 -1.0222  1.7947 -2.6258
 2168TIP3    H228140   0.046   3.662   7.722  1.6044 -2.3463  0.8040
 2169TIP3   OH228141   4.396   3.919   6.577 -0.0963  0.4280  0.2302
 2169TIP3    H128142   4.437   3.836   6.600 -2.3613 -0.3514  1.8217
 2169TIP3    H228143   4.428   3.980   6.644  0.7893  0.5894 -0.3376
 2170TIP3   OH228144   5.945   6.830   1.773  0.5812 -0.0024 -0.2015
 2170TIP3    H128145   5.870   6.889   1.770  1.2477  1.1309  2.5591
 2170TIP3    H228146   5.963   6.819   1.866  1.8287 -2.9137 -0.6623
 2171TIP3   OH228147   5.768   5.568   0.266  0.7725 -1.0023 -0.3324
 2171TIP3    H128148   5.763   5.652   0.221  0.0830 -0.5106  0.6120
 2171TIP3    H228149   5.859   5.541   0.258  0.6291 -1.0467 -2.1838
 2172TIP3   OH228150   0.819   2.460   8.397  0.2418  0.4975 -0.0169
 2172TIP3    H128151   0.832   2.540   8.347  0.5451  0.7747  0.4949
 2172TIP3    H228152   0.835   2.485   8.488 -2.3854  0.5074  0.5287
 2173TIP3   OH228153   3.058   0.187   6.975  0.3656  0.3986 -0.0874
 2173TIP3    H128154   3.104   0.174   6.891 -0.7699 -0.1143 -0.6482
 2173TIP3    H228155   3.126   0.174   7.041  1.9532  3.4429 -0.9042
 2174TIP3   OH228156   2.477   1.424   0.215 -0.1384 -0.3888  0.2674
 2174TIP3    H128157   2.551   1.363   0.219 -0.9170 -1.3193  1.1648
 2174TIP3    H228158   2.418   1.394   0.284 -2.1476 -0.7060 -1.5061
 2175TIP3   OH228159   4.724   0.066   8.152 -0.0096  0.5278 -0.0790
 2175TIP3    H128160   4.779   0.067   8.231  0.3738 -0.7923 -0.3035
 2175TIP3    H228161   4.674   0.148   8.157 -1.0378 -0.1408  2.2619
 2176TIP3   OH228162   4.994   3.286   0.223  0.2079  0.1895 -0.2228
 2176TIP3    H128163   4.929   3.217   0.234 -0.6050  0.9323 -0.1677
 2176TIP3    H228164   5.073   3.253   0.265  0.4283 -1.4771 -1.8382
 2177TIP3   OH228165   1.350   1.284   1.485  0.1561 -0.3724 -0.1870
 2177TIP3    H128166   1.426   1.242   1.444  0.4234  0.1959 -0.2902
 2177TIP3    H228167   1.385   1.323   1.565  0.0188  0.0735 -0.3422
 2178TIP3   OH228168   5.144   4.998   8.184 -0.0186  0.0961 -0.5015
 2178TIP3    H128169   5.131   5.069   8.122  0.5081  0.2083 -0.4887
 2178TIP3    H228170   5.057   4.982   8.221  0.2135  2.2625  1.1803
 2179TIP3   OH228171   3.797   3.553   1.468  0.2202  0.7549  0.1202
 2179TIP3    H128172   3.708   3.530   1.439 -0.4181  2.2361  0.8105
 2179TIP3    H228173   3.836   3.470   1.495 -0.7401 -0.0044 -0.7428
 2180TIP3   OH228174   1.838   4.890   8.064  0.8733 -1.0354  0.3717
 2180TIP3    H128175   1.743   4.878   8.068  0.3717  0.9571 -2.5661
 2180TIP3    H228176   1.874   4.802   8.074 -1.2263 -1.7985  1.7774
 2181TIP3   OH228177   4.931   2.767   7.189 -0.0573  0.2012  0.1259
 2181TIP3    H128178   4.883   2.845   7.161  1.6378  0.6049 -1.9096
 2181TIP3    H228179   4.880   2.694   7.152  0.7968  0.6246 -2.0177
 2182TIP3   OH228180   3.894   0.560   0.256 -0.5071  0.1345 -0.0262
 2182TIP3    H128181   3.925   0.490   0.313  0.2953  0.0282 -0.5730
 2182TIP3    H228182   3.821   0.521   0.208  1.6537 -1.3449 -2.3906
 2183TIP3   OH228183   2.864   5.795   0.352  0.3827  0.6548 -0.0677
 2183TIP3    H128184   2.840   5.762   0.265  1.9986 -0.9097  0.0297
 2183TIP3    H228185   2.892   5.718   0.400  3.6437  1.9826  0.4279
 2184TIP3   OH228186   1.352   1.212   7.935  0.0923  0.5329 -0.7387
 2184TIP3    H128187   1.297   1.156   7.990  1.4383 -1.3247 -1.2009
 2184TIP3    H228188   1.380   1.282   7.994  2.4280 -2.0053  1.4454
 2185TIP3   OH228189   4.122   5.660   1.195  0.1864  0.0789  0.4572
 2185TIP3    H128190   4.082   5.690   1.113  2.6283  0.2706 -0.7584
 2185TIP3    H228191   4.166   5.579   1.171 -0.8483 -1.0588  2.1648
 2186TIP3   OH228192   6.731   3.040   2.029  0.2774  0.3164  0.0216
 2186TIP3    H128193   6.817   3.031   1.986  0.6732  0.4157  0.7902
 2186TIP3    H228194   6.671   2.996   1.969  0.8553  0.2885 -0.5533
 2187TIP3   OH228195   5.202   6.276   2.033  0.1124  0.1512 -0.2464
 2187TIP3    H128196   5.161   6.309   1.953 -1.9433 -2.9732 -0.6734
 2187TIP3    H228197   5.170   6.334   2.102 -0.5417  1.1018 -1.3020
 2188TIP3   OH228198   2.056   5.046   6.437 -0.6403 -0.0215 -0.3547
 2188TIP3    H128199   2.058   5.005   6.351  0.2205  0.4484 -0.5701
 2188TIP3    H228200   1.981   5.006   6.481 -0.8731 -0.5256 -1.1883
 2189TIP3   OH228201   5.870   4.588   2.497 -0.2143  0.0990  0.9345
 2189TIP3    H128202   5.903   4.672   2.464 -0.4818 -0.1189  0.0819
 2189TIP3    H228203   5.815   4.554   2.426 -1.1575 -0.1980  1.7750
 2190TIP3   OH228204   4.055   2.845   1.770  0.3736 -0.2155  0.0102
 2190TIP3    H128205   3.979   2.786   1.768 -0.2437  0.5637  0.2834
 2190TIP3    H228206   4.129   2.788   1.747 -0.1145 -1.2421  0.8682
 2191TIP3   OH228207   1.855   4.367   8.683  0.5200 -0.4201 -0.2541
 2191TIP3    H128208   1.793   4.430   8.648  1.2334  0.5802  0.2266
 2191TIP3    H228209   1.927   4.366   8.620  0.8379 -0.2122  0.1007
 2192TIP3   OH228210   5.423   5.970   0.701  0.1184  0.2219  0.2412
 2192TIP3    H128211   5.370   5.917   0.760  1.8772 -1.0942  0.7128
 2192TIP3    H228212   5.489   6.009   0.758 -0.1813  1.6804 -0.3633
 2193TIP3   OH228213   0.124   3.165   1.352 -0.1632  0.5659 -0.1567
 2193TIP3    H128214   0.134   3.087   1.298 -0.7649 -0.7753  1.5821
 2193TIP3    H228215   0.206   3.213   1.340  0.3422 -0.4720 -1.0185
 2194TIP3   OH228216   0.749   4.202   0.766  0.4501 -0.5143 -0.6762
 2194TIP3    H128217   0.765   4.127   0.708  0.4770 -0.1345 -1.1710
 2194TIP3    H228218   0.770   4.278   0.712  2.8633 -0.1872  0.5621
 2195TIP3   OH228219   2.296   0.386   0.995  0.3228 -0.5334 -0.5195
 2195TIP3    H128220   2.373   0.413   0.945  1.4072 -0.2970  1.2102
 2195TIP3    H228221   2.269   0.304   0.954  1.4406 -0.5747 -1.2150
 2196TIP3   OH228222   5.452   2.689   7.431  0.1121  0.2947 -0.5850
 2196TIP3    H128223   5.434   2.626   7.361 -1.2903  0.1951 -0.1521
 2196TIP3    H228224   5.386   2.757   7.419 -0.4521  0.0365  0.9241
 2197TIP3   OH228225   0.308   0.558   8.630 -0.3839  0.1501  0.2886
 2197TIP3    H128226   0.291   0.500   8.704 -0.8140  2.0482  1.7469
 2197TIP3    H228227   0.392   0.598   8.650 -0.0300 -0.0232 -0.7693
 2198TIP3   OH228228   6.249   4.447   8.534  0.0259  0.1028 -0.0135
 2198TIP3    H128229   6.277   4.521   8.481 -1.8870  0.8731 -0.0142
 2198TIP3    H228230   6.227   4.379   8.470  1.9761 -0.6211 -0.0090
 2199TIP3   OH228231   2.291   1.633   1.157  0.5549  0.0964 -0.5284
 2199TIP3    H128232   2.251   1.561   1.109  0.4384 -1.8654  2.2507
 2199TIP3    H228233   2.217   1.688   1.184  0.4088  0.0070 -0.7421
 2200TIP3   OH228234   4.811   5.880   0.091  0.0096  0.2220 -0.2978
 2200TIP3    H128235   4.796   5.815   0.023  1.1874 -0.0911 -0.2646
 2200TIP3    H228236   4.744   5.860   0.158 -0.2016 -0.3850 -0.6862
 2201TIP3   OH228237   2.848   2.516   7.576  0.0192  0.1051 -0.5067
 2201TIP3    H128238   2.849   2.603   7.617  1.4526 -0.4656  0.7720
 2201TIP3    H228239   2.806   2.459   7.640  0.7189 -0.4783 -0.5538
 2202TIP3   OH228240   0.680   4.590   0.161 -0.2210 -0.0781  0.7198
 2202TIP3    H128241   0.602   4.641   0.141  1.1534  1.7283 -0.3208
 2202TIP3    H228242   0.677   4.578   0.256 -3.1285 -2.5061  0.4979
 2203TIP3   OH228243   4.860   5.129   2.403 -0.0707  0.2274 -0.4220
 2203TIP3    H128244   4.822   5.113   2.490  2.6607 -2.0269  0.5380
 2203TIP3    H228245   4.864   5.042   2.363  2.9534  0.4539 -0.8231
 2204TIP3   OH228246   5.585   6.342   1.560 -0.0059  0.2381  0.4422
 2204TIP3    H128247   5.626   6.262   1.596  0.0477  0.1540  0.1937
 2204TIP3    H228248   5.504   6.311   1.520 -1.2601  0.6366  2.4984
 2205TIP3   OH228249   0.787   5.533   2.159 -0.4743 -0.2460  0.0562
 2205TIP3    H128250   0.758   5.568   2.244 -1.5036 -0.4741 -0.1812
 2205TIP3    H228251   0.817   5.445   2.178  2.6403  0.8558  0.7509
 2206TIP3   OH228252   0.156   4.316   8.536  0.1271 -0.0811 -0.4461
 2206TIP3    H128253   0.188   4.229   8.510  2.2321  0.7229 -0.7035
 2206TIP3    H228254   0.146   4.364   8.454  2.3946  1.0121 -0.1351
 2207TIP3   OH228255   1.624   2.505   1.080  0.4490 -0.2143 -0.1406
 2207TIP3    H128256   1.708   2.540   1.110  0.5448 -0.4335 -0.1554
 2207TIP3    H228257   1.560   2.570   1.108  0.6890  0.2401 -0.6331
 2208TIP3   OH228258   1.027   0.169   7.739 -0.1844 -0.1649 -0.0306
 2208TIP3    H128259   1.014   0.122   7.821  0.6291  0.0859  0.2525
 2208TIP3    H228260   1.087   0.113   7.689 -0.8155 -0.4033 -0.5336
 2209TIP3   OH228261   2.202   6.683   6.431 -0.2850 -0.2728  0.2013
 2209TIP3    H128262   2.153   6.738   6.370  0.6003 -0.4144 -0.6683
 2209TIP3    H228263   2.169   6.706   6.517 -0.6376  0.8811 -0.2335
 2210TIP3   OH228264   2.367   5.985   0.092 -0.3514 -0.5451  0.4374
 2210TIP3    H128265   2.453   5.991   0.134 -1.3931  1.4038  2.5577
 2210TIP3    H228266   2.386   5.968  -0.000  2.3167  0.2172  0.7622
 2211TIP3   OH228267   5.792   2.524   7.574  0.3589 -0.0535 -0.7357
 2211TIP3    H128268   5.874   2.504   7.529 -1.1325 -1.9328 -2.8350
 2211TIP3    H228269   5.758   2.601   7.530  0.1585 -0.3437 -1.0970
 2212TIP3   OH228270   1.867   0.609   1.542  0.5733 -0.1876 -0.4107
 2212TIP3    H128271   1.901   0.592   1.455 -2.9316 -0.7115 -1.8209
 2212TIP3    H228272   1.846   0.523   1.577  1.0737  0.0881  0.6330
 2213TIP3   OH228273   5.695   4.334   8.608 -0.1773  0.2615  0.3419
 2213TIP3    H128274   5.740   4.389   8.672  0.6468 -0.1621  0.1417
 2213TIP3    H228275   5.755   4.261   8.593 -0.1070  0.6203 -1.3096
 2214TIP3   OH228276   1.730   2.740   8.656 -0.1361 -0.1576  0.8016
 2214TIP3    H128277   1.651   2.727   8.603 -0.9586 -1.7119  2.3180
 2214TIP3    H228278   1.707   2.813   8.714  0.4188  0.9157 -0.2920
 2215TIP3   OH228279   1.132   2.292   6.640  0.6056 -0.1720 -0.0952
 2215TIP3    H128280   1.114   2.229   6.570  0.7845  0.7525 -1.0069
 2215TIP3    H228281   1.179   2.363   6.596  0.7631  0.4101  0.9851
 2216TIP3   OH228282   5.433   0.124   1.867 -0.0694  0.3479 -0.3663
 2216TIP3    H128283   5.405   0.052   1.924 -0.6367  0.6268 -0.2810
 2216TIP3    H228284   5.445   0.083   1.781 -0.2671  0.1248 -0.2886
 2217TIP3   OH228285   5.415   0.136   7.560 -0.0970 -0.1510  0.0637
 2217TIP3    H128286   5.361   0.118   7.637 -0.4662  0.8906  0.0660
 2217TIP3    H228287   5.497   0.171   7.595 -0.4653  0.8336 -0.0028
 2218TIP3   OH228288   1.633   4.833   2.045  0.4060  0.4112 -0.1834
 2218TIP3    H128289   1.667   4.922   2.048  1.0174  0.1786  0.1145
 2218TIP3    H228290   1.711   4.779   2.028  0.0550 -0.0672 -0.2745
 2219TIP3   OH228291   6.682   3.793   2.168 -0.0438 -0.2953  0.4022
 2219TIP3    H128292   6.623   3.789   2.243 -0.7165  1.0656 -0.0143
 2219TIP3    H228293   6.680   3.705   2.131 -0.3400 -0.7637  1.4953
 2220TIP3   OH228294   3.168   4.688   8.178  0.0552 -0.2698  0.2222
 2220TIP3    H128295   3.201   4.742   8.106 -0.4303  0.2959  0.4190
 2220TIP3    H228296   3.199   4.732   8.257 -0.5816 -0.1207  0.3905
 2221TIP3   OH228297   5.185   2.760   1.949  0.2545 -0.2836  0.1547
 2221TIP3    H128298   5.147   2.675   1.969 -0.9098 -0.2426 -1.6879
 2221TIP3    H228299   5.236   2.746   1.869  0.6030  0.5938  0.2094
 2222TIP3   OH228300   5.908   2.940   2.276  0.6954 -0.2094  0.0415
 2222TIP3    H128301   5.816   2.912   2.270  0.3640  0.9341 -0.5206
 2222TIP3    H228302   5.954   2.863   2.309 -0.3008 -1.1487 -0.6744
 2223TIP3   OH228303   2.979   5.434   1.086 -0.8500 -0.3351 -0.4903
 2223TIP3    H128304   2.905   5.429   1.147 -1.3548 -0.7611 -1.1298
 2223TIP3    H228305   3.056   5.433   1.143 -1.3075  2.7017  0.3480
 2224TIP3   OH228306   3.580   4.215   8.464  0.1505 -0.4120  0.5407
 2224TIP3    H128307   3.547   4.173   8.544  0.4737 -1.3636  0.1873
 2224TIP3    H228308   3.507   4.210   8.403  0.1416 -0.3216  0.5438
 2225TIP3   OH228309   5.784   1.164   8.470  0.4621  0.1208  0.6463
 2225TIP3    H128310   5.782   1.240   8.413 -0.5971 -0.5958 -0.3144
 2225TIP3    H228311   5.692   1.143   8.485  0.7329 -0.3329  1.7750
 2226TIP3   OH228312   5.876   2.360   0.737 -0.3966  0.1493 -0.2087
 2226TIP3    H128313   5.883   2.433   0.675  0.3327 -0.0427 -0.3569
 2226TIP3    H228314   5.907   2.397   0.820 -2.1996  0.6625  0.2734
 2227TIP3   OH228315   0.966   3.883   1.172 -0.0606  0.0291  0.1137
 2227TIP3    H128316   0.936   3.792   1.170 -0.5502  0.1848  0.1426
 2227TIP3    H228317   0.954   3.910   1.263 -0.0860  0.1744  0.0679
 2228TIP3   OH228318   0.637   4.043   8.794  0.1003 -0.3259 -0.1856
 2228TIP3    H128319   0.654   3.968   8.850  1.1588 -0.9811 -1.3456
 2228TIP3    H228320   0.542   4.044   8.784  0.0741 -1.5461 -0.1995
 2229TIP3   OH228321   2.370   0.975   2.008 -0.4762 -0.3589  0.4354
 2229TIP3    H128322   2.421   1.023   2.073  1.2741 -2.1867  0.5209
 2229TIP3    H228323   2.366   1.034   1.933  0.2846  0.5263  1.0568
 2230TIP3   OH228324   0.794   5.312   7.921  0.4550  0.0719  0.1630
 2230TIP3    H128325   0.730   5.282   7.857  0.3015 -0.2594  0.4738
 2230TIP3    H228326   0.854   5.367   7.870  0.0093  0.2730 -0.1565
 2231TIP3   OH228327   2.411   5.225   7.733  0.2665  0.7242  0.2519
 2231TIP3    H128328   2.346   5.259   7.796  1.1468  0.4928  1.3097
 2231TIP3    H228329   2.432   5.301   7.678 -2.7515  0.2317 -1.8252
 2232TIP3   OH228330   2.711   0.481   8.212  0.1806 -0.5613  0.0463
 2232TIP3    H128331   2.664   0.468   8.294 -0.7404  1.0625 -0.1560
 2232TIP3    H228332   2.660   0.434   8.147  0.4503 -1.1696  0.2734
 2233TIP3   OH228333   6.324   0.290   0.535 -0.1378 -0.4327 -0.6021
 2233TIP3    H128334   6.342   0.269   0.626  0.2664 -2.9254 -1.1966
 2233TIP3    H228335   6.407   0.326   0.502 -0.1463  0.0296 -0.1256
 2234TIP3   OH228336   6.642   4.471   8.113 -0.0414 -0.3142 -0.4136
 2234TIP3    H128337   6.719   4.485   8.058  0.8264 -1.5605  0.4348
 2234TIP3    H228338   6.581   4.422   8.058 -1.1711  2.4249 -1.8058
 2235TIP3   OH228339   6.023   0.596   0.599 -0.5523 -0.2274 -0.1800
 2235TIP3    H128340   6.047   0.682   0.634  2.4376 -1.5124  1.2662
 2235TIP3    H228341   6.027   0.608   0.504 -0.4898  1.2940 -0.0169
 2236TIP3   OH228342   1.020   0.026   0.925 -0.1371  0.0047 -0.3136
 2236TIP3    H128343   0.985  -0.049   0.877 -0.6290  1.9339 -3.1659
 2236TIP3    H228344   0.985   0.103   0.880  2.6262  2.0203  0.6906
 2237TIP3   OH228345   1.441   3.158   8.808 -0.0803  0.4526 -0.0150
 2237TIP3    H128346   1.365   3.203   8.772  0.9684  2.4027  0.1087
 2237TIP3    H228347   1.411   3.123   8.892 -1.6152 -1.3564 -1.2278
 2238TIP3   OH228348   0.079   5.362   8.064  0.0533 -0.0190  0.4598
 2238TIP3    H128349   0.045   5.273   8.064 -0.7667  0.2535 -0.9214
 2238TIP3    H228350   0.130   5.369   8.145 -0.6417 -1.4281  1.0506
 2239TIP3   OH228351   6.711   3.988   1.449  0.2006  0.1348 -0.0099
 2239TIP3    H128352   6.797   3.994   1.408 -0.2326  0.9942 -0.8482
 2239TIP3    H228353   6.662   4.062   1.413 -0.0484  1.3133  2.5038
 2240TIP3   OH228354   6.641   1.223   0.472  0.0924 -0.1468 -0.1169
 2240TIP3    H128355   6.668   1.214   0.563 -0.4538 -0.0127  0.0615
 2240TIP3    H228356   6.573   1.289   0.473  0.4181  0.2088 -0.6972
 2241TIP3   OH228357   5.087   1.657   7.290  0.0068  0.0432 -0.1205
 2241TIP3    H128358   5.057   1.623   7.206 -2.3383 -1.7276  1.2878
 2241TIP3    H228359   5.181   1.640   7.291 -0.3734 -2.5886 -1.2590
 2242TIP3   OH228360   3.405   1.761   7.875 -0.2565  0.1017 -0.4543
 2242TIP3    H128361   3.459   1.718   7.941 -2.6163 -2.8899 -0.2337
 2242TIP3    H228362   3.350   1.823   7.925  1.1908  1.3784 -0.3716
 2243TIP3   OH228363   4.486   2.580   8.575  0.3532 -0.0690 -0.3144
 2243TIP3    H128364   4.490   2.676   8.567  1.7300  0.1499  1.9028
 2243TIP3    H228365   4.479   2.549   8.485 -0.3620  2.1188 -1.0908
 2244TIP3   OH228366   5.527   6.594   6.887  0.0634 -0.5177  0.2504
 2244TIP3    H128367   5.539   6.517   6.832 -1.5903 -0.0860 -0.7981
 2244TIP3    H228368   5.602   6.650   6.867 -0.0663 -0.7467 -0.9463
 2245TIP3   OH228369   4.507   6.157   8.708 -0.2561  0.0570 -0.2169
 2245TIP3    H128370   4.424   6.156   8.757  0.8176  0.1833  1.7135
 2245TIP3    H228371   4.499   6.233   8.650 -0.4496  1.8203  1.9620
 2246TIP3   OH228372   5.744   3.648   0.837 -0.0616  0.1990  0.2494
 2246TIP3    H128373   5.839   3.658   0.827  0.2978 -2.0432  0.9401
 2246TIP3    H228374   5.728   3.663   0.930 -0.5497  1.3870 -0.0009
 2247TIP3   OH228375   3.595   3.978   8.047  0.3693 -0.1732  0.4134
 2247TIP3    H128376   3.625   4.008   8.133  0.3304 -1.2073  0.8069
 2247TIP3    H228377   3.585   3.883   8.057 -0.3301 -0.2139 -0.5271
 2248TIP3   OH228378   4.733   5.606   7.931  0.0303  0.9019 -0.0953
 2248TIP3    H128379   4.697   5.569   8.011  0.2001 -1.7734 -1.1500
 2248TIP3    H228380   4.826   5.585   7.934 -0.2349 -0.7756 -1.6945
 2249TIP3   OH228381   3.377   0.976   0.646 -0.0989 -0.1578 -0.3726
 2249TIP3    H128382   3.321   1.039   0.600  0.4707  0.4038 -0.3065
 2249TIP3    H228383   3.453   0.965   0.588  0.6336  0.5662  0.4204
 2250TIP3   OH228384   4.658   5.103   8.292 -0.4189 -0.3005  0.7028
 2250TIP3    H128385   4.575   5.114   8.338 -0.8427 -0.5694  0.0121
 2250TIP3    H228386   4.635   5.061   8.209  0.4092 -0.4155  0.5175
 2251TIP3   OH228387   2.465   3.211   1.833  0.5195  0.1162  0.2754
 2251TIP3    H128388   2.504   3.276   1.775  1.3428 -1.0551 -0.5269
 2251TIP3    H228389   2.390   3.256   1.872  0.4498  1.2039 -1.0459
 2252TIP3   OH228390   1.731   6.551   1.296  0.7965  0.2152  0.2840
 2252TIP3    H128391   1.654   6.573   1.244 -0.4849 -1.9838  1.1300
 2252TIP3    H228392   1.767   6.636   1.323 -0.8592  1.3080 -0.7529
 2253TIP3   OH228393   2.126   3.218   7.290 -0.3886 -0.1617 -0.4154
 2253TIP3    H128394   2.104   3.149   7.353 -0.0382 -0.2591 -0.3986
 2253TIP3    H228395   2.134   3.172   7.206 -1.2121  0.0213 -0.6036
 2254TIP3   OH228396   6.351   3.368   8.418 -0.0179  0.0850  0.1062
 2254TIP3    H128397   6.268   3.362   8.467  0.2804 -0.2485  0.5853
 2254TIP3    H228398   6.412   3.315   8.469  0.5134  0.3923 -0.2031
 2255TIP3   OH228399   5.410   6.354   6.762  0.2200 -0.9904  0.1135
 2255TIP3    H128400   5.339   6.418   6.767  0.9678  0.1519 -2.1561
 2255TIP3    H228401   5.368   6.270   6.774 -0.9859 -0.1809  2.0067
 2256TIP3   OH228402   2.599   3.310   0.641  0.0050 -0.1462  0.2618
 2256TIP3    H128403   2.564   3.232   0.684 -0.9442 -0.8015 -1.6025
 2256TIP3    H228404   2.544   3.382   0.672  1.0323 -0.1106  2.1819
 2257TIP3   OH228405   2.836   0.099   7.180 -0.7921  0.2965  0.3459
 2257TIP3    H128406   2.909   0.075   7.238 -1.6801  0.5066  1.5857
 2257TIP3    H228407   2.767   0.037   7.202 -0.9472 -0.0201 -0.9572
 2258TIP3   OH228408   1.049   5.596   8.027  0.3196  0.0593  0.2052
 2258TIP3    H128409   1.108   5.630   8.094  0.4176  0.4625 -0.0752
 2258TIP3    H228410   0.970   5.650   8.035  1.1310  1.6195 -1.4075
 2259TIP3   OH228411   3.035   3.731   7.736  0.1870 -0.0664  0.5004
 2259TIP3    H128412   3.121   3.773   7.729 -0.0955  0.2427 -1.8460
 2259TIP3    H228413   2.982   3.774   7.669 -1.1368 -1.8247  0.3593
 2260TIP3   OH228414   5.963   1.277   2.500  0.5451 -0.3534  0.0979
 2260TIP3    H128415   6.000   1.358   2.466  0.5857 -0.4205 -0.0187
 2260TIP3    H228416   5.878   1.303   2.537  0.0710 -0.4310 -0.8956
 2261TIP3   OH228417   3.683   4.508   0.783 -0.6355 -0.3489  0.1126
 2261TIP3    H128418   3.688   4.419   0.747 -0.9570 -0.2031 -0.3012
 2261TIP3    H228419   3.733   4.561   0.722 -0.6705 -0.1975  0.2163
 2262TIP3   OH228420   2.024   2.476   1.861 -0.2958  0.1847  0.4663
 2262TIP3    H128421   1.995   2.386   1.870 -0.2997  0.1327 -0.0182
 2262TIP3    H228422   2.068   2.479   1.775 -0.0421  0.5714  0.6048
 2263TIP3   OH228423   2.799   2.741   7.702  0.0058  0.4875 -0.2631
 2263TIP3    H128424   2.740   2.776   7.635 -1.4936 -0.1814  0.6494
 2263TIP3    H228425   2.752   2.755   7.784  0.2616 -1.7592  0.3304
 2264TIP3   OH228426   1.251   2.925   7.953 -0.7519 -0.0504 -0.3158
 2264TIP3    H128427   1.323   2.861   7.953 -1.4458 -1.0216 -3.5951
 2264TIP3    H228428   1.294   3.009   7.941  0.0333 -0.0794  1.8797
 2265TIP3   OH228429   1.992   5.744   8.014 -0.2869 -0.4723 -0.2741
 2265TIP3    H128430   1.918   5.804   8.010 -0.5995 -0.7924  0.5414
 2265TIP3    H228431   2.044   5.765   7.936 -0.8649  0.2265 -0.4824
 2266TIP3   OH228432   5.809   5.304   1.109 -0.1254 -0.2393  0.2872
 2266TIP3    H128433   5.774   5.232   1.162  0.7720 -1.6324 -0.9327
 2266TIP3    H228434   5.883   5.337   1.159 -0.9987  0.3691  1.2112
 2267TIP3   OH228435   4.160   2.407   1.132 -0.0599  0.3280  0.0668
 2267TIP3    H128436   4.148   2.490   1.085  0.0079  2.0255  2.8660
 2267TIP3    H228437   4.196   2.432   1.217 -0.4420 -2.5450  1.1833
 2268TIP3   OH228438   3.502   6.240   0.906 -0.0966  0.3377  0.7612
 2268TIP3    H128439   3.462   6.199   0.982 -0.6302 -0.3742  0.1168
 2268TIP3    H228440   3.471   6.188   0.831  1.3128  0.3187  0.1489
 2269TIP3   OH228441   2.773   0.490   8.626 -0.1590 -0.1068 -0.4556
 2269TIP3    H128442   2.857   0.469   8.586 -0.1433  0.6173 -0.8212
 2269TIP3    H228443   2.791   0.562   8.686 -0.4851 -0.0495 -0.4219
 2270TIP3   OH228444   3.598   0.678   1.640  0.2655 -0.6152 -0.3642
 2270TIP3    H128445   3.655   0.642   1.573  0.4323  0.6947 -0.9364
 2270TIP3    H228446   3.630   0.639   1.722  0.3471 -1.8554 -0.9593
 2271TIP3   OH228447   3.002   4.642   1.074  0.3997 -0.2726 -0.0356
 2271TIP3    H128448   2.915   4.641   1.112  0.3794 -1.1705 -0.1018
 2271TIP3    H228449   3.017   4.734   1.051 -0.4711 -0.0935  0.0970
 2272TIP3   OH228450   1.015   2.959   1.164  0.1959 -0.3223 -0.4466
 2272TIP3    H128451   1.083   2.914   1.112  0.9512 -0.2831  0.4904
 2272TIP3    H228452   1.053   3.044   1.184 -0.4418 -0.0128 -0.5359
 2273TIP3   OH228453   0.682   1.162   1.500 -0.7127  0.0724  0.4866
 2273TIP3    H128454   0.599   1.203   1.524 -2.5625 -1.7795 -2.1172
 2273TIP3    H228455   0.705   1.202   1.416  0.2058 -0.5642  0.4206
 2274TIP3   OH228456   2.409   4.151   1.865  0.1664  0.1268  0.5344
 2274TIP3    H128457   2.353   4.139   1.943  1.6075 -0.8929  1.4574
 2274TIP3    H228458   2.411   4.065   1.824  0.4762  0.3471  0.0928
 2275TIP3   OH228459   5.087   6.425   8.400  0.4213 -0.0271  0.5593
 2275TIP3    H128460   5.162   6.469   8.441 -0.0411  0.1642  1.2158
 2275TIP3    H228461   5.032   6.397   8.474 -0.1026 -0.2610  0.0897
 2276TIP3   OH228462   3.851   2.605   7.992 -0.0186 -0.0784  0.2653
 2276TIP3    H128463   3.819   2.524   8.032  1.1689 -0.1494  1.1337
 2276TIP3    H228464   3.778   2.667   8.000 -1.1848 -1.2262 -1.0143
 2277TIP3   OH228465   2.037   5.006   8.563  0.3702 -0.1994 -0.2003
 2277TIP3    H128466   2.102   5.067   8.528  1.0821 -1.4338 -1.1755
 2277TIP3    H228467   2.088   4.943   8.614 -0.4396  0.4347  1.4724
 2278TIP3   OH228468   2.479   3.352   8.418 -0.2560 -0.6010  0.0879
 2278TIP3    H128469   2.417   3.331   8.349  0.5307  0.4804 -0.9968
 2278TIP3    H228470   2.450   3.437   8.452  0.0602 -0.5543  0.2528
 2279TIP3   OH228471   5.192   0.494   7.659  0.2321  0.1618 -0.0626
 2279TIP3    H128472   5.229   0.475   7.573  1.1249 -0.6548  0.4762
 2279TIP3    H228473   5.133   0.420   7.676 -0.5051  0.6961 -0.2802
 2280TIP3   OH228474   6.599   5.288   7.283  0.4877  0.0156  0.1362
 2280TIP3    H128475   6.520   5.240   7.308  0.9747 -0.1078  1.4919
 2280TIP3    H228476   6.618   5.256   7.194 -1.3973  0.6322 -0.5273
 2281TIP3   OH228477   3.108   2.548   1.288  0.1927 -0.2306 -0.1862
 2281TIP3    H128478   3.174   2.480   1.277  1.5972  1.2665 -1.7429
 2281TIP3    H228479   3.043   2.529   1.221  1.3853  0.7544 -1.7051
 2282TIP3   OH228480   4.136   5.153   2.561 -0.5980  0.2461 -0.2810
 2282TIP3    H128481   4.193   5.229   2.577 -0.6484  0.9371 -2.8385
 2282TIP3    H228482   4.196   5.083   2.534 -0.7076 -0.0495  0.2319
 2283TIP3   OH228483   3.744   0.569   7.666 -0.1944  0.6728 -0.1777
 2283TIP3    H128484   3.761   0.580   7.760 -0.0756  1.1864 -0.2567
 2283TIP3    H228485   3.821   0.606   7.624 -0.8700  1.7482 -0.5092
 2284TIP3   OH228486   1.794   2.922   8.118 -0.0860 -0.5418  0.5626
 2284TIP3    H128487   1.863   2.974   8.078  0.1697 -2.5500 -1.8092
 2284TIP3    H228488   1.749   2.983   8.176  0.8629  2.0148 -1.2267
 2285TIP3   OH228489   5.723   1.446   6.709  0.2542 -0.2914  0.0323
 2285TIP3    H128490   5.794   1.508   6.691 -0.6312  1.4001  1.9343
 2285TIP3    H228491   5.666   1.453   6.632  0.8186  0.3103 -0.3452
 2286TIP3   OH228492   0.196   4.898   1.703  0.2302  0.1307 -0.2781
 2286TIP3    H128493   0.154   4.982   1.722 -1.2904 -0.7446  0.4275
 2286TIP3    H228494   0.154   4.867   1.623 -0.3524 -0.6582  0.3153
 2287TIP3   OH228495   3.873   2.924   2.386  0.4354 -0.3501 -0.2355
 2287TIP3    H128496   3.949   2.875   2.356  0.8824  0.1624  0.0551
 2287TIP3    H228497   3.900   2.963   2.469  0.4603  1.2792 -0.9672
 2288TIP3   OH228498   1.099   4.231   0.470 -0.0848 -0.0984  0.2232
 2288TIP3    H128499   1.077   4.250   0.561  0.7666 -0.1368  0.4479
 2288TIP3    H228500   1.032   4.276   0.419  0.9198  2.1066  0.7736
 2289TIP3   OH228501   5.184   0.649   6.706  0.1944 -0.1832  0.5429
 2289TIP3    H128502   5.235   0.572   6.682  0.9092  0.2426  0.6608
 2289TIP3    H228503   5.177   0.700   6.625 -2.3390 -1.4794 -0.1622
 2290TIP3   OH228504   6.483   4.790   7.410 -0.4895  0.2309 -0.3949
 2290TIP3    H128505   6.461   4.800   7.317  1.1307 -0.3977 -0.8892
 2290TIP3    H228506   6.491   4.879   7.443 -0.6072  0.4674 -0.9911
 2291TIP3   OH228507   0.707   1.397   7.421  0.0976  0.2778  0.2553
 2291TIP3    H128508   0.712   1.425   7.512  0.5145 -1.3071  0.7391
 2291TIP3    H228509   0.738   1.306   7.421  1.8270  0.7813 -1.7325
 2292TIP3   OH228510   1.856   5.716   7.203 -0.1968  0.1783  0.7588
 2292TIP3    H128511   1.882   5.712   7.111  0.4170 -0.9229  0.9495
 2292TIP3    H228512   1.857   5.624   7.232 -1.2576  0.4187  1.6289
 2293TIP3   OH228513   6.792   3.565   0.364 -0.2385 -0.1500 -0.3974
 2293TIP3    H128514   6.730   3.493   0.373 -1.1916  0.2966 -2.6959
 2293TIP3    H228515   6.754   3.637   0.413 -0.0143 -0.7603  0.6884
 2294TIP3   OH228516   5.569   0.014   1.184  0.1081  0.2061 -0.3689
 2294TIP3    H128517   5.526   0.037   1.266  0.5194  0.9523 -0.3447
 2294TIP3    H228518   5.661   0.038   1.199  0.5238 -1.2645 -0.4456
 2295TIP3   OH228519   0.356   4.079   1.841  0.4734 -0.7949  0.3084
 2295TIP3    H128520   0.312   4.063   1.757 -0.0676 -2.3162  0.8488
 2295TIP3    H228521   0.309   4.025   1.904 -0.0689  1.4314  1.9390
 2296TIP3   OH228522   3.134   0.220   0.760  0.2111  0.4146  0.2885
 2296TIP3    H128523   3.198   0.187   0.824 -2.4447 -0.8803  2.4968
 2296TIP3    H228524   3.137   0.156   0.688  2.6180  1.4062 -0.6085
 2297TIP3   OH228525   6.209   6.745   0.140 -0.1381 -0.5719 -0.1751
 2297TIP3    H128526   6.281   6.697   0.182  0.9183  0.4669 -0.7068
 2297TIP3    H228527   6.143   6.754   0.208  0.6887 -0.6526  0.6643
 2298TIP3   OH228528   5.063   5.847   7.782 -0.4861  0.2177  0.3238
 2298TIP3    H128529   4.985   5.840   7.838 -0.7996  0.0398 -0.1313
 2298TIP3    H228530   5.056   5.773   7.722 -0.3047  0.5753 -0.1424
 2299TIP3   OH228531   6.596   0.411   2.023  0.0791  0.0063 -0.6094
 2299TIP3    H128532   6.591   0.337   2.083  1.6280 -0.2814 -0.7969
 2299TIP3    H228533   6.508   0.448   2.023 -0.6664 -1.6868 -0.3202
 2300TIP3   OH228534   4.275   5.128   7.939 -0.3126 -0.3882  0.1164
 2300TIP3    H128535   4.260   5.169   7.854  1.2192  0.2390  0.1269
 2300TIP3    H228536   4.364   5.094   7.934  0.0193  0.1952  1.6695
 2301TIP3   OH228537   6.594   1.953   1.612 -0.3395  0.0870 -0.2283
 2301TIP3    H128538   6.614   2.013   1.540 -0.2594 -0.7146 -0.8785
 2301TIP3    H228539   6.515   1.907   1.584 -1.3359  1.0030  0.9657
 2302TIP3   OH228540   1.486   3.993   1.806 -0.2666 -0.4592  0.0499
 2302TIP3    H128541   1.406   3.941   1.800 -0.4674 -0.3040  1.1483
 2302TIP3    H228542   1.549   3.947   1.750 -1.0160 -0.7665 -0.5615
 2303TIP3   OH228543   6.470   4.686   1.780 -0.7023 -0.0766 -0.0674
 2303TIP3    H128544   6.420   4.650   1.706  1.0908 -3.1953  0.0732
 2303TIP3    H228545   6.512   4.610   1.820  0.4323  1.8304  2.6496
 2304TIP3   OH228546   6.017   2.421   0.054 -0.3331 -0.1040  0.2060
 2304TIP3    H128547   5.939   2.387   0.098 -0.1297  0.2498  0.8412
 2304TIP3    H228548   6.055   2.345   0.010  0.0471 -0.6827  1.5134
 2305TIP3   OH228549   0.885   0.230   0.771  0.1440 -0.0179 -0.3367
 2305TIP3    H128550   0.949   0.290   0.732 -1.7559  2.5692  0.2656
 2305TIP3    H228551   0.820   0.217   0.702  0.1422 -0.7716 -0.1960
 2306TIP3   OH228552   0.579   1.077   6.479  0.3699 -0.1495  0.2523
 2306TIP3    H128553   0.507   1.139   6.470  0.3373 -0.2664 -0.3761
 2306TIP3    H228554   0.657   1.132   6.487  0.4299 -0.0026 -1.0630
 2307TIP3   OH228555   1.524   2.860   7.963 -0.5305  0.1895 -0.0940
 2307TIP3    H128556   1.612   2.885   7.989 -0.3831  0.3221 -0.7056
 2307TIP3    H228557   1.528   2.765   7.955 -0.8029  0.0551  1.1685
 2308TIP3   OH228558   0.513   0.516   1.307 -0.3907  0.0041  0.1639
 2308TIP3    H128559   0.493   0.541   1.397  0.0890  0.5800  0.1220
 2308TIP3    H228560   0.605   0.490   1.309 -0.2061  0.6034 -0.2704
 2309TIP3   OH228561   4.222   0.687   7.212  0.4955 -0.0577 -0.5574
 2309TIP3    H128562   4.219   0.692   7.308  1.6211 -0.5495 -0.4844
 2309TIP3    H228563   4.262   0.602   7.194 -0.6132 -0.4007 -1.4891
 2310TIP3   OH228564   5.649   0.934   6.386 -0.3068 -0.4111 -0.2061
 2310TIP3    H128565   5.648   0.926   6.291 -0.1058  0.7352 -0.3144
 2310TIP3    H228566   5.558   0.924   6.412 -0.4237 -0.2785 -0.5611
 2311TIP3   OH228567   5.920   5.811   1.566  0.0244  0.3427  0.6488
 2311TIP3    H128568   5.853   5.793   1.500  0.6470  1.6312 -0.3971
 2311TIP3    H228569   5.872   5.845   1.641 -0.6586 -0.6848  0.6898
 2312TIP3   OH228570   5.156   6.343   0.376  0.6555 -0.0761  0.0391
 2312TIP3    H128571   5.086   6.325   0.313  0.8078 -0.2344 -0.0843
 2312TIP3    H228572   5.186   6.257   0.405  0.5796 -0.0044  0.3370
 2313TIP3   OH228573   4.628   5.417   0.068 -0.1392 -0.0103 -0.1678
 2313TIP3    H128574   4.658   5.471   0.142  0.0248 -1.9321  1.2670
 2313TIP3    H228575   4.548   5.459   0.038  0.3909  1.4458  0.3744
 2314TIP3   OH228576   0.214   0.671   1.391  0.2824 -0.3616 -0.1605
 2314TIP3    H128577   0.185   0.588   1.428 -0.2203  0.2710  0.9282
 2314TIP3    H228578   0.301   0.685   1.427  0.1686 -0.1840  0.0464
 2315TIP3   OH228579   4.549   4.330   8.583 -0.1653  0.3751  0.1978
 2315TIP3    H128580   4.489   4.256   8.591  0.8795 -0.6491 -1.1530
 2315TIP3    H228581   4.508   4.388   8.519  1.7219 -1.9426 -3.4181
 2316TIP3   OH228582   1.174   4.174   2.056 -0.2295  0.6966  0.1394
 2316TIP3    H128583   1.163   4.167   2.151 -0.4345  0.4764  0.0990
 2316TIP3    H228584   1.087   4.161   2.020 -0.0548  0.1739 -0.1119
 2317TIP3   OH228585   4.578   6.117   7.578  0.0450  0.4216 -0.2785
 2317TIP3    H128586   4.490   6.154   7.590  0.0305  1.4669 -2.9358
 2317TIP3    H228587   4.634   6.194   7.564  0.9619 -0.3402 -0.9121
 2318TIP3   OH228588   4.559   3.466   7.004  0.7763 -0.2935 -0.3633
 2318TIP3    H128589   4.541   3.462   6.910  2.6356 -0.1848 -0.7570
 2318TIP3    H228590   4.518   3.547   7.033 -1.7132 -1.3729 -0.5873
 2319TIP3   OH228591   1.262   3.799   2.485  0.3237 -0.4471 -0.5637
 2319TIP3    H128592   1.206   3.742   2.537  0.2129 -0.1035 -0.3022
 2319TIP3    H228593   1.201   3.842   2.424 -0.1376  1.8300  1.3761
 2320TIP3   OH228594   1.973   2.367   7.145  0.4355  0.0044  0.1669
 2320TIP3    H128595   1.909   2.305   7.181 -0.0683 -0.7790 -1.9424
 2320TIP3    H228596   1.946   2.452   7.179 -1.5020 -0.3648 -0.3177
 2321TIP3   OH228597   4.967   2.776   1.171  0.0687 -0.0423 -0.1252
 2321TIP3    H128598   5.020   2.819   1.103  2.0772  0.9545  1.8997
 2321TIP3    H228599   4.985   2.683   1.161  1.7472  0.2234  0.0526
 2322TIP3   OH228600   6.298   0.443   1.641  0.0910  0.4452 -0.0953
 2322TIP3    H128601   6.291   0.481   1.554 -0.3749 -0.5457 -0.5071
 2322TIP3    H228602   6.226   0.381   1.646  0.5869 -0.0909  0.6974
 2323TIP3   OH228603   1.814   0.371   0.490 -0.0045 -0.4614  0.1966
 2323TIP3    H128604   1.870   0.310   0.443 -0.7541 -1.0468  0.0440
 2323TIP3    H228605   1.725   0.343   0.469 -0.3557  0.1850  0.7759
 2324TIP3   OH228606   4.036   3.701   0.433  0.3603  0.4952 -0.1140
 2324TIP3    H128607   4.125   3.665   0.428  0.0611 -0.1467 -1.5425
 2324TIP3    H228608   3.993   3.651   0.502  0.3068 -1.1619 -1.2869
 2325TIP3   OH228609   1.608   4.232   6.778  0.0921 -0.4802 -0.1095
 2325TIP3    H128610   1.677   4.265   6.721 -0.1667 -0.7198 -0.5634
 2325TIP3    H228611   1.558   4.310   6.803  1.0690 -0.1620  0.9843
 2326TIP3   OH228612   4.322   6.211   7.591  0.0933  0.2794  0.0352
 2326TIP3    H128613   4.226   6.212   7.593  0.0596  0.4820 -1.0427
 2326TIP3    H228614   4.345   6.264   7.515  1.1039  1.1030  0.8807
 2327TIP3   OH228615   5.597   3.463   1.697 -0.3036  0.3261  0.2561
 2327TIP3    H128616   5.657   3.535   1.676 -0.3466  0.3353  0.1610
 2327TIP3    H228617   5.640   3.415   1.767 -0.9990  1.3722  1.4452
 2328TIP3   OH228618   0.394   3.129   2.010 -0.2381  0.2652  0.3676
 2328TIP3    H128619   0.456   3.107   1.940 -0.9598  1.4626 -0.6894
 2328TIP3    H228620   0.445   3.118   2.090  0.9658 -0.0169 -0.4042
 2329TIP3   OH228621   5.146   6.019   1.959 -0.2070  0.0015 -0.5318
 2329TIP3    H128622   5.181   6.093   2.010  1.8409  0.6872 -2.7476
 2329TIP3    H228623   5.082   6.059   1.901 -1.1558 -0.4640  0.1775
 2330TIP3   OH228624   5.083   3.754   0.482  0.3311  0.5324  0.1807
 2330TIP3    H128625   5.029   3.685   0.443 -0.2297  1.0551  0.0238
 2330TIP3    H228626   5.157   3.763   0.422 -0.6424  1.4932 -0.9166
 2331TIP3   OH228627   1.186   6.081   1.410  0.3276 -0.3626 -0.4811
 2331TIP3    H128628   1.128   6.015   1.449  1.1112 -1.3107 -0.8609
 2331TIP3    H228629   1.175   6.159   1.465 -1.4364 -0.4510 -0.6559
 2332TIP3   OH228630   4.954   5.454   1.551  0.0930 -0.0093  0.5600
 2332TIP3    H128631   4.990   5.392   1.488 -0.3699  0.8933 -0.6292
 2332TIP3    H228632   5.026   5.515   1.569 -0.5240  1.2959 -1.1689
 2333TIP3   OH228633   6.598   4.691   0.513 -0.0066 -0.4018 -0.0422
 2333TIP3    H128634   6.584   4.605   0.553  1.5243 -0.8826 -0.4805
 2333TIP3    H228635   6.545   4.689   0.433  1.2452 -1.5892 -0.8897
 2334TIP3   OH228636   5.677   0.305   1.396 -0.0766  0.1063  0.1581
 2334TIP3    H128637   5.585   0.286   1.412 -1.0153  2.8771 -1.1630
 2334TIP3    H228638   5.704   0.358   1.471 -0.7293  2.3461 -1.0814
 2335TIP3   OH228639   4.484   0.490   1.809 -0.0070  0.3967 -0.7726
 2335TIP3    H128640   4.415   0.481   1.875  1.2862 -0.5944  0.5218
 2335TIP3    H228641   4.462   0.570   1.762 -1.1980  0.9356  0.6188
 2336TIP3   OH228642   4.517   6.483   1.965 -0.2780  0.9155  0.5600
 2336TIP3    H128643   4.474   6.398   1.966  0.4678  0.5199  0.0159
 2336TIP3    H228644   4.605   6.467   2.001 -0.0627  1.4135  0.2758
 2337TIP3   OH228645   6.150   5.378   6.843  0.0593 -0.0709  0.9329
 2337TIP3    H128646   6.193   5.302   6.804 -0.4524 -0.0798  0.3699
 2337TIP3    H228647   6.075   5.395   6.786  0.8281  1.5734  0.3322
 2338TIP3   OH228648   1.771   1.931   7.881 -0.1409  0.2364  0.2005
 2338TIP3    H128649   1.712   1.960   7.811 -0.8476 -1.2726  0.1352
 2338TIP3    H228650   1.856   1.922   7.839 -0.8299 -1.9861 -0.8769
 2339TIP3   OH228651   6.331   5.521   1.394 -0.1121  0.7376 -0.1190
 2339TIP3    H128652   6.347   5.541   1.486  1.5839 -1.1815  0.0726
 2339TIP3    H228653   6.247   5.477   1.392  0.2395  0.0190  0.6554
 2340TIP3   OH228654   0.809   2.357   0.088 -0.3288 -0.1488  0.0307
 2340TIP3    H128655   0.742   2.309   0.039 -1.4783  0.8021  0.6285
 2340TIP3    H228656   0.873   2.381   0.021  0.2910 -2.4350 -0.2977
 2341TIP3   OH228657   1.533   1.025   7.781 -0.5468 -0.0517 -0.5820
 2341TIP3    H128658   1.566   1.098   7.729  0.5933  0.3713  0.6687
 2341TIP3    H228659   1.472   1.065   7.844 -0.5009 -0.2846 -0.3861
 2342TIP3   OH228660   3.969   5.819   1.000  0.1691  0.7191  0.3245
 2342TIP3    H128661   3.983   5.807   0.906 -0.1340 -0.5690  0.4247
 2342TIP3    H228662   3.878   5.791   1.014  0.1769  1.0102  0.9814
 2343TIP3   OH228663   3.100   2.543   6.951 -0.0133  0.4736  0.1560
 2343TIP3    H128664   3.100   2.468   6.891 -1.0692  1.3788 -1.0317
 2343TIP3    H228665   3.007   2.555   6.972  0.4088 -0.5648  2.9989
 2344TIP3   OH228666   0.909   4.704   8.266  0.5335  1.0012  0.3965
 2344TIP3    H128667   1.004   4.715   8.271  0.8319 -1.2323  0.5231
 2344TIP3    H228668   0.896   4.612   8.244 -1.6159  1.2121  0.5478
 2345TIP3   OH228669   6.654   2.155   1.091 -0.3587  0.2716  0.1763
 2345TIP3    H128670   6.680   2.220   1.156 -0.0206 -1.0453  1.4102
 2345TIP3    H228671   6.558   2.153   1.095 -0.4180  1.2191 -0.4345
 2346TIP3   OH228672   3.984   3.354   7.627  0.0521 -0.6465  0.4518
 2346TIP3    H128673   3.905   3.391   7.590 -1.0100 -3.7415 -0.6810
 2346TIP3    H228674   3.961   3.336   7.719 -0.6932 -1.7796  0.0597
 2347TIP3   OH228675   1.718   5.737   7.713  0.2513  0.9557  0.5315
 2347TIP3    H128676   1.734   5.787   7.793 -0.0470  1.4070  0.3105
 2347TIP3    H228677   1.704   5.647   7.743  0.5812  1.0394  0.9462
 2348TIP3   OH228678   2.763   0.074   2.769  0.0328  0.0807 -0.3032
 2348TIP3    H128679   2.795  -0.003   2.816 -0.7366 -0.0581  0.0078
 2348TIP3    H228680   2.808   0.072   2.685  2.9301  1.3748  1.0892
 2349TIP3   OH228681   3.278   5.252   7.525  0.6331  0.4218  0.6649
 2349TIP3    H128682   3.253   5.205   7.605  0.8631  0.8402  0.9909
 2349TIP3    H228683   3.212   5.228   7.460  0.2020  0.4078  1.1046
 2350TIP3   OH228684   0.067   0.638   8.531 -0.0931 -0.5211 -0.4414
 2350TIP3    H128685  -0.001   0.621   8.596 -0.5082 -2.7854 -1.3517
 2350TIP3    H228686   0.148   0.611   8.574  0.2375  1.6770  0.4523
 2351TIP3   OH228687   3.849   5.737   0.476  0.0431 -0.0640  0.0631
 2351TIP3    H128688   3.932   5.707   0.439 -0.0219 -0.5444  0.2979
 2351TIP3    H228689   3.784   5.678   0.438  0.1443 -1.6911  2.1799
 2352TIP3   OH228690   1.828   5.106   2.310 -0.3595 -0.5204  0.2172
 2352TIP3    H128691   1.906   5.054   2.324 -0.7014 -0.6974  1.5711
 2352TIP3    H228692   1.858   5.182   2.259  0.3377 -1.4502 -0.8006
 2353TIP3   OH228693   4.449   0.049   1.918  0.2233 -0.0694 -0.3428
 2353TIP3    H128694   4.543   0.065   1.918  0.6680 -2.1148  1.8192
 2353TIP3    H228695   4.412   0.123   1.966  0.7836  0.4417 -0.6840
 2354TIP3   OH228696   5.725   3.891   1.861 -0.0033  0.4371  0.3295
 2354TIP3    H128697   5.799   3.897   1.800  0.5123  0.0378  0.8984
 2354TIP3    H228698   5.666   3.828   1.820  0.6563 -0.3523  0.5437
 2355TIP3   OH228699   0.902   2.961   8.716  0.9987  0.1623  0.3737
 2355TIP3    H128700   0.919   3.048   8.753  0.6486  0.2693  0.2817
 2355TIP3    H228701   0.964   2.904   8.761  1.9815  0.6372 -0.3263
 2356TIP3   OH228702   2.913   4.555   7.158 -0.4066  0.9102  0.1728
 2356TIP3    H128703   2.954   4.503   7.090 -2.2869 -0.0783 -0.2836
 2356TIP3    H228704   2.975   4.625   7.176  0.7304  0.4186 -1.5935
 2357TIP3   OH228705   1.863   6.488   7.691 -0.3895 -0.4665 -0.7129
 2357TIP3    H128706   1.954   6.465   7.711  0.1789  0.9819 -1.4437
 2357TIP3    H228707   1.845   6.564   7.747 -1.1941 -0.8364 -0.4692
 2358TIP3   OH228708   1.759   3.791   2.384  0.1293  0.1718  0.0420
 2358TIP3    H128709   1.840   3.812   2.431 -0.2825  1.5549  0.1622
 2358TIP3    H228710   1.692   3.786   2.451 -0.5446  2.5879 -0.3839
 2359TIP3   OH228711   2.537   6.828   0.528 -0.2095  0.2052  0.3838
 2359TIP3    H128712   2.587   6.766   0.475  2.9664  4.0473 -1.6871
 2359TIP3    H228713   2.577   6.823   0.615 -0.1800 -0.7913  0.3178
 2360TIP3   OH228714   5.634   3.107   7.963  0.2671 -0.0018 -0.0663
 2360TIP3    H128715   5.710   3.129   7.908 -0.1996 -0.3428 -0.8628
 2360TIP3    H228716   5.558   3.123   7.906 -0.2156 -0.5582  0.4176
 2361TIP3   OH228717   2.865   0.513   7.579 -0.4780 -0.2573 -0.7347
 2361TIP3    H128718   2.886   0.607   7.575  0.7813 -0.5360 -0.9538
 2361TIP3    H228719   2.928   0.477   7.642 -0.4850 -1.0799 -1.1886
 2362TIP3   OH228720   0.774   5.660   6.781  0.8444 -0.2255 -0.6214
 2362TIP3    H128721   0.780   5.698   6.869  0.6887  2.0253 -1.5267
 2362TIP3    H228722   0.799   5.569   6.793 -0.2818 -0.2888  1.9492
 2363TIP3   OH228723   6.322   2.524   7.116 -0.2672 -0.1239 -0.0448
 2363TIP3    H128724   6.386   2.471   7.164 -1.4705  0.4634  2.3898
 2363TIP3    H228725   6.371   2.604   7.093  0.7725 -1.0698 -1.2569
 2364TIP3   OH228726   4.891   3.385   7.627  0.1322 -0.1406 -0.2060
 2364TIP3    H128727   4.865   3.470   7.592  1.9092  0.7869  0.5937
 2364TIP3    H228728   4.839   3.376   7.707 -0.4798 -0.0919 -0.5874
 2365TIP3   OH228729   5.413   5.669   1.151 -0.7915  0.2653 -0.2745
 2365TIP3    H128730   5.462   5.750   1.138 -1.2161  0.5637 -0.0485
 2365TIP3    H228731   5.333   5.697   1.195 -1.3482 -0.1653 -1.0038
 2366TIP3   OH228732   3.550   0.879   6.494  0.3873 -0.5118  0.5394
 2366TIP3    H128733   3.498   0.886   6.413  1.6258 -0.2032 -0.2633
 2366TIP3    H228734   3.633   0.922   6.472  0.8084 -0.5749  1.9387
 2367TIP3   OH228735   5.681   4.715   8.433  0.2922  0.6039  0.4583
 2367TIP3    H128736   5.626   4.638   8.447  0.6305 -0.3058 -2.4997
 2367TIP3    H228737   5.770   4.682   8.438  0.5920  1.5334  2.4283
 2368TIP3   OH228738   4.123   2.780   7.674  0.2307  0.4523  0.5625
 2368TIP3    H128739   4.036   2.768   7.637  0.1004 -1.7334  1.4530
 2368TIP3    H228740   4.108   2.796   7.767  0.6609  3.9956  0.1626
 2369TIP3   OH228741   0.479   5.504   7.416 -0.0137  0.3484  0.6658
 2369TIP3    H128742   0.449   5.533   7.502  0.5290 -0.4761  1.1422
 2369TIP3    H228743   0.569   5.536   7.410  0.8357 -1.7486  1.4856
 2370TIP3   OH228744   2.096   3.738   8.520 -0.9388  0.0923 -0.0670
 2370TIP3    H128745   2.111   3.783   8.603 -1.8397 -0.4183  0.3850
 2370TIP3    H228746   2.027   3.789   8.478 -1.4774 -0.4650  0.1374
 2371TIP3   OH228747   4.803   0.753   6.066 -0.0161  0.6208  0.2286
 2371TIP3    H128748   4.775   0.689   6.001  0.0277 -1.5261  2.2257
 2371TIP3    H228749   4.897   0.738   6.075 -0.3985 -0.8262  2.4705
 2372TIP3   OH228750   6.013   5.626   0.149 -0.1435  0.4730 -0.0284
 2372TIP3    H128751   5.953   5.700   0.142 -1.6410 -0.7377 -0.9457
 2372TIP3    H228752   5.980   5.563   0.084  1.2504 -0.8620  0.4910
 2373TIP3   OH228753   0.912   6.382   7.928 -0.2090 -0.0949  0.6087
 2373TIP3    H128754   0.876   6.429   8.003 -3.5359  0.4200 -1.0792
 2373TIP3    H228755   0.844   6.391   7.860  0.1192 -4.9998 -0.7704
 2374TIP3   OH228756   0.136   2.342   7.499  0.4365 -0.0549  0.2966
 2374TIP3    H128757   0.177   2.300   7.574  1.0452  0.9855  0.5537
 2374TIP3    H228758   0.203   2.399   7.462 -0.3324  0.6129 -0.1176
 2375TIP3   OH228759   3.925   1.196   1.448  0.2474  0.1541  0.3045
 2375TIP3    H128760   3.988   1.232   1.387  0.8590 -3.3968 -1.4060
 2375TIP3    H228761   3.932   1.101   1.437 -1.4367 -0.6071  4.1139
 2376TIP3   OH228762   3.407   4.996   0.011 -0.0811  0.2286 -0.1032
 2376TIP3    H128763   3.321   5.037   0.008 -0.0464  0.3238  0.2161
 2376TIP3    H228764   3.444   5.023   0.095  1.1739  2.0328 -1.1856
 2377TIP3   OH228765   1.218   0.178   1.577 -0.2144 -0.1305 -0.5064
 2377TIP3    H128766   1.141   0.230   1.601  0.1456 -0.8202  2.4937
 2377TIP3    H228767   1.203   0.092   1.617  1.2639 -0.9050 -1.5129
 2378TIP3   OH228768   6.330   6.179   7.795  0.3678  0.2583 -0.3910
 2378TIP3    H128769   6.393   6.160   7.865  1.2163  1.7572 -0.6797
 2378TIP3    H228770   6.284   6.097   7.780  1.1157 -0.4487  0.9837
 2379TIP3   OH228771   3.607   2.225   7.984 -0.3826 -0.1126  0.0270
 2379TIP3    H128772   3.686   2.268   7.950 -0.4572 -0.1826 -0.2407
 2379TIP3    H228773   3.548   2.298   8.005 -0.2526 -0.0608  0.2142
 2380TIP3   OH228774   3.076   1.606   6.909  0.6184 -0.1814  0.1066
 2380TIP3    H128775   3.065   1.684   6.964  0.0983 -0.6652  0.7064
 2380TIP3    H228776   3.060   1.637   6.820  0.7455  0.4649  0.3001
 2381TIP3   OH228777   6.738   6.833   7.330 -0.3724 -0.4139 -0.0138
 2381TIP3    H128778   6.830   6.820   7.350 -0.3361  0.5218  0.5164
 2381TIP3    H228779   6.737   6.901   7.262 -0.6893  0.2891  0.6732
 2382TIP3   OH228780   6.734   3.493   7.784 -0.1302  0.0085  0.0038
 2382TIP3    H128781   6.696   3.551   7.849 -1.6479  0.6303 -1.3828
 2382TIP3    H228782   6.757   3.414   7.833 -0.7915  0.6365  1.3716
 2383TIP3   OH228783   1.185   4.392   8.041 -0.1263 -0.5052 -0.0958
 2383TIP3    H128784   1.203   4.300   8.023  0.5224 -0.6761  1.3048
 2383TIP3    H228785   1.129   4.391   8.119  0.1246  0.2962  0.1014
 2384TIP3   OH228786   6.272   6.792   8.089  0.1267 -0.0362 -0.1885
 2384TIP3    H128787   6.188   6.838   8.082  0.0227 -0.4503 -2.3791
 2384TIP3    H228788   6.260   6.712   8.037  1.3388 -0.9630  0.9112
 2385TIP3   OH228789   6.761   3.939   7.885 -0.1575 -0.3382  0.2237
 2385TIP3    H128790   6.790   3.958   7.796  1.7144  0.6401  0.9916
 2385TIP3    H228791   6.679   3.987   7.895  0.3307  0.6805 -0.5293
 2386TIP3   OH228792   4.034   0.960   0.246  0.6522  0.5577 -0.3090
 2386TIP3    H128793   4.110   1.005   0.210  0.1896 -0.2892 -2.4968
 2386TIP3    H228794   4.070   0.904   0.315  1.7722  1.3513 -0.2289
 2387TIP3   OH228795   2.461   4.801   0.654 -0.3089 -0.0254 -0.3070
 2387TIP3    H128796   2.476   4.786   0.748 -2.4186 -0.5538 -0.0212
 2387TIP3    H228797   2.434   4.893   0.649 -2.3166 -0.5523 -0.0620
 2388TIP3   OH228798   6.376   2.219   6.975  0.2873  0.4424  0.4456
 2388TIP3    H128799   6.385   2.238   7.069  5.1015  1.2302  0.1133
 2388TIP3    H228800   6.427   2.139   6.962 -0.1051  0.4599 -1.5156
 2389TIP3   OH228801   4.120   5.454   8.274 -0.6121  0.4439 -0.0634
 2389TIP3    H128802   4.123   5.419   8.185  1.0903 -1.3811  0.6268
 2389TIP3    H228803   4.050   5.519   8.272 -0.3574  0.7772 -2.8248
 2390TIP3   OH228804   3.555   3.679   7.399 -0.4309  0.7356 -0.0599
 2390TIP3    H128805   3.597   3.728   7.328  0.3031 -0.5063 -0.5065
 2390TIP3    H228806   3.471   3.653   7.363  0.5057 -1.1007 -1.0388
 2391TIP3   OH228807   6.016   1.745   8.277  0.2603  0.3008 -0.0124
 2391TIP3    H128808   5.931   1.710   8.304 -1.2616  1.5394 -2.7557
 2391TIP3    H228809   6.074   1.730   8.352 -1.6349 -3.0662  0.9552
 2392TIP3   OH228810   3.721   0.983   7.830 -0.4086  0.2313  0.0966
 2392TIP3    H128811   3.772   1.022   7.900 -1.8847  1.2841  0.6255
 2392TIP3    H228812   3.785   0.966   7.760  0.8694  0.2660  1.2247
 2393TIP3   OH228813   4.064   0.231   5.619  0.1652  0.3190  0.0498
 2393TIP3    H128814   4.085   0.193   5.704  0.2571 -0.8065 -0.4591
 2393TIP3    H228815   4.148   0.257   5.582  0.0401  1.7818  0.7200
 2394TIP3   OH228816   1.635   1.817   1.849 -0.4105 -0.2753  0.0789
 2394TIP3    H128817   1.577   1.836   1.775 -1.2186  0.3211  0.8594
 2394TIP3    H228818   1.719   1.798   1.808 -0.3555  1.8561 -0.9288
 2395TIP3   OH228819   0.133   6.121   1.413  0.3233 -0.3180 -0.2400
 2395TIP3    H128820   0.149   6.209   1.449 -2.0199  0.1051 -0.0444
 2395TIP3    H228821   0.216   6.097   1.372  1.9740  0.7452  2.1729
 2396TIP3   OH228822   0.667   6.132   0.471 -0.1598 -0.4492  0.3983
 2396TIP3    H128823   0.681   6.046   0.430 -0.4461  0.3386 -1.4723
 2396TIP3    H228824   0.586   6.164   0.432  0.9050  1.4554 -0.4045
 2397TIP3   OH228825   4.857   5.611   2.199  0.2293  0.4674 -0.6191
 2397TIP3    H128826   4.765   5.637   2.193  0.0218  0.5451  1.9330
 2397TIP3    H228827   4.906   5.694   2.200  0.5197  0.4199 -3.2568
 2398TIP3   OH228828   2.409   2.616   7.484  0.3747 -0.1147 -0.0267
 2398TIP3    H128829   2.407   2.521   7.482  1.2518 -0.1279 -0.7391
 2398TIP3    H228830   2.441   2.638   7.572 -1.3432 -0.4102  0.7320
 2399TIP3   OH228831   0.141   5.172   1.779  0.4661  0.4845 -0.0075
 2399TIP3    H128832   0.132   5.222   1.860  1.5257 -0.2773  0.6072
 2399TIP3    H228833   0.051   5.153   1.752  0.0724 -0.6364  1.8898
 2400TIP3   OH228834   0.350   1.944   0.156 -0.2460  0.7445  0.3096
 2400TIP3    H128835   0.384   2.023   0.199 -1.2233  0.7271  1.1649
 2400TIP3    H228836   0.370   1.873   0.218 -1.1629  0.6310  0.4885
 2401TIP3   OH228837   0.488   6.773   0.280  0.0923 -0.1517  0.5000
 2401TIP3    H128838   0.414   6.713   0.292  0.8028 -0.7892  1.9136
 2401TIP3    H228839   0.517   6.757   0.190  0.5076 -2.2466  0.9474
 2402TIP3   OH228840   2.195   4.826   8.717  0.1815  0.3565 -0.3136
 2402TIP3    H128841   2.266   4.852   8.776 -0.4882 -0.0305  0.6991
 2402TIP3    H228842   2.117   4.824   8.773 -0.5253  0.1931 -1.2733
 2403TIP3   OH228843   1.335   6.525   0.797  0.1299  0.6382 -0.2855
 2403TIP3    H128844   1.259   6.483   0.758 -0.2992  0.1711  1.0342
 2403TIP3    H228845   1.352   6.477   0.878  2.1945  0.3436 -0.8173
 2404TIP3   OH228846   4.395   5.645   8.537  0.4320  0.2304  0.3493
 2404TIP3    H128847   4.392   5.735   8.570 -2.5443  1.0964 -1.8940
 2404TIP3    H228848   4.473   5.643   8.482  0.6742  1.3520  0.6175
 2405TIP3   OH228849   2.369   2.825   7.770  0.2193 -0.0236 -0.2338
 2405TIP3    H128850   2.338   2.914   7.753  1.8699  0.4422 -1.0573
 2405TIP3    H228851   2.290   2.771   7.768 -0.5748  1.1071 -2.0048
 2406TIP3   OH228852   2.873   1.968   0.135  0.3836  0.2198 -0.3668
 2406TIP3    H128853   2.882   2.020   0.215  0.7536 -0.7438  0.2350
 2406TIP3    H228854   2.877   1.877   0.165 -0.3617 -0.1708 -1.3784
 2407TIP3   OH228855   6.371   1.060   7.311 -0.1603 -0.0998 -0.5633
 2407TIP3    H128856   6.294   1.102   7.350 -0.3903  0.0868 -1.2071
 2407TIP3    H228857   6.361   1.075   7.217  1.0238  0.5460 -0.6037
 2408TIP3   OH228858   3.429   3.615   8.230 -0.4982  0.5221 -0.2129
 2408TIP3    H128859   3.456   3.692   8.280  1.5578 -0.2452 -0.0529
 2408TIP3    H228860   3.382   3.561   8.294 -0.9545  1.1135 -0.0384
 2409TIP3   OH228861   4.065   1.174   8.800 -0.0138  0.5759  0.3436
 2409TIP3    H128862   4.058   1.147   8.891  0.4371  1.0849  0.5330
 2409TIP3    H228863   4.143   1.131   8.767 -0.5432 -0.1446 -0.0026
 2410TIP3   OH228864   6.766   5.420   1.021  0.0733  0.5073 -0.2212
 2410TIP3    H128865   6.710   5.423   0.943 -1.2369  0.6346  0.7111
 2410TIP3    H228866   6.759   5.508   1.059  2.3450  1.1416 -1.0236
 2411TIP3   OH228867   5.245   2.183   6.635  0.2833 -0.3783 -0.2419
 2411TIP3    H128868   5.283   2.164   6.721 -0.6891  0.7996  0.4830
 2411TIP3    H228869   5.319   2.212   6.582  1.0568 -2.0083 -0.1243
 2412TIP3   OH228870   3.593   0.360   7.794  0.0631 -0.5050  0.0009
 2412TIP3    H128871   3.675   0.353   7.843 -1.6470  2.4026  3.8160
 2412TIP3    H228872   3.612   0.424   7.725  1.3406 -1.0987 -0.2447
 2413TIP3   OH228873   1.772   2.270   0.911  0.2649 -0.3123  0.5673
 2413TIP3    H128874   1.698   2.329   0.902 -1.2182 -2.0681  0.7559
 2413TIP3    H228875   1.825   2.284   0.832 -1.6463 -0.8539 -0.8712
 2414TIP3   OH228876   4.828   2.844   1.659 -0.4170 -0.8510  0.3115
 2414TIP3    H128877   4.813   2.765   1.711 -0.0260 -0.3081  1.2727
 2414TIP3    H228878   4.827   2.813   1.568 -0.0146 -2.0009  0.6761
 2415TIP3   OH228879   5.542   4.586   1.468 -0.1987 -0.2747  0.1008
 2415TIP3    H128880   5.500   4.504   1.440  0.5750 -0.4762 -0.4837
 2415TIP3    H228881   5.512   4.598   1.558 -5.2833  1.9851 -1.5002
 2416TIP3   OH228882   1.260   1.741   6.722 -0.3620 -0.4687  0.2769
 2416TIP3    H128883   1.182   1.784   6.687  0.2250  0.3207 -0.0924
 2416TIP3    H228884   1.324   1.811   6.731  0.5578 -1.2352 -0.1639
 2417TIP3   OH228885   6.757   5.702   7.699  0.5821  0.1966 -0.2573
 2417TIP3    H128886   6.814   5.768   7.738  1.0567 -0.8176  0.8194
 2417TIP3    H228887   6.676   5.706   7.750  1.3322 -1.3762  1.1762
 2418TIP3   OH228888   1.548   0.726   0.460 -0.0598  0.1721 -0.1819
 2418TIP3    H128889   1.568   0.801   0.405 -0.9823  1.2141  0.8223
 2418TIP3    H228890   1.456   0.739   0.485  0.1268 -0.6142  1.0226
 2419TIP3   OH228891   1.772   1.969   1.582 -0.0196  0.2443 -0.5045
 2419TIP3    H128892   1.849   2.012   1.545  1.0479  0.8958  2.2149
 2419TIP3    H228893   1.797   1.877   1.587  0.3952  0.3715 -0.1169
 2420TIP3   OH228894   4.966   6.739   8.825  0.8018  0.2107  0.0789
 2420TIP3    H128895   4.930   6.651   8.814  1.3766 -0.0265  0.0419
 2420TIP3    H228896   4.891   6.794   8.846  0.2079 -0.0218 -1.3313
 2421TIP3   OH228897   6.377   3.502   7.211 -0.0373  0.2541  0.1023
 2421TIP3    H128898   6.433   3.518   7.135  1.8878 -2.3164  0.8226
 2421TIP3    H228899   6.305   3.564   7.202  0.5310  0.6003 -3.3861
 2422TIP3   OH228900   4.707   5.564   7.649  0.3740 -0.1461 -0.8100
 2422TIP3    H128901   4.708   5.579   7.743  0.4262 -0.2548 -0.7936
 2422TIP3    H228902   4.797   5.578   7.621  0.0804  1.3866 -1.0767
 2423TIP3   OH228903   0.054   4.725   7.118 -0.1537  0.5174  0.0847
 2423TIP3    H128904   0.018   4.636   7.114  0.0356  0.4619 -0.6387
 2423TIP3    H228905   0.060   4.752   7.026  2.6255  0.1325  0.0754
 2424TIP3   OH228906   5.090   2.916   8.142  0.0181  0.2936 -0.1434
 2424TIP3    H128907   5.139   2.848   8.189 -0.2979 -0.4261 -0.8369
 2424TIP3    H228908   5.152   2.950   8.078 -0.5762 -1.1910 -1.5878
 2425TIP3   OH228909   0.264   3.696   1.558  0.5748  0.2075  0.1577
 2425TIP3    H128910   0.195   3.744   1.603  0.0454 -1.6413  1.4304
 2425TIP3    H228911   0.341   3.705   1.614  1.2884  1.8319 -1.0019
 2426TIP3   OH228912   2.097   0.662   7.765  0.4948 -0.2850 -0.0645
 2426TIP3    H128913   2.011   0.620   7.766  0.5141 -0.3799 -1.0038
 2426TIP3    H228914   2.104   0.700   7.677  0.2136  2.2895  0.9343
 2427TIP3   OH228915   5.747   6.661   0.414 -0.3855 -0.6943 -0.0885
 2427TIP3    H128916   5.799   6.727   0.368  1.0864 -1.0708  0.9864
 2427TIP3    H228917   5.731   6.593   0.348 -0.6846  0.0535 -0.8015
 2428TIP3   OH228918   0.708   5.563   8.790 -0.4850  0.4533  0.0987
 2428TIP3    H128919   0.657   5.482   8.798  1.6441 -0.8874  1.3197
 2428TIP3    H228920   0.718   5.593   8.880  1.0091  0.5253 -0.0636
 2429TIP3   OH228921   2.483   1.951   8.363  0.2661 -0.3122 -0.3392
 2429TIP3    H128922   2.413   1.995   8.316 -0.4369 -1.3357 -0.2763
 2429TIP3    H228923   2.529   2.022   8.409  1.7974  0.9477 -3.5194
 2430TIP3   OH228924   2.645   0.641   0.656 -0.4428  0.3188 -0.2578
 2430TIP3    H128925   2.736   0.639   0.687 -0.5069  1.1293  0.0066
 2430TIP3    H228926   2.652   0.630   0.561  0.1996  3.2998 -0.6585
 2431TIP3   OH228927   4.516   4.767   0.580  0.0664  0.3928 -0.4746
 2431TIP3    H128928   4.437   4.720   0.606  0.9516 -0.6845  0.4280
 2431TIP3    H228929   4.538   4.731   0.494 -0.4939  0.7996 -0.7921
 2432TIP3   OH228930   0.577   0.327   0.382 -0.2217  0.0517  0.2432
 2432TIP3    H128931   0.528   0.409   0.394  1.0801  0.7395  1.1442
 2432TIP3    H228932   0.568   0.282   0.466  1.0103  0.3886  0.5762
 2433TIP3   OH228933   5.028   4.934   2.630  0.0036  0.5480  0.5417
 2433TIP3    H128934   5.123   4.930   2.622  0.0804 -0.5249  1.6417
 2433TIP3    H228935   4.998   4.965   2.545  1.4224  2.5380  0.6850
 2434TIP3   OH228936   0.794   1.107   2.729  0.0417 -0.4759 -0.2656
 2434TIP3    H128937   0.746   1.170   2.783 -0.0897 -0.1207 -0.7850
 2434TIP3    H228938   0.746   1.025   2.739  1.4478 -1.0979  2.1622
 2435TIP3   OH228939   5.029   2.475   8.386  0.4602 -0.6352  0.0263
 2435TIP3    H128940   5.052   2.382   8.377  1.8832 -0.2032 -1.2963
 2435TIP3    H228941   5.001   2.502   8.299 -0.0763  0.1578  0.4266
 2436TIP3   OH228942   4.794   5.167   7.017 -0.3189 -0.2033 -0.5355
 2436TIP3    H128943   4.730   5.209   7.075 -0.0347 -0.4855 -0.0088
 2436TIP3    H228944   4.776   5.205   6.931 -0.1747  0.8837 -0.1121
 2437TIP3   OH228945   4.127   5.209   1.250  0.2559  0.5181 -0.7134
 2437TIP3    H128946   4.119   5.273   1.321  0.3087  0.3733 -0.5736
 2437TIP3    H228947   4.049   5.154   1.259  1.0370 -0.4875  0.2343
 2438TIP3   OH228948   5.501   4.051   1.005 -0.4612  0.2001 -0.5339
 2438TIP3    H128949   5.430   3.993   1.031 -0.7663 -0.0264 -1.7834
 2438TIP3    H228950   5.508   4.039   0.910  0.2987  1.2819 -0.6366
 2439TIP3   OH228951   2.952   6.112   1.560 -0.2006 -0.3412  0.2026
 2439TIP3    H128952   2.912   6.165   1.491  0.2654 -0.1264  0.0939
 2439TIP3    H228953   2.888   6.043   1.577 -0.1087 -0.6993 -0.8134
 2440TIP3   OH228954   2.981   1.825   8.359  0.1643 -0.1946  0.5996
 2440TIP3    H128955   2.935   1.741   8.358 -0.7614  0.3033 -0.3114
 2440TIP3    H228956   2.993   1.845   8.452 -1.1534 -0.5177  0.8565
 2441TIP3   OH228957   6.120   6.179   6.898 -0.0585 -0.1402  0.0570
 2441TIP3    H128958   6.170   6.145   6.824  0.2568  2.7633 -1.2181
 2441TIP3    H228959   6.136   6.274   6.896 -3.1510  0.5530  1.4643
 2442TIP3   OH228960   3.677   6.511   8.770 -0.1185  0.0331  0.2709
 2442TIP3    H128961   3.669   6.548   8.682  2.1109  0.6549  0.2842
 2442TIP3    H228962   3.626   6.570   8.825 -0.5821  0.2951 -0.4136
 2443TIP3   OH228963   3.377   4.319   7.771  0.3469  0.0382 -0.7007
 2443TIP3    H128964   3.388   4.232   7.810  0.2242 -0.0332 -0.8261
 2443TIP3    H228965   3.387   4.304   7.677 -2.0492 -0.2350 -0.9591
 2444TIP3   OH228966   2.847   4.030   0.741  0.5143  0.4199  0.2040
 2444TIP3    H128967   2.831   4.120   0.713 -0.0941  0.3706  0.3622
 2444TIP3    H228968   2.761   3.998   0.769  0.4336 -0.6891 -1.2153
 2445TIP3   OH228969   0.175   5.393   0.055 -0.4732  0.3495 -0.1578
 2445TIP3    H128970   0.156   5.472   0.106 -2.0407 -0.0689 -0.0613
 2445TIP3    H228971   0.124   5.324   0.098  1.0201 -0.7761 -0.1282
 2446TIP3   OH228972   6.593   5.251   8.257  0.6962 -0.4244  0.3244
 2446TIP3    H128973   6.542   5.233   8.179  3.8098 -1.3453 -1.6710
 2446TIP3    H228974   6.585   5.346   8.270  0.8329 -0.1023 -1.7117
 2447TIP3   OH228975   6.793   5.940   1.510 -0.4850  0.1485  1.0510
 2447TIP3    H128976   6.872   5.986   1.481 -0.4490 -0.5497 -0.0049
 2447TIP3    H228977   6.729   6.009   1.527 -0.0707  0.6427  0.6098
 2448TIP3   OH228978   6.219   6.552   0.706 -0.0527  0.2835 -0.0883
 2448TIP3    H128979   6.289   6.533   0.644 -0.5376  0.4923 -0.7091
 2448TIP3    H228980   6.189   6.466   0.736  0.7918  0.2020  0.5617
 2449TIP3   OH228981   1.388   3.055   8.481  0.7515  0.1379 -0.4982
 2449TIP3    H128982   1.451   3.116   8.441 -0.6555  2.3458  0.4427
 2449TIP3    H228983   1.348   3.010   8.407  2.8593 -0.7843 -1.1525
 2450TIP3   OH228984   0.002   3.573   1.817  0.2807 -0.0366  0.1665
 2450TIP3    H128985  -0.072   3.513   1.805  0.4627 -0.7698  2.2735
 2450TIP3    H228986   0.050   3.536   1.891  0.3771  2.7285  1.5979
 2451TIP3   OH228987   2.321   6.738   8.161  0.7418 -0.1170  0.1219
 2451TIP3    H128988   2.309   6.826   8.196  0.1368 -0.2332  0.2048
 2451TIP3    H228989   2.241   6.691   8.184  1.4429 -0.9758  0.9137
 2452TIP3   OH228990   0.988   1.074   6.871  0.0060  0.3492  0.0467
 2452TIP3    H128991   1.011   1.128   6.946  0.4157  0.3514 -0.0824
 2452TIP3    H228992   1.071   1.040   6.838 -0.1213  0.7029 -0.6709
 2453TIP3   OH228993   4.112   4.071   8.324 -0.6082 -0.2633  0.4275
 2453TIP3    H128994   4.201   4.077   8.360 -0.4782 -1.3725  0.3252
 2453TIP3    H228995   4.123   4.095   8.232 -0.9823  2.8325  1.0673
 2454TIP3   OH228996   4.017   0.489   8.756  0.6854 -0.5140 -0.5669
 2454TIP3    H128997   4.001   0.394   8.754  2.3598 -0.8495  0.2321
 2454TIP3    H228998   4.071   0.502   8.834 -0.4525  1.2749 -0.0196
 2455TIP3   OH228999   4.941   3.556   0.298 -0.3709  0.3143  0.6832
 2455TIP3    H129000   4.960   3.468   0.265 -2.0410  0.7589 -1.7612
 2455TIP3    H229001   4.989   3.615   0.241 -2.0328  1.0761 -0.0002
 2456TIP3   OH229002   5.049   2.402   7.763  0.3348  0.6771  0.2448
 2456TIP3    H129003   4.958   2.382   7.784  0.2206  1.6489  0.6974
 2456TIP3    H229004   5.085   2.318   7.735 -0.4371  0.0773  0.9863
 2457TIP3   OH229005   6.418   2.802   7.112 -0.5787  0.1563 -0.0960
 2457TIP3    H129006   6.505   2.842   7.112 -0.0489 -0.9698 -0.1552
 2457TIP3    H229007   6.358   2.876   7.127  0.3623  0.9692 -0.2306
 2458TIP3   OH229008   1.385   0.697   1.262  0.0981 -0.3717 -0.2235
 2458TIP3    H129009   1.444   0.672   1.191  0.1862  2.1972 -1.1615
 2458TIP3    H229010   1.435   0.680   1.342  0.8919 -1.1718 -0.8732
 2459TIP3   OH229011   4.255   3.928   8.080 -0.0894  0.4363  0.1416
 2459TIP3    H129012   4.197   3.993   8.039 -0.4382  1.2951  1.9023
 2459TIP3    H229013   4.195   3.864   8.118  0.1801  0.3043  0.3472
 2460TIP3   OH229014   5.174   5.386   8.293  0.3337  0.1134 -0.2448
 2460TIP3    H129015   5.146   5.364   8.204 -0.4554  2.1055 -0.5322
 2460TIP3    H229016   5.141   5.314   8.347  0.9033 -1.1706 -1.5456
 2461TIP3   OH229017   1.200   3.359   0.488 -0.0688 -0.4607 -0.0490
 2461TIP3    H129018   1.224   3.381   0.398  0.5537 -0.0988  0.1969
 2461TIP3    H229019   1.274   3.306   0.519 -0.0139 -0.1066  0.4263
 2462TIP3   OH229020   6.173   4.769   1.151  0.0016 -0.6036 -0.2805
 2462TIP3    H129021   6.204   4.822   1.225  0.1396 -1.0989  0.0180
 2462TIP3    H229022   6.077   4.774   1.157 -0.0352 -2.1907  1.0842
 2463TIP3   OH229023   3.241   0.854   1.230 -0.5936 -0.0949 -0.0059
 2463TIP3    H129024   3.219   0.883   1.142 -1.3485 -2.8180 -0.8337
 2463TIP3    H229025   3.317   0.797   1.218  1.5413  2.2049  1.6568
 2464TIP3   OH229026   6.061   3.226   0.033 -0.2187 -0.0076 -0.2157
 2464TIP3    H129027   6.067   3.131   0.037 -1.0577 -0.0854 -0.6139
 2464TIP3    H229028   6.102   3.257   0.114  1.2638 -0.6453 -0.6940
 2465TIP3   OH229029   3.145   0.536   7.147 -0.3429  0.0954  0.3426
 2465TIP3    H129030   3.232   0.551   7.183 -0.5384  0.6446  0.5850
 2465TIP3    H229031   3.161   0.502   7.059  0.1150  0.0254  0.4530
 2466TIP3   OH229032   4.837   1.504   8.376  0.2844  0.1692  0.2542
 2466TIP3    H129033   4.880   1.489   8.291 -0.2409  1.7950 -0.3451
 2466TIP3    H229034   4.870   1.589   8.404 -2.4993  1.5513 -0.2734
 2467TIP3   OH229035   0.991   6.321   8.438  0.4856  0.0993  0.6918
 2467TIP3    H129036   1.041   6.304   8.358  0.7030  0.4164  0.7614
 2467TIP3    H229037   1.025   6.404   8.471 -0.8940  0.9257  0.1073
 2468TIP3   OH229038   1.224   2.721   0.665 -0.3224  0.0026 -0.1392
 2468TIP3    H129039   1.273   2.720   0.583  0.1167 -0.6948  0.1216
 2468TIP3    H229040   1.291   2.725   0.733 -0.4352 -2.9544  0.3027
 2469TIP3   OH229041   0.066   2.832   7.562 -0.2606 -0.7944  0.4730
 2469TIP3    H129042   0.152   2.808   7.527 -0.7601 -1.5692 -0.2500
 2469TIP3    H229043   0.083   2.911   7.613  0.9227 -1.0607  0.5296
 2470TIP3   OH229044   6.051   6.789   7.530  0.0321  0.3213  0.0010
 2470TIP3    H129045   6.114   6.860   7.525  0.9591 -0.5016 -0.5600
 2470TIP3    H229046   6.059   6.755   7.619 -0.1611  0.7003  0.1613
 2471TIP3   OH229047   3.285   2.919   8.325  0.1674 -0.1154 -0.5570
 2471TIP3    H129048   3.272   2.906   8.231 -0.7980 -0.3442 -0.3982
 2471TIP3    H229049   3.263   2.835   8.364  0.4476  0.0158 -0.1048
 2472TIP3   OH229050   2.545   5.572   7.296  0.1011 -0.1693 -0.1118
 2472TIP3    H129051   2.567   5.501   7.236  2.1891  0.3089  0.0211
 2472TIP3    H229052   2.531   5.648   7.240  1.5017  0.1472 -0.0570
 2473TIP3   OH229053   2.364   1.436   8.139  0.7384 -0.5297 -0.4423
 2473TIP3    H129054   2.379   1.512   8.195 -0.4485  0.0073 -0.8076
 2473TIP3    H229055   2.381   1.361   8.195  0.6272 -0.0053  0.3178
 2474TIP3   OH229056   6.593   1.778   6.716  0.9268 -0.3568 -0.0632
 2474TIP3    H129057   6.611   1.709   6.652 -1.1830 -0.9609 -0.0899
 2474TIP3    H229058   6.678   1.817   6.734  2.4560 -3.7505  0.9081
 2475TIP3   OH229059   4.087   6.356   0.147  0.6382  0.5457  0.0862
 2475TIP3    H129060   4.154   6.406   0.192  1.5011  1.9176 -2.5173
 2475TIP3    H229061   4.006   6.406   0.161  1.1488  1.7123 -0.9042
 2476TIP3   OH229062   4.254   2.189   1.503 -0.2229  0.4556 -0.4594
 2476TIP3    H129063   4.253   2.192   1.407 -0.1871  1.4713 -0.4430
 2476TIP3    H229064   4.315   2.258   1.528 -0.0301  0.0162  0.2970
 2477TIP3   OH229065   6.827   3.664   7.520  0.4254 -0.0030  0.5166
 2477TIP3    H129066   6.870   3.747   7.497  2.2135 -1.1323 -0.4861
 2477TIP3    H229067   6.740   3.671   7.482  0.4546  1.4994  0.6589
 2478TIP3   OH229068   4.459   0.528   7.979 -0.5154  0.0348 -0.0507
 2478TIP3    H129069   4.488   0.499   7.893 -1.9487 -1.0995 -0.1786
 2478TIP3    H229070   4.499   0.615   7.990  1.7270 -0.8432 -0.7747
 2479TIP3   OH229071   4.259   5.095   8.636  0.7532  0.5658  0.1698
 2479TIP3    H129072   4.199   5.133   8.571  1.8889  1.6274 -0.3025
 2479TIP3    H229073   4.346   5.112   8.601  1.3870  0.6402  1.6983
 2480TIP3   OH229074   1.008   1.204   1.143 -0.1737 -0.5716 -0.3713
 2480TIP3    H129075   1.094   1.243   1.130 -0.4918 -0.3239 -2.0987
 2480TIP3    H229076   0.956   1.273   1.184  0.5288 -0.8414  0.9979
 2481TIP3   OH229077   4.244   0.305   6.495 -0.0824 -0.3966  0.7255
 2481TIP3    H129078   4.307   0.233   6.485 -0.6166 -1.2149  2.7644
 2481TIP3    H229079   4.239   0.344   6.408  2.1903 -1.1709  0.1577
 2482TIP3   OH229080   3.317   4.875   7.530  0.4491  0.3925  0.2955
 2482TIP3    H129081   3.394   4.922   7.562  0.5195  0.2618  0.3166
 2482TIP3    H229082   3.320   4.887   7.435  2.5441 -2.6594 -0.1616
 2483TIP3   OH229083   2.867   0.496   1.217  0.5487 -0.2504  0.3548
 2483TIP3    H129084   2.946   0.464   1.174  0.3585 -1.7280  1.0246
 2483TIP3    H229085   2.797   0.481   1.154  0.7246  0.6171 -0.0556
 2484TIP3   OH229086   4.984   6.106   8.814 -0.4566  0.4838  0.1991
 2484TIP3    H129087   5.052   6.120   8.749  0.3688  0.6227  1.0807
 2484TIP3    H229088   4.906   6.082   8.762  0.4162 -0.3284 -0.7759
 2485TIP3   OH229089   4.503   3.702   7.894 -0.3497  0.4398  0.4674
 2485TIP3    H129090   4.495   3.606   7.898  0.2629  0.3373 -0.3161
 2485TIP3    H229091   4.476   3.724   7.805  1.9291  0.6864 -0.2477
 2486TIP3   OH229092   2.740   6.399   8.424  0.1409 -0.0408 -0.7567
 2486TIP3    H129093   2.831   6.427   8.436  0.1619 -0.1105 -0.7488
 2486TIP3    H229094   2.711   6.442   8.344  0.4667 -0.7322 -1.2563
 2487TIP3   OH229095   3.717   0.358   0.593  0.5511 -0.0848 -0.3376
 2487TIP3    H129096   3.704   0.348   0.498 -0.0143 -0.8117 -0.1949
 2487TIP3    H229097   3.676   0.280   0.630  2.3125 -0.7149  0.3953
 2488TIP3   OH229098   1.342   6.285   7.795  0.2037 -0.5299 -0.3969
 2488TIP3    H129099   1.289   6.324   7.725 -2.2409 -2.3167  0.3030
 2488TIP3    H229100   1.296   6.310   7.875  2.4030  0.6660  0.5635
 2489TIP3   OH229101   4.107   0.475   1.001  0.5984 -0.6423  0.2700
 2489TIP3    H129102   4.139   0.453   1.089  2.3965 -0.4232 -0.2952
 2489TIP3    H229103   4.183   0.465   0.944  0.6387  3.2270 -0.6565
 2490TIP3   OH229104   6.580   4.225   1.310  0.2810  0.2476  0.3188
 2490TIP3    H129105   6.609   4.248   1.398  2.4048  0.2607 -0.3315
 2490TIP3    H229106   6.639   4.272   1.252  0.6874 -1.8466 -1.0877
 2491TIP3   OH229107   5.976   6.099   1.867 -0.6779 -0.3364 -0.5651
 2491TIP3    H129108   6.057   6.112   1.818 -0.4524 -0.7783 -0.3213
 2491TIP3    H229109   5.947   6.187   1.891 -0.7146 -0.1295 -1.3623
 2492TIP3   OH229110   0.031   0.832   8.331 -0.4220 -0.4416  0.1070
 2492TIP3    H129111   0.023   0.759   8.392  2.1476 -0.7034  0.2598
 2492TIP3    H229112   0.055   0.792   8.247  0.3730  0.1439  0.0338
 2493TIP3   OH229113   5.498   2.937   1.947  0.3051  0.0343 -0.3199
 2493TIP3    H129114   5.434   2.868   1.931  0.4315 -0.0571 -0.4368
 2493TIP3    H229115   5.548   2.943   1.866  0.3308  0.2260 -0.2906
 2494TIP3   OH229116   2.968   2.788   1.336  0.3964 -0.3298 -0.2168
 2494TIP3    H129117   3.016   2.870   1.351 -0.4662 -0.0569  1.2196
 2494TIP3    H229118   3.033   2.719   1.348  1.2053  0.1047 -1.7206
 2495TIP3   OH229119   4.633   4.869   8.100 -0.0674  0.0599  0.2287
 2495TIP3    H129120   4.679   4.794   8.063 -0.5882 -0.2110  0.1211
 2495TIP3    H229121   4.617   4.845   8.191 -0.1126  0.1029  0.2320
 2496TIP3   OH229122   3.385   4.714   8.762 -0.1166 -0.1626  0.6040
 2496TIP3    H129123   3.424   4.794   8.796 -0.9222  0.0098  1.1415
 2496TIP3    H229124   3.292   4.735   8.752 -0.2598 -0.8963  0.3486
 2497TIP3   OH229125   2.021   0.862   2.188  0.5175  0.4835 -0.4290
 2497TIP3    H129126   2.039   0.800   2.118  1.7770  0.9210 -0.5312
 2497TIP3    H229127   2.009   0.808   2.266  0.5050  0.0621 -0.7228
 2498TIP3   OH229128   4.440   4.836   2.136 -0.3208  0.1590  0.2913
 2498TIP3    H129129   4.458   4.743   2.126 -0.4978  0.0233  1.1006
 2498TIP3    H229130   4.382   4.858   2.063 -2.1241 -0.9015  1.3189
 2499TIP3   OH229131   5.077   4.064   7.744 -0.2738  0.3443 -0.5438
 2499TIP3    H129132   4.998   4.025   7.707  0.5532 -1.2864 -0.7035
 2499TIP3    H229133   5.127   4.094   7.668 -0.4828  0.8716 -0.4765
 2500TIP3   OH229134   4.678   1.279   0.653  0.7808 -0.2980 -0.1105
 2500TIP3    H129135   4.640   1.215   0.714  0.0805 -1.0670 -1.3012
 2500TIP3    H229136   4.751   1.318   0.701 -0.1309 -0.4106  1.4378
 2501TIP3   OH229137   4.802   6.683   0.289  0.0626  0.8357 -0.0486
 2501TIP3    H129138   4.798   6.587   0.282  0.2141  0.8623 -0.6182
 2501TIP3    H229139   4.829   6.700   0.379  0.2103  0.3363  0.0060
 2502TIP3   OH229140   6.089   2.154   2.177 -0.1962 -0.3977 -0.6902
 2502TIP3    H129141   6.034   2.128   2.103 -0.9058  1.7905 -1.0185
 2502TIP3    H229142   6.037   2.133   2.254  0.0646 -1.6407 -0.8381
 2503TIP3   OH229143   4.520   4.275   7.378  0.3397 -0.0423  0.0147
 2503TIP3    H129144   4.564   4.354   7.409 -0.3891 -0.3748  2.0082
 2503TIP3    H229145   4.591   4.210   7.371  0.5639  0.1185  0.7324
 2504TIP3   OH229146   5.587   3.099   6.978 -0.0456  0.4984  0.6123
 2504TIP3    H129147   5.665   3.146   7.005  1.3145 -0.7060 -1.0323
 2504TIP3    H229148   5.587   3.019   7.032  1.6504 -1.0113 -1.4918
 2505TIP3   OH229149   3.332   2.380   8.054 -0.0843 -0.5913  0.7007
 2505TIP3    H129150   3.369   2.340   8.133  1.8402 -0.7993 -0.2515
 2505TIP3    H229151   3.266   2.318   8.024 -0.2117 -0.9287  1.6656
 2506TIP3   OH229152   1.790   3.266   1.515  0.2581  0.1051  0.0690
 2506TIP3    H129153   1.765   3.344   1.464 -1.6537 -0.7212 -0.3576
 2506TIP3    H229154   1.749   3.279   1.600  0.4760 -0.1529  0.2155
 2507TIP3   OH229155   4.260   3.052   6.635 -0.0432  0.0388 -0.8892
 2507TIP3    H129156   4.167   3.047   6.616 -0.4244 -0.1904  0.8342
 2507TIP3    H229157   4.265   3.098   6.719  1.3974  0.0291 -0.9388
 2508TIP3   OH229158   0.877   0.568   7.678 -0.4487 -0.0250  0.4640
 2508TIP3    H129159   0.799   0.617   7.704  1.1266  2.0114  1.6758
 2508TIP3    H229160   0.909   0.530   7.760  1.2046  1.3554  0.5358
 2509TIP3   OH229161   1.325   0.647   7.549  0.0383 -0.6022 -0.7532
 2509TIP3    H129162   1.267   0.684   7.616  0.8873 -2.7262  1.2825
 2509TIP3    H229163   1.394   0.713   7.538 -0.7938  0.3372 -0.5098
 2510TIP3   OH229164   1.444   4.333   1.265  0.1034  0.5476 -0.2219
 2510TIP3    H129165   1.424   4.245   1.298  0.5529  0.6064  0.2116
 2510TIP3    H229166   1.535   4.348   1.290 -0.1915  1.4246  0.3433
 2511TIP3   OH229167   4.536   5.050   7.917  0.1840  0.5042  0.3610
 2511TIP3    H129168   4.572   4.977   7.969  0.5476  1.7232  1.8912
 2511TIP3    H229169   4.613   5.087   7.874  0.4251  1.5610  1.6482
 2512TIP3   OH229170   3.607   3.608   0.681  0.3127 -0.0551  0.2113
 2512TIP3    H129171   3.562   3.586   0.599  1.2455 -0.0095 -0.3290
 2512TIP3    H229172   3.539   3.645   0.736 -0.7017 -1.6189  0.0758
 2513TIP3   OH229173   3.004   5.850   8.732  1.3155 -1.1781  0.3346
 2513TIP3    H129174   3.021   5.915   8.664  0.2665  1.1934  2.1955
 2513TIP3    H229175   2.954   5.782   8.688 -0.0660  0.6715 -1.1444
 2514TIP3   OH229176   1.567   2.027   0.034 -0.3142 -0.0950 -0.2396
 2514TIP3    H129177   1.513   1.961  -0.010 -1.7887  0.9190 -0.0263
 2514TIP3    H229178   1.586   1.989   0.120 -0.8046 -0.4131 -0.2686
 2515TIP3   OH229179   4.688   6.321   7.301 -0.0920  0.3879 -0.2583
 2515TIP3    H129180   4.661   6.321   7.393  1.3496  1.9069  0.1911
 2515TIP3    H229181   4.605   6.320   7.253 -0.8928  0.8724  1.0526
 2516TIP3   OH229182   4.159   3.261   7.460 -0.0554 -0.3577  0.0808
 2516TIP3    H129183   4.088   3.308   7.504 -0.4881 -1.0662  0.1545
 2516TIP3    H229184   4.132   3.169   7.461  0.9478 -0.6687  0.2709
 2517TIP3   OH229185   1.925   4.596   8.122  0.3261  0.1259  0.0688
 2517TIP3    H129186   1.873   4.622   8.198 -0.1200 -1.3281  0.2946
 2517TIP3    H229187   1.865   4.542   8.070  1.3731 -1.0045 -0.0244
 2518TIP3   OH229188   3.417   3.465   2.102  0.0485 -0.3066 -0.5239
 2518TIP3    H129189   3.496   3.436   2.149 -0.0545 -0.2836 -0.3371
 2518TIP3    H229190   3.429   3.431   2.013 -0.9207 -2.5369  0.1304
 2519TIP3   OH229191   0.989   2.965   7.027  0.1906  0.3844  0.7230
 2519TIP3    H129192   0.962   2.946   7.117 -2.1967 -0.2258 -0.0459
 2519TIP3    H229193   0.976   3.059   7.017 -0.4123  0.3102  0.7707
 2520TIP3   OH229194   4.808   6.767   7.914 -0.1448 -0.5029 -0.1130
 2520TIP3    H129195   4.731   6.806   7.872 -1.0202 -0.4218  1.5153
 2520TIP3    H229196   4.803   6.795   8.005  1.5996 -0.8532  0.1174
 2521TIP3   OH229197   6.642   2.153   6.772  0.3357 -0.1212 -0.6884
 2521TIP3    H129198   6.668   2.214   6.842 -2.5057  0.2645  0.1439
 2521TIP3    H229199   6.610   2.076   6.818 -1.9075  0.2660 -1.4685
 2522TIP3   OH229200   4.889   4.155   8.241 -0.0301 -0.3888  0.2988
 2522TIP3    H129201   4.873   4.163   8.335  1.0404 -1.0960  0.5605
 2522TIP3    H229202   4.806   4.179   8.201 -0.6914 -0.6628  1.4443
 2523TIP3   OH229203   4.433   0.666   7.668 -0.0215  0.5930  0.1026
 2523TIP3    H129204   4.440   0.573   7.646  0.6170  0.1806  1.8805
 2523TIP3    H229205   4.409   0.667   7.761  0.7722  2.1870  0.3293
 2524TIP3   OH229206   1.330   1.193   7.659 -0.2314 -0.3297 -0.4469
 2524TIP3    H129207   1.304   1.202   7.750  1.2163  0.1559 -0.0561
 2524TIP3    H229208   1.367   1.278   7.635  0.8329 -0.9286 -0.9951
 2525TIP3   OH229209   0.641   1.542   2.753  0.1352  0.6579 -0.1363
 2525TIP3    H129210   0.703   1.591   2.698 -0.4619  1.7115  0.1113
 2525TIP3    H229211   0.562   1.535   2.699  0.7150 -1.4225 -0.7858
 2526TIP3   OH229212   4.743   4.126   8.511  0.5443  0.5685  0.6727
 2526TIP3    H129213   4.817   4.165   8.558  0.9152  0.3034  0.3213
 2526TIP3    H229214   4.670   4.186   8.526  0.6834  0.5332  1.5051
 2527TIP3   OH229215   1.004   4.202   8.519  0.5773 -0.4498  0.2023
 2527TIP3    H129216   1.068   4.137   8.491  1.6600  0.5846  0.2269
 2527TIP3    H229217   0.993   4.260   8.443 -0.4133 -0.6822  0.1596
 2528TIP3   OH229218   4.768   2.896   6.443  0.0005 -0.3561  0.2083
 2528TIP3    H129219   4.813   2.911   6.526 -0.5815 -0.6926  0.5934
 2528TIP3    H229220   4.689   2.948   6.449  0.4721  0.4681 -0.5912
 2529TIP3   OH229221   1.654   3.750   7.836  0.0508  0.0591 -0.2280
 2529TIP3    H129222   1.735   3.769   7.789 -1.3328  1.1648 -2.3584
 2529TIP3    H229223   1.679   3.744   7.928  2.2247  2.4773 -0.5613
 2530TIP3   OH229224   4.110   2.362   0.615 -0.2341  0.0721 -0.2287
 2530TIP3    H129225   4.112   2.409   0.531  2.3128  0.5328  0.0152
 2530TIP3    H229226   4.099   2.431   0.680  0.3353 -0.0120 -0.0436
 2531TIP3   OH229227   3.300   6.244   6.835  0.1146 -0.0219 -0.5859
 2531TIP3    H129228   3.327   6.304   6.767  0.9665 -0.2713 -0.4756
 2531TIP3    H229229   3.367   6.175   6.835 -1.4464 -1.6451 -1.5435
 2532TIP3   OH229230   5.314   1.597   1.716  0.1374  0.3126  0.3018
 2532TIP3    H129231   5.245   1.555   1.767 -0.4057  0.4708 -0.2991
 2532TIP3    H229232   5.306   1.690   1.735  0.1389  0.3378  0.1837
 2533TIP3   OH229233   0.195   0.497   7.898 -0.4550 -0.2714  0.2592
 2533TIP3    H129234   0.186   0.404   7.918 -1.8776 -0.7781 -2.2906
 2533TIP3    H229235   0.185   0.502   7.803  0.2155  2.4363  0.2543
 2534TIP3   OH229236   2.893   4.199   8.071  0.2488  0.0894 -0.1655
 2534TIP3    H129237   2.884   4.268   8.136 -2.7397  0.0707 -0.4183
 2534TIP3    H229238   2.831   4.132   8.099  0.3075 -0.7874 -1.9884
 2535TIP3   OH229239   1.753   5.592   1.027 -0.2622  0.1560 -0.1963
 2535TIP3    H129240   1.707   5.605   0.944 -0.7343 -0.5180 -0.0491
 2535TIP3    H229241   1.701   5.527   1.074  1.1878 -1.1580 -0.3047
 2536TIP3   OH229242   2.302   0.088   7.656  0.0924 -0.1309 -0.2113
 2536TIP3    H129243   2.344   0.148   7.718 -1.4703 -1.3833  2.1880
 2536TIP3    H229244   2.211   0.084   7.683 -0.6024 -1.0205 -2.4227
 2537TIP3   OH229245   2.500   4.310   8.748  0.2914 -0.0371  0.1299
 2537TIP3    H129246   2.415   4.301   8.793  0.8665 -1.8777  0.9578
 2537TIP3    H229247   2.508   4.230   8.697  1.4203  0.2573 -0.1715
 2538TIP3   OH229248   1.586   2.597   6.643  0.4224  0.2792  0.0617
 2538TIP3    H129249   1.560   2.568   6.730 -0.8887  1.3345  0.0544
 2538TIP3    H229250   1.571   2.692   6.644  3.6752  0.9228 -0.1854
 2539TIP3   OH229251   4.572   2.249   6.595  0.4567 -0.1098  0.2052
 2539TIP3    H129252   4.640   2.227   6.532  0.2491  0.5192 -0.2469
 2539TIP3    H229253   4.525   2.322   6.555 -0.9975 -1.0519  0.1358
 2540TIP3   OH229254   4.861   2.777   8.067 -0.0738 -0.4727  0.1955
 2540TIP3    H129255   4.945   2.818   8.047 -1.7773  2.9122 -0.8757
 2540TIP3    H229256   4.841   2.806   8.156 -1.9792  2.7395 -1.0861
 2541TIP3   OH229257   5.162   3.146   0.407 -0.2886  0.1652 -0.5676
 2541TIP3    H129258   5.248   3.187   0.396  0.7615 -1.7512  0.1292
 2541TIP3    H229259   5.179   3.068   0.459 -2.4382 -0.3979 -0.6268
 2542TIP3   OH229260   4.827   0.217   7.029  0.6377  0.5794  0.0395
 2542TIP3    H129261   4.861   0.188   7.114 -1.3300  0.2270  0.7646
 2542TIP3    H229262   4.865   0.156   6.966  2.1043  0.8240  0.6511
 2543TIP3   OH229263   5.140   2.441   0.621 -0.3144 -0.8375 -0.4791
 2543TIP3    H129264   5.127   2.399   0.537  1.4053 -2.5486  0.0612
 2543TIP3    H229265   5.174   2.372   0.678 -1.7469  0.1705  1.7413
 2544TIP3   OH229266   1.325   6.343   8.462 -0.2565 -0.1987 -0.2335
 2544TIP3    H129267   1.336   6.403   8.388  2.3828  0.3783  0.5023
 2544TIP3    H229268   1.261   6.386   8.519 -0.1614  0.7668 -0.8331
 2545TIP3   OH229269   2.395   3.682   1.089 -0.3378  0.9723  0.1414
 2545TIP3    H129270   2.461   3.618   1.118 -0.8570 -0.4161 -1.6040
 2545TIP3    H229271   2.339   3.633   1.030 -1.2076  2.8926 -0.6823
 2546TIP3   OH229272   4.365   4.926   1.075  0.0954  0.1093  0.2596
 2546TIP3    H129273   4.327   4.882   0.999 -1.6437 -0.0658  1.1779
 2546TIP3    H229274   4.453   4.891   1.082  0.1281 -0.1784 -1.4210
 2547TIP3   OH229275   0.367   4.574   0.184 -0.6722 -0.5350 -0.2367
 2547TIP3    H129276   0.273   4.586   0.195 -0.5028 -0.1662  0.9964
 2547TIP3    H229277   0.400   4.662   0.163 -0.6919 -0.8161 -1.5242
 2548TIP3   OH229278   5.384   2.436   2.032 -0.1922  0.0667 -0.3593
 2548TIP3    H129279   5.419   2.509   2.083 -0.6449  1.4622 -1.9620
 2548TIP3    H229280   5.452   2.416   1.968 -1.1763  1.0082 -1.7571
 2549TIP3   OH229281   3.101   2.770   2.526  0.6558  0.1639  0.1787
 2549TIP3    H129282   3.180   2.803   2.569  1.0610  3.2101 -2.5789
 2549TIP3    H229283   3.031   2.826   2.559  0.3962  0.2799 -0.5517
 2550TIP3   OH229284   4.548   5.202   1.154  0.0088 -0.0268  0.4455
 2550TIP3    H129285   4.619   5.253   1.193  0.3244 -1.8853  2.5186
 2550TIP3    H229286   4.586   5.164   1.075  0.3159  1.4089 -0.1398
 2551TIP3   OH229287   1.465   5.914   1.373 -0.3038  0.3731  0.1198
 2551TIP3    H129288   1.495   5.849   1.309 -2.1712  0.5471 -0.9990
 2551TIP3    H229289   1.519   5.992   1.354 -0.6352  0.3323 -1.0915
 2552TIP3   OH229290   0.141   6.272   1.095 -0.6289 -0.1004 -0.6121
 2552TIP3    H129291   0.222   6.228   1.118  0.5187  0.5091 -3.1565
 2552TIP3    H229292   0.150   6.360   1.131 -0.3251 -0.1492 -0.5714
 2553TIP3   OH229293   1.644   0.054   7.698  0.0189  0.3954 -0.0458
 2553TIP3    H129294   1.657   0.050   7.603  0.4393 -2.8111  0.0219
 2553TIP3    H229295   1.564   0.004   7.713  0.0860  0.6633  1.3042
 2554TIP3   OH229296   0.223   5.070   0.174 -0.3536 -0.5984 -0.0266
 2554TIP3    H129297   0.304   5.027   0.201 -1.1030 -1.3420  1.1534
 2554TIP3    H229298   0.173   5.002   0.129 -0.3037 -0.1256 -0.8107
 2555TIP3   OH229299   3.436   2.424   0.509  0.7006 -0.3019  0.5863
 2555TIP3    H129300   3.352   2.379   0.511 -1.5744  3.2589 -1.9165
 2555TIP3    H229301   3.440   2.472   0.591 -0.3131  0.3803  0.2525
 2556TIP3   OH229302   0.430   5.762   1.938  0.0175 -0.3985  0.4319
 2556TIP3    H129303   0.425   5.837   1.878 -0.5001  0.9686  2.1001
 2556TIP3    H229304   0.469   5.798   2.018 -2.7680 -1.2052  2.2784
 2557TIP3   OH229305   5.263   1.797   7.844 -0.0316  0.2272 -0.2831
 2557TIP3    H129306   5.288   1.854   7.771 -0.1536  0.7302  0.0631
 2557TIP3    H229307   5.322   1.821   7.915 -0.6728  0.5561  0.1520
 2558TIP3   OH229308   4.743   5.083   0.957  0.4509 -0.1739  0.1175
 2558TIP3    H129309   4.820   5.040   0.995  1.7258  1.4050 -0.5341
 2558TIP3    H229310   4.761   5.177   0.967 -0.4953  0.2546 -1.7375
 2559TIP3   OH229311   0.942   6.091   0.162 -0.0428  0.4954  0.5243
 2559TIP3    H129312   0.884   6.095   0.086  2.7855  2.9485 -1.7313
 2559TIP3    H229313   0.929   6.174   0.207  0.6418  0.4177  0.8734
 2560TIP3   OH229314   4.275   0.466   1.983 -0.5254 -0.4033  0.3562
 2560TIP3    H129315   4.277   0.544   2.039 -1.9089 -0.8454  1.0620
 2560TIP3    H229316   4.190   0.426   2.001 -0.7149 -0.9370 -1.5818
 2561TIP3   OH229317   3.475   4.642   7.602  0.3950 -0.2378 -0.1629
 2561TIP3    H129318   3.417   4.678   7.535  0.8664  0.5905 -0.1420
 2561TIP3    H229319   3.420   4.638   7.681  0.0292 -0.5912 -0.4346
 2562TIP3   OH229320   5.334   4.854   0.669 -0.1546  0.3562 -0.7169
 2562TIP3    H129321   5.285   4.878   0.748  1.0102  0.2967  0.0476
 2562TIP3    H229322   5.276   4.877   0.596 -1.2388  0.4299  0.1560
 2563TIP3   OH229323   6.582   4.569   7.586  0.2125  0.0093  0.5995
 2563TIP3    H129324   6.505   4.522   7.617  0.2636  0.2675  1.1222
 2563TIP3    H229325   6.548   4.643   7.537  0.1230  0.3717  1.2024
 2564TIP3   OH229326   3.712   5.830   2.052 -0.0896  0.2576 -0.2168
 2564TIP3    H129327   3.722   5.907   2.109  1.1674 -0.6945  0.8917
 2564TIP3    H229328   3.778   5.768   2.083 -1.0614 -1.2769 -1.0963
 2565TIP3   OH229329   4.744   0.868   1.600  0.0479 -0.5581  0.3029
 2565TIP3    H129330   4.761   0.867   1.694 -1.6393 -1.2807  0.6315
 2565TIP3    H229331   4.709   0.781   1.580 -4.9428  1.2029  0.1291
 2566TIP3   OH229332   1.768   4.603   8.358  0.6305 -0.1480 -0.3124
 2566TIP3    H129333   1.771   4.516   8.399  1.0814 -0.1271 -0.2997
 2566TIP3    H229334   1.799   4.662   8.426  0.6855 -0.0224 -0.4471
 2567TIP3   OH229335   3.950   5.437   8.028 -0.4714 -0.0451 -0.3581
 2567TIP3    H129336   3.955   5.350   8.066  0.5477  0.8600  1.7224
 2567TIP3    H229337   3.861   5.467   8.048 -0.0827  0.2541  1.0156
 2568TIP3   OH229338   0.045   2.812   0.532  0.0277 -0.4953 -0.6553
 2568TIP3    H129339   0.015   2.725   0.505  0.8520 -1.6843  2.0007
 2568TIP3    H229340  -0.034   2.858   0.560 -0.3074 -0.6106 -1.3775
 2569TIP3   OH229341   1.163   6.306   8.813 -0.5161  0.1503 -0.4684
 2569TIP3    H129342   1.133   6.234   8.757  1.4176  0.0937 -1.5121
 2569TIP3    H229343   1.164   6.382   8.755 -1.0558  0.6966  0.2260
 2570TIP3   OH229344   5.257   4.506   6.723  0.4535  0.1605 -0.2693
 2570TIP3    H129345   5.180   4.542   6.767  1.3032  0.5761  0.9356
 2570TIP3    H229346   5.324   4.575   6.731  1.7233 -1.1387  0.9521
 2571TIP3   OH229347   2.975   6.027   7.819  0.0701  0.3929 -0.1415
 2571TIP3    H129348   2.929   6.043   7.901 -0.0028 -2.1479  0.3872
 2571TIP3    H229349   2.921   5.963   7.772  1.3279 -0.0472 -1.0617
 2572TIP3   OH229350   2.873   4.519   7.765 -0.4075 -0.0458  0.3377
 2572TIP3    H129351   2.871   4.615   7.759 -0.7139 -0.0333  0.6680
 2572TIP3    H229352   2.896   4.491   7.676 -0.3588  0.3310  0.2276
 2573TIP3   OH229353   1.554   0.397   7.355  0.0488 -0.1081 -0.0954
 2573TIP3    H129354   1.503   0.321   7.383 -0.6836  0.4667  0.1411
 2573TIP3    H229355   1.552   0.393   7.259  0.0066 -0.3773 -0.0850
 2574TIP3   OH229356   4.651   0.612   1.459 -0.3149 -0.2002 -0.1608
 2574TIP3    H129357   4.698   0.540   1.501 -0.1812 -0.7923 -1.3044
 2574TIP3    H229358   4.574   0.625   1.514 -0.6348 -1.6020 -0.2458
 2575TIP3   OH229359   4.988   4.398   1.897 -0.0163 -0.3371  0.2799
 2575TIP3    H129360   4.910   4.350   1.870 -1.2552  1.0696  1.1582
 2575TIP3    H229361   4.978   4.411   1.992  1.1321  0.1346  0.3669
 2576TIP3   OH229362   3.517   2.672   0.784  0.5200 -0.7054 -0.2533
 2576TIP3    H129363   3.538   2.760   0.814 -0.1054 -0.5007 -0.3999
 2576TIP3    H229364   3.582   2.654   0.716  1.8049 -1.0926  1.0435
 2577TIP3   OH229365   0.137   3.345   6.695  0.1690  0.3075  0.0543
 2577TIP3    H129366   0.232   3.355   6.702  0.2517  1.1486 -1.7063
 2577TIP3    H229367   0.124   3.256   6.664  0.4041  0.2299  0.1833
 2578TIP3   OH229368   5.205   1.152   1.797 -0.0465  0.6413  0.3309
 2578TIP3    H129369   5.166   1.111   1.720 -0.2969  0.6741  0.4377
 2578TIP3    H229370   5.168   1.240   1.798  0.2383  0.7613  0.2843
 2579TIP3   OH229371   3.273   2.159   2.200 -0.2529 -0.7342  0.4913
 2579TIP3    H129372   3.253   2.250   2.177  1.2779 -0.5344 -0.1945
 2579TIP3    H229373   3.206   2.134   2.263 -1.7324  0.3007 -0.6212
 2580TIP3   OH229374   4.692   5.504   1.657 -0.0331  0.4126 -0.4968
 2580TIP3    H129375   4.722   5.517   1.747  0.9745  1.3805 -0.9358
 2580TIP3    H229376   4.769   5.469   1.611 -0.9730 -1.5328 -0.6822
 2581TIP3   OH229377   2.941   2.976   0.971 -0.4438  0.0692  0.0008
 2581TIP3    H129378   2.861   3.016   1.007 -0.3871 -1.3474  1.8472
 2581TIP3    H229379   3.010   3.040   0.988 -1.1734  1.4166 -1.8350
 2582TIP3   OH229380   2.213   5.229   1.236  0.4566 -0.5658 -0.1823
 2582TIP3    H129381   2.298   5.191   1.260 -0.7728 -2.7398  1.0906
 2582TIP3    H229382   2.224   5.323   1.249  2.1565 -0.9559  1.6909
 2583TIP3   OH229383   3.014   2.527   2.108 -0.0785 -0.2029  0.4357
 2583TIP3    H129384   2.981   2.451   2.060 -0.3706  1.2603 -1.8260
 2583TIP3    H229385   3.103   2.502   2.133 -0.7014 -1.8515  1.1790
 2584TIP3   OH229386   1.458   4.557   8.585 -0.0754 -0.4616  0.3980
 2584TIP3    H129387   1.384   4.606   8.548 -0.7259 -1.3858  0.4541
 2584TIP3    H229388   1.427   4.467   8.590  1.9981 -1.4556 -2.2618
 2585TIP3   OH229389   5.382   0.854   1.337  0.0504 -0.3726 -0.7183
 2585TIP3    H129390   5.290   0.849   1.314 -0.1721 -3.4182  0.4415
 2585TIP3    H229391   5.428   0.819   1.261  0.2333  0.3745 -0.9670
 2586TIP3   OH229392   4.807   2.661   0.389 -0.1128  0.4792  0.2963
 2586TIP3    H129393   4.886   2.608   0.402 -0.0752  0.6972  0.9758
 2586TIP3    H229394   4.768   2.625   0.309 -0.0260 -0.5023  0.6780
 2587TIP3   OH229395   6.749   6.150   6.894  0.2432 -0.1981 -0.4152
 2587TIP3    H129396   6.707   6.079   6.846  0.8699 -0.6773 -0.2723
 2587TIP3    H229397   6.801   6.196   6.828 -1.4353  1.1707 -0.8619
 2588TIP3   OH229398   3.885   3.488   7.316  0.2693  0.4215 -0.2118
 2588TIP3    H129399   3.847   3.538   7.243 -0.5172  1.0598  0.6042
 2588TIP3    H229400   3.935   3.553   7.365  1.4320 -0.1675 -0.5867
 2589TIP3   OH229401   4.143   5.700   2.108 -0.1554 -0.3244 -0.1687
 2589TIP3    H129402   4.110   5.785   2.077  0.0362 -0.8440 -1.9317
 2589TIP3    H229403   4.238   5.712   2.113 -0.0792 -0.5782 -0.9326
 2590TIP3   OH229404   6.094   1.505   7.665  0.2274 -0.4696  0.4220
 2590TIP3    H129405   6.187   1.529   7.663  0.5852 -1.8105 -1.1076
 2590TIP3    H229406   6.090   1.426   7.717 -0.5867  1.3008  3.2594
 2591TIP3   OH229407   1.770   2.790   0.370  0.3392  0.2405 -0.2126
 2591TIP3    H129408   1.705   2.793   0.300  1.1115  1.2710 -0.9197
 2591TIP3    H229409   1.744   2.715   0.424 -0.9755  0.1712 -0.9027
 2592TIP3   OH229410   6.571   4.816   0.933  0.2736  0.2023 -0.3244
 2592TIP3    H129411   6.607   4.747   0.990  2.2995 -0.1406 -1.9003
 2592TIP3    H229412   6.513   4.770   0.873 -2.0399  0.5927  1.4596
 2593TIP3   OH229413   6.309   0.914   8.440  0.9272 -0.1654 -0.1946
 2593TIP3    H129414   6.369   0.843   8.420  1.0135  0.6269 -3.3339
 2593TIP3    H229415   6.225   0.871   8.456  1.5369 -1.0769  0.6169
 2594TIP3   OH229416   2.425   2.784   6.455  0.1146 -0.3488 -0.4906
 2594TIP3    H129417   2.366   2.737   6.395  0.0998 -1.9054  0.6861
 2594TIP3    H229418   2.512   2.771   6.418 -0.0767  0.4211 -1.2483
 2595TIP3   OH229419   5.936   4.216   6.649 -0.2694 -1.0345 -0.6396
 2595TIP3    H129420   6.007   4.254   6.597  0.6454  0.5198  1.6266
 2595TIP3    H229421   5.903   4.288   6.701 -0.9245 -2.5778  1.1792
 2596TIP3   OH229422   6.564   0.377   7.738 -0.5137  0.2317 -0.3942
 2596TIP3    H129423   6.643   0.363   7.790 -0.2800  1.9366 -0.2492
 2596TIP3    H229424   6.575   0.464   7.700 -1.6294 -0.1265 -1.6289
 2597TIP3   OH229425   1.676   1.519   1.777 -0.0340 -0.4164 -0.0232
 2597TIP3    H129426   1.728   1.451   1.734 -2.9413 -2.3599 -0.7759
 2597TIP3    H229427   1.691   1.504   1.870  0.3886 -1.2244 -0.2087
 2598TIP3   OH229428   3.455   1.692   0.824  0.5176  0.6103  0.1423
 2598TIP3    H129429   3.543   1.664   0.800  0.2843  0.9462 -1.1342
 2598TIP3    H229430   3.400   1.616   0.805  0.3025  0.9455 -0.5954
 2599TIP3   OH229431   3.454   5.483   7.645 -0.0223  0.5313 -0.5068
 2599TIP3    H129432   3.520   5.448   7.705 -0.4672  1.0160  0.2802
 2599TIP3    H229433   3.384   5.417   7.646 -0.0230  0.5318 -0.5140
 2600TIP3   OH229434   3.688   5.888   7.123  0.2307 -0.4416  0.0525
 2600TIP3    H129435   3.775   5.853   7.143  0.9030  0.0651 -1.7248
 2600TIP3    H229436   3.696   5.918   7.032 -2.4993 -2.6909 -1.0649
 2601TIP3   OH229437   6.772   3.271   1.190  0.4158  0.1781  0.6120
 2601TIP3    H129438   6.796   3.203   1.127 -1.7158 -0.2913  0.2054
 2601TIP3    H229439   6.800   3.236   1.275 -0.1883 -1.0176  0.3437
 2602TIP3   OH229440   0.519   5.055   7.575  0.3624 -0.4451 -0.3231
 2602TIP3    H129441   0.534   4.990   7.507  1.0286 -0.7035  0.0614
 2602TIP3    H229442   0.426   5.076   7.568  0.5542  0.0642 -1.7746
 2603TIP3   OH229443   4.936   0.402   0.997  0.1862 -0.1033  0.4224
 2603TIP3    H129444   4.912   0.366   1.082 -0.6472  1.8148  1.0508
 2603TIP3    H229445   4.910   0.493   1.001  1.0831  0.2998 -1.5367
 2604TIP3   OH229446   1.424   1.757   1.415 -0.1779 -0.0048  0.0092
 2604TIP3    H129447   1.391   1.692   1.353  1.8901  0.9312 -2.2457
 2604TIP3    H229448   1.435   1.710   1.497 -1.8388 -1.6223 -0.6407
 2605TIP3   OH229449   4.488   2.756   1.785  0.2545 -0.2760  0.4566
 2605TIP3    H129450   4.477   2.764   1.880  0.2860 -0.2143  0.4550
 2605TIP3    H229451   4.419   2.695   1.758  0.3774 -0.4595  0.5495
 2606TIP3   OH229452   3.448   2.020   8.700 -0.0901  0.3408 -0.2292
 2606TIP3    H129453   3.537   2.016   8.666  0.7574  0.9890  1.7873
 2606TIP3    H229454   3.408   2.094   8.654  0.5138  0.2566 -0.9087
 2607TIP3   OH229455   0.030   1.571   0.196 -0.0437 -0.2178  0.0762
 2607TIP3    H129456   0.079   1.491   0.212 -0.8083 -0.3308  2.1978
 2607TIP3    H229457  -0.044   1.544   0.143  0.8187 -0.5034 -1.0094
 2608TIP3   OH229458   0.885   2.789   1.351  0.3236  0.2015 -0.1384
 2608TIP3    H129459   0.814   2.827   1.402  0.3700 -0.9277  0.8197
 2608TIP3    H229460   0.902   2.852   1.281  0.6614  2.0891  1.5807
 2609TIP3   OH229461   0.435   4.843   8.620  0.1139  0.0083 -0.0752
 2609TIP3    H129462   0.408   4.931   8.646  0.6792  0.4804 -1.0685
 2609TIP3    H229463   0.414   4.789   8.697 -1.0588  0.8359  0.2153
 2610TIP3   OH229464   2.651   4.145   6.646  0.3718 -0.7129  0.0457
 2610TIP3    H129465   2.679   4.055   6.632  1.4089 -0.3403 -0.4713
 2610TIP3    H229466   2.699   4.195   6.579 -2.0951 -0.0836 -1.3601
 2611TIP3   OH229467   3.206   6.335   1.218  0.7387 -0.1561 -0.4156
 2611TIP3    H129468   3.232   6.397   1.286 -0.6526 -0.6303  0.6032
 2611TIP3    H229469   3.288   6.294   1.190  1.2715 -0.6653  1.6980
 2612TIP3   OH229470   6.764   1.606   6.569  0.3577 -0.1382 -0.6356
 2612TIP3    H129471   6.813   1.540   6.619 -0.1428  1.1669  1.6805
 2612TIP3    H229472   6.826   1.677   6.556  0.7736 -0.8128 -2.8028
 2613TIP3   OH229473   1.159   4.525   0.519 -0.4674  0.1111 -0.2384
 2613TIP3    H129474   1.146   4.530   0.424 -1.2897 -0.2076 -0.1441
 2613TIP3    H229475   1.237   4.578   0.535 -0.9941  1.1260 -0.9550
 2614TIP3   OH229476   1.562   1.609   0.285  0.1291 -0.5825 -0.2357
 2614TIP3    H129477   1.470   1.634   0.279  0.0273 -0.3416  1.6530
 2614TIP3    H229478   1.561   1.514   0.293  0.1930 -0.7696 -1.9830
 2615TIP3   OH229479   2.586   4.426   0.171  0.2664 -0.1972  0.0754
 2615TIP3    H129480   2.529   4.421   0.095 -0.9110  0.3931  0.8894
 2615TIP3    H229481   2.632   4.509   0.161  1.6209 -1.0278 -0.9819
 2616TIP3   OH229482   5.817   5.329   8.186 -0.1073 -0.0859  0.0504
 2616TIP3    H129483   5.848   5.289   8.105 -2.4804 -0.6231 -0.6858
 2616TIP3    H229484   5.733   5.287   8.203  0.6597 -0.5975  3.3015
 2617TIP3   OH229485   2.538   2.719   0.639  0.7801  0.0603  0.2291
 2617TIP3    H129486   2.619   2.765   0.662  1.0738 -0.0987 -0.4654
 2617TIP3    H229487   2.469   2.767   0.685  1.0091  1.5519 -0.9440
 2618TIP3   OH229488   3.221   1.208   6.506  0.1233 -0.3635  0.3100
 2618TIP3    H129489   3.225   1.301   6.525 -0.3807  0.0845 -1.5530
 2618TIP3    H229490   3.143   1.177   6.551 -1.2410  0.7155 -1.2268
 2619TIP3   OH229491   6.548   6.292   7.051  0.4017 -0.0600 -0.3350
 2619TIP3    H129492   6.553   6.386   7.072  2.6657 -0.4518  1.1707
 2619TIP3    H229493   6.609   6.280   6.979  0.6832 -0.4807 -0.0329
 2620TIP3   OH229494   1.402   6.190   8.190 -0.4075  0.1662 -0.0799
 2620TIP3    H129495   1.328   6.154   8.142  0.5326 -1.3521 -0.4383
 2620TIP3    H229496   1.384   6.284   8.194 -1.1426  0.1763 -2.2857
 2621TIP3   OH229497   0.144   6.169   0.754  0.1364 -0.0902 -0.1540
 2621TIP3    H129498   0.134   6.260   0.781  1.4741  0.4752 -1.4000
 2621TIP3    H229499   0.227   6.141   0.793 -1.0483 -1.3582  1.6095
 2622TIP3   OH229500   5.581   3.512   8.375  0.0219 -0.5043  0.5522
 2622TIP3    H129501   5.580   3.417   8.380  2.0572 -0.5026  3.6176
 2622TIP3    H229502   5.564   3.540   8.465 -0.7713  2.0663 -0.3165
 2623TIP3   OH229503   5.497   4.956   0.067 -0.4327  0.1863  0.0844
 2623TIP3    H129504   5.592   4.965   0.062  0.1343 -2.8350  2.3249
 2623TIP3    H229505   5.476   4.890   0.001 -0.8143  0.0715  0.3195
 2624TIP3   OH229506   5.411   2.180   3.023 -0.2238  0.0835 -0.1557
 2624TIP3    H129507   5.366   2.264   3.029 -0.8055 -0.2268 -0.0570
 2624TIP3    H229508   5.344   2.120   2.991  0.1581 -0.3662 -0.1184
 2625TIP3   OH229509   5.142   4.647   1.580 -0.5519 -0.4841  0.0878
 2625TIP3    H129510   5.232   4.628   1.606 -0.3446 -1.2328 -1.1084
 2625TIP3    H229511   5.150   4.726   1.526 -0.8614  0.5094  1.4436
 2626TIP3   OH229512   4.700   0.730   6.523  0.4400  0.2108 -0.5179
 2626TIP3    H129513   4.737   0.730   6.612 -1.1981  0.0386  0.1936
 2626TIP3    H229514   4.776   0.716   6.466  1.3914 -0.7877  0.9074
 2627TIP3   OH229515   6.442   2.940   0.260  0.3498 -0.1070  0.5388
 2627TIP3    H129516   6.430   2.847   0.275  0.9469 -0.1334  0.8840
 2627TIP3    H229517   6.391   2.959   0.181 -0.0624 -0.6481  0.6727
 2628TIP3   OH229518   6.731   2.258   0.720 -0.2262 -0.2959  0.0210
 2628TIP3    H129519   6.742   2.192   0.788  0.3259  0.3322  0.5531
 2628TIP3    H229520   6.783   2.227   0.647 -0.4197 -0.7266  0.0658
 2629TIP3   OH229521   4.172   2.803   1.033  0.4564  0.2869 -0.3413
 2629TIP3    H129522   4.148   2.729   1.089 -1.8715  1.7028  0.6992
 2629TIP3    H229523   4.249   2.841   1.074 -0.5168  0.5860  1.2757
 2630TIP3   OH229524   4.338   3.150   6.900  0.0076 -0.2757 -0.6880
 2630TIP3    H129525   4.384   3.079   6.854 -1.7358 -2.4837  0.7552
 2630TIP3    H229526   4.354   3.132   6.993 -0.6011  1.1974 -0.2723
 2631TIP3   OH229527   2.334   4.762   7.564  0.0007 -0.5278 -0.3138
 2631TIP3    H129528   2.369   4.710   7.635 -0.2812 -1.0805 -0.5763
 2631TIP3    H229529   2.244   4.783   7.591  0.6188  1.2167  0.5386
 2632TIP3   OH229530   2.079   1.553   7.727 -0.0914 -0.1673  0.3641
 2632TIP3    H129531   2.113   1.464   7.723  2.5372  0.7655 -0.0446
 2632TIP3    H229532   2.115   1.590   7.808  1.1871  1.2983 -0.7850
 2633TIP3   OH229533   5.888   1.442   7.469 -0.1784  0.2544  0.4604
 2633TIP3    H129534   5.977   1.468   7.491 -0.2691  1.4639 -0.4694
 2633TIP3    H229535   5.892   1.347   7.457  1.2785  0.4502 -0.8510
 2634TIP3   OH229536   1.934   6.083   2.616 -0.2587  0.4413  0.0090
 2634TIP3    H129537   1.983   6.001   2.618 -1.5150 -0.3274  0.9691
 2634TIP3    H229538   1.962   6.130   2.694 -0.3456  0.4388  0.0415
 2635TIP3   OH229539   4.059   5.443   1.491  0.4080  0.2547  0.6929
 2635TIP3    H129540   3.994   5.503   1.454 -0.2935 -0.5767  0.5412
 2635TIP3    H229541   4.032   5.431   1.582  1.1730  0.9973  1.0298
 2636TIP3   OH229542   1.461   6.215   0.300 -0.2556 -0.1086  0.2273
 2636TIP3    H129543   1.556   6.200   0.303 -0.2174 -0.3057 -1.2649
 2636TIP3    H229544   1.423   6.130   0.324 -0.0329 -0.7875 -1.6837
 2637TIP3   OH229545   0.423   5.627   8.098 -0.0827 -0.4073  0.2005
 2637TIP3    H129546   0.389   5.689   8.033 -0.8508 -1.1121 -0.0928
 2637TIP3    H229547   0.348   5.572   8.119  0.4067 -0.7873  0.9934
 2638TIP3   OH229548   0.107   3.045   0.753 -0.4098 -0.0105 -0.0148
 2638TIP3    H129549   0.077   2.969   0.703 -1.5022 -0.3603  1.1212
 2638TIP3    H229550   0.174   3.010   0.812 -2.3536 -0.6064  1.9885
 2639TIP3   OH229551   2.974   4.221   0.454  0.1531 -0.6585 -0.7222
 2639TIP3    H129552   2.907   4.183   0.511 -1.8551  1.5921 -1.4583
 2639TIP3    H229553   2.998   4.303   0.496  0.7227 -0.3117 -1.6927
 2640TIP3   OH229554   1.885   1.973   6.395  0.2320 -0.2339 -0.1299
 2640TIP3    H129555   1.884   2.066   6.417  0.5392  0.4156 -2.5029
 2640TIP3    H229556   1.810   1.963   6.335 -0.8774 -1.9315  1.4425
 2641TIP3   OH229557   4.588   2.332   0.887  0.6755 -0.4083 -0.0553
 2641TIP3    H129558   4.639   2.284   0.821  1.6208  1.8807 -1.0824
 2641TIP3    H229559   4.654   2.362   0.950  0.2242  0.2229  0.1204
 2642TIP3   OH229560   2.325   1.929   1.386  0.5201 -0.4354 -0.0397
 2642TIP3    H129561   2.412   1.889   1.389  0.5560 -0.5135  4.1657
 2642TIP3    H229562   2.267   1.863   1.425 -0.7647  0.8331  0.2810
 2643TIP3   OH229563   6.579   6.128   1.496  0.5327 -0.6033 -0.5058
 2643TIP3    H129564   6.622   6.181   1.429  2.8911 -0.2711  1.1540
 2643TIP3    H229565   6.511   6.184   1.532  0.4609 -0.1298 -1.3553
 2644TIP3   OH229566   2.835   3.149   1.157 -0.6434 -0.6356 -0.0514
 2644TIP3    H129567   2.746   3.137   1.190 -0.0079  0.2992  2.1823
 2644TIP3    H229568   2.867   3.228   1.201  0.4582  0.5657 -2.7419
 2645TIP3   OH229569   1.436   5.969   0.962  0.2842 -0.4353  0.4715
 2645TIP3    H129570   1.425   5.930   0.876 -0.6930 -1.1705  0.9063
 2645TIP3    H229571   1.357   6.020   0.976 -0.3964 -1.7104  1.6064
 2646TIP3   OH229572   2.216   2.845   8.117  0.1097  0.3100 -0.3274
 2646TIP3    H129573   2.241   2.918   8.173  0.0568  0.4439 -0.4790
 2646TIP3    H229574   2.180   2.886   8.038 -0.7048  0.1225 -0.0658
 2647TIP3   OH229575   6.574   6.613   7.396  0.5176 -0.0691 -0.3854
 2647TIP3    H129576   6.630   6.684   7.366  1.8902 -1.4076 -1.1617
 2647TIP3    H229577   6.633   6.555   7.443 -0.7099 -0.3614  0.8369
 2648TIP3   OH229578   2.871   6.824   0.033  0.2244  0.0641  0.3576
 2648TIP3    H129579   2.917   6.771  -0.032  0.6167 -0.2583  0.8904
 2648TIP3    H229580   2.782   6.832  -0.002 -0.2579 -2.1487  0.9267
 2649TIP3   OH229581   3.308   3.436   1.868 -0.2368 -0.0193 -0.0717
 2649TIP3    H129582   3.255   3.501   1.822  2.3632  1.8880 -0.5904
 2649TIP3    H229583   3.391   3.434   1.819  1.9868  0.7588  3.3336
 2650TIP3   OH229584   2.067   0.771   8.146 -0.0368 -0.0005 -0.0245
 2650TIP3    H129585   2.107   0.692   8.182 -0.6595 -0.7299 -0.8781
 2650TIP3    H229586   2.056   0.829   8.221  0.0567 -0.8835  0.6853
 2651TIP3   OH229587   3.183   5.284   0.624  0.3861 -0.3160  0.7442
 2651TIP3    H129588   3.122   5.275   0.551  1.1052  1.6799 -0.1676
 2651TIP3    H229589   3.128   5.309   0.699  0.1448  4.0049 -0.6223
 2652TIP3   OH229590   0.163   5.283   8.661  0.0878 -0.0132 -0.1828
 2652TIP3    H129591   0.241   5.322   8.621  0.1504  0.0526  0.0047
 2652TIP3    H229592   0.158   5.323   8.747  0.1768 -0.4483  0.0270
 2653TIP3   OH229593   1.994   5.117   1.368 -0.4459 -0.3304  0.6349
 2653TIP3    H129594   1.938   5.192   1.385  0.5132  0.4182  0.5543
 2653TIP3    H229595   2.051   5.145   1.296  0.1320 -1.0175  0.8122
 2654TIP3   OH229596   1.267   0.622   8.615  0.1511  0.0261 -0.2090
 2654TIP3    H129597   1.194   0.644   8.556  0.4013  0.9409 -0.1932
 2654TIP3    H229598   1.225   0.593   8.696 -0.3148  3.8478  1.0896
 2655TIP3   OH229599   6.690   5.668   0.574 -0.6648  0.3232  0.6239
 2655TIP3    H129600   6.723   5.754   0.548 -0.0068  0.2257  1.1321
 2655TIP3    H229601   6.609   5.657   0.523 -0.8902  1.3483  0.7514
 2656TIP3   OH229602   6.318   5.602   0.147 -0.5911  0.5935  0.0908
 2656TIP3    H129603   6.241   5.647   0.111 -1.0668  0.2268  0.6296
 2656TIP3    H229604   6.282   5.524   0.189  0.0138  0.7333  0.8735
 2657TIP3   OH229605   0.729   2.690   6.740 -0.0339 -0.1369 -0.0947
 2657TIP3    H129606   0.713   2.693   6.646 -0.1852 -0.2602 -0.0731
 2657TIP3    H229607   0.649   2.725   6.780 -0.1377 -0.4711  0.0008
 2658TIP3   OH229608   3.741   5.512   0.757  0.1326  0.3496 -0.1644
 2658TIP3    H129609   3.676   5.464   0.705  0.2597  0.1229 -0.1168
 2658TIP3    H229610   3.825   5.474   0.730  0.1095 -0.8016  1.2574
 2659TIP3   OH229611   1.351   1.113   0.317 -0.8908  0.0855  0.2145
 2659TIP3    H129612   1.293   1.100   0.242 -2.2271 -0.4687  1.2816
 2659TIP3    H229613   1.427   1.057   0.298 -1.2812 -0.1800 -0.6448
 2660TIP3   OH229614   6.257   0.973   2.073  0.4579 -0.0044 -0.7544
 2660TIP3    H129615   6.324   0.916   2.111 -0.1540 -1.4924 -1.7674
 2660TIP3    H229616   6.195   0.989   2.144  0.1519 -1.4358 -0.6644
 2661TIP3   OH229617   3.443   5.966   1.370  0.0888 -0.2987  0.1080
 2661TIP3    H129618   3.512   5.971   1.303 -0.4376  1.2542 -0.3460
 2661TIP3    H229619   3.451   5.877   1.406 -1.3082 -2.3089 -3.8835
 2662TIP3   OH229620   4.635   6.013   2.262  0.2901  0.1215  0.2392
 2662TIP3    H129621   4.618   5.922   2.238 -2.0712  0.7450 -0.7194
 2662TIP3    H229622   4.603   6.064   2.188  1.3544  1.7636  0.8497
 2663TIP3   OH229623   1.867   1.323   1.320  0.3618 -0.3901 -0.1059
 2663TIP3    H129624   1.834   1.321   1.410  3.2661 -0.6022  1.0691
 2663TIP3    H229625   1.889   1.231   1.301  1.9977 -0.0457 -0.0516
 2664TIP3   OH229626   6.124   0.220   2.472 -0.6932  0.5820 -0.2058
 2664TIP3    H129627   6.051   0.280   2.460 -1.5398 -0.2290  0.7207
 2664TIP3    H229628   6.127   0.169   2.390 -2.3022 -0.5516  0.3920
 2665TIP3   OH229629   0.815   1.257   8.499 -0.4549 -0.0940  0.1501
 2665TIP3    H129630   0.896   1.277   8.545 -0.5539 -0.8702  0.6911
 2665TIP3    H229631   0.843   1.210   8.420 -0.4163 -1.8106  1.1311
 2666TIP3   OH229632   0.385   5.093   8.693 -0.0596  0.0042  0.5993
 2666TIP3    H129633   0.291   5.111   8.684 -0.1598  0.3771  2.0986
 2666TIP3    H229634   0.408   5.130   8.778  1.6357  0.6123 -0.0981
 2667TIP3   OH229635   1.181   3.463   8.500 -0.2894 -0.3517  0.2995
 2667TIP3    H129636   1.264   3.507   8.515 -0.6646  0.1419  0.9922
 2667TIP3    H229637   1.177   3.393   8.566 -0.1911 -0.7137 -0.0750
 2668TIP3   OH229638   5.271   6.317   8.194  0.0721  0.3460 -0.3413
 2668TIP3    H129639   5.338   6.374   8.156  0.9763 -0.8748 -0.6513
 2668TIP3    H229640   5.188   6.359   8.172  0.6298  0.5647 -2.2477
 2669TIP3   OH229641   1.522   2.514   6.889  0.5618  0.9324  0.0996
 2669TIP3    H129642   1.494   2.522   6.980 -2.5371  0.0864 -0.6328
 2669TIP3    H229643   1.589   2.446   6.890  0.6079  0.9688  1.7327
 2670TIP3   OH229644   6.575   2.428   2.364 -0.1899  0.1865  0.2902
 2670TIP3    H129645   6.541   2.365   2.426 -2.3864  0.0030 -1.0049
 2670TIP3    H229646   6.498   2.472   2.329  1.0475  1.2207 -1.2990
 2671TIP3   OH229647   2.794   5.249   7.915  0.1108  0.2392  0.3703
 2671TIP3    H129648   2.744   5.299   7.979  0.6933 -1.1965  2.0471
 2671TIP3    H229649   2.729   5.195   7.871 -0.0456 -0.4763  1.4368
 2672TIP3   OH229650   5.574   2.564   0.661 -0.4044  0.3873  0.0234
 2672TIP3    H129651   5.623   2.646   0.648  1.9463 -1.2765 -2.6825
 2672TIP3    H229652   5.520   2.555   0.582 -0.1799 -0.9334 -0.0025
 2673TIP3   OH229653   2.210   2.678   0.058 -0.3149 -0.2970  0.8587
 2673TIP3    H129654   2.239   2.711   0.143 -0.7714  0.9511  0.5600
 2673TIP3    H229655   2.119   2.705   0.051 -0.2037 -0.1209 -0.1472
 2674TIP3   OH229656   0.026   1.019   2.472 -0.4610  0.5460  0.5359
 2674TIP3    H129657  -0.046   1.082   2.464 -1.1414 -0.4185 -2.9904
 2674TIP3    H229658  -0.015   0.934   2.453  1.2923 -0.2646  0.2015
 2675TIP3   OH229659   1.154   5.011   0.104  0.5287 -0.6666  0.6106
 2675TIP3    H129660   1.146   5.022   0.009 -0.0900 -0.1963  0.7113
 2675TIP3    H229661   1.064   5.018   0.137  0.9041  0.7798  1.4035
 2676TIP3   OH229662   0.769   4.695   1.022 -0.0040  0.0425  0.0188
 2676TIP3    H129663   0.832   4.757   0.985  1.0008 -0.2841  1.1103
 2676TIP3    H229664   0.686   4.743   1.026  0.3331  0.7095 -0.7929
 2677TIP3   OH229665   4.919   4.312   7.603 -0.4932  0.1012 -0.5806
 2677TIP3    H129666   4.934   4.243   7.539 -1.7884 -0.8292  0.0712
 2677TIP3    H229667   4.832   4.345   7.584 -0.5087  0.4799  0.0957
 2678TIP3   OH229668   5.824   0.246   8.618 -0.5120  0.0755 -0.0810
 2678TIP3    H129669   5.734   0.251   8.650 -1.2443 -1.0770 -1.8126
 2678TIP3    H229670   5.821   0.285   8.531  0.7748  0.4123 -0.0014
 2679TIP3   OH229671   4.261   6.153   0.062 -0.1582  0.4491 -0.4010
 2679TIP3    H129672   4.306   6.142   0.146 -0.0651 -0.0337 -0.5146
 2679TIP3    H229673   4.196   6.221   0.079 -1.4206 -0.9540  0.5888
 2680TIP3   OH229674   4.246   5.042   0.085  0.5908  0.3110  0.8040
 2680TIP3    H129675   4.307   5.096   0.135  1.3487 -0.1595  0.4062
 2680TIP3    H229676   4.249   5.079  -0.004 -0.2711  0.7492  0.9446
 2681TIP3   OH229677   3.418   2.201   1.212 -0.5899 -0.3898  0.0300
 2681TIP3    H129678   3.400   2.238   1.298  0.2608 -0.0833  0.0848
 2681TIP3    H229679   3.435   2.277   1.157  1.1544 -0.6636  0.1324
 2682TIP3   OH229680   5.155   3.852   7.088  0.0839 -0.5063  0.1522
 2682TIP3    H129681   5.110   3.809   7.161 -2.8542  3.1014  0.7623
 2682TIP3    H229682   5.101   3.831   7.012 -0.4775  0.7321  0.1912
 2683TIP3   OH229683   4.463   0.456   6.171  0.2012  0.0904  0.4673
 2683TIP3    H129684   4.484   0.478   6.080 -0.0770  0.2911  0.4492
 2683TIP3    H229685   4.543   0.474   6.219  0.7190 -1.1025  0.0911
 2684TIP3   OH229686   5.182   2.590   1.393 -0.0881  0.9200  0.1284
 2684TIP3    H129687   5.270   2.582   1.428  0.2419  0.1467 -0.8318
 2684TIP3    H229688   5.126   2.551   1.460  0.5423 -0.6354 -0.1944
 2685TIP3   OH229689   3.046   5.977   0.408  0.6113 -0.1291  0.1869
 2685TIP3    H129690   2.993   5.900   0.388 -0.8357  0.9234 -0.2441
 2685TIP3    H229691   3.118   5.944   0.461  1.2923 -2.1126 -1.8345
 2686TIP3   OH229692   2.647   1.584   0.794  0.0696  0.1619  0.4609
 2686TIP3    H129693   2.671   1.639   0.868 -1.2694  0.5737  0.6180
 2686TIP3    H229694   2.727   1.538   0.771  1.3697  2.4769  0.0757
 2687TIP3   OH229695   4.869   6.189   7.097 -0.3173 -0.0451  0.5895
 2687TIP3    H129696   4.812   6.239   7.156 -1.0765  1.4959 -1.3368
 2687TIP3    H229697   4.833   6.205   7.010  1.9109 -0.6382 -0.5061
 2688TIP3   OH229698   1.975   1.038   7.747 -0.0766 -0.0673 -0.0287
 2688TIP3    H129699   1.924   1.010   7.671  1.0055 -1.1279 -0.3924
 2688TIP3    H229700   1.987   0.958   7.798  0.1871  0.4154  0.6740
 2689TIP3   OH229701   6.490   0.921   7.071  0.2716  0.1014  0.3442
 2689TIP3    H129702   6.414   0.863   7.075  0.0948  0.3570  0.9573
 2689TIP3    H229703   6.455   1.003   7.036  0.3271  0.1204  0.3341
 2690TIP3   OH229704   5.690   2.464   8.548 -0.4990  0.6081  0.4677
 2690TIP3    H129705   5.639   2.531   8.593  0.6949  0.3956  2.2331
 2690TIP3    H229706   5.646   2.382   8.571  0.3246  0.4659  1.6170
 2691TIP3   OH229707   1.913   4.007   0.021  0.1554 -0.1653  0.5353
 2691TIP3    H129708   1.903   3.947   0.095 -0.1884 -3.0256 -1.6902
 2691TIP3    H229709   1.834   4.062   0.024 -1.3194 -2.1938  0.6519
 2692TIP3   OH229710   6.427   2.403   6.784  0.3011  0.3383 -0.7052
 2692TIP3    H129711   6.413   2.353   6.864  0.6331  1.4269  0.0542
 2692TIP3    H229712   6.472   2.342   6.725 -0.2175 -0.5720 -0.1936
 2693TIP3   OH229713   2.106   6.051   8.660  0.6698  0.0743 -0.9980
 2693TIP3    H129714   2.179   6.073   8.602 -0.0073  2.0056 -1.1679
 2693TIP3    H229715   2.055   6.131   8.667  0.0736 -0.4292  1.3482
 2694TIP3   OH229716   6.281   4.901   7.927 -0.0056 -0.1071 -0.2893
 2694TIP3    H129717   6.313   4.989   7.945 -0.0681 -0.4832  2.0230
 2694TIP3    H229718   6.186   4.908   7.935  0.0977 -0.7891  2.3863
 2695TIP3   OH229719   3.024   6.335   0.089 -0.1266  0.0480 -0.2332
 2695TIP3    H129720   3.084   6.320   0.162 -2.0821 -1.1694  1.1915
 2695TIP3    H229721   3.019   6.250   0.045 -1.0191  0.0670 -0.1728
 2696TIP3   OH229722   2.056   2.878   0.340 -0.4981  0.4120  0.0449
 2696TIP3    H129723   1.980   2.821   0.333 -1.2256  1.1817  1.1852
 2696TIP3    H229724   2.131   2.819   0.343 -0.9436 -0.3259 -2.0785
 2697TIP3   OH229725   6.345   4.741   8.749  0.0343 -0.2096 -0.0928
 2697TIP3    H129726   6.385   4.655   8.762 -2.3681 -1.2169  1.4237
 2697TIP3    H229727   6.359   4.787   8.832  2.7773  1.6543 -1.4347
 2698TIP3   OH229728   5.207   4.526   8.364 -0.0518  0.5148 -0.0846
 2698TIP3    H129729   5.152   4.497   8.291  0.4056 -0.7042  0.0354
 2698TIP3    H229730   5.259   4.449   8.388  0.2108  1.0508  1.1730
 2699TIP3   OH229731   6.035   2.688   6.530 -0.6958 -0.3107  0.2032
 2699TIP3    H129732   6.044   2.739   6.449  1.0436 -0.1736  0.4440
 2699TIP3    H229733   5.954   2.719   6.569  0.0197  1.8888  0.0561
 2700TIP3   OH229734   2.951   0.747   1.015 -0.5481  0.3289  0.6803
 2700TIP3    H129735   2.948   0.780   1.105 -1.9359  1.7771  0.1653
 2700TIP3    H229736   2.904   0.814   0.964 -1.4434 -1.3503 -0.8281
 2701TIP3   OH229737   3.428   4.541   7.238  0.0670 -0.2787 -0.0265
 2701TIP3    H129738   3.451   4.541   7.145  1.8374  0.8378  0.3726
 2701TIP3    H229739   3.489   4.479   7.278 -1.0772 -1.2100  0.3460
 2702TIP3   OH229740   0.964   4.758   1.240 -0.1179 -0.0339 -0.1473
 2702TIP3    H129741   1.043   4.705   1.239 -0.6158 -0.8889 -2.7921
 2702TIP3    H229742   0.978   4.824   1.172 -1.0634  0.7680  0.4038
 2703TIP3   OH229743   4.329   2.645   8.233 -0.2842 -0.5245 -0.2174
 2703TIP3    H129744   4.268   2.607   8.297  1.7409 -1.8706  1.0509
 2703TIP3    H229745   4.371   2.717   8.280 -0.8206  0.3563 -1.0559
 2704TIP3   OH229746   3.260   0.309   8.797 -0.0848  0.0394  0.3951
 2704TIP3    H129747   3.208   0.256   8.736  0.6565 -0.5796  0.2796
 2704TIP3    H229748   3.246   0.269   8.883 -0.2843  0.2512  0.4616
 2705TIP3   OH229749   4.188   2.859   8.392  0.9125 -0.3642  0.0721
 2705TIP3    H129750   4.218   2.909   8.316  1.4402 -1.1921 -0.2754
 2705TIP3    H229751   4.239   2.892   8.465 -0.9224  1.8068  0.5009
 2706TIP3   OH229752   5.190   3.905   8.809  0.2565 -0.3437  0.6002
 2706TIP3    H129753   5.213   3.882   8.720 -3.4339 -0.7604 -0.4202
 2706TIP3    H229754   5.155   3.824   8.847 -2.4745  0.8202  0.7764
 2707TIP3   OH229755   1.326   6.835   2.230  0.2434  0.3907 -0.9768
 2707TIP3    H129756   1.345   6.928   2.233  1.0304  0.2376  1.8509
 2707TIP3    H229757   1.299   6.818   2.139 -0.5625  3.4401 -1.3877
 2708TIP3   OH229758   6.408   3.120   8.518 -0.6202  0.1131  0.2885
 2708TIP3    H129759   6.498   3.087   8.515 -0.5642  0.3138 -0.9640
 2708TIP3    H229760   6.356   3.044   8.544 -0.1420 -0.1163  0.5979
 2709TIP3   OH229761   5.694   6.695   6.633  0.4467  0.0203  0.0278
 2709TIP3    H129762   5.678   6.715   6.541  1.0018 -0.0344 -0.0809
 2709TIP3    H229763   5.682   6.600   6.639 -3.4876  0.3989  0.7964
 2710TIP3   OH229764   3.992   0.595   6.264  0.2884 -0.1223  0.1974
 2710TIP3    H129765   4.070   0.640   6.230 -0.8523  0.6793 -1.5081
 2710TIP3    H229766   3.995   0.508   6.224  0.9332 -0.5391  1.1237
 2711TIP3   OH229767   1.611   3.198   7.121  0.1558  0.7719  0.8806
 2711TIP3    H129768   1.664   3.186   7.200  0.0127  0.8928  0.9951
 2711TIP3    H229769   1.526   3.163   7.143  0.6792 -1.1203  0.1003
 2712TIP3   OH229770   1.626   1.190   2.034  0.3126 -0.7110  0.9054
 2712TIP3    H129771   1.695   1.126   2.047 -0.4556 -2.0105 -1.0160
 2712TIP3    H229772   1.546   1.138   2.023 -0.3959  0.5814 -0.3597
 2713TIP3   OH229773   3.941   0.999   2.186 -0.3845  0.4663  0.5061
 2713TIP3    H129774   3.949   1.075   2.128 -0.7223  0.0708 -0.0744
 2713TIP3    H229775   3.927   0.925   2.126  0.3220 -0.1120  1.0397
 2714TIP3   OH229776   1.326   0.002   2.502  0.5235 -0.1545  0.1662
 2714TIP3    H129777   1.343   0.000   2.408  0.0436  0.7426  0.0562
 2714TIP3    H229778   1.408   0.034   2.540  0.0088  1.5805 -0.1363
 2715TIP3   OH229779   1.620   4.336   7.070 -0.3832  0.5667 -0.1387
 2715TIP3    H129780   1.689   4.297   7.017 -0.7697  1.1363 -1.0991
 2715TIP3    H229781   1.617   4.428   7.043 -2.8300  0.1431 -1.6381
 2716TIP3   OH229782   3.161   3.232   8.043 -0.1311  0.2031 -0.3799
 2716TIP3    H129783   3.135   3.142   8.023  1.9215  0.0975 -3.3610
 2716TIP3    H229784   3.228   3.223   8.111 -1.7529 -0.2168  1.2306
 2717TIP3   OH229785   4.405   1.671   1.181  0.0890 -0.6960  0.2861
 2717TIP3    H129786   4.359   1.746   1.143  1.3993 -0.9113 -1.8773
 2717TIP3    H229787   4.338   1.602   1.185 -0.4946 -0.1765 -0.1241
 2718TIP3   OH229788   3.207   2.056   0.272  0.4524  0.1901 -0.6703
 2718TIP3    H129789   3.132   2.086   0.324  0.7856  0.5802 -0.4131
 2718TIP3    H229790   3.254   2.136   0.249  0.8687 -0.0638 -0.7148
 2719TIP3   OH229791   3.730   1.237   1.280  0.8579 -0.0920  0.5088
 2719TIP3    H129792   3.706   1.319   1.239 -0.8265 -0.7839  0.0327
 2719TIP3    H229793   3.819   1.251   1.312  2.2443  0.5905 -3.1372
 2720TIP3   OH229794   2.583   1.381   6.254  0.0163  0.2840  0.2577
 2720TIP3    H129795   2.517   1.327   6.297  1.8786 -1.3616  1.2384
 2720TIP3    H229796   2.536   1.425   6.184 -2.4993  0.6568  2.0293
 2721TIP3   OH229797   5.318   4.820   7.780  0.0824  0.3082  0.4720
 2721TIP3    H129798   5.314   4.819   7.875  0.9006 -0.4160  0.5114
 2721TIP3    H229799   5.410   4.840   7.760 -0.4450  2.3817 -0.2011
 2722TIP3   OH229800   3.698   3.771   6.637 -0.3262 -0.0635  0.0435
 2722TIP3    H129801   3.766   3.750   6.573 -1.3396 -0.4107 -0.9611
 2722TIP3    H229802   3.745   3.807   6.712  1.1184 -1.9611  0.1062
 2723TIP3   OH229803   4.396   4.636   8.571 -0.0796  0.2147  0.7540
 2723TIP3    H129804   4.464   4.648   8.638  0.4278 -1.2968  0.5522
 2723TIP3    H229805   4.314   4.656   8.616  0.4525  1.9732  1.0350
 2724TIP3   OH229806   0.288   1.328   7.899  0.4354 -0.7566 -0.5039
 2724TIP3    H129807   0.335   1.397   7.852  1.4528 -2.3552 -1.9524
 2724TIP3    H229808   0.201   1.366   7.917  0.8969  0.8168 -1.3894
 2725TIP3   OH229809   4.932   5.284   7.649 -0.3697  0.0001  0.1938
 2725TIP3    H129810   4.957   5.218   7.583 -1.0832 -0.8342  0.7418
 2725TIP3    H229811   5.010   5.294   7.704 -0.4028 -0.7313  0.3813
 2726TIP3   OH229812   0.367   5.685   7.152  0.1565  0.4301 -0.1177
 2726TIP3    H129813   0.327   5.725   7.075 -0.1008  0.0546 -0.1805
 2726TIP3    H229814   0.435   5.746   7.179 -0.8864  1.4067  0.3855
 2727TIP3   OH229815   5.660   2.198   8.336 -0.3494  0.1602  0.5407
 2727TIP3    H129816   5.626   2.139   8.403  1.3889 -0.5453  0.8471
 2727TIP3    H229817   5.743   2.231   8.372 -0.2203  1.1035 -0.5460
 2728TIP3   OH229818   6.665   2.929   8.015  0.4798  0.7621  0.1465
 2728TIP3    H129819   6.672   2.935   8.111 -0.6869 -1.8115  0.4685
 2728TIP3    H229820   6.718   3.001   7.983  1.5297  1.2469  2.7293
 2729TIP3   OH229821   0.609   1.733   1.091  0.3848 -0.7217  0.3152
 2729TIP3    H129822   0.669   1.661   1.110  0.1977 -0.7625  0.7771
 2729TIP3    H229823   0.567   1.709   1.008  2.4653  0.2734 -1.1183
 2730TIP3   OH229824   1.828   0.278   0.780  0.0167 -0.7434 -0.2473
 2730TIP3    H129825   1.819   0.373   0.766  0.0896 -0.8843 -1.2929
 2730TIP3    H229826   1.756   0.240   0.731 -0.1223 -1.2298  0.3277
 2731TIP3   OH229827   2.442   3.961   8.124  0.4594 -0.0225  0.0147
 2731TIP3    H129828   2.434   3.963   8.219  0.9270  0.5888  0.0427
 2731TIP3    H229829   2.438   3.868   8.102  0.6556 -0.1865  0.6561
 2732TIP3   OH229830   2.558   5.536   7.833 -0.4729 -0.2286 -0.3107
 2732TIP3    H129831   2.598   5.551   7.747 -0.1821  0.8169 -0.0121
 2732TIP3    H229832   2.629   5.503   7.887 -0.4452 -0.0862 -0.2580
 2733TIP3   OH229833   4.866   1.413   0.344  0.2683 -0.2594 -0.1610
 2733TIP3    H129834   4.871   1.447   0.255 -2.3680  0.5233 -0.0971
 2733TIP3    H229835   4.947   1.442   0.386  0.6458  1.0700 -1.7191
 2734TIP3   OH229836   1.500   4.895   0.985  0.4358  0.7116  0.2911
 2734TIP3    H129837   1.460   4.979   0.963 -2.6680 -0.0617  2.3899
 2734TIP3    H229838   1.526   4.858   0.900  0.3857  3.0419 -0.8072
 2735TIP3   OH229839   2.699   6.619   0.373  0.2981  0.3591  0.3005
 2735TIP3    H129840   2.792   6.639   0.370  0.5560 -0.9004 -0.6071
 2735TIP3    H229841   2.692   6.528   0.343 -1.2082  0.3944  0.4508
 2736TIP3   OH229842   3.852   6.325   7.133  0.2715  0.0705 -0.4814
 2736TIP3    H129843   3.867   6.419   7.118 -1.2260  0.8220  2.1850
 2736TIP3    H229844   3.931   6.283   7.098  1.1157  2.3218 -1.4928
 2737TIP3   OH229845   5.034   4.261   8.528 -0.1776 -0.5623  0.2250
 2737TIP3    H129846   4.992   4.231   8.609  1.8874  1.4622  2.1906
 2737TIP3    H229847   5.100   4.195   8.509 -2.8711 -2.9122 -1.9805
 2738TIP3   OH229848   1.818   3.935   8.586  0.2478 -0.0773 -0.2348
 2738TIP3    H129849   1.888   3.932   8.651  1.4579 -0.7854 -1.5115
 2738TIP3    H229850   1.760   3.863   8.610  0.7266 -0.3837  0.0167
 2739TIP3   OH229851   5.114   6.609   1.038 -0.6724 -0.1185 -0.4782
 2739TIP3    H129852   5.182   6.610   1.106 -1.6250 -1.0909  0.5211
 2739TIP3    H229853   5.067   6.527   1.052  0.8722 -1.8816 -4.1239
 2740TIP3   OH229854   0.716   5.315   6.571 -0.2944  0.9995  0.4202
 2740TIP3    H129855   0.628   5.283   6.592  0.0561 -0.5178 -0.2465
 2740TIP3    H229856   0.702   5.376   6.498 -0.7211 -0.1846 -0.5433
 2741TIP3   OH229857   0.757   1.741   8.129  0.0660  0.7040 -0.4965
 2741TIP3    H129858   0.716   1.775   8.209  0.4850  1.4373 -0.5827
 2741TIP3    H229859   0.683   1.719   8.072 -0.3360 -2.2102  1.0008
 2742TIP3   OH229860   1.397   6.146   8.794 -0.1276  0.0534 -0.5754
 2742TIP3    H129861   1.336   6.215   8.822 -1.5453 -0.9534 -1.0670
 2742TIP3    H229862   1.449   6.126   8.873 -1.8370 -0.4636  0.4741
 2743TIP3   OH229863   3.395   0.849   0.367 -0.1558 -0.2295  0.3876
 2743TIP3    H129864   3.485   0.868   0.394  1.2676 -2.6220 -2.1252
 2743TIP3    H229865   3.391   0.876   0.275 -2.2721  0.4716  0.6370
 2744TIP3   OH229866   0.996   5.762   0.117  0.1017 -0.2484 -0.1102
 2744TIP3    H129867   1.003   5.737   0.025 -2.3309  0.7327 -0.6293
 2744TIP3    H229868   0.965   5.852   0.115 -0.1506 -0.2645  1.6855
 2745TIP3   OH229869   2.941   5.518   7.591  0.2967 -0.0314 -0.6852
 2745TIP3    H129870   2.986   5.602   7.594 -0.9707  0.6518  0.7732
 2745TIP3    H229871   2.987   5.463   7.655 -1.6927  1.1521  1.9574
 2746TIP3   OH229872   4.829   6.631   8.484  0.0160  0.3195 -0.2299
 2746TIP3    H129873   4.872   6.711   8.454 -0.2649  0.2206 -0.9240
 2746TIP3    H229874   4.739   6.658   8.505  0.1492  0.3444  0.3388
 2747TIP3   OH229875   0.712   5.859   0.312  0.1662 -0.0535 -0.1682
 2747TIP3    H129876   0.675   5.796   0.373  3.1103  0.7740  2.7904
 2747TIP3    H229877   0.775   5.808   0.260 -0.9567 -0.3869 -1.2497
 2748TIP3   OH229878   3.632   6.316   8.551 -0.0012  0.4349  0.1929
 2748TIP3    H129879   3.684   6.349   8.624  0.8290 -1.8794  0.7222
 2748TIP3    H229880   3.586   6.240   8.586  0.2018 -0.5632 -1.6060
 2749TIP3   OH229881   0.570   3.918   1.580  0.4397 -0.4061 -0.5789
 2749TIP3    H129882   0.620   4.000   1.582  0.4880 -0.4331 -0.6712
 2749TIP3    H229883   0.608   3.865   1.649 -1.1865  0.5793  1.1673
 2750TIP3   OH229884   0.823   1.589   1.195  0.0920 -0.1598 -0.1716
 2750TIP3    H129885   0.877   1.638   1.133  1.3728  0.4625  1.4015
 2750TIP3    H229886   0.825   1.640   1.275 -0.7548 -1.4445  0.7045
 2751TIP3   OH229887   1.877   1.018   1.373 -0.7669 -0.1041 -0.0294
 2751TIP3    H129888   1.934   0.964   1.319  1.2132  0.7177  1.1186
 2751TIP3    H229889   1.869   0.970   1.456 -0.8767  0.2822  0.1910
 2752TIP3   OH229890   6.221   2.605   0.004 -0.5358 -0.3049  0.5178
 2752TIP3    H129891   6.192   2.687  -0.037 -1.8992 -1.5121 -1.0703
 2752TIP3    H229892   6.142   2.554   0.015  0.1634 -1.0664  2.4214
 2753TIP3   OH229893   2.738   1.826   7.024 -0.0118 -0.1810 -0.4922
 2753TIP3    H129894   2.696   1.745   6.993  0.0994 -1.4281  2.3103
 2753TIP3    H229895   2.666   1.875   7.065  0.2662  0.2593 -0.5332
 2754TIP3   OH229896   1.344   6.586   7.039  0.0148  0.3039 -0.3501
 2754TIP3    H129897   1.333   6.675   7.075 -0.8066 -0.1942  0.7006
 2754TIP3    H229898   1.303   6.590   6.953 -2.0700  0.4091  0.5749
 2755TIP3   OH229899   4.391   1.857   1.713 -0.5902 -0.3211  0.6457
 2755TIP3    H129900   4.383   1.787   1.648  0.1715 -1.9561  2.2207
 2755TIP3    H229901   4.422   1.813   1.792 -2.0718  1.4936  2.3377
 2756TIP3   OH229902   3.273   6.492   0.159  0.5686 -0.5258  0.3958
 2756TIP3    H129903   3.236   6.451   0.237 -0.4976 -1.7759 -0.7421
 2756TIP3    H229904   3.349   6.541   0.193 -0.5859  0.0214  2.3933
 2757TIP3   OH229905   2.591   6.523   7.041  0.2095 -0.0265  0.0345
 2757TIP3    H129906   2.569   6.451   7.100  1.1951 -0.2480  0.1389
 2757TIP3    H229907   2.574   6.488   6.953 -1.8595  0.5079  0.1709
 2758TIP3   OH229908   2.039   0.417   1.443  0.4427 -0.5917  0.2136
 2758TIP3    H129909   2.110   0.441   1.383  1.5115 -0.8069  1.3423
 2758TIP3    H229910   2.070   0.445   1.529 -0.9742 -0.4491  0.7054
 2759TIP3   OH229911   0.209   5.655   0.371  0.2547 -0.0058  0.1774
 2759TIP3    H129912   0.252   5.713   0.308  3.1083 -2.1987 -0.0916
 2759TIP3    H229913   0.209   5.704   0.453  1.0406  1.0071 -0.3995
 2760TIP3   OH229914   0.257   6.434   1.796 -0.1000 -0.2528  0.0850
 2760TIP3    H129915   0.207   6.459   1.874  0.0567  1.9527 -0.4491
 2760TIP3    H229916   0.296   6.516   1.766  0.1032 -1.1057 -2.1540
 2761TIP3   OH229917   5.566   6.001   1.356 -0.2719  0.3676  0.3067
 2761TIP3    H129918   5.552   5.967   1.268  0.3606  0.7400  0.0530
 2761TIP3    H229919   5.490   6.056   1.373  0.6440  2.1251 -0.9258
 2762TIP3   OH229920   6.042   3.492   1.139 -0.6321 -1.0627  0.2084
 2762TIP3    H129921   5.983   3.566   1.146  1.3672  0.5869  0.6709
 2762TIP3    H229922   6.077   3.481   1.228  2.5953  0.6027 -0.6705
 2763TIP3   OH229923   3.171   5.760   8.014  0.6113 -0.2517  0.0867
 2763TIP3    H129924   3.121   5.799   8.085  0.5150 -1.5935  0.7919
 2763TIP3    H229925   3.105   5.719   7.957  0.8046 -1.0036  0.3852
 2764TIP3   OH229926   2.489   5.259   6.714 -0.4563  0.1381  0.0466
 2764TIP3    H129927   2.411   5.229   6.667 -0.3416  1.1961 -0.8382
 2764TIP3    H229928   2.492   5.353   6.698  0.8848  0.1401  0.2593
 2765TIP3   OH229929   3.522   3.670   1.246 -0.1079 -0.3687  0.7558
 2765TIP3    H129930   3.615   3.683   1.227 -0.2974  0.6859  0.4826
 2765TIP3    H229931   3.486   3.637   1.164  0.4989 -3.5533  1.6416
 2766TIP3   OH229932   2.144   0.571   8.318 -0.5980  0.0474  0.5689
 2766TIP3    H129933   2.223   0.612   8.354 -0.6093  0.4476  0.1478
 2766TIP3    H229934   2.165   0.478   8.313 -0.4714  0.0302  1.2811
 2767TIP3   OH229935   3.493   0.664   6.646  0.1846 -0.3141 -0.2920
 2767TIP3    H129936   3.517   0.757   6.640 -3.5010  0.6737 -3.0264
 2767TIP3    H229937   3.491   0.646   6.740 -0.4373  2.8403  0.4132
 2768TIP3   OH229938   5.922   3.952   7.303  0.2538  0.3356  0.0996
 2768TIP3    H129939   5.860   4.024   7.305  0.1611  0.2588  0.0181
 2768TIP3    H229940   5.900   3.903   7.223 -1.3647 -1.2578  1.4345
 2769TIP3   OH229941   4.042   4.685   7.957  0.7869 -0.0865 -0.0341
 2769TIP3    H129942   4.069   4.616   7.897  0.4710  0.8734 -1.3205
 2769TIP3    H229943   4.112   4.688   8.023  1.0667 -1.2458 -0.2504
 2770TIP3   OH229944   3.048   5.762   7.599 -0.0720 -0.2950 -0.5022
 2770TIP3    H129945   3.056   5.724   7.686 -0.7544 -1.6308 -1.0012
 2770TIP3    H229946   3.125   5.819   7.591  0.5147 -0.8931  0.6034
 2771TIP3   OH229947   0.085   6.452   6.892 -0.4152 -0.1277 -0.9365
 2771TIP3    H129948   0.063   6.545   6.894 -1.4062 -0.3511  0.8596
 2771TIP3    H229949   0.180   6.450   6.886 -0.4153  0.9921 -1.4885
 2772TIP3   OH229950   2.997   4.089   8.323  0.0188 -0.4306  0.4094
 2772TIP3    H129951   2.998   4.152   8.251  1.0035  0.5734  1.2633
 2772TIP3    H229952   2.916   4.040   8.311  1.4984 -2.3612 -3.1117
 2773TIP3   OH229953   0.986   0.681   8.131 -0.2123  0.3333  0.9053
 2773TIP3    H129954   0.917   0.616   8.144  0.7640 -0.9057  0.1346
 2773TIP3    H229955   1.018   0.700   8.219  1.4280 -2.4617  1.0576
 2774TIP3   OH229956   3.507   0.455   7.044 -0.1636 -0.1227 -0.0827
 2774TIP3    H129957   3.450   0.417   6.978 -1.9375 -0.5747  1.6010
 2774TIP3    H229958   3.473   0.543   7.058 -0.2389 -0.2598  0.6639
 2775TIP3   OH229959   1.954   4.973   2.007 -0.2048 -0.2447 -0.4263
 2775TIP3    H129960   1.955   4.878   2.007 -1.5682 -0.2986 -1.4910
 2775TIP3    H229961   2.004   4.998   2.085 -0.5574 -1.8379  0.3521
 2776TIP3   OH229962   6.060   4.471   1.320  0.1763  0.5016  0.1059
 2776TIP3    H129963   5.989   4.447   1.261  1.2444 -3.8270  0.2636
 2776TIP3    H229964   6.048   4.414   1.396  3.1043  0.4443  0.6363
 2777TIP3   OH229965   5.733   4.073   7.696 -0.7392 -0.3819 -1.0851
 2777TIP3    H129966   5.803   4.137   7.708 -2.0749  1.0043 -0.2801
 2777TIP3    H229967   5.752   4.005   7.760 -0.0948 -0.0675 -0.9291
 2778TIP3   OH229968   4.872   5.038   0.185  0.0433  0.0775 -0.1995
 2778TIP3    H129969   4.967   5.034   0.177 -0.0467  0.6281 -2.0486
 2778TIP3    H229970   4.857   5.116   0.239  0.6270 -0.1535  0.3189
 2779TIP3   OH229971   2.241   1.061   1.019 -0.1174  0.0812 -0.1503
 2779TIP3    H129972   2.336   1.068   1.024  0.1649 -0.9646 -2.6722
 2779TIP3    H229973   2.225   0.975   0.981 -1.9099  1.3680 -2.5593
 2780TIP3   OH229974   4.532   2.582   8.065  0.1258 -0.2814 -0.3652
 2780TIP3    H129975   4.474   2.582   8.141 -0.2638 -2.3939 -0.5876
 2780TIP3    H229976   4.619   2.597   8.102 -0.2159  0.0784  0.3264
 2781TIP3   OH229977   4.054   3.248   2.282 -0.3133 -0.2814  0.0980
 2781TIP3    H129978   4.052   3.339   2.309  0.4493 -0.0323 -0.6409
 2781TIP3    H229979   4.124   3.209   2.334  1.6050  0.3508 -1.8585
 2782TIP3   OH229980   0.226   1.895   0.806 -0.0693 -1.1632  0.0188
 2782TIP3    H129981   0.139   1.924   0.777 -0.0777 -0.9850  0.2173
 2782TIP3    H229982   0.225   1.800   0.796 -0.1607 -1.1258 -0.3245
 2783TIP3   OH229983   2.324   3.583   8.522 -0.1241  0.1747  0.0805
 2783TIP3    H129984   2.252   3.633   8.483  0.1696  0.6164  0.0975
 2783TIP3    H229985   2.283   3.535   8.595 -0.7781 -1.0660 -1.0630
 2784TIP3   OH229986   2.965   5.004   7.841  0.0892 -0.7809 -0.0433
 2784TIP3    H129987   3.016   5.016   7.761 -0.9786 -0.6137 -0.7256
 2784TIP3    H229988   2.874   5.022   7.814 -0.3128 -0.9384  1.1545
 2785TIP3   OH229989   0.380   2.520   0.547 -0.6989  0.2907  0.0915
 2785TIP3    H129990   0.338   2.442   0.582  0.9493  0.1390  1.9085
 2785TIP3    H229991   0.352   2.524   0.456  0.3142 -3.2785 -0.5330
 2786TIP3   OH229992   3.368   2.039   6.707  0.4996  0.0750 -0.2142
 2786TIP3    H129993   3.298   1.977   6.685 -0.1963 -0.0982  2.1535
 2786TIP3    H229994   3.347   2.118   6.658  0.0910 -0.7947 -1.4825
 2787TIP3   OH229995   4.438   6.413   7.128 -0.6100  0.1319  0.5204
 2787TIP3    H129996   4.369   6.429   7.064 -0.4821  0.0187  0.3533
 2787TIP3    H229997   4.461   6.321   7.116  0.2026  0.3973 -0.0554
 2788TIP3   OH229998   3.891   2.292   0.291  0.3457  0.4361 -0.3555
 2788TIP3    H129999   3.893   2.293   0.387  1.6553  1.5675 -0.3605
 2788TIP3    H230000   3.933   2.210   0.267  0.9201  0.6063  0.0459
 2789TIP3   OH230001   4.109   1.493   0.906  0.4120 -0.3362 -0.8539
 2789TIP3    H130002   4.024   1.448   0.902 -0.4613  1.0520  0.9209
 2789TIP3    H230003   4.173   1.424   0.887 -1.0698 -1.4317 -2.1669
 2790TIP3   OH230004   4.131   0.202   1.735  0.1340 -0.1035  0.0240
 2790TIP3    H130005   4.079   0.273   1.772 -0.0275 -0.2066 -0.0065
 2790TIP3    H230006   4.085   0.122   1.759  1.1537 -0.3082  1.4179
 2791TIP3   OH230007   0.253   3.789   1.291 -0.3590  0.7135 -0.2329
 2791TIP3    H130008   0.347   3.792   1.276 -0.6163  2.5081 -1.9154
 2791TIP3    H230009   0.244   3.757   1.381  1.8610  0.8022  0.0733
 2792TIP3   OH230010   5.055   5.306   0.100  0.4901 -0.5019  0.1499
 2792TIP3    H130011   5.024   5.286   0.188  1.6554 -1.1816  0.4247
 2792TIP3    H230012   5.031   5.397   0.086 -0.8597 -0.7517  0.6506
 2793TIP3   OH230013   1.770   2.256   2.487  0.5122  0.4520 -0.3053
 2793TIP3    H130014   1.758   2.337   2.439 -2.0223  1.5855  1.9476
 2793TIP3    H230015   1.862   2.257   2.514  0.8738  1.8678 -1.5033
 2794TIP3   OH230016   4.856   2.261   1.340  0.4145  0.1440  0.2758
 2794TIP3    H130017   4.785   2.233   1.398 -0.3483  0.0692 -0.6644
 2794TIP3    H230018   4.897   2.334   1.385 -0.7423  0.6680  0.5161
 2795TIP3   OH230019   6.053   3.947   1.325  0.1588 -0.0040  0.1417
 2795TIP3    H130020   6.067   3.994   1.243  3.0759  0.0908  0.6159
 2795TIP3    H230021   6.121   3.979   1.384 -1.0686 -0.9964  2.2164
 2796TIP3   OH230022   0.725   6.816   8.646  0.1980 -0.7280 -0.1452
 2796TIP3    H130023   0.799   6.841   8.701 -0.5589  2.2562 -0.2972
 2796TIP3    H230024   0.764   6.767   8.574  2.0930  0.7493 -0.2267
 2797TIP3   OH230025   3.598   0.622   0.604  0.4105  0.0166  0.4048
 2797TIP3    H130026   3.646   0.541   0.621  2.8769  0.8964 -1.6890
 2797TIP3    H230027   3.528   0.597   0.544  0.4395 -0.7179  0.6621
 2798TIP3   OH230028   5.374   3.103   0.672 -0.1721  0.1315  0.4494
 2798TIP3    H130029   5.368   3.198   0.683 -0.4630  0.1529  0.1145
 2798TIP3    H230030   5.291   3.070   0.706 -1.3092  0.2333 -1.9849
 2799TIP3   OH230031   0.806   6.545   8.133 -0.2473  0.2852 -0.2970
 2799TIP3    H130032   0.896   6.576   8.145 -0.4309  1.3274 -1.3852
 2799TIP3    H230033   0.755   6.593   8.198 -0.1919  0.6013 -0.4860
 2800TIP3   OH230034   1.510   5.769   1.137 -0.3570 -0.3182 -0.7828
 2800TIP3    H130035   1.476   5.821   1.064 -0.7564 -0.6877 -0.8615
 2800TIP3    H230036   1.462   5.687   1.133 -0.9442 -0.0556  0.3518
 2801TIP3   OH230037   5.704   0.070   7.394 -0.1297 -0.4018 -0.3391
 2801TIP3    H130038   5.618   0.103   7.418 -0.2066 -1.1280  0.3942
 2801TIP3    H230039   5.738   0.028   7.473  0.3389 -1.2945 -0.9871
 2802TIP3   OH230040   3.212   1.137   0.481  0.2020 -0.0354  0.0371
 2802TIP3    H130041   3.200   1.085   0.401 -0.5563  0.9869 -0.5377
 2802TIP3    H230042   3.208   1.228   0.452  0.1240  0.3560  1.2118
 2803TIP3   OH230043   1.638   4.094   1.299 -0.4807  0.4828  0.3329
 2803TIP3    H130044   1.555   4.057   1.328  0.5619 -3.3174 -0.9486
 2803TIP3    H230045   1.701   4.067   1.366  0.0786  1.7605  0.3593
 2804TIP3   OH230046   4.452   6.149   7.093 -0.5848 -0.4098 -0.4836
 2804TIP3    H130047   4.368   6.154   7.048 -0.9299 -2.4115 -0.1622
 2804TIP3    H230048   4.517   6.145   7.022 -0.6833  1.3644 -0.7326
 2805TIP3   OH230049   1.789   6.198   2.409  0.2780  0.3571  0.1600
 2805TIP3    H130050   1.850   6.244   2.353  2.3018 -0.9610  1.1560
 2805TIP3    H230051   1.843   6.138   2.460 -1.8857 -1.1620  0.8567
 2806TIP3   OH230052   4.634   0.833   7.550  0.2979 -0.0845 -0.5449
 2806TIP3    H130053   4.675   0.868   7.630  3.1697 -3.7686 -0.1186
 2806TIP3    H230054   4.567   0.772   7.582  1.0853 -1.1710 -0.9206
 2807TIP3   OH230055   6.087   6.127   6.586  0.3313  0.1738  0.1440
 2807TIP3    H130056   6.129   6.064   6.644 -0.0171 -1.1436 -0.9708
 2807TIP3    H230057   6.001   6.090   6.568 -0.5650  1.8408  0.8017
 2808TIP3   OH230058   3.804   3.574   7.045 -0.1593  0.7360  0.3405
 2808TIP3    H130059   3.759   3.541   6.967  1.9946 -1.0428 -0.2904
 2808TIP3    H230060   3.836   3.661   7.020  0.1873  0.3342 -0.6585
 2809TIP3   OH230061   6.834   1.044   6.481  0.6300  0.1840 -0.0441
 2809TIP3    H130062   6.866   0.969   6.431  1.8786  1.2205 -0.8733
 2809TIP3    H230063   6.902   1.058   6.548  0.5723  0.7714 -0.1053
 2810TIP3   OH230064   5.077   0.042   8.027 -0.9738 -0.0992  0.8397
 2810TIP3    H130065   5.137  -0.013   7.975 -0.9641  0.4355  0.2798
 2810TIP3    H230066   5.022  -0.021   8.073 -0.7862 -0.5880  0.4102
 2811TIP3   OH230067   3.960   0.172   0.639  0.2396  0.1509 -0.9165
 2811TIP3    H130068   3.985   0.082   0.660 -1.3964 -0.2179 -0.4112
 2811TIP3    H230069   3.911   0.202   0.716  2.4068  2.1822 -0.2350
 2812TIP3   OH230070   5.909   4.287   7.000  0.5693  0.5838  0.5352
 2812TIP3    H130071   5.846   4.349   6.965  0.6773  0.1544 -0.4595
 2812TIP3    H230072   5.898   4.292   7.095 -1.2450  0.2008  0.3652
 2813TIP3   OH230073   4.224   5.959   8.342  0.1130 -0.0197  0.0144
 2813TIP3    H130074   4.130   5.969   8.328  0.3286  1.4027 -0.5833
 2813TIP3    H230075   4.253   6.046   8.369  1.2373 -0.4837  0.3476
 2814TIP3   OH230076   2.552   2.526   7.151 -0.2560 -0.3455 -0.0761
 2814TIP3    H130077   2.629   2.519   7.207  0.9535  0.1857 -1.5850
 2814TIP3    H230078   2.568   2.604   7.098 -1.8727 -0.1967 -0.3868
 2815TIP3   OH230079   6.061   5.272   0.249 -0.0434  0.5316  0.1280
 2815TIP3    H130080   6.132   5.332   0.272  3.3708 -2.1198 -2.4660
 2815TIP3    H230081   6.020   5.312   0.172  1.0916  0.4508 -0.5496
 2816TIP3   OH230082   2.951   0.581   8.343 -0.2895  0.1827 -0.1058
 2816TIP3    H130083   2.884   0.534   8.294 -1.5131  0.4194  1.2363
 2816TIP3    H230084   2.911   0.666   8.361  0.1156  0.1187  1.2095
 2817TIP3   OH230085   2.275   0.889   1.282 -0.1570 -0.3695  0.6979
 2817TIP3    H130086   2.323   0.840   1.215  2.4014 -1.5119  3.1133
 2817TIP3    H230087   2.183   0.880   1.258  0.5415 -2.2079 -1.6732
 2818TIP3   OH230088   1.226   3.354   7.752 -0.3431 -0.0333 -0.2858
 2818TIP3    H130089   1.232   3.448   7.738 -0.9301 -0.1030 -1.0618
 2818TIP3    H230090   1.285   3.336   7.825 -1.4102  1.1627  0.9185
 2819TIP3   OH230091   1.901   3.622   8.749 -0.0894 -0.4683  0.2003
 2819TIP3    H130092   1.979   3.672   8.725  0.1328 -0.1227  1.5667
 2819TIP3    H230093   1.917   3.595   8.839 -1.0319 -1.4307  0.0989
 2820TIP3   OH230094   2.247   5.232   0.419 -0.0392 -0.9413  0.3483
 2820TIP3    H130095   2.219   5.218   0.328 -1.6739 -0.2497  0.7056
 2820TIP3    H230096   2.287   5.319   0.419 -0.6013 -0.6785  0.3974
 2821TIP3   OH230097   0.719   3.356   7.375  0.1445  0.3440 -0.1857
 2821TIP3    H130098   0.730   3.270   7.335  3.0005  1.0502 -1.1461
 2821TIP3    H230099   0.650   3.398   7.323 -0.7383 -1.0444 -0.1898
 2822TIP3   OH230100   5.430   6.254   7.380 -0.0162 -0.2695  0.1263
 2822TIP3    H130101   5.478   6.198   7.319  0.5167 -0.7231  0.9474
 2822TIP3    H230102   5.495   6.278   7.447 -0.0447  1.8374 -0.5167
 2823TIP3   OH230103   3.231   5.690   2.687  0.2957 -0.6051 -0.1126
 2823TIP3    H130104   3.198   5.653   2.605 -1.0132 -0.9741  0.5468
 2823TIP3    H230105   3.158   5.742   2.721  0.7567 -0.6015  0.9000
 2824TIP3   OH230106   1.998   0.878   8.385 -0.0462 -0.0438  0.1328
 2824TIP3    H130107   1.922   0.932   8.366  0.5635  0.7379 -0.1573
 2824TIP3    H230108   1.988   0.854   8.477  0.4733  1.9271  0.7566
 2825TIP3   OH230109   6.173   4.007   0.134 -0.6684 -0.7083  1.3692
 2825TIP3    H130110   6.209   4.018   0.223 -0.4451 -1.8146  1.4319
 2825TIP3    H230111   6.078   4.013   0.145 -0.6218 -0.3936  1.6117
 2826TIP3   OH230112   0.641   1.838   1.742  0.3990 -0.1724 -0.1734
 2826TIP3    H130113   0.559   1.864   1.784  1.9072  2.4815  1.4179
 2826TIP3    H230114   0.681   1.921   1.714  2.9460 -1.2722 -0.0477
 2827TIP3   OH230115   4.734   3.673   0.101  0.1109  0.2679  0.2434
 2827TIP3    H130116   4.780   3.592   0.080 -0.7451 -0.1618 -0.0257
 2827TIP3    H230117   4.641   3.647   0.104 -0.4432  1.7086 -2.2603
 2828TIP3   OH230118   2.875   3.947   1.788  0.3302 -0.0536  0.6378
 2828TIP3    H130119   2.888   3.859   1.753  1.0156  0.9381 -1.8135
 2828TIP3    H230120   2.832   3.933   1.872 -1.9565 -2.6482 -0.7949
 2829TIP3   OH230121   5.489   4.988   7.515  0.9236  0.6363 -0.2283
 2829TIP3    H130122   5.495   4.902   7.473 -0.9507  0.2549  0.1897
 2829TIP3    H230123   5.531   4.976   7.600 -1.8057 -0.7538  1.0341
 2830TIP3   OH230124   2.577   0.370   1.196  0.3633  0.6302 -0.0322
 2830TIP3    H130125   2.512   0.439   1.209 -0.5589 -0.0580 -0.8079
 2830TIP3    H230126   2.565   0.312   1.271  0.7696  1.0277  0.3418
 2831TIP3   OH230127   5.569   1.755   8.630 -0.8243  0.7613  0.0751
 2831TIP3    H130128   5.558   1.694   8.702  0.2553 -0.5842 -0.8471
 2831TIP3    H230129   5.490   1.745   8.577 -0.5003 -0.1062 -0.2530
 2832TIP3   OH230130   5.242   0.456   8.022 -0.3448 -0.6348 -0.2968
 2832TIP3    H130131   5.318   0.503   7.987  0.3958  0.9945  3.0856
 2832TIP3    H230132   5.273   0.367   8.036  0.4606 -0.3810 -0.4060
 2833TIP3   OH230133   3.620   4.883   6.642 -0.4746  0.0291  0.1696
 2833TIP3    H130134   3.537   4.923   6.616 -0.9249  0.3221  1.9138
 2833TIP3    H230135   3.597   4.797   6.676 -0.0657  0.0879  0.6175
 2834TIP3   OH230136   0.095   2.189   0.050 -0.4542  0.0538  0.3505
 2834TIP3    H130137   0.190   2.198   0.048 -0.4386 -0.2233 -0.2712
 2834TIP3    H230138   0.068   2.196  -0.042 -1.0316  0.1113  0.5191
 2835TIP3   OH230139   5.553   0.914   7.110 -0.0005 -0.7662 -0.0287
 2835TIP3    H130140   5.542   0.929   7.204  1.3249  0.3249 -0.0113
 2835TIP3    H230141   5.526   0.823   7.097  0.3735 -1.1311  1.5176
 2836TIP3   OH230142   1.662   2.449   1.528 -0.0267 -0.0754  0.7513
 2836TIP3    H130143   1.667   2.407   1.442  0.6928  0.9996  0.2439
 2836TIP3    H230144   1.693   2.382   1.589  0.3828 -0.5287  0.0567
 2837TIP3   OH230145   3.328   6.348   1.544  0.1879 -0.3810  0.6017
 2837TIP3    H130146   3.269   6.272   1.547  1.6840 -1.5917  2.1088
 2837TIP3    H230147   3.413   6.310   1.522  1.3330  0.5156  3.0673
 2838TIP3   OH230148   4.652   0.130   7.769  0.4161 -0.1447  0.1301
 2838TIP3    H130149   4.583   0.113   7.833 -1.0212 -0.1637 -1.3483
 2838TIP3    H230150   4.664   0.225   7.771 -0.2727 -0.0411 -0.1790
 2839TIP3   OH230151   0.675   5.112   0.834  0.1391 -0.4227  0.3033
 2839TIP3    H130152   0.685   5.168   0.911 -1.9760  0.1198  0.2414
 2839TIP3    H230153   0.765   5.096   0.804  0.8641  2.0136  0.9757
 2840TIP3   OH230154   3.693   2.908   1.642  0.2752  0.4609  0.3826
 2840TIP3    H130155   3.629   2.844   1.676 -1.2058  1.9382  0.5114
 2840TIP3    H230156   3.720   2.958   1.719  1.2806  0.1234  0.2536
 2841TIP3   OH230157   5.033   4.124   1.454  0.5468  0.1119 -0.6627
 2841TIP3    H130158   5.063   4.213   1.475 -0.1804  0.0131  0.9484
 2841TIP3    H230159   5.082   4.068   1.514  0.0668 -0.4481 -0.7891
 2842TIP3   OH230160   6.042   5.784   8.669  0.1571  0.0738  0.5433
 2842TIP3    H130161   6.101   5.752   8.738  1.5527  1.9356  0.3270
 2842TIP3    H230162   5.970   5.824   8.716  1.3145  1.7165  1.0179
 2843TIP3   OH230163   0.527   3.407   8.350 -0.3219 -0.1062 -0.1205
 2843TIP3    H130164   0.551   3.316   8.331  0.5938 -0.1135  0.9760
 2843TIP3    H230165   0.478   3.402   8.432  0.0536  0.4224  0.1379
 2844TIP3   OH230166   2.456   0.668   7.107  0.4060  0.0260  0.0667
 2844TIP3    H130167   2.391   0.735   7.087  0.8888  0.1227 -1.2356
 2844TIP3    H230168   2.514   0.667   7.031  0.2583 -2.0590 -0.0752
 2845TIP3   OH230169   0.552   1.891   7.906  0.7100  0.2107 -0.3828
 2845TIP3    H130170   0.623   1.936   7.951 -0.1023 -0.0173  1.1906
 2845TIP3    H230171   0.568   1.908   7.813  2.2385  0.9974 -0.0102
 2846TIP3   OH230172   1.787   3.489   1.356  0.0819  0.1894  0.3856
 2846TIP3    H130173   1.873   3.533   1.356 -1.3731  3.3237 -0.7404
 2846TIP3    H230174   1.744   3.521   1.277 -2.6953 -0.0243  1.7057
 2847TIP3   OH230175   0.663   0.516   7.468  0.2073 -0.4373 -0.8001
 2847TIP3    H130176   0.736   0.471   7.426  1.2972  1.3545 -0.9450
 2847TIP3    H230177   0.703   0.564   7.541 -0.5965  1.4167 -1.5025
 2848TIP3   OH230178   2.014   4.393   1.205 -0.2806  0.3350 -0.2889
 2848TIP3    H130179   1.947   4.417   1.269 -1.7322  0.6222 -1.8299
 2848TIP3    H230180   2.031   4.301   1.223 -1.2221  0.2080  0.0333
 2849TIP3   OH230181   1.626   3.592   0.825 -0.8323 -0.7038  0.0619
 2849TIP3    H130182   1.561   3.654   0.858  0.4245  0.8198 -0.2170
 2849TIP3    H230183   1.647   3.623   0.737 -0.5956 -1.8932 -0.3222
 2850TIP3   OH230184   5.627   1.541   6.952 -0.5538  0.2642 -0.4364
 2850TIP3    H130185   5.667   1.500   6.875  2.4863 -0.9341  1.5723
 2850TIP3    H230186   5.567   1.474   6.985  0.1600 -0.3142 -0.2915
 2851TIP3   OH230187   4.019   2.410   7.630 -0.4019  0.2080  0.1208
 2851TIP3    H130188   4.077   2.481   7.602 -0.3816 -0.3282 -1.2569
 2851TIP3    H230189   3.933   2.451   7.638 -0.3190  0.4678 -0.2929
 2852TIP3   OH230190   0.701   5.736   1.623  0.0256  0.0764  0.9115
 2852TIP3    H130191   0.744   5.673   1.680  0.4005 -0.8514 -0.3397
 2852TIP3    H230192   0.630   5.687   1.581 -0.4030  0.7977  0.7766
 2853TIP3   OH230193   1.223   1.530   8.764  0.1776 -0.5295 -0.4672
 2853TIP3    H130194   1.192   1.552   8.852 -0.7596 -2.4569 -0.2419
 2853TIP3    H230195   1.317   1.542   8.768  0.2812 -1.4956  1.1466
 2854TIP3   OH230196   4.196   4.217   7.651  0.2785  0.1678  0.0227
 2854TIP3    H130197   4.263   4.150   7.645  0.8870  0.8400 -0.9030
 2854TIP3    H230198   4.151   4.214   7.566  0.6370  1.2549 -0.2155
 2855TIP3   OH230199   4.054   1.352   6.374 -0.0537 -0.9327  0.2327
 2855TIP3    H130200   4.034   1.267   6.335  1.1613 -1.0047 -0.2726
 2855TIP3    H230201   4.133   1.337   6.425 -1.0678 -0.6052  1.9835
 2856TIP3   OH230202   2.738   2.419   7.327  0.3429 -0.0114 -0.1446
 2856TIP3    H130203   2.785   2.439   7.407 -0.2658  0.2423  0.1559
 2856TIP3    H230204   2.786   2.346   7.288  0.5539 -0.2273  0.5192
 2857TIP3   OH230205   4.984   5.760   7.290  0.4901  0.9323 -0.2155
 2857TIP3    H130206   4.934   5.685   7.259 -2.9154  3.1087 -0.4343
 2857TIP3    H230207   5.033   5.726   7.366 -0.5986 -1.5396 -0.5123
 2858TIP3   OH230208   4.818   2.656   5.988 -0.3194  0.7287 -0.0895
 2858TIP3    H130209   4.833   2.705   6.069  0.0874  0.4961 -0.0178
 2858TIP3    H230210   4.869   2.704   5.922 -0.4489  0.7766 -0.1540
 2859TIP3   OH230211   0.498   5.923   8.003  0.0555 -0.4971  0.1105
 2859TIP3    H130212   0.540   5.859   7.946  2.1136 -0.0042  1.0051
 2859TIP3    H230213   0.570   5.969   8.046 -1.3982 -0.1328  2.3440
 2860TIP3   OH230214   3.027   5.472   8.420 -0.9535  0.4104 -0.0597
 2860TIP3    H130215   3.053   5.383   8.397 -0.6988  1.0666 -2.6473
 2860TIP3    H230216   3.083   5.495   8.495  0.0765 -1.0529 -0.3326
 2861TIP3   OH230217   1.411   2.231   0.124  0.2560  0.2112  0.3434
 2861TIP3    H130218   1.365   2.246   0.041  0.4063  0.6458  0.3385
 2861TIP3    H230219   1.472   2.160   0.105 -0.3846 -0.3566  0.3402
 2862TIP3   OH230220   2.584   4.171   7.228  0.2289 -0.3116  0.1969
 2862TIP3    H130221   2.634   4.213   7.298 -1.1660  2.3301 -0.2294
 2862TIP3    H230222   2.632   4.192   7.148 -0.8255  1.2337 -0.0908
 2863TIP3   OH230223   2.541   1.097   7.462  0.0015 -0.1270  0.0920
 2863TIP3    H130224   2.517   1.189   7.462  1.9709  0.4480  1.4483
 2863TIP3    H230225   2.485   1.058   7.530 -0.7052  0.0934 -0.3587
 2864TIP3   OH230226   4.760   6.534   0.019 -0.0900  0.0934  0.1414
 2864TIP3    H130227   4.718   6.615   0.047 -2.0088 -0.6513 -0.4659
 2864TIP3    H230228   4.691   6.468   0.021  1.4465 -1.5979  0.7534
 2865TIP3   OH230229   0.347   2.806   0.575 -0.0143 -0.2069  0.3392
 2865TIP3    H130230   0.262   2.815   0.531  0.1383  0.6273  0.2006
 2865TIP3    H230231   0.374   2.716   0.557 -0.3447 -0.1327 -0.5567
 2866TIP3   OH230232   1.703   0.809   7.787 -0.6177 -0.2292 -0.4319
 2866TIP3    H130233   1.649   0.888   7.789  2.2214  1.8929 -0.8954
 2866TIP3    H230234   1.772   0.825   7.851  0.1380 -2.2849 -0.6473
 2867TIP3   OH230235   3.862   1.129   0.627  0.1429 -0.3882  0.3666
 2867TIP3    H130236   3.910   1.048   0.613  3.2882  1.3624  0.1352
 2867TIP3    H230237   3.824   1.149   0.541  1.5094 -0.3609 -0.2613
 2868TIP3   OH230238   4.286   0.418   0.170  0.3428 -0.1880 -0.2849
 2868TIP3    H130239   4.308   0.406   0.263 -1.2478 -0.8422  0.0458
 2868TIP3    H230240   4.236   0.499   0.168 -0.0809 -0.4509 -0.4742
 2869TIP3   OH230241   5.134   6.357   1.365  0.1086  0.1692  0.3538
 2869TIP3    H130242   5.137   6.452   1.364  0.1121  0.1735  0.5596
 2869TIP3    H230243   5.059   6.336   1.421  1.5093  0.0599  2.3225
 2870TIP3   OH230244   1.739   1.259   0.118  0.7830 -0.0035  0.0701
 2870TIP3    H130245   1.798   1.297   0.053  0.4153  0.5479  0.0491
 2870TIP3    H230246   1.758   1.165   0.116  1.3431  0.1112 -0.2500
 2871TIP3   OH230247   1.013   5.128   1.603 -0.2114 -0.2895  0.1254
 2871TIP3    H130248   1.029   5.220   1.625  1.2272 -0.8104  1.5097
 2871TIP3    H230249   0.933   5.105   1.651 -0.2159  0.0799  0.2968
 2872TIP3   OH230250   1.996   5.451   7.419  0.2445  0.5490 -0.0827
 2872TIP3    H130251   1.966   5.454   7.328 -1.2828 -0.4122  0.3445
 2872TIP3    H230252   2.076   5.399   7.417  0.4329  0.8641 -0.9224
 2873TIP3   OH230253   1.356   2.808   8.683 -0.1594  0.0131 -0.5216
 2873TIP3    H130254   1.378   2.885   8.631  1.4442  0.0428  0.1483
 2873TIP3    H230255   1.326   2.843   8.767 -2.0647 -0.0539 -1.1290
 2874TIP3   OH230256   4.243   4.608   7.151  0.0864 -0.5783 -0.3406
 2874TIP3    H130257   4.168   4.587   7.208 -0.3784 -0.3769 -0.8766
 2874TIP3    H230258   4.207   4.663   7.083  0.6876 -0.6575 -0.7284
 2875TIP3   OH230259   2.034   6.338   0.518 -0.5050  0.5489  0.0363
 2875TIP3    H130260   2.011   6.380   0.435 -1.9612 -0.6072 -0.1903
 2875TIP3    H230261   1.974   6.263   0.524  1.8088 -1.3921  0.5020
 2876TIP3   OH230262   3.535   0.301   8.520  0.0961  0.0079  0.3790
 2876TIP3    H130263   3.443   0.295   8.495  0.0080 -0.2344  0.7558
 2876TIP3    H230264   3.559   0.392   8.503 -0.3580  0.2083  0.7958
 2877TIP3   OH230265   1.133   5.797   7.767  0.4351  0.4257 -0.9209
 2877TIP3    H130266   1.155   5.881   7.727  0.1945  1.7045  1.5061
 2877TIP3    H230267   1.216   5.766   7.805  0.3974 -0.1830 -1.3153
 2878TIP3   OH230268   3.731   1.345   1.583  0.2638  0.5538  0.1499
 2878TIP3    H130269   3.772   1.261   1.560 -1.7562 -1.6059  3.5604
 2878TIP3    H230270   3.643   1.339   1.545  0.2692  1.3822 -0.0052
 2879TIP3   OH230271   1.429   5.489   7.959 -0.0236 -0.1133 -0.0136
 2879TIP3    H130272   1.350   5.467   7.910 -0.1812  0.0486  0.1677
 2879TIP3    H230273   1.473   5.405   7.973  0.2836 -0.1044 -0.8764
 2880TIP3   OH230274   4.175   0.403   1.269  0.3983 -0.1193  0.5997
 2880TIP3    H130275   4.216   0.477   1.313 -2.5414  2.4698 -0.6500
 2880TIP3    H230276   4.142   0.348   1.340 -0.0201  1.4178  1.6380
 2881TIP3   OH230277   0.660   3.254   7.637 -0.1319  0.2851  0.0034
 2881TIP3    H130278   0.591   3.305   7.595  0.1227  0.0816 -0.6905
 2881TIP3    H230279   0.740   3.279   7.591 -0.0480 -0.9461 -0.5715
 2882TIP3   OH230280   2.608   3.954   0.079  0.1432  0.3011 -0.2616
 2882TIP3    H130281   2.673   3.914   0.137  1.0035  1.8023 -0.1190
 2882TIP3    H230282   2.633   4.047   0.076 -0.0948  0.3601 -2.7176
 2883TIP3   OH230283   0.407   6.377   1.394 -0.1976 -0.4325  0.1982
 2883TIP3    H130284   0.424   6.393   1.301 -0.9673 -1.4232 -0.1259
 2883TIP3    H230285   0.426   6.284   1.406 -1.7138 -0.7017  0.6503
 2884TIP3   OH230286   1.980   0.433   8.034  0.2414  0.8387 -0.1681
 2884TIP3    H130287   1.947   0.478   8.112  2.3001  1.3951  0.4429
 2884TIP3    H230288   1.930   0.471   7.961 -1.1498  0.8760  0.7576
 2885TIP3   OH230289   4.171   0.878   1.552 -0.3520  0.4028  0.1424
 2885TIP3    H130290   4.128   0.795   1.531  0.9093  0.0998 -1.4847
 2885TIP3    H230291   4.139   0.940   1.486  1.8011  0.0905 -1.3068
 2886TIP3   OH230292   5.118   0.991   0.298  0.1975 -0.1163  0.6361
 2886TIP3    H130293   5.070   0.980   0.217 -0.5164 -0.1205  1.0542
 2886TIP3    H230294   5.051   0.995   0.366  0.8235 -1.9655  1.4502
 2887TIP3   OH230295   0.378   4.021   8.755  0.2757 -0.7157  0.3336
 2887TIP3    H130296   0.337   4.023   8.669  0.0683  0.2095  0.4466
 2887TIP3    H230297   0.368   3.930   8.784 -3.0117 -0.2355  0.9796
 2888TIP3   OH230298   5.773   0.432   1.126 -0.0888 -0.3052  0.1415
 2888TIP3    H130299   5.737   0.394   1.206  1.1306 -0.5419  0.6132
 2888TIP3    H230300   5.714   0.404   1.056 -0.0853 -1.7616  0.6912
 2889TIP3   OH230301   4.439   2.371   1.503 -0.0787 -0.6789 -0.6018
 2889TIP3    H130302   4.518   2.371   1.557 -0.1696  1.3239 -0.3905
 2889TIP3    H230303   4.471   2.372   1.413  0.2316  1.6996 -0.5198
 2890TIP3   OH230304   1.555   6.404   7.178  0.0127  0.1242 -0.1257
 2890TIP3    H130305   1.562   6.467   7.249 -0.5288  0.8552 -0.6994
 2890TIP3    H230306   1.606   6.328   7.207  1.4997  1.1905  0.1731
 2891TIP3   OH230307   2.196   5.425   8.084 -1.3532  0.3017  0.2861
 2891TIP3    H130308   2.121   5.484   8.092 -1.8668 -0.1419 -1.0134
 2891TIP3    H230309   2.158   5.339   8.067 -0.5588  0.0673 -0.3876
 2892TIP3   OH230310   0.742   0.816   0.611 -0.4411  0.2371 -0.3521
 2892TIP3    H130311   0.687   0.784   0.683 -1.0959 -0.3677 -1.0938
 2892TIP3    H230312   0.688   0.882   0.568 -0.7228 -0.5549 -1.2527
 2893TIP3   OH230313   5.014   1.852   7.474  0.1003 -0.1399 -0.5341
 2893TIP3    H130314   4.970   1.790   7.416 -1.2919 -0.4097  0.7606
 2893TIP3    H230315   5.097   1.810   7.496 -0.5169 -1.2488 -0.2341
 2894TIP3   OH230316   5.398   5.530   6.490  0.3997  0.9846  0.4902
 2894TIP3    H130317   5.323   5.473   6.510  0.6907  0.4210  0.0097
 2894TIP3    H230318   5.405   5.526   6.394  1.5340  0.3945  0.5855
 2895TIP3   OH230319   6.608   5.557   0.292 -0.2862 -0.1530 -0.1099
 2895TIP3    H130320   6.516   5.535   0.282 -0.6024  0.5830  1.0415
 2895TIP3    H230321   6.612   5.652   0.277  0.2062 -0.1046  0.2968
 2896TIP3   OH230322   5.332   5.056   6.363  0.2723 -0.8259  0.0751
 2896TIP3    H130323   5.391   5.014   6.426  0.3342 -0.1942  0.4406
 2896TIP3    H230324   5.246   5.018   6.383  0.3832 -1.0293  0.1773
 2897TIP3   OH230325   3.409   4.959   2.832 -0.2422  0.0298 -0.3146
 2897TIP3    H130326   3.432   4.998   2.747  0.1644  1.0073  0.2278
 2897TIP3    H230327   3.417   5.031   2.894  2.8421 -1.3579  1.1320
 2898TIP3   OH230328   0.891   6.681   1.881  0.4279  0.1584 -0.3813
 2898TIP3    H130329   0.843   6.747   1.832  0.1360  0.5501  0.4098
 2898TIP3    H230330   0.882   6.601   1.830 -1.4337  0.1196 -0.0462
 2899TIP3   OH230331   3.461   4.441   8.725  0.0093 -0.2994  0.2644
 2899TIP3    H130332   3.429   4.531   8.716  0.3283 -0.1488  0.6069
 2899TIP3    H230333   3.410   4.404   8.797  1.7104  0.4776  1.9737
 2900TIP3   OH230334   1.368   6.462   8.202  0.2526 -0.1946  0.1971
 2900TIP3    H130335   1.401   6.470   8.112 -0.3020 -0.2524 -0.0143
 2900TIP3    H230336   1.343   6.551   8.226 -0.5773 -0.3379 -0.0914
 2901TIP3   OH230337   2.767   6.681   7.973  0.7678  0.5993  0.2236
 2901TIP3    H130338   2.814   6.597   7.970 -1.7054 -0.8667 -1.7938
 2901TIP3    H230339   2.786   6.722   7.889  0.7039  1.3326  0.5659
 2902TIP3   OH230340   5.814   3.400   1.867  0.1027  0.4889 -0.4757
 2902TIP3    H130341   5.846   3.399   1.957  0.9760  2.9911 -0.6911
 2902TIP3    H230342   5.882   3.356   1.817 -0.5849 -1.3099  0.0718
 2903TIP3   OH230343   4.995   1.761   7.910  0.6171  0.4058  0.6644
 2903TIP3    H130344   4.970   1.824   7.843  1.9478  0.8878  0.5881
 2903TIP3    H230345   5.091   1.755   7.903  0.4790 -2.6755 -0.2823
 2904TIP3   OH230346   1.362   2.612   1.118 -0.2686  0.7359 -0.0494
 2904TIP3    H130347   1.392   2.658   1.197 -0.0277 -0.6521  0.7046
 2904TIP3    H230348   1.278   2.574   1.144  1.8276 -3.6350  1.2379
 2905TIP3   OH230349   2.600   6.584   0.059 -0.5996 -0.1551 -0.1175
 2905TIP3    H130350   2.642   6.532   0.129 -2.7199  0.3480  1.6437
 2905TIP3    H230351   2.506   6.576   0.077 -1.1128  1.7940 -1.6495
 2906TIP3   OH230352   5.906   3.624   7.498  0.4179 -0.1153 -0.0523
 2906TIP3    H130353   5.937   3.645   7.410 -1.2174 -0.3939 -0.7356
 2906TIP3    H230354   5.920   3.530   7.507 -0.2995 -0.2591 -0.3987
 2907TIP3   OH230355   2.126   1.775   0.944 -0.2798  0.5827  0.3468
 2907TIP3    H130356   2.103   1.830   0.869 -1.9112 -1.5549 -0.8315
 2907TIP3    H230357   2.116   1.832   1.020  2.2029  3.0655 -1.0105
 2908TIP3   OH230358   2.411   5.692   7.523  0.1457  0.1075 -0.3689
 2908TIP3    H130359   2.337   5.650   7.568  2.1738 -1.3685  1.8296
 2908TIP3    H230360   2.459   5.619   7.483  1.7021  0.7095  0.3195
 2909TIP3   OH230361   0.865   2.669   7.477  0.9579  0.6770  0.2382
 2909TIP3    H130362   0.781   2.624   7.488  1.9165 -0.8693  1.6342
 2909TIP3    H230363   0.853   2.752   7.523  0.2491  0.3976  0.5815
 2910TIP3   OH230364   3.769   4.748   2.577 -0.6712 -0.0746  0.2992
 2910TIP3    H130365   3.796   4.657   2.566 -0.1539 -0.2189  2.3279
 2910TIP3    H230366   3.851   4.797   2.582 -0.9373  0.7691 -2.1982
 2911TIP3   OH230367   2.461   1.255   0.500 -0.0807 -0.0409  0.9320
 2911TIP3    H130368   2.408   1.183   0.535 -2.0357  0.5182 -0.7354
 2911TIP3    H230369   2.431   1.332   0.547 -0.5670  0.2328  0.1866
 2912TIP3   OH230370   3.845   3.160   7.068  0.0489 -0.4971 -0.4878
 2912TIP3    H130371   3.796   3.182   6.989 -0.9902 -0.8942  0.0393
 2912TIP3    H230372   3.805   3.212   7.137  2.1465  1.2908 -0.5104
 2913TIP3   OH230373   5.719   4.369   2.384  0.0493 -0.2531 -0.4418
 2913TIP3    H130374   5.718   4.308   2.457  1.9824 -0.3238 -0.4252
 2913TIP3    H230375   5.760   4.320   2.312 -1.3657 -0.0304 -1.4624
 2914TIP3   OH230376   3.475   1.170   0.192 -0.1455 -0.2079  0.0673
 2914TIP3    H130377   3.509   1.227   0.123 -0.2215 -0.2238  0.0164
 2914TIP3    H230378   3.472   1.226   0.270 -0.7811  0.0300 -0.1189
 2915TIP3   OH230379   6.584   2.587   7.333 -0.1913  0.3298  0.6479
 2915TIP3    H130380   6.659   2.610   7.388 -0.6443  1.6201  0.7591
 2915TIP3    H230381   6.512   2.575   7.394 -0.3520  0.2523  0.4429
 2916TIP3   OH230382   5.552   1.338   2.447 -0.2428 -0.4616 -0.3188
 2916TIP3    H130383   5.626   1.298   2.402 -0.0847 -0.7859  0.2209
 2916TIP3    H230384   5.481   1.335   2.383 -0.2481 -1.6456 -0.2891
 2917TIP3   OH230385   3.490   0.136   1.602  0.0745  0.0131  0.0099
 2917TIP3    H130386   3.452   0.184   1.676 -2.1875  0.7766 -1.5547
 2917TIP3    H230387   3.565   0.089   1.640 -1.4791 -0.2961  2.9828
 2918TIP3   OH230388   6.306   5.194   7.356  0.1784  0.2104 -0.3930
 2918TIP3    H130389   6.379   5.139   7.386  1.1766  0.9172 -1.4518
 2918TIP3    H230390   6.228   5.153   7.394  0.9130 -1.8067 -0.9392
 2919TIP3   OH230391   5.270   0.344   0.581 -0.1085 -0.3676  0.0602
 2919TIP3    H130392   5.351   0.316   0.625  0.3959 -0.3656 -0.8363
 2919TIP3    H230393   5.201   0.294   0.624  0.4733 -0.9781  0.3005
 2920TIP3   OH230394   1.185   6.309   1.573  0.2162 -0.1727 -0.3273
 2920TIP3    H130395   1.128   6.370   1.526  0.5457  0.6117  0.2657
 2920TIP3    H230396   1.204   6.354   1.655  0.8572 -0.8792 -0.0868
 2921TIP3   OH230397   3.768   1.610   1.048 -0.0879 -0.0842  0.1631
 2921TIP3    H130398   3.705   1.543   1.074 -0.6114  0.5506  0.5734
 2921TIP3    H230399   3.768   1.608   0.953  0.1230 -0.8674  0.1772
 2922TIP3   OH230400   1.174   5.487   7.809 -0.2759  0.2103 -0.5032
 2922TIP3    H130401   1.125   5.547   7.864  1.4461  1.1295  0.1211
 2922TIP3    H230402   1.113   5.461   7.740 -2.3004 -0.4919  1.4569
 2923TIP3   OH230403   3.777   4.302   1.199 -0.4615 -0.2083 -0.1424
 2923TIP3    H130404   3.773   4.210   1.223  0.4594 -0.6681 -1.6122
 2923TIP3    H230405   3.686   4.333   1.208 -0.5857 -0.9429  1.4211
 2924TIP3   OH230406   6.713   4.108   2.097  0.1483  0.2302  0.5156
 2924TIP3    H130407   6.727   4.020   2.060 -0.9149 -0.8561  2.5003
 2924TIP3    H230408   6.799   4.150   2.091  0.0581  0.1548 -2.9924
 2925TIP3   OH230409   5.144   4.985   0.183 -0.2600 -0.1313 -0.7225
 2925TIP3    H130410   5.163   4.897   0.153  0.3099 -0.3936  0.3496
 2925TIP3    H230411   5.208   5.041   0.138  0.4125 -0.4821 -0.2241
 2926TIP3   OH230412   5.281   0.386   8.385  0.3642  0.0724 -0.5419
 2926TIP3    H130413   5.355   0.326   8.385  1.4241  1.3368 -0.1268
 2926TIP3    H230414   5.227   0.358   8.312  1.3354 -0.7821 -0.9484
 2927TIP3   OH230415   3.773   1.569   0.783  0.3719 -1.0801  0.4539
 2927TIP3    H130416   3.814   1.648   0.749 -0.0354 -0.1083  2.0753
 2927TIP3    H230417   3.747   1.520   0.706  1.9371 -0.3297 -0.5950
 2928TIP3   OH230418   1.695   0.740   0.731  0.1070  0.2940  0.1849
 2928TIP3    H130419   1.665   0.704   0.647  1.0528 -0.4107  0.1378
 2928TIP3    H230420   1.661   0.830   0.732  0.8523  0.6179 -1.3553
 2929TIP3   OH230421   1.138   1.336   1.971 -0.1626  0.7478  0.4221
 2929TIP3    H130422   1.163   1.267   2.032  0.5166  1.2595  0.7317
 2929TIP3    H230423   1.152   1.297   1.884 -0.5419  0.2361  0.5814
 2930TIP3   OH230424   0.988   6.503   0.916  0.6207 -0.0156  0.1061
 2930TIP3    H130425   1.030   6.475   0.835  0.1866 -0.0121 -0.1228
 2930TIP3    H230426   1.054   6.488   0.984  0.7991 -0.5002 -0.1727
 2931TIP3   OH230427   5.547   0.012   8.053 -0.0320 -0.4519 -0.2180
 2931TIP3    H130428   5.634  -0.018   8.027  1.1868  2.2116  0.5076
 2931TIP3    H230429   5.562   0.067   8.130 -2.7267 -2.2794  1.8244
 2932TIP3   OH230430   1.367   3.360   1.107  0.4241 -0.0080  0.4749
 2932TIP3    H130431   1.312   3.407   1.045  0.6998  1.2335  1.1289
 2932TIP3    H230432   1.402   3.286   1.057 -0.0863  0.4301 -0.5675
 2933TIP3   OH230433   0.344   1.842   8.221  0.6425 -0.2606  0.2360
 2933TIP3    H130434   0.350   1.764   8.276  1.7307 -1.9833 -2.1814
 2933TIP3    H230435   0.359   1.811   8.132  1.1883  2.7308 -0.8393
 2934TIP3   OH230436   3.617   2.984   1.396  0.4125  0.3295 -0.1398
 2934TIP3    H130437   3.631   2.907   1.341  0.3214  1.7456 -2.2728
 2934TIP3    H230438   3.652   2.960   1.481  0.4646 -2.0203 -0.7693
 2935TIP3   OH230439   0.942   5.059   0.753 -0.5536  0.0208  0.6381
 2935TIP3    H130440   0.947   4.995   0.825  0.5085  0.1514  0.7078
 2935TIP3    H230441   1.031   5.060   0.717 -0.4921  1.6302  0.7868
 2936TIP3   OH230442   4.797   6.574   1.781 -0.7315  0.0911 -0.3814
 2936TIP3    H130443   4.731   6.537   1.722  0.3324 -0.6133 -1.1715
 2936TIP3    H230444   4.767   6.549   1.868 -2.5242  1.4726 -0.5577
 2937TIP3   OH230445   1.731   4.695   0.482  0.4378  0.7018  0.1244
 2937TIP3    H130446   1.759   4.784   0.465  1.4794  0.1683 -1.0942
 2937TIP3    H230447   1.681   4.670   0.404  2.5100 -0.6877 -0.8390
 2938TIP3   OH230448   3.066   4.474   8.377 -0.4343 -0.6382 -0.1056
 2938TIP3    H130449   3.073   4.404   8.441 -0.0051 -0.7124 -0.2300
 2938TIP3    H230450   3.102   4.551   8.421 -1.6329 -0.2980  0.3126
 2939TIP3   OH230451   4.027   6.666   2.088 -0.4851 -0.6215  0.0100
 2939TIP3    H130452   4.040   6.678   2.182 -0.0191 -1.1245  0.0113
 2939TIP3    H230453   4.099   6.610   2.060  1.0863  1.8550 -1.1948
 2940TIP3   OH230454   0.876   1.870   8.739 -0.3907  0.5960 -0.2819
 2940TIP3    H130455   0.957   1.911   8.766 -0.8254  0.7108  0.9163
 2940TIP3    H230456   0.903   1.790   8.694  0.3870  0.3067  0.6601
 2941TIP3   OH230457   4.419   0.474   1.045 -0.0163 -0.5364  0.3693
 2941TIP3    H130458   4.397   0.445   1.133 -2.2579  0.1855  0.1027
 2941TIP3    H230459   4.391   0.565   1.042  0.1597 -0.5084 -1.0539
 2942TIP3   OH230460   2.551   3.321   2.544  0.1907  0.7782 -0.0572
 2942TIP3    H130461   2.626   3.273   2.510  0.5310  1.9288 -1.0159
 2942TIP3    H230462   2.477   3.262   2.532  0.9323 -0.4156  1.0096
 2943TIP3   OH230463   2.681   1.929   8.755 -0.6780 -0.1072 -0.4068
 2943TIP3    H130464   2.631   2.009   8.742  1.7327  1.4114 -0.8595
 2943TIP3    H230465   2.730   1.943   8.836  0.6163 -0.6068 -1.0659
 2944TIP3   OH230466   5.135   1.028   1.551  0.4709  0.2317 -1.0082
 2944TIP3    H130467   5.210   0.971   1.568  0.3936  0.4858  0.2343
 2944TIP3    H230468   5.076   0.975   1.498  1.0166 -0.3511 -1.0473
 2945TIP3   OH230469   2.677   3.208   8.260  0.2774 -0.3944  0.4336
 2945TIP3    H130470   2.668   3.297   8.226 -0.5183 -0.8948 -0.7348
 2945TIP3    H230471   2.594   3.190   8.305 -0.1804 -1.0609 -0.6427
 2946TIP3   OH230472   5.127   1.000   6.634 -0.0518 -0.1665  0.5120
 2946TIP3    H130473   5.080   1.080   6.611 -0.9542 -0.6188  0.7727
 2946TIP3    H230474   5.090   0.933   6.577 -1.2006 -0.9616  2.1187
 2947TIP3   OH230475   3.282   6.449   0.791 -0.2375 -0.2935 -0.1459
 2947TIP3    H130476   3.196   6.486   0.771 -1.3068 -1.1484  2.5228
 2947TIP3    H230477   3.271   6.355   0.781 -0.3341 -0.6123  2.3382
 2948TIP3   OH230478   4.661   5.542   0.487  0.0594 -0.5912 -0.0771
 2948TIP3    H130479   4.632   5.554   0.577  0.8785  0.6206  0.0546
 2948TIP3    H230480   4.579   5.535   0.437 -0.4480  0.3129  0.5773
 2949TIP3   OH230481   2.030   6.558   1.740 -0.8078 -0.1053 -0.2183
 2949TIP3    H130482   2.102   6.515   1.695  0.0915 -0.1719  1.2078
 2949TIP3    H230483   2.034   6.649   1.709 -0.6775 -0.3118 -0.8186
 2950TIP3   OH230484   4.017   4.068   0.211  0.1583  0.1309 -0.4322
 2950TIP3    H130485   4.068   3.989   0.193  0.2022  0.2060 -0.6416
 2950TIP3    H230486   3.927   4.035   0.222  0.1528  0.0628 -0.6523
 2951TIP3   OH230487   5.578   0.524   6.695  0.3268  0.2015 -0.3705
 2951TIP3    H130488   5.559   0.616   6.715 -0.0789  0.4265 -1.6918
 2951TIP3    H230489   5.512   0.474   6.743 -0.2572  0.6757 -0.6760
 2952TIP3   OH230490   5.918   6.208   0.395 -0.4583  0.6204 -0.7797
 2952TIP3    H130491   5.958   6.124   0.418  1.9996  2.1145  0.8976
 2952TIP3    H230492   5.927   6.213   0.300  0.3548 -0.5285 -0.7893
 2953TIP3   OH230493   3.238   2.629   1.778 -1.1196 -0.4009  0.0886
 2953TIP3    H130494   3.252   2.674   1.861 -1.8794  1.9386 -0.9480
 2953TIP3    H230495   3.218   2.700   1.716 -2.7385 -2.2309 -1.6086
 2954TIP3   OH230496   4.573   4.598   2.161  0.3292 -0.2793  1.0717
 2954TIP3    H130497   4.599   4.508   2.181 -0.7042 -0.6136  0.9398
 2954TIP3    H230498   4.618   4.651   2.228  0.3632 -0.9566  1.5990
 2955TIP3   OH230499   6.699   6.681   8.401  0.3041  0.2333  0.4174
 2955TIP3    H130500   6.678   6.774   8.399  1.0026  0.4155  1.1146
 2955TIP3    H230501   6.625   6.640   8.447  0.7662  0.6665  1.5605
 2956TIP3   OH230502   3.463   3.742   2.154 -0.4088 -0.3625 -0.3584
 2956TIP3    H130503   3.506   3.741   2.239  2.0421 -2.0029 -1.4863
 2956TIP3    H230504   3.448   3.650   2.133 -1.5015  0.0333 -1.4598
 2957TIP3   OH230505   4.588   6.723   8.545 -0.9091 -0.0661 -0.3141
 2957TIP3    H130506   4.588   6.803   8.597 -2.9758 -0.5623  0.5133
 2957TIP3    H230507   4.528   6.741   8.473 -0.2453 -0.3785 -0.9607
 2958TIP3   OH230508   0.841   6.233   6.532 -0.0891  0.4916  0.0666
 2958TIP3    H130509   0.835   6.244   6.437  1.6636  0.2487 -0.1152
 2958TIP3    H230510   0.927   6.193   6.546 -0.1478  0.8815  1.7867
 2959TIP3   OH230511   1.239   2.492   6.462  0.2919  0.2582 -0.3503
 2959TIP3    H130512   1.317   2.439   6.449 -1.6563 -2.2804 -3.2925
 2959TIP3    H230513   1.234   2.548   6.384 -0.1138  1.4296  0.4846
 2960TIP3   OH230514   5.865   1.570   1.511 -0.4046 -0.2112 -0.4243
 2960TIP3    H130515   5.900   1.528   1.589  0.4985 -0.6651 -1.0575
 2960TIP3    H230516   5.832   1.498   1.457 -1.3431  0.1255 -0.3294
 2961TIP3   OH230517   0.675   3.754   7.596 -0.2470 -0.4364 -0.3533
 2961TIP3    H130518   0.625   3.772   7.676  2.1548 -0.1447  1.1800
 2961TIP3    H230519   0.690   3.840   7.557 -0.3119 -0.4479 -0.4030
 2962TIP3   OH230520   2.245   0.607   0.501 -0.1311  0.0920 -0.7111
 2962TIP3    H130521   2.174   0.579   0.559  1.2236 -0.0036  1.0257
 2962TIP3    H230522   2.211   0.595   0.413 -1.9178 -0.8395  0.0456
 2963TIP3   OH230523   2.701   4.218   0.597  0.2028  0.4625 -0.0454
 2963TIP3    H130524   2.720   4.305   0.561 -1.3488  0.8581  0.0379
 2963TIP3    H230525   2.611   4.199   0.570  0.5045 -1.1277 -0.0445
 2964TIP3   OH230526   3.566   2.923   0.053 -0.0000 -0.0866 -0.2649
 2964TIP3    H130527   3.511   2.876   0.116 -0.6073  0.9885  0.0251
 2964TIP3    H230528   3.506   2.984   0.010  0.8692  0.7920 -0.2584
 2965TIP3   OH230529   4.928   2.890   2.052 -0.0042  0.2516 -0.1001
 2965TIP3    H130530   5.016   2.865   2.026  0.4011  0.7642  0.7298
 2965TIP3    H230531   4.929   2.986   2.054 -0.5833  0.2645 -0.0986
 2966TIP3   OH230532   1.300   0.936   8.626 -0.3736 -0.6573 -0.0744
 2966TIP3    H130533   1.326   0.988   8.549  3.3062 -0.0585  1.3498
 2966TIP3    H230534   1.292   0.847   8.593  0.9802 -0.3914 -1.2266
 2967TIP3   OH230535   6.299   6.641   7.669  0.0362 -0.1429  0.9759
 2967TIP3    H130536   6.271   6.733   7.665  0.5265 -0.0299 -0.1073
 2967TIP3    H230537   6.394   6.644   7.661  0.2582 -0.6451  2.9100
 2968TIP3   OH230538   4.500   0.928   8.162  0.0199  0.1168 -0.1361
 2968TIP3    H130539   4.585   0.929   8.205  1.1610  1.8050 -2.2555
 2968TIP3    H230540   4.466   1.017   8.173 -1.6158 -0.5684  0.8197
 2969TIP3   OH230541   4.142   3.911   2.042 -0.3653  0.0539  0.4829
 2969TIP3    H130542   4.204   3.970   1.999 -0.1649  0.3087  1.1170
 2969TIP3    H230543   4.196   3.841   2.078 -0.2899  0.9514  2.1654
 2970TIP3   OH230544   1.511   6.091   7.701  0.5223 -0.8205  0.4525
 2970TIP3    H130545   1.499   6.036   7.778 -0.2024 -2.6487 -0.8874
 2970TIP3    H230546   1.455   6.167   7.716  0.0008 -1.3921  1.4975
 2971TIP3   OH230547   1.874   3.748   7.650 -0.1495 -0.3485  0.4043
 2971TIP3    H130548   1.828   3.817   7.602  1.0104  0.0636 -0.1545
 2971TIP3    H230549   1.905   3.688   7.582 -1.7036 -1.8240  0.9179
 2972TIP3   OH230550   0.947   0.347   7.523 -0.3828  0.0657 -0.6042
 2972TIP3    H130551   0.913   0.429   7.559 -0.3573 -0.6059  1.0095
 2972TIP3    H230552   0.942   0.285   7.595  1.9502 -0.7329 -1.0418
 2973TIP3   OH230553   4.267   6.782   6.704 -0.1752 -0.9036  0.3771
 2973TIP3    H130554   4.270   6.775   6.609 -2.6205 -1.8687  0.2936
 2973TIP3    H230555   4.317   6.706   6.735  1.0379 -0.3249 -0.0830
 2974TIP3   OH230556   6.355   5.524   2.254  0.1383 -0.3222 -0.2381
 2974TIP3    H130557   6.422   5.460   2.229  0.7874 -0.0494  0.7604
 2974TIP3    H230558   6.402   5.588   2.308 -1.1626 -0.7878  1.5132
 2975TIP3   OH230559   0.313   6.193   1.699 -0.0969 -0.3346  0.4064
 2975TIP3    H130560   0.286   6.265   1.756 -1.8192 -2.3772  2.3418
 2975TIP3    H230561   0.326   6.235   1.614 -2.6541  2.0246  1.0063
 2976TIP3   OH230562   2.774   2.835   0.681  0.5409 -0.3298  0.0060
 2976TIP3    H130563   2.827   2.874   0.611  1.4424 -2.0134 -0.3255
 2976TIP3    H230564   2.830   2.841   0.759 -0.1144  0.7750  0.4043
 2977TIP3   OH230565   0.696   6.051   7.768  0.3010 -0.4963  0.2358
 2977TIP3    H130566   0.687   5.963   7.804  0.3248  0.2884  2.2523
 2977TIP3    H230567   0.778   6.084   7.806 -0.4413  0.9178  0.6535
 2978TIP3   OH230568   2.663   6.252   1.823  0.9847  0.3813 -0.0388
 2978TIP3    H130569   2.608   6.286   1.894  2.1341  0.7711  0.6870
 2978TIP3    H230570   2.701   6.172   1.858 -0.8699 -1.1654 -1.3684
 2979TIP3   OH230571   2.048   4.979   6.839  0.3683 -0.6615  1.1007
 2979TIP3    H130572   2.058   4.905   6.779 -0.3574  0.2856 -0.2252
 2979TIP3    H230573   1.962   5.016   6.819  0.9578  0.9025  1.3078
 2980TIP3   OH230574   4.127   6.001   1.679 -0.5660 -0.0952  0.6588
 2980TIP3    H130575   4.100   6.077   1.731 -0.4945 -0.6395  1.5113
 2980TIP3    H230576   4.148   6.037   1.593  3.0206  1.4907  2.0001
 2981TIP3   OH230577   6.167   5.983   1.526 -0.2862 -0.6444 -0.7258
 2981TIP3    H130578   6.094   5.924   1.546 -0.3969 -0.4990 -0.7049
 2981TIP3    H230579   6.240   5.948   1.578  0.0040 -1.5270 -1.6895
 2982TIP3   OH230580   5.167   5.982   1.041 -0.3316 -0.3193 -0.0947
 2982TIP3    H130581   5.192   6.073   1.026  1.1819 -0.9136 -1.4295
 2982TIP3    H230582   5.206   5.960   1.126  1.1068 -0.2939 -0.7189
 2983TIP3   OH230583   5.742   0.561   6.382  0.2431 -0.6221 -0.0155
 2983TIP3    H130584   5.831   0.526   6.392  0.0321 -0.7459  1.7253
 2983TIP3    H230585   5.748   0.650   6.419 -0.4128 -0.7357  0.3781
 2984TIP3   OH230586   0.346   3.445   1.427 -0.2580 -0.3024 -1.0748
 2984TIP3    H130587   0.425   3.482   1.387 -1.3599  2.8604 -0.5950
 2984TIP3    H230588   0.332   3.498   1.506 -1.9013 -1.9556 -0.1729
 2985TIP3   OH230589   3.466   4.955   0.365 -0.1370 -0.3178  0.2292
 2985TIP3    H130590   3.422   4.986   0.444  0.4222  0.8744  0.0941
 2985TIP3    H230591   3.406   4.891   0.327 -0.8783 -0.1220  1.0475
 2986TIP3   OH230592   1.002   0.181   1.842  0.3696 -0.3348  0.7419
 2986TIP3    H130593   0.983   0.268   1.877  0.3754  0.3382 -0.8441
 2986TIP3    H230594   1.021   0.127   1.919  1.1233  1.2562  1.7108
 2987TIP3   OH230595   3.063   2.056   8.790  0.0717  0.2337  0.2594
 2987TIP3    H130596   3.002   2.041   8.862 -0.4980 -0.1459 -0.2891
 2987TIP3    H230597   3.107   2.138   8.812  1.6850 -1.0842  2.2663
 2988TIP3   OH230598   3.052   3.481   0.361 -0.0733  0.2702 -0.0832
 2988TIP3    H130599   2.960   3.493   0.383  0.3666 -0.6509  2.6366
 2988TIP3    H230600   3.088   3.570   0.359 -0.5318  0.5287  1.5178
 2989TIP3   OH230601   6.527   6.656   8.128  0.0449  0.4342  0.1779
 2989TIP3    H130602   6.446   6.695   8.097  0.6127  0.2859 -1.6380
 2989TIP3    H230603   6.532   6.571   8.083  0.3339 -0.3637  1.6584
 2990TIP3   OH230604   6.027   5.445   1.236  0.6936 -0.8645 -0.0368
 2990TIP3    H130605   6.083   5.390   1.291  0.5811 -0.5843  0.3554
 2990TIP3    H230606   5.955   5.471   1.293  0.6826 -0.4095 -0.2562
 2991TIP3   OH230607   2.728   1.351   1.942  0.0909  0.3024  0.0144
 2991TIP3    H130608   2.634   1.337   1.926 -0.9480  3.5152  2.2595
 2991TIP3    H230609   2.746   1.303   2.023  0.8243 -1.3948 -1.0912
 2992TIP3   OH230610   6.164   5.327   7.595 -0.0347  0.0440 -0.1901
 2992TIP3    H130611   6.094   5.341   7.659  1.4273  2.4768  1.0112
 2992TIP3    H230612   6.123   5.342   7.510 -0.8532  2.3240  0.5397
 2993TIP3   OH230613   6.585   3.510   7.553  0.0516 -0.0590  0.2547
 2993TIP3    H130614   6.639   3.496   7.630 -0.7531 -1.5023  0.6034
 2993TIP3    H230615   6.523   3.579   7.578  1.4364  1.3220 -0.0178
 2994TIP3   OH230616   5.303   2.226   1.180  0.1882  0.1580  0.1826
 2994TIP3    H130617   5.211   2.202   1.193  0.9241 -2.3194  1.4166
 2994TIP3    H230618   5.349   2.142   1.173  2.9897  1.0476  4.4029
 2995TIP3   OH230619   2.481   3.349   6.912 -0.1077  0.1833  0.0180
 2995TIP3    H130620   2.424   3.383   6.981  1.4359  2.7959  0.1585
 2995TIP3    H230621   2.481   3.418   6.846  1.8994 -0.2813 -0.5166
 2996TIP3   OH230622   0.568   4.835   7.782  0.2974  0.2682 -0.5871
 2996TIP3    H130623   0.571   4.917   7.733 -0.9108  0.0932 -0.9907
 2996TIP3    H230624   0.539   4.770   7.719  0.4718 -0.3167 -0.0759
 2997TIP3   OH230625   5.376   5.031   8.329  0.5309  0.2415 -0.1946
 2997TIP3    H130626   5.405   4.945   8.358  0.5824 -0.2060 -1.5173
 2997TIP3    H230627   5.290   5.016   8.291  1.5429  0.2808 -2.6940
 2998TIP3   OH230628   3.841   4.829   1.342  0.2436  0.3351  0.0673
 2998TIP3    H130629   3.847   4.736   1.365  0.0521  0.5610  1.0722
 2998TIP3    H230630   3.917   4.869   1.384  2.0244  0.2116 -2.7823
 2999TIP3   OH230631   3.709   3.135   7.982 -0.1999  0.1278 -0.3613
 2999TIP3    H130632   3.781   3.073   7.986 -0.2965 -0.1357 -1.9862
 2999TIP3    H230633   3.742   3.208   7.929 -0.7870  0.5024 -0.2275
 3000TIP3   OH230634   5.754   1.938   7.069 -0.1350 -0.7334 -0.0756
 3000TIP3    H130635   5.792   1.993   7.137 -1.9193  0.8501 -0.2672
 3000TIP3    H230636   5.766   1.988   6.988 -0.7836 -1.1399 -0.4294
 3001TIP3   OH230637   4.945   1.559   7.698  0.3624  0.6868 -0.4174
 3001TIP3    H130638   5.039   1.548   7.692  0.3070  0.7756 -1.6347
 3001TIP3    H230639   4.930   1.587   7.789  1.2308 -1.7312  0.5489
 3002TIP3   OH230640   4.854   6.261   1.345 -0.0620 -0.0737  0.0067
 3002TIP3    H130641   4.884   6.173   1.322  0.5089  0.5598 -1.8358
 3002TIP3    H230642   4.776   6.246   1.399 -0.4519 -1.7207 -0.9309
 3003TIP3   OH230643   4.018   1.210   2.004 -0.2891 -0.6327 -0.8156
 3003TIP3    H130644   4.105   1.248   2.021 -0.2992 -1.3677  1.1069
 3003TIP3    H230645   3.962   1.286   1.988  0.5797 -0.1170 -1.5274
 3004TIP3   OH230646   2.863   6.148   0.296  0.6255 -0.1294  0.1121
 3004TIP3    H130647   2.893   6.215   0.357  2.0116  2.0516 -2.7189
 3004TIP3    H230648   2.915   6.071   0.317  2.5229  1.1853  0.4464
 3005TIP3   OH230649   4.186   5.981   2.323 -0.5616 -0.1341  0.5246
 3005TIP3    H130650   4.102   5.937   2.307 -0.1710 -0.2139 -1.6152
 3005TIP3    H230651   4.196   6.041   2.249  0.8837  0.4840  1.1797
 3006TIP3   OH230652   2.883   2.210   8.614  0.1103 -0.0623 -0.0267
 3006TIP3    H130653   2.956   2.150   8.630  0.7192  0.7440  0.3094
 3006TIP3    H230654   2.848   2.229   8.701 -1.2758 -1.3403 -0.2551
 3007TIP3   OH230655   2.826   5.709   6.717  0.6276 -0.4554 -0.3442
 3007TIP3    H130656   2.796   5.726   6.806 -2.6060 -0.2675 -1.3674
 3007TIP3    H230657   2.828   5.613   6.710  0.3713 -0.4661 -0.2429
 3008TIP3   OH230658   5.981   1.219   0.403 -0.5209  0.5536 -0.1552
 3008TIP3    H130659   5.940   1.247   0.485  0.1977 -0.4014  0.5463
 3008TIP3    H230660   6.047   1.286   0.385 -0.3988  0.5439  0.2642
 3009TIP3   OH230661   5.788   2.362   2.515  0.2505  0.1500 -0.3140
 3009TIP3    H130662   5.804   2.309   2.593 -0.9867  0.6887  0.3449
 3009TIP3    H230663   5.819   2.449   2.539 -2.2045  0.8927  0.5090
 3010TIP3   OH230664   4.040   6.529   1.555 -0.3013  0.0424 -0.2210
 3010TIP3    H130665   4.043   6.613   1.507  1.0433  0.3740  0.3857
 3010TIP3    H230666   4.121   6.529   1.606  0.0642 -1.9490 -0.7377
 3011TIP3   OH230667   4.470   4.844   7.735  0.0269 -0.3422  0.2396
 3011TIP3    H130668   4.556   4.802   7.728 -0.1638 -0.6181 -0.6329
 3011TIP3    H230669   4.482   4.912   7.802  1.1976  0.2630 -0.5289
 3012TIP3   OH230670   3.068   6.083   6.731  0.5349  0.2024 -0.7323
 3012TIP3    H130671   2.987   6.129   6.752 -0.6101 -1.2257 -1.8129
 3012TIP3    H230672   3.124   6.095   6.808 -1.4642 -0.4587  0.8886
 3013TIP3   OH230673   4.445   6.808   8.332 -0.0488 -0.6186 -0.0781
 3013TIP3    H130674   4.458   6.903   8.332 -0.0133 -0.6189  0.7596
 3013TIP3    H230675   4.350   6.797   8.332 -0.1216 -0.5379  2.5312
 3014TIP3   OH230676   3.776   4.189   8.679 -0.6347 -0.7558 -0.2244
 3014TIP3    H130677   3.682   4.172   8.685 -0.4821 -2.2055 -1.2815
 3014TIP3    H230678   3.788   4.231   8.593 -0.3723 -0.1136  0.1197
 3015TIP3   OH230679   6.028   1.830   1.675 -0.6539 -0.2349  0.3334
 3015TIP3    H130680   6.067   1.766   1.616  0.2103  0.5118  0.0724
 3015TIP3    H230681   5.967   1.878   1.621  1.4264  1.6524 -0.4992
 3016TIP3   OH230682   3.447   3.873   1.891 -0.3070 -0.3006 -0.0207
 3016TIP3    H130683   3.354   3.893   1.890 -0.1946  0.3741  1.4307
 3016TIP3    H230684   3.462   3.827   1.974  0.4490 -1.5305 -0.7918
 3017TIP3   OH230685   6.161   6.766   1.578  0.1752 -0.2735  0.1895
 3017TIP3    H130686   6.121   6.740   1.661  0.5134 -0.7761  0.2036
 3017TIP3    H230687   6.225   6.697   1.560  0.1906 -0.1051 -0.4287
 3018TIP3   OH230688   1.430   6.386   1.311 -0.6822  0.2473 -0.2776
 3018TIP3    H130689   1.390   6.320   1.368 -1.5038  0.6054 -0.4225
 3018TIP3    H230690   1.523   6.383   1.332 -1.1632  1.8531  2.6475
 3019TIP3   OH230691   3.915   5.739   7.104 -0.3701 -0.2614 -0.2094
 3019TIP3    H130692   3.868   5.657   7.086  3.5364 -2.7306 -0.3514
 3019TIP3    H230693   3.958   5.761   7.021 -0.0178  1.0083  0.2859
 3020TIP3   OH230694   4.445   5.432   7.409 -0.8070  0.4863 -0.4218
 3020TIP3    H130695   4.350   5.425   7.414 -0.6790 -1.2831  0.4823
 3020TIP3    H230696   4.473   5.346   7.376  0.5214  0.6054  0.3223
 3021TIP3   OH230697   1.964   2.021   8.706 -0.4590  0.2069  0.5526
 3021TIP3    H130698   2.024   2.008   8.633 -0.5044  0.6458  0.4319
 3021TIP3    H230699   1.905   1.945   8.703 -1.2224  0.8033 -0.6152
 3022TIP3   OH230700   3.521   0.362   8.135  0.4599  1.0713  0.7444
 3022TIP3    H130701   3.436   0.319   8.129  0.2848  1.6794 -2.2237
 3022TIP3    H230702   3.500   0.456   8.134  1.1282  1.2338  1.2551
 3023TIP3   OH230703   5.540   5.239   1.529 -0.6331  0.0940  0.1756
 3023TIP3    H130704   5.611   5.266   1.587  0.7073 -1.4559 -0.6704
 3023TIP3    H230705   5.471   5.303   1.546  0.7023  1.2884  1.4956
 3024TIP3   OH230706   0.313   1.260   2.099  0.3536  0.5157 -0.5678
 3024TIP3    H130707   0.353   1.336   2.141 -2.2927  1.1223  1.0782
 3024TIP3    H230708   0.258   1.221   2.166  0.7479 -2.2501 -1.7090
 3025TIP3   OH230709   5.685   6.217   0.623  0.4649  0.4592 -0.0020
 3025TIP3    H130710   5.737   6.285   0.664  3.0703 -0.8571 -0.9123
 3025TIP3    H230711   5.748   6.165   0.574 -1.5080 -2.2140  0.0873
 3026TIP3   OH230712   2.460   0.192   8.438  0.0618  0.5426 -0.0306
 3026TIP3    H130713   2.544   0.150   8.422  0.7999  0.4259  3.3361
 3026TIP3    H230714   2.411   0.129   8.491 -1.2903  1.4892 -0.0895
 3027TIP3   OH230715   6.577   6.727   0.307 -0.4013  0.1324  0.3089
 3027TIP3    H130716   6.499   6.760   0.352 -1.5150  0.8004 -1.9652
 3027TIP3    H230717   6.546   6.650   0.258  0.6932 -0.4104  0.4377
 3028TIP3   OH230718   1.478   4.018   0.444 -0.1167  0.4327 -0.4054
 3028TIP3    H130719   1.573   4.029   0.439  0.0720 -0.2459  1.1253
 3028TIP3    H230720   1.445   4.104   0.470  0.1005  0.6044 -0.6933
 3029TIP3   OH230721   0.041   0.947   0.404  0.0023 -0.2368 -0.3364
 3029TIP3    H130722   0.121   0.949   0.457 -0.0558  0.2548 -0.2612
 3029TIP3    H230723  -0.029   0.970   0.466  0.2375  3.0388 -1.1505
 3030TIP3   OH230724   6.033   2.101   7.701 -0.2868  0.0750 -0.0964
 3030TIP3    H130725   5.979   2.179   7.688 -1.3825 -0.4833  0.9478
 3030TIP3    H230726   5.992   2.035   7.645 -1.3315 -0.6321  1.4539
 3031TIP3   OH230727   0.675   2.906   0.154  0.3762 -0.0848 -0.3532
 3031TIP3    H130728   0.592   2.863   0.134  0.1412  0.3897 -0.4193
 3031TIP3    H230729   0.694   2.958   0.076 -0.3993  1.5662  0.5082
 3032TIP3   OH230730   2.292   2.451   0.882  0.4516 -0.6376 -0.0755
 3032TIP3    H130731   2.373   2.419   0.921  0.2855 -0.8795  0.0730
 3032TIP3    H230732   2.260   2.378   0.830  0.2870 -0.5712 -0.0679
 3033TIP3   OH230733   4.980   0.803   7.662  0.1353  0.1907 -0.1498
 3033TIP3    H130734   4.978   0.898   7.657  0.1692  0.1109 -3.0971
 3033TIP3    H230735   5.045   0.784   7.730  1.2757  2.2404 -0.5925
 3034TIP3   OH230736   0.998   3.213   8.814  0.0325 -0.3403 -0.2749
 3034TIP3    H130737   0.928   3.272   8.786 -0.0279 -0.4012 -0.2524
 3034TIP3    H230738   0.978   3.194   8.906  1.0044  0.9750  0.2370
 3035TIP3   OH230739   1.164   1.398   0.262  0.3420 -0.1978 -0.1889
 3035TIP3    H130740   1.127   1.310   0.249  0.4125 -0.3843  0.8140
 3035TIP3    H230741   1.191   1.399   0.353  1.2783  0.5263 -0.4648
 3036TIP3   OH230742   1.449   4.851   8.072  0.3186 -0.2097  0.6143
 3036TIP3    H130743   1.512   4.838   8.143  0.0172  1.3664  1.2116
 3036TIP3    H230744   1.398   4.927   8.099 -0.8781 -0.5666 -0.5530
 3037TIP3   OH230745   0.166   1.689   0.467  0.1618 -0.1164 -0.2871
 3037TIP3    H130746   0.096   1.631   0.438  2.4459 -2.5801 -1.2700
 3037TIP3    H230747   0.167   1.680   0.562 -2.8213  2.5215  0.1542
 3038TIP3   OH230748   4.029   0.860   7.972 -0.3877 -0.2055 -0.1743
 3038TIP3    H130749   4.106   0.880   7.919  0.9129 -1.3384  1.1732
 3038TIP3    H230750   4.015   0.940   8.024 -0.0125 -0.0532 -0.3036
 3039TIP3   OH230751   4.756   3.097   1.567 -0.2031  0.3683  0.1061
 3039TIP3    H130752   4.843   3.125   1.542  0.2742 -1.0445  0.0862
 3039TIP3    H230753   4.769   3.013   1.612 -1.6090 -0.2598 -0.5784
 3040TIP3   OH230754   3.827   3.036   7.355 -0.3987  0.0960  0.7083
 3040TIP3    H130755   3.792   3.123   7.335 -1.2644 -0.4547 -0.3073
 3040TIP3    H230756   3.887   3.017   7.283  0.1905  0.0671  1.2055
 3041TIP3   OH230757   6.151   3.566   7.694 -0.0869  0.5381  0.2538
 3041TIP3    H130758   6.211   3.555   7.621 -2.3181  0.7190 -1.6952
 3041TIP3    H230759   6.134   3.660   7.697  0.2532  0.5832  1.2847
 3042TIP3   OH230760   3.021   6.312   7.223  0.5085 -0.1500  0.3972
 3042TIP3    H130761   2.966   6.318   7.145  0.0122  1.2882  0.8182
 3042TIP3    H230762   2.967   6.345   7.294  1.4968  0.1284  1.0529
 3043TIP3   OH230763   1.036   0.270   0.267  0.2553 -0.4163 -0.4005
 3043TIP3    H130764   0.953   0.313   0.249  1.6086  1.8866 -1.5785
 3043TIP3    H230765   1.082   0.270   0.183  1.6600 -1.1728  0.3247
 3044TIP3   OH230766   2.213   4.543   0.673 -0.0791  0.4283  0.2926
 3044TIP3    H130767   2.173   4.618   0.628 -0.4994 -0.9275 -1.7113
 3044TIP3    H230768   2.143   4.506   0.725 -0.6112 -0.0492 -0.7261
 3045TIP3   OH230769   2.343   4.010   8.606  0.2923  0.4156 -0.5570
 3045TIP3    H130770   2.351   4.018   8.701 -0.3768 -0.1244 -0.4483
 3045TIP3    H230771   2.256   4.046   8.586  1.0340  2.0087 -1.1618
 3046TIP3   OH230772   3.685   5.311   1.771 -0.4180  0.1599  0.7869
 3046TIP3    H130773   3.616   5.247   1.755 -0.4851  0.2621  0.6650
 3046TIP3    H230774   3.715   5.336   1.684  1.5319 -1.7739  0.8165
 3047TIP3   OH230775   5.303   0.528   6.412  1.0688 -0.3524  0.7142
 3047TIP3    H130776   5.265   0.613   6.434  1.1674 -0.4188  1.1629
 3047TIP3    H230777   5.245   0.464   6.454  0.7798 -0.5291  0.0607
 3048TIP3   OH230778   1.284   3.455   0.850 -0.0310  0.2854 -0.5726
 3048TIP3    H130779   1.212   3.404   0.814 -1.0039  0.6297  0.7983
 3048TIP3    H230780   1.363   3.417   0.812 -0.8226 -1.2555 -0.7272
 3049TIP3   OH230781   4.928   5.145   8.319 -0.3723 -0.7495  0.6349
 3049TIP3    H130782   4.837   5.116   8.314 -0.5351 -0.4931  1.7218
 3049TIP3    H230783   4.938   5.174   8.410  0.7922 -0.7637  0.5193
 3050TIP3   OH230784   3.552   2.402   0.029  0.7967 -0.1817 -0.2064
 3050TIP3    H130785   3.639   2.416  -0.008  0.4762 -0.5741 -1.1248
 3050TIP3    H230786   3.547   2.465   0.101  0.9283  1.6046 -1.6756
 3051TIP3   OH230787   3.117   1.161   8.784 -0.1328 -0.2598  0.0076
 3051TIP3    H130788   3.137   1.076   8.744  0.6334  0.3702 -1.0002
 3051TIP3    H230789   3.114   1.222   8.710  1.5174  0.9897  0.8901
 3052TIP3   OH230790   1.751   4.439   7.466  0.0803 -0.0716 -0.5797
 3052TIP3    H130791   1.717   4.509   7.523  0.0110 -0.3512 -0.2772
 3052TIP3    H230792   1.846   4.454   7.465  0.5327 -1.9083  2.1778
 3053TIP3   OH230793   5.247   5.861   7.223 -0.0538 -0.1095 -0.0048
 3053TIP3    H130794   5.229   5.934   7.165  0.9821  0.3438  0.2232
 3053TIP3    H230795   5.161   5.828   7.248 -0.5161  0.1535 -1.1983
 3054TIP3   OH230796   0.361   2.206   8.809 -0.1753 -0.3076 -0.6630
 3054TIP3    H130797   0.363   2.116   8.776  2.0195  0.1327 -1.9547
 3054TIP3    H230798   0.435   2.248   8.766 -0.5389  1.8601  0.7081
 3055TIP3   OH230799   5.047   6.399   1.859 -0.7014 -1.2433  0.1384
 3055TIP3    H130800   4.967   6.442   1.887 -0.9084 -0.3912 -1.6488
 3055TIP3    H230801   5.024   6.355   1.777  0.7213 -0.7292 -0.5635
 3056TIP3   OH230802   2.363   6.292   8.557  0.0876 -0.3820 -0.1816
 3056TIP3    H130803   2.383   6.233   8.485 -2.1257  0.0636 -1.2580
 3056TIP3    H230804   2.284   6.338   8.529  0.7574  1.8610  1.3548
 3057TIP3   OH230805   5.224   3.412   8.561  0.1603  0.2346  0.9000
 3057TIP3    H130806   5.279   3.457   8.625 -0.6475  1.4754  0.7454
 3057TIP3    H230807   5.175   3.348   8.613 -0.0846  0.8492  1.4400
 3058TIP3   OH230808   6.839   1.919   6.747  0.7682 -0.4203  0.0646
 3058TIP3    H130809   6.834   2.010   6.716  1.3689 -0.1591  0.6943
 3058TIP3    H230810   6.856   1.868   6.668 -1.6124 -0.2549 -0.6466
 3059TIP3   OH230811   4.180   1.503   1.169 -0.4584  0.7424  0.4098
 3059TIP3    H130812   4.163   1.410   1.182 -0.0723  0.9194  2.6163
 3059TIP3    H230813   4.152   1.520   1.079 -2.1332 -1.1417  0.4951
 3060TIP3   OH230814   6.085   4.614   0.737 -0.0389  0.3055 -0.1553
 3060TIP3    H130815   6.068   4.582   0.648  0.1532  0.5019 -0.2621
 3060TIP3    H230816   6.003   4.596   0.784 -0.0713  0.0154 -0.3158
 3061TIP3   OH230817   3.635   4.616   0.369 -0.3997 -0.1201 -0.2691
 3061TIP3    H130818   3.614   4.660   0.288 -2.1246 -0.7116 -0.1779
 3061TIP3    H230819   3.644   4.686   0.434  1.2528  0.3708 -0.9886
 3062TIP3   OH230820   2.994   6.452   6.432  0.1879 -0.1616 -0.2066
 3062TIP3    H130821   2.989   6.370   6.383 -0.5063 -1.4600  1.9252
 3062TIP3    H230822   2.905   6.488   6.429  0.6941  1.1182 -1.9787
 3063TIP3   OH230823   5.995   4.689   7.949  0.1905  0.0050 -0.0815
 3063TIP3    H130824   5.985   4.606   7.996 -0.6656 -0.1094 -0.4542
 3063TIP3    H230825   6.013   4.664   7.859 -0.5434  0.2126 -0.2938
 3064TIP3   OH230826   3.548   6.204   1.572  0.1831 -0.4411  0.7171
 3064TIP3    H130827   3.513   6.220   1.660 -1.1494  0.8381 -0.0098
 3064TIP3    H230828   3.514   6.119   1.548 -0.2078 -0.3958  1.0874
 3065TIP3   OH230829   0.438   4.607   7.685  0.0804  0.6025 -0.1559
 3065TIP3    H130830   0.359   4.569   7.723  0.1066  0.9745  0.2839
 3065TIP3    H230831   0.501   4.535   7.683 -0.5486  0.0445 -1.3972
 3066TIP3   OH230832   1.713   1.716   1.269 -0.7607 -0.2857  0.6879
 3066TIP3    H130833   1.726   1.636   1.217 -1.2533 -0.1274  0.3053
 3066TIP3    H230834   1.757   1.699   1.352  0.4167 -0.3743  0.0594
 3067TIP3   OH230835   4.744   4.550   2.537 -0.3020 -0.0357  0.1149
 3067TIP3    H130836   4.790   4.588   2.612  0.2232  0.7809 -0.6119
 3067TIP3    H230837   4.813   4.521   2.478 -0.6211  2.5334 -1.6750
 3068TIP3   OH230838   6.207   5.903   7.749 -0.2431  0.5063 -0.2088
 3068TIP3    H130839   6.126   5.940   7.715 -2.1214 -3.8245 -1.0724
 3068TIP3    H230840   6.186   5.875   7.837  1.4472  2.2511  0.8327
 3069TIP3   OH230841   1.825   2.637   1.238 -0.2809 -0.7319 -0.5819
 3069TIP3    H130842   1.915   2.648   1.267 -0.3038 -2.7619  0.3611
 3069TIP3    H230843   1.772   2.676   1.307 -0.1943 -1.9828  0.2109
 3070TIP3   OH230844   6.096   0.938   2.304  0.0867  0.3089 -0.4287
 3070TIP3    H130845   6.130   0.860   2.347 -1.4039 -0.1058  0.0714
 3070TIP3    H230846   6.056   0.989   2.374 -0.2199  0.8090 -0.9569
 3071TIP3   OH230847   5.540   3.386   1.281 -0.5261 -0.6417  0.2679
 3071TIP3    H130848   5.492   3.379   1.198 -0.8189 -0.1533  0.3870
 3071TIP3    H230849   5.631   3.367   1.259 -0.2298  1.4281 -0.5797
 3072TIP3   OH230850   2.569   4.053   7.905 -0.3098 -0.7682  0.2147
 3072TIP3    H130851   2.511   4.054   7.981 -0.3266 -0.4156  0.2010
 3072TIP3    H230852   2.613   4.138   7.908 -0.3117 -0.7514 -0.1673
 3073TIP3   OH230853   5.595   0.622   7.075 -0.3395  0.5720 -0.6415
 3073TIP3    H130854   5.646   0.644   7.152 -2.1962  0.8305  0.5752
 3073TIP3    H230855   5.617   0.530   7.057  1.1026  0.8995 -0.6458
 3074TIP3   OH230856   3.072   3.450   7.352  0.0802 -0.5600  0.1991
 3074TIP3    H130857   3.148   3.400   7.382 -1.0518 -2.3346  0.2972
 3074TIP3    H230858   3.091   3.472   7.261  1.0552 -0.2627  0.4712
 3075TIP3   OH230859   5.914   6.135   1.003  0.4907  0.4273 -0.0878
 3075TIP3    H130860   5.931   6.146   0.909  0.6412 -0.2325 -0.1429
 3075TIP3    H230861   5.819   6.128   1.009  0.5436 -0.7405 -0.3408
 3076TIP3   OH230862   4.583   1.271   1.318 -0.3181 -0.2874  0.2608
 3076TIP3    H130863   4.596   1.229   1.403 -1.0360 -2.0099 -0.4245
 3076TIP3    H230864   4.669   1.302   1.292 -0.0220 -0.0930  1.4221
 3077TIP3   OH230865   5.287   4.251   1.324 -0.6035  0.1154 -0.0236
 3077TIP3    H130866   5.233   4.176   1.297 -0.4400  0.8766 -2.8184
 3077TIP3    H230867   5.370   4.238   1.279  0.9422 -0.0242  2.6745
 3078TIP3   OH230868   0.463   0.759   8.746 -0.1923 -0.3222  0.6537
 3078TIP3    H130869   0.484   0.852   8.756 -0.4457 -0.1529 -0.2471
 3078TIP3    H230870   0.513   0.732   8.668 -1.5593 -0.4622 -0.2088
 3079TIP3   OH230871   2.705   5.929   7.141  0.3367  0.1338  0.0274
 3079TIP3    H130872   2.774   5.931   7.075 -0.5668  1.2230 -0.9459
 3079TIP3    H230873   2.733   5.992   7.207  0.9345 -0.4715  0.3580
 3080TIP3   OH230874   2.029   0.475   0.627 -0.5989  0.2302  0.0984
 3080TIP3    H130875   1.962   0.452   0.562 -0.0893 -0.3823 -0.2210
 3080TIP3    H230876   1.980   0.489   0.708 -1.0394 -1.1212  0.0975
 3081TIP3   OH230877   1.529   0.835   7.579 -0.3127 -1.0370  0.1431
 3081TIP3    H130878   1.548   0.899   7.648  1.3610 -1.1718 -0.1687
 3081TIP3    H230879   1.598   0.769   7.588 -1.8362 -2.6893  0.2820
 3082TIP3   OH230880   0.094   6.436   6.480  0.1312 -0.1971 -0.2694
 3082TIP3    H130881   0.148   6.502   6.523 -0.4996 -0.5667  1.1489
 3082TIP3    H230882   0.026   6.486   6.435  0.2539  0.1558 -0.0654
 3083TIP3   OH230883   1.631   5.944   8.591  0.3826 -0.4202 -0.4479
 3083TIP3    H130884   1.678   6.026   8.606 -0.3893  0.0187 -0.3676
 3083TIP3    H230885   1.596   5.953   8.502 -1.6692  0.3796  0.3541
 3084TIP3   OH230886   6.001   4.234   0.709 -0.0427  0.3229 -0.0843
 3084TIP3    H130887   5.917   4.192   0.691  0.4795  0.2953 -2.9463
 3084TIP3    H230888   5.977   4.314   0.757 -1.9112  1.1404 -2.2038
 3085TIP3   OH230889   4.880   3.099   1.222 -0.5950 -0.6536  0.4218
 3085TIP3    H130890   4.899   3.111   1.315  0.1379  1.6385  0.0407
 3085TIP3    H230891   4.964   3.074   1.183 -0.5661 -0.1993  0.1837
 3086TIP3   OH230892   0.425   6.098   7.802  0.0924  0.4013 -0.6671
 3086TIP3    H130893   0.519   6.089   7.787 -0.0888 -2.4455 -0.7000
 3086TIP3    H230894   0.408   6.042   7.878 -1.4070  1.9047  0.1607
 3087TIP3   OH230895   6.021   2.938   0.567 -0.3325 -0.0651  0.4791
 3087TIP3    H130896   5.990   3.026   0.546  0.2877  0.0307 -0.0354
 3087TIP3    H230897   6.060   2.906   0.486  0.2230 -0.4850  0.9059
 3088TIP3   OH230898   4.270   4.399   0.959 -0.5356 -0.3414  0.2770
 3088TIP3    H130899   4.322   4.318   0.961 -0.6349 -0.4258 -0.2934
 3088TIP3    H230900   4.202   4.381   0.894  1.4004  1.3661 -2.4654
 3089TIP3   OH230901   5.913   4.594   8.497  0.1147  0.2347 -0.2828
 3089TIP3    H130902   5.982   4.587   8.431 -0.1941  0.6303 -0.6480
 3089TIP3    H230903   5.951   4.649   8.566  0.2046  0.3584 -0.4316
 3090TIP3   OH230904   4.137   3.161   8.547 -0.5597 -0.1678 -0.1195
 3090TIP3    H130905   4.082   3.154   8.470 -1.3942 -0.3557  0.4782
 3090TIP3    H230906   4.205   3.224   8.523  0.2923 -1.5900 -1.6323
 3091TIP3   OH230907   3.844   2.221   0.543 -0.1805  0.1138 -0.0638
 3091TIP3    H130908   3.752   2.205   0.524  0.3505  0.3767 -3.4244
 3091TIP3    H230909   3.845   2.249   0.634 -3.1687 -1.7042  0.6715
 3092TIP3   OH230910   4.140   0.028   7.896 -0.2918  0.4270  0.4450
 3092TIP3    H130911   4.086   0.005   7.820  2.9700 -1.8452 -1.4752
 3092TIP3    H230912   4.124  -0.043   7.959  0.8762 -0.7101 -0.4648
 3093TIP3   OH230913   4.864   5.333   8.023 -0.3220 -0.1710  0.0323
 3093TIP3    H130914   4.796   5.290   7.972 -0.7631  0.8412 -0.2591
 3093TIP3    H230915   4.816   5.392   8.082  0.3017  0.8736 -0.4752
 3094TIP3   OH230916   3.439   0.817   7.348 -0.4794  0.4622 -0.1211
 3094TIP3    H130917   3.509   0.787   7.406 -1.8929 -0.8980  0.9442
 3094TIP3    H230918   3.410   0.737   7.303 -1.3241  1.0164 -0.5738
 3095TIP3   OH230919   2.283   4.464   1.112  0.0971  0.0938 -0.0014
 3095TIP3    H130920   2.257   4.447   1.203  1.7384  0.0769  0.4927
 3095TIP3    H230921   2.259   4.555   1.096  0.6863  0.3885  0.7773
 3096TIP3   OH230922   0.886   2.791   0.369  0.0981 -0.0229 -0.0378
 3096TIP3    H130923   0.798   2.764   0.343  0.5311  1.8623 -4.3204
 3096TIP3    H230924   0.871   2.854   0.440 -1.8605 -0.7204  0.2448
 3097TIP3   OH230925   1.702   2.384   7.449 -0.3559 -0.6368 -0.0512
 3097TIP3    H130926   1.608   2.378   7.435 -0.3604 -0.1225 -0.2506
 3097TIP3    H230927   1.737   2.305   7.409 -0.6133 -0.3843 -0.7997
 3098TIP3   OH230928   5.055   2.213   0.770 -0.0411  0.6625  0.0737
 3098TIP3    H130929   4.974   2.263   0.771 -0.4294  0.0383  0.2259
 3098TIP3    H230930   5.027   2.122   0.774  0.6431  0.4142 -0.6291
 3099TIP3   OH230931   3.086   2.210   1.640 -0.0291 -0.4136  0.7281
 3099TIP3    H130932   3.068   2.304   1.637  0.4258 -0.3458 -1.5548
 3099TIP3    H230933   3.159   2.202   1.702 -1.0205  0.5214  2.0725
 3100TIP3   OH230934   5.488   6.010   8.720 -0.3063  0.2429 -0.2393
 3100TIP3    H130935   5.400   5.986   8.691 -0.8775  0.2124  1.4324
 3100TIP3    H230936   5.497   5.969   8.806  1.0321  0.9406 -0.0224
 3101TIP3   OH230937   3.395   3.760   8.659  0.2958 -0.1769 -0.6683
 3101TIP3    H130938   3.391   3.816   8.582 -1.3452 -0.8103 -1.0835
 3101TIP3    H230939   3.464   3.697   8.639  0.5028  0.2140 -1.2127
 3102TIP3   OH230940   1.548   0.665   8.639  0.6677  0.1818 -0.6246
 3102TIP3    H130941   1.537   0.693   8.729  0.7205  1.7857 -1.0933
 3102TIP3    H230942   1.459   0.657   8.605  0.6704  0.3306 -0.6637
 3103TIP3   OH230943   1.644   2.974   8.762 -0.3260 -0.0229  1.1673
 3103TIP3    H130944   1.572   3.030   8.793 -1.1142 -0.2367 -0.2089
 3103TIP3    H230945   1.694   3.029   8.703 -0.2462 -0.3268  0.9488
 3104TIP3   OH230946   5.225   0.597   2.518 -0.3894  0.5667 -0.6740
 3104TIP3    H130947   5.281   0.675   2.520  0.0293  0.2691 -0.4890
 3104TIP3    H230948   5.137   0.630   2.500  0.0953  0.9014 -2.5967
 3105TIP3   OH230949   4.348   1.350   0.897 -0.0061 -0.0976 -0.0394
 3105TIP3    H130950   4.404   1.426   0.878 -2.2005  1.2777 -1.5235
 3105TIP3    H230951   4.369   1.326   0.987  1.1505  1.9425  0.2928
 3106TIP3   OH230952   0.142   6.426   1.513  0.1263  0.5540 -0.5518
 3106TIP3    H130953   0.215   6.463   1.563  0.4504  0.7604 -1.1684
 3106TIP3    H230954   0.066   6.436   1.570  0.4613  0.9243 -0.1635
 3107TIP3   OH230955   3.948   4.753   1.797 -0.0868  0.0754  0.0048
 3107TIP3    H130956   3.867   4.762   1.746 -0.4424  0.0528  0.5594
 3107TIP3    H230957   3.997   4.834   1.779 -0.2538  0.1105 -0.2914
 3108TIP3   OH230958   5.780   3.931   6.526 -0.1487  0.0036  0.0557
 3108TIP3    H130959   5.747   3.847   6.558 -3.7421  0.8657 -0.9075
 3108TIP3    H230960   5.785   3.919   6.431  1.7238  0.2013  0.0932
 3109TIP3   OH230961   5.995   3.350   0.697 -0.5446 -0.1334  0.2184
 3109TIP3    H130962   6.042   3.333   0.779 -0.2167 -2.6673 -0.4237
 3109TIP3    H230963   5.903   3.350   0.721 -0.3924  1.0524  0.8672
 3110TIP3   OH230964   5.564   0.251   8.687 -0.1294  0.4557  0.0516
 3110TIP3    H130965   5.479   0.206   8.683 -0.2415  0.4483  1.6622
 3110TIP3    H230966   5.555   0.313   8.759  0.8697  1.2889 -0.5041
 3111TIP3   OH230967   2.363   5.332   1.801  0.1597  0.7958  0.3958
 3111TIP3    H130968   2.317   5.364   1.879 -1.7093  1.6236 -0.9757
 3111TIP3    H230969   2.363   5.406   1.741 -1.8316 -0.8666 -1.8431
 3112TIP3   OH230970   3.245   2.398   2.023 -0.5487  0.6882 -0.5346
 3112TIP3    H130971   3.239   2.433   1.934  0.6781  1.3402 -0.3840
 3112TIP3    H230972   3.331   2.427   2.055 -0.5841 -0.2903  0.5403
 3113TIP3   OH230973   1.988   1.162   1.041 -0.1190  0.1012 -0.2404
 3113TIP3    H130974   2.077   1.127   1.044 -0.0100  0.2036 -1.6768
 3113TIP3    H230975   1.933   1.088   1.016 -0.7308 -0.3759  2.1817
 3114TIP3   OH230976   3.508   3.318   0.049  0.2786  0.2372  0.5027
 3114TIP3    H130977   3.417   3.345   0.034  0.8969  1.7079 -0.8853
 3114TIP3    H230978   3.513   3.304   0.143 -1.7961 -1.5289  0.4433
 3115TIP3   OH230979   2.531   6.409   2.020  0.0181 -0.5028 -0.0564
 3115TIP3    H130980   2.461   6.388   2.081  0.8930 -1.3582  0.6919
 3115TIP3    H230981   2.582   6.477   2.063 -1.2651  1.3489 -1.3233
 3116TIP3   OH230982   2.066   0.755   0.946  0.0183 -0.4485  0.0115
 3116TIP3    H130983   2.116   0.780   0.868 -0.8284 -0.3564 -0.5086
 3116TIP3    H230984   2.029   0.670   0.925 -2.2909  0.6540 -0.7287
 3117TIP3   OH230985   5.942   4.462   0.132  0.3601 -0.3859 -0.2738
 3117TIP3    H130986   5.973   4.413   0.208  0.2950 -0.8748 -0.5551
 3117TIP3    H230987   5.995   4.541   0.131  0.0987 -0.1918  0.5028
 3118TIP3   OH230988   6.333   0.591   7.808 -0.1488  0.0574 -0.8640
 3118TIP3    H130989   6.409   0.614   7.754  0.0243 -1.1022 -1.1249
 3118TIP3    H230990   6.327   0.663   7.871  3.1574 -1.2896  1.2921
 3119TIP3   OH230991   3.700   6.169   0.623 -0.4896 -0.9022 -0.4210
 3119TIP3    H130992   3.605   6.178   0.624 -0.3331  1.3212  1.4972
 3119TIP3    H230993   3.717   6.112   0.548 -3.2022 -0.0763 -1.8114
 3120TIP3   OH230994   4.353   4.085   1.965  0.0651  0.4250  0.0752
 3120TIP3    H130995   4.371   4.015   1.903  1.9326 -1.3981  2.4920
 3120TIP3    H230996   4.347   4.164   1.911 -0.8941 -1.3620 -2.6199
 3121TIP3   OH230997   2.596   6.349   7.863 -0.3493 -0.0269 -0.3479
 3121TIP3    H130998   2.647   6.422   7.828 -1.7407  0.8509 -0.6087
 3121TIP3    H230999   2.511   6.387   7.885 -0.7181 -1.3354  0.5997
 3122TIP3   OH231000   2.964   2.470   8.553  0.1374  0.7304  0.1449
 3122TIP3    H131001   2.916   2.513   8.624 -0.8354 -0.6698  0.3859
 3122TIP3    H231002   2.946   2.377   8.566  0.8959  0.3682 -1.2713
 3123TIP3   OH231003   5.191   2.409   1.753  0.4784  0.4547 -0.0769
 3123TIP3    H131004   5.118   2.415   1.691  1.0465  0.8668 -0.7220
 3123TIP3    H231005   5.159   2.454   1.831  0.9221  2.9524 -1.2378
 3124TIP3   OH231006   3.340   6.631   8.339 -0.4683 -0.1541  0.4905
 3124TIP3    H131007   3.356   6.593   8.425 -0.8258  0.6762  0.9338
 3124TIP3    H231008   3.425   6.626   8.295  0.4769  1.8875  1.9050
 3125TIP3   OH231009   4.851   3.930   0.072  0.3163 -0.0389 -0.0387
 3125TIP3    H131010   4.858   3.836   0.085 -2.2959 -0.1630  0.8800
 3125TIP3    H231011   4.826   3.940  -0.020  2.4693 -0.0653 -0.6880
 3126TIP3   OH231012   3.896   1.605   8.265 -0.2670 -0.1620  0.4886
 3126TIP3    H131013   3.956   1.542   8.225 -0.1599 -0.1516  0.6322
 3126TIP3    H231014   3.926   1.613   8.356 -1.4198 -1.2909  0.9870
 3127TIP3   OH231015   3.184   2.759   6.756 -0.2717 -0.0843 -0.2479
 3127TIP3    H131016   3.174   2.726   6.845 -0.9899 -0.0626 -0.3168
 3127TIP3    H231017   3.187   2.680   6.701 -3.4727 -0.1154 -0.5750
 3128TIP3   OH231018   1.107   2.707   8.622 -0.1774  0.1641  0.4403
 3128TIP3    H131019   1.102   2.748   8.536  0.2961  1.4924  1.0156
 3128TIP3    H231020   1.196   2.726   8.652  0.4220 -2.1466  0.3542
 3129TIP3   OH231021   4.419   4.410   1.367 -0.5089  0.1672  0.1721
 3129TIP3    H131022   4.375   4.358   1.300  0.1278 -1.1833  0.7662
 3129TIP3    H231023   4.490   4.454   1.319  0.1863 -1.0938 -0.0237
 3130TIP3   OH231024   1.311   3.849   8.628 -0.0511  0.0336 -0.0816
 3130TIP3    H131025   1.228   3.847   8.580 -0.2244  0.7817  0.1809
 3130TIP3    H231026   1.294   3.905   8.704  0.9576  0.9670 -0.5215
 3131TIP3   OH231027   3.842   4.016   1.900  0.4295 -0.5415  0.3601
 3131TIP3    H131028   3.907   4.081   1.924  2.4740 -1.5586 -2.0633
 3131TIP3    H231029   3.817   4.038   1.810  0.3513 -2.4114 -0.1257
 3132TIP3   OH231030   0.781   4.238   7.433 -0.3757  0.0312 -0.7720
 3132TIP3    H131031   0.791   4.218   7.340 -0.3613  2.4611 -1.3835
 3132TIP3    H231032   0.859   4.290   7.454  0.6829 -2.1753  1.2052
 3133TIP3   OH231033   4.321   6.082   0.322  0.7765 -0.3759 -0.4909
 3133TIP3    H131034   4.385   6.011   0.321 -0.1168 -1.2301  0.6669
 3133TIP3    H231035   4.267   6.065   0.399 -0.4716  0.6581 -1.0949
 3134TIP3   OH231036   6.734   6.531   1.167  0.0789  0.1626 -0.1416
 3134TIP3    H131037   6.743   6.573   1.082 -0.1938 -0.3761 -0.4421
 3134TIP3    H231038   6.653   6.567   1.203 -1.6267 -1.9857 -1.5307
 3135TIP3   OH231039   3.765   6.429   6.286 -0.0382 -0.0763  0.4437
 3135TIP3    H131040   3.859   6.448   6.287  0.1957 -1.1913  1.6647
 3135TIP3    H231041   3.760   6.333   6.284 -1.1495 -0.0451  0.9889
 3136TIP3   OH231042   3.801   2.274   6.932 -0.1005  0.4131  0.1500
 3136TIP3    H131043   3.712   2.291   6.963  0.2643  1.2908  0.7403
 3136TIP3    H231044   3.789   2.214   6.858 -1.1907  0.6045  0.1528
 3137TIP3   OH231045   0.746   2.552   0.512 -0.5032  0.2037  0.4451
 3137TIP3    H131046   0.752   2.643   0.543  1.5632  0.1663  0.3360
 3137TIP3    H231047   0.736   2.559   0.417 -1.5912  0.3110  0.5631
 3138TIP3   OH231048   0.428   0.898   7.251 -0.2703 -0.1558  0.2352
 3138TIP3    H131049   0.515   0.873   7.222 -0.4503 -0.0703 -0.3779
 3138TIP3    H231050   0.376   0.903   7.171 -0.2546  2.2220  0.3082
 3139TIP3   OH231051   0.753   4.143   8.567 -0.2432  0.3937  0.0519
 3139TIP3    H131052   0.846   4.164   8.571  0.2016 -1.1819 -1.0710
 3139TIP3    H231053   0.731   4.116   8.656  0.9419 -1.3034 -0.1199
 3140TIP3   OH231054   5.708   3.072   0.627 -0.1251 -0.2563 -0.0973
 3140TIP3    H131055   5.693   3.110   0.540 -1.6698 -2.5394 -0.9166
 3140TIP3    H231056   5.671   3.136   0.688  0.7914  1.2859 -1.1022
 3141TIP3   OH231057   0.555   1.064   8.029 -0.7734  0.0891  0.0075
 3141TIP3    H131058   0.619   1.008   8.074 -1.0744 -3.2400 -3.1876
 3141TIP3    H231059   0.609   1.129   7.982 -0.1778  0.5795  1.3322
 3142TIP3   OH231060   2.896   1.418   0.911 -0.2542  0.5399 -0.3315
 3142TIP3    H131061   2.949   1.418   0.832 -0.3925 -0.4881 -0.4316
 3142TIP3    H231062   2.942   1.478   0.970  0.2324  0.7673 -0.9298
 3143TIP3   OH231063   1.731   4.828   1.224 -0.0578  0.1220  0.4550
 3143TIP3    H131064   1.706   4.908   1.177 -1.6756 -0.8406 -0.3962
 3143TIP3    H231065   1.720   4.758   1.160  1.1345 -0.8408  1.2559
 3144TIP3   OH231066   2.695   2.028   0.899 -0.3660  0.1258 -0.1112
 3144TIP3    H131067   2.666   2.003   0.986 -0.8891  0.5699 -0.1499
 3144TIP3    H231068   2.637   1.981   0.839  1.3161 -1.8648 -0.3109
 3145TIP3   OH231069   0.692   1.329   1.753 -0.3292 -0.5700 -0.4967
 3145TIP3    H131070   0.738   1.278   1.820 -1.8754 -0.3865  0.7767
 3145TIP3    H231071   0.713   1.420   1.773 -0.8363 -0.5123 -0.2088
 3146TIP3   OH231072   3.391   2.126   7.004  0.1287 -0.8919 -0.2097
 3146TIP3    H131073   3.296   2.136   7.011  0.2421  0.1964 -0.0955
 3146TIP3    H231074   3.404   2.072   6.926 -0.6269 -2.1771  0.5263
 3147TIP3   OH231075   0.926   6.567   2.129 -0.5307  0.0847  0.4990
 3147TIP3    H131076   0.904   6.616   2.050  1.4926 -0.4031 -0.4368
 3147TIP3    H231077   0.943   6.478   2.098  1.4513  0.1515  1.2628
 3148TIP3   OH231078   2.072   4.316   1.552 -0.7637 -0.2116 -0.2943
 3148TIP3    H131079   2.036   4.349   1.635 -0.0137 -0.0951 -0.0066
 3148TIP3    H231080   2.037   4.376   1.486  1.4009  1.9297  0.3265
 3149TIP3   OH231081   4.153   0.121   6.899  0.5539  0.0262  0.0670
 3149TIP3    H131082   4.192   0.124   6.986 -0.4964  0.4484  0.5513
 3149TIP3    H231083   4.208   0.061   6.849 -0.1836 -2.1819  1.7206
 3150TIP3   OH231084   0.332   2.775   7.517  0.2202 -0.2110  0.0754
 3150TIP3    H131085   0.347   2.704   7.454  3.6412 -1.0157  1.6169
 3150TIP3    H231086   0.384   2.848   7.484 -1.8063  1.0928 -0.4790
 3151TIP3   OH231087   1.880   3.106   1.221 -0.5090 -0.0109  0.2136
 3151TIP3    H131088   1.807   3.165   1.207  1.2935  2.0618 -1.2223
 3151TIP3    H231089   1.950   3.162   1.255  1.7960 -0.8111 -2.7158
 3152TIP3   OH231090   4.755   4.060   0.315  0.6249  0.2194  0.2248
 3152TIP3    H131091   4.800   4.012   0.245 -3.0980 -2.4012 -0.7007
 3152TIP3    H231092   4.779   4.151   0.302  3.3903 -0.6780 -1.7678
 3153TIP3   OH231093   0.562   4.965   1.851  0.6954  0.1438 -0.4730
 3153TIP3    H131094   0.492   5.026   1.826  1.3411  1.2766  0.3999
 3153TIP3    H231095   0.643   5.011   1.828  1.2349  0.1547  1.2878
 3154TIP3   OH231096   0.462   1.061   8.699  0.2131 -0.6386 -0.2281
 3154TIP3    H131097   0.508   1.140   8.729  0.5794 -0.4786 -1.1724
 3154TIP3    H231098   0.371   1.090   8.688  0.2777 -0.4350 -0.2381
 3155TIP3   OH231099   1.971   1.298   0.793  0.0413  0.3092  0.0559
 3155TIP3    H131100   1.995   1.300   0.886  0.2658  1.4534 -0.0116
 3155TIP3    H231101   1.982   1.388   0.763 -0.4362  0.0423 -0.9869
 3156TIP3   OH231102   6.695   2.383   1.254 -0.2036  0.3221 -0.1460
 3156TIP3    H131103   6.757   2.430   1.198  1.2654 -1.6703 -0.2617
 3156TIP3    H231104   6.658   2.452   1.310  1.4269  1.7243 -0.6841
 3157TIP3   OH231105   3.533   3.758   7.692 -0.5038 -0.2698  0.0294
 3157TIP3    H131106   3.519   3.676   7.738  2.0738 -0.8036  0.0446
 3157TIP3    H231107   3.556   3.732   7.603  1.6794  0.2937  0.3717
 3158TIP3   OH231108   5.882   6.241   7.777 -0.4275  0.2216 -0.0273
 3158TIP3    H131109   5.807   6.191   7.743 -0.1449 -0.3866  0.2243
 3158TIP3    H231110   5.955   6.214   7.722 -0.1698 -0.0339  0.4317
 3159TIP3   OH231111   3.324   5.178   0.277 -0.5575  0.7315 -0.2088
 3159TIP3    H131112   3.249   5.118   0.272 -1.0118  1.2976 -0.3534
 3159TIP3    H231113   3.383   5.137   0.340 -0.3583 -0.3958 -1.0877
 3160TIP3   OH231114   4.983   3.668   8.705  0.0424  0.0993  0.1216
 3160TIP3    H131115   4.897   3.711   8.701  0.5115  1.0104 -0.2525
 3160TIP3    H231116   5.000   3.643   8.614 -0.1967 -0.8419  0.3243
 3161TIP3   OH231117   1.913   2.413   7.641 -0.4068 -0.0921 -0.5216
 3161TIP3    H131118   1.867   2.480   7.691 -0.1313 -0.5058  0.2952
 3161TIP3    H231119   1.844   2.363   7.598 -0.6628  0.0514 -0.2788
 3162TIP3   OH231120   4.537   6.029   6.467  0.5031 -0.3516  0.2628
 3162TIP3    H131121   4.585   6.079   6.532  0.1850  0.6935 -0.2740
 3162TIP3    H231122   4.605   5.987   6.413  0.7661 -0.8703  0.9885
 3163TIP3   OH231123   3.125   3.721   0.926 -0.3408  0.0758 -0.3689
 3163TIP3    H131124   3.158   3.731   0.837 -0.2211  0.1326 -0.3178
 3163TIP3    H231125   3.087   3.633   0.928  1.0290 -0.5265 -0.0261
 3164TIP3   OH231126   5.920   0.158   1.052  0.0847 -0.3148  0.3312
 3164TIP3    H131127   5.917   0.069   1.017 -0.8803 -0.2805  0.2877
 3164TIP3    H231128   5.875   0.211   0.986 -0.7507 -0.0687  1.0755
 3165TIP3   OH231129   0.187   4.126   0.138  0.0032  0.2617 -0.3086
 3165TIP3    H131130   0.106   4.088   0.104 -0.1093  0.5381 -0.3556
 3165TIP3    H231131   0.256   4.080   0.091 -0.0498 -1.1386  0.9078
 3166TIP3   OH231132   6.065   2.521   1.161 -0.1836  0.4373  0.1755
 3166TIP3    H131133   6.106   2.563   1.237 -1.2290 -0.0046  1.0157
 3166TIP3    H231134   6.119   2.444   1.143  0.4022  0.8587  0.0933
 3167TIP3   OH231135   6.243   4.681   7.458 -0.1309  0.3697 -0.4198
 3167TIP3    H131136   6.337   4.697   7.448 -0.0725 -0.2216 -0.8411
 3167TIP3    H231137   6.201   4.753   7.410  0.1293 -0.6295 -2.2130
 3168TIP3   OH231138   2.333   3.348   1.178  0.2428 -0.1684 -0.3974
 3168TIP3    H131139   2.308   3.362   1.269 -0.9042 -1.3992 -0.4966
 3168TIP3    H231140   2.254   3.370   1.127  1.1557  1.4694 -1.2122
 3169TIP3   OH231141   4.125   6.310   7.189  0.6524 -0.6411  0.1586
 3169TIP3    H131142   4.118   6.379   7.255  0.7009 -0.0291 -0.4645
 3169TIP3    H231143   4.125   6.228   7.239 -1.3372 -0.2925  0.8058
 3170TIP3   OH231144   3.956   2.996   1.314  0.4717 -0.0264  0.3829
 3170TIP3    H131145   3.890   3.045   1.363 -0.2068 -2.5199  2.1314
 3170TIP3    H231146   4.012   2.957   1.381  1.8885 -0.4503 -0.9861
 3171TIP3   OH231147   1.116   6.145   1.949 -0.0871  0.1068 -0.8772
 3171TIP3    H131148   1.162   6.134   2.032  0.2630  1.9367 -0.7853
 3171TIP3    H231149   1.146   6.071   1.895  2.3005  0.7158 -0.5067
 3172TIP3   OH231150   6.344   0.078   0.919  1.1229 -0.1145  0.1087
 3172TIP3    H131151   6.289   0.002   0.904  2.9783 -1.6329  0.6471
 3172TIP3    H231152   6.292   0.134   0.977 -0.5081 -0.6377 -0.7665
 3173TIP3   OH231153   4.570   1.995   7.963  0.0417  0.5598  0.9101
 3173TIP3    H131154   4.557   2.007   8.057  3.4915 -0.0930  1.6323
 3173TIP3    H231155   4.647   1.938   7.957  0.8685  1.7947 -2.2722
 3174TIP3   OH231156   2.540   4.441   7.541 -0.6478  0.6341 -0.9319
 3174TIP3    H131157   2.620   4.446   7.488 -0.3391  0.4500 -0.4873
 3174TIP3    H231158   2.471   4.421   7.478 -0.2853  0.4291 -1.2668
 3175TIP3   OH231159   2.208   0.127   0.818  0.0471 -0.0894  0.4007
 3175TIP3    H131160   2.244   0.151   0.733  0.4820  2.5386  1.2199
 3175TIP3    H231161   2.265   0.057   0.850 -0.4085 -1.4657 -1.5988
 3176TIP3   OH231162   4.029   0.729   1.138 -0.3721 -0.1309  0.2936
 3176TIP3    H131163   4.108   0.783   1.140  0.3106 -0.9865 -1.1805
 3176TIP3    H231164   4.042   0.672   1.062 -2.0074 -0.9199  0.5679
 3177TIP3   OH231165   5.658   1.193   7.208 -0.5444  0.5786 -0.0672
 3177TIP3    H131166   5.619   1.212   7.294 -1.6789 -1.1050 -0.1438
 3177TIP3    H231167   5.714   1.116   7.225  1.3783  1.8563 -0.3363
 3178TIP3   OH231168   0.139   0.661   8.120  0.2798 -0.1011 -0.2288
 3178TIP3    H131169   0.197   0.636   8.191  2.6730  0.8023 -1.7420
 3178TIP3    H231170   0.142   0.588   8.059  0.0893  0.0880 -0.4681
 3179TIP3   OH231171   0.397   2.222   8.165 -0.0164 -0.3571  0.1101
 3179TIP3    H131172   0.489   2.208   8.143 -0.6112 -2.2143 -1.5903
 3179TIP3    H231173   0.395   2.230   8.260  1.9861  0.7041  0.0998
 3180TIP3   OH231174   3.959   5.391   0.679 -0.7210  0.8066 -0.2636
 3180TIP3    H131175   4.022   5.452   0.641  0.9553  0.9377  2.4520
 3180TIP3    H231176   4.012   5.332   0.733 -2.7249 -0.4081  0.5115
 3181TIP3   OH231177   2.572   0.553   7.347 -0.5341  0.5423  0.8616
 3181TIP3    H131178   2.559   0.628   7.405  2.9087  2.4271 -0.5728
 3181TIP3    H231179   2.529   0.577   7.265  2.2053  2.0143 -0.2721
 3182TIP3   OH231180   0.033   0.274   0.893  0.2239  0.7822  0.4167
 3182TIP3    H131181   0.018   0.361   0.930 -2.4390 -0.7714  3.5855
 3182TIP3    H231182  -0.037   0.263   0.828 -0.3879  0.5300  1.1005
 3183TIP3   OH231183   6.425   3.474   1.898  0.8515 -0.1905  0.2064
 3183TIP3    H131184   6.487   3.545   1.880  0.3491  0.1168 -0.3282
 3183TIP3    H231185   6.477   3.409   1.946  1.1585  0.8038  1.2655
 3184TIP3   OH231186   2.793   2.897   2.283  0.3706  0.0957 -0.1333
 3184TIP3    H131187   2.811   2.989   2.265  0.6147  0.0113 -0.3181
 3184TIP3    H231188   2.703   2.884   2.254  0.0120  0.5088  0.7570
 3185TIP3   OH231189   6.840   1.285   0.295 -0.4461  0.3717  0.2803
 3185TIP3    H131190   6.767   1.222   0.289  0.7592 -1.0353 -0.2593
 3185TIP3    H231191   6.824   1.333   0.376 -2.7795  1.1674 -0.5574
 3186TIP3   OH231192   4.035   1.441   7.069 -0.2923 -0.5117  0.0620
 3186TIP3    H131193   4.092   1.365   7.060  1.0593  0.4956 -0.2816
 3186TIP3    H231194   3.947   1.405   7.077  0.4009 -2.1265  0.7137
 3187TIP3   OH231195   3.502   2.979   8.570 -0.3082  0.3367 -0.1977
 3187TIP3    H131196   3.584   3.022   8.544  0.7906 -1.6323 -0.1712
 3187TIP3    H231197   3.444   2.990   8.495  1.0948 -0.9470 -1.5468
 3188TIP3   OH231198   0.101   0.598   1.942 -0.0364  0.1869  0.0989
 3188TIP3    H131199   0.193   0.613   1.920  0.5729 -1.7338  1.2127
 3188TIP3    H231200   0.103   0.542   2.019 -2.1498 -0.2983 -0.1450
 3189TIP3   OH231201   4.878   3.216   0.872 -0.2513  0.4369 -0.2021
 3189TIP3    H131202   4.835   3.143   0.827  1.5509 -0.3506 -0.7377
 3189TIP3    H231203   4.880   3.189   0.964 -0.3411  0.1972 -0.2700
 3190TIP3   OH231204   5.752   1.790   8.412 -1.0471 -0.5285 -0.6029
 3190TIP3    H131205   5.667   1.774   8.453 -1.4623 -0.2155 -1.3232
 3190TIP3    H231206   5.731   1.826   8.326 -0.1927  1.1221 -0.1681
 3191TIP3   OH231207   0.947   5.319   0.142  0.5473 -0.2049  0.5836
 3191TIP3    H131208   1.013   5.359   0.087  1.4210  0.0157  1.7465
 3191TIP3    H231209   0.934   5.232   0.106  2.0112 -0.5114  0.7576
 3192TIP3   OH231210   6.157   3.566   1.688  0.4706  0.2933  0.0901
 3192TIP3    H131211   6.150   3.490   1.746 -0.4438 -0.1099 -0.5123
 3192TIP3    H231212   6.119   3.638   1.739  1.3002  0.3477  0.6480
 3193TIP3   OH231213   4.250   0.529   8.149 -0.0605  0.2272  0.3412
 3193TIP3    H131214   4.286   0.556   8.233  0.9193  1.4714 -0.4492
 3193TIP3    H231215   4.320   0.544   8.086 -1.1245  0.3512 -0.8671
 3194TIP3   OH231216   5.332   1.748   8.401  0.7535  0.4149  0.2798
 3194TIP3    H131217   5.274   1.801   8.456  0.6809 -0.0345  0.6408
 3194TIP3    H231218   5.349   1.803   8.324  0.5107  0.8742  0.5518
 3195TIP3   OH231219   5.299   4.864   6.918 -0.1986 -0.0128 -0.7669
 3195TIP3    H131220   5.215   4.869   6.872 -0.8456 -0.1050  0.3659
 3195TIP3    H231221   5.353   4.808   6.863 -1.1372 -0.5728 -1.1492
 3196TIP3   OH231222   6.297   3.463   6.882 -0.4864  0.4772  0.1605
 3196TIP3    H131223   6.310   3.518   6.804  0.2709 -0.1404 -0.1648
 3196TIP3    H231224   6.371   3.485   6.939  0.4143 -0.9253 -0.4169
 3197TIP3   OH231225   4.675   5.881   6.283 -0.3354 -0.2483  0.3876
 3197TIP3    H131226   4.727   5.922   6.213  2.3384  0.4463  2.5960
 3197TIP3    H231227   4.593   5.856   6.240  0.5102  1.5395 -2.5979
 3198TIP3   OH231228   1.010   0.220   8.287  0.4116  0.7177  0.1962
 3198TIP3    H131229   0.967   0.252   8.208  0.1806 -1.7107 -0.7181
 3198TIP3    H231230   1.102   0.210   8.262  0.5889  1.1052  0.6500
 3199TIP3   OH231231   0.086   1.090   7.634 -0.5271 -0.2462  0.7150
 3199TIP3    H131232   0.052   1.054   7.553 -1.2750  1.3686  0.2731
 3199TIP3    H231233   0.018   1.073   7.699 -0.6301 -0.1363  0.6363
 3200TIP3   OH231234   1.503   0.304   0.500  0.1538  0.2436 -0.1448
 3200TIP3    H131235   1.517   0.216   0.536  0.3898 -0.2853 -1.4563
 3200TIP3    H231236   1.409   0.320   0.512  0.1279 -0.1423  0.1915
 3201TIP3   OH231237   3.619   2.168   0.193 -0.1565  0.2327  0.1070
 3201TIP3    H131238   3.576   2.246   0.158 -0.9870  0.4418  1.5281
 3201TIP3    H231239   3.707   2.197   0.214 -0.4055  0.7385  0.4563
 3202TIP3   OH231240   0.597   2.999   7.715  0.6045 -0.2967 -0.6067
 3202TIP3    H131241   0.502   2.999   7.731  0.5905 -1.0671 -0.6578
 3202TIP3    H231242   0.614   3.085   7.677 -0.1959 -0.4106 -1.2721
 3203TIP3   OH231243   4.058   1.581   0.513 -0.2047  0.8597 -0.0293
 3203TIP3    H131244   4.149   1.593   0.485 -0.3751  2.8594  0.1656
 3203TIP3    H231245   4.041   1.488   0.497  1.9101  0.3959  0.0668
 3204TIP3   OH231246   3.138   3.209   0.431  0.6762  0.0437  0.0408
 3204TIP3    H131247   3.093   3.252   0.504  3.0084  2.5010  0.1877
 3204TIP3    H231248   3.127   3.269   0.357  0.9348 -0.9334 -0.8104
 3205TIP3   OH231249   1.334   4.723   1.835 -0.1548 -0.1499  0.7619
 3205TIP3    H131250   1.416   4.769   1.822 -0.4106  0.8644  2.5062
 3205TIP3    H231251   1.343   4.643   1.782  2.0522 -0.2109  1.1323
 3206TIP3   OH231252   2.614   4.810   8.294  0.1420 -0.3505 -0.0262
 3206TIP3    H131253   2.636   4.782   8.383  0.3496 -1.1274 -0.3167
 3206TIP3    H231254   2.652   4.743   8.237  0.4363  0.3980 -0.7318
 3207TIP3   OH231255   5.369   0.476   0.239 -0.2409  0.1130 -0.4867
 3207TIP3    H131256   5.418   0.439   0.312 -1.6363 -0.8538  0.0170
 3207TIP3    H231257   5.325   0.552   0.276  0.2564  0.5249 -0.7338
 3208TIP3   OH231258   1.505   1.983   8.242  0.4037  0.0815  0.1481
 3208TIP3    H131259   1.485   1.899   8.284 -0.3800 -0.6359 -1.5834
 3208TIP3    H231260   1.564   2.027   8.304  0.5526 -1.5777  1.2518
 3209TIP3   OH231261   0.130   4.017   2.353  0.1078  0.1435 -0.1143
 3209TIP3    H131262   0.125   4.075   2.278 -1.6715  0.3401  0.1036
 3209TIP3    H231263   0.212   4.040   2.396  0.7232  0.6322 -1.4990
 3210TIP3   OH231264   0.555   2.938   0.753 -0.7066 -0.2915  0.1198
 3210TIP3    H131265   0.550   2.994   0.831  0.4795 -0.8860  0.6383
 3210TIP3    H231266   0.467   2.899   0.746 -1.1469  0.5861  0.5219
 3211TIP3   OH231267   4.311   2.117   7.305 -0.3986 -0.4038  0.4548
 3211TIP3    H131268   4.355   2.035   7.283 -0.2087  0.1185 -1.2039
 3211TIP3    H231269   4.274   2.148   7.222  2.2249  2.8233  0.3097
 3212TIP3   OH231270   0.297   2.298   0.708  0.5525 -0.3228 -0.5836
 3212TIP3    H131271   0.242   2.271   0.634 -0.5436  0.0736  0.0549
 3212TIP3    H231272   0.321   2.216   0.752  0.5301 -0.5060 -0.9098
 3213TIP3   OH231273   5.017   0.289   7.737 -0.1885 -0.4319 -0.1328
 3213TIP3    H131274   4.959   0.287   7.813  2.0162 -0.9045  1.6757
 3213TIP3    H231275   4.963   0.258   7.664 -2.4226  0.1298  1.2027
 3214TIP3   OH231276   0.917   2.625   7.124 -0.1617 -0.1758 -0.2303
 3214TIP3    H131277   0.991   2.679   7.153 -1.0624  1.4862 -0.8733
 3214TIP3    H231278   0.861   2.617   7.201 -1.2105  1.9274 -0.7082
 3215TIP3   OH231279   0.893   3.304   8.501 -0.5892 -0.4724  0.2259
 3215TIP3    H131280   0.980   3.326   8.468 -1.1607 -0.2390 -1.1916
 3215TIP3    H231281   0.850   3.260   8.428 -2.2941  1.0703  0.2475
 3216TIP3   OH231282   4.882   6.495   6.740  0.3490 -0.4356  0.2124
 3216TIP3    H131283   4.829   6.416   6.750 -1.7351  0.9736  0.8936
 3216TIP3    H231284   4.902   6.521   6.830 -1.4899  1.3643  0.1602
 3217TIP3   OH231285   3.942   2.966   8.056 -0.1551 -0.2293 -0.0754
 3217TIP3    H131286   3.993   2.896   8.015  2.0392  2.1865 -1.7915
 3217TIP3    H231287   4.001   3.041   8.057 -2.0028  1.3423  2.7423
 3218TIP3   OH231288   5.444   2.016   1.523 -0.1061 -0.5084  0.0848
 3218TIP3    H131289   5.454   2.103   1.484  0.6210  0.3228  2.0312
 3218TIP3    H231290   5.450   1.956   1.448  0.1967  1.0537 -1.1992
 3219TIP3   OH231291   2.372   2.824   1.126  0.1413 -0.0014 -0.4700
 3219TIP3    H131292   2.363   2.776   1.208  0.8997  0.1355 -0.2979
 3219TIP3    H231293   2.330   2.908   1.143  1.4342  0.5365  0.2332
 3220TIP3   OH231294   2.256   0.806   7.929 -0.0102 -0.0644 -0.4110
 3220TIP3    H131295   2.183   0.800   7.867 -0.6630  0.2235  0.3105
 3220TIP3    H231296   2.237   0.740   7.995  0.1750  0.2791 -0.0059
 3221TIP3   OH231297   5.443   1.174   1.226  0.7103 -0.0514 -0.2566
 3221TIP3    H131298   5.483   1.109   1.283  0.7401  0.7628  0.6846
 3221TIP3    H231299   5.351   1.178   1.254  1.0088  1.2653  0.6522
 3222TIP3   OH231300   6.820   1.396   6.732 -0.1085  0.2563 -0.3728
 3222TIP3    H131301   6.864   1.313   6.750 -0.0415  0.7724  2.3043
 3222TIP3    H231302   6.861   1.458   6.793 -3.1215  1.1918  0.8934
 3223TIP3   OH231303   2.453   2.337   7.336 -0.3491  0.2208  0.0234
 3223TIP3    H131304   2.424   2.265   7.280  1.4383  1.1898 -2.2887
 3223TIP3    H231305   2.513   2.388   7.282  0.4213  2.0480  2.3981
 3224TIP3   OH231306   4.616   3.642   8.283  0.0623  0.2814  0.3106
 3224TIP3    H131307   4.587   3.673   8.368  1.5286  0.3275  0.8255
 3224TIP3    H231308   4.598   3.715   8.223 -0.6441  0.3818  0.6361
 3225TIP3   OH231309   3.433   4.171   7.237 -0.7850 -0.3729  0.2429
 3225TIP3    H131310   3.412   4.079   7.250 -1.0703 -0.3352  0.0648
 3225TIP3    H231311   3.414   4.188   7.145 -1.1406 -0.0344  0.3741
 3226TIP3   OH231312   5.911   3.745   2.114  0.6978  0.3704 -0.6034
 3226TIP3    H131313   5.828   3.704   2.141 -0.0381  0.6163 -2.2978
 3226TIP3    H231314   5.900   3.837   2.135 -0.5278  0.8556 -2.9464
 3227TIP3   OH231315   3.742   5.991   8.753 -0.2227 -0.4100  0.1319
 3227TIP3    H131316   3.835   5.979   8.775  0.0234 -0.0391 -0.6459
 3227TIP3    H231317   3.717   6.072   8.797 -0.0478 -0.2691 -0.0259
 3228TIP3   OH231318   5.113   3.845   7.475 -0.2187 -0.1902 -0.2922
 3228TIP3    H131319   5.199   3.807   7.492  0.1398  0.9387  0.6010
 3228TIP3    H231320   5.065   3.777   7.427  0.9806 -1.0384 -0.3388
 3229TIP3   OH231321   4.115   0.637   1.786 -0.7551 -0.5380  0.2852
 3229TIP3    H131322   4.090   0.568   1.848  1.3805 -1.0353  0.6662
 3229TIP3    H231323   4.188   0.682   1.829 -0.3239  0.1916 -1.1538
 3230TIP3   OH231324   3.070   4.225   6.588  0.1803  0.1930 -0.3503
 3230TIP3    H131325   3.006   4.249   6.656  0.4162  0.5202 -0.2429
 3230TIP3    H231326   3.064   4.296   6.524  0.6572  0.3816 -0.1873
 3231TIP3   OH231327   5.422   6.653   0.252 -0.1470 -0.7456 -0.7479
 3231TIP3    H131328   5.480   6.679   0.181 -1.0194 -1.6731 -1.8412
 3231TIP3    H231329   5.338   6.694   0.231 -0.0756  0.0840  0.4879
 3232TIP3   OH231330   3.677   1.517   1.378 -0.1184 -0.1643 -0.6129
 3232TIP3    H131331   3.705   1.498   1.468 -1.2787  3.9364  0.8407
 3232TIP3    H231332   3.750   1.565   1.340 -0.0977 -0.8699 -1.4797
 3233TIP3   OH231333   0.458   6.747   1.068  0.0999 -0.0670 -0.2251
 3233TIP3    H131334   0.532   6.742   1.129 -0.4265  0.6770  0.4823
 3233TIP3    H231335   0.499   6.740   0.981  0.8363 -1.3505  0.1927
 3234TIP3   OH231336   5.813   0.185   2.191  0.1658  0.2402  0.5149
 3234TIP3    H131337   5.845   0.240   2.119 -1.0566 -0.6834 -0.7889
 3234TIP3    H231338   5.876   0.199   2.261  0.6998  2.1836 -0.2644
 3235TIP3   OH231339   2.979   5.501   0.011 -0.4340  0.0780 -0.5784
 3235TIP3    H131340   2.936   5.537  -0.067 -1.8896  0.7151  0.4910
 3235TIP3    H231341   2.910   5.454   0.057  0.7013 -1.4096 -0.2876
 3236TIP3   OH231342   1.843   2.689   6.651  0.0164  0.3515  0.0672
 3236TIP3    H131343   1.765   2.635   6.640 -1.1302  1.8969  0.2179
 3236TIP3    H231344   1.824   2.769   6.602  1.1489  1.1135  0.8186
 3237TIP3   OH231345   5.974   2.898   7.505  0.5667 -0.2838  0.2384
 3237TIP3    H131346   5.931   2.926   7.585 -0.4211 -0.6483 -0.1460
 3237TIP3    H231347   5.946   2.807   7.493  1.6875 -0.6374  0.1194
 3238TIP3   OH231348   1.409   4.534   7.982  0.1469 -0.2388 -0.0021
 3238TIP3    H131349   1.332   4.484   8.010 -0.1932  0.5238  0.4647
 3238TIP3    H231350   1.450   4.563   8.063 -0.5056  1.4897 -0.2516
 3239TIP3   OH231351   1.564   5.060   2.342 -0.2240  0.1339 -0.2623
 3239TIP3    H131352   1.522   5.135   2.300  0.0973  1.7240  2.0475
 3239TIP3    H231353   1.657   5.074   2.327 -0.2592 -1.6634 -2.6374
 3240TIP3   OH231354   6.432   3.896   6.988 -0.1885  0.2645 -0.2378
 3240TIP3    H131355   6.389   3.850   6.916  0.8782 -0.6351 -0.3233
 3240TIP3    H231356   6.444   3.829   7.055 -0.6113  0.9493  0.5440
 3241TIP3   OH231357   3.861   1.295   0.886 -0.1503 -0.2975  0.2266
 3241TIP3    H131358   3.857   1.253   0.800 -1.3854 -1.3510  0.7654
 3241TIP3    H231359   3.798   1.367   0.880  0.0655 -0.1184  0.1167
 3242TIP3   OH231360   3.032   1.085   6.905 -0.3847  0.2652  0.3753
 3242TIP3    H131361   3.070   1.163   6.946 -0.9281  0.8273 -0.1560
 3242TIP3    H231362   3.092   1.065   6.833 -0.1132  0.0387  0.6600
 3243TIP3   OH231363   1.451   1.641   1.685 -0.4113  0.0392  0.2163
 3243TIP3    H131364   1.404   1.559   1.675 -0.9029  0.2159  0.9340
 3243TIP3    H231365   1.526   1.620   1.741 -0.3912  0.0239  0.1834
 3244TIP3   OH231366   4.379   0.626   1.327  0.0822 -0.4710 -0.4178
 3244TIP3    H131367   4.466   0.586   1.328  0.7389  0.8659 -1.3523
 3244TIP3    H231368   4.395   0.717   1.304 -1.5541 -0.1285 -0.3072
 3245TIP3   OH231369   3.336   3.170   7.099  0.0915 -0.1061 -0.6094
 3245TIP3    H131370   3.261   3.141   7.048 -0.4243  0.4117 -0.1436
 3245TIP3    H231371   3.355   3.096   7.158 -1.0006  0.3358  0.3252
 3246TIP3   OH231372   0.103   4.032   1.341  0.0151 -0.1858 -0.1427
 3246TIP3    H131373   0.173   3.968   1.329 -1.7423 -2.0860 -0.7441
 3246TIP3    H231374   0.090   4.071   1.255  1.9366  2.0666  0.4593
 3247TIP3   OH231375   2.658   5.311   1.807  0.3031 -0.0849 -0.5279
 3247TIP3    H131376   2.684   5.253   1.879 -0.3540  0.1603 -0.0880
 3247TIP3    H231377   2.566   5.329   1.822  0.6582  1.6791 -0.2389
 3248TIP3   OH231378   4.915   0.711   6.729 -0.6708 -0.4749  0.3687
 3248TIP3    H131379   4.874   0.647   6.787  0.4265 -0.9105  0.6888
 3248TIP3    H231380   5.007   0.714   6.757 -0.5611  0.7708 -0.0554
 3249TIP3   OH231381   6.318   4.116   2.648 -0.4492  0.5179 -0.3129
 3249TIP3    H131382   6.340   4.023   2.660 -0.3296  0.5698 -0.1405
 3249TIP3    H231383   6.400   4.157   2.624 -0.5714  0.5183 -0.7368
 3250TIP3   OH231384   1.786   2.789   2.124 -0.3104 -0.1303  0.0127
 3250TIP3    H131385   1.845   2.734   2.175  0.4173  1.0059  0.4314
 3250TIP3    H231386   1.807   2.879   2.151 -1.1982  0.3843 -0.9291
 3251TIP3   OH231387   3.258   6.645   1.933  0.2851  0.6706 -0.0379
 3251TIP3    H131388   3.331   6.703   1.957  1.2952 -1.0788  1.4432
 3251TIP3    H231389   3.222   6.616   2.017 -0.1490 -0.8459 -0.7123
 3252TIP3   OH231390   4.427   0.456   5.900  0.1296  0.1939  0.3386
 3252TIP3    H131391   4.355   0.510   5.934  0.0211 -0.6793  1.5728
 3252TIP3    H231392   4.501   0.517   5.893 -0.3608  0.8067  0.3741
 3253TIP3   OH231393   6.346   1.210   0.464 -0.6536  0.1423 -0.4749
 3253TIP3    H131394   6.259   1.245   0.484 -0.8549 -1.4270  1.6439
 3253TIP3    H231395   6.375   1.168   0.545  1.4638 -0.6755 -1.5789
 3254TIP3   OH231396   0.252   6.151   2.467  0.2453 -0.5916 -0.4647
 3254TIP3    H131397   0.335   6.168   2.510  0.3437 -2.7606  0.3235
 3254TIP3    H231398   0.273   6.087   2.399 -0.2936  1.1383 -2.3778
 3255TIP3   OH231399   3.077   1.505   8.344 -0.1090  0.6827  0.1156
 3255TIP3    H131400   2.988   1.511   8.378 -0.3578 -2.6918  0.3557
 3255TIP3    H231401   3.068   1.524   8.250 -1.3347 -0.8255 -0.0977
 3256TIP3   OH231402   2.566   3.605   0.220  0.0058 -0.4948 -0.1849
 3256TIP3    H131403   2.589   3.679   0.277  0.7217 -0.6621 -0.2429
 3256TIP3    H231404   2.528   3.540   0.278 -1.0488  0.0859 -0.1970
 3257TIP3   OH231405   0.511   3.794   1.870  0.2973  0.4656 -0.0472
 3257TIP3    H131406   0.474   3.882   1.859  0.2544  0.5483  0.6609
 3257TIP3    H231407   0.606   3.807   1.864  0.2376  0.1889 -2.2876
 3258TIP3   OH231408   6.441   2.260   0.644  0.2279 -0.3549  0.0944
 3258TIP3    H131409   6.422   2.344   0.685  2.3450 -0.5687  1.6408
 3258TIP3    H231410   6.535   2.247   0.656  0.2107 -2.3287 -1.3063
 3259TIP3   OH231411   6.448   0.458   0.204 -0.0449  0.3471  0.0027
 3259TIP3    H131412   6.448   0.482   0.112 -3.2865  1.4657  0.1755
 3259TIP3    H231413   6.448   0.362   0.204  1.2249  0.3150 -1.0603
 3260TIP3   OH231414   5.764   6.479   8.134 -0.5422  0.6370  0.2389
 3260TIP3    H131415   5.844   6.485   8.186 -0.6605  0.2332  0.4666
 3260TIP3    H231416   5.763   6.560   8.083 -0.2054  0.8362  0.5450
 3261TIP3   OH231417   6.789   4.419   0.810  0.0520  0.5172  0.4870
 3261TIP3    H131418   6.807   4.506   0.846 -0.9459  0.7673  0.4327
 3261TIP3    H231419   6.707   4.430   0.761 -0.3648 -0.5668  0.9078
 3262TIP3   OH231420   3.582   6.776   2.387  0.1032  0.5810  0.8165
 3262TIP3    H131421   3.544   6.728   2.314  0.5380  1.4302  0.0048
 3262TIP3    H231422   3.523   6.850   2.401 -0.8851 -0.4495  2.4432
 3263TIP3   OH231423   3.120   3.191   7.716 -0.0183 -0.3589 -0.1439
 3263TIP3    H131424   3.086   3.132   7.649 -0.8166  1.2617 -1.2067
 3263TIP3    H231425   3.051   3.193   7.783  0.3923 -1.2752  0.3321
 3264TIP3   OH231426   2.090   2.628   7.002 -0.2287 -0.6226 -0.1766
 3264TIP3    H131427   2.163   2.631   7.064 -1.6809 -2.1627  1.7460
 3264TIP3    H231428   2.127   2.585   6.924  1.0846 -0.7449  0.4753
 3265TIP3   OH231429   1.999   0.231   0.972  0.0577  0.1153  0.3614
 3265TIP3    H131430   2.065   0.172   0.936 -0.6276 -1.4472  1.5092
 3265TIP3    H231431   1.939   0.247   0.899  0.3189 -0.5332 -0.0024
 3266TIP3   OH231432   2.759   2.335   7.783 -0.1380 -0.3367 -0.3079
 3266TIP3    H131433   2.754   2.394   7.858  0.4427 -0.7685  0.0857
 3266TIP3    H231434   2.669   2.325   7.754 -0.2468  0.7204 -0.3671
 3267TIP3   OH231435   5.047   3.566   7.821 -0.4411 -0.7680  0.3176
 3267TIP3    H131436   5.017   3.651   7.853 -0.4763  0.2745 -2.2661
 3267TIP3    H231437   5.102   3.587   7.746  1.1890 -2.9756  0.7986
 3268TIP3   OH231438   4.232   2.035   1.989 -0.4320 -0.2901  0.2211
 3268TIP3    H131439   4.185   2.021   1.907 -0.3394 -2.3286  0.4621
 3268TIP3    H231440   4.315   1.990   1.978 -0.0929  0.0741  1.1607
 3269TIP3   OH231441   0.299   3.019   0.961 -0.3834  0.2996 -0.1263
 3269TIP3    H131442   0.292   3.017   1.056  1.6335 -1.9385  0.0739
 3269TIP3    H231443   0.304   3.112   0.939  1.3453  0.8340  2.1886
 3270TIP3   OH231444   5.423   2.957   0.188 -0.2145  0.1515  0.0809
 3270TIP3    H131445   5.518   2.961   0.184 -0.1806  1.2845  1.3241
 3270TIP3    H231446   5.403   2.930   0.278 -1.0724 -0.6432 -0.3247
 3271TIP3   OH231447   1.414   5.745   0.437  0.5837 -0.0532 -0.4511
 3271TIP3    H131448   1.475   5.772   0.505 -0.1543  0.0498  0.1831
 3271TIP3    H231449   1.376   5.663   0.469 -0.6523  0.6122 -0.1534
 3272TIP3   OH231450   3.653   1.781   7.505 -0.0446 -0.5208 -0.0770
 3272TIP3    H131451   3.700   1.863   7.496 -0.0207 -0.2971  1.8367
 3272TIP3    H231452   3.580   1.801   7.563 -0.8999 -1.5202 -0.7651
 3273TIP3   OH231453   3.466   0.921   1.578 -0.3202  0.1548  0.4272
 3273TIP3    H131454   3.512   0.838   1.591  0.7226  0.6903  0.2213
 3273TIP3    H231455   3.455   0.928   1.483  1.4442  1.2002  0.2552
 3274TIP3   OH231456   3.016   4.369   0.166 -0.4685 -0.0996  0.3737
 3274TIP3    H131457   2.975   4.305   0.224  0.9819 -0.4907  1.0178
 3274TIP3    H231458   2.958   4.372   0.090 -1.4426 -0.9413  1.0461
 3275TIP3   OH231459   5.005   1.412   8.178  0.3567  0.4974 -0.4720
 3275TIP3    H131460   5.071   1.363   8.227 -0.5023  1.2871  1.5919
 3275TIP3    H231461   4.977   1.351   8.109 -0.5260 -1.9108  1.8335
 3276TIP3   OH231462   1.035   3.918   8.734 -0.3332  0.0424  0.2175
 3276TIP3    H131463   1.020   4.006   8.769  0.4028  1.2322 -2.2392
 3276TIP3    H231464   0.983   3.861   8.790 -1.0202  2.0599  1.7565
 3277TIP3   OH231465   2.608   0.049   7.799 -0.4168 -0.2554  0.0489
 3277TIP3    H131466   2.667   0.123   7.807  0.9993 -1.2941 -0.3043
 3277TIP3    H231467   2.541   0.064   7.865  1.2815  0.0516  1.7902
 3278TIP3   OH231468   1.180   3.878   6.693 -0.4434  0.2533 -0.6411
 3278TIP3    H131469   1.248   3.812   6.706 -1.4217 -0.5343  0.7382
 3278TIP3    H231470   1.097   3.831   6.703 -1.1896  1.5322 -0.4276
 3279TIP3   OH231471   3.518   1.187   1.858  0.1521 -0.7930 -0.2952
 3279TIP3    H131472   3.487   1.098   1.877 -1.6775  0.3097  2.6209
 3279TIP3    H231473   3.511   1.195   1.763 -2.9886 -2.6609 -0.3804
 3280TIP3   OH231474   5.895   1.478   0.663 -0.5049 -0.4413  0.0386
 3280TIP3    H131475   5.862   1.499   0.751  0.9403 -0.3850  0.5923
 3280TIP3    H231476   5.893   1.382   0.659  2.8999 -0.7447  1.6446
 3281TIP3   OH231477   1.934   3.853   7.996 -0.3545  0.6362 -0.1828
 3281TIP3    H131478   1.873   3.797   8.044  0.3685  1.1502  1.4327
 3281TIP3    H231479   2.004   3.871   8.059 -0.4900  3.2314 -0.6443
 3282TIP3   OH231480   4.916   0.493   6.560 -1.0575 -0.4965 -0.2224
 3282TIP3    H131481   4.966   0.563   6.601 -0.5138 -0.6140 -0.6724
 3282TIP3    H231482   4.868   0.535   6.489  0.0245 -0.7205 -1.1244
 3283TIP3   OH231483   2.950   3.009   0.287 -0.0463 -0.7487  0.0195
 3283TIP3    H131484   2.958   2.975   0.376 -1.9752  0.7211  0.8299
 3283TIP3    H231485   3.035   3.048   0.268  1.1170 -2.9819  0.3102
 3284TIP3   OH231486   3.206   0.760   6.864  0.2495  0.3265  0.2399
 3284TIP3    H131487   3.155   0.801   6.934  0.3356 -0.3453  0.7017
 3284TIP3    H231488   3.155   0.683   6.839  0.8607 -0.1627  0.4722
 3285TIP3   OH231489   3.246   3.658   0.637 -0.0473  0.0320  0.3401
 3285TIP3    H131490   3.191   3.733   0.611  0.0479  0.0777  0.2698
 3285TIP3    H231491   3.301   3.642   0.560 -2.2700 -2.1794 -0.9559
 3286TIP3   OH231492   5.646   0.098   0.289  0.0831 -0.8066  0.0373
 3286TIP3    H131493   5.736   0.107   0.257 -0.2602 -1.6505 -1.2402
 3286TIP3    H231494   5.613   0.187   0.294  0.6422 -0.5616 -0.5259
 3287TIP3   OH231495   5.590   5.463   1.228  0.2744  0.1811  0.0337
 3287TIP3    H131496   5.554   5.551   1.216 -0.7923 -0.3943 -1.2799
 3287TIP3    H231497   5.661   5.458   1.165 -0.9066 -0.5198 -1.2905
 3288TIP3   OH231498   0.283   5.899   1.526 -0.0152  0.2673  0.3804
 3288TIP3    H131499   0.346   5.971   1.522 -1.3066  1.3824 -1.3745
 3288TIP3    H231500   0.241   5.910   1.611  0.7584  0.7212  0.7172
 3289TIP3   OH231501   1.553   3.557   7.671 -0.7644  0.1254 -0.4158
 3289TIP3    H131502   1.493   3.611   7.619 -0.8027  1.5666  1.0263
 3289TIP3    H231503   1.577   3.613   7.745 -0.7074 -1.8124  1.1262
 3290TIP3   OH231504   6.846   6.070   8.565  0.8367 -0.1543  0.0323
 3290TIP3    H131505   6.793   6.145   8.592  0.7513 -0.6172  1.1790
 3290TIP3    H231506   6.931   6.107   8.542  0.4899  0.4063 -0.4024
 3291TIP3   OH231507   5.791   3.765   8.403 -0.1936  0.6672 -0.3192
 3291TIP3    H131508   5.851   3.696   8.430 -0.9064  0.1215 -0.1243
 3291TIP3    H231509   5.740   3.727   8.331 -0.0723  1.2449 -0.7193
 3292TIP3   OH231510   4.300   1.813   7.372 -0.2812  0.0865 -0.1853
 3292TIP3    H131511   4.368   1.756   7.336  0.7660  1.0920  0.1495
 3292TIP3    H231512   4.220   1.786   7.327  0.3462 -1.0538 -0.6644
 3293TIP3   OH231513   2.093   2.531   0.428  0.2466  0.1779  0.5091
 3293TIP3    H131514   2.048   2.557   0.508  1.1268  1.0535  0.7337
 3293TIP3    H231515   2.181   2.567   0.436  0.8054 -0.9590 -0.2104
 3294TIP3   OH231516   6.671   2.754   1.232  0.0316 -0.4117 -0.1032
 3294TIP3    H131517   6.580   2.767   1.203  0.4575 -0.4096 -1.5010
 3294TIP3    H231518   6.723   2.758   1.152  1.1386 -1.7319  0.4952
 3295TIP3   OH231519   3.441   5.691   1.436 -0.7355 -0.2658  0.1564
 3295TIP3    H131520   3.514   5.647   1.393 -0.2687  0.8814 -0.2589
 3295TIP3    H231521   3.364   5.642   1.410 -0.0474 -2.1351  1.4167
 3296TIP3   OH231522   2.459   3.780   8.709  0.6668  0.2924 -0.9587
 3296TIP3    H131523   2.466   3.868   8.746 -0.2366  0.5306 -1.3301
 3296TIP3    H231524   2.394   3.788   8.639  0.1483 -0.7879 -0.6237
 3297TIP3   OH231525   3.765   2.681   0.646 -0.2690 -0.2062  0.1973
 3297TIP3    H131526   3.812   2.754   0.687 -2.1085  0.5287  1.0993
 3297TIP3    H231527   3.778   2.695   0.552 -0.1607  0.9850  0.3755
 3298TIP3   OH231528   3.729   5.344   1.141 -0.0113 -0.1515  0.0392
 3298TIP3    H131529   3.809   5.363   1.190 -0.8042  0.0529  1.3095
 3298TIP3    H231530   3.688   5.430   1.128 -1.0498 -0.4347  1.2592
 3299TIP3   OH231531   6.639   3.758   0.497  0.5769  0.2372 -0.3418
 3299TIP3    H131532   6.678   3.824   0.555  1.6623  0.1268 -0.9159
 3299TIP3    H231533   6.548   3.752   0.526 -0.0977  3.3054 -1.3926
 3300TIP3   OH231534   0.706   1.516   8.419  0.1378  0.2047 -0.5639
 3300TIP3    H131535   0.615   1.492   8.402  0.2176 -0.4412 -0.1380
 3300TIP3    H231536   0.751   1.432   8.431  0.6136  0.5425  0.0796
 3301TIP3   OH231537   1.167   2.279   1.773  0.5972 -0.5464 -0.5928
 3301TIP3    H131538   1.136   2.270   1.864  0.9505 -1.6626 -0.5703
 3301TIP3    H231539   1.230   2.209   1.762  0.4712 -0.5006 -1.7532
 3302TIP3   OH231540   3.357   4.219   1.650 -0.4368 -0.0005  0.0737
 3302TIP3    H131541   3.358   4.143   1.590 -1.2968 -0.1553  0.2355
 3302TIP3    H231542   3.432   4.205   1.707  2.0390  1.4947 -2.5778
 3303TIP3   OH231543   2.712   2.797   1.428  0.9760 -0.1306 -0.4388
 3303TIP3    H131544   2.791   2.789   1.374  0.3076 -0.2671 -1.4306
 3303TIP3    H231545   2.646   2.746   1.381  0.2093  0.2451  0.2117
 3304TIP3   OH231546   0.165   0.528   7.296  0.1806 -0.1069 -0.3298
 3304TIP3    H131547   0.215   0.582   7.357 -0.1031 -0.4244  0.1882
 3304TIP3    H231548   0.230   0.467   7.261  0.0106 -1.0887  0.9918
 3305TIP3   OH231549   0.213   4.076   8.006 -0.0875 -0.4888 -0.6848
 3305TIP3    H131550   0.285   4.014   8.021 -1.1761 -1.6695 -0.1189
 3305TIP3    H231551   0.142   4.023   7.970 -0.8864  0.5354 -0.6793
 3306TIP3   OH231552   5.906   3.327   1.593  0.2589  0.1644  0.4605
 3306TIP3    H131553   5.833   3.277   1.559  0.4199  0.5075 -0.4353
 3306TIP3    H231554   5.881   3.419   1.579  0.5761  0.2993  0.7510
 3307TIP3   OH231555   0.740   6.635   6.828 -0.4789 -0.3270  0.7168
 3307TIP3    H131556   0.691   6.557   6.853 -0.1014 -0.5641  0.7284
 3307TIP3    H231557   0.675   6.704   6.822 -1.0194 -0.9143 -0.5277
 3308TIP3   OH231558   5.737   0.157   1.826  0.2254  0.3543 -0.0294
 3308TIP3    H131559   5.652   0.182   1.863  0.7705  2.2515  0.0301
 3308TIP3    H231560   5.798   0.222   1.860  1.4765 -0.2164 -1.1015
 3309TIP3   OH231561   3.797   1.994   7.457  0.1877  0.0328  0.4451
 3309TIP3    H131562   3.846   1.995   7.375  1.3558 -1.1906  1.0842
 3309TIP3    H231563   3.864   2.006   7.525 -0.4301 -1.3299  1.3316
 3310TIP3   OH231564   1.976   3.553   0.188 -0.1053 -0.1888  0.1829
 3310TIP3    H131565   1.904   3.491   0.197 -0.9354  0.8604  0.9265
 3310TIP3    H231566   2.037   3.530   0.259  0.4426 -1.2074 -0.5709
 3311TIP3   OH231567   0.622   3.259   8.080  0.5205  0.0780  0.1337
 3311TIP3    H131568   0.538   3.258   8.127  0.1659 -1.2309 -0.4813
 3311TIP3    H231569   0.610   3.326   8.013 -0.3911 -0.7100 -0.5268
 3312TIP3   OH231570   3.261   2.729   8.749 -0.5506 -0.1666  0.2985
 3312TIP3    H131571   3.352   2.716   8.722 -0.4915  0.7648  0.0409
 3312TIP3    H231572   3.213   2.737   8.667 -0.5521  1.4312  0.4272
 3313TIP3   OH231573   5.744   3.454   7.823  0.7984 -0.3626  0.3070
 3313TIP3    H131574   5.826   3.410   7.800  0.5668  0.1076 -1.5778
 3313TIP3    H231575   5.757   3.546   7.798  0.1605 -0.0042  1.2234
 3314TIP3   OH231576   2.472   2.506   0.252 -0.0668 -0.4298 -0.3260
 3314TIP3    H131577   2.525   2.526   0.175  0.4972  0.3298  0.2363
 3314TIP3    H231578   2.472   2.411   0.257  2.9553 -0.4983  0.7637
 3315TIP3   OH231579   0.203   6.438   7.191 -0.8157 -0.1114 -0.3295
 3315TIP3    H131580   0.240   6.526   7.179  2.5084 -1.1036  1.4694
 3315TIP3    H231581   0.186   6.407   7.103  2.4445  0.6681 -1.3656
 3316TIP3   OH231582   3.880   2.514   1.266 -0.4766  0.5002 -0.5411
 3316TIP3    H131583   3.893   2.460   1.188 -3.2202  0.2121 -0.8820
 3316TIP3    H231584   3.833   2.457   1.327  1.0647  0.9205  1.1368
 3317TIP3   OH231585   0.557   6.316   0.052 -0.2162 -0.1198  0.3490
 3317TIP3    H131586   0.531   6.371  -0.021  1.7874  0.2640 -0.1289
 3317TIP3    H231587   0.622   6.255   0.015 -0.2318 -0.8743  1.4903
 3318TIP3   OH231588   5.413   4.756   6.692  0.7416 -0.0552  0.3238
 3318TIP3    H131589   5.353   4.816   6.647  0.5079  0.0443  0.7562
 3318TIP3    H231590   5.500   4.788   6.670  0.6277  0.0488  0.0213
 3319TIP3   OH231591   4.147   0.759   6.957  0.2180 -0.4790  0.2937
 3319TIP3    H131592   4.180   0.741   7.045  1.1933 -3.4503 -0.5694
 3319TIP3    H231593   4.223   0.794   6.910  0.3167 -0.9455  0.0946
 3320TIP3   OH231594   6.817   3.230   8.411  0.8890  0.2490 -0.0254
 3320TIP3    H131595   6.752   3.266   8.351 -0.4494 -0.7387  0.7802
 3320TIP3    H231596   6.882   3.188   8.355  1.0230  1.5152 -0.8593
 3321TIP3   OH231597   6.771   0.335   7.471 -0.0503 -0.5550  0.7539
 3321TIP3    H131598   6.730   0.406   7.422 -1.4300 -1.3861  0.6429
 3321TIP3    H231599   6.865   0.352   7.465 -0.3379  1.0144  0.3844
 3322TIP3   OH231600   2.329   2.610   1.360  0.1313 -0.2500  0.0363
 3322TIP3    H131601   2.249   2.561   1.376  0.1081 -0.5143 -0.8294
 3322TIP3    H231602   2.358   2.638   1.447 -0.1901 -1.2704  0.4858
 3323TIP3   OH231603   4.438   0.404   7.622 -0.3654  0.4632 -0.1468
 3323TIP3    H131604   4.514   0.395   7.680  0.9211 -0.0381 -1.8226
 3323TIP3    H231605   4.399   0.316   7.621  1.0512 -0.1974 -1.8644
 3324TIP3   OH231606   6.451   5.946   7.578  0.0725  0.5471  0.2434
 3324TIP3    H131607   6.402   5.925   7.658 -0.8370  1.1984 -0.1338
 3324TIP3    H231608   6.430   5.874   7.518 -0.2946  0.7378  0.1408
 3325TIP3   OH231609   3.916   4.854   0.127  0.0103  0.3207 -0.2023
 3325TIP3    H131610   3.862   4.910   0.183  0.1995 -1.4352  1.8356
 3325TIP3    H231611   3.892   4.880   0.038 -3.8023  0.0707  0.5623
 3326TIP3   OH231612   1.499   0.548   7.860 -0.2130 -0.4236 -0.1881
 3326TIP3    H131613   1.425   0.565   7.918 -0.4945 -0.0054 -0.6597
 3326TIP3    H231614   1.485   0.607   7.786  1.0186  0.2376  0.0842
 3327TIP3   OH231615   1.997   1.606   1.991  0.0857  0.0613 -0.5450
 3327TIP3    H131616   1.930   1.542   2.016 -0.1457  0.2176 -0.7574
 3327TIP3    H231617   2.019   1.651   2.073 -0.5122  0.4212 -0.5778
 3328TIP3   OH231618   4.208   6.450   6.969 -0.0862  0.5007 -0.1158
 3328TIP3    H131619   4.120   6.460   6.933 -1.2580  0.9681  2.5616
 3328TIP3    H231620   4.196   6.393   7.045  1.8726  0.7868  0.4619
 3329TIP3   OH231621   5.823   0.107   1.302 -0.1955  0.4570 -0.4036
 3329TIP3    H131622   5.794   0.180   1.358  1.3510  0.8769 -0.0742
 3329TIP3    H231623   5.882   0.148   1.239  0.3702 -0.4526 -0.4822
 3330TIP3   OH231624   6.070   6.732   0.387  0.1504  0.6583  0.0477
 3330TIP3    H131625   6.092   6.793   0.458 -1.2061 -0.1419  1.2133
 3330TIP3    H231626   6.013   6.667   0.428 -0.3978 -0.0330 -1.7115
 3331TIP3   OH231627   5.861   5.710   0.494  0.3709  0.0765  0.4074
 3331TIP3    H131628   5.831   5.669   0.575 -1.4288  1.5001  0.5171
 3331TIP3    H231629   5.787   5.700   0.434  0.9574  0.7246 -0.4411
 3332TIP3   OH231630   4.830   4.193   1.784  0.0276 -0.3486 -0.4044
 3332TIP3    H131631   4.753   4.241   1.815 -0.5916 -0.4393 -1.7500
 3332TIP3    H231632   4.797   4.137   1.714  0.9040 -2.1260  0.5327
 3333TIP3   OH231633   6.554   5.480   7.483  0.8620 -0.2848  0.4623
 3333TIP3    H131634   6.562   5.419   7.410  3.4828  1.7357 -1.1100
 3333TIP3    H231635   6.609   5.443   7.551  0.5999 -0.7919  0.4048
 3334TIP3   OH231636   0.693   1.516   0.120  0.6025  0.1917  0.1085
 3334TIP3    H131637   0.713   1.533   0.028  0.8439  0.3196  0.1850
 3334TIP3    H231638   0.722   1.425   0.133  0.6326  0.1965  0.0777
 3335TIP3   OH231639   3.988   3.126   6.605  0.0794 -0.9288 -0.1549
 3335TIP3    H131640   3.952   3.038   6.612 -1.9051 -0.5816 -3.5013
 3335TIP3    H231641   3.911   3.183   6.595  1.3716  0.7612 -1.0555
 3336TIP3   OH231642   6.241   3.517   1.433 -0.1042 -0.3838  0.0519
 3336TIP3    H131643   6.239   3.534   1.527  2.9289  2.1014 -0.1957
 3336TIP3    H231644   6.183   3.582   1.395  1.3498  0.9617  0.0383
 3337TIP3   OH231645   0.984   4.213   1.361  0.1765  0.0553 -0.2527
 3337TIP3    H131646   1.012   4.281   1.301 -0.8245  0.1655 -0.6174
 3337TIP3    H231647   0.932   4.258   1.428 -0.8265 -0.3739 -0.7140
 3338TIP3   OH231648   5.939   4.599   7.418 -0.3196 -0.1196  0.5896
 3338TIP3    H131649   6.034   4.602   7.414 -0.2495 -0.2406  1.9266
 3338TIP3    H231650   5.919   4.515   7.460 -1.0293 -0.1818  0.1543
 3339TIP3   OH231651   4.620   5.201   0.697 -0.0566 -0.3604 -0.5741
 3339TIP3    H131652   4.608   5.113   0.732 -2.2852 -1.8803 -4.6068
 3339TIP3    H231653   4.531   5.230   0.674  0.8596  2.0186 -1.3947
 3340TIP3   OH231654   0.311   4.789   7.883 -0.1782 -0.6596  0.0758
 3340TIP3    H131655   0.387   4.811   7.829 -0.6978  0.5901 -0.1853
 3340TIP3    H231656   0.346   4.735   7.954  1.1461  0.7682  0.5607
 3341TIP3   OH231657   2.648   0.994   1.210  0.1602 -0.2354  0.0835
 3341TIP3    H131658   2.695   0.913   1.230 -1.2830 -0.8668  1.1920
 3341TIP3    H231659   2.691   1.061   1.263  0.9828 -0.3990 -0.3711
 3342TIP3   OH231660   3.918   4.455   6.677  0.2153 -0.2972  0.0228
 3342TIP3    H131661   3.885   4.365   6.679 -3.7670  0.9999  0.6827
 3342TIP3    H231662   3.875   4.495   6.601 -0.2755  1.7318  1.2841
 3343TIP3   OH231663   5.225   3.537   8.035 -0.1695  0.3721 -0.0205
 3343TIP3    H131664   5.148   3.535   7.977 -0.3054  0.6953  0.1470
 3343TIP3    H231665   5.188   3.550   8.122 -0.0848 -1.6514  0.3697
 3344TIP3   OH231666   6.104   5.725   6.972  0.3616 -0.2857  0.0495
 3344TIP3    H131667   6.109   5.660   7.042  0.1538 -1.1019 -0.6608
 3344TIP3    H231668   6.046   5.684   6.906  0.5959  0.4276 -0.6137
 3345TIP3   OH231669   5.453   4.973   1.228 -0.1227  0.3121 -0.4600
 3345TIP3    H131670   5.492   5.061   1.232  0.5201 -0.0311  1.2698
 3345TIP3    H231671   5.507   4.926   1.165  0.4494  0.7217 -0.2849
 3346TIP3   OH231672   4.363   4.131   0.264  0.4187 -1.2358 -0.2117
 3346TIP3    H131673   4.391   4.044   0.294 -0.1972 -1.6719 -0.8731
 3346TIP3    H231674   4.334   4.117   0.174 -0.7854 -0.5637  0.0557
 3347TIP3   OH231675   2.489   5.100   0.496  0.0281  0.1551  0.5252
 3347TIP3    H131676   2.518   5.049   0.420  1.6329  1.3135  0.2861
 3347TIP3    H231677   2.457   5.182   0.458  0.2337  0.4833  1.0522
 3348TIP3   OH231678   4.290   6.695   1.843  0.5405 -0.0125 -0.2105
 3348TIP3    H131679   4.372   6.745   1.846  0.6759 -0.2411 -0.0928
 3348TIP3    H231680   4.255   6.701   1.932 -2.1306  4.3121 -1.2529
 3349TIP3   OH231681   4.372   0.803   0.476 -0.7673 -0.3640 -0.2162
 3349TIP3    H131682   4.407   0.886   0.509  0.5156 -0.1539 -1.9338
 3349TIP3    H231683   4.420   0.735   0.523  3.1358 -0.1072 -3.3098
 3350TIP3   OH231684   6.006   5.935   0.455 -0.3738 -0.0915 -0.0656
 3350TIP3    H131685   6.090   5.904   0.419 -0.5252  0.3877 -0.8665
 3350TIP3    H231686   5.957   5.854   0.473  0.1048 -0.3673  0.0213
 3351TIP3   OH231687   2.766   6.132   8.464 -0.4468 -0.1904 -0.4578
 3351TIP3    H131688   2.717   6.066   8.414 -0.3489 -0.5878 -0.0395
 3351TIP3    H231689   2.739   6.215   8.426  0.1211 -0.5148 -1.6037
 3352TIP3   OH231690   2.431   5.195   0.771  0.2434  0.2004 -0.4093
 3352TIP3    H131691   2.338   5.198   0.794  0.5161 -2.0514  1.3198
 3352TIP3    H231692   2.434   5.154   0.685 -0.3844  1.3509 -1.0053
 3353TIP3   OH231693   4.090   1.661   6.768  0.5567 -0.0553  0.7345
 3353TIP3    H131694   4.077   1.607   6.847 -0.6567 -0.9607 -0.0412
 3353TIP3    H231695   4.152   1.611   6.715 -1.3727 -1.3197 -0.4646
 3354TIP3   OH231696   2.649   0.309   0.454  0.3645  0.8773  0.2633
 3354TIP3    H131697   2.646   0.214   0.460 -0.7106  0.9379  0.8491
 3354TIP3    H231698   2.640   0.339   0.544  0.6537  1.5435  0.0791
 3355TIP3   OH231699   5.658   3.991   8.777 -0.4495  0.2902 -0.2958
 3355TIP3    H131700   5.736   4.026   8.820  0.0011 -1.3869  0.3194
 3355TIP3    H231701   5.687   3.969   8.689 -0.0354 -0.8298  0.0928
 3356TIP3   OH231702   6.547   4.103   0.111  0.1655  0.1480  0.1142
 3356TIP3    H131703   6.541   4.037   0.179 -1.6811 -0.2844 -0.4160
 3356TIP3    H231704   6.461   4.145   0.110  0.7594  1.4316 -0.6935
 3357TIP3   OH231705   2.406   1.772   6.177 -0.1627 -0.5190  0.0115
 3357TIP3    H131706   2.319   1.732   6.174  0.4144 -1.8250 -0.1464
 3357TIP3    H231707   2.459   1.712   6.230  0.4871  0.6036  0.7002
 3358TIP3   OH231708   3.823   3.165   1.829  0.0862  0.1894 -0.2282
 3358TIP3    H131709   3.808   3.076   1.863 -0.8591  0.9157  1.3547
 3358TIP3    H231710   3.748   3.215   1.859 -0.0093  1.2693 -2.1650
 3359TIP3   OH231711   4.103   4.686   8.669  0.0380 -0.7989  0.2053
 3359TIP3    H131712   4.149   4.684   8.753 -1.9289 -0.7662  1.3435
 3359TIP3    H231713   4.061   4.600   8.663  0.9230 -1.1649 -1.2281
 3360TIP3   OH231714   2.358   6.775   0.220 -0.0527  0.0524  0.2488
 3360TIP3    H131715   2.364   6.847   0.157  0.5743 -1.8159 -1.9669
 3360TIP3    H231716   2.442   6.774   0.265  0.6603 -0.3848 -1.0415
 3361TIP3   OH231717   4.350   1.073   1.578 -0.9008 -0.1800 -0.0852
 3361TIP3    H131718   4.375   1.095   1.668 -1.4120 -0.5088  0.1435
 3361TIP3    H231719   4.285   1.003   1.587  0.3753 -1.4934 -0.7856
 3362TIP3   OH231720   1.547   6.526   0.003 -0.0746  0.4627 -0.7482
 3362TIP3    H131721   1.469   6.581   0.015 -0.8821 -0.5557 -1.1719
 3362TIP3    H231722   1.614   6.586  -0.031 -1.0015  1.1469 -1.4174
 3363TIP3   OH231723   3.906   2.659   7.338 -0.3329 -0.1776  0.0766
 3363TIP3    H131724   3.974   2.592   7.340 -0.9261 -0.8012 -0.4285
 3363TIP3    H231725   3.824   2.611   7.346 -0.8742  0.2994 -2.0403
 3364TIP3   OH231726   0.162   4.985   8.600 -0.0412 -0.3199 -0.0291
 3364TIP3    H131727   0.222   4.917   8.631 -1.4851 -0.2834  3.2479
 3364TIP3    H231728   0.088   4.937   8.563  0.6266 -0.4051 -1.3078
 3365TIP3   OH231729   6.414   0.692   1.674  0.0613  0.0342 -0.3013
 3365TIP3    H131730   6.454   0.702   1.760  1.1801 -0.4031 -0.7586
 3365TIP3    H231731   6.413   0.598   1.658  0.0287  0.1194 -0.8379
 3366TIP3   OH231732   3.741   6.798   6.832 -0.8312  0.0265 -0.1049
 3366TIP3    H131733   3.687   6.862   6.786 -0.9950  0.0514  0.1194
 3366TIP3    H231734   3.723   6.715   6.788 -1.5129 -0.0763  0.3412
 3367TIP3   OH231735   1.390   5.633   8.340  0.1350  0.1941 -0.1943
 3367TIP3    H131736   1.484   5.644   8.348  0.5594 -0.3495 -3.1403
 3367TIP3    H231737   1.366   5.572   8.409  2.0199  0.0059  0.3311
 3368TIP3   OH231738   4.304   6.153   6.642 -0.5696  0.0564  0.3257
 3368TIP3    H131739   4.270   6.162   6.553  0.1003 -0.1743  0.0431
 3368TIP3    H231740   4.392   6.190   6.638  0.4007 -2.0980  0.3018
 3369TIP3   OH231741   3.398   0.544   7.285 -0.2597 -1.0180 -0.5942
 3369TIP3    H131742   3.456   0.476   7.249  0.3087 -1.4810  1.0861
 3369TIP3    H231743   3.356   0.502   7.360 -0.5940  0.2156 -0.0685
 3370TIP3   OH231744   1.722   1.257   7.615 -0.0449 -0.5855  0.4414
 3370TIP3    H131745   1.641   1.307   7.624 -0.4585 -0.9715 -0.8365
 3370TIP3    H231746   1.776   1.286   7.688 -0.7100  0.8653  0.4045
 3371TIP3   OH231747   2.370   5.068   1.709 -0.1889 -0.2921 -0.3554
 3371TIP3    H131748   2.362   5.160   1.736 -2.0831 -1.0304  1.9312
 3371TIP3    H231749   2.314   5.061   1.632  1.1685  0.7532 -1.4846
 3372TIP3   OH231750   5.242   0.309   8.828 -0.0012 -0.2285 -0.7698
 3372TIP3    H131751   5.235   0.342   8.917  3.6753 -0.6424 -0.1677
 3372TIP3    H231752   5.262   0.386   8.775  0.5061 -0.3601 -0.7701
 3373TIP3   OH231753   4.068   1.546   7.337 -0.4191 -0.4530 -0.6629
 3373TIP3    H131754   4.070   1.534   7.242  0.1765 -0.1247 -0.6981
 3373TIP3    H231755   4.004   1.617   7.351 -1.3894 -1.2970 -0.7156
 3374TIP3   OH231756   5.700   3.706   7.177 -0.5324  0.3786  0.1862
 3374TIP3    H131757   5.792   3.687   7.195 -0.6396 -0.2830  0.0354
 3374TIP3    H231758   5.699   3.729   7.084 -0.6667 -0.5861 -0.0581
 3375TIP3   OH231759   6.007   0.046   8.067  0.4428  0.1923 -0.0485
 3375TIP3    H131760   5.987  -0.013   8.140  2.1172  0.2057  0.4659
 3375TIP3    H231761   5.982   0.133   8.099 -0.0915  0.0297 -0.0158
 3376TIP3   OH231762   6.338   3.294   1.280  0.2799 -0.0666  0.2111
 3376TIP3    H131763   6.307   3.366   1.335  0.7112 -0.0866  0.4787
 3376TIP3    H231764   6.412   3.330   1.232  0.0523 -0.1208 -0.1877
 3377TIP3   OH231765   1.863   3.865   1.190  0.2191 -0.1712  0.0229
 3377TIP3    H131766   1.825   3.801   1.129 -0.1407  0.4274 -0.3883
 3377TIP3    H231767   1.796   3.933   1.199  1.3491  1.1542 -1.0858
 3378TIP3   OH231768   4.350   1.679   8.626  0.0079 -0.0121 -0.1547
 3378TIP3    H131769   4.318   1.590   8.614  0.0363  0.0308 -0.5954
 3378TIP3    H231770   4.407   1.694   8.550 -0.2509  0.4945 -0.2529
 3379TIP3   OH231771   0.496   3.563   1.678  0.3125 -0.4992 -0.4570
 3379TIP3    H131772   0.525   3.636   1.733  0.3155 -0.3491 -0.6540
 3379TIP3    H231773   0.575   3.537   1.629  0.0075  0.2757 -1.4058
 3380TIP3   OH231774   0.730   0.408   0.605  0.3622 -0.0131 -0.1391
 3380TIP3    H131775   0.702   0.460   0.680 -2.0254  0.2410 -1.1227
 3380TIP3    H231776   0.687   0.449   0.530  2.1491 -0.6561 -1.5972
 3381TIP3   OH231777   0.489   5.241   2.314  0.3707  0.0672  0.3208
 3381TIP3    H131778   0.433   5.241   2.392  1.1647 -0.3992  0.9069
 3381TIP3    H231779   0.438   5.192   2.249  0.4748 -1.1912  1.1428
 3382TIP3   OH231780   4.033   3.831   8.469 -0.7949 -0.6263 -0.3353
 3382TIP3    H131781   4.037   3.911   8.417  1.2294 -0.1055  0.5353
 3382TIP3    H231782   3.943   3.829   8.502 -1.2173  0.6478 -1.3387
 3383TIP3   OH231783   2.159   5.195   0.835 -0.2481  0.0460 -0.2596
 3383TIP3    H131784   2.128   5.176   0.923  0.7016 -3.1034 -0.4615
 3383TIP3    H231785   2.096   5.151   0.778  0.9830 -0.9012 -0.9438
 3384TIP3   OH231786   0.950   6.656   7.393  0.3131 -0.3480  0.0491
 3384TIP3    H131787   0.982   6.746   7.398 -0.0440 -0.1116 -1.3915
 3384TIP3    H231788   1.021   6.608   7.350  0.3472 -0.6857  0.4724
 3385TIP3   OH231789   1.572   0.358   8.703  0.1399 -0.3236  0.3750
 3385TIP3    H131790   1.496   0.337   8.756 -0.1515  1.1125  0.5448
 3385TIP3    H231791   1.571   0.453   8.694  0.6607 -0.4468 -1.4876
 3386TIP3   OH231792   4.378   1.025   0.672 -0.5330  0.0309  0.1741
 3386TIP3    H131793   4.470   1.046   0.688 -0.7711 -0.0504  1.8321
 3386TIP3    H231794   4.342   1.105   0.635  0.5701 -0.5130 -2.2654
 3387TIP3   OH231795   6.189   5.086   6.704 -0.1963 -0.0690  0.6907
 3387TIP3    H131796   6.093   5.085   6.712 -0.1349 -2.3796  1.8726
 3387TIP3    H231797   6.217   5.003   6.741  2.1876 -0.2822 -1.3815
 3388TIP3   OH231798   5.690   2.134   7.580  0.1969  0.3271  0.1592
 3388TIP3    H131799   5.621   2.184   7.537 -0.5357  0.4988  1.4794
 3388TIP3    H231800   5.756   2.198   7.604 -0.4209  0.5754  1.2351
 3389TIP3   OH231801   0.359   3.446   7.745  0.2981  0.3930  0.6206
 3389TIP3    H131802   0.282   3.443   7.689 -0.0195  1.3261  0.9921
 3389TIP3    H231803   0.357   3.363   7.792  0.1339 -0.0600 -0.1656
 3390TIP3   OH231804   4.339   1.753   8.129 -0.0602  0.5711  0.0460
 3390TIP3    H131805   4.359   1.667   8.092 -0.5984  0.0441  0.9387
 3390TIP3    H231806   4.425   1.791   8.147  0.2355 -0.8863  2.0891
 3391TIP3   OH231807   2.658   6.776   8.711  0.1194 -0.0635 -0.7698
 3391TIP3    H131808   2.641   6.702   8.769  1.2257 -0.4269 -0.8880
 3391TIP3    H231809   2.573   6.798   8.674 -0.2424 -1.2091 -0.6478
 3392TIP3   OH231810   1.854   2.455   0.028 -0.5125 -0.0195 -0.6559
 3392TIP3    H131811   1.818   2.395   0.093 -0.1393  0.2314 -0.2208
 3392TIP3    H231812   1.947   2.435   0.025 -0.4224  0.3912 -0.6643
 3393TIP3   OH231813   6.280   1.594   8.005  0.5433 -0.0101  0.1331
 3393TIP3    H131814   6.321   1.623   8.086 -0.4135 -2.7196  1.7112
 3393TIP3    H231815   6.344   1.537   7.964  0.2040 -0.4139  0.1520
 3394TIP3   OH231816   0.274   4.088   8.490 -0.7116  0.0471  0.0815
 3394TIP3    H131817   0.226   4.023   8.439 -0.5574  1.9092 -2.6238
 3394TIP3    H231818   0.364   4.081   8.461  0.1666 -1.1839  2.7593
 3395TIP3   OH231819   5.883   4.856   7.058  0.1165 -0.4276 -0.3638
 3395TIP3    H131820   5.972   4.833   7.082 -0.1091  0.4603  1.4658
 3395TIP3    H231821   5.830   4.831   7.134 -0.4731  3.5934  0.8013
 3396TIP3   OH231822   6.269   6.202   0.010 -0.4543 -0.1396  0.0664
 3396TIP3    H131823   6.287   6.292  -0.015  0.3087  0.0841  1.3713
 3396TIP3    H231824   6.227   6.164  -0.068  0.1518  1.0351 -0.8664
 3397TIP3   OH231825   4.471   2.932   6.279 -0.5892  0.3954 -0.0442
 3397TIP3    H131826   4.499   3.007   6.226  1.5996  0.7870  1.5023
 3397TIP3    H231827   4.467   2.967   6.368  1.9399 -1.5475  0.9545
 3398TIP3   OH231828   0.774   3.833   8.563  0.3965 -0.4676 -0.6293
 3398TIP3    H131829   0.801   3.896   8.630  0.3977 -0.9890 -0.1352
 3398TIP3    H231830   0.854   3.789   8.537  0.2102 -1.1996 -0.0017
 3399TIP3   OH231831   0.090   4.529   6.879 -0.5540  0.1377  0.4310
 3399TIP3    H131832   0.052   4.486   6.956 -0.3892 -1.4322 -0.3293
 3399TIP3    H231833   0.047   4.487   6.805 -0.6891  1.6129 -0.3426
 3400TIP3   OH231834   3.784   4.352   1.678 -0.2109  0.1982  0.3664
 3400TIP3    H131835   3.830   4.352   1.762 -1.4718 -0.1687  1.0895
 3400TIP3    H231836   3.815   4.272   1.634  2.2652  1.5848 -0.6179
 3401TIP3   OH231837   3.818   5.024   7.732 -0.5119 -0.5828 -0.5349
 3401TIP3    H131838   3.839   4.966   7.659  0.7477 -0.2546 -0.4499
 3401TIP3    H231839   3.804   4.966   7.807  1.0291 -0.7866 -0.3820
 3402TIP3   OH231840   5.470   1.830   0.473 -0.6432 -0.6964 -0.3960
 3402TIP3    H131841   5.381   1.857   0.450 -0.9039 -1.8122 -0.7682
 3402TIP3    H231842   5.468   1.734   0.466  0.0786 -0.8728  1.4348
 3403TIP3   OH231843   5.641   6.824   8.481 -0.5266 -0.2106 -0.1590
 3403TIP3    H131844   5.701   6.751   8.469  1.3354  0.9951  1.3034
 3403TIP3    H231845   5.599   6.808   8.566 -0.4058  0.1958 -0.0173
 3404TIP3   OH231846   0.538   3.806   1.332  0.0299  0.0964 -0.0534
 3404TIP3    H131847   0.549   3.833   1.424 -1.0954  0.1204  0.0826
 3404TIP3    H231848   0.590   3.869   1.283 -0.8542  1.2462  0.4327
 3405TIP3   OH231849   2.607   6.819   8.172 -0.6542  0.1556  0.3506
 3405TIP3    H131850   2.521   6.819   8.130 -1.0382 -0.8537  1.1017
 3405TIP3    H231851   2.665   6.778   8.108 -1.5245 -2.7697  1.2748
 3406TIP3   OH231852   4.920   1.114   0.486  0.4743  0.3482  0.4413
 3406TIP3    H131853   4.980   1.156   0.547 -0.1406  4.2109 -1.3407
 3406TIP3    H231854   4.850   1.178   0.473 -1.9429 -2.3085 -0.6787
 3407TIP3   OH231855   5.872   1.944   7.520  0.6742 -0.2684 -0.4534
 3407TIP3    H131856   5.797   2.002   7.531  0.8934  0.0441 -0.6117
 3407TIP3    H231857   5.846   1.884   7.450 -0.2452 -1.4832  0.8668
 3408TIP3   OH231858   1.341   4.883   7.613 -0.4285  0.3495  0.4163
 3408TIP3    H131859   1.410   4.929   7.662 -0.6887  1.7782 -0.5039
 3408TIP3    H231860   1.361   4.790   7.626  1.8418  0.7019 -0.0149
 3409TIP3   OH231861   2.540   2.268   7.622 -0.1687  0.0400 -0.0618
 3409TIP3    H131862   2.477   2.325   7.667  0.4538 -0.1299  1.0318
 3409TIP3    H231863   2.527   2.288   7.529 -1.4067  0.4561  0.1840
 3410TIP3   OH231864   1.049   5.279   0.921 -0.5315  0.0217  0.0565
 3410TIP3    H131865   1.109   5.282   0.996  0.1974  1.4082 -0.5384
 3410TIP3    H231866   1.105   5.299   0.846 -1.6020  0.5229 -0.6206
 3411TIP3   OH231867   2.599   3.092   8.498 -0.4231  0.3675 -0.3525
 3411TIP3    H131868   2.613   3.068   8.590  2.4088  1.2906 -0.4670
 3411TIP3    H231869   2.592   3.187   8.498 -0.6548  0.3579 -1.0794
 3412TIP3   OH231870   4.294   0.814   1.911  0.6550 -0.4291 -0.4511
 3412TIP3    H131871   4.294   0.808   2.006 -0.4047 -0.0934 -0.4173
 3412TIP3    H231872   4.321   0.904   1.892  0.5020 -0.3839 -0.4555
 3413TIP3   OH231873   1.667   5.652   8.382 -1.0335 -0.0221 -0.6333
 3413TIP3    H131874   1.726   5.586   8.418 -0.6603 -0.3264 -1.7514
 3413TIP3    H231875   1.713   5.735   8.395 -0.0752 -0.3064 -1.9755
 3414TIP3   OH231876   6.092   1.398   8.134 -0.8824  0.5258 -0.0515
 3414TIP3    H131877   6.146   1.455   8.080 -1.1029 -0.1137 -0.9812
 3414TIP3    H231878   6.145   1.381   8.212  0.3210 -0.1378 -0.9701
 3415TIP3   OH231879   3.110   2.015   7.727  0.1739 -0.3507  0.0863
 3415TIP3    H131880   3.114   1.941   7.667  1.0999  0.6600 -1.1455
 3415TIP3    H231881   3.022   2.010   7.764 -0.5117 -0.8943 -1.5028
 3416TIP3   OH231882   3.488   0.263   7.528 -0.5180  0.2032  0.1627
 3416TIP3    H131883   3.534   0.288   7.608  0.3384  2.0203 -0.8540
 3416TIP3    H231884   3.418   0.205   7.558  0.3975  0.0396  2.1015
 3417TIP3   OH231885   1.103   3.213   1.187 -0.3617 -0.4606  0.4552
 3417TIP3    H131886   1.023   3.264   1.197 -1.7643 -2.4154 -0.2949
 3417TIP3    H231887   1.170   3.277   1.163 -2.2087  0.9197 -1.2954
 3418TIP3   OH231888   0.172   0.503   7.626 -0.3655  0.0256  0.1419
 3418TIP3    H131889   0.246   0.537   7.575  1.1573 -0.6829  1.7774
 3418TIP3    H231890   0.105   0.571   7.618  0.3481  0.5915 -1.5815
 3419TIP3   OH231891   6.399   5.707   7.404 -0.2739 -0.3279  0.1366
 3419TIP3    H131892   6.446   5.624   7.415 -1.4563 -0.9747  0.4161
 3419TIP3    H231893   6.384   5.714   7.310  0.5021 -0.0325  0.0230
 3420TIP3   OH231894   5.083   3.597   0.743  0.2431 -0.1361 -0.4178
 3420TIP3    H131895   5.127   3.515   0.721 -0.2511 -0.3036 -0.8131
 3420TIP3    H231896   5.065   3.637   0.658  0.2587  0.2614 -0.2329
 3421TIP3   OH231897   5.666   1.391   7.846  0.1863 -0.2370  0.3997
 3421TIP3    H131898   5.749   1.349   7.865  0.2199 -0.4234 -0.1383
 3421TIP3    H231899   5.683   1.444   7.768  0.0316  0.4247  0.8149
 3422TIP3   OH231900   5.326   1.857   1.810 -0.1369  0.1818 -0.4495
 3422TIP3    H131901   5.419   1.834   1.815 -0.0743  0.6193  0.9943
 3422TIP3    H231902   5.325   1.949   1.784 -0.0056  0.9468  1.9707
 3423TIP3   OH231903   3.403   5.045   6.589  0.3549  0.2596 -0.6161
 3423TIP3    H131904   3.429   5.115   6.529 -0.4303  0.1779 -1.0667
 3423TIP3    H231905   3.376   5.091   6.669 -1.7203  0.6403 -1.4597
 3424TIP3   OH231906   1.994   2.145   8.372  0.2580  0.4181  0.3937
 3424TIP3    H131907   2.060   2.200   8.415 -1.6267  1.3972  2.1826
 3424TIP3    H231908   1.923   2.206   8.350 -0.9260 -0.9166  0.3984
 3425TIP3   OH231909   1.022   3.001   0.847 -0.3682 -0.3390  0.1114
 3425TIP3    H131910   1.083   3.024   0.916 -1.7894  0.5408  1.1366
 3425TIP3    H231911   0.939   3.040   0.874 -1.3837 -1.4428 -1.2411
 3426TIP3   OH231912   2.203   1.699   1.783 -0.1927 -0.6318  0.0865
 3426TIP3    H131913   2.152   1.681   1.861 -0.5228 -0.1423 -0.0114
 3426TIP3    H231914   2.158   1.773   1.741 -0.9372 -1.8614 -1.4006
 3427TIP3   OH231915   0.045   5.456   7.643  0.1789 -0.0696 -0.3679
 3427TIP3    H131916   0.126   5.468   7.693  0.5144 -0.5203 -0.7908
 3427TIP3    H231917  -0.005   5.536   7.659  0.1546 -0.3196  0.8901
 3428TIP3   OH231918   6.058   3.652   0.837  0.2315 -0.6793  0.0269
 3428TIP3    H131919   6.130   3.711   0.859 -1.1586  0.1286  2.8953
 3428TIP3    H231920   6.099   3.565   0.832  1.5206 -0.1704  1.0680
 3429TIP3   OH231921   2.481   5.125   0.157  0.6749 -0.2039  0.2256
 3429TIP3    H131922   2.520   5.135   0.070  0.5971 -0.1473  0.1976
 3429TIP3    H231923   2.553   5.143   0.217  1.2566 -2.1564  0.1895
 3430TIP3   OH231924   4.765   5.719   6.493  0.5541 -0.4688 -0.1173
 3430TIP3    H131925   4.844   5.770   6.507 -0.4825  1.2881 -0.4506
 3430TIP3    H231926   4.772   5.686   6.404  0.7356  0.0155 -0.2827
 3431TIP3   OH231927   0.931   4.700   0.093 -0.4581  0.1233 -0.3651
 3431TIP3    H131928   0.927   4.759   0.168  0.2504  2.1184 -1.8367
 3431TIP3    H231929   0.843   4.661   0.089 -0.4786 -0.1347  1.5249
 3432TIP3   OH231930   1.306   0.818   0.509 -0.3607  0.1883 -0.5591
 3432TIP3    H131931   1.250   0.774   0.573 -0.8380  0.5729 -0.7109
 3432TIP3    H231932   1.262   0.901   0.491 -0.4607 -0.1116 -1.7324
 3433TIP3   OH231933   5.559   0.776   0.284 -0.3717  0.0809 -0.2588
 3433TIP3    H131934   5.553   0.865   0.249  0.7774 -0.7833 -2.9092
 3433TIP3    H231935   5.468   0.751   0.300 -1.0499  0.5838 -2.8198
 3434TIP3   OH231936   1.699   6.820   7.438  0.3621  0.0925  0.4598
 3434TIP3    H131937   1.649   6.742   7.415  1.0284 -0.2455  0.1298
 3434TIP3    H231938   1.778   6.786   7.481 -1.1927  0.6834  4.1403
 3435TIP3   OH231939   4.391   6.251   7.861 -0.0086 -0.6148 -0.1546
 3435TIP3    H131940   4.312   6.235   7.912 -0.2969  0.7454 -0.1524
 3435TIP3    H231941   4.362   6.247   7.770 -0.3413  1.0742 -0.1408
 3436TIP3   OH231942   4.788   0.102   8.818  0.7613  0.0044  0.6400
 3436TIP3    H131943   4.724   0.166   8.787 -1.4527 -1.4590  1.8894
 3436TIP3    H231944   4.847   0.153   8.874  2.0680  1.7784 -2.1293
 3437TIP3   OH231945   0.973   3.424   8.219  0.3442 -0.2197  0.1080
 3437TIP3    H131946   0.953   3.407   8.127 -2.1414 -2.4188  0.9033
 3437TIP3    H231947   1.068   3.420   8.224  0.5039 -0.9576 -2.2408
 3438TIP3   OH231948   6.355   2.648   7.503 -0.3444 -0.0407  0.1267
 3438TIP3    H131949   6.331   2.650   7.595 -1.1735 -1.8959  0.0046
 3438TIP3    H231950   6.284   2.694   7.458 -0.6309 -0.3004  0.3088
 3439TIP3   OH231951   3.324   1.783   0.386 -0.7253  0.2539  0.3082
 3439TIP3    H131952   3.284   1.813   0.468 -1.0309 -0.8678  0.5871
 3439TIP3    H231953   3.410   1.825   0.385 -1.3094  1.5035  0.4328
 3440TIP3   OH231954   0.476   4.481   0.826 -0.0815  0.2072 -0.4895
 3440TIP3    H131955   0.494   4.574   0.838 -0.1210 -0.0512  1.9952
 3440TIP3    H231956   0.527   4.438   0.895 -2.4297 -1.3541  0.3669
 3441TIP3   OH231957   0.041   6.068   7.128 -0.0440 -0.7368 -0.2715
 3441TIP3    H131958   0.130   6.102   7.125 -0.2218  0.0069  1.8118
 3441TIP3    H231959  -0.001   6.105   7.050  1.3833 -0.9448 -1.1721
 3442TIP3   OH231960   4.516   4.578   7.427 -0.1274 -0.2590  0.3738
 3442TIP3    H131961   4.590   4.637   7.440  1.0386 -1.5552 -0.1870
 3442TIP3    H231962   4.456   4.600   7.498  0.2455  1.6051  0.1685
 3443TIP3   OH231963   4.621   1.965   7.059  0.2311  0.1422  0.4309
 3443TIP3    H131964   4.527   1.953   7.067  0.2919 -0.7303 -0.0938
 3443TIP3    H231965   4.657   1.929   7.141  0.1813 -0.4771  0.1846
 3444TIP3   OH231966   5.414   2.322   6.869 -0.3194 -0.3640  0.3013
 3444TIP3    H131967   5.442   2.405   6.831 -0.8788  0.5646  1.8104
 3444TIP3    H231968   5.473   2.256   6.832 -0.9525  0.4212 -2.2534
 3445TIP3   OH231969   5.379   2.521   8.148 -0.1018 -0.2151  0.6006
 3445TIP3    H131970   5.341   2.484   8.068 -0.7441 -0.9386  1.2226
 3445TIP3    H231971   5.451   2.575   8.117 -0.1807 -0.6839 -0.4571
 3446TIP3   OH231972   3.771   5.963   1.589  0.2693  0.5953  0.4839
 3446TIP3    H131973   3.713   5.944   1.663  0.2133 -0.3057  0.2245
 3446TIP3    H231974   3.815   5.879   1.572  0.6355  0.9194 -0.1952
 3447TIP3   OH231975   6.601   1.110   1.140 -0.0438 -0.0187  0.1954
 3447TIP3    H131976   6.621   1.048   1.209  1.0428  0.4166  0.3024
 3447TIP3    H231977   6.607   1.059   1.059 -1.5020 -0.5688  0.4162
 3448TIP3   OH231978   0.242   6.615   6.654 -0.2271  0.2442  0.6380
 3448TIP3    H131979   0.272   6.562   6.728  1.6350  1.7834  1.0953
 3448TIP3    H231980   0.149   6.628   6.670  0.0387  0.1922  2.5510
 3449TIP3   OH231981   6.195   3.815   1.551  0.5016  0.0552 -0.6176
 3449TIP3    H131982   6.286   3.839   1.532  0.7092 -0.1017  0.1418
 3449TIP3    H231983   6.202   3.729   1.592 -0.0044 -0.0346 -0.7241
 3450TIP3   OH231984   6.299   4.383   7.434 -0.3528  0.1772 -0.4573
 3450TIP3    H131985   6.325   4.465   7.475  0.4010  0.0534 -0.6654
 3450TIP3    H231986   6.305   4.318   7.504  0.3289  0.0763 -0.5991
 3451TIP3   OH231987   3.605   6.774   0.096  0.2897  0.6758  0.1376
 3451TIP3    H131988   3.540   6.836   0.062  0.3698  0.0362 -1.2852
 3451TIP3    H231989   3.680   6.828   0.120  0.5210  1.1251 -1.4724
 3452TIP3   OH231990   2.484   1.710   1.327  0.1578  0.2525 -0.3284
 3452TIP3    H131991   2.558   1.650   1.332  1.7144  2.0310 -0.8840
 3452TIP3    H231992   2.437   1.684   1.247 -0.4210 -1.4981  0.5446
 3453TIP3   OH231993   3.751   3.515   7.574  0.4723  0.2057 -0.0204
 3453TIP3    H131994   3.676   3.543   7.521  1.6006  0.9532 -1.2983
 3453TIP3    H231995   3.827   3.553   7.530  1.5758 -0.0947  1.5270
 3454TIP3   OH231996   5.787   2.794   7.899  0.1343  0.1384  0.2900
 3454TIP3    H131997   5.876   2.758   7.893 -0.3224 -1.2295  1.2405
 3454TIP3    H231998   5.796   2.883   7.866  1.7946 -0.0680  0.0518
 3455TIP3   OH231999   0.471   5.834   8.313  0.8287 -0.3720 -0.3288
 3455TIP3    H132000   0.442   5.795   8.230 -0.2604 -0.2709 -0.0187
 3455TIP3    H232001   0.445   5.926   8.307  0.8649 -0.3332  0.0643
 3456TIP3   OH232002   0.124   3.876   1.026 -0.1275 -0.5982 -0.2519
 3456TIP3    H132003   0.138   3.869   1.120  0.1783  2.3371  0.0130
 3456TIP3    H232004   0.202   3.920   0.993 -1.4286  1.0003 -1.3688
 3457TIP3   OH232005   4.887   4.317   0.323  0.1335 -0.8791 -0.5948
 3457TIP3    H132006   4.942   4.287   0.396  1.3802 -0.2642 -1.2572
 3457TIP3    H232007   4.949   4.348   0.257 -1.0380  1.4028 -0.7115
 3458TIP3   OH232008   5.326   3.762   0.313  0.0555 -0.4151 -0.0931
 3458TIP3    H132009   5.252   3.754   0.253  0.2851  0.5199 -0.5217
 3458TIP3    H232010   5.404   3.758   0.256  0.2644  0.9578  0.0571
 3459TIP3   OH232011   2.744   5.148   0.287  0.5889  0.2580  0.0958
 3459TIP3    H132012   2.780   5.154   0.375 -1.1103  0.1482  0.8305
 3459TIP3    H232013   2.716   5.057   0.278 -2.0410  0.9202  0.6556
 3460TIP3   OH232014   0.049   2.196   8.614 -0.1812  0.6327  0.4838
 3460TIP3    H132015   0.077   2.278   8.572 -0.0744  1.0215  1.2855
 3460TIP3    H232016  -0.028   2.169   8.564  0.0923  0.9404 -0.1212
 3461TIP3   OH232017   0.495   5.466   0.207  0.3622 -0.6733 -0.1815
 3461TIP3    H132018   0.530   5.434   0.290  2.5344 -0.5715 -1.0028
 3461TIP3    H232019   0.463   5.387   0.163 -0.5405 -0.7648  0.5992
 3462TIP3   OH232020   0.576   0.349   8.743  0.5786  0.1692 -0.4436
 3462TIP3    H132021   0.666   0.347   8.711  0.1574  1.5611 -1.7836
 3462TIP3    H232022   0.578   0.408   8.819  1.1244 -1.3168  0.7559
 3463TIP3   OH232023   2.473   3.971   7.667  0.3437 -0.4488 -0.2423
 3463TIP3    H132024   2.521   3.889   7.655  0.0727 -0.9931  1.9010
 3463TIP3    H232025   2.526   4.021   7.730 -1.0867 -0.4003  0.9670
 3464TIP3   OH232026   6.522   4.908   1.246  0.3665 -0.0520  0.4566
 3464TIP3    H132027   6.605   4.861   1.249 -0.3073 -1.2576  0.8125
 3464TIP3    H232028   6.519   4.946   1.157  0.8717 -0.7844  0.1224
 3465TIP3   OH232029   0.763   1.473   0.783 -0.6474  0.7683  0.3203
 3465TIP3    H132030   0.823   1.543   0.761 -0.1953 -0.0667 -1.2423
 3465TIP3    H232031   0.818   1.404   0.819 -0.9010  0.6496  0.4896
 3466TIP3   OH232032   1.296   3.600   8.738  0.2035 -0.0333 -0.3335
 3466TIP3    H132033   1.318   3.687   8.706  1.0000 -0.6825 -1.6356
 3466TIP3    H232034   1.201   3.594   8.730  0.2358  0.4021 -1.0487
 3467TIP3   OH232035   2.235   0.780   0.734 -0.3463 -0.1886 -0.4681
 3467TIP3    H132036   2.324   0.816   0.739 -0.2370 -0.6156  2.0123
 3467TIP3    H232037   2.221   0.765   0.641  1.7073  1.0440 -1.0543
 3468TIP3   OH232038   2.633   5.931   0.390  0.2197 -0.2057  0.6437
 3468TIP3    H132039   2.594   5.992   0.328  0.2572 -1.4720 -0.6673
 3468TIP3    H232040   2.689   5.875   0.337 -0.5993 -2.0290  1.6210
 3469TIP3   OH232041   4.849   2.637   2.465 -0.5865  0.6869  0.5417
 3469TIP3    H132042   4.864   2.611   2.374 -1.7751  2.8992 -0.3643
 3469TIP3    H232043   4.828   2.556   2.510 -2.4631 -0.2101 -1.7276
 3470TIP3   OH232044   1.712   5.216   0.173 -0.6453 -0.2313 -0.4114
 3470TIP3    H132045   1.651   5.290   0.165  1.7541  1.8250 -1.0184
 3470TIP3    H232046   1.760   5.233   0.253  0.1744 -0.9583 -0.7365
 3471TIP3   OH232047   4.417   4.629   8.183  0.3666  0.2132  0.3450
 3471TIP3    H132048   4.331   4.649   8.222 -0.1416  3.9310 -2.1958
 3471TIP3    H232049   4.480   4.672   8.242  0.0787  1.1140  0.0144
 3472TIP3   OH232050   0.189   2.732   6.788  0.7721 -0.0370  0.9822
 3472TIP3    H132051   0.167   2.644   6.759  2.2697 -0.4759  1.1127
 3472TIP3    H232052   0.113   2.785   6.763 -0.0081 -1.2827  0.6053
 3473TIP3   OH232053   1.385   1.802   8.044 -0.3054 -0.3900 -0.4167
 3473TIP3    H132054   1.364   1.743   8.116 -1.1715 -0.3582 -0.6387
 3473TIP3    H232055   1.459   1.854   8.077  0.8609 -1.9464 -0.4257
 3474TIP3   OH232056   3.251   1.898   8.058  0.0859 -0.1841 -0.1866
 3474TIP3    H132057   3.281   1.826   8.114  0.9199 -0.6139 -1.1388
 3474TIP3    H232058   3.170   1.927   8.098  0.1726 -1.0955  0.7096
 3475TIP3   OH232059   4.010   2.833   0.752 -0.0902  0.2814 -0.2733
 3475TIP3    H132060   3.974   2.919   0.775 -0.5896  0.8643 -2.8945
 3475TIP3    H232061   4.102   2.849   0.732 -0.1382  0.1927 -0.5809
 3476TIP3   OH232062   2.906   6.016   0.830  0.3335  0.7738  0.5256
 3476TIP3    H132063   2.934   5.961   0.757  2.5569  1.9941  0.3792
 3476TIP3    H232064   2.825   5.975   0.861 -0.9288  0.3827 -2.8236
 3477TIP3   OH232065   2.186   5.526   7.604 -0.6923  0.0327  0.2878
 3477TIP3    H132066   2.098   5.488   7.599 -0.2305 -0.9291 -1.3386
 3477TIP3    H232067   2.226   5.486   7.681 -0.4546 -2.3757 -0.9940
 3478TIP3   OH232068   0.442   4.709   8.122 -0.5244  0.0589 -0.3835
 3478TIP3    H132069   0.482   4.632   8.082  0.1308  0.9625 -1.5376
 3478TIP3    H232070   0.483   4.716   8.208  0.9035  0.2360 -1.0462
 3479TIP3   OH232071   3.734   2.120   1.896  0.2555 -0.2490 -0.1678
 3479TIP3    H132072   3.707   2.199   1.943  0.1860  0.4449 -1.3490
 3479TIP3    H232073   3.776   2.066   1.963 -0.7888  0.2425  0.9220
 3480TIP3   OH232074   0.140   2.888   8.444 -0.0060 -0.0192  0.0191
 3480TIP3    H132075   0.217   2.928   8.404  0.7021 -0.2041  1.1275
 3480TIP3    H232076   0.173   2.854   8.528 -1.0328 -1.1573 -0.0263
 3481TIP3   OH232077   2.991   5.026   1.376  0.7919 -1.4114 -0.0696
 3481TIP3    H132078   3.010   5.120   1.365 -0.4154 -1.1881 -0.3639
 3481TIP3    H232079   2.965   4.996   1.289  0.9322 -1.9708  0.0759
 3482TIP3   OH232080   6.278   1.808   7.220 -0.2168  0.7258  0.0859
 3482TIP3    H132081   6.255   1.849   7.137  1.0782  1.3889  0.0397
 3482TIP3    H232082   6.193   1.784   7.258 -0.7872 -0.7490 -1.9581
 3483TIP3   OH232083   3.938   6.500   8.583 -0.0179 -0.1328 -0.4192
 3483TIP3    H132084   3.927   6.410   8.554 -1.7459 -0.8709  2.1748
 3483TIP3    H232085   4.024   6.502   8.625 -0.3100 -0.8091  0.2275
 3484TIP3   OH232086   1.385   1.761   8.371  0.2529 -0.9362 -0.3026
 3484TIP3    H132087   1.343   1.825   8.427 -1.6165 -1.6767 -0.7659
 3484TIP3    H232088   1.313   1.709   8.335  1.4846 -1.5375 -2.0936
 3485TIP3   OH232089   4.965   0.107   6.479 -0.5746 -0.4306 -0.3444
 3485TIP3    H132090   5.015   0.143   6.553  2.0560  0.0622 -2.2225
 3485TIP3    H232091   4.994   0.016   6.472 -1.2399 -0.6411 -0.4460
 3486TIP3   OH232092   4.660   6.117   7.882  0.1962 -0.4871 -0.0852
 3486TIP3    H132093   4.669   6.138   7.789  0.0281  1.0512  0.2172
 3486TIP3    H232094   4.566   6.121   7.898  0.2417 -0.5422  0.1987
 3487TIP3   OH232095   3.639   5.436   2.001  0.3978 -0.4769  0.3695
 3487TIP3    H132096   3.547   5.452   2.022  1.0395  3.3534  0.9639
 3487TIP3    H232097   3.638   5.401   1.912 -1.6350 -1.1077  0.5907
 3488TIP3   OH232098   0.315   4.298   8.767 -0.4531  0.2246  0.1901
 3488TIP3    H132099   0.246   4.287   8.702 -2.2275  2.2543  1.5790
 3488TIP3    H232100   0.323   4.213   8.810 -2.9674  0.1983  0.7559
 3489TIP3   OH232101   6.407   3.314   8.021  0.3672  0.1551  0.0261
 3489TIP3    H132102   6.343   3.385   8.013  0.2691  0.0411 -0.2237
 3489TIP3    H232103   6.372   3.257   8.090  0.4343  0.3363  0.2093
 3490TIP3   OH232104   5.775   0.636   1.363  0.7668  0.3964  0.6272
 3490TIP3    H132105   5.831   0.616   1.288  0.5163  2.0652 -0.0573
 3490TIP3    H232106   5.740   0.723   1.344  0.1171  0.5521  2.3531
 3491TIP3   OH232107   2.883   1.988   7.197  0.3423  0.0273  0.1087
 3491TIP3    H132108   2.889   1.935   7.276 -1.2251  0.0956  0.3132
 3491TIP3    H232109   2.854   1.927   7.129 -0.2162  0.3393  0.0538
 3492TIP3   OH232110   0.053   1.176   1.307 -0.2306 -0.1380 -0.3913
 3492TIP3    H132111   0.095   1.090   1.309  2.4366  1.0610  1.1131
 3492TIP3    H232112  -0.020   1.166   1.247  1.0133 -2.9925 -1.5974
 3493TIP3   OH232113   6.095   5.382   2.033  0.3852 -0.0417  0.1269
 3493TIP3    H132114   6.178   5.365   1.987  0.3877 -0.0191  0.1234
 3493TIP3    H232115   6.031   5.328   1.986  0.4237 -0.1657  0.2154
 3494TIP3   OH232116   3.934   1.872   6.820  0.4815  0.2097  0.0055
 3494TIP3    H132117   3.983   1.800   6.780 -0.1282  0.4199 -1.1855
 3494TIP3    H232118   3.925   1.937   6.749 -0.1732  0.8460  0.6502
 3495TIP3   OH232119   4.050   6.522   7.682  0.5447  0.5247  0.6386
 3495TIP3    H132120   4.059   6.511   7.587 -2.3327  1.2433  0.1814
 3495TIP3    H232121   4.061   6.616   7.696  0.8151  0.4404  0.9932
 3496TIP3   OH232122   5.715   5.517   0.909 -0.0803 -0.5207  0.1065
 3496TIP3    H132123   5.627   5.491   0.881 -0.1940 -0.4594  0.3960
 3496TIP3    H232124   5.763   5.435   0.918 -0.2951 -0.6014  0.5561
 3497TIP3   OH232125   5.706   6.089   1.605 -0.2768  0.0409 -0.6591
 3497TIP3    H132126   5.636   6.028   1.580 -1.2330  0.6914  0.2963
 3497TIP3    H232127   5.745   6.049   1.683 -0.6123  0.4093 -0.2944
 3498TIP3   OH232128   6.736   6.680   0.601 -0.1445 -0.4085  0.3356
 3498TIP3    H132129   6.789   6.754   0.572 -0.9856 -0.2534 -0.8761
 3498TIP3    H232130   6.675   6.718   0.664  1.2057 -0.6115  1.8430
 3499TIP3   OH232131   2.625   2.109   0.423  0.5870 -0.3043 -0.1390
 3499TIP3    H132132   2.629   2.166   0.499 -0.2531 -0.6601  0.1891
 3499TIP3    H232133   2.674   2.031   0.449  2.8780  0.7478 -1.0618
 3500TIP3   OH232134   4.024   1.180   7.745  0.0248 -0.0677 -0.4967
 3500TIP3    H132135   3.966   1.165   7.819 -0.6510  1.0482 -0.7912
 3500TIP3    H232136   4.053   1.271   7.754  1.0567 -0.3414 -0.8344
 3501TIP3   OH232137   0.494   2.237   1.527 -0.5194  0.3610  0.1572
 3501TIP3    H132138   0.529   2.212   1.442  1.3912  0.4253  0.8797
 3501TIP3    H232139   0.476   2.331   1.518 -0.6906  0.2870 -0.2900
 3502TIP3   OH232140   3.197   1.216   1.737  0.3168 -0.0830  0.4977
 3502TIP3    H132141   3.249   1.145   1.775  0.9437 -0.4474 -0.9891
 3502TIP3    H232142   3.248   1.295   1.755  0.7888 -0.2959  0.1337
 3503TIP3   OH232143   3.156   4.272   8.567 -0.2848 -0.1317  0.2733
 3503TIP3    H132144   3.194   4.326   8.637 -2.1290  2.2334 -0.4244
 3503TIP3    H232145   3.085   4.224   8.609 -0.3188  0.0019  0.3699
 3504TIP3   OH232146   3.511   2.536   0.278 -0.1829 -0.4081 -0.5231
 3504TIP3    H132147   3.598   2.578   0.282  1.0394 -2.6192 -1.9296
 3504TIP3    H232148   3.495   2.507   0.368  1.0377 -0.8811 -0.4311
 3505TIP3   OH232149   3.224   4.681   0.569 -0.0136 -0.0714 -0.2818
 3505TIP3    H132150   3.214   4.740   0.643 -2.3074  1.2151 -1.4870
 3505TIP3    H232151   3.318   4.677   0.554  0.4132  0.5756  1.9404
 3506TIP3   OH232152   0.967   6.102   7.853 -0.3974  0.3420  0.5079
 3506TIP3    H132153   0.936   6.164   7.919 -0.9568  1.3810 -0.6883
 3506TIP3    H232154   0.977   6.154   7.773 -0.1358 -0.9533 -0.3427
 3507TIP3   OH232155   0.985   3.568   7.755 -0.2460  0.0269  0.5924
 3507TIP3    H132156   0.963   3.498   7.817  1.6845 -0.5693  0.6725
 3507TIP3    H232157   0.940   3.543   7.675  1.0199 -1.8025  0.3791
 3508TIP3   OH232158   3.229   1.229   7.974  0.0847  0.0727  0.3168
 3508TIP3    H132159   3.194   1.305   7.926  3.0258  0.0089 -2.1968
 3508TIP3    H232160   3.182   1.154   7.937  1.1695  0.1926 -1.3994
 3509TIP3   OH232161   6.044   2.064   1.894 -0.3113  0.5176 -0.4924
 3509TIP3    H132162   6.139   2.069   1.885 -0.2921 -0.3109 -0.8139
 3509TIP3    H232163   6.027   1.973   1.918 -1.0178  0.6973 -0.2895
 3510TIP3   OH232164   2.614   6.772   1.225  0.0668  0.4795  0.1495
 3510TIP3    H132165   2.598   6.825   1.303  0.9584  0.2091  0.5277
 3510TIP3    H232166   2.564   6.691   1.240  0.5719  0.2500  0.6439
 3511TIP3   OH232167   3.360   5.827   6.659 -0.0897 -0.4273 -0.0994
 3511TIP3    H132168   3.342   5.912   6.618 -1.6674  0.1947  1.7513
 3511TIP3    H232169   3.299   5.767   6.616 -2.8008  0.5169  2.1620
 3512TIP3   OH232170   5.794   3.363   7.345 -0.2521 -0.7433 -0.2938
 3512TIP3    H132171   5.888   3.379   7.343 -0.6788  2.2645 -0.9590
 3512TIP3    H232172   5.774   3.347   7.437  0.9791 -2.4260 -0.2679
 3513TIP3   OH232173   2.749   5.879   7.722  0.4448 -0.4658 -0.5383
 3513TIP3    H132174   2.675   5.933   7.750  1.3673  0.8707 -0.5521
 3513TIP3    H232175   2.710   5.809   7.670 -0.9306 -0.6346  0.6547
 3514TIP3   OH232176   5.129   2.526   2.272 -0.0261 -0.0604 -0.0741
 3514TIP3    H132177   5.196   2.580   2.314 -1.2346  1.6649 -0.2627
 3514TIP3    H232178   5.113   2.455   2.335  1.2904  0.0118  0.3821
 3515TIP3   OH232179   6.425   1.115   7.980  0.2765 -0.1809  0.0404
 3515TIP3    H132180   6.390   1.101   8.068 -1.3903  0.6089 -0.4642
 3515TIP3    H232181   6.410   1.033   7.935 -1.3228  0.2446 -0.2673
 3516TIP3   OH232182   5.289   2.249   7.108  0.0761  0.3679  0.2096
 3516TIP3    H132183   5.314   2.256   7.016 -0.7731 -1.1411 -0.1739
 3516TIP3    H232184   5.227   2.320   7.122  0.1070  0.5214 -0.4198
 3517TIP3   OH232185   6.699   4.645   0.019  0.0919  0.5453  0.0759
 3517TIP3    H132186   6.743   4.623  -0.064  2.0809  0.3399  1.1174
 3517TIP3    H232187   6.735   4.583   0.082 -3.3938 -1.1348  0.6587
 3518TIP3   OH232188   0.265   4.704   0.705 -0.0583 -0.0225 -0.0053
 3518TIP3    H132189   0.259   4.629   0.645 -1.2101  0.9601 -1.1742
 3518TIP3    H232190   0.191   4.691   0.765 -0.3964  0.2863 -0.3509
 3519TIP3   OH232191   4.582   2.064   1.814  0.1275  0.1463 -0.2185
 3519TIP3    H132192   4.554   1.994   1.756  0.1844 -0.7347  0.7921
 3519TIP3    H232193   4.546   2.040   1.900  0.7095  1.0050  0.2804
 3520TIP3   OH232194   4.403   0.185   1.592 -0.2310 -0.2344 -0.5945
 3520TIP3    H132195   4.475   0.129   1.622  0.7150  1.3797  0.2788
 3520TIP3    H232196   4.344   0.191   1.667 -0.7603 -0.7033 -0.9623
 3521TIP3   OH232197   1.495   0.714   0.057 -0.1222  0.3387 -0.0194
 3521TIP3    H132198   1.406   0.724   0.089 -0.1033 -0.5835  0.3430
 3521TIP3    H232199   1.518   0.623   0.077  0.6359  0.3521 -0.7643
 3522TIP3   OH232200   5.328   0.851   1.613 -0.6997  0.6009 -0.3038
 3522TIP3    H132201   5.357   0.824   1.525 -1.0889  1.8024 -0.8221
 3522TIP3    H232202   5.395   0.914   1.641  0.0271 -0.5888  0.7555
 3523TIP3   OH232203   4.710   2.689   7.750 -0.2009 -0.1706 -0.2701
 3523TIP3    H132204   4.698   2.784   7.754  0.4120 -0.1023  0.0743
 3523TIP3    H232205   4.797   2.677   7.713 -0.4833 -0.6123 -0.8047
 3524TIP3   OH232206   4.176   1.983   0.949 -0.2455  0.7860  0.0423
 3524TIP3    H132207   4.106   1.924   0.978  0.0808  0.7510  0.7841
 3524TIP3    H232208   4.249   1.963   1.007  1.0237 -0.4781 -1.9057
 3525TIP3   OH232209   1.069   5.653   6.905  0.9243  0.0371  0.2011
 3525TIP3    H132210   1.054   5.564   6.873 -0.2513 -0.2471  1.4382
 3525TIP3    H232211   1.124   5.642   6.983 -0.3274  0.2189  1.1576
 3526TIP3   OH232212   1.499   1.407   7.643 -0.5960  0.3603 -0.3245
 3526TIP3    H132213   1.485   1.459   7.563 -1.5071  1.2935  0.4173
 3526TIP3    H232214   1.484   1.469   7.714  0.4874 -0.3938  0.5863
 3527TIP3   OH232215   5.992   4.353   1.548 -0.1065 -0.1529  0.1070
 3527TIP3    H132216   5.936   4.281   1.578 -2.1848  1.1910 -0.3580
 3527TIP3    H232217   6.031   4.388   1.628 -2.2450  0.6928  0.8562
 3528TIP3   OH232218   4.618   1.695   0.380  0.5953 -0.8230  0.7347
 3528TIP3    H132219   4.560   1.699   0.457 -2.5409  0.9874 -1.5049
 3528TIP3    H232220   4.699   1.735   0.410  0.0322 -1.5310  3.4986
 3529TIP3   OH232221   1.814   4.894   0.905  0.2519  0.4442  0.4471
 3529TIP3    H132222   1.773   4.978   0.921 -0.4636  1.0154 -3.3464
 3529TIP3    H232223   1.741   4.832   0.898  0.5486  0.1046  0.3116
 3530TIP3   OH232224   3.236   4.652   8.470  0.2554 -0.9326  0.0008
 3530TIP3    H132225   3.330   4.637   8.460  0.3459 -0.4027  0.0166
 3530TIP3    H232226   3.227   4.687   8.559  0.0906 -0.5956 -0.1484
 3531TIP3   OH232227   2.922   0.254   8.793  0.2437 -0.0903  0.3438
 3531TIP3    H132228   2.921   0.158   8.790  2.1047 -0.1581  0.8759
 3531TIP3    H232229   2.938   0.280   8.703  0.5042 -0.3098  0.3245
 3532TIP3   OH232230   5.975   2.494   8.589 -0.0360 -0.6016  0.2630
 3532TIP3    H132231   5.884   2.465   8.596  0.4278 -2.8356 -1.5707
 3532TIP3    H232232   6.025   2.429   8.637  0.6035  1.2462  2.2649
 3533TIP3   OH232233   0.590   2.301   7.004 -0.2010 -0.3730 -0.0342
 3533TIP3    H132234   0.615   2.219   6.962 -1.4230 -0.7562 -0.0520
 3533TIP3    H232235   0.664   2.359   6.988  0.0043 -0.9657 -1.4248
 3534TIP3   OH232236   1.746   5.360   2.168  0.0345 -0.1717  0.1594
 3534TIP3    H132237   1.777   5.424   2.231  1.4428  0.4173 -1.0643
 3534TIP3    H232238   1.658   5.336   2.198  0.3738  0.6279  1.8894
 3535TIP3   OH232239   5.631   3.254   8.395 -0.4720  0.7518 -0.1908
 3535TIP3    H132240   5.714   3.247   8.348 -1.1889  2.6739 -1.8810
 3535TIP3    H232241   5.570   3.200   8.344 -0.6855  0.8692 -0.0620
 3536TIP3   OH232242   4.242   0.207   7.372 -0.1755  0.2175  0.2563
 3536TIP3    H132243   4.171   0.143   7.368 -0.7269  0.6913  1.8300
 3536TIP3    H232244   4.264   0.214   7.465  0.8203  1.2803 -0.0321
 3537TIP3   OH232245   6.669   2.952   8.299 -0.2054 -0.2531 -0.5595
 3537TIP3    H132246   6.730   3.015   8.339 -0.2967  0.1284 -1.0108
 3537TIP3    H232247   6.713   2.867   8.308 -0.4876 -0.2805  0.8891
 3538TIP3   OH232248   5.762   4.398   8.318  0.2047 -0.5978  0.5887
 3538TIP3    H132249   5.829   4.450   8.362  1.2404 -2.8412  1.8618
 3538TIP3    H232250   5.701   4.373   8.387 -1.1095  0.1096 -0.2672
 3539TIP3   OH232251   4.028   1.795   1.436 -0.9047  0.0828  0.6131
 3539TIP3    H132252   4.080   1.856   1.489 -0.8767  0.2087  0.4411
 3539TIP3    H232253   3.989   1.849   1.368 -2.1285  0.1764  1.3603
 3540TIP3   OH232254   4.992   3.348   8.304  0.2563  0.5077  0.3613
 3540TIP3    H132255   5.064   3.305   8.258  0.2173  2.1795 -1.3951
 3540TIP3    H232256   4.939   3.276   8.339  1.7816 -0.7719  0.1298
 3541TIP3   OH232257   2.318   6.344   1.600 -0.1619  0.6951  0.0963
 3541TIP3    H132258   2.347   6.253   1.607 -1.6421  0.3245  3.0882
 3541TIP3    H232259   2.319   6.362   1.506  1.8911 -1.8003 -0.4746
 3542TIP3   OH232260   2.164   3.273   0.728  0.2874  0.4073 -0.3849
 3542TIP3    H132261   2.078   3.230   0.724  0.6042 -0.3227  0.2199
 3542TIP3    H232262   2.181   3.284   0.822  1.7513 -1.3662 -0.3828
 3543TIP3   OH232263   1.776   3.429   7.410  0.5106 -0.0965  0.2497
 3543TIP3    H132264   1.717   3.503   7.397  0.5152 -0.3962 -1.8397
 3543TIP3    H232265   1.857   3.456   7.367  1.1618 -0.5807  1.1444
 3544TIP3   OH232266   2.033   2.023   1.482 -0.1905  0.1345  0.2775
 3544TIP3    H132267   1.969   1.993   1.417 -1.1335 -0.0317  1.2701
 3544TIP3    H232268   2.086   1.945   1.500 -0.9188 -0.2405  0.8485
 3545TIP3   OH232269   5.186   4.074   0.204 -0.2776 -0.2373  0.0489
 3545TIP3    H132270   5.159   4.024   0.126  0.8142 -0.7269 -0.0257
 3545TIP3    H232271   5.271   4.038   0.228 -0.1176  0.6311  0.8507
 3546TIP3   OH232272   0.431   3.959   7.168  0.3557  0.0426  0.2210
 3546TIP3    H132273   0.348   3.914   7.154  1.5740 -1.9154 -1.1450
 3546TIP3    H232274   0.447   3.950   7.262 -2.4509  3.3596  1.2534
 3547TIP3   OH232275   0.034   0.992   6.890 -0.0784 -0.0564  0.2110
 3547TIP3    H132276   0.074   0.906   6.902  2.3256  1.0477  0.8130
 3547TIP3    H232277   0.092   1.036   6.828 -1.1330  1.2137  0.0889
 3548TIP3   OH232278   0.268   5.811   7.870  0.1231 -0.3370  0.1370
 3548TIP3    H132279   0.241   5.860   7.793  1.1092 -0.7598 -0.4905
 3548TIP3    H232280   0.265   5.875   7.942 -1.4648 -0.1187 -0.1053
 3549TIP3   OH232281   1.411   3.777   0.285 -0.1463  0.1700 -0.3400
 3549TIP3    H132282   1.412   3.697   0.339  2.2701 -0.7854 -1.6559
 3549TIP3    H232283   1.383   3.846   0.345  2.3902 -0.8263  2.2013
 3550TIP3   OH232284   4.252   6.122   6.945 -0.1404 -0.2540  0.0293
 3550TIP3    H132285   4.300   6.155   6.869 -0.7697  1.0067  0.1520
 3550TIP3    H232286   4.161   6.145   6.927 -0.5688 -1.6253  0.3113
 3551TIP3   OH232287   3.106   4.761   8.713 -0.2226 -0.1839  0.1933
 3551TIP3    H132288   3.064   4.697   8.771 -2.3175  2.6069  2.0089
 3551TIP3    H232289   3.042   4.776   8.644  0.5563 -0.5363 -0.6187
 3552TIP3   OH232290   4.293   4.292   1.800  0.0608 -0.2359  0.0768
 3552TIP3    H132291   4.286   4.328   1.711  0.1419 -0.7531 -0.1436
 3552TIP3    H232292   4.310   4.368   1.855  0.3176  0.0577 -0.3961
 3553TIP3   OH232293   5.687   5.333   1.729  0.2264 -0.2285  0.3114
 3553TIP3    H132294   5.696   5.407   1.789  0.3053  0.2557 -0.2928
 3553TIP3    H232295   5.773   5.325   1.688 -0.6801  1.5233 -2.1332
 3554TIP3   OH232296   0.401   5.736   6.694 -0.3570  0.2496 -0.1215
 3554TIP3    H132297   0.409   5.830   6.674  2.4429  0.3155  0.8630
 3554TIP3    H232298   0.459   5.693   6.631  0.2595 -0.5653  0.9694
 3555TIP3   OH232299   6.575   5.801   1.416  0.6654 -0.2948 -0.1060
 3555TIP3    H132300   6.651   5.858   1.430  0.2358  0.2876 -0.1305
 3555TIP3    H232301   6.507   5.837   1.473  0.3095 -0.6347 -0.3087
 3556TIP3   OH232302   6.242   3.753   7.184 -0.2028  0.1101 -0.4034
 3556TIP3    H132303   6.335   3.747   7.206 -0.3986 -0.6937  0.2373
 3556TIP3    H232304   6.235   3.835   7.135  0.7386  0.4968  0.0771
 3557TIP3   OH232305   2.752   2.657   8.201  0.0093  0.3398  0.0215
 3557TIP3    H132306   2.754   2.626   8.110 -0.0534  0.1497  0.0846
 3557TIP3    H232307   2.723   2.748   8.195 -1.6066 -0.1572 -0.0144
 3558TIP3   OH232308   6.230   2.247   1.424  0.5518  0.3352 -0.1640
 3558TIP3    H132309   6.157   2.268   1.483  0.0970  0.6156 -0.8161
 3558TIP3    H232310   6.307   2.284   1.468  0.0981  1.3022 -0.1481
 3559TIP3   OH232311   5.068   6.613   1.402  0.1232  0.3258 -0.4651
 3559TIP3    H132312   5.023   6.662   1.470 -0.7610  1.0345 -1.5242
 3559TIP3    H232313   5.150   6.661   1.388  0.6118 -0.2034  0.5456
 3560TIP3   OH232314   6.454   6.227   0.753  0.2435 -0.3931 -0.4278
 3560TIP3    H132315   6.500   6.303   0.718  1.8619 -0.8289  0.6297
 3560TIP3    H232316   6.404   6.261   0.827  1.6518 -0.4464  0.5922
 3561TIP3   OH232317   3.976   2.244   7.141 -0.3980  0.5946 -0.3562
 3561TIP3    H132318   3.926   2.260   7.060 -1.2439  2.1179  0.4357
 3561TIP3    H232319   3.952   2.155   7.166 -0.3169  0.1879 -1.6386
 3562TIP3   OH232320   0.851   4.393   1.599  0.2073  0.1377 -0.1864
 3562TIP3    H132321   0.940   4.402   1.633  0.5667 -2.1025 -0.4161
 3562TIP3    H232322   0.825   4.483   1.578  3.0642  0.7010 -1.7921
 3563TIP3   OH232323   5.962   3.315   8.317  0.3088  1.2528 -0.4546
 3563TIP3    H132324   5.936   3.228   8.347 -0.1732  1.8011  0.7960
 3563TIP3    H232325   5.977   3.305   8.223  0.0367 -0.1183 -0.3715
 3564TIP3   OH232326   2.791   1.707   8.663 -0.1407 -0.0133  0.2407
 3564TIP3    H132327   2.818   1.652   8.736  0.2036  1.6169  1.4010
 3564TIP3    H232328   2.739   1.776   8.703  1.0840  1.6229 -0.8640
 3565TIP3   OH232329   5.268   6.027   7.895  0.1719 -0.0241 -0.4826
 3565TIP3    H132330   5.209   5.960   7.860  0.9876 -2.0500  1.7559
 3565TIP3    H232331   5.211   6.088   7.941 -0.3626 -1.0368  0.2353
 3566TIP3   OH232332   0.650   0.900   1.614  0.0185  0.0307  0.0205
 3566TIP3    H132333   0.716   0.954   1.569  0.5475 -1.1838 -0.6977
 3566TIP3    H232334   0.568   0.923   1.572 -0.0536  1.5398  0.8999
 3567TIP3   OH232335   1.083   2.050   0.968  0.4302  1.1886  0.7511
 3567TIP3    H132336   0.999   2.051   1.013  0.8370  0.9170  1.5386
 3567TIP3    H232337   1.114   2.140   0.974 -0.1295  1.4629 -0.1980
 3568TIP3   OH232338   0.492   6.005   2.123  0.2055  0.3919  0.5188
 3568TIP3    H132339   0.441   6.060   2.063  0.2487  0.0224  0.1439
 3568TIP3    H232340   0.583   6.031   2.108  0.3235 -0.5030 -0.4109
 3569TIP3   OH232341   4.212   5.801   7.935  0.2913  0.4461  0.4689
 3569TIP3    H132342   4.143   5.850   7.979 -0.3244  0.9418 -1.0103
 3569TIP3    H232343   4.258   5.755   8.006 -0.7810  1.0685  1.5896
 3570TIP3   OH232344   6.437   3.177   1.678 -0.1885  0.7281 -0.3242
 3570TIP3    H132345   6.478   3.231   1.611  0.9421  0.5363  0.1848
 3570TIP3    H232346   6.343   3.182   1.660  0.1190  0.2663 -2.2154
 3571TIP3   OH232347   6.020   4.021   7.567 -0.0990  0.4057 -0.0278
 3571TIP3    H132348   5.986   4.111   7.576  1.6119  0.9608  1.4001
 3571TIP3    H232349   5.974   3.986   7.491 -0.7193  2.5441 -0.7152
 3572TIP3   OH232350   2.202   4.032   7.195 -0.2177  0.6889 -0.5323
 3572TIP3    H132351   2.249   4.106   7.158  0.4272  1.0930  1.0175
 3572TIP3    H232352   2.120   4.028   7.145 -0.4872  2.7457 -0.3347
 3573TIP3   OH232353   3.786   2.568   1.956  0.0736 -0.0801 -0.6632
 3573TIP3    H132354   3.715   2.626   1.983 -0.2509 -1.6249  2.2485
 3573TIP3    H232355   3.751   2.479   1.968  1.6483 -0.8842 -1.6433
 3574TIP3   OH232356   0.148   0.221   8.677  0.6574 -0.8239  0.3638
 3574TIP3    H132357   0.196   0.289   8.725 -0.2615 -0.4475  0.7646
 3574TIP3    H232358   0.145   0.147   8.738  2.0502 -1.4288 -0.2349
 3575TIP3   OH232359   3.851   4.325   8.099  0.2481  0.5557  0.3787
 3575TIP3    H132360   3.940   4.354   8.079  0.6410 -1.2356 -0.7500
 3575TIP3    H232361   3.794   4.388   8.054  1.0118  0.3814 -0.8613
 3576TIP3   OH232362   4.247   2.262   7.695 -0.1823 -0.7777  0.0451
 3576TIP3    H132363   4.277   2.275   7.785  0.7144  1.5818 -0.5057
 3576TIP3    H232364   4.163   2.308   7.691 -0.2173 -0.8688 -0.3031
 3577TIP3   OH232365   2.843   4.337   1.206  0.2762 -0.5811  0.0172
 3577TIP3    H132366   2.783   4.309   1.275  0.7125  0.2635  0.7482
 3577TIP3    H232367   2.824   4.277   1.133 -1.8828  0.0215 -0.0072
 3578TIP3   OH232368   3.417   0.681   1.105  0.1063  0.3980 -0.0294
 3578TIP3    H132369   3.471   0.602   1.103 -2.3424 -1.3819 -0.8886
 3578TIP3    H232370   3.358   0.672   1.030 -1.1580  2.3818  0.6387
 3579TIP3   OH232371   1.493   3.360   7.484 -0.2866  0.6458  0.3880
 3579TIP3    H132372   1.420   3.386   7.428 -1.7598 -2.4515  0.6737
 3579TIP3    H232373   1.501   3.433   7.546 -0.5181  2.8218 -1.9490
 3580TIP3   OH232374   4.150   2.061   6.643 -0.4555  0.3095  0.0808
 3580TIP3    H132375   4.125   2.149   6.615 -0.2344 -0.0331 -1.2890
 3580TIP3    H232376   4.113   2.004   6.576  1.6450 -0.4226 -0.5213
 3581TIP3   OH232377   5.300   0.668   7.398 -0.3591  0.0151 -0.6377
 3581TIP3    H132378   5.218   0.619   7.397 -0.6876  0.5004  0.3522
 3581TIP3    H232379   5.272   0.760   7.407  0.2380  0.0058  2.9828
 3582TIP3   OH232380   4.202   2.152   8.813 -0.6044 -0.0209  0.2233
 3582TIP3    H132381   4.205   2.058   8.800  0.9251  0.2002 -1.5129
 3582TIP3    H232382   4.131   2.182   8.756 -2.0769 -0.2041  1.8682
 3583TIP3   OH232383   0.020   4.862   6.860  0.0188 -0.3590  0.2678
 3583TIP3    H132384   0.059   4.887   6.777 -0.8534  0.5889  0.1126
 3583TIP3    H232385   0.048   4.931   6.921  0.7281 -1.0962  0.7852
 3584TIP3   OH232386   1.498   2.610   1.657 -0.2217 -0.1786  0.1630
 3584TIP3    H132387   1.558   2.563   1.598  0.4854  2.3368 -1.2439
 3584TIP3    H232388   1.411   2.581   1.629  0.1878 -0.9487 -0.3911
 3585TIP3   OH232389   4.506   3.048   7.170 -0.4779  0.2124 -0.1913
 3585TIP3    H132390   4.500   2.953   7.174  1.1193  0.0396 -1.1442
 3585TIP3    H232391   4.488   3.077   7.260 -1.7273 -0.9088 -0.0514
 3586TIP3   OH232392   2.132   6.768   8.728 -0.2542  0.6329 -0.1145
 3586TIP3    H132393   2.132   6.860   8.754 -0.1924 -0.1879  3.1975
 3586TIP3    H232394   2.152   6.720   8.808  0.8240 -2.2575 -1.9336
 3587TIP3   OH232395   5.360   5.777   1.534 -0.0147  0.0958  0.1749
 3587TIP3    H132396   5.418   5.705   1.561 -0.5001 -0.1700  0.5213
 3587TIP3    H232397   5.394   5.854   1.579  2.1508  0.6737 -2.2463
 3588TIP3   OH232398   1.408   5.861   1.661 -0.4254  0.5354 -0.2792
 3588TIP3    H132399   1.407   5.939   1.606  0.5399  0.4864 -0.3887
 3588TIP3    H232400   1.398   5.788   1.601 -0.0838  0.5166 -0.3139
 3589TIP3   OH232401   6.718   1.707   8.041 -0.0163 -0.4805 -0.2060
 3589TIP3    H132402   6.657   1.754   7.984  1.3576  1.2958 -0.3158
 3589TIP3    H232403   6.707   1.747   8.127 -2.2399 -3.2980  0.9870
 3590TIP3   OH232404   3.016   6.131   8.770 -0.0356 -0.1892 -0.4490
 3590TIP3    H132405   3.007   6.036   8.762 -0.5769 -0.0077 -2.7460
 3590TIP3    H232406   3.063   6.157   8.691 -0.6370  1.5369 -0.2746
 3591TIP3   OH232407   3.455   3.516   1.011  0.1813  0.7968 -0.1624
 3591TIP3    H132408   3.462   3.583   0.943  4.6429  2.7553  1.8336
 3591TIP3    H232409   3.523   3.452   0.988  1.1685  1.0481  1.8641
 3592TIP3   OH232410   5.382   6.026   2.592  0.6035  0.0178  0.0028
 3592TIP3    H132411   5.405   6.087   2.662 -0.4685  0.7502 -0.2648
 3592TIP3    H232412   5.322   6.075   2.536 -1.0087 -1.5496  0.2557
 3593TIP3   OH232413   1.342   0.336   0.065  0.3390 -0.3489  0.0168
 3593TIP3    H132414   1.361   0.395   0.138 -1.2426  1.7688 -1.1804
 3593TIP3    H232415   1.284   0.269   0.102  2.7599 -1.7083  1.5710
 3594TIP3   OH232416   3.821   2.731   0.379  0.3272  0.0865  0.3785
 3594TIP3    H132417   3.821   2.805   0.319  1.8045 -0.3592 -0.2324
 3594TIP3    H232418   3.807   2.655   0.323  0.1821 -0.2069  0.8083
 3595TIP3   OH232419   6.693   4.665   6.787  0.2227 -0.0243  0.1386
 3595TIP3    H132420   6.736   4.605   6.726  0.3701  0.5493 -0.3284
 3595TIP3    H232421   6.763   4.722   6.818  0.0681 -0.0358  0.5173
 3596TIP3   OH232422   4.359   1.595   6.853  0.8960  0.1068 -0.2730
 3596TIP3    H132423   4.346   1.603   6.758 -1.7954  0.5134  0.0417
 3596TIP3    H232424   4.301   1.523   6.878  2.1135 -0.4560  0.9821
 3597TIP3   OH232425   0.215   2.908   1.239 -0.0109  0.1355  0.2691
 3597TIP3    H132426   0.143   2.879   1.295  0.2935 -0.1156  0.5320
 3597TIP3    H232427   0.278   2.837   1.242  0.3474  0.4452  0.2098
 3598TIP3   OH232428   3.587   2.934   0.851 -0.0984  0.0440  0.0496
 3598TIP3    H132429   3.668   2.981   0.831 -0.4127  0.7690  0.4740
 3598TIP3    H232430   3.567   2.955   0.942 -1.2341  0.5907 -0.3025
 3599TIP3   OH232431   4.023   0.307   7.594  0.0302 -0.6445 -0.5526
 3599TIP3    H132432   4.037   0.401   7.592 -0.6474 -0.4719  0.9317
 3599TIP3    H232433   3.959   0.291   7.524 -0.3635  0.1129 -0.3856
 3600TIP3   OH232434   0.849   5.052   6.768 -0.5937 -0.5284  0.5328
 3600TIP3    H132435   0.760   5.085   6.754 -1.4253 -2.6783  0.2980
 3600TIP3    H232436   0.885   5.108   6.837 -1.9240  0.7215  0.2582
 3601TIP3   OH232437   0.297   1.993   7.825  0.2836  0.1672 -0.0561
 3601TIP3    H132438   0.242   2.000   7.903 -0.1722  0.9828 -0.4420
 3601TIP3    H232439   0.386   1.984   7.859  0.0988  0.6100  0.5640
 3602TIP3   OH232440   4.900   0.418   5.879  0.2065 -0.7649 -0.2342
 3602TIP3    H132441   4.950   0.418   5.961 -0.6409  0.3988  0.3017
 3602TIP3    H232442   4.941   0.487   5.827  2.8877 -3.5768 -2.2136
 3603TIP3   OH232443   3.301   2.329   0.229 -0.0130 -0.3226  0.0518
 3603TIP3    H132444   3.375   2.381   0.258 -0.5483 -1.7089  4.6972
 3603TIP3    H232445   3.226   2.390   0.234  0.0994 -0.2040  0.3132
 3604TIP3   OH232446   3.590   3.367   1.800 -0.2491 -0.0438  0.4470
 3604TIP3    H132447   3.561   3.313   1.726 -1.1517  0.3127  0.5324
 3604TIP3    H232448   3.592   3.306   1.874  0.4765 -0.3588  0.1802
 3605TIP3   OH232449   4.828   0.620   0.041 -0.6700 -0.0294 -0.0588
 3605TIP3    H132450   4.880   0.580   0.111 -1.6266  0.8335  1.1644
 3605TIP3    H232451   4.890   0.627  -0.032  0.1777 -1.5176  0.4633
 3606TIP3   OH232452   5.159   1.031   6.913 -0.3380 -0.6633  0.8446
 3606TIP3    H132453   5.147   1.032   6.819  0.6861 -0.8846  0.7006
 3606TIP3    H232454   5.071   1.046   6.949 -1.2937 -3.4831 -0.0877
 3607TIP3   OH232455   6.293   4.420   0.817  0.0450  0.3633  0.0270
 3607TIP3    H132456   6.229   4.483   0.785  1.3215  1.6883  0.0279
 3607TIP3    H232457   6.272   4.410   0.910 -0.4718  0.3943 -0.0821
 3608TIP3   OH232458   5.645   6.740   0.104  0.1846 -0.4765 -0.6827
 3608TIP3    H132459   5.669   6.799   0.175  1.9266  0.4162 -1.9325
 3608TIP3    H232460   5.703   6.664   0.115 -1.1548 -1.4313  0.1574
 3609TIP3   OH232461   1.610   4.830   7.390 -0.6525  0.6137  0.2668
 3609TIP3    H132462   1.560   4.909   7.371 -0.7063  0.4444 -0.3230
 3609TIP3    H232463   1.558   4.759   7.352 -1.7833 -0.0013  2.7858
 3610TIP3   OH232464   0.887   1.107   8.739 -0.4643 -0.4000  0.9847
 3610TIP3    H132465   0.811   1.162   8.759 -1.0473  0.0983 -2.1252
 3610TIP3    H232466   0.951   1.168   8.704 -0.0661 -1.3182  0.0836
 3611TIP3   OH232467   2.616   6.511   8.199 -0.7228  0.4768  0.3780
 3611TIP3    H132468   2.638   6.604   8.201  0.6629  0.1698  0.5652
 3611TIP3    H232469   2.600   6.491   8.107 -2.1016  1.1152  0.4575
 3612TIP3   OH232470   0.754   1.324   1.246 -0.0644  0.0002  0.1690
 3612TIP3    H132471   0.796   1.411   1.245  1.2559 -0.6158  0.2169
 3612TIP3    H232472   0.687   1.330   1.178  0.5678  0.7983 -0.4104
 3613TIP3   OH232473   4.322   6.368   2.169  0.4254 -0.6285  0.2746
 3613TIP3    H132474   4.339   6.461   2.184  2.0926 -0.6054 -1.4600
 3613TIP3    H232475   4.288   6.337   2.253  0.5025  1.3799  1.1177
 3614TIP3   OH232476   2.521   1.608   6.644 -0.7025  0.3165 -0.0969
 3614TIP3    H132477   2.486   1.528   6.605  0.5674  0.1341 -0.9151
 3614TIP3    H232478   2.471   1.679   6.603 -2.6838 -0.0553  1.5281
 3615TIP3   OH232479   3.036   2.457   0.113  1.0383  0.1493 -0.0052
 3615TIP3    H132480   3.086   2.411   0.045  1.0457 -0.4330  0.3895
 3615TIP3    H232481   2.956   2.487   0.068  1.1998  0.0670 -0.3499
 3616TIP3   OH232482   5.596   1.266   2.096  0.3600  0.0519  0.2543
 3616TIP3    H132483   5.663   1.231   2.155  1.1153 -0.2092 -0.7385
 3616TIP3    H232484   5.534   1.311   2.154  0.4857 -1.1441  1.3452
 3617TIP3   OH232485   2.992   0.390   7.788  0.9439  0.2566  0.0963
 3617TIP3    H132486   3.003   0.300   7.758 -2.1216 -0.8759  1.9026
 3617TIP3    H232487   3.008   0.386   7.882  1.1620  1.6831  0.1336
 3618TIP3   OH232488   5.331   6.260   8.458 -0.6505  0.0523 -0.5642
 3618TIP3    H132489   5.415   6.222   8.434  0.0074  1.7803 -1.1734
 3618TIP3    H232490   5.283   6.269   8.376 -0.6911  0.7371 -0.4731
 3619TIP3   OH232491   2.401   6.115   6.297 -0.1579  0.0865 -0.1448
 3619TIP3    H132492   2.437   6.028   6.310 -0.6831  0.1677  2.1775
 3619TIP3    H232493   2.338   6.105   6.226  0.6139 -1.1579 -0.6755
 3620TIP3   OH232494   1.395   5.147   8.599 -0.0493  0.5172  0.5994
 3620TIP3    H132495   1.311   5.122   8.638 -0.1454  0.2542  0.2324
 3620TIP3    H232496   1.450   5.172   8.673  0.1080 -0.9411  1.0025
 3621TIP3   OH232497   5.808   4.212   1.675 -0.1628  0.2139 -0.2268
 3621TIP3    H132498   5.723   4.232   1.714 -0.7450  0.6778 -1.6479
 3621TIP3    H232499   5.792   4.134   1.622  0.0500  0.8161 -1.2092
 3622TIP3   OH232500   6.162   2.218   1.030 -0.4235 -0.1273 -0.2737
 3622TIP3    H132501   6.073   2.194   1.055 -0.5249 -0.3248 -0.8096
 3622TIP3    H232502   6.161   2.218   0.934 -0.0052  0.4572 -0.2836
 3623TIP3   OH232503   5.835   1.945   1.514 -0.0610  0.6618  0.1646
 3623TIP3    H132504   5.793   1.999   1.581  1.6648  2.3094 -0.0217
 3623TIP3    H232505   5.907   1.998   1.482  1.2495 -1.4637 -0.6003
 3624TIP3   OH232506   1.351   2.979   7.029  0.8144  0.0549  0.1808
 3624TIP3    H132507   1.369   2.887   7.046 -0.0814 -0.0835  0.4370
 3624TIP3    H232508   1.298   3.007   7.104 -0.3661  0.3283 -0.7325
 3625TIP3   OH232509   1.304   4.079   6.492 -0.5068 -0.4338  0.4116
 3625TIP3    H132510   1.354   4.035   6.423 -1.8226 -0.1088 -0.7804
 3625TIP3    H232511   1.299   4.014   6.562  1.1119 -0.6617  0.3643
 3626TIP3   OH232512   3.753   0.334   6.886  0.5558 -0.4001 -0.6040
 3626TIP3    H132513   3.673   0.307   6.841 -0.0687 -2.1704  1.4344
 3626TIP3    H232514   3.734   0.422   6.919 -1.5406 -1.6678  1.8863
 3627TIP3   OH232515   1.114   2.509   1.170  0.1577 -0.1277 -0.1720
 3627TIP3    H132516   1.047   2.576   1.154  0.3018  0.1532  0.3487
 3627TIP3    H232517   1.072   2.447   1.230  0.2815 -0.0776 -0.0320
 3628TIP3   OH232518   2.743   5.171   0.588 -0.1870 -0.2684  0.1020
 3628TIP3    H132519   2.647   5.169   0.583 -0.2078  0.4156  0.2265
 3628TIP3    H232520   2.764   5.255   0.627  0.3945 -1.2634  2.0741
 3629TIP3   OH232521   1.830   2.893   1.057 -0.2648  0.2706  0.0356
 3629TIP3    H132522   1.854   2.973   1.104 -0.5098  0.5163 -0.2540
 3629TIP3    H232523   1.806   2.831   1.126  1.3395 -0.0365  0.3550
 3630TIP3   OH232524   5.197   0.380   7.212  0.2365 -0.0306 -0.1421
 3630TIP3    H132525   5.162   0.399   7.125 -2.1556 -3.3089 -0.0919
 3630TIP3    H232526   5.133   0.418   7.272  1.0095  0.7797  0.1896
 3631TIP3   OH232527   5.960   6.242   2.548  0.0601  0.2069  0.1669
 3631TIP3    H132528   5.930   6.321   2.594  0.0730  0.4149 -0.1775
 3631TIP3    H232529   5.912   6.242   2.466  0.0103 -0.1867  0.1941
 3632TIP3   OH232530   6.421   1.572   0.506  0.1107  0.4594  0.5398
 3632TIP3    H132531   6.458   1.638   0.565 -0.7454 -0.5437  2.2581
 3632TIP3    H232532   6.446   1.603   0.418  1.2216  2.1219  1.3735
 3633TIP3   OH232533   5.302   1.327   6.731 -0.5374 -0.4326  0.0441
 3633TIP3    H132534   5.224   1.270   6.734 -0.4194 -0.5475  1.6490
 3633TIP3    H232535   5.365   1.278   6.678 -1.0147 -1.0375  0.0215
 3634TIP3   OH232536   0.701   4.241   0.150 -0.3742  0.2118 -0.6410
 3634TIP3    H132537   0.692   4.172   0.084 -1.8492 -1.6051  1.3340
 3634TIP3    H232538   0.611   4.269   0.167 -0.1955 -0.5318  1.7560
 3635TIP3   OH232539   2.409   3.836   1.401  0.1175  0.9425  0.7331
 3635TIP3    H132540   2.384   3.887   1.324  0.2940  0.7312  0.5372
 3635TIP3    H232541   2.495   3.801   1.380 -1.2510 -2.0545 -0.4675
 3636TIP3   OH232542   4.353   3.070   7.804  0.3433  0.0265 -0.5922
 3636TIP3    H132543   4.261   3.083   7.827  0.2779  0.8016 -1.2107
 3636TIP3    H232544   4.373   2.982   7.833 -0.4277  0.0642  0.0941
 3637TIP3   OH232545   0.936   4.720   0.382 -0.0842 -0.8660 -0.7622
 3637TIP3    H132546   0.913   4.640   0.430 -1.7760 -0.9002 -1.5352
 3637TIP3    H232547   1.030   4.715   0.370  0.6043 -0.4713  3.1688
 3638TIP3   OH232548   6.658   0.132   0.376  0.3417 -0.5099  0.3132
 3638TIP3    H132549   6.750   0.150   0.361  0.1164  0.3337 -0.1121
 3638TIP3    H232550   6.647   0.143   0.471  0.4194  0.6954  0.2014
 3639TIP3   OH232551   1.521   1.332   8.419  0.7671 -0.1321 -0.2219
 3639TIP3    H132552   1.540   1.320   8.512 -1.4266 -0.7604  0.2242
 3639TIP3    H232553   1.528   1.426   8.404 -0.1417  0.1514  0.9478
 3640TIP3   OH232554   6.713   0.034   8.147  0.0025  0.1785 -0.4609
 3640TIP3    H132555   6.788  -0.024   8.157 -0.0575  0.4066  1.7621
 3640TIP3    H232556   6.638  -0.020   8.170 -0.0079  1.1604  2.2173
 3641TIP3   OH232557   4.301   3.505   8.702 -0.3157  0.0959 -0.6487
 3641TIP3    H132558   4.222   3.455   8.720  0.5492 -1.1260 -0.0461
 3641TIP3    H232559   4.279   3.595   8.725 -1.3179 -0.3385  0.1653
 3642TIP3   OH232560   4.530   3.745   0.566 -0.4442 -0.6302 -0.4315
 3642TIP3    H132561   4.525   3.650   0.564  1.6645 -0.7956  0.0146
 3642TIP3    H232562   4.620   3.765   0.538 -0.5491  1.1629  0.3831
 3643TIP3   OH232563   3.301   0.066   1.229  0.5859 -0.7376  0.3121
 3643TIP3    H132564   3.308   0.001   1.299  0.3137 -0.7170  0.3567
 3643TIP3    H232565   3.210   0.063   1.202  0.5661 -0.3429  0.3380
 3644TIP3   OH232566   3.433   0.056   1.997 -0.0950 -0.3350 -0.3001
 3644TIP3    H132567   3.490   0.129   1.971  0.3689 -0.0478  1.4221
 3644TIP3    H232568   3.345   0.093   1.992  0.0897  0.1504 -0.0463
 3645TIP3   OH232569   1.731   2.266   0.197  0.2085 -0.3121  0.1601
 3645TIP3    H132570   1.757   2.174   0.187  0.0941 -0.3443  0.1574
 3645TIP3    H232571   1.636   2.263   0.201  0.2502 -0.4036  2.0249
 3646TIP3   OH232572   1.366   6.781   0.725  0.1635 -0.0579  0.2415
 3646TIP3    H132573   1.450   6.827   0.721 -0.6868  1.5370 -0.2005
 3646TIP3    H232574   1.389   6.692   0.750  1.9520  0.4314  0.5047
 3647TIP3   OH232575   1.666   3.677   7.365  0.2731 -0.2083 -0.4079
 3647TIP3    H132576   1.572   3.685   7.380 -0.2707  1.1072 -3.7544
 3647TIP3    H232577   1.704   3.755   7.407 -0.4136  0.4036 -0.9117
 3648TIP3   OH232578   3.299   2.247   0.715 -0.1370  0.2758  0.1641
 3648TIP3    H132579   3.392   2.226   0.717  0.0941  1.1005 -1.0446
 3648TIP3    H232580   3.283   2.295   0.797 -0.2159 -2.4995  1.9064
 3649TIP3   OH232581   4.155   6.726   7.423  0.9142  0.0538 -0.4166
 3649TIP3    H132582   4.245   6.717   7.393  1.2560 -0.3154  0.6777
 3649TIP3    H232583   4.109   6.651   7.384  1.4156 -0.5783  0.1689
 3650TIP3   OH232584   0.099   5.489   6.890 -0.1440  0.0547 -0.0785
 3650TIP3    H132585   0.072   5.571   6.848  0.2762  0.3147  0.1596
 3650TIP3    H232586   0.051   5.421   6.843 -0.0937  0.3926 -0.6207
 3651TIP3   OH232587   1.188   3.103   0.595 -0.1137  0.1599 -0.1561
 3651TIP3    H132588   1.146   3.061   0.670  1.9903  0.7221  1.4275
 3651TIP3    H232589   1.140   3.186   0.584 -0.8263 -0.2029  0.1637
 3652TIP3   OH232590   2.234   6.641   1.929  0.0078  0.2957  0.0609
 3652TIP3    H132591   2.319   6.607   1.904  0.2045 -0.0260  1.1274
 3652TIP3    H232592   2.193   6.667   1.846  0.4103 -1.2029 -0.6388
 3653TIP3   OH232593   1.271   4.408   7.212 -0.1992  0.2684 -0.7544
 3653TIP3    H132594   1.228   4.472   7.268 -1.0980  0.2110 -1.3635
 3653TIP3    H232595   1.330   4.360   7.271 -0.1040  1.1245 -0.1458
 3654TIP3   OH232596   6.325   3.191   7.146  0.3889 -0.0133 -0.5785
 3654TIP3    H132597   6.409   3.209   7.104  1.4070 -0.3961  1.2103
 3654TIP3    H232598   6.311   3.265   7.205  0.7014 -1.1404  0.9450
 3655TIP3   OH232599   2.795   2.444   1.773  0.1204  0.5808  0.0286
 3655TIP3    H132600   2.827   2.535   1.771  1.0191  0.3891  2.2290
 3655TIP3    H232601   2.873   2.393   1.797  0.2103 -1.1396 -3.4236
 3656TIP3   OH232602   2.430   4.879   6.637  0.2572 -0.1288 -0.2942
 3656TIP3    H132603   2.497   4.812   6.640  0.6103  0.2519  0.6609
 3656TIP3    H232604   2.354   4.840   6.681  0.4702  0.0927  0.2819
 3657TIP3   OH232605   6.381   5.112   7.730  0.3644  0.4606  0.8243
 3657TIP3    H132606   6.313   5.178   7.737  0.7599  1.0356 -0.5496
 3657TIP3    H232607   6.460   5.154   7.763  0.9764  1.2783 -1.4860
 3658TIP3   OH232608   3.380   6.716   1.452 -0.2386  0.3245  0.5872
 3658TIP3    H132609   3.313   6.764   1.501 -0.9860 -0.0068 -0.0762
 3658TIP3    H232610   3.461   6.730   1.501 -1.0996 -0.7108  2.4474
 3659TIP3   OH232611   5.630   0.850   1.632  0.0710 -0.3706  0.6963
 3659TIP3    H132612   5.602   0.798   1.557 -0.4482  0.4838  0.2757
 3659TIP3    H232613   5.576   0.819   1.705 -0.8593  0.1523  0.2537
 3660TIP3   OH232614   6.748   2.646   7.971 -0.2961  0.2169 -0.2493
 3660TIP3    H132615   6.688   2.700   7.919  1.0410  0.3158 -1.7542
 3660TIP3    H232616   6.798   2.710   8.023 -0.9429  0.1779  0.4497
 3661TIP3   OH232617   6.044   1.663   8.554 -0.2231 -0.3740  0.2538
 3661TIP3    H132618   6.043   1.569   8.537  0.0215  0.0043 -2.2462
 3661TIP3    H232619   5.967   1.678   8.609 -1.5566 -1.7857 -1.1001
 3662TIP3   OH232620   3.841   5.777   2.397 -0.0439  0.0144  0.5680
 3662TIP3    H132621   3.902   5.704   2.391  0.2550  0.1094  2.0067
 3662TIP3    H232622   3.859   5.830   2.319 -3.0079 -3.3574 -2.8534
 3663TIP3   OH232623   5.840   2.562   8.312 -0.1237 -0.0749  0.1671
 3663TIP3    H132624   5.810   2.653   8.314 -3.6825 -0.9878 -1.9234
 3663TIP3    H232625   5.815   2.526   8.397  0.6319  0.6702  0.7222
 3664TIP3   OH232626   2.304   5.705   0.243 -0.0934 -0.2115  0.4880
 3664TIP3    H132627   2.334   5.786   0.203 -0.7658  0.3388  1.0741
 3664TIP3    H232628   2.209   5.706   0.230 -0.1616 -0.6699  0.9144
 3665TIP3   OH232629   0.521   4.859   0.972  0.2148  0.2284  0.1272
 3665TIP3    H132630   0.552   4.903   0.893 -0.4616 -1.6506 -1.2635
 3665TIP3    H232631   0.494   4.929   1.030  0.5565  1.6661 -1.3804
 3666TIP3   OH232632   4.808   5.355   0.918 -0.0164 -0.3202 -0.4998
 3666TIP3    H132633   4.735   5.393   0.870  0.5257  2.5630  0.7411
 3666TIP3    H232634   4.784   5.365   1.010  0.7232 -1.9969 -0.0846
 3667TIP3   OH232635   5.922   2.157   2.395 -0.1136 -0.2675  0.1005
 3667TIP3    H132636   5.867   2.235   2.393  0.2563  0.0503  1.2499
 3667TIP3    H232637   5.863   2.086   2.419 -0.3478 -0.2454 -0.4104
 3668TIP3   OH232638   1.893   2.654   7.801  0.2189 -0.0337  0.1638
 3668TIP3    H132639   1.953   2.729   7.803 -0.1345  0.2503  0.4447
 3668TIP3    H232640   1.860   2.648   7.891 -2.8121  2.0188 -0.6309
 3669TIP3   OH232641   1.200   1.618   8.196  0.4415 -0.0530 -0.6510
 3669TIP3    H132642   1.154   1.535   8.209  1.5047 -0.4128  1.0940
 3669TIP3    H232643   1.132   1.680   8.171 -0.7698 -0.9096  0.4169
 3670TIP3   OH232644   0.857   6.280   6.992 -0.3022 -0.0011 -0.2013
 3670TIP3    H132645   0.797   6.319   6.928 -0.8962 -1.5355 -0.6487
 3670TIP3    H232646   0.799   6.233   7.052  0.4213 -1.3062 -0.4917
 3671TIP3   OH232647   1.785   1.658   7.938 -0.2846  0.2490  0.3832
 3671TIP3    H132648   1.838   1.661   8.017 -0.6199 -0.1612  0.6290
 3671TIP3    H232649   1.785   1.748   7.905  0.5399  0.2574  0.3913
 3672TIP3   OH232650   2.797   4.803   0.903 -0.2007  0.2516  0.2147
 3672TIP3    H132651   2.754   4.734   0.853 -1.2970 -0.0662  1.5477
 3672TIP3    H232652   2.739   4.879   0.895 -0.7919 -0.0260  1.5975
 3673TIP3   OH232653   5.754   1.203   2.312 -0.8386  0.1759 -0.1282
 3673TIP3    H132654   5.833   1.245   2.346 -0.1952  1.6268 -3.0258
 3673TIP3    H232655   5.778   1.110   2.307 -0.4017  0.1566  1.6644
 3674TIP3   OH232656   3.126   5.636   0.219 -0.3601 -0.0142  0.0757
 3674TIP3    H132657   3.145   5.719   0.175 -1.1701  0.7135  1.0434
 3674TIP3    H232658   3.065   5.592   0.160 -0.3211  0.3024 -0.2073
 3675TIP3   OH232659   6.688   3.773   8.095  0.6146 -0.4400 -0.2636
 3675TIP3    H132660   6.774   3.743   8.125  0.6572  0.6165  0.7586
 3675TIP3    H232661   6.707   3.831   8.021  0.9160  0.7398  0.6956
 3676TIP3   OH232662   4.773   3.862   8.666  0.1218 -0.6024  0.8299
 3676TIP3    H132663   4.774   3.937   8.607 -0.0667 -1.9983 -1.0076
 3676TIP3    H232664   4.685   3.862   8.704 -0.1399 -0.3704  0.2273
 3677TIP3   OH232665   0.504   2.764   1.076 -0.5346 -0.1797 -0.3131
 3677TIP3    H132666   0.569   2.710   1.031 -0.3041 -0.0795 -0.1034
 3677TIP3    H232667   0.486   2.718   1.158 -0.1322  0.2006 -0.0097
 3678TIP3   OH232668   6.450   3.699   7.717 -0.0249  0.0173  0.2299
 3678TIP3    H132669   6.462   3.659   7.803 -0.8584 -0.8245 -0.0228
 3678TIP3    H232670   6.362   3.736   7.720 -1.4554 -2.8853 -1.2794
 3679TIP3   OH232671   6.733   1.000   0.157  0.0655  1.0313  0.0422
 3679TIP3    H132672   6.679   0.939   0.206  0.4743 -1.1631 -2.0436
 3679TIP3    H232673   6.823   0.978   0.180  0.2008  1.2809 -0.2305
 3680TIP3   OH232674   0.116   3.609   0.176 -0.2188  0.5111 -0.2437
 3680TIP3    H132675   0.050   3.583   0.242  0.1595  0.1905  0.0134
 3680TIP3    H232676   0.199   3.606   0.223  0.0288  0.5125 -0.6763
 3681TIP3   OH232677   4.570   3.408   7.275  0.4028  0.1022 -0.4417
 3681TIP3    H132678   4.504   3.441   7.213 -0.8347 -0.0279  0.7447
 3681TIP3    H232679   4.577   3.477   7.341  0.6530 -0.3619  0.0200
 3682TIP3   OH232680   6.296   1.089   8.233 -0.7986  0.8186  0.1153
 3682TIP3    H132681   6.291   1.041   8.316  1.3016  1.4059  0.6294
 3682TIP3    H232682   6.288   1.181   8.258 -1.7910  0.9249 -0.5380
 3683TIP3   OH232683   4.636   4.971   0.028  0.0031  0.0841 -0.3924
 3683TIP3    H132684   4.727   5.000   0.040  0.4942 -0.3890 -2.5558
 3683TIP3    H232685   4.588   5.051   0.007 -0.2423  0.4313  1.3556
 3684TIP3   OH232686   6.403   3.655   0.757  0.4962  0.7532  0.0994
 3684TIP3    H132687   6.338   3.606   0.809 -1.0475  0.4250 -2.0138
 3684TIP3    H232688   6.486   3.638   0.801 -0.4689 -1.0748  1.3598
 3685TIP3   OH232689   6.831   5.100   7.933  0.2074  0.3589  0.2988
 3685TIP3    H132690   6.735   5.094   7.938  0.1708  0.4142 -0.2702
 3685TIP3    H232691   6.861   5.061   8.014 -0.2984  0.1847  0.4082
 3686TIP3   OH232692   4.943   6.672   6.542  0.2663 -0.3801  0.2452
 3686TIP3    H132693   4.896   6.682   6.459 -0.0094  1.9088  0.6110
 3686TIP3    H232694   4.904   6.595   6.583 -0.8034 -0.5069 -0.9657
 3687TIP3   OH232695   2.211   1.252   0.311 -0.5383 -0.2545 -0.5299
 3687TIP3    H132696   2.234   1.249   0.218  0.2546 -1.0333 -0.3333
 3687TIP3    H232697   2.200   1.160   0.335 -4.2627  0.0112 -0.6428
 3688TIP3   OH232698   6.077   3.375   7.099 -0.4772 -0.1274 -0.3298
 3688TIP3    H132699   6.045   3.310   7.036  0.7463 -0.7538 -0.3346
 3688TIP3    H232700   6.137   3.430   7.048 -1.1840  0.7591 -0.2267
 3689TIP3   OH232701   3.285   1.778   8.742  0.3511 -0.1666  0.1326
 3689TIP3    H132702   3.200   1.800   8.704 -0.0839  2.3299  2.2211
 3689TIP3    H232703   3.343   1.847   8.711  0.7699  0.0240  1.2875
 3690TIP3   OH232704   4.399   6.525   6.791 -0.2287  0.1590 -0.2214
 3690TIP3    H132705   4.457   6.449   6.784 -0.5966 -0.0480 -1.1467
 3690TIP3    H232706   4.332   6.499   6.855 -1.1761 -0.8688 -1.5763
 3691TIP3   OH232707   3.004   5.106   0.541 -0.6226  0.8052 -0.1185
 3691TIP3    H132708   2.980   5.048   0.469 -1.8650  1.9410 -0.6716
 3691TIP3    H232709   2.920   5.137   0.574  0.0098  2.5240 -0.0583
 3692TIP3   OH232710   3.800   1.561   0.289  0.3691  0.2959  0.4321
 3692TIP3    H132711   3.802   1.652   0.320 -0.1166 -0.4614  2.9239
 3692TIP3    H232712   3.885   1.548   0.248 -0.5739  2.6531 -2.6882
 3693TIP3   OH232713   5.988   0.750   0.099  0.2788  0.1739 -0.6809
 3693TIP3    H132714   5.986   0.687   0.027  1.0515  1.3477 -1.7720
 3693TIP3    H232715   5.911   0.805   0.085 -0.8745 -0.9946  0.7578
 3694TIP3   OH232716   4.083   6.695   1.127 -0.4854 -0.3031  0.0339
 3694TIP3    H132717   4.121   6.655   1.205 -2.1556 -0.7027  0.6810
 3694TIP3    H232718   4.016   6.633   1.099  1.3482 -1.1562 -2.9216
 3695TIP3   OH232719   2.670   3.436   7.192 -0.7277 -0.4650  0.1688
 3695TIP3    H132720   2.667   3.531   7.195  1.3305 -0.1627 -2.9722
 3695TIP3    H232721   2.760   3.414   7.215 -1.3128 -1.7401  1.3956
 3696TIP3   OH232722   3.217   1.237   7.224  0.4561 -0.1631 -0.6311
 3696TIP3    H132723   3.300   1.212   7.264  0.5060  1.2970  0.2283
 3696TIP3    H232724   3.165   1.156   7.225  1.2914 -0.7135  0.2700
 3697TIP3   OH232725   4.532   5.839   8.065 -0.2038 -0.8644  0.6991
 3697TIP3    H132726   4.473   5.766   8.083 -2.6098  1.2600  2.2253
 3697TIP3    H232727   4.506   5.907   8.128  1.7778  1.3921 -0.7186
 3698TIP3   OH232728   5.125   4.849   1.908  0.6646 -0.1840 -0.0891
 3698TIP3    H132729   5.218   4.849   1.883  0.3153 -1.5225 -1.6134
 3698TIP3    H232730   5.124   4.883   1.997  2.0996  4.4995 -1.5497
 3699TIP3   OH232731   5.988   4.299   7.293  0.2127  0.3431  0.2724
 3699TIP3    H132732   6.079   4.322   7.274  0.3670 -0.1814  0.3603
 3699TIP3    H232733   5.984   4.293   7.388 -0.2431  1.6701  0.3677
 3700TIP3   OH232734   0.649   4.564   0.446  0.1805 -0.3335  0.7388
 3700TIP3    H132735   0.614   4.645   0.484 -0.8530 -0.5832  0.3597
 3700TIP3    H232736   0.718   4.537   0.506  0.5010  0.7985  0.9014
 3701TIP3   OH232737   6.771   6.322   8.832  0.7503 -0.4978  0.4016
 3701TIP3    H132738   6.859   6.288   8.853 -0.2149 -2.2291  1.8992
 3701TIP3    H232739   6.717   6.296   8.906 -0.9149  1.1888 -0.1450
 3702TIP3   OH232740   4.646   4.050   7.555  0.2973 -0.1093  0.7852
 3702TIP3    H132741   4.720   4.000   7.589  0.1933  0.0854  1.3061
 3702TIP3    H232742   4.655   4.136   7.595  0.4429  0.2780 -0.0634
 3703TIP3   OH232743   5.745   2.934   1.284  0.0485 -0.0455  0.3830
 3703TIP3    H132744   5.769   2.865   1.346 -1.6466  1.2755  2.6732
 3703TIP3    H232745   5.656   2.912   1.256  0.0996  0.3626 -0.1149
 3704TIP3   OH232746   5.685   5.774   0.861 -0.6416 -0.9116 -0.1395
 3704TIP3    H132747   5.704   5.692   0.907  1.8539 -0.7127 -0.6651
 3704TIP3    H232748   5.771   5.816   0.851 -1.8223  1.6774 -0.0955
 3705TIP3   OH232749   3.786   6.507   2.274 -0.0883 -0.9044  0.1114
 3705TIP3    H132750   3.717   6.497   2.208  0.3940 -1.5757 -0.2962
 3705TIP3    H232751   3.830   6.423   2.275  1.5821 -0.0863 -0.6013
 3706TIP3   OH232752   0.843   5.975   6.853  0.1550 -0.0445  0.1931
 3706TIP3    H132753   0.759   5.929   6.848  0.4545 -0.5930 -3.9456
 3706TIP3    H232754   0.824   6.056   6.900 -2.7377 -0.1389 -0.6406
 3707TIP3   OH232755   4.531   2.948   6.823 -0.2037 -0.1231 -0.3002
 3707TIP3    H132756   4.573   2.951   6.737 -1.1145 -1.1746 -0.7997
 3707TIP3    H232757   4.604   2.959   6.885  0.5290  0.1506 -1.1886
 3708TIP3   OH232758   1.268   6.711   8.254 -0.7877 -0.3001  0.0902
 3708TIP3    H132759   1.243   6.740   8.342  0.6891 -1.1401  0.8287
 3708TIP3    H232760   1.344   6.764   8.232 -1.5814  0.4101 -1.0156
 3709TIP3   OH232761   6.387   2.264   1.201 -0.0516  0.3514 -0.1536
 3709TIP3    H132762   6.330   2.248   1.277  1.1389 -1.8380  0.3662
 3709TIP3    H232763   6.331   2.245   1.126 -0.5812  0.1754  0.2761
 3710TIP3   OH232764   3.971   0.460   5.896  0.1400 -0.1733 -0.2023
 3710TIP3    H132765   4.024   0.538   5.907 -1.2962  0.8774 -0.4899
 3710TIP3    H232766   3.914   0.479   5.822 -0.6719 -1.2353  0.1159
 3711TIP3   OH232767   3.762   0.392   7.177  1.1891  0.1051  0.2774
 3711TIP3    H132768   3.751   0.317   7.118  1.2674 -1.4905  2.1988
 3711TIP3    H232769   3.695   0.454   7.148 -0.5294 -1.7116  0.0862
 3712TIP3   OH232770   1.531   5.843   7.522 -0.7184  0.1865 -0.0057
 3712TIP3    H132771   1.608   5.804   7.563  2.1031  0.7006 -4.1232
 3712TIP3    H232772   1.508   5.916   7.578  1.0179 -0.6964  2.0057
 3713TIP3   OH232773   4.539   4.630   1.251 -0.4260 -0.1331 -0.8084
 3713TIP3    H132774   4.471   4.686   1.288 -0.9680 -0.5937 -1.0962
 3713TIP3    H232775   4.619   4.655   1.297 -0.6613  0.8698 -0.9273
 3714TIP3   OH232776   0.117   2.246   1.280  0.1382  0.2225  0.3289
 3714TIP3    H132777   0.083   2.269   1.193 -2.0364  0.4938  1.1656
 3714TIP3    H232778   0.150   2.328   1.315 -1.2790  0.6855  0.6669
 3715TIP3   OH232779   3.096   2.549   7.439 -0.7655 -0.4571  0.1887
 3715TIP3    H132780   3.088   2.625   7.381 -1.3916 -0.8321 -0.2247
 3715TIP3    H232781   3.011   2.543   7.483 -1.5700 -2.2539 -1.4616
 3716TIP3   OH232782   2.585   2.797   6.989  0.2194 -0.4429 -0.0879
 3716TIP3    H132783   2.572   2.876   7.043 -2.3753 -0.3789 -0.6791
 3716TIP3    H232784   2.648   2.824   6.922 -0.4529  1.0985 -0.1497
 3717TIP3   OH232785   1.446   1.414   2.034  0.4613  0.6577 -0.1264
 3717TIP3    H132786   1.372   1.389   2.089  1.5404 -0.6323  0.8065
 3717TIP3    H232787   1.514   1.350   2.054  0.8509 -0.0279 -3.1660
 3718TIP3   OH232788   0.146   6.290   8.464  0.4941 -0.2367 -0.4030
 3718TIP3    H132789   0.227   6.334   8.438  0.1882 -0.5022 -1.8727
 3718TIP3    H232790   0.079   6.328   8.408 -0.2741 -0.5396  0.2977
 3719TIP3   OH232791   6.783   2.101   1.421  0.6694  0.2078 -0.4375
 3719TIP3    H132792   6.855   2.152   1.384 -0.1351 -0.1619 -2.7152
 3719TIP3    H232793   6.721   2.167   1.452  1.5863  0.5300  0.7847
 3720TIP3   OH232794   2.325   5.531   2.340 -0.3769 -0.0571  0.2070
 3720TIP3    H132795   2.281   5.453   2.306 -1.1060 -0.5380  2.1275
 3720TIP3    H232796   2.327   5.518   2.435 -0.6553  2.3307  0.6080
 3721TIP3   OH232797   5.329   0.630   7.107 -0.6530  0.1141 -0.3431
 3721TIP3    H132798   5.420   0.657   7.090 -0.1921 -1.6841 -0.8959
 3721TIP3    H232799   5.318   0.645   7.201 -0.2675  1.6380 -0.5002
 3722TIP3   OH232800   2.071   5.868   1.221 -0.1769  1.0094  0.1531
 3722TIP3    H132801   2.153   5.912   1.242 -0.2738  1.1061  0.3382
 3722TIP3    H232802   2.006   5.938   1.219 -0.1650  1.0005 -0.5163
 3723TIP3   OH232803   6.552   5.375   1.415  0.0872  0.2441 -0.0395
 3723TIP3    H132804   6.553   5.315   1.341 -1.1274  2.5585 -2.0832
 3723TIP3    H232805   6.475   5.430   1.400  0.4188  1.4967  2.3984
 3724TIP3   OH232806   5.867   2.769   1.891 -0.2078 -0.1211  0.3716
 3724TIP3    H132807   5.778   2.733   1.891  0.0641 -0.9448 -2.0867
 3724TIP3    H232808   5.923   2.693   1.906  0.1697 -0.0497 -0.6125
 3725TIP3   OH232809   2.239   3.530   0.580  0.0960 -0.0822 -0.3383
 3725TIP3    H132810   2.188   3.461   0.622  0.1701 -1.2705 -2.0595
 3725TIP3    H232811   2.179   3.605   0.575 -0.0639 -0.0793  1.3465
 3726TIP3   OH232812   0.609   4.760   1.464  0.0337 -0.2381  0.3843
 3726TIP3    H132813   0.691   4.721   1.434 -0.2733 -1.4580  1.0242
 3726TIP3    H232814   0.542   4.720   1.409 -0.0270  2.2623 -1.5261
 3727TIP3   OH232815   4.590   2.435   8.776  0.4837  0.1370 -0.0417
 3727TIP3    H132816   4.597   2.502   8.844 -0.4156 -0.9997  1.2297
 3727TIP3    H232817   4.566   2.483   8.697 -0.6108  1.2653  0.9345
 3728TIP3   OH232818   5.465   1.431   1.554  0.6839 -1.2272 -0.5852
 3728TIP3    H132819   5.415   1.497   1.602 -1.2687 -2.0672 -1.3560
 3728TIP3    H232820   5.461   1.353   1.610 -0.3826 -1.7873 -1.3954
 3729TIP3   OH232821   5.504   2.387   0.146  0.0291  0.0652  0.0957
 3729TIP3    H132822   5.466   2.471   0.119 -1.6567 -1.0245 -1.1611
 3729TIP3    H232823   5.433   2.343   0.193  0.3817 -1.2326 -0.5461
 3730TIP3   OH232824   6.742   4.138   6.670  0.2459  0.0029  0.2280
 3730TIP3    H132825   6.793   4.088   6.606  1.1840  1.1408  0.0522
 3730TIP3    H232826   6.701   4.071   6.726  0.1041 -0.9847 -1.0132
 3731TIP3   OH232827   5.076   1.589   7.011  0.4774  0.2976 -0.6104
 3731TIP3    H132828   5.074   1.628   6.924  1.9769 -0.4363 -1.0270
 3731TIP3    H232829   5.089   1.495   6.994 -1.0246 -0.1279  0.3884
 3732TIP3   OH232830   1.378   4.648   7.742 -0.3967 -0.1813 -0.0757
 3732TIP3    H132831   1.328   4.580   7.696 -1.3026 -0.3067  1.0597
 3732TIP3    H232832   1.391   4.612   7.830 -0.0746  0.7369  0.2569
 3733TIP3   OH232833   0.909   2.761   2.283 -0.3314  0.4742  0.0577
 3733TIP3    H132834   0.892   2.675   2.321 -0.6212  0.4208 -0.1862
 3733TIP3    H232835   0.929   2.743   2.191 -0.3873  0.6658  0.0063
 3734TIP3   OH232836   2.903   4.319   7.535  0.5745  0.1387  0.3054
 3734TIP3    H132837   2.897   4.250   7.469  0.1337 -1.4744  1.9264
 3734TIP3    H232838   2.983   4.299   7.583 -0.7755 -0.8020  2.3446
 3735TIP3   OH232839   4.025   3.837   7.684  0.0934 -0.3076  0.3042
 3735TIP3    H132840   4.070   3.765   7.728  1.1926  0.9652  1.3472
 3735TIP3    H232841   3.948   3.854   7.738  0.9107  0.5935  1.2342
 3736TIP3   OH232842   5.463   0.610   7.818 -0.0870  0.3939  0.4215
 3736TIP3    H132843   5.445   0.571   7.732 -0.0047 -1.0771  1.0408
 3736TIP3    H232844   5.454   0.704   7.804 -0.7036  0.1441 -1.0509
 3737TIP3   OH232845   6.424   6.005   0.068 -0.0868 -0.3197 -0.1849
 3737TIP3    H132846   6.382   6.000   0.154  2.8229 -0.3766  1.3408
 3737TIP3    H232847   6.402   6.093   0.036  0.5089  0.5220  1.5986
 3738TIP3   OH232848   4.434   1.518   8.022  0.2278  0.7983  0.2154
 3738TIP3    H132849   4.434   1.530   7.927 -0.6002  0.3048  0.1458
 3738TIP3    H232850   4.413   1.425   8.034  1.8193  0.4878  0.8489
 3739TIP3   OH232851   5.600   2.535   7.774  0.1037  0.3834 -0.0842
 3739TIP3    H132852   5.599   2.456   7.827  0.9627  0.0965 -0.4926
 3739TIP3    H232853   5.665   2.519   7.706 -1.1204  0.6615 -1.3763
 3740TIP3   OH232854   4.349   3.849   6.882 -0.2167 -0.3256 -0.9660
 3740TIP3    H132855   4.379   3.778   6.825 -1.3798  0.1314 -2.2101
 3740TIP3    H232856   4.410   3.921   6.866  0.7414 -0.8883  0.0180
 3741TIP3   OH232857   3.659   0.537   8.753  0.4429 -0.4499 -0.2395
 3741TIP3    H132858   3.646   0.522   8.660 -1.0429 -0.3437 -0.0770
 3741TIP3    H232859   3.750   0.512   8.769  0.1303 -2.4276 -1.3183
 3742TIP3   OH232860   3.895   3.025   8.376  0.0410  0.0876 -0.0202
 3742TIP3    H132861   3.943   3.081   8.314  2.0784 -1.7401 -0.2191
 3742TIP3    H232862   3.940   2.941   8.371 -2.2108 -1.2591  1.0987
 3743TIP3   OH232863   1.491   0.190   1.653  0.1968 -0.1069  0.0663
 3743TIP3    H132864   1.417   0.141   1.615 -0.1036  0.3911  0.0009
 3743TIP3    H232865   1.463   0.207   1.744  0.3076 -0.0743  0.0937
 3744TIP3   OH232866   5.406   6.021   1.819  0.0568 -0.0268 -0.0319
 3744TIP3    H132867   5.461   6.075   1.875 -1.0706  0.7311  0.3770
 3744TIP3    H232868   5.317   6.032   1.854 -0.4466 -0.7665 -1.0188
 3745TIP3   OH232869   2.107   3.832   8.796  0.4326 -0.1981  0.0398
 3745TIP3    H132870   2.066   3.909   8.836  0.5077 -0.3079  0.3245
 3745TIP3    H232871   2.156   3.791   8.866 -1.4846 -1.8341  0.5264
 3746TIP3   OH232872   4.056   0.834   8.811  0.6059  0.1915  0.0771
 3746TIP3    H132873   4.095   0.771   8.871 -0.5423  0.2136  0.8658
 3746TIP3    H232874   4.077   0.919   8.849  3.4798  0.4754 -1.7649
 3747TIP3   OH232875   5.339   0.787   6.881  0.6472  0.2609 -0.0485
 3747TIP3    H132876   5.269   0.726   6.856  0.2492  1.4996 -2.2415
 3747TIP3    H232877   5.292   0.864   6.914  1.1214 -0.2528  1.9215
 3748TIP3   OH232878   1.801   2.361   8.327 -0.6458  0.3249  0.3683
 3748TIP3    H132879   1.743   2.426   8.288  1.6544  1.5697 -1.2153
 3748TIP3    H232880   1.816   2.392   8.416  2.0556  3.3380 -0.9458
 3749TIP3   OH232881   0.780   0.329   1.012 -0.1262  0.4794 -0.4501
 3749TIP3    H132882   0.796   0.305   1.104  2.1381  3.2717  0.0289
 3749TIP3    H232883   0.840   0.274   0.962  0.1846  0.4520 -0.0502
 3750TIP3   OH232884   2.858   0.808   0.327 -0.0146  0.1621  0.2035
 3750TIP3    H132885   2.938   0.767   0.360 -0.6375 -0.5799  0.8450
 3750TIP3    H232886   2.787   0.765   0.376 -0.8638  0.1670 -0.9771
 3751TIP3   OH232887   0.280   5.303   1.300 -0.6249 -0.1688  0.1773
 3751TIP3    H132888   0.336   5.258   1.364  0.5046 -0.9034 -1.2820
 3751TIP3    H232889   0.191   5.290   1.333 -0.1795 -1.8260  0.8191
 3752TIP3   OH232890   0.640   5.316   1.648 -0.1663 -0.0835  0.2786
 3752TIP3    H132891   0.570   5.251   1.644  0.5227 -0.8256 -0.0876
 3752TIP3    H232892   0.636   5.350   1.737  0.9941 -2.3950  1.3065
 3753TIP3   OH232893   0.101   4.631   0.228  0.0972 -0.3226  0.4653
 3753TIP3    H132894   0.151   4.673   0.298 -0.5101  1.2503 -0.0128
 3753TIP3    H232895   0.042   4.571   0.273  1.0641 -0.7951  1.1545
 3754TIP3   OH232896   4.825   5.943   1.046  0.5411 -0.1069 -0.1458
 3754TIP3    H132897   4.900   5.996   1.020  1.1119 -0.4471  0.7585
 3754TIP3    H232898   4.825   5.870   0.984  1.8107 -0.8463  0.6898
 3755TIP3   OH232899   5.654   2.611   1.974  0.3376  0.2595  0.1404
 3755TIP3    H132900   5.664   2.516   1.980  0.7596  0.3422  0.8992
 3755TIP3    H232901   5.592   2.633   2.043 -1.0348  0.3721 -1.0853
 3756TIP3   OH232902   2.222   6.697   6.950  0.3901 -0.4879 -0.1517
 3756TIP3    H132903   2.301   6.715   7.002  1.0216  0.6109 -1.4513
 3756TIP3    H232904   2.254   6.690   6.860 -1.0169  0.0857 -0.7143
 3757TIP3   OH232905   5.790   3.274   6.850 -0.7770 -0.3394  0.2553
 3757TIP3    H132906   5.824   3.312   6.769 -1.2144  0.8010  0.5787
 3757TIP3    H232907   5.867   3.248   6.899 -0.4085  0.8839  0.3601
 3758TIP3   OH232908   0.675   3.545   0.296  0.4959  0.1354  0.3908
 3758TIP3    H132909   0.659   3.502   0.380  1.7352 -1.3937 -0.0921
 3758TIP3    H232910   0.672   3.638   0.316  0.0918 -0.1836  1.9965
 3759TIP3   OH232911   1.652   6.339   7.853  0.2880  0.0432  0.6601
 3759TIP3    H132912   1.600   6.387   7.788  0.7625  0.6387  0.7153
 3759TIP3    H232913   1.702   6.276   7.801 -1.1486 -1.1917  0.6838
 3760TIP3   OH232914   6.024   1.364   8.624  0.4775  0.0794  0.0510
 3760TIP3    H132915   6.030   1.277   8.586  2.0449  0.8372 -1.6173
 3760TIP3    H232916   5.938   1.367   8.666 -0.3373 -1.6552 -1.3717
 3761TIP3   OH232917   3.549   2.475   8.470 -0.0729 -0.0207 -0.4917
 3761TIP3    H132918   3.543   2.568   8.448  1.3486  0.5406  1.2513
 3761TIP3    H232919   3.492   2.465   8.547 -0.6272 -0.7141 -0.9864
 3762TIP3   OH232920   1.555   5.593   1.534 -0.6951 -0.3871  0.1516
 3762TIP3    H132921   1.607   5.647   1.474  0.8505 -1.2722  0.6229
 3762TIP3    H232922   1.619   5.534   1.573 -1.3876  0.9073  3.5851
 3763TIP3   OH232923   1.097   5.929   0.348 -0.2706  0.3545  0.0773
 3763TIP3    H132924   1.037   5.973   0.287  0.8489  1.4767 -0.2435
 3763TIP3    H232925   1.057   5.843   0.362 -0.3468 -0.1048 -2.5680
 3764TIP3   OH232926   0.885   1.467   1.987 -0.1313 -0.3869  0.0664
 3764TIP3    H132927   0.838   1.466   2.070  0.6667  0.7900  0.5533
 3764TIP3    H232928   0.959   1.408   2.001 -0.1788 -0.4465  0.0702
 3765TIP3   OH232929   5.563   6.275   8.656  0.0661 -0.2713  0.0391
 3765TIP3    H132930   5.638   6.279   8.596 -0.1495  0.7335 -0.1776
 3765TIP3    H232931   5.537   6.183   8.654  1.1226 -0.5859 -0.0911
 3766TIP3   OH232932   0.932   5.187   1.218  0.2589  0.6655 -0.0745
 3766TIP3    H132933   1.013   5.210   1.172  0.8667  2.1498  1.6229
 3766TIP3    H232934   0.921   5.256   1.283 -2.9110  1.0795 -0.8720
 3767TIP3   OH232935   2.694   0.183   6.480  0.1993  0.1460 -0.1354
 3767TIP3    H132936   2.676   0.089   6.484  1.6452 -0.1066  1.0908
 3767TIP3    H232937   2.638   0.221   6.548  0.4419  0.0194  0.1375
 3768TIP3   OH232938   0.773   3.193   0.670  0.1124  0.1680 -0.7130
 3768TIP3    H132939   0.718   3.131   0.622 -1.2157  0.6689  0.1060
 3768TIP3    H232940   0.824   3.236   0.602  0.6275 -1.3847 -1.3536
 3769TIP3   OH232941   4.594   4.423   1.613  0.1513  0.4325 -0.5154
 3769TIP3    H132942   4.609   4.465   1.697 -1.5027  0.1578 -0.0349
 3769TIP3    H232943   4.537   4.484   1.566 -2.0016 -1.0021  0.0628
 3770TIP3   OH232944   5.140   5.227   8.015 -0.0723 -0.0123 -0.1376
 3770TIP3    H132945   5.047   5.247   8.005 -0.6348 -1.0500  2.3315
 3770TIP3    H232946   5.179   5.257   7.933 -2.3154  1.8653 -0.6426
 3771TIP3   OH232947   2.406   5.292   1.444  0.1567 -0.1631 -0.2285
 3771TIP3    H132948   2.314   5.271   1.424  0.0546 -0.7789  0.8358
 3771TIP3    H232949   2.401   5.372   1.497  0.1772 -0.6192  0.4694
 3772TIP3   OH232950   6.411   5.096   0.400  0.0117  0.1114 -0.1278
 3772TIP3    H132951   6.469   5.111   0.325 -1.1179 -0.9022 -1.2550
 3772TIP3    H232952   6.461   5.039   0.457 -0.4203 -2.2226 -1.9202
 3773TIP3   OH232953   5.685   5.760   6.365  0.1589  0.6937  0.2119
 3773TIP3    H132954   5.620   5.689   6.372 -0.2936  1.0762 -0.0591
 3773TIP3    H232955   5.634   5.840   6.375  0.4967  1.0204 -0.6035
 3774TIP3   OH232956   1.440   1.879   2.279 -0.1388  0.4003 -0.0712
 3774TIP3    H132957   1.352   1.914   2.284 -0.0252  0.5413  1.1573
 3774TIP3    H232958   1.496   1.950   2.310  0.4342  0.3702 -0.9897
 3775TIP3   OH232959   3.175   1.405   0.388  0.4477  0.2051 -0.0310
 3775TIP3    H132960   3.114   1.469   0.426 -0.3837 -0.2630 -0.5620
 3775TIP3    H232961   3.154   1.404   0.295 -0.9205 -2.2593  0.2220
 3776TIP3   OH232962   5.486   3.853   7.261 -0.1519  0.5581  0.4320
 3776TIP3    H132963   5.537   3.913   7.315  1.0448  1.3229 -1.4060
 3776TIP3    H232964   5.552   3.807   7.208 -1.2661  0.6700 -1.1435
 3777TIP3   OH232965   4.897   5.315   2.205 -0.3064  0.2615 -0.0680
 3777TIP3    H132966   4.871   5.262   2.279  0.4425 -1.0050 -0.6808
 3777TIP3    H232967   4.886   5.405   2.235 -3.6104 -0.1400  0.3118
 3778TIP3   OH232968   3.682   5.470   8.583  0.2455 -0.5219 -0.2542
 3778TIP3    H132969   3.623   5.444   8.653  2.5908 -2.0485  1.2886
 3778TIP3    H232970   3.649   5.423   8.506 -1.2835 -0.2858  0.2177
 3779TIP3   OH232971   3.640   6.645   7.548 -0.2466  0.3939 -0.0571
 3779TIP3    H132972   3.681   6.560   7.562  0.2154  0.7347  0.6622
 3779TIP3    H232973   3.668   6.671   7.460  0.3326  0.2044  0.0693
 3780TIP3   OH232974   3.611   2.278   6.474 -0.0936 -0.0770  0.3194
 3780TIP3    H132975   3.672   2.208   6.453 -1.3981 -1.3943  0.7798
 3780TIP3    H232976   3.527   2.250   6.438 -1.3499 -0.2603  3.1133
 3781TIP3   OH232977   0.434   3.624   7.977  0.7469 -0.4465  0.5232
 3781TIP3    H132978   0.393   3.565   7.915  0.5854  1.2913 -1.1233
 3781TIP3    H232979   0.388   3.608   8.059 -2.3521  0.4239 -0.8889
 3782TIP3   OH232980   0.627   1.006   0.466  0.6023 -0.4940  0.8017
 3782TIP3    H132981   0.615   0.991   0.373  1.5486  0.9161  0.4277
 3782TIP3    H232982   0.596   1.096   0.480 -1.2219 -1.2559  2.2023
 3783TIP3   OH232983   2.871   0.208   0.680  0.4657  0.2257  0.2795
 3783TIP3    H132984   2.807   0.173   0.743 -0.1237  0.6183 -0.0860
 3783TIP3    H232985   2.948   0.228   0.733  0.0610  0.3347  0.8406
 3784TIP3   OH232986   5.131   3.417   1.404 -0.0395  0.6704 -0.0638
 3784TIP3    H132987   5.105   3.509   1.405  0.3492  0.8776 -2.6200
 3784TIP3    H232988   5.220   3.416   1.441  0.5444  1.5920 -1.3562
 3785TIP3   OH232989   6.809   5.686   0.838 -0.2895 -0.3219  0.3442
 3785TIP3    H132990   6.825   5.720   0.750 -0.8041  0.8017  0.6744
 3785TIP3    H232991   6.725   5.640   0.831 -0.9259  0.7815  0.5046
 3786TIP3   OH232992   3.832   2.056   2.182 -0.1333  0.1287  0.5200
 3786TIP3    H132993   3.794   1.980   2.226  0.5271 -0.8183 -0.4932
 3786TIP3    H232994   3.801   2.131   2.233 -1.1911 -0.7762  1.2646
 3787TIP3   OH232995   1.411   3.234   7.955 -0.1641 -0.4509 -0.6759
 3787TIP3    H132996   1.455   3.310   7.991 -1.6147 -0.0791  0.3797
 3787TIP3    H232997   1.465   3.208   7.880  0.4178  1.5303 -0.9831
 3788TIP3   OH232998   3.646   4.594   2.141  0.4506 -0.3334 -0.2389
 3788TIP3    H132999   3.596   4.516   2.116 -0.0054  0.4254 -1.8026
 3788TIP3    H233000   3.737   4.572   2.122  0.5260 -1.0359  0.8352
 3789TIP3   OH233001   2.597   2.593   1.255  0.2712  0.2791 -0.2871
 3789TIP3    H133002   2.508   2.626   1.240  0.4109  0.0072 -1.8380
 3789TIP3    H233003   2.644   2.613   1.175  1.6197  0.3700  0.5055
 3790TIP3   OH233004   2.811   5.447   0.609 -0.5845 -0.5717  0.4881
 3790TIP3    H133005   2.782   5.514   0.672  0.4310  1.3795 -0.9991
 3790TIP3    H233006   2.902   5.470   0.592 -0.2012 -2.4016 -0.0678
 3791TIP3   OH233007   2.508   3.005   0.184 -0.2760  0.1660 -0.1574
 3791TIP3    H133008   2.531   2.937   0.247  1.7644  0.7084 -0.2493
 3791TIP3    H233009   2.565   2.988   0.109 -3.2245 -1.0055 -2.3433
 3792TIP3   OH233010   2.575   5.130   2.231 -0.1342 -0.1076  0.3752
 3792TIP3    H133011   2.485   5.098   2.240 -0.5729  0.4897 -1.3475
 3792TIP3    H233012   2.618   5.105   2.312 -1.8797 -0.3478  1.2762
 3793TIP3   OH233013   4.840   4.309   0.921  0.7685 -0.3826  0.4077
 3793TIP3    H133014   4.919   4.287   0.872  1.0437 -0.8162  1.0276
 3793TIP3    H233015   4.831   4.404   0.911  0.5291 -0.5226 -0.8870
 3794TIP3   OH233016   5.059   0.023   2.241  0.0380  0.3931  0.1325
 3794TIP3    H133017   5.123   0.086   2.274 -1.3576  1.5283  0.7592
 3794TIP3    H233018   5.087   0.007   2.150  0.4988  1.8147 -0.0063
 3795TIP3   OH233019   2.837   1.589   8.427 -0.1777  0.6039 -0.3301
 3795TIP3    H133020   2.815   1.633   8.509  0.7297  1.0738 -0.3277
 3795TIP3    H233021   2.753   1.580   8.382 -0.8868 -0.8575  1.2050
 3796TIP3   OH233022   5.755   2.054   0.284  0.8156  0.2885  0.4536
 3796TIP3    H133023   5.723   2.143   0.291  0.6023  0.3482 -0.9705
 3796TIP3    H233024   5.689   2.009   0.231  0.4995 -0.9485  1.8264
 3797TIP3   OH233025   2.805   4.567   1.523  0.0291  0.1100 -0.9729
 3797TIP3    H133026   2.828   4.630   1.592 -0.8318 -0.3036 -0.2772
 3797TIP3    H233027   2.733   4.517   1.561 -1.7652  1.1098 -2.8499
 3798TIP3   OH233028   4.471   4.464   7.162  0.0078  0.0540 -0.1107
 3798TIP3    H133029   4.410   4.537   7.146 -1.8795 -1.3693  0.1565
 3798TIP3    H233030   4.471   4.453   7.257  3.0962  1.8885  0.2270
 3799TIP3   OH233031   6.345   3.950   8.095  0.0239 -0.0370  0.3125
 3799TIP3    H133032   6.370   3.938   8.187  3.2288 -1.4426 -0.5732
 3799TIP3    H233033   6.428   3.970   8.051 -0.9705 -1.7450 -2.5801
 3800TIP3   OH233034   0.360   6.423   6.892 -0.2402  0.6454 -0.0728
 3800TIP3    H133035   0.420   6.437   6.966  0.4081  1.3366 -0.7135
 3800TIP3    H233036   0.408   6.366   6.832 -1.4517 -1.4349  0.8125
 3801TIP3   OH233037   3.563   5.068   8.628 -0.1752  0.3872  0.1448
 3801TIP3    H133038   3.557   5.163   8.622  0.0324  0.3912  0.0074
 3801TIP3    H233039   3.529   5.047   8.715 -0.5904  0.5537  0.0259
 3802TIP3   OH233040   3.235   0.640   8.318 -0.5742  0.3876  0.3327
 3802TIP3    H133041   3.214   0.728   8.349  0.4750  0.6510  0.3523
 3802TIP3    H233042   3.151   0.601   8.296 -1.2336  0.7564  2.0388
 3803TIP3   OH233043   6.463   5.049   2.755 -0.2765 -0.4351 -0.0665
 3803TIP3    H133044   6.419   5.023   2.836 -0.1374 -0.3290  0.0419
 3803TIP3    H233045   6.408   5.118   2.718 -0.1906 -0.2925  0.0763
 3804TIP3   OH233046   4.503   2.407   1.980 -0.1200 -0.5285 -0.4247
 3804TIP3    H133047   4.547   2.475   2.031 -0.1355  1.0737 -2.4356
 3804TIP3    H233048   4.410   2.420   1.999 -0.1699  0.4320 -1.2363
 3805TIP3   OH233049   5.956   2.495   1.725 -0.0431 -0.0673 -0.3862
 3805TIP3    H133050   5.879   2.464   1.678  0.4502  0.0058 -1.2608
 3805TIP3    H233051   5.927   2.504   1.816 -1.9902  2.9662 -1.1673
 3806TIP3   OH233052   5.829   1.489   0.185 -0.1860  0.4517 -0.8061
 3806TIP3    H133053   5.836   1.519   0.275 -2.3281 -0.6586 -0.2051
 3806TIP3    H233054   5.919   1.466   0.160 -0.0311 -4.9731  3.1649
 3807TIP3   OH233055   1.524   4.061   8.440  0.0506  0.0375 -0.1921
 3807TIP3    H133056   1.619   4.070   8.432 -0.1186  1.6808 -0.7015
 3807TIP3    H233057   1.507   4.067   8.534  0.4121  0.1004 -0.1297
 3808TIP3   OH233058   6.457   4.278   2.036 -0.0213 -0.2486  0.0847
 3808TIP3    H133059   6.545   4.283   2.073  0.5643 -1.9493 -0.9499
 3808TIP3    H233060   6.399   4.309   2.106  1.4468  1.8786  0.4383
 3809TIP3   OH233061   2.328   6.027   8.413 -0.1338  0.4377 -0.0595
 3809TIP3    H133062   2.398   6.058   8.355  0.2044 -1.1564 -0.5398
 3809TIP3    H233063   2.247   6.042   8.364  0.0989 -0.2655 -0.6645
 3810TIP3   OH233064   4.158   5.522   8.550 -0.0547 -0.0125 -0.0050
 3810TIP3    H133065   4.237   5.577   8.550 -0.4577  0.5701 -0.6781
 3810TIP3    H233066   4.149   5.493   8.460 -2.2139  2.2793 -0.6345
 3811TIP3   OH233067   6.074   6.504   8.154  0.2210 -0.2067  0.2130
 3811TIP3    H133068   6.103   6.499   8.063 -1.4258 -1.4941 -0.2936
 3811TIP3    H233069   6.150   6.480   8.205  1.3447  1.0839 -0.7655
 3812TIP3   OH233070   2.090   4.133   1.211  0.3518 -0.0266  0.0893
 3812TIP3    H133071   2.058   4.056   1.164  0.8032 -0.5615  0.6565
 3812TIP3    H233072   2.179   4.146   1.180 -0.4646  1.7067 -1.7940
 3813TIP3   OH233073   6.341   1.824   1.570  0.6512 -0.1775  0.9403
 3813TIP3    H133074   6.289   1.752   1.535  1.8497 -0.6715  0.1163
 3813TIP3    H233075   6.332   1.816   1.665 -0.6972 -0.2821  0.8205
 3814TIP3   OH233076   4.645   6.288   0.106 -0.0249 -0.4035  0.1316
 3814TIP3    H133077   4.640   6.225   0.179 -0.3829 -0.1837  0.3039
 3814TIP3    H233078   4.568   6.268   0.053 -0.5183  0.3238  0.5529
 3815TIP3   OH233079   2.715   3.199   6.986 -0.2722 -0.4349  0.1935
 3815TIP3    H133080   2.653   3.271   7.001 -0.9936 -0.9459 -0.2896
 3815TIP3    H233081   2.789   3.220   7.043 -0.7378  0.3644  0.5318
 3816TIP3   OH233082   2.031   5.751   1.651  0.1778 -0.1822 -0.1900
 3816TIP3    H133083   2.109   5.753   1.707 -0.3270 -0.2357  0.5325
 3816TIP3    H233084   1.959   5.732   1.711 -0.5871  1.2491 -0.6083
 3817TIP3   OH233085   3.640   0.812   7.508  0.3665  0.5579 -0.3114
 3817TIP3    H133086   3.672   0.729   7.545 -2.4812 -1.2025 -1.4361
 3817TIP3    H233087   3.719   0.858   7.482  2.1787 -0.8809  2.1463
 3818TIP3   OH233088   0.047   3.676   0.806 -0.3086 -0.2240 -0.0133
 3818TIP3    H133089   0.092   3.725   0.738 -0.4276  0.1660  0.1870
 3818TIP3    H233090   0.060   3.728   0.885  0.2708 -0.9316  0.3705
 3819TIP3   OH233091   5.947   6.719   8.290  0.2293 -0.3133  0.3438
 3819TIP3    H133092   6.007   6.647   8.268 -0.7742 -1.0602 -0.0187
 3819TIP3    H233093   5.884   6.681   8.351  0.0809  0.4450  0.6741
 3820TIP3   OH233094   2.782   2.067   1.530 -0.2489 -0.1097 -0.1530
 3820TIP3    H133095   2.720   1.994   1.537 -0.2633 -0.3727 -2.4837
 3820TIP3    H233096   2.820   2.074   1.618 -0.2177 -2.9361  0.1398
 3821TIP3   OH233097   3.997   2.393   1.956  0.2600  0.0005 -0.5123
 3821TIP3    H133098   3.939   2.469   1.961  0.6964  0.3587 -0.8109
 3821TIP3    H233099   4.006   2.376   1.862  0.3406 -0.2873 -0.4524
 3822TIP3   OH233100   5.525   4.510   8.469  0.3133  0.0841 -0.1124
 3822TIP3    H133101   5.468   4.441   8.436  1.4052 -0.5698 -0.7001
 3822TIP3    H233102   5.577   4.468   8.537  0.0273  0.7038  0.5024
 3823TIP3   OH233103   3.921   0.832   6.836  0.0226  0.1297  0.6302
 3823TIP3    H133104   3.997   0.823   6.894  0.3045  0.2556  0.2899
 3823TIP3    H233105   3.872   0.751   6.848  0.4440 -0.1434  0.5302
 3824TIP3   OH233106   5.408   0.173   1.044  0.0896 -0.0829 -0.0600
 3824TIP3    H133107   5.447   0.116   1.111  0.5741  2.1556  1.6848
 3824TIP3    H233108   5.479   0.231   1.017 -0.5211  0.1011 -1.3619
 3825TIP3   OH233109   0.679   4.657   2.161 -0.1718 -0.1167  0.4224
 3825TIP3    H133110   0.629   4.737   2.143 -1.4256 -1.1811 -0.9908
 3825TIP3    H233111   0.735   4.646   2.084  2.1123  0.8619  1.8226
 3826TIP3   OH233112   6.542   4.256   2.565 -0.2840  0.7055  0.3525
 3826TIP3    H133113   6.505   4.344   2.558 -0.8447  0.4538  0.1369
 3826TIP3    H233114   6.530   4.217   2.479 -1.9512 -0.3213  0.9924
 3827TIP3   OH233115   3.591   2.283   7.103  0.3306 -0.4059  0.0458
 3827TIP3    H133116   3.639   2.240   7.174  0.5423 -1.0942 -0.4969
 3827TIP3    H233117   3.532   2.215   7.070  0.4205 -0.1783 -0.6015
 3828TIP3   OH233118   1.314   0.387   8.481 -0.1798  0.2507 -0.3369
 3828TIP3    H133119   1.343   0.469   8.441  1.1415  0.2463  0.5555
 3828TIP3    H233120   1.271   0.415   8.563  1.2399  0.0216  0.5134
 3829TIP3   OH233121   0.151   5.059   7.090  0.3480  0.3786 -0.0482
 3829TIP3    H133122   0.240   5.078   7.062  1.7468 -3.0134  1.5978
 3829TIP3    H233123   0.158   5.037   7.182 -2.4063  0.9846  0.3966
 3830TIP3   OH233124   6.662   3.998   0.628 -0.6185 -0.4405  0.3446
 3830TIP3    H133125   6.674   4.004   0.723 -1.7551  0.6307  0.4559
 3830TIP3    H233126   6.587   4.055   0.610  0.5777  0.6885 -1.4162
 3831TIP3   OH233127   6.088   2.700   8.198  0.3190 -0.4379  0.1358
 3831TIP3    H133128   6.163   2.648   8.227  0.1301  1.8324  6.1394
 3831TIP3    H233129   6.012   2.646   8.218  0.2620 -0.1139  0.8324
 3832TIP3   OH233130   0.512   5.179   7.215 -0.5134 -0.2307 -0.2206
 3832TIP3    H133131   0.510   5.091   7.254  0.5561 -0.0053  0.3914
 3832TIP3    H233132   0.470   5.168   7.130  0.7045 -1.6360 -0.7011
 3833TIP3   OH233133   1.826   1.323   1.623 -0.4012 -0.2117 -0.5939
 3833TIP3    H133134   1.816   1.235   1.660  0.6685 -0.7530 -1.5175
 3833TIP3    H233135   1.903   1.360   1.666 -2.1125  1.2152  1.4473
 3834TIP3   OH233136   5.496   6.230   0.310 -0.2304 -0.6746  0.1210
 3834TIP3    H133137   5.499   6.294   0.381 -1.1666  0.6217 -0.9685
 3834TIP3    H233138   5.493   6.282   0.230 -1.6673 -2.0466 -0.7832
 3835TIP3   OH233139   1.525   5.117   6.613 -0.2507  0.4684  0.1211
 3835TIP3    H133140   1.511   5.208   6.589 -0.0517  0.1628 -1.2836
 3835TIP3    H233141   1.473   5.067   6.549 -0.6846 -0.3978  1.1137
 3836TIP3   OH233142   1.207   1.022   6.588  1.0824  0.0010  0.0190
 3836TIP3    H133143   1.230   0.969   6.665  0.6509  2.2978  1.8641
 3836TIP3    H233144   1.211   1.112   6.620 -4.1437  0.9591 -1.2036
 3837TIP3   OH233145   2.485   1.797   8.575 -0.6366  0.2518 -0.0103
 3837TIP3    H133146   2.472   1.855   8.500 -0.9242  0.9632  0.5839
 3837TIP3    H233147   2.535   1.849   8.637  0.4929 -0.6735 -0.1002
 3838TIP3   OH233148   5.623   0.341   0.907 -0.3752  0.0971 -0.0389
 3838TIP3    H133149   5.567   0.316   0.834 -1.3633 -0.0650  0.7576
 3838TIP3    H233150   5.712   0.332   0.873 -0.7882 -1.1496 -0.8498
 3839TIP3   OH233151   6.804   2.581   7.523 -0.3097  0.3877 -0.1397
 3839TIP3    H133152   6.829   2.674   7.529 -0.7226  0.3989  1.7003
 3839TIP3    H233153   6.885   2.537   7.499  0.5612  0.9291  1.6388
 3840TIP3   OH233154   0.032   0.943   8.699  0.1123 -0.3488 -0.4506
 3840TIP3    H133155   0.009   1.004   8.768  0.4938 -1.8800  1.1036
 3840TIP3    H233156   0.114   0.976   8.663  0.6165 -0.2277  0.7616
 3841TIP3   OH233157   4.895   0.595   0.360 -0.6723  0.2840  0.4602
 3841TIP3    H133158   4.890   0.534   0.434 -0.4505 -0.6614 -0.2813
 3841TIP3    H233159   4.920   0.678   0.399  0.0167 -0.3389  1.3940
 3842TIP3   OH233160   5.783   5.309   7.581  0.2131  0.2910  0.2075
 3842TIP3    H133161   5.760   5.240   7.519 -0.8191  0.9862 -0.2192
 3842TIP3    H233162   5.735   5.288   7.660 -0.1308  0.5321  0.0651
 3843TIP3   OH233163   4.753   2.675   6.990 -0.0050 -0.4549 -0.3884
 3843TIP3    H133164   4.673   2.663   6.938 -0.9835 -0.2646  0.9893
 3843TIP3    H233165   4.775   2.767   6.980 -0.4035 -0.3352 -0.1914
 3844TIP3   OH233166   5.364   1.929   0.804  0.6396 -0.9788 -0.8297
 3844TIP3    H133167   5.411   2.010   0.787 -1.7494  1.1543  1.5998
 3844TIP3    H233168   5.426   1.874   0.852  1.4626  0.6553  0.0570
 3845TIP3   OH233169   4.378   1.458   8.335  0.3288 -0.0405 -0.8599
 3845TIP3    H133170   4.408   1.370   8.309  1.8061  0.5653 -1.3068
 3845TIP3    H233171   4.396   1.513   8.258  1.6961  1.1323  0.2637
 3846TIP3   OH233172   2.980   0.605   0.138  0.3062  0.1530  0.1856
 3846TIP3    H133173   3.046   0.601   0.069  0.7488 -0.9308  0.6440
 3846TIP3    H233174   2.983   0.695   0.169  1.0101  0.3217 -0.3450
 3847TIP3   OH233175   1.573   3.770   8.660 -0.8594  0.1061  0.4548
 3847TIP3    H133176   1.589   3.771   8.755 -1.7290  1.6709  0.6183
 3847TIP3    H233177   1.484   3.802   8.650 -1.5517 -2.0251 -0.8135
 3848TIP3   OH233178   2.129   3.073   0.138 -0.2789 -0.5602 -0.0016
 3848TIP3    H133179   2.173   3.147   0.179 -2.5455  0.9183  0.0038
 3848TIP3    H233180   2.112   3.012   0.209 -2.6551  1.1989  1.0791
 3849TIP3   OH233181   0.092   1.131   2.200 -0.1371  0.3129  0.1568
 3849TIP3    H133182   0.010   1.167   2.167 -2.3143 -3.8650  0.4444
 3849TIP3    H233183   0.067   1.075   2.273  2.6544 -2.5325 -0.8204
 3850TIP3   OH233184   5.116   2.071   8.105 -0.0953 -0.3451  0.2670
 3850TIP3    H133185   5.026   2.054   8.133 -0.2574  0.3182  0.1631
 3850TIP3    H233186   5.107   2.116   8.022  0.3681 -1.6032 -0.5016
 3851TIP3   OH233187   4.879   0.027   6.808 -0.6291  0.0962 -0.0725
 3851TIP3    H133188   4.877  -0.041   6.740  0.3449 -0.5509  0.5213
 3851TIP3    H233189   4.965   0.068   6.799 -1.5160  1.8835 -0.9906
 3852TIP3   OH233190   3.037   4.507   6.440 -0.2759  0.1730  0.1792
 3852TIP3    H133191   3.013   4.494   6.349 -0.1877 -0.1686  0.2032
 3852TIP3    H233192   2.975   4.573   6.473 -0.1441  0.4858 -0.1931
 3853TIP3   OH233193   3.279   3.516   8.436 -0.5226  0.3885  0.5385
 3853TIP3    H133194   3.286   3.422   8.453 -0.3988  0.1806 -0.6081
 3853TIP3    H233195   3.258   3.554   8.522  0.1028 -0.5991  1.1470
 3854TIP3   OH233196   1.348   1.534   0.769  0.0450 -0.4267 -0.0579
 3854TIP3    H133197   1.396   1.451   0.759  0.1086 -0.2180 -1.6208
 3854TIP3    H233198   1.396   1.596   0.715  0.0912  0.7045  1.2352
 3855TIP3   OH233199   0.099   3.896   0.622 -1.1585 -0.4116  0.0120
 3855TIP3    H133200   0.035   3.912   0.552  1.2554  0.7490 -2.1109
 3855TIP3    H233201   0.098   3.977   0.674  0.4371  0.8420 -1.7359
 3856TIP3   OH233202   2.408   5.477   0.698 -0.1878 -0.2473  0.1590
 3856TIP3    H133203   2.407   5.461   0.604  1.1459 -0.7265  0.2034
 3856TIP3    H233204   2.320   5.509   0.718 -0.8397 -1.1800 -1.0617
 3857TIP3   OH233205   1.272   5.203   7.567  0.3255 -0.2088  0.7936
 3857TIP3    H133206   1.310   5.137   7.508  1.3225  0.6552  0.4367
 3857TIP3    H233207   1.291   5.286   7.525 -3.5817  0.2834 -0.3359
 3858TIP3   OH233208   3.759   0.527   7.968  0.3644  0.0411 -0.5208
 3858TIP3    H133209   3.690   0.507   8.032  0.9976  0.8116  0.4473
 3858TIP3    H233210   3.835   0.550   8.022  1.0912  0.1475 -1.5634
 3859TIP3   OH233211   2.471   1.869   6.470 -0.2599 -0.1210  0.2781
 3859TIP3    H133212   2.415   1.909   6.404  0.6574  0.4248 -0.1899
 3859TIP3    H233213   2.559   1.870   6.432  0.5582  1.4720  2.0204
 3860TIP3   OH233214   2.367   4.295   1.635  0.1741 -0.1570 -0.4903
 3860TIP3    H133215   2.369   4.232   1.707  1.0736  1.6244  1.1304
 3860TIP3    H233216   2.276   4.294   1.605  0.2127 -2.3394 -0.6675
 3861TIP3   OH233217   5.484   3.935   7.822 -0.1486  0.1084  0.1240
 3861TIP3    H133218   5.532   3.999   7.769 -0.8433 -0.1900 -0.9041
 3861TIP3    H233219   5.504   3.959   7.912  1.6397  0.2040 -0.2678
 3862TIP3   OH233220   6.458   4.097   8.610 -0.3692  0.3997  0.4969
 3862TIP3    H133221   6.500   4.183   8.598 -0.8985  0.9939  2.4194
 3862TIP3    H233222   6.530   4.041   8.640  0.1052 -0.0295 -1.3364
 3863TIP3   OH233223   4.208   3.539   7.385 -0.0387  0.0259  0.0415
 3863TIP3    H133224   4.189   3.449   7.411 -2.1602  0.2233 -0.5787
 3863TIP3    H233225   4.205   3.536   7.289 -2.4080  1.1026  0.0064
 3864TIP3   OH233226   5.913   0.267   7.585  0.2864 -0.7497 -0.4123
 3864TIP3    H133227   5.978   0.334   7.604 -0.3231  0.2628 -1.7425
 3864TIP3    H233228   5.960   0.184   7.593  1.2607 -0.1237  0.4323
 3865TIP3   OH233229   2.236   4.636   8.121 -0.4323 -0.4470 -0.5926
 3865TIP3    H133230   2.267   4.720   8.087 -1.0255  0.0679  0.1208
 3865TIP3    H233231   2.141   4.643   8.120 -0.4875 -1.1364 -0.5740
 3866TIP3   OH233232   6.222   0.872   0.472  0.0929  0.0658  1.0153
 3866TIP3    H133233   6.243   0.828   0.390  1.9275 -0.6925  1.8585
 3866TIP3    H233234   6.249   0.811   0.540 -3.3391 -0.2539  2.2781
 3867TIP3   OH233235   6.392   1.059   0.210  0.3058 -0.2860 -0.1039
 3867TIP3    H133236   6.327   0.989   0.202 -0.8216  0.7014  0.1290
 3867TIP3    H233237   6.354   1.119   0.274  1.5114  0.2685  0.1131
 3868TIP3   OH233238   6.669   6.065   7.732 -0.5286  0.8112  0.2549
 3868TIP3    H133239   6.695   6.125   7.662 -0.1186  1.4461  0.9492
 3868TIP3    H233240   6.605   6.007   7.690 -1.1590  1.9094 -0.3513
 3869TIP3   OH233241   5.559   5.922   1.086 -0.3209 -0.4393 -0.2787
 3869TIP3    H133242   5.563   5.998   1.029  0.6971 -0.6042 -0.4528
 3869TIP3    H233243   5.597   5.851   1.035 -1.9446 -1.2774 -0.4005
 3870TIP3   OH233244   4.588   1.680   1.842 -0.0105  0.1472 -0.6807
 3870TIP3    H133245   4.653   1.614   1.820  0.3365 -0.0013  0.7297
 3870TIP3    H233246   4.589   1.685   1.937 -2.0719  0.1332 -0.6032
 3871TIP3   OH233247   2.436   3.662   8.122 -0.3107  0.0404  0.0401
 3871TIP3    H133248   2.493   3.663   8.200  0.1862 -1.4965 -0.2655
 3871TIP3    H233249   2.377   3.588   8.137 -0.1966 -0.2793 -1.0479
 3872TIP3   OH233250   5.842   1.706   8.732  0.0904 -0.3306 -0.1312
 3872TIP3    H133251   5.859   1.646   8.804  2.2892  0.7258  0.2987
 3872TIP3    H233252   5.747   1.720   8.734  0.0067 -0.9546  2.0363
 3873TIP3   OH233253   3.510   0.669   8.212  0.0131  0.4638  0.4809
 3873TIP3    H133254   3.431   0.697   8.258  0.2738  2.8380 -0.3604
 3873TIP3    H233255   3.507   0.714   8.128  0.6079 -2.1015 -1.0198
 3874TIP3   OH233256   2.556   2.838   0.401 -0.4553  0.9394 -0.5799
 3874TIP3    H133257   2.598   2.765   0.446 -0.6717  0.9763 -0.3173
 3874TIP3    H233258   2.605   2.915   0.430 -0.7060  0.9834 -0.2667
 3875TIP3   OH233259   2.846   2.490   7.035  0.1470  0.1477 -0.5725
 3875TIP3    H133260   2.849   2.415   7.093 -0.6656  2.1677  2.2783
 3875TIP3    H233261   2.765   2.480   6.986 -1.4297  0.4860  1.8244
 3876TIP3   OH233262   3.104   2.326   7.247  0.1420  0.8395 -0.0315
 3876TIP3    H133263   3.194   2.294   7.241  0.1165  0.8614 -0.6767
 3876TIP3    H233264   3.111   2.411   7.289  0.3916  0.7024  0.2050
 3877TIP3   OH233265   0.684   5.946   8.499 -0.0615 -0.1034 -0.1139
 3877TIP3    H133266   0.662   5.913   8.586  2.5451  0.1233  0.7195
 3877TIP3    H233267   0.634   5.890   8.439 -2.2807  0.0234  1.4685
 3878TIP3   OH233268   3.209   5.398   8.715  0.1529  0.0893 -0.5565
 3878TIP3    H133269   3.142   5.412   8.781 -0.7049 -0.5562 -1.2641
 3878TIP3    H233270   3.214   5.482   8.668  0.0177  0.2139 -0.3504
 3879TIP3   OH233271   4.116   4.881   1.501 -0.0307  0.0884  0.4956
 3879TIP3    H133272   4.096   4.787   1.509 -0.0410  0.1311  1.0565
 3879TIP3    H233273   4.157   4.890   1.415 -0.5913 -0.3311  0.1763
 3880TIP3   OH233274   3.720   6.219   7.752  0.0846 -0.3853 -0.1224
 3880TIP3    H133275   3.672   6.155   7.700  1.0376 -2.0833  0.9787
 3880TIP3    H233276   3.692   6.202   7.842  0.2029  0.9269  0.1945
 3881TIP3   OH233277   6.589   4.428   7.214  0.6909 -0.2389  0.1511
 3881TIP3    H133278   6.555   4.348   7.173  0.5156  0.4351 -1.0878
 3881TIP3    H233279   6.513   4.467   7.257  0.7854 -0.7541  0.7928
 3882TIP3   OH233280   1.267   4.577   1.309  0.2319 -0.3402  0.4288
 3882TIP3    H133281   1.305   4.489   1.307 -0.7928 -0.8542  1.5889
 3882TIP3    H233282   1.339   4.634   1.333  0.5352 -1.1369  1.4998
 3883TIP3   OH233283   5.158   2.076   1.542 -0.0143 -0.3245  0.4159
 3883TIP3    H133284   5.250   2.048   1.544  0.0925 -0.0887 -0.5384
 3883TIP3    H233285   5.134   2.071   1.450 -0.8157  0.1042  0.5942
 3884TIP3   OH233286   6.816   2.836   6.667  0.1612 -0.0108  0.5839
 3884TIP3    H133287   6.860   2.836   6.582  0.4298 -1.5169  0.6977
 3884TIP3    H233288   6.726   2.862   6.648  0.6528  1.4627  0.1149
 3885TIP3   OH233289   4.215   0.504   0.511  0.2917 -0.5517 -0.2244
 3885TIP3    H133290   4.195   0.504   0.605 -1.0624 -2.1483 -0.4561
 3885TIP3    H233291   4.279   0.435   0.500  1.8328  0.8322 -0.2731
 3886TIP3   OH233292   0.507   1.666   0.856  0.3142  0.0610  0.5322
 3886TIP3    H133293   0.424   1.699   0.821  1.3217  1.6313 -0.5306
 3886TIP3    H233294   0.530   1.593   0.798 -0.4263 -0.5481  0.9878
 3887TIP3   OH233295   6.450   5.895   8.609  0.1781 -0.0109  0.1467
 3887TIP3    H133296   6.445   5.939   8.694 -0.6858  1.3291 -0.5648
 3887TIP3    H233297   6.499   5.814   8.627 -1.7645 -0.8026  2.3114
 3888TIP3   OH233298   5.559   1.718   1.748 -0.2138 -0.1243 -0.3481
 3888TIP3    H133299   5.485   1.681   1.699  0.2036 -1.4408 -0.0017
 3888TIP3    H233300   5.634   1.666   1.721  0.1518 -0.4136  1.1779
 3889TIP3   OH233301   2.802   6.039   1.937 -0.1658 -0.0541  0.0738
 3889TIP3    H133302   2.747   5.969   1.971 -0.9303  0.1881 -0.6195
 3889TIP3    H233303   2.883   5.995   1.908 -1.2599 -0.9456 -1.8564
 3890TIP3   OH233304   6.070   6.514   8.573  0.4236 -0.0465  0.1282
 3890TIP3    H133305   6.043   6.445   8.512  0.4164  1.0865 -1.2081
 3890TIP3    H233306   6.164   6.522   8.560  0.4537  0.0685  0.4142
 3891TIP3   OH233307   2.756   1.618   6.278  0.5710 -0.3934  0.0709
 3891TIP3    H133308   2.799   1.611   6.363  1.7556 -0.4566 -0.5183
 3891TIP3    H233309   2.697   1.542   6.275 -1.1756  0.7813  1.7175
 3892TIP3   OH233310   4.992   0.436   8.161 -0.1681  0.2912  0.6376
 3892TIP3    H133311   4.935   0.389   8.100 -0.4444  1.5568 -0.1173
 3892TIP3    H233312   5.079   0.427   8.123 -0.4023  1.4658 -0.2316
 3893TIP3   OH233313   6.104   4.802   8.262  0.1411 -0.3463 -0.0790
 3893TIP3    H133314   6.187   4.833   8.226 -0.7220  1.6645 -0.4547
 3893TIP3    H233315   6.095   4.713   8.227  0.6687  0.5123 -2.6679
 3894TIP3   OH233316   2.185   2.454   2.323  0.2439 -0.2296 -0.0292
 3894TIP3    H133317   2.217   2.543   2.337 -0.5534  0.2413 -1.0381
 3894TIP3    H233318   2.258   2.408   2.283  0.0834  0.4985 -1.2008
 3895TIP3   OH233319   2.801   4.524   0.503  0.2592  0.1116 -0.3443
 3895TIP3    H133320   2.761   4.604   0.536  0.5562  0.2156 -0.2258
 3895TIP3    H233321   2.820   4.543   0.411  0.7916  0.3673 -0.1893
 3896TIP3   OH233322   0.384   4.054   1.435 -0.1982  0.1760 -0.0665
 3896TIP3    H133323   0.411   4.024   1.521 -0.8163  0.5705  0.2705
 3896TIP3    H233324   0.465   4.056   1.383  0.4490  1.4225  0.9385
 3897TIP3   OH233325   3.881   3.337   2.613 -0.2318 -0.1591 -0.0242
 3897TIP3    H133326   3.889   3.394   2.689 -0.7992  0.2403 -0.2605
 3897TIP3    H233327   3.859   3.396   2.541 -0.2525 -0.6064 -0.3877
 3898TIP3   OH233328   0.523   0.363   1.577 -0.0357  0.3802 -0.0489
 3898TIP3    H133329   0.507   0.449   1.616  0.6843  0.3981  0.2214
 3898TIP3    H233330   0.616   0.345   1.595  0.2956  0.3316 -1.6193
 3899TIP3   OH233331   3.415   0.576   0.405  0.4736 -0.1265  0.2880
 3899TIP3    H133332   3.398   0.670   0.395 -1.1806 -0.5836 -2.1157
 3899TIP3    H233333   3.453   0.550   0.321 -0.7442 -1.8895  0.2399
 3900TIP3   OH233334   5.187   5.104   1.313  0.2051  0.0076  0.4406
 3900TIP3    H133335   5.241   5.062   1.246 -2.0629 -0.6068 -1.1176
 3900TIP3    H233336   5.218   5.195   1.316 -0.2517  0.3271 -2.2075
 3901TIP3   OH233337   5.214   5.832   1.303 -0.8437  0.0120 -0.3882
 3901TIP3    H133338   5.146   5.890   1.337 -0.3905  0.5827 -0.4174
 3901TIP3    H233339   5.269   5.813   1.379 -0.4387  0.4246 -0.5647
 3902TIP3   OH233340   3.420   4.250   6.984 -0.1999 -0.1812 -0.6564
 3902TIP3    H133341   3.403   4.344   6.989 -2.6000 -0.6074  0.6979
 3902TIP3    H233342   3.334   4.210   6.971  0.7558 -2.2203 -1.2057
 3903TIP3   OH233343   0.884   1.364   2.645  0.1062  0.4062 -0.0209
 3903TIP3    H133344   0.820   1.414   2.595  0.2111  1.0563  0.4816
 3903TIP3    H233345   0.833   1.296   2.689 -0.1459  0.5297 -0.1195
 3904TIP3   OH233346   5.554   0.812   6.707  0.1729  0.0298 -0.3002
 3904TIP3    H133347   5.483   0.819   6.770  0.7008  2.4639  0.1354
 3904TIP3    H233348   5.526   0.866   6.632  0.3062 -1.4072 -1.4319
 3905TIP3   OH233349   5.866   2.092   0.691  0.0835  0.0940  0.2013
 3905TIP3    H133350   5.776   2.063   0.673 -0.4839  2.2132 -0.6925
 3905TIP3    H233351   5.857   2.184   0.714  2.1932  0.9741 -2.0101
 3906TIP3   OH233352   2.913   4.949   1.107  0.0975 -0.3438 -0.3347
 3906TIP3    H133353   2.855   4.882   1.071  0.1538  0.6987 -2.5298
 3906TIP3    H233354   2.956   4.988   1.030  1.0391  1.3159  0.9560
 3907TIP3   OH233355   6.361   4.661   7.817 -0.0715 -0.2811 -0.9789
 3907TIP3    H133356   6.284   4.647   7.762 -0.0249 -1.2563 -0.8096
 3907TIP3    H233357   6.343   4.743   7.863 -1.0390 -0.5380 -0.8799
 3908TIP3   OH233358   3.160   3.699   8.087  0.0701 -0.1683  0.5140
 3908TIP3    H133359   3.115   3.616   8.103 -0.0715  0.1325  1.7938
 3908TIP3    H233360   3.239   3.694   8.141 -0.0538  0.6020  0.7854
 3909TIP3   OH233361   1.716   3.384   0.234 -0.2695  0.4223 -0.4155
 3909TIP3    H133362   1.752   3.298   0.216 -0.1613  0.1583  0.9514
 3909TIP3    H233363   1.645   3.394   0.171  0.3980 -0.2050 -1.2937
 3910TIP3   OH233364   1.637   3.362   2.160  0.3854 -0.0020  0.1015
 3910TIP3    H133365   1.587   3.388   2.083  0.2971 -0.9798 -0.1857
 3910TIP3    H233366   1.725   3.397   2.144  0.2832  0.0831 -0.2945
 3911TIP3   OH233367   0.568   2.196   7.391 -0.1387 -0.2101  0.3878
 3911TIP3    H133368   0.504   2.170   7.457  0.3489 -2.5608  0.0247
 3911TIP3    H233369   0.643   2.138   7.405  0.2377 -0.3549 -1.7742
 3912TIP3   OH233370   2.813   0.965   8.009 -0.2889 -0.4143  0.8552
 3912TIP3    H133371   2.728   0.974   8.053 -0.5330 -0.1025  0.3274
 3912TIP3    H233372   2.836   1.054   7.983  0.6143 -0.3705  1.7460
 3913TIP3   OH233373   5.968   6.501   0.490  0.0468  0.1850  0.2403
 3913TIP3    H133374   5.888   6.531   0.533  0.7185  0.2891  1.4695
 3913TIP3    H233375   5.964   6.406   0.495  1.2146  0.1884  2.7469
 3914TIP3   OH233376   0.648   5.267   8.217 -0.1089 -0.0341  0.1413
 3914TIP3    H133377   0.640   5.362   8.225 -1.8461 -0.2588  1.9020
 3914TIP3    H233378   0.565   5.240   8.179  0.7747 -0.7971 -1.3088
 3915TIP3   OH233379   2.528   5.692   8.310  0.3097 -1.3171 -0.2347
 3915TIP3    H133380   2.472   5.758   8.350 -0.2328 -1.1463 -1.2494
 3915TIP3    H233381   2.609   5.739   8.289 -0.3965 -0.7076 -1.7678
 3916TIP3   OH233382   5.911   2.212   7.112  0.3030 -0.3110  0.0318
 3916TIP3    H133383   5.837   2.261   7.075 -0.5460 -1.1701  0.5506
 3916TIP3    H233384   5.988   2.265   7.091 -0.1302 -0.6624 -2.8410
 3917TIP3   OH233385   3.788   5.756   8.551  0.4614 -0.0918  0.1824
 3917TIP3    H133386   3.755   5.816   8.618 -0.5673  0.6913 -0.9877
 3917TIP3    H233387   3.780   5.669   8.590  1.6179  0.4761  1.7659
 3918TIP3   OH233388   2.061   6.829   1.789  0.3958  0.4940  0.3093
 3918TIP3    H133389   2.047   6.875   1.706 -0.4954  1.8309  1.1695
 3918TIP3    H233390   2.153   6.846   1.811  0.3066  1.1411  0.1912
 3919TIP3   OH233391   4.201   4.767   0.092  0.2517 -0.5411  0.4762
 3919TIP3    H133392   4.106   4.776   0.099 -0.0378 -1.3879 -1.6416
 3919TIP3    H233393   4.234   4.857   0.098 -0.8270 -0.0698 -0.3402
 3920TIP3   OH233394   3.291   3.017   8.733 -0.6006 -0.5597  0.5101
 3920TIP3    H133395   3.357   2.990   8.669 -0.2984 -3.2855  1.8241
 3920TIP3    H233396   3.214   2.964   8.711 -0.9313 -0.5338  1.5578
 3921TIP3   OH233397   3.037   1.392   1.238 -0.1591 -0.4696 -0.1536
 3921TIP3    H133398   3.103   1.414   1.172  0.1469  0.3538  0.4113
 3921TIP3    H233399   3.007   1.304   1.214  2.0160 -1.3925  0.2761
 3922TIP3   OH233400   3.176   3.242   8.494  0.1396  0.7335  0.6134
 3922TIP3    H133401   3.239   3.192   8.443  0.0475 -0.9447  2.0466
 3922TIP3    H233402   3.097   3.244   8.439  0.2946 -0.3135  0.3232
 3923TIP3   OH233403   5.740   2.748   7.435  0.4597 -0.2912 -0.0988
 3923TIP3    H133404   5.759   2.784   7.348 -1.4720 -0.4115 -0.6267
 3923TIP3    H233405   5.644   2.743   7.438  0.5350 -3.7281  0.6348
 3924TIP3   OH233406   1.374   3.660   6.688 -0.1681  0.3419  0.0182
 3924TIP3    H133407   1.461   3.674   6.724 -0.6286 -0.1688  1.4166
 3924TIP3    H233408   1.371   3.566   6.669 -0.2343  0.4544 -0.5426
 3925TIP3   OH233409   1.515   2.008   1.525 -0.1943  0.1738  0.5132
 3925TIP3    H133410   1.610   1.997   1.527 -0.0635  0.8942 -0.8189
 3925TIP3    H233411   1.483   1.930   1.479  0.0366  1.2358 -1.5874
 3926TIP3   OH233412   3.052   2.190   1.255  0.3530  0.4103 -0.0062
 3926TIP3    H133413   3.099   2.123   1.305 -0.3452 -0.1520 -0.0880
 3926TIP3    H233414   2.963   2.188   1.290  0.7137  2.5600  1.2695
 3927TIP3   OH233415   2.077   4.299   7.570  0.2174  0.2167  0.0555
 3927TIP3    H133416   2.168   4.289   7.545 -0.2000 -2.1030 -0.7174
 3927TIP3    H233417   2.040   4.357   7.504  0.4754 -1.2378 -1.4188
 3928TIP3   OH233418   3.402   0.138   2.381 -0.1733  0.4341 -0.2843
 3928TIP3    H133419   3.332   0.199   2.355 -0.2720  0.1461 -0.7027
 3928TIP3    H233420   3.482   0.189   2.374 -0.4213  1.0787  1.1739
 3929TIP3   OH233421   0.669   4.002   0.953  0.2433  0.3519  0.4042
 3929TIP3    H133422   0.723   4.074   0.921  0.2757 -0.0281 -0.3978
 3929TIP3    H233423   0.600   3.992   0.888 -1.5806  1.6431  1.9937
 3930TIP3   OH233424   5.702   2.908   0.171 -0.4733  0.0808  0.8224
 3930TIP3    H133425   5.675   2.830   0.219 -1.0291 -0.7782 -0.8268
 3930TIP3    H233426   5.796   2.898   0.159 -0.2513  0.5116  2.0488
 3931TIP3   OH233427   4.280   2.623   1.484  0.2695  0.3297  0.3149
 3931TIP3    H133428   4.268   2.614   1.578 -0.0852  0.6840  0.3050
 3931TIP3    H233429   4.315   2.538   1.456 -3.3383 -1.3136  0.1538
 3932TIP3   OH233430   5.350   3.556   7.214  0.5020 -0.4679  0.6856
 3932TIP3    H133431   5.320   3.631   7.265  0.1642 -1.2753  1.7052
 3932TIP3    H233432   5.286   3.548   7.143  1.0335  0.7262  0.0377
 3933TIP3   OH233433   2.181   5.852   7.368  0.4810 -0.1720 -0.7982
 3933TIP3    H133434   2.101   5.807   7.393  0.1303  0.9270  0.1698
 3933TIP3    H233435   2.250   5.807   7.417  0.1089  0.4155  0.3108
 3934TIP3   OH233436   1.492   2.404   6.470  0.1382 -0.2328 -0.1680
 3934TIP3    H133437   1.510   2.479   6.527 -0.3257  0.5252 -0.9893
 3934TIP3    H233438   1.560   2.340   6.491  0.8261  0.6086  0.2155
 3935TIP3   OH233439   0.887   4.363   0.320  0.4605 -0.9567  0.0990
 3935TIP3    H133440   0.836   4.411   0.254  0.6486 -1.7821 -0.6653
 3935TIP3    H233441   0.824   4.305   0.362  0.0165  0.6245  1.7265
 3936TIP3   OH233442   6.238   2.307   7.715  0.5221 -0.3155  0.3710
 3936TIP3    H133443   6.176   2.234   7.710 -1.1920  0.9661  1.4154
 3936TIP3    H233444   6.218   2.348   7.799 -1.8747  4.0283 -1.9500
 3937TIP3   OH233445   0.844   1.174   8.228 -0.1703 -0.0471  0.0781
 3937TIP3    H133446   0.766   1.226   8.208 -0.3735 -0.9503 -1.6358
 3937TIP3    H233447   0.839   1.099   8.168  1.3781 -0.7699  0.8024
 3938TIP3   OH233448   5.713   4.398   6.516  1.1806 -0.5858 -0.3780
 3938TIP3    H133449   5.623   4.430   6.521  0.3410 -2.9334  0.6900
 3938TIP3    H233450   5.750   4.444   6.440 -0.4838  1.3905 -0.0699
 3939TIP3   OH233451   1.900   5.307   0.349  0.1769 -0.8826  0.0275
 3939TIP3    H133452   1.855   5.350   0.421 -0.9158 -1.0850 -0.5081
 3939TIP3    H233453   1.960   5.374   0.314  3.3706 -1.7849  3.2410
 3940TIP3   OH233454   0.438   6.466   2.355 -0.2095  0.6243 -0.5025
 3940TIP3    H133455   0.440   6.370   2.357 -1.7358  0.5198 -2.1005
 3940TIP3    H233456   0.496   6.489   2.283  0.5566  0.9563  0.2020
 3941TIP3   OH233457   0.441   0.244   7.813  0.2897 -0.5956 -0.5950
 3941TIP3    H133458   0.414   0.153   7.827 -2.4287  0.1347 -0.4454
 3941TIP3    H233459   0.383   0.275   7.743  0.3048  1.3701  0.2004
 3942TIP3   OH233460   1.843   1.119   8.094  0.3081  0.1890  0.4790
 3942TIP3    H133461   1.821   1.188   8.032  0.3072  0.6706  1.0087
 3942TIP3    H233462   1.764   1.108   8.147 -0.5283 -1.8181 -1.0383
 3943TIP3   OH233463   4.846   3.909   8.142  0.0270 -0.2063  0.6512
 3943TIP3    H133464   4.751   3.897   8.135  0.1516 -0.1822 -1.6746
 3943TIP3    H233465   4.857   3.983   8.201 -1.3475 -0.6706  1.5434
 3944TIP3   OH233466   5.367   6.068   1.561  0.0920 -0.3265  0.6883
 3944TIP3    H133467   5.277   6.064   1.531  1.1364  0.5305 -3.0326
 3944TIP3    H233468   5.361   6.060   1.656 -3.8649 -0.1751  0.6015
 3945TIP3   OH233469   1.524   1.367   1.073 -0.4230 -0.2099 -0.3816
 3945TIP3    H133470   1.504   1.358   0.980  1.5658 -0.6421 -0.8101
 3945TIP3    H233471   1.607   1.415   1.076 -1.3610  1.4898  1.2708
 3946TIP3   OH233472   4.687   1.954   7.319  0.2279 -0.2590  0.1056
 3946TIP3    H133473   4.777   1.973   7.342  0.4332 -1.6130  0.5008
 3946TIP3    H233474   4.635   1.989   7.392  0.4326  0.4430 -0.0825
 3947TIP3   OH233475   5.167   5.171   0.525  0.2044  0.5791  0.3489
 3947TIP3    H133476   5.097   5.194   0.586 -1.2163 -1.3955 -0.4239
 3947TIP3    H233477   5.176   5.247   0.468 -2.9232  0.1641 -0.9313
 3948TIP3   OH233478   0.462   6.368   1.088  0.5852  0.7402 -0.1437
 3948TIP3    H133479   0.404   6.382   1.013  1.1991  2.0238 -0.4150
 3948TIP3    H233480   0.539   6.422   1.069  0.3051  1.9878  1.9190
 3949TIP3   OH233481   3.893   3.547   8.288 -0.1679  0.0590  0.4327
 3949TIP3    H133482   3.871   3.496   8.366 -0.9673 -0.1346  0.0890
 3949TIP3    H233483   3.989   3.548   8.286 -0.1398  0.1264  1.4475
 3950TIP3   OH233484   4.796   4.371   1.374 -0.1708 -0.2047  0.0930
 3950TIP3    H133485   4.844   4.404   1.450  1.5642  0.3377 -1.1885
 3950TIP3    H233486   4.714   4.338   1.411  1.4626 -1.9172  2.4988
 3951TIP3   OH233487   4.766   5.505   1.924  0.1993 -0.0470 -0.1515
 3951TIP3    H133488   4.831   5.560   1.966 -0.7653  0.4031  0.8160
 3951TIP3    H233489   4.688   5.514   1.979 -0.1050 -2.1084 -0.1366
 3952TIP3   OH233490   5.170   6.834   1.859 -0.7046 -0.4054 -0.2262
 3952TIP3    H133491   5.151   6.811   1.769  0.2931 -0.7898 -0.3581
 3952TIP3    H233492   5.170   6.750   1.906  0.3217 -0.3982 -0.1891
 3953TIP3   OH233493   2.878   1.392   6.799 -0.1512  0.5789 -0.2373
 3953TIP3    H133494   2.938   1.439   6.857  1.0695  0.2307 -1.1705
 3953TIP3    H233495   2.935   1.337   6.745 -1.2228  0.9454 -1.8174
 3954TIP3   OH233496   0.218   2.315   6.913  0.0764 -0.8622  0.3639
 3954TIP3    H133497   0.168   2.275   6.842 -0.2470  0.1881 -0.0155
 3954TIP3    H233498   0.287   2.365   6.869  0.0055 -0.3824  0.7848
 3955TIP3   OH233499   3.839   5.529   7.456  0.3895 -0.3083  0.2576
 3955TIP3    H133500   3.812   5.620   7.446 -1.6070 -0.8263  0.6101
 3955TIP3    H233501   3.907   5.531   7.523  3.4456  1.3913 -2.5901
 3956TIP3   OH233502   5.084   1.066   1.039  0.2473 -0.5851 -0.0122
 3956TIP3    H133503   5.051   1.138   0.985 -0.0070  0.0950  1.0391
 3956TIP3    H233504   5.131   1.010   0.977 -0.5711 -0.1513 -1.0534
 3957TIP3   OH233505   5.429   5.598   1.779  0.4174  0.2598  0.6724
 3957TIP3    H133506   5.364   5.631   1.842  2.3465  1.2905  2.2456
 3957TIP3    H233507   5.505   5.577   1.833  1.5790 -0.4338 -1.1596
 3958TIP3   OH233508   5.599   5.190   1.259  0.0698  0.1840 -0.0369
 3958TIP3    H133509   5.600   5.281   1.231  1.3553  0.1504 -0.1491
 3958TIP3    H233510   5.609   5.193   1.354 -0.1893  0.1632 -0.0075
 3959TIP3   OH233511   4.378   0.588   8.404 -0.5475 -0.5529 -0.5581
 3959TIP3    H133512   4.331   0.575   8.486 -1.0687  1.9818 -0.3852
 3959TIP3    H233513   4.468   0.561   8.424 -0.5935  0.3142  0.9882
 3960TIP3   OH233514   5.726   5.660   8.626  0.1293 -0.0135 -0.4499
 3960TIP3    H133515   5.757   5.750   8.636 -2.4635  0.8474  0.6644
 3960TIP3    H233516   5.668   5.664   8.550 -0.6331 -0.5523  0.1008
 3961TIP3   OH233517   2.776   2.733   7.173 -0.7667  0.1159 -0.1865
 3961TIP3    H133518   2.804   2.657   7.122  0.2474  0.5928 -0.3632
 3961TIP3    H233519   2.699   2.765   7.126 -1.4445 -1.0154  0.1116
 3962TIP3   OH233520   4.042   0.613   1.535 -0.3498 -0.2746 -0.1766
 3962TIP3    H133521   4.053   0.630   1.629 -0.0105  2.6290 -0.6516
 3962TIP3    H233522   4.089   0.531   1.520  0.8393 -0.0609  1.9554
 3963TIP3   OH233523   4.824   0.983   6.690  0.2797 -0.2011  0.5544
 3963TIP3    H133524   4.866   0.897   6.685  2.2811  0.6612  1.4195
 3963TIP3    H233525   4.852   1.018   6.774  0.1459  1.6014 -0.1232
 3964TIP3   OH233526   1.575   0.136   8.509 -0.9085  0.0827  0.0230
 3964TIP3    H133527   1.594   0.207   8.571  1.7840 -0.2463 -0.3074
 3964TIP3    H233528   1.525   0.072   8.560  1.8543 -0.5385  2.1931
 3965TIP3   OH233529   3.181   0.638   0.918  0.3694 -0.2700 -0.5341
 3965TIP3    H133530   3.239   0.683   0.856  0.6185 -0.7629 -0.6637
 3965TIP3    H233531   3.100   0.689   0.916 -0.2322 -1.1896 -2.5281
 3966TIP3   OH233532   2.138   4.555   0.204  0.8547 -0.2023 -0.0259
 3966TIP3    H133533   2.214   4.559   0.262  0.8164 -1.1736  0.1069
 3966TIP3    H233534   2.092   4.637   0.219  0.8166 -0.4574  1.3577
 3967TIP3   OH233535   2.691   2.647   2.075  0.4723  0.1611 -0.5805
 3967TIP3    H133536   2.701   2.698   1.995  2.2104  1.3736  0.3479
 3967TIP3    H233537   2.762   2.583   2.072 -0.3489 -0.7782 -0.6727
 3968TIP3   OH233538   2.209   4.985   0.566 -0.3525 -0.0093 -1.1624
 3968TIP3    H133539   2.275   5.051   0.544  0.4641 -0.6886 -0.8020
 3968TIP3    H233540   2.148   5.030   0.624 -0.1008  0.5730 -1.3456
 3969TIP3   OH233541   6.660   0.533   7.318  0.4291 -0.0011  0.3034
 3969TIP3    H133542   6.564   0.538   7.319  0.4457  0.3075  0.3045
 3969TIP3    H233543   6.687   0.608   7.265  0.6117 -1.0297 -1.1096
 3970TIP3   OH233544   2.765   4.245   6.411 -0.8245 -0.1385  0.1393
 3970TIP3    H133545   2.813   4.180   6.359  1.0304  1.2395  0.0138
 3970TIP3    H233546   2.791   4.329   6.374  0.0438  0.8914  2.8234
 3971TIP3   OH233547   6.779   0.548   0.665 -0.1836 -0.1081 -0.2294
 3971TIP3    H133548   6.748   0.458   0.658  0.5584 -0.2833 -1.7428
 3971TIP3    H233549   6.704   0.601   0.637 -0.4078 -0.2928  0.0171
 3972TIP3   OH233550   1.056   1.307   8.628  0.2876  0.6649  0.0463
 3972TIP3    H133551   1.087   1.378   8.684  0.3134  2.0738 -1.6589
 3972TIP3    H233552   1.133   1.282   8.577  0.0379  0.0959 -0.0544
 3973TIP3   OH233553   0.376   6.675   8.191 -0.0031  0.1569  0.4998
 3973TIP3    H133554   0.442   6.744   8.195 -1.8886  2.1096 -0.2852
 3973TIP3    H233555   0.347   6.675   8.100  0.1001 -1.8913  0.4182
 3974TIP3   OH233556   3.950   1.919   8.550 -0.0644  0.1578  0.0847
 3974TIP3    H133557   3.985   1.836   8.582  0.0997  0.3041  0.2895
 3974TIP3    H233558   3.856   1.914   8.568 -0.1214 -0.1689 -0.3166
 3975TIP3   OH233559   5.032   6.087   8.044 -0.6260  0.0714  0.1350
 3975TIP3    H133560   4.994   6.159   8.095 -1.2284 -0.6376  0.6929
 3975TIP3    H233561   4.958   6.046   8.000 -0.3526 -0.5342  0.2312
 3976TIP3   OH233562   2.688   0.411   7.814  0.5847 -0.1636 -0.1486
 3976TIP3    H133563   2.763   0.466   7.792 -0.1214  1.7167  1.8048
 3976TIP3    H233564   2.637   0.406   7.734  0.8143  1.8555 -0.4633
 3977TIP3   OH233565   2.275   1.946   6.670  0.6127  0.2666 -0.2862
 3977TIP3    H133566   2.215   1.952   6.595  1.3313  2.4139 -0.7624
 3977TIP3    H233567   2.360   1.928   6.632  0.5136 -1.6324  0.3022
 3978TIP3   OH233568   6.675   0.055   0.094  0.2320  0.0166 -0.2408
 3978TIP3    H133569   6.615  -0.006   0.051  0.3616  0.7078 -1.4519
 3978TIP3    H233570   6.679   0.025   0.185 -0.4387 -1.1985 -0.5894
 3979TIP3   OH233571   5.789   0.965   8.743  0.7303 -0.5617  0.1306
 3979TIP3    H133572   5.819   0.880   8.709  1.0409  0.0587 -1.1915
 3979TIP3    H233573   5.827   1.029   8.683 -0.8206  0.4283  0.1701
 3980TIP3   OH233574   3.147   0.949   1.467 -0.3404 -0.1453 -0.7362
 3980TIP3    H133575   3.200   0.933   1.389  0.5807 -1.8361  0.1851
 3980TIP3    H233576   3.111   0.864   1.490 -0.3186  0.2541  0.8886
 3981TIP3   OH233577   1.998   4.511   7.390  0.1318  1.2272 -0.8050
 3981TIP3    H133578   1.944   4.555   7.324 -0.4127  1.3320 -0.2957
 3981TIP3    H233579   2.019   4.579   7.454 -1.6085  0.5705  0.5658
 3982TIP3   OH233580   1.552   6.458   0.606  0.1407  0.2568 -0.1283
 3982TIP3    H133581   1.532   6.464   0.512  1.5435 -2.5246 -0.6876
 3982TIP3    H233582   1.469   6.481   0.649 -0.7233  0.9352 -2.0321
 3983TIP3   OH233583   0.519   3.604   6.497 -0.4622  0.3926 -0.2122
 3983TIP3    H133584   0.509   3.542   6.570  1.4903  0.6386  0.3116
 3983TIP3    H233585   0.540   3.549   6.422 -2.2386  0.1597 -0.5813
 3984TIP3   OH233586   2.107   2.927   1.753  0.2038  0.3644  0.2654
 3984TIP3    H133587   2.032   2.878   1.789 -0.1317  1.1211  0.6066
 3984TIP3    H233588   2.177   2.914   1.818  0.1533  0.2505  0.2983
 3985TIP3   OH233589   2.364   3.949   1.676 -0.0820 -0.4331 -0.4655
 3985TIP3    H133590   2.312   3.999   1.614 -1.4443 -0.6832  0.4215
 3985TIP3    H233591   2.370   3.862   1.637  0.4848 -0.1602 -1.0080
 3986TIP3   OH233592   1.085   4.672   1.927 -0.1796 -0.2628  0.0660
 3986TIP3    H133593   1.174   4.702   1.906 -0.3779  1.6696  1.7215
 3986TIP3    H233594   1.085   4.660   2.022 -1.7073 -0.1954  0.0964
 3987TIP3   OH233595   6.295   0.035   8.569  0.2851  0.4029  0.2331
 3987TIP3    H133596   6.212   0.066   8.608  0.0807  0.3618 -0.1636
 3987TIP3    H233597   6.336   0.114   8.534 -0.3987  0.2036 -1.0848
 3988TIP3   OH233598   5.244   1.464   8.369  0.0375 -0.1733  0.2763
 3988TIP3    H133599   5.176   1.498   8.310  0.3385  1.4949  0.8187
 3988TIP3    H233600   5.287   1.543   8.403  3.3074 -1.1441 -1.2204
 3989TIP3   OH233601   2.122   1.758   0.457  0.3970  0.0220  0.7290
 3989TIP3    H133602   2.076   1.742   0.540  1.7833  1.1370  1.7519
 3989TIP3    H233603   2.164   1.674   0.437 -2.2384 -1.1415 -0.4118
 3990TIP3   OH233604   0.759   4.674   8.673  0.0906 -0.7220  0.2120
 3990TIP3    H133605   0.701   4.609   8.712 -0.3371 -0.4444  0.0457
 3990TIP3    H233606   0.805   4.626   8.604 -0.7501 -0.6797 -0.3914
 3991TIP3   OH233607   5.187   5.274   7.732 -0.3478  0.2194 -0.0852
 3991TIP3    H133608   5.270   5.318   7.711 -0.3112  1.0737  1.6062
 3991TIP3    H233609   5.194   5.188   7.691  1.1929  0.4490 -0.3708
 3992TIP3   OH233610   4.788   3.947   0.697  0.1703  0.1537  0.6768
 3992TIP3    H133611   4.759   3.983   0.614 -0.4718 -0.8118  0.4577
 3992TIP3    H233612   4.712   3.956   0.755  0.4306  0.3296  0.9917
 3993TIP3   OH233613   5.762   2.354   0.138 -0.0962  0.1993 -0.4497
 3993TIP3    H133614   5.773   2.270   0.093  0.4002 -1.0302  1.8071
 3993TIP3    H233615   5.669   2.373   0.130 -0.5908 -1.5583  0.5577
 3994TIP3   OH233616   6.714   0.609   2.181  0.5429 -0.1492  1.0803
 3994TIP3    H133617   6.773   0.542   2.215  2.2247  0.2285 -0.9191
 3994TIP3    H233618   6.653   0.561   2.124 -0.3781 -0.3692  2.2039
 3995TIP3   OH233619   3.386   5.100   2.602 -0.2351 -0.7906 -1.1233
 3995TIP3    H133620   3.293   5.120   2.592 -0.5247 -1.5749 -0.0601
 3995TIP3    H233621   3.430   5.170   2.554 -1.3251  0.3971 -0.4533
 3996TIP3   OH233622   1.701   5.093   1.144  0.0447 -0.1838  0.2648
 3996TIP3    H133623   1.615   5.120   1.111  0.3963  0.1610 -0.3878
 3996TIP3    H233624   1.707   5.134   1.230 -0.3016  0.0716  0.1707
 3997TIP3   OH233625   5.571   2.918   8.503 -0.3173 -0.0836  0.8581
 3997TIP3    H133626   5.662   2.890   8.514  0.6520  2.0482 -0.8460
 3997TIP3    H233627   5.550   2.894   8.413 -0.8037  1.0506  0.6558
 3998TIP3   OH233628   1.282   1.655   7.204 -0.5367  0.0638 -0.2307
 3998TIP3    H133629   1.321   1.570   7.185 -0.7865 -0.0197 -0.3701
 3998TIP3    H233630   1.189   1.645   7.182 -0.5817  0.3481 -0.1770
 3999TIP3   OH233631   6.102   1.851   8.000 -0.0716  0.1958 -0.0875
 3999TIP3    H133632   6.078   1.818   8.087 -1.9706 -1.1586 -1.0549
 3999TIP3    H233633   6.142   1.776   7.956  0.6220  0.7919 -0.4996
 4000TIP3   OH233634   6.785   1.816   0.248 -0.4223 -0.3830  0.0618
 4000TIP3    H133635   6.826   1.856   0.171 -0.2724  0.1952  0.4390
 4000TIP3    H233636   6.817   1.725   0.248  2.2027  0.4696  1.2767
 4001TIP3   OH233637   1.015   3.502   1.351  0.0032 -0.2429 -0.4687
 4001TIP3    H133638   0.947   3.502   1.419 -0.1012 -0.2770 -0.5728
 4001TIP3    H233639   0.979   3.448   1.281  0.6747 -1.3530  0.0150
 4002TIP3   OH233640   5.440   2.303   1.680  0.0122 -0.1987 -0.1006
 4002TIP3    H133641   5.430   2.311   1.585 -0.1814 -1.9553 -0.2587
 4002TIP3    H233642   5.355   2.330   1.714  0.0068  0.2199 -0.4246
 4003TIP3   OH233643   2.223   3.445   7.547  0.7355 -0.3605  0.4181
 4003TIP3    H133644   2.283   3.453   7.622  0.3720  3.2849  0.5010
 4003TIP3    H233645   2.141   3.413   7.585  0.5432  1.4684  1.6701
 4004TIP3   OH233646   2.789   0.172   6.915  0.3129  0.3786  0.2092
 4004TIP3    H133647   2.880   0.203   6.918 -0.0627  1.5498  0.1150
 4004TIP3    H233648   2.770   0.144   7.004  0.5625  0.7651  0.3859
 4005TIP3   OH233649   0.251   5.800   2.523  0.8109  0.5071 -0.7849
 4005TIP3    H133650   0.299   5.863   2.470  1.8570 -0.0836 -0.5716
 4005TIP3    H233651   0.163   5.801   2.487  0.9510  1.6539 -1.1634
 4006TIP3   OH233652   3.759   5.781   7.470 -0.6520  0.8299 -0.3808
 4006TIP3    H133653   3.716   5.862   7.496  0.5868  0.9281  1.6111
 4006TIP3    H233654   3.846   5.808   7.440 -0.9353  0.4049 -1.6077
 4007TIP3   OH233655   2.303   1.064   0.615  0.5530 -0.0730 -0.2844
 4007TIP3    H133656   2.216   1.096   0.595  1.3699  1.6134 -1.3636
 4007TIP3    H233657   2.292   1.013   0.696 -1.3713  0.2142 -0.3207
 4008TIP3   OH233658   2.127   2.858   0.682  0.2246 -0.1719 -0.2844
 4008TIP3    H133659   2.167   2.802   0.749 -0.7443 -0.8846 -0.2915
 4008TIP3    H233660   2.201   2.908   0.646  1.0378 -1.1142  0.0320
 4009TIP3   OH233661   0.180   2.574   7.859  0.3064  0.2769 -0.1111
 4009TIP3    H133662   0.267   2.579   7.818  0.6502 -1.5780  0.3024
 4009TIP3    H233663   0.146   2.663   7.852  1.6910  0.7643 -1.4792
 4010TIP3   OH233664   4.523   2.555   6.485 -0.4978 -0.0029  0.1530
 4010TIP3    H133665   4.511   2.566   6.391 -2.9730 -1.0526  0.2698
 4010TIP3    H233666   4.467   2.622   6.525 -1.6437 -1.2946  0.8187
 4011TIP3   OH233667   1.378   5.530   0.944  0.7186  0.0442  0.0108
 4011TIP3    H133668   1.320   5.571   1.008  1.3424  0.8100  0.0902
 4011TIP3    H233669   1.383   5.438   0.971 -0.7159 -0.1196 -0.1871
 4012TIP3   OH233670   6.841   2.487   0.190 -0.3975  0.0104 -0.0340
 4012TIP3    H133671   6.812   2.552   0.127  0.8175  2.1539  1.4954
 4012TIP3    H233672   6.919   2.525   0.230 -0.7754 -1.4787  2.3389
 4013TIP3   OH233673   5.967   5.836   0.861  0.4774  0.1898 -0.0519
 4013TIP3    H133674   5.981   5.760   0.805  0.5719 -2.0579  2.7952
 4013TIP3    H233675   6.046   5.841   0.916 -0.5921  0.7338  1.5215
 4014TIP3   OH233676   0.174   0.180   1.848  0.5999 -0.5894 -0.2486
 4014TIP3    H133677   0.131   0.211   1.927 -1.0372 -0.1773 -1.2456
 4014TIP3    H233678   0.217   0.257   1.811  1.4695 -0.8080  0.2746
 4015TIP3   OH233679   5.533   1.960   7.721  0.4725  0.3000  0.5115
 4015TIP3    H133680   5.583   2.023   7.670 -1.0136  0.1416 -1.2202
 4015TIP3    H233681   5.459   2.010   7.755  0.7053  0.0700  1.4041
 4016TIP3   OH233682   6.163   1.852   6.956 -0.0369  0.3957  0.3416
 4016TIP3    H133683   6.129   1.798   6.884  0.1390  0.1294  0.4574
 4016TIP3    H233684   6.151   1.942   6.925  0.0327  0.2844 -0.0228
 4017TIP3   OH233685   2.152   3.695   7.606  0.0430  0.1907  0.4074
 4017TIP3    H133686   2.206   3.728   7.534  1.7550  0.1783  1.6172
 4017TIP3    H233687   2.149   3.600   7.592 -1.2395  0.3605 -0.6651
 4018TIP3   OH233688   6.200   3.888   0.799  0.1620  0.2303  0.1562
 4018TIP3    H133689   6.213   3.982   0.784 -1.3876  0.5225  0.5072
 4018TIP3    H233690   6.286   3.849   0.779  0.8502  1.7106  0.0606
 4019TIP3   OH233691   3.088   4.361   2.554 -0.4238 -0.5347 -0.9233
 4019TIP3    H133692   3.136   4.435   2.591 -1.2016 -0.1923 -0.5800
 4019TIP3    H233693   3.022   4.400   2.496 -0.2085 -1.0041 -1.4927
 4020TIP3   OH233694   6.395   3.566   8.215  0.6395  0.5543 -0.4424
 4020TIP3    H133695   6.385   3.512   8.293  2.0169  1.6903  0.5729
 4020TIP3    H233696   6.309   3.603   8.200  0.5653  1.0972  1.1612
 4021TIP3   OH233697   2.666   2.773   7.938 -0.1605 -0.2760  0.1636
 4021TIP3    H133698   2.577   2.805   7.923  0.0075  0.8062  1.2747
 4021TIP3    H233699   2.716   2.852   7.962  1.8989 -0.2493 -3.4598
 4022TIP3   OH233700   3.515   1.340   7.947 -0.2185 -0.0548 -0.0960
 4022TIP3    H133701   3.528   1.401   8.019  0.4091 -0.0977 -0.1686
 4022TIP3    H233702   3.420   1.334   7.937 -0.3812 -1.0179  1.5723
 4023TIP3   OH233703   4.375   5.123   1.351  0.2815 -0.3014  0.2925
 4023TIP3    H133704   4.449   5.158   1.300 -0.9464  0.4424 -1.0606
 4023TIP3    H233705   4.298   5.144   1.298 -1.1351  0.9180  2.6864
 4024TIP3   OH233706   4.487   1.288   7.680 -0.1474  0.1379 -0.1955
 4024TIP3    H133707   4.425   1.358   7.700 -0.5039  0.1686 -1.3337
 4024TIP3    H233708   4.554   1.331   7.627  1.0031  0.1573  1.2172
 4025TIP3   OH233709   2.627   5.713   8.726  0.3274  0.3203  0.1089
 4025TIP3    H133710   2.583   5.629   8.713  0.2295  0.1076  1.6258
 4025TIP3    H233711   2.557   5.778   8.719  0.1214  0.1459  0.5390
 4026TIP3   OH233712   1.693   1.650   7.635 -0.6839 -0.5478 -0.3073
 4026TIP3    H133713   1.758   1.716   7.662  0.2357  0.2682 -4.0027
 4026TIP3    H233714   1.639   1.637   7.713  1.8900  1.1972  1.9492
 4027TIP3   OH233715   5.005   6.647   2.412  0.3447 -0.5839 -0.5168
 4027TIP3    H133716   5.005   6.586   2.338 -1.2175  0.4804 -1.4238
 4027TIP3    H233717   5.054   6.723   2.380  0.8281 -0.6616  0.0269
 4028TIP3   OH233718   0.589   6.815   7.107  0.0515 -0.1699 -0.1282
 4028TIP3    H133719   0.637   6.776   7.180  0.3754  2.5468  1.2266
 4028TIP3    H233720   0.656   6.858   7.054 -0.3367 -0.9749 -1.3150
 4029TIP3   OH233721   6.817   2.597   1.992  0.3704 -0.0444  0.0080
 4029TIP3    H133722   6.724   2.613   2.007  0.5735  0.3388  0.9558
 4029TIP3    H233723   6.857   2.608   2.078  1.4519  0.9464 -0.5829
 4030TIP3   OH233724   3.644   6.831   0.390 -0.1411 -0.0484 -0.1706
 4030TIP3    H133725   3.656   6.824   0.485  2.9795  2.0027 -0.2769
 4030TIP3    H233726   3.596   6.913   0.378 -0.2421 -0.1417 -0.4218
 4031TIP3   OH233727   2.047   1.518   0.996  0.1357  0.0002 -0.3441
 4031TIP3    H133728   2.081   1.605   0.972  0.1246  0.5840  1.5857
 4031TIP3    H233729   2.125   1.467   1.018  0.0980 -0.3254 -0.9354
 4032TIP3   OH233730   4.381   3.912   1.466  0.3289 -0.0461 -0.0330
 4032TIP3    H133731   4.370   3.847   1.397 -1.1700 -0.2672  0.3846
 4032TIP3    H233732   4.304   3.969   1.459  0.5739  0.4290  0.9164
 4033TIP3   OH233733   1.442   3.035   0.570  0.1982  0.2865  0.0680
 4033TIP3    H133734   1.350   3.054   0.590  0.2825 -1.3879  2.4719
 4033TIP3    H233735   1.439   2.951   0.524  0.4881  0.5111 -0.3601
 4034TIP3   OH233736   6.529   4.521   1.405 -0.6639 -0.2238 -0.1791
 4034TIP3    H133737   6.612   4.567   1.414 -0.1346 -1.2032  0.1149
 4034TIP3    H233738   6.539   4.441   1.457 -2.5178  0.5542  1.5208
 4035TIP3   OH233739   1.811   4.574   7.206  0.1205  0.0503  0.2331
 4035TIP3    H133740   1.731   4.526   7.229 -0.0214  0.7868  1.3742
 4035TIP3    H233741   1.780   4.647   7.152  0.1188 -0.0800  0.0551
 4036TIP3   OH233742   6.133   2.793   0.333  0.5302  0.1498 -0.1065
 4036TIP3    H133743   6.083   2.718   0.300 -0.4103  0.7799 -0.1456
 4036TIP3    H233744   6.224   2.772   0.313  0.3842 -1.4133  0.6967
 4037TIP3   OH233745   0.295   0.504   2.191 -0.8625 -0.2969 -0.0748
 4037TIP3    H133746   0.281   0.593   2.159 -1.0265 -0.6936 -1.1543
 4037TIP3    H233747   0.390   0.497   2.202 -0.9243  0.3255  1.0070
 4038TIP3   OH233748   5.872   2.811   6.713  0.4645  0.4468  0.1043
 4038TIP3    H133749   5.787   2.855   6.712 -0.1208 -0.6206  0.7959
 4038TIP3    H233750   5.929   2.869   6.764  0.2998  1.4069 -0.7839
 4039TIP3   OH233751   2.640   5.834   2.006 -0.6089 -0.5433  0.1958
 4039TIP3    H133752   2.609   5.769   2.069 -2.1252  0.3238  0.4018
 4039TIP3    H233753   2.603   5.806   1.922  0.1463 -0.8596 -0.0408
 4040TIP3   OH233754   3.911   2.766   8.561  0.6574 -0.2146  0.4030
 4040TIP3    H133755   3.961   2.718   8.495  2.1102  0.5970  0.8763
 4040TIP3    H233756   3.976   2.816   8.610 -0.7790  2.3580 -0.1300
 4041TIP3   OH233757   4.786   2.853   6.173 -0.2157  0.2831 -0.1942
 4041TIP3    H133758   4.800   2.857   6.268  0.8040 -4.2736  0.1117
 4041TIP3    H233759   4.696   2.880   6.160 -1.0632 -0.9906  2.4267
 4042TIP3   OH233760   2.520   5.348   8.131  0.1874 -0.3751  0.3542
 4042TIP3    H133761   2.447   5.286   8.138 -1.0359  0.4022 -3.4064
 4042TIP3    H233762   2.486   5.429   8.168 -0.0625 -0.5802  0.5843
 4043TIP3   OH233763   3.493   1.848   1.053 -0.7131 -0.1902  0.2396
 4043TIP3    H133764   3.552   1.915   1.019 -1.8120  0.4113 -0.5617
 4043TIP3    H233765   3.483   1.786   0.980 -0.9925 -0.3399  0.4022
 4044TIP3   OH233766   0.517   0.926   1.197 -0.0871 -0.3480 -0.3612
 4044TIP3    H133767   0.573   0.996   1.164  0.0686 -0.6811 -0.8215
 4044TIP3    H233768   0.502   0.948   1.289 -1.2476  1.0613 -0.8540
 4045TIP3   OH233769   3.448   6.686   2.162 -0.1200  0.4145  0.2081
 4045TIP3    H133770   3.356   6.670   2.183 -0.4434  0.4444 -1.1330
 4045TIP3    H233771   3.453   6.780   2.144 -0.4135 -0.0130 -2.3943
 4046TIP3   OH233772   5.562   1.215   7.480 -0.0364  0.0629  0.3962
 4046TIP3    H133773   5.495   1.270   7.521 -0.3666 -1.2127  1.6431
 4046TIP3    H233774   5.643   1.235   7.528 -0.0148 -0.0271  0.3992
 4047TIP3   OH233775   3.396   6.402   6.644 -0.6153 -0.1450 -0.1687
 4047TIP3    H133776   3.449   6.401   6.565  1.7706  2.1669  1.2508
 4047TIP3    H233777   3.323   6.461   6.625 -1.4929 -1.5311 -1.3584
 4048TIP3   OH233778   3.755   4.565   7.995  0.3584 -0.3102  0.3244
 4048TIP3    H133779   3.813   4.641   7.991 -0.5042  0.4125  1.1193
 4048TIP3    H233780   3.667   4.602   7.995 -0.0670 -1.2865  1.2663
 4049TIP3   OH233781   6.018   6.489   7.777 -0.3867  0.1802  0.1232
 4049TIP3    H133782   6.088   6.502   7.841  0.5532  1.1102 -1.0589
 4049TIP3    H233783   5.975   6.408   7.805  1.3628 -0.5956  0.6954
 4050TIP3   OH233784   1.890   5.565   8.511 -0.4910  0.2140  0.0878
 4050TIP3    H133785   1.849   5.606   8.587 -1.3871  0.0375 -0.2854
 4050TIP3    H233786   1.974   5.534   8.543 -0.4506  0.9752  0.7647
 4051TIP3   OH233787   6.342   2.262   2.112  0.6107 -0.1862 -0.3359
 4051TIP3    H133788   6.341   2.346   2.158 -1.3099  0.5755 -1.6028
 4051TIP3    H233789   6.256   2.224   2.131  1.5911 -2.1084  0.5475
 4052TIP3   OH233790   2.148   4.789   1.679  0.0224  0.0684  0.4262
 4052TIP3    H133791   2.161   4.830   1.593 -1.5604  1.7036  0.8989
 4052TIP3    H233792   2.233   4.749   1.700  0.8568  0.8478 -1.2661
 4053TIP3   OH233793   5.021   6.450   2.617 -0.0625  0.5027  0.0267
 4053TIP3    H133794   4.999   6.379   2.556 -1.3156  0.6863  0.2433
 4053TIP3    H233795   5.031   6.527   2.561  0.4057  0.3417 -0.1143
 4054TIP3   OH233796   2.847   5.599   8.645  0.2071  0.2974  0.5289
 4054TIP3    H133797   2.764   5.639   8.672 -0.4022 -1.0657  0.7418
 4054TIP3    H233798   2.829   5.562   8.559  0.9767  1.0760  0.0136
 4055TIP3   OH233799   5.427   0.178   1.394  0.2627 -0.6329 -0.3294
 4055TIP3    H133800   5.352   0.120   1.408  0.7145 -1.5277 -1.4336
 4055TIP3    H233801   5.389   0.260   1.362 -0.4626  0.0835  2.1403
 4056TIP3   OH233802   4.041   3.563   1.266 -0.2158  0.3434  0.6894
 4056TIP3    H133803   4.091   3.563   1.184  1.3712 -0.7683  1.6079
 4056TIP3    H233804   3.986   3.485   1.261  0.4004 -0.1145  0.9690
 4057TIP3   OH233805   4.507   2.752   0.837  0.7831  0.4971  0.5768
 4057TIP3    H133806   4.567   2.743   0.763  1.5370 -1.0078  1.3218
 4057TIP3    H233807   4.512   2.844   0.862 -0.7061  1.4499 -2.1867
 4058TIP3   OH233808   2.641   6.722   1.956 -0.2182 -0.5556 -0.0103
 4058TIP3    H133809   2.577   6.788   1.985  0.2374  0.6292 -1.5942
 4058TIP3    H233810   2.667   6.678   2.037  0.1640  1.8314  1.2670
 4059TIP3   OH233811   6.657   0.952   2.069  0.2575 -0.1245 -0.5708
 4059TIP3    H133812   6.678   1.039   2.034 -0.3475  0.3016  0.0980
 4059TIP3    H233813   6.738   0.902   2.058  0.7546  0.6597 -0.5542
 4060TIP3   OH233814   4.162   0.803   0.820  0.2015  0.1601  0.0787
 4060TIP3    H133815   4.071   0.784   0.843  0.6922 -0.3208  1.7259
 4060TIP3    H233816   4.173   0.896   0.841  0.3781 -0.0452  0.9305
 4061TIP3   OH233817   2.535   4.859   7.934 -0.5238 -0.7441  0.4973
 4061TIP3    H133818   2.538   4.777   7.885  1.1994 -0.2709 -0.2753
 4061TIP3    H233819   2.589   4.919   7.883  1.1041 -0.1261  2.8103
 4062TIP3   OH233820   5.411   6.464   0.432 -0.2166 -0.3180 -0.6665
 4062TIP3    H133821   5.320   6.453   0.403 -0.1112  0.4855 -1.3679
 4062TIP3    H233822   5.443   6.538   0.381  0.9361 -0.7892 -0.6604
 4063TIP3   OH233823   6.297   5.900   8.026  0.1406  0.2393 -0.4802
 4063TIP3    H133824   6.284   5.986   8.065 -2.0964  0.2562 -1.1628
 4063TIP3    H233825   6.261   5.839   8.090 -2.4122  0.1819 -1.8606
 4064TIP3   OH233826   4.747   6.774   7.299 -0.6117 -0.2348 -0.1169
 4064TIP3    H133827   4.690   6.778   7.222 -0.7516  1.0928  0.0294
 4064TIP3    H233828   4.790   6.689   7.292 -1.6153 -0.7089 -0.9401
 4065TIP3   OH233829   2.657   6.579   7.654 -0.8136 -0.4079 -0.0833
 4065TIP3    H133830   2.706   6.656   7.684 -0.8668 -0.6613  0.6600
 4065TIP3    H233831   2.569   6.591   7.688 -0.2223 -1.9955  2.2141
 4066TIP3   OH233832   3.937   0.346   8.504 -0.4745  0.9898 -0.1237
 4066TIP3    H133833   3.866   0.353   8.440 -0.0629  2.1559 -0.4845
 4066TIP3    H233834   3.931   0.427   8.554 -0.6763  0.1691  1.2134
 4067TIP3   OH233835   3.541   4.242   8.160  0.3844 -0.0045  0.8689
 4067TIP3    H133836   3.490   4.221   8.082  0.0771  0.5115  0.9287
 4067TIP3    H233837   3.621   4.282   8.126  0.9426 -1.1563  0.7572
 4068TIP3   OH233838   5.145   5.852   8.120 -0.3653  0.4624 -0.0964
 4068TIP3    H133839   5.159   5.843   8.026 -0.1675  0.4060 -0.0625
 4068TIP3    H233840   5.098   5.935   8.130  0.9494  1.2434 -0.1255
 4069TIP3   OH233841   4.523   2.667   6.232 -0.9766 -1.0533 -0.0477
 4069TIP3    H133842   4.477   2.664   6.148 -0.5392 -0.2410 -0.3268
 4069TIP3    H233843   4.507   2.755   6.265 -0.0333 -0.9202  0.0852
 4070TIP3   OH233844   0.162   6.472   2.413  0.3552  0.4345  0.0945
 4070TIP3    H133845   0.149   6.543   2.350  0.0168 -0.1455 -0.5065
 4070TIP3    H233846   0.254   6.478   2.437  0.4833  0.6880 -0.4410
 4071TIP3   OH233847   2.201   0.640   0.156  0.8041  0.4708 -0.3735
 4071TIP3    H133848   2.154   0.720   0.134  1.9663  1.4464  0.5470
 4071TIP3    H233849   2.293   0.661   0.138  1.3210 -0.0786  1.4262
 4072TIP3   OH233850   4.986   5.077   7.471  0.5685 -0.3801 -0.4910
 4072TIP3    H133851   4.949   5.001   7.425  0.5926  1.1712 -3.3358
 4072TIP3    H233852   5.061   5.042   7.519 -0.8087 -2.5063  0.2668
 4073TIP3   OH233853   0.164   5.927   1.779  0.2581 -0.2747 -0.2909
 4073TIP3    H133854   0.238   5.962   1.828  0.5665 -1.5652  0.2240
 4073TIP3    H233855   0.095   5.992   1.789  1.4184  1.1270 -1.0924
 4074TIP3   OH233856   5.152   0.661   0.927 -0.3637 -0.1261  0.3863
 4074TIP3    H133857   5.149   0.643   0.833  1.3372  0.6276  0.1481
 4074TIP3    H233858   5.062   0.649   0.957 -0.9509 -0.3053 -1.3508
 4075TIP3   OH233859   3.886   4.976   6.607 -0.3921 -0.3844 -0.1955
 4075TIP3    H133860   3.796   4.942   6.614 -0.0064 -0.9589  3.6374
 4075TIP3    H233861   3.940   4.898   6.593 -0.2552 -0.2951 -0.1671
 4076TIP3   OH233862   1.631   4.665   7.633  0.4694  0.0668 -0.0749
 4076TIP3    H133863   1.553   4.678   7.687  0.0763 -0.1717 -0.5780
 4076TIP3    H233864   1.646   4.750   7.591  0.6130  0.1761  0.1995
 4077TIP3   OH233865   0.600   1.926   1.283 -0.9658  1.2363 -0.3496
 4077TIP3    H133866   0.597   1.863   1.211 -0.9662  2.1962 -1.2055
 4077TIP3    H233867   0.693   1.945   1.295 -0.9727  1.1553 -0.1660
 4078TIP3   OH233868   3.589   0.456   1.143 -0.4688  0.1614  0.4483
 4078TIP3    H133869   3.657   0.522   1.156 -0.2993  0.0172  0.3027
 4078TIP3    H233870   3.591   0.403   1.223  1.1498 -1.2470 -0.4523
 4079TIP3   OH233871   2.253   4.252   8.304  0.3485 -0.0961  0.1343
 4079TIP3    H133872   2.317   4.195   8.344  0.3699  0.2608  0.6129
 4079TIP3    H233873   2.243   4.218   8.215  0.3888 -0.8148  0.3997
 4080TIP3   OH233874   0.872   1.952   7.164 -0.6722 -0.0844  0.5524
 4080TIP3    H133875   0.853   1.994   7.081 -0.3254 -0.7806  0.1093
 4080TIP3    H233876   0.966   1.932   7.160 -1.1640 -2.6417 -0.1044
 4081TIP3   OH233877   2.169   5.648   7.095 -0.1285 -0.3225 -0.3450
 4081TIP3    H133878   2.225   5.580   7.057  0.7415  0.7930 -1.1265
 4081TIP3    H233879   2.226   5.695   7.156 -0.9387 -0.7476  0.7883
 4082TIP3   OH233880   5.858   0.571   0.896  0.2715 -0.2279 -0.0500
 4082TIP3    H133881   5.915   0.502   0.862 -0.5871 -0.5115 -0.9741
 4082TIP3    H233882   5.791   0.524   0.946  0.8646  0.1061  1.0829
 4083TIP3   OH233883   1.110   6.727   2.650 -0.3744  0.6361 -0.0829
 4083TIP3    H133884   1.192   6.772   2.629  0.9704 -0.6577  2.0177
 4083TIP3    H233885   1.053   6.797   2.682  0.8699  1.2059  0.9885
 4084TIP3   OH233886   6.367   3.609   2.256  0.0878 -0.5505  0.1723
 4084TIP3    H133887   6.276   3.615   2.225  0.5530  0.4838 -1.0915
 4084TIP3    H233888   6.394   3.520   2.234 -0.4187 -0.6564 -0.0347
 4085TIP3   OH233889   3.059   0.982   7.244  0.0683 -0.2437  0.4030
 4085TIP3    H133890   3.021   0.905   7.202  0.3571  0.6694 -1.6400
 4085TIP3    H233891   3.097   0.949   7.326 -0.6854 -2.0597  0.0526
 4086TIP3   OH233892   3.874   2.227   7.774  0.0087  0.4313 -0.4216
 4086TIP3    H133893   3.935   2.225   7.848 -0.5139  2.1804  0.1065
 4086TIP3    H233894   3.916   2.284   7.710 -0.3642  0.3778 -0.7169
 4087TIP3   OH233895   1.035   0.975   1.004 -0.0516 -0.4522 -0.3564
 4087TIP3    H133896   1.066   1.050   1.056 -0.5611 -0.0709 -0.6004
 4087TIP3    H233897   0.941   0.988   0.995 -0.1664 -1.1869 -0.3089
 4088TIP3   OH233898   4.745   6.764   1.260 -0.1432 -0.1481  0.3702
 4088TIP3    H133899   4.738   6.699   1.191 -0.8769  0.2083  0.1021
 4088TIP3    H233900   4.793   6.837   1.220  0.1048 -0.2535  0.4725
 4089TIP3   OH233901   1.323   1.134   0.597 -0.2715  0.4090 -1.3300
 4089TIP3    H133902   1.363   1.100   0.518  0.2449 -0.4071 -0.7310
 4089TIP3    H233903   1.262   1.065   0.625  0.1935  0.2941 -0.5511
 4090TIP3   OH233904   1.367   4.368   6.585 -0.0953 -0.1820 -0.3656
 4090TIP3    H133905   1.353   4.274   6.597 -0.3291  0.0021  0.9915
 4090TIP3    H233906   1.319   4.390   6.505 -0.1318 -1.1898 -0.6322
 4091TIP3   OH233907   6.803   2.953   7.311 -0.2949 -0.1969 -0.3591
 4091TIP3    H133908   6.856   2.937   7.389 -1.5316 -0.2245  0.5083
 4091TIP3    H233909   6.712   2.943   7.341 -0.8204  0.3729 -1.6670
 4092TIP3   OH233910   3.436   3.751   0.834  0.9208  0.3080  0.0283
 4092TIP3    H133911   3.357   3.770   0.784  1.1324 -1.2397 -0.9747
 4092TIP3    H233912   3.427   3.801   0.914  0.6417  3.0870 -1.6053
 4093TIP3   OH233913   5.577   6.050   7.266  0.0483  0.1501 -0.1334
 4093TIP3    H133914   5.539   5.988   7.327  1.1779  0.3682  0.8243
 4093TIP3    H233915   5.606   5.996   7.192  0.1617 -0.3335  0.2609
 4094TIP3   OH233916   2.068   3.557   8.269  0.7406  0.2627  0.1866
 4094TIP3    H133917   1.997   3.546   8.332  0.7755 -1.0096  0.0284
 4094TIP3    H233918   2.078   3.652   8.260 -1.8056  0.5252 -0.7591
 4095TIP3   OH233919   6.082   3.068   0.833 -0.2738  0.0007  0.0347
 4095TIP3    H133920   6.009   3.043   0.776  0.7496 -2.0678 -0.4340
 4095TIP3    H233921   6.039   3.106   0.910 -1.7730  0.3751 -0.9274
 4096TIP3   OH233922   5.401   1.064   8.558 -0.3950  0.3494  0.6954
 4096TIP3    H133923   5.340   1.011   8.506 -0.4855  1.1775 -0.0726
 4096TIP3    H233924   5.436   1.004   8.623  1.2721 -1.2975 -1.5717
 4097TIP3   OH233925   0.235   1.610   8.417 -0.4486 -0.5833  0.1201
 4097TIP3    H133926   0.167   1.544   8.403  0.8806 -2.2115  1.0013
 4097TIP3    H233927   0.208   1.656   8.497 -0.0717 -1.8502  0.9974
 4098TIP3   OH233928   6.474   3.644   1.279 -0.1544 -0.5656  0.1904
 4098TIP3    H133929   6.398   3.595   1.308 -0.4773  0.0850  0.4691
 4098TIP3    H233930   6.440   3.731   1.257  0.1938 -0.8109 -1.4878
 4099TIP3   OH233931   2.764   5.856   8.049 -0.6145  0.3587  0.3144
 4099TIP3    H133932   2.825   5.821   7.984 -1.5660  1.0999 -1.0252
 4099TIP3    H233933   2.678   5.827   8.020 -0.8937 -2.9712  3.6027
 4100TIP3   OH233934   6.668   6.276   8.608 -0.5837 -0.4812 -0.0936
 4100TIP3    H133935   6.618   6.357   8.597  0.1808 -0.1345 -1.1386
 4100TIP3    H233936   6.708   6.284   8.694 -0.8657  0.0563 -0.0093
 4101TIP3   OH233937   2.042   6.134   7.032 -0.2466 -0.5085  0.2533
 4101TIP3    H133938   2.007   6.137   6.943 -1.9133 -0.5184  0.8792
 4101TIP3    H233939   1.999   6.206   7.078  0.6749 -0.4373  1.0274
 4102TIP3   OH233940   3.816   1.936   0.723  0.3589 -0.1254  0.0016
 4102TIP3    H133941   3.858   2.018   0.700 -1.3170  1.0837  1.0300
 4102TIP3    H233942   3.886   1.883   0.761  1.2142  1.3643  0.5998
 4103TIP3   OH233943   4.735   3.837   7.145  0.0885  0.3845  0.1192
 4103TIP3    H133944   4.696   3.757   7.110 -0.0551  0.2300  0.6250
 4103TIP3    H233945   4.793   3.868   7.075 -0.4275  0.2532 -0.3777
 4104TIP3   OH233946   4.602   5.125   0.441 -0.5424 -0.7762  0.3694
 4104TIP3    H133947   4.551   5.045   0.428 -1.6539 -0.1280  0.6191
 4104TIP3    H233948   4.608   5.134   0.536 -0.5986 -0.4435  0.3397
 4105TIP3   OH233949   5.790   0.722   8.582 -0.4221  0.1627 -0.2505
 4105TIP3    H133950   5.841   0.662   8.636  0.2280  0.0559 -0.9700
 4105TIP3    H233951   5.855   0.764   8.525 -1.1047  0.2078 -1.0064
 4106TIP3   OH233952   5.235   4.959   7.190  0.1614  0.0273 -0.4337
 4106TIP3    H133953   5.201   4.876   7.223  1.3120 -0.0071  0.7544
 4106TIP3    H233954   5.265   4.940   7.102  1.7156 -1.2158  0.3064
 4107TIP3   OH233955   1.304   2.455   8.511 -0.3369  0.5533  0.4411
 4107TIP3    H133956   1.234   2.467   8.447  0.1424 -0.0866 -0.2257
 4107TIP3    H233957   1.321   2.360   8.511  0.3282  0.6652  0.7949
 4108TIP3   OH233958   3.287   4.099   8.404 -0.3071  0.4339 -0.1392
 4108TIP3    H133959   3.268   4.182   8.449 -0.3415  0.5767 -0.4128
 4108TIP3    H233960   3.201   4.057   8.396 -0.1445 -0.1769  1.0454
 4109TIP3   OH233961   6.246   2.010   8.708  0.0703 -1.1750  0.3282
 4109TIP3    H133962   6.215   1.948   8.774 -0.6576 -0.9868  0.1743
 4109TIP3    H233963   6.263   1.957   8.631  1.4837 -1.4838  0.8259
 4110TIP3   OH233964   1.062   2.715   0.188  0.2022 -0.3703 -0.1433
 4110TIP3    H133965   1.046   2.621   0.195 -1.7884 -0.1419 -0.9152
 4110TIP3    H233966   0.999   2.755   0.248  1.2832  0.4725  0.4682
 4111TIP3   OH233967   4.509   0.630   0.263 -0.4240 -0.3010  0.3412
 4111TIP3    H133968   4.491   0.666   0.350  2.0018 -0.0850  0.8224
 4111TIP3    H233969   4.556   0.548   0.280  1.2431  0.3792 -0.7028
 4112TIP3   OH233970   5.557   4.552   7.772 -0.1950 -0.6246 -0.1875
 4112TIP3    H133971   5.514   4.561   7.857 -0.3057  0.5364 -0.3507
 4112TIP3    H233972   5.564   4.642   7.739 -0.3144 -1.0739 -1.4883
 4113TIP3   OH233973   2.023   1.526   1.404 -0.2940 -0.7338 -0.1824
 4113TIP3    H133974   1.978   1.462   1.349  1.0402 -0.8804 -1.1593
 4113TIP3    H233975   1.953   1.568   1.454 -1.4070 -1.5478 -0.9989
 4114TIP3   OH233976   2.844   2.784   0.156 -0.1436 -0.1290 -0.1090
 4114TIP3    H133977   2.872   2.868   0.193 -0.6369  0.6178 -1.3749
 4114TIP3    H233978   2.840   2.800   0.061  1.8810 -2.1803 -0.6440
 4115TIP3   OH233979   5.453   4.999   1.567 -0.1595  0.1485  0.0356
 4115TIP3    H133980   5.456   4.952   1.484 -1.1255  0.8368 -0.3975
 4115TIP3    H233981   5.452   5.091   1.543  1.1946  0.4170  0.8665
 4116TIP3   OH233982   1.882   4.956   7.393 -0.3902 -0.3090  0.1489
 4116TIP3    H133983   1.790   4.932   7.399 -0.9551  1.3123 -1.2686
 4116TIP3    H233984   1.906   4.936   7.302  1.1188 -2.0974  0.8694
 4117TIP3   OH233985   2.146   5.754   8.664 -0.0409  0.8729 -0.5371
 4117TIP3    H133986   2.072   5.747   8.725  1.2631  1.8567  1.2253
 4117TIP3    H233987   2.161   5.848   8.655  0.6632  0.6918 -1.2846
 4118TIP3   OH233988   5.568   6.605   7.173  0.5863  0.3720 -0.4411
 4118TIP3    H133989   5.552   6.610   7.079  2.3534  0.9915 -0.7477
 4118TIP3    H233990   5.503   6.543   7.205  0.5195 -0.5444 -2.2208
 4119TIP3   OH233991   3.380   4.474   8.242 -0.1505  0.7367 -0.1326
 4119TIP3    H133992   3.428   4.396   8.213  0.7937  1.7156 -1.3343
 4119TIP3    H233993   3.407   4.487   8.333  0.4640  0.2397 -0.2372
 4120TIP3   OH233994   6.516   2.458   0.210  0.1537 -0.0182 -0.1403
 4120TIP3    H133995   6.574   2.425   0.141  0.8837 -1.2622  1.0278
 4120TIP3    H233996   6.575   2.488   0.279 -0.5790 -1.1925  1.0193
 4121TIP3   OH233997   1.062   4.078   7.473  0.2209 -0.2951  0.4835
 4121TIP3    H133998   1.065   4.164   7.431  1.3536 -0.4007  0.3281
 4121TIP3    H233999   0.986   4.035   7.433 -0.1193  0.4758  0.2728
 4122TIP3   OH234000   3.197   1.075   0.191  0.0594 -0.4967  0.4392
 4122TIP3    H134001   3.163   1.093   0.103 -0.6867 -0.3564  0.7523
 4122TIP3    H234002   3.289   1.101   0.187 -0.5381  1.7674  0.3728
 4123TIP3   OH234003   4.841   3.447   1.229  0.2780 -0.3107 -0.0993
 4123TIP3    H134004   4.864   3.527   1.277 -2.0668  0.0250  0.6112
 4123TIP3    H234005   4.824   3.382   1.297 -0.4118 -0.6239 -0.5543
 4124TIP3   OH234006   1.068   4.195   7.741  0.4172  0.3799 -0.2528
 4124TIP3    H134007   1.107   4.278   7.715  0.7145  0.0261 -0.9496
 4124TIP3    H234008   1.065   4.143   7.661 -0.1667 -0.1243  0.0856
 4125TIP3   OH234009   3.057   5.912   8.215 -0.3416 -0.3722 -0.2764
 4125TIP3    H134010   3.007   5.930   8.295 -0.2647  0.1579 -0.3439
 4125TIP3    H234011   3.148   5.913   8.243 -0.2996  0.0806 -0.4149
 4126TIP3   OH234012   2.514   1.943   1.114 -0.0399 -0.3165 -0.2816
 4126TIP3    H134013   2.423   1.961   1.138 -0.1747  0.4216 -1.2983
 4126TIP3    H234014   2.564   2.011   1.161 -0.3066  1.1473 -2.0172
 4127TIP3   OH234015   0.609   4.433   8.063  0.2307 -0.5605 -0.3551
 4127TIP3    H134016   0.570   4.359   8.016  0.8922  0.2950 -2.3881
 4127TIP3    H234017   0.703   4.424   8.047  0.6108 -0.8333  1.8031
 4128TIP3   OH234018   5.863   0.245   0.798  0.1788  0.6390  0.1502
 4128TIP3    H134019   5.871   0.178   0.730  0.9072  0.6606  0.2041
 4128TIP3    H234020   5.936   0.304   0.782  0.6845  0.3421  1.2779
 4129TIP3   OH234021   4.619   2.872   0.083 -0.7078  0.1806 -0.1829
 4129TIP3    H134022   4.589   2.861  -0.007  0.7586  0.0863 -0.6877
 4129TIP3    H234023   4.658   2.959   0.085  1.0246 -0.5498 -0.1987
 4130TIP3   OH234024   1.262   4.752   8.574 -0.0250 -0.3982  0.3408
 4130TIP3    H134025   1.316   4.811   8.522  0.2084 -0.1684  0.8417
 4130TIP3    H234026   1.174   4.790   8.570 -0.2859 -1.0601 -0.9198
 4131TIP3   OH234027   0.474   3.730   0.864 -0.3289  0.3746 -0.0851
 4131TIP3    H134028   0.454   3.696   0.777  0.1024  2.7770 -1.1880
 4131TIP3    H234029   0.558   3.688   0.887 -0.4871 -0.3392 -0.7657
 4132TIP3   OH234030   6.021   0.314   8.101  0.1466 -0.5774 -0.0397
 4132TIP3    H134031   6.094   0.351   8.151 -2.1984  3.1355  0.9786
 4132TIP3    H234032   6.024   0.360   8.017 -1.5869  0.4592  0.4263
 4133TIP3   OH234033   6.669   3.530   2.108 -0.9250 -0.6702  0.1185
 4133TIP3    H134034   6.757   3.492   2.097 -0.6005  0.1352 -0.1349
 4133TIP3    H234035   6.625   3.471   2.169  0.5096  0.0866  1.9714
 4134TIP3   OH234036   5.204   2.713   0.627 -0.2700  0.2985 -0.1658
 4134TIP3    H134037   5.179   2.735   0.717 -1.9450  1.5434 -0.8772
 4134TIP3    H234038   5.192   2.618   0.621 -0.4163  0.2424  0.8349
 4135TIP3   OH234039   5.125   2.989   6.604 -0.4003 -0.4178  0.3385
 4135TIP3    H134040   5.030   2.992   6.606 -0.3701  0.3296  1.3738
 4135TIP3    H234041   5.153   3.067   6.653  0.7384 -0.7550  0.2601
 4136TIP3   OH234042   6.786   0.303   8.155  0.2862  0.1826  0.4603
 4136TIP3    H134043   6.881   0.307   8.147  0.2855 -2.1845 -2.5178
 4136TIP3    H234044   6.767   0.209   8.161 -1.8906  0.5971  0.8822
 4137TIP3   OH234045   5.346   2.212   6.373 -0.1015  0.0513  0.5741
 4137TIP3    H134046   5.267   2.224   6.319 -0.1047 -0.4989  0.4460
 4137TIP3    H234047   5.415   2.256   6.324  0.5892 -3.1235 -1.5875
 4138TIP3   OH234048   2.126   6.284   8.426  0.1864  0.1058  0.1979
 4138TIP3    H134049   2.045   6.335   8.422 -0.0626 -0.1858  1.1829
 4138TIP3    H234050   2.135   6.246   8.339 -0.0236  1.2177 -0.3300
 4139TIP3   OH234051   1.424   5.036   7.359  0.2122 -0.0652  0.3354
 4139TIP3    H134052   1.479   5.090   7.416  1.6446 -0.8698 -0.2503
 4139TIP3    H234053   1.451   5.059   7.270 -1.4457  0.5933 -0.0405
 4140TIP3   OH234054   3.983   4.180   0.532 -0.1112 -0.3945  0.2048
 4140TIP3    H134055   4.002   4.263   0.488  0.1240  0.3829  1.7053
 4140TIP3    H234056   3.987   4.114   0.462  0.9188  0.6904 -0.8062
 4141TIP3   OH234057   1.328   6.540   2.349  0.0775  0.1667  0.6818
 4141TIP3    H134058   1.293   6.629   2.349  0.3891  0.2933  0.2649
 4141TIP3    H234059   1.401   6.542   2.287 -0.4149 -0.5757  0.0523
 4142TIP3   OH234060   6.144   6.200   1.700 -0.7474  0.2208  0.0325
 4142TIP3    H134061   6.133   6.293   1.677 -1.7138  0.2484  0.5478
 4142TIP3    H234062   6.160   6.157   1.616  0.3542  0.9270 -0.1424
 4143TIP3   OH234063   2.852   4.797   7.654  0.2582 -0.0993  0.2602
 4143TIP3    H134064   2.902   4.776   7.576 -1.1871 -2.5056 -0.1163
 4143TIP3    H234065   2.777   4.847   7.622 -0.8250 -1.8813 -0.0751
 4144TIP3   OH234066   6.038   0.492   1.165  0.0885 -0.1257  0.1269
 4144TIP3    H134067   6.085   0.503   1.082  1.3600 -0.9203  0.7174
 4144TIP3    H234068   5.949   0.469   1.139  0.1756  0.7331 -1.0182
 4145TIP3   OH234069   1.286   0.898   8.325 -0.1184 -0.2480 -0.5738
 4145TIP3    H134070   1.210   0.842   8.342 -0.1152 -0.0710  0.0736
 4145TIP3    H234071   1.342   0.847   8.267 -0.7380 -0.3791 -1.0633
 4146TIP3   OH234072   3.197   5.268   2.215 -0.0060  0.3200 -0.4002
 4146TIP3    H134073   3.183   5.184   2.260  1.1991  1.3180  2.0805
 4146TIP3    H234074   3.282   5.297   2.247  0.0144  2.0836 -1.9255
 4147TIP3   OH234075   0.686   0.246   7.046  0.0967  0.6708 -0.3264
 4147TIP3    H134076   0.607   0.245   6.992 -0.8691 -0.2231  1.0334
 4147TIP3    H234077   0.753   0.206   6.991 -0.9271 -0.4677 -0.8061
 4148TIP3   OH234078   0.308   5.249   7.866 -0.4358 -0.2855  0.1007
 4148TIP3    H134079   0.271   5.337   7.861  0.4334  0.1134  0.4768
 4148TIP3    H234080   0.260   5.199   7.800 -0.1362  0.7691 -0.9494
 4149TIP3   OH234081   3.700   1.273   7.655 -0.3705  0.4964  0.2598
 4149TIP3    H134082   3.757   1.219   7.600  0.6355  0.7768  1.0043
 4149TIP3    H234083   3.699   1.359   7.612  0.4606  0.7320  0.6924
 4150TIP3   OH234084   0.764   3.896   1.911  0.8289 -0.0788  0.2441
 4150TIP3    H134085   0.832   3.920   1.848  0.2578 -0.3739 -0.5095
 4150TIP3    H234086   0.797   3.925   1.995  0.8515  1.9427 -0.4135
 4151TIP3   OH234087   5.561   6.583   1.468 -0.4338 -0.5728 -0.1186
 4151TIP3    H134088   5.580   6.503   1.517  0.1138  0.7345  1.9422
 4151TIP3    H234089   5.647   6.616   1.442 -0.6427 -0.5275 -0.7647
 4152TIP3   OH234090   4.669   1.550   0.165  0.7642 -0.4397 -0.4827
 4152TIP3    H134091   4.761   1.576   0.170  0.1977  1.5160  0.8351
 4152TIP3    H234092   4.626   1.602   0.232 -1.2021 -1.8988 -0.5364
 4153TIP3   OH234093   0.998   1.343   7.904  0.3044 -0.3239  0.1455
 4153TIP3    H134094   0.993   1.439   7.900 -2.7228 -0.3361  0.8028
 4153TIP3    H234095   1.042   1.325   7.987 -2.1938  0.6331  1.7940
 4154TIP3   OH234096   0.989   3.852   7.783  0.6795 -0.0291 -0.2128
 4154TIP3    H134097   0.906   3.898   7.772  0.7622 -0.1249 -1.4629
 4154TIP3    H234098   0.966   3.759   7.780  0.8414 -0.0570 -0.7687
 4155TIP3   OH234099   6.693   0.760   1.085  0.4889 -0.1669 -0.2237
 4155TIP3    H134100   6.687   0.676   1.039 -1.0954 -1.3977  2.0145
 4155TIP3    H234101   6.603   0.791   1.089  0.8878  0.9763  0.1768
 4156TIP3   OH234102   1.048   2.687   7.744 -0.1878 -0.0925 -0.2621
 4156TIP3    H134103   1.033   2.764   7.690  0.5439  0.8511  0.8377
 4156TIP3    H234104   0.962   2.666   7.781 -0.2617  0.6386 -0.0027
 4157TIP3   OH234105   5.932   3.026   1.110 -0.1606  0.0744 -0.3228
 4157TIP3    H134106   5.857   2.999   1.164 -2.0454  0.6430 -2.5165
 4157TIP3    H234107   5.985   3.080   1.169 -1.2666 -0.6025  1.3931
 4158TIP3   OH234108   0.251   1.368   1.383 -0.6185 -0.0944 -0.8470
 4158TIP3    H134109   0.216   1.456   1.390 -2.3121 -0.8185  0.6944
 4158TIP3    H234110   0.174   1.313   1.362  0.2027 -1.3130 -0.7826
 4159TIP3   OH234111   2.843   4.362   8.310  0.6607  0.6678  0.6486
 4159TIP3    H134112   2.900   4.414   8.367  0.7954  1.6290 -0.3250
 4159TIP3    H234113   2.769   4.421   8.291  0.1089 -0.0121  0.6614
 4160TIP3   OH234114   0.852   0.737   8.733 -0.3721  0.5897 -0.5812
 4160TIP3    H134115   0.834   0.825   8.700 -0.7414  0.5133 -0.5826
 4160TIP3    H234116   0.792   0.681   8.684 -1.1837  0.5142  0.4617
 4161TIP3   OH234117   2.111   5.510   1.545 -0.2360  0.0639 -0.2683
 4161TIP3    H134118   2.063   5.440   1.589 -3.1634  0.1513 -2.9409
 4161TIP3    H234119   2.062   5.590   1.566  0.9224  0.7624 -0.1356
 4162TIP3   OH234120   0.709   6.664   1.636  0.2910 -0.2294 -0.0560
 4162TIP3    H134121   0.803   6.668   1.618  0.4110 -1.3350  0.2554
 4162TIP3    H234122   0.697   6.725   1.709  0.9768 -0.9179  0.6603
 4163TIP3   OH234123   4.945   0.831   1.421  0.3955  0.1821  0.6445
 4163TIP3    H134124   4.968   0.738   1.426  0.1771  0.0586 -0.3938
 4163TIP3    H234125   4.881   0.845   1.490  0.1652 -0.5240  0.5740
 4164TIP3   OH234126   0.549   0.831   0.809  0.4564 -0.1121 -0.0865
 4164TIP3    H134127   0.471   0.870   0.849  0.8760  1.1578 -0.4745
 4164TIP3    H234128   0.606   0.810   0.883  0.5581  0.7473  0.0869
 4165TIP3   OH234129   2.481   1.129   8.581  0.3762 -0.4437  0.4149
 4165TIP3    H134130   2.389   1.107   8.568  0.3632 -0.4999  0.6042
 4165TIP3    H234131   2.481   1.189   8.656  0.4504 -0.1097  0.1504
 4166TIP3   OH234132   3.499   4.588   0.989 -1.3398  0.5317  0.0365
 4166TIP3    H134133   3.474   4.504   1.028 -0.8492  1.5735  2.8478
 4166TIP3    H234134   3.566   4.565   0.925  1.3956 -1.1061  3.1694
 4167TIP3   OH234135   0.609   4.167   1.874 -0.5536  0.8638  0.1769
 4167TIP3    H134136   0.517   4.150   1.855 -0.0763 -0.1201 -1.5264
 4167TIP3    H234137   0.627   4.118   1.954 -1.2154  0.0054 -0.1897
 4168TIP3   OH234138   0.865   5.823   7.943  0.1757 -0.2082  0.1882
 4168TIP3    H134139   0.949   5.836   7.900  0.8821 -1.0259  1.2717
 4168TIP3    H234140   0.846   5.907   7.984  0.2753  0.0912 -0.3691
 4169TIP3   OH234141   1.521   6.538   8.479 -0.0303 -0.3789 -0.3604
 4169TIP3    H134142   1.478   6.452   8.486 -1.6335  0.3613 -0.6330
 4169TIP3    H234143   1.489   6.587   8.554  1.4346 -0.2232  0.1855
 4170TIP3   OH234144   4.961   4.828   0.694 -0.7409  0.0101 -0.2909
 4170TIP3    H134145   4.873   4.792   0.697 -0.7491 -0.0823 -1.3758
 4170TIP3    H234146   4.975   4.852   0.602  0.0646  0.7667  0.0088
 4171TIP3   OH234147   4.764   1.242   8.470  0.0094  0.3367  0.0828
 4171TIP3    H134148   4.675   1.270   8.489 -0.1826 -0.4829  0.4209
 4171TIP3    H234149   4.818   1.319   8.491 -0.2702 -0.1749  3.1448
 4172TIP3   OH234150   3.415   6.171   0.631  0.1422  0.0175 -0.0134
 4172TIP3    H134151   3.335   6.125   0.607  0.9207 -1.1620 -0.4718
 4172TIP3    H234152   3.427   6.236   0.562  0.5687 -1.0901 -1.0244
 4173TIP3   OH234153   1.061   4.169   8.194  0.7260  0.0039 -0.4336
 4173TIP3    H134154   1.113   4.149   8.272 -0.4212 -1.6679 -0.0249
 4173TIP3    H234155   1.111   4.132   8.121  0.8712 -0.1888 -0.2362
 4174TIP3   OH234156   6.298   0.498   0.987 -0.1400 -0.1370 -0.1356
 4174TIP3    H134157   6.374   0.504   0.930 -0.3394 -1.8617 -0.6297
 4174TIP3    H234158   6.332   0.463   1.070 -0.6428 -3.0262 -1.0515
 4175TIP3   OH234159   4.785   6.367   8.390 -0.0474  0.3757 -0.4317
 4175TIP3    H134160   4.703   6.357   8.439 -1.1685  1.7231 -1.9316
 4175TIP3    H234161   4.814   6.455   8.411 -0.8987  1.2472 -2.5819
 4176TIP3   OH234162   4.628   0.283   7.224  0.1028  0.4616 -0.3121
 4176TIP3    H134163   4.684   0.224   7.275  0.0332  0.5214 -0.1655
 4176TIP3    H234164   4.656   0.271   7.133 -0.0331  0.0652 -0.3042
 4177TIP3   OH234165   0.998   4.104   6.621 -0.5740 -0.4788 -0.2091
 4177TIP3    H134166   1.066   4.039   6.642 -0.3810 -0.0826  0.4281
 4177TIP3    H234167   1.000   4.111   6.526  0.6677 -0.0802 -0.1828
 4178TIP3   OH234168   6.583   1.102   8.261 -0.6867 -0.8042 -0.0152
 4178TIP3    H134169   6.602   1.114   8.354 -1.0510  1.5132 -0.1790
 4178TIP3    H234170   6.492   1.073   8.258 -2.1202  3.0265  0.3543
 4179TIP3   OH234171   2.146   1.739   1.510  0.8870 -0.3632  0.6915
 4179TIP3    H134172   2.124   1.660   1.460  0.5674  0.9447 -1.3337
 4179TIP3    H234173   2.179   1.706   1.594  0.4665 -2.6226  0.0264
 4180TIP3   OH234174   3.864   1.236   7.973  0.0525 -0.1829 -0.7300
 4180TIP3    H134175   3.863   1.166   8.040  0.3963 -0.5614 -1.1147
 4180TIP3    H234176   3.881   1.316   8.023 -2.2160 -0.0689 -0.0138
 4181TIP3   OH234177   5.779   6.743   7.977  0.4173 -0.5746  0.2352
 4181TIP3    H134178   5.839   6.816   7.993 -0.3487  0.1808 -0.2867
 4181TIP3    H234179   5.748   6.756   7.888 -2.1131  0.2508  1.1647
 4182TIP3   OH234180   6.504   0.999   8.810  0.0418  0.4852  0.5793
 4182TIP3    H134181   6.494   1.026   8.901  0.3373  1.4831  0.3257
 4182TIP3    H234182   6.529   0.907   8.815 -1.1295  0.1951  1.4626
 4183TIP3   OH234183   6.814   0.191   2.495 -0.1505  0.0873 -0.0340
 4183TIP3    H134184   6.878   0.241   2.544 -0.6673 -0.2185  0.9779
 4183TIP3    H234185   6.731   0.207   2.539 -0.7367  0.2442 -1.1453
 4184TIP3   OH234186   6.187   2.714   7.276  0.2120  0.0133 -0.4721
 4184TIP3    H134187   6.222   2.667   7.201  0.8177  0.5307 -0.5273
 4184TIP3    H234188   6.151   2.795   7.240 -2.3389 -1.0974 -0.5979
 4185TIP3   OH234189   5.437   2.027   2.503 -0.9007  0.3574 -0.6055
 4185TIP3    H134190   5.344   2.003   2.507 -0.2860 -2.5423 -0.9329
 4185TIP3    H234191   5.481   1.945   2.479  1.9647  1.0254  1.7544
 4186TIP3   OH234192   1.263   1.204   8.443 -1.2070  0.0584 -0.0180
 4186TIP3    H134193   1.258   1.130   8.382  0.2873  0.3960 -0.6118
 4186TIP3    H234194   1.356   1.229   8.441 -1.6488  1.8245  0.3080
 4187TIP3   OH234195   3.934   5.164   0.458  0.5144 -0.0335  0.2006
 4187TIP3    H134196   3.852   5.118   0.476  0.4979 -0.0366  0.1192
 4187TIP3    H234197   3.975   5.176   0.544  0.3213  0.1688  0.2665
 4188TIP3   OH234198   6.413   5.717   0.483  0.2580 -0.5557 -0.1330
 4188TIP3    H134199   6.367   5.719   0.567 -0.1191  0.2622 -0.3426
 4188TIP3    H234200   6.343   5.704   0.418  0.4202 -0.1922 -0.3869
 4189TIP3   OH234201   0.294   5.830   0.569  0.2851  0.1021 -0.1934
 4189TIP3    H134202   0.373   5.799   0.524  1.3316  1.3637  0.6854
 4189TIP3    H234203   0.324   5.849   0.658 -0.6902  1.8843 -0.2145
 4190TIP3   OH234204   0.321   4.682   1.067  0.2153  0.5706 -0.6893
 4190TIP3    H134205   0.263   4.758   1.070 -0.0442  0.4036 -1.2245
 4190TIP3    H234206   0.389   4.706   1.004  2.4790  1.9438  2.0927
 4191TIP3   OH234207   4.689   3.371   1.473  0.2149 -0.4256  0.0372
 4191TIP3    H134208   4.667   3.278   1.473 -0.2579 -0.3422  1.9827
 4191TIP3    H234209   4.611   3.415   1.507  1.7615  0.2741  2.9254
 4192TIP3   OH234210   1.670   6.632   8.237 -0.1440  0.3543  0.4246
 4192TIP3    H134211   1.629   6.614   8.321  0.4801 -0.3067  0.6017
 4192TIP3    H234212   1.660   6.726   8.225  0.1179  0.5252  1.4347
 4193TIP3   OH234213   4.734   2.243   0.265  0.3955  0.6013 -0.0916
 4193TIP3    H134214   4.701   2.207   0.183 -0.6974 -0.8012  0.9187
 4193TIP3    H234215   4.656   2.279   0.308  0.6276 -0.3318  1.1421
 4194TIP3   OH234216   4.360   5.604   8.101 -0.1768 -0.1340  0.1628
 4194TIP3    H134217   4.447   5.571   8.079  0.1996  1.3107 -0.6200
 4194TIP3    H234218   4.313   5.527   8.136  0.3099 -1.7611 -2.5194
 4195TIP3   OH234219   4.597   5.598   0.771  0.2486 -0.0864  0.1084
 4195TIP3    H134220   4.528   5.555   0.821  1.8858 -1.5830  1.2458
 4195TIP3    H234221   4.649   5.645   0.837  0.2298  1.1483 -0.7354
 4196TIP3   OH234222   3.654   3.491   8.109  0.0679 -0.1627  0.1098
 4196TIP3    H134223   3.568   3.520   8.141 -0.0270 -2.5106  2.2781
 4196TIP3    H234224   3.715   3.519   8.178  0.3864 -2.1467  0.6992
 4197TIP3   OH234225   6.046   2.447   7.167 -0.2165  0.1289 -0.3003
 4197TIP3    H134226   6.024   2.454   7.260  0.6342 -0.4652 -0.0386
 4197TIP3    H234227   6.097   2.526   7.148  0.5726 -0.2929  0.0305
 4198TIP3   OH234228   0.051   2.451   1.081  0.0379 -0.3123 -0.1801
 4198TIP3    H134229   0.130   2.437   1.028  1.1047  1.1755  0.9396
 4198TIP3    H234230  -0.007   2.502   1.025  0.1953 -0.6969 -0.7077
 4199TIP3   OH234231   2.741   2.525   0.201 -0.1525 -0.2679 -0.3018
 4199TIP3    H134232   2.674   2.557   0.260  0.2379 -0.1305  0.0712
 4199TIP3    H234233   2.800   2.600   0.189  1.1144 -1.0113  1.0740
 4200TIP3   OH234234   6.675   6.341   2.391 -0.2184 -0.0688 -0.2915
 4200TIP3    H134235   6.618   6.332   2.314 -0.7642  0.4831  0.0394
 4200TIP3    H234236   6.628   6.296   2.461 -0.6752  1.1156  0.1923
 4201TIP3   OH234237   5.015   5.137   2.018  0.3530 -0.2482 -0.0835
 4201TIP3    H134238   4.988   5.205   2.080 -0.5642 -0.6150 -0.0684
 4201TIP3    H234239   5.024   5.058   2.071 -0.7763 -0.6441 -0.4460
 4202TIP3   OH234240   3.032   1.281   6.256 -0.4500  0.0166 -0.2028
 4202TIP3    H134241   3.052   1.373   6.240  0.2790 -0.1505 -0.3051
 4202TIP3    H234242   3.116   1.243   6.282 -0.9930 -0.3583  1.0770
 4203TIP3   OH234243   0.286   1.078   8.021  0.3423 -0.5065 -0.4387
 4203TIP3    H134244   0.377   1.058   8.040 -0.2484 -2.2694  0.8291
 4203TIP3    H234245   0.289   1.161   7.973  2.4681  0.5562  1.3320
 4204TIP3   OH234246   0.416   0.628   1.562 -0.0495 -0.4441  0.0440
 4204TIP3    H134247   0.486   0.609   1.623  0.4757  0.4907 -0.2454
 4204TIP3    H234248   0.382   0.713   1.590 -2.0624 -1.4896  1.0756
 4205TIP3   OH234249   4.944   1.258   7.961  0.1282 -0.5101 -0.6361
 4205TIP3    H134250   4.969   1.166   7.964 -0.7176 -0.7559 -0.6668
 4205TIP3    H234251   4.863   1.262   8.012 -0.6482 -0.0626 -1.8580
 4206TIP3   OH234252   6.286   5.089   8.343  0.0507 -0.7611 -0.5393
 4206TIP3    H134253   6.294   5.017   8.405  1.8852  0.2398  0.4998
 4206TIP3    H234254   6.345   5.156   8.377 -0.8997  0.8828 -1.9575
 4207TIP3   OH234255   5.165   5.696   7.491 -0.1243 -0.3481  0.0233
 4207TIP3    H134256   5.106   5.666   7.560  0.6663 -0.4678  0.6703
 4207TIP3    H234257   5.227   5.624   7.480  0.7318  0.3148  0.3479
 4208TIP3   OH234258   3.428   5.381   7.933  0.0281 -0.3550 -0.1603
 4208TIP3    H134259   3.509   5.348   7.971 -0.8402 -0.1358  2.0565
 4208TIP3    H234260   3.435   5.476   7.942 -0.4667 -0.3339  0.0346
 4209TIP3   OH234261   4.186   0.270   5.885  0.0022 -0.1939  0.1730
 4209TIP3    H134262   4.130   0.321   5.943  0.6746 -1.0277  1.5971
 4209TIP3    H234263   4.268   0.319   5.879  0.3270 -0.6433  0.8263
 4210TIP3   OH234264   1.524   6.532   1.920 -0.1505 -0.3189  0.1844
 4210TIP3    H134265   1.565   6.515   2.004 -2.0935  1.0984  1.5120
 4210TIP3    H234266   1.595   6.560   1.863  1.3737 -2.3281  0.9919
 4211TIP3   OH234267   6.511   5.036   8.717  0.4016  0.4739 -0.5325
 4211TIP3    H134268   6.500   5.096   8.643 -0.3563  0.1776 -0.6642
 4211TIP3    H234269   6.477   4.952   8.686  1.0411  0.0793 -0.1920
 4212TIP3   OH234270   4.339   6.592   0.772  0.1306 -0.1691  0.3193
 4212TIP3    H134271   4.327   6.548   0.856  2.1095 -0.0086  0.7325
 4212TIP3    H234272   4.432   6.615   0.770  0.0461  0.1814 -1.7539
 4213TIP3   OH234273   0.174   0.687   0.692 -0.0915 -0.9713 -0.0771
 4213TIP3    H134274   0.088   0.647   0.676 -0.7361  0.3028  0.0719
 4213TIP3    H234275   0.155   0.762   0.748  0.6041  1.4156 -2.7972
 4214TIP3   OH234276   3.212   0.982   7.775  0.0993 -0.5226 -0.1882
 4214TIP3    H134277   3.156   1.046   7.729  0.5310 -0.5434 -0.7590
 4214TIP3    H234278   3.151   0.929   7.826 -0.3184  0.0207 -0.1119
 4215TIP3   OH234279   5.730   3.283   8.659  0.4682  0.1376  0.3747
 4215TIP3    H134280   5.674   3.219   8.703 -0.5978  1.3853  0.9183
 4215TIP3    H234281   5.704   3.278   8.567 -0.8411  0.9196  0.6644
 4216TIP3   OH234282   1.001   2.740   0.813 -0.3556  0.2535 -0.3986
 4216TIP3    H134283   1.080   2.726   0.761  0.1176 -2.5576  0.9290
 4216TIP3    H234284   1.008   2.831   0.842  2.5164  0.0504 -0.1560
 4217TIP3   OH234285   2.372   1.681   0.805  0.0394 -0.5245  0.4417
 4217TIP3    H134286   2.309   1.707   0.873 -0.1520 -2.1232  0.9223
 4217TIP3    H234287   2.458   1.696   0.846 -0.0732 -1.2734  0.9808
 4218TIP3   OH234288   4.405   5.796   6.233 -0.2049 -0.1895 -0.1829
 4218TIP3    H134289   4.314   5.783   6.208 -0.2586 -0.5191  0.1796
 4218TIP3    H234290   4.433   5.712   6.269  0.0195  0.1234  0.3931
 4219TIP3   OH234291   1.517   1.009   1.126 -0.0750  0.3417  0.0217
 4219TIP3    H134292   1.488   1.086   1.076 -0.8438 -0.7128 -1.2096
 4219TIP3    H234293   1.437   0.975   1.166  0.5182  1.1452  2.0221
 4220TIP3   OH234294   0.554   5.133   0.532 -0.0464 -0.2652 -0.7264
 4220TIP3    H134295   0.538   5.095   0.618  0.2326  0.4479 -0.3441
 4220TIP3    H234296   0.470   5.174   0.508  0.1852  0.5121 -0.2693
 4221TIP3   OH234297   2.316   6.200   0.439  0.2837  0.1759 -0.3898
 4221TIP3    H134298   2.279   6.288   0.444  1.4499  0.7965 -1.6924
 4221TIP3    H234299   2.372   6.193   0.516  0.3914  0.6955 -0.4163
 4222TIP3   OH234300   5.322   2.448   3.009  0.2360 -0.6741 -0.3083
 4222TIP3    H134301   5.244   2.485   2.968 -1.3926 -0.5656  2.6102
 4222TIP3    H234302   5.371   2.525   3.040 -1.1432 -0.7014  2.2458
 4223TIP3   OH234303   6.123   5.207   8.629 -0.1868  0.1187  0.8128
 4223TIP3    H134304   6.098   5.280   8.573  0.3003  0.7860  1.4426
 4223TIP3    H234305   6.065   5.135   8.604 -1.4311  1.0515  0.9405
 4224TIP3   OH234306   0.798   3.439   1.865  0.1280 -0.0965 -0.1209
 4224TIP3    H134307   0.883   3.484   1.874  1.1614 -1.6273 -1.5096
 4224TIP3    H234308   0.773   3.454   1.773  0.8943 -2.8443 -0.8830
 4225TIP3   OH234309   4.785   0.202   6.018 -0.1210  0.1904 -0.0624
 4225TIP3    H134310   4.803   0.273   5.957 -1.3872 -0.3996 -1.1798
 4225TIP3    H234311   4.730   0.141   5.969 -1.0143 -0.4241  1.6084
 4226TIP3   OH234312   0.480   3.820   8.556 -0.0346 -1.1022  0.2804
 4226TIP3    H134313   0.448   3.774   8.478  0.0791  0.9103 -1.0454
 4226TIP3    H234314   0.575   3.810   8.552 -0.1149 -2.2241  0.9911
 4227TIP3   OH234315   2.683   1.400   6.992 -0.1632  0.0555  0.0110
 4227TIP3    H134316   2.679   1.310   7.026 -0.3379  0.9012  2.4109
 4227TIP3    H234317   2.748   1.396   6.921  0.8692 -1.6986  0.9826
 4228TIP3   OH234318   4.852   2.093   8.527  0.3866  0.4695  0.0627
 4228TIP3    H134319   4.947   2.084   8.521  0.5035  1.4400  0.4334
 4228TIP3    H234320   4.836   2.187   8.518 -0.3534  0.6088  2.2929
 4229TIP3   OH234321   0.367   6.811   2.194  0.3332 -0.0139 -0.5688
 4229TIP3    H134322   0.367   6.906   2.205 -0.8973  0.2592 -2.4895
 4229TIP3    H234323   0.458   6.786   2.209  0.8285  1.5511 -0.7286
 4230TIP3   OH234324   0.994   3.184   0.250 -0.6278  0.2189 -0.6862
 4230TIP3    H134325   0.974   3.260   0.304 -0.1139  0.5217 -0.9079
 4230TIP3    H234326   0.928   3.119   0.274 -1.0911  0.7433 -0.5184
 4231TIP3   OH234327   5.101   5.562   2.099  0.0876 -0.3544 -0.1338
 4231TIP3    H134328   5.013   5.549   2.133  1.2445 -2.8704  2.3744
 4231TIP3    H234329   5.153   5.587   2.175  1.8906 -0.9620 -1.0990
 4232TIP3   OH234330   5.972   0.555   8.724 -0.0101  0.5230 -1.0336
 4232TIP3    H134331   6.038   0.509   8.672  0.0241 -2.1572  1.1478
 4232TIP3    H234332   5.908   0.488   8.745 -0.6484  1.7692  1.3095
 4233TIP3   OH234333   4.033   3.398   8.000  0.0598 -0.5567  0.4310
 4233TIP3    H134334   3.953   3.433   7.961  0.6946  0.9598  0.4426
 4233TIP3    H234335   4.103   3.450   7.962  1.0305 -1.6925  0.6231
 4234TIP3   OH234336   6.208   2.142   8.246 -0.7088 -0.2143  0.4840
 4234TIP3    H134337   6.124   2.096   8.238 -0.9144  0.0866  0.9016
 4234TIP3    H234338   6.185   2.226   8.285 -0.2326 -0.0607  0.4330
 4235TIP3   OH234339   1.342   3.957   0.062  0.0273  0.2971  0.5565
 4235TIP3    H134340   1.373   3.872   0.093  1.0666  0.3401 -0.3094
 4235TIP3    H234341   1.283   3.988   0.131  1.2110 -0.2132  1.8513
 4236TIP3   OH234342   6.640   3.326   8.161 -0.0031 -0.0082 -0.5149
 4236TIP3    H134343   6.557   3.332   8.114 -1.0635 -0.7556  1.1801
 4236TIP3    H234344   6.693   3.265   8.109 -0.2310  0.9748 -1.9557
 4237TIP3   OH234345   4.466   3.035   7.479  0.0805  0.1688 -0.4636
 4237TIP3    H134346   4.537   2.975   7.455  0.5879  1.2475 -1.8172
 4237TIP3    H234347   4.501   3.086   7.552 -0.3477 -1.1127  0.6852
 4238TIP3   OH234348   1.170   4.026   0.253  0.3241 -0.5501  0.3965
 4238TIP3    H134349   1.160   4.075   0.335  0.6587  1.3679 -0.6540
 4238TIP3    H234350   1.098   4.056   0.198  1.0372 -0.5911 -0.5869
 4239TIP3   OH234351   6.734   4.172   0.405  0.0053 -0.0400  0.3736
 4239TIP3    H134352   6.736   4.102   0.339  0.4941  0.1313  0.1942
 4239TIP3    H234353   6.725   4.127   0.488 -0.0037 -0.3002  0.2329
 4240TIP3   OH234354   1.370   0.266   7.473 -0.1724 -0.1567  0.5479
 4240TIP3    H134355   1.358   0.283   7.566  2.1197  0.8458  0.7270
 4240TIP3    H234356   1.343   0.348   7.430 -1.2054 -0.6095  0.2938
 4241TIP3   OH234357   6.062   2.301   0.367 -0.4722  0.0832  0.0397
 4241TIP3    H134358   6.102   2.247   0.300  1.0865  0.4453  0.6226
 4241TIP3    H234359   5.976   2.324   0.332 -0.6563 -1.6928 -0.7579
 4242TIP3   OH234360   2.888   6.427   7.945  0.4203  0.3351  0.1477
 4242TIP3    H134361   2.889   6.334   7.965 -1.8368  0.2974  0.3413
 4242TIP3    H234362   2.910   6.433   7.852 -0.0896 -0.4520 -0.0274
 4243TIP3   OH234363   1.750   1.055   8.514 -0.6479 -0.3214 -0.0361
 4243TIP3    H134364   1.666   1.076   8.556 -1.1423  0.8685 -1.5185
 4243TIP3    H234365   1.815   1.071   8.582 -1.3651  2.1526  0.1919
 4244TIP3   OH234366   3.547   1.949   6.321  0.1394  0.4217  0.0849
 4244TIP3    H134367   3.507   1.882   6.377 -0.3850  0.8172  0.1868
 4244TIP3    H234368   3.473   1.992   6.278  0.5526 -0.1585 -1.2486
 4245TIP3   OH234369   3.016   2.835   7.281 -0.2713  0.5160  0.1705
 4245TIP3    H134370   2.930   2.809   7.247  0.3916 -1.0180 -0.4391
 4245TIP3    H234371   3.036   2.917   7.237 -2.6259  2.4653  2.4372
 4246TIP3   OH234372   2.337   2.037   7.433 -0.1871  0.1195 -0.3553
 4246TIP3    H134373   2.410   2.049   7.372  1.1848  1.1383  1.3746
 4246TIP3    H234374   2.356   1.952   7.475 -0.6707 -0.1868 -0.7523
 4247TIP3   OH234375   4.792   0.802   7.082 -0.4402 -0.4819  0.7719
 4247TIP3    H134376   4.882   0.769   7.084 -0.2154  0.1106  0.5380
 4247TIP3    H234377   4.768   0.809   7.175  0.0536  0.1364  0.8663
 4248TIP3   OH234378   6.705   1.110   7.072 -0.1744 -0.1022 -0.1363
 4248TIP3    H134379   6.635   1.045   7.066 -1.4752  1.3302 -1.4144
 4248TIP3    H234380   6.771   1.081   7.009 -0.7282 -0.2063 -0.6727
 4249TIP3   OH234381   2.782   5.935   2.250  0.7305 -0.3836 -0.0308
 4249TIP3    H134382   2.713   5.920   2.186  2.1544 -1.7008 -1.3499
 4249TIP3    H234383   2.739   5.978   2.323 -1.6014 -1.7923 -0.4968
 4250TIP3   OH234384   5.645   5.757   8.049 -0.1167 -0.0999 -0.0331
 4250TIP3    H134385   5.689   5.718   7.973  0.2572  0.0347  0.1110
 4250TIP3    H234386   5.596   5.831   8.013 -0.2887 -0.2980 -0.2066
 4251TIP3   OH234387   5.487   4.191   7.649 -0.2542 -0.2064 -0.6190
 4251TIP3    H134388   5.478   4.230   7.736 -0.3336 -0.3276 -0.5731
 4251TIP3    H234389   5.578   4.162   7.644 -0.2567 -0.2225 -0.5664
 4252TIP3   OH234390   5.431   3.277   0.383  0.2240 -0.2953  0.2554
 4252TIP3    H134391   5.525   3.257   0.393  0.6760  1.7099  0.5140
 4252TIP3    H234392   5.419   3.356   0.435 -1.9975 -1.3786  1.5194
 4253TIP3   OH234393   0.729   5.071   8.588 -0.5610  0.9602 -0.1857
 4253TIP3    H134394   0.691   5.039   8.506  1.3230 -2.4838  0.0745
 4253TIP3    H234395   0.735   5.166   8.576 -3.0636  0.9570 -2.7574
 4254TIP3   OH234396   6.742   2.101   8.123 -0.2508  0.0870 -0.4433
 4254TIP3    H134397   6.809   2.034   8.111 -1.3584 -0.8518 -1.5614
 4254TIP3    H234398   6.732   2.140   8.036 -1.6495 -0.2670 -0.4502
 4255TIP3   OH234399   3.994   0.098   7.272  0.5075 -0.2411  0.0257
 4255TIP3    H134400   3.969   0.144   7.191  1.2634 -0.2922 -0.2464
 4255TIP3    H234401   3.998   0.006   7.247  0.2780 -0.3120  0.2446
 4256TIP3   OH234402   4.484   0.747   1.666  0.1314 -0.2615  0.5812
 4256TIP3    H134403   4.515   0.810   1.730 -0.3679  1.7893 -1.0857
 4256TIP3    H234404   4.393   0.772   1.650 -0.0127 -1.2672 -0.2899
 4257TIP3   OH234405   2.868   1.697   0.281  0.4263  0.0198  0.2147
 4257TIP3    H134406   2.786   1.692   0.232  0.1729  0.3657  0.5955
 4257TIP3    H234407   2.845   1.672   0.370  0.3335  1.9020  0.7622
 4258TIP3   OH234408   5.079   5.719   0.219  0.4597 -0.6257  0.0476
 4258TIP3    H134409   5.166   5.705   0.182  0.3074 -0.4298 -0.3816
 4258TIP3    H234410   5.090   5.699   0.312  1.2304  0.4560  0.2193
 4259TIP3   OH234411   0.932   2.247   7.656  0.3075  0.1268 -0.5207
 4259TIP3    H134412   0.951   2.322   7.601 -0.3317  1.2785  0.7797
 4259TIP3    H234413   0.951   2.276   7.745  3.5348 -2.3726 -0.1819
 4260TIP3   OH234414   1.274   3.432   7.290 -0.3778  0.0981  1.1424
 4260TIP3    H134415   1.179   3.426   7.299 -0.3782 -0.8134  0.6382
 4260TIP3    H234416   1.288   3.504   7.229 -0.7290  0.4372  1.4569
 4261TIP3   OH234417   3.412   6.393   7.441 -0.1969 -0.0550  0.3398
 4261TIP3    H134418   3.432   6.311   7.395  1.5355  0.3127  0.3929
 4261TIP3    H234419   3.462   6.460   7.396 -0.5365  0.7602  1.1328
 4262TIP3   OH234420   5.425   3.188   8.549  0.1757 -0.0768  0.2666
 4262TIP3    H134421   5.513   3.169   8.516 -0.5107 -0.1753 -1.6175
 4262TIP3    H234422   5.426   3.281   8.568  0.1850  0.3412 -1.5672
 4263TIP3   OH234423   2.194   2.944   8.432  0.2371  0.5261 -0.7118
 4263TIP3    H134424   2.104   2.922   8.407  0.0408 -0.1121  0.4633
 4263TIP3    H234425   2.185   3.002   8.507  0.7220 -2.3994  1.7950
 4264TIP3   OH234426   1.512   2.706   7.595  0.4851  0.3509 -0.2131
 4264TIP3    H134427   1.499   2.643   7.666  2.3450 -1.0948 -1.0534
 4264TIP3    H234428   1.425   2.719   7.558 -0.3453  0.3082  1.6188
 4265TIP3   OH234429   2.859   2.349   1.424 -0.2957  0.0451  0.1485
 4265TIP3    H134430   2.930   2.408   1.450 -0.8713  1.1183 -0.6462
 4265TIP3    H234431   2.867   2.275   1.484 -0.6142  1.6905  2.3633
 4266TIP3   OH234432   5.201   3.450   1.762 -0.5771  0.2800 -0.1847
 4266TIP3    H134433   5.161   3.387   1.822  2.2147 -0.6046  0.9193
 4266TIP3    H234434   5.261   3.397   1.709 -0.4175  1.5745 -1.3422
 4267TIP3   OH234435   3.899   2.684   1.496  0.3559 -0.1887  0.0111
 4267TIP3    H134436   3.910   2.649   1.407  0.9068  2.0932 -0.8785
 4267TIP3    H234437   3.854   2.767   1.484 -0.7655 -0.4323  2.0305
 4268TIP3   OH234438   3.512   1.163   8.620  0.3506 -0.0975 -0.0803
 4268TIP3    H134439   3.593   1.195   8.582 -0.1951  0.7278 -0.5855
 4268TIP3    H234440   3.462   1.243   8.640 -0.5753 -0.6048 -0.3159
 4269TIP3   OH234441   6.282   2.359   7.455  0.1307  0.1167  0.3705
 4269TIP3    H134442   6.328   2.442   7.447  0.5669 -0.0972  0.5888
 4269TIP3    H234443   6.250   2.358   7.545 -0.5454  0.3903  0.1298
 4270TIP3   OH234444   5.257   6.626   7.421  0.0975  0.2515 -0.4843
 4270TIP3    H134445   5.184   6.571   7.449 -0.0364  0.2661 -0.8031
 4270TIP3    H234446   5.297   6.578   7.348 -0.6625  1.0608 -1.4620
 4271TIP3   OH234447   1.913   4.887   7.129 -0.4075 -0.2209 -0.0174
 4271TIP3    H134448   1.976   4.819   7.102 -0.2676  0.2304 -0.8455
 4271TIP3    H234449   1.839   4.875   7.070 -0.9192 -0.4570  0.6628
 4272TIP3   OH234450   6.476   6.437   6.327  0.1406  0.3986 -0.6241
 4272TIP3    H134451   6.420   6.360   6.330  1.0811 -0.2823 -0.1565
 4272TIP3    H234452   6.435   6.500   6.387 -0.6275  0.2732 -1.0116
 4273TIP3   OH234453   3.428   1.610   6.708  0.4879  0.5761 -0.4317
 4273TIP3    H134454   3.431   1.539   6.771 -0.8937  1.1892  0.3599
 4273TIP3    H234455   3.490   1.675   6.742  0.8154  0.2954 -0.4869
 4274TIP3   OH234456   1.973   3.136   8.111 -0.0838 -0.1524  0.2217
 4274TIP3    H134457   2.067   3.142   8.092 -0.3058  0.8276 -0.7042
 4274TIP3    H234458   1.968   3.146   8.206  0.7308  0.3129  0.2346
 4275TIP3   OH234459   4.632   0.909   1.839  0.0115 -0.3940  0.1654
 4275TIP3    H134460   4.578   0.944   1.910  0.0126 -0.3846  0.1614
 4275TIP3    H234461   4.710   0.874   1.883  1.4655  2.3085 -0.0568
 4276TIP3   OH234462   5.762   2.532   1.160  0.2556  0.4852  0.3005
 4276TIP3    H134463   5.718   2.503   1.080  0.2603  0.8762  0.1533
 4276TIP3    H234464   5.855   2.513   1.144  0.2970  0.8658  0.0758
 4277TIP3   OH234465   2.921   4.138   2.555  0.0580 -0.4153 -0.2028
 4277TIP3    H134466   2.925   4.067   2.619  1.1275 -0.7439 -0.6153
 4277TIP3    H234467   2.963   4.212   2.598 -2.8853  0.7014  1.0480
 4278TIP3   OH234468   2.712   6.476   1.672 -0.9790 -0.0507  0.4660
 4278TIP3    H134469   2.708   6.395   1.722 -2.5673 -0.0156  0.4512
 4278TIP3    H234470   2.659   6.538   1.722  0.2610  1.0217  0.5108
 4279TIP3   OH234471   4.791   4.505   8.169 -0.8130 -0.3237 -0.4434
 4279TIP3    H134472   4.799   4.487   8.263  1.3109  0.9015 -0.3145
 4279TIP3    H234473   4.725   4.443   8.138 -0.6641 -1.6135  1.6323
 4280TIP3   OH234474   3.209   5.982   0.659 -0.2472 -1.3318  0.3632
 4280TIP3    H134475   3.246   5.907   0.613 -0.3541 -0.2651 -1.5529
 4280TIP3    H234476   3.277   6.009   0.720  0.5065 -1.8744 -0.2268
 4281TIP3   OH234477   0.100   5.666   8.209  0.0865 -0.1690 -0.4281
 4281TIP3    H134478   0.118   5.577   8.240 -0.2269 -0.3722 -0.8210
 4281TIP3    H234479   0.093   5.718   8.288  2.6184 -0.0298 -0.2217
 4282TIP3   OH234480   6.302   0.573   7.118  0.1166  0.1206 -0.0678
 4282TIP3    H134481   6.239   0.572   7.045  1.3443  0.0063 -1.1690
 4282TIP3    H234482   6.388   0.579   7.075  1.2583 -4.1429  1.1036
 4283TIP3   OH234483   3.249   4.702   7.738  0.0844  0.5702  0.2327
 4283TIP3    H134484   3.241   4.762   7.663  0.6578 -0.6559 -0.8466
 4283TIP3    H234485   3.236   4.758   7.815  0.3344  2.0299 -0.7467
 4284TIP3   OH234486   4.048   1.500   7.801  0.5071  0.0295  0.2404
 4284TIP3    H134487   4.054   1.593   7.826  0.2768  0.0026  0.3965
 4284TIP3    H234488   4.107   1.492   7.726 -0.6386  0.6318 -0.7657
 4285TIP3   OH234489   3.322   6.274   8.811 -0.7790  0.3707 -0.6475
 4285TIP3    H134490   3.294   6.188   8.840 -0.4538  0.9040  1.4507
 4285TIP3    H234491   3.272   6.335   8.866  1.1754  1.4078  0.0808
 4286TIP3   OH234492   1.368   4.035   1.317 -0.7480  0.0044 -0.1410
 4286TIP3    H134493   1.395   3.954   1.361  1.7361  1.5607  1.4485
 4286TIP3    H234494   1.296   4.068   1.371  0.4949  0.5227  1.2603
 4287TIP3   OH234495   0.326   5.744   8.759 -0.1533  0.3129 -0.1672
 4287TIP3    H134496   0.263   5.785   8.699 -1.1366 -1.9789 -0.8146
 4287TIP3    H234497   0.371   5.679   8.706  0.8686  0.0581  0.9606
 4288TIP3   OH234498   6.576   3.359   0.303  0.1659  0.7500  0.2722
 4288TIP3    H134499   6.645   3.336   0.241 -0.9695  1.7459 -1.4117
 4288TIP3    H234500   6.538   3.275   0.329 -0.9768  0.3618 -2.3566
 4289TIP3   OH234501   4.102   5.758   8.681 -0.3614  0.3521  0.1292
 4289TIP3    H134502   4.097   5.788   8.590  1.0539  0.0363 -0.0876
 4289TIP3    H234503   4.093   5.663   8.675  0.4122  0.2606  0.2181
 4290TIP3   OH234504   1.933   5.316   7.813 -0.2571  0.2236 -0.2628
 4290TIP3    H134505   1.874   5.387   7.789 -0.0758  0.1021 -1.1061
 4290TIP3    H234506   1.897   5.239   7.769 -0.0695 -0.0711  0.0914
 4291TIP3   OH234507   6.208   2.609   1.862 -0.4592 -0.5030  0.2985
 4291TIP3    H134508   6.117   2.580   1.853 -0.2126 -1.0722 -0.4913
 4291TIP3    H234509   6.223   2.611   1.957 -1.0984 -1.0405  0.4223
 4292TIP3   OH234510   6.594   5.259   1.171  0.0996 -0.1001 -0.2475
 4292TIP3    H134511   6.648   5.318   1.119  0.4404  0.0791  0.3070
 4292TIP3    H234512   6.568   5.190   1.110 -1.9712  1.6531 -1.4488
 4293TIP3   OH234513   4.822   4.182   1.183 -0.1046 -0.6845 -0.1614
 4293TIP3    H134514   4.831   4.262   1.235 -0.7399 -0.8789  0.2482
 4293TIP3    H234515   4.820   4.212   1.092 -0.7889 -0.1962  0.0110
 4294TIP3   OH234516   2.198   4.711   6.299 -0.7617 -0.0092 -0.5861
 4294TIP3    H134517   2.139   4.713   6.374  2.0521 -1.6262  1.9267
 4294TIP3    H234518   2.187   4.623   6.261  1.5059 -1.3142  1.4407
 4295TIP3   OH234519   3.009   3.156   8.694  0.3182  0.1642  0.2420
 4295TIP3    H134520   3.064   3.187   8.623  0.8626  0.0176  0.5966
 4295TIP3    H234521   3.064   3.094   8.742  0.6510  1.7153  1.9478
 4296TIP3   OH234522   1.411   2.790   2.241 -0.2868 -0.6008 -0.1320
 4296TIP3    H134523   1.405   2.741   2.323 -1.2737 -0.0802  0.1247
 4296TIP3    H234524   1.418   2.722   2.174 -1.3652 -1.1123  0.2463
 4297TIP3   OH234525   0.885   4.399   2.159 -0.2378 -0.2116 -0.2743
 4297TIP3    H134526   0.887   4.347   2.239  2.7014 -1.4724 -1.0158
 4297TIP3    H234527   0.970   4.442   2.156 -0.9018  1.1196 -1.9304
 4298TIP3   OH234528   4.173   2.532   7.375  0.0635 -0.1818  0.1207
 4298TIP3    H134529   4.227   2.488   7.308 -1.8203 -1.7843 -0.4544
 4298TIP3    H234530   4.222   2.520   7.456  1.6167  0.3691 -0.6910
 4299TIP3   OH234531   5.277   1.701   1.087 -0.5956 -0.0823 -0.3858
 4299TIP3    H134532   5.258   1.790   1.059 -0.7065 -0.2866 -0.9820
 4299TIP3    H234533   5.253   1.699   1.180 -1.7265  0.1788 -0.6546
 4300TIP3   OH234534   4.650   0.966   8.401 -0.2216 -0.8446 -0.4141
 4300TIP3    H134535   4.715   1.012   8.455 -0.1763 -0.7415 -0.5570
 4300TIP3    H234536   4.630   0.887   8.451 -0.4291 -0.5838 -0.0838
 4301TIP3   OH234537   4.778   2.354   8.492  0.1792  0.1541  0.4049
 4301TIP3    H134538   4.690   2.380   8.465 -0.0128 -0.9016 -0.0370
 4301TIP3    H234539   4.833   2.431   8.472 -0.4113  0.3444 -0.5682
 4302TIP3   OH234540   2.163   1.949   1.163 -0.3711  0.0435 -0.2912
 4302TIP3    H134541   2.242   1.929   1.213 -0.2055  2.0169  0.3146
 4302TIP3    H234542   2.120   2.017   1.213 -1.9578 -0.2939 -1.1478
 4303TIP3   OH234543   2.035   0.858   0.363 -0.1160  0.1407  0.0973
 4303TIP3    H134544   1.970   0.788   0.349 -0.3150  0.1511  0.9556
 4303TIP3    H234545   2.024   0.883   0.454 -0.4122  1.6864 -0.3471
 4304TIP3   OH234546   3.622   5.951   1.816 -0.1289 -0.1505 -0.0481
 4304TIP3    H134547   3.640   5.905   1.898  0.8676 -2.0714 -1.2875
 4304TIP3    H234548   3.533   5.923   1.793 -0.0158 -0.4370 -0.1414
 4305TIP3   OH234549   4.857   2.056   8.225 -0.3960 -0.1809 -0.3088
 4305TIP3    H134550   4.856   2.077   8.319 -0.4748 -0.6755 -0.1942
 4305TIP3    H234551   4.768   2.027   8.207  0.0428 -1.7002 -0.1515
 4306TIP3   OH234552   5.154   5.530   0.433  0.0846 -0.8628  0.0590
 4306TIP3    H134553   5.186   5.473   0.363  1.4193  0.1440 -0.1822
 4306TIP3    H234554   5.206   5.504   0.510  2.2291  1.3437 -0.5269
 4307TIP3   OH234555   2.855   1.773   7.751 -0.0871 -0.3005 -0.2474
 4307TIP3    H134556   2.898   1.819   7.822 -0.6787  0.7503 -0.5532
 4307TIP3    H234557   2.776   1.735   7.790 -0.1056 -0.2246 -0.2120
 4308TIP3   OH234558   3.012   0.406   8.066  0.0467 -0.1330  0.0391
 4308TIP3    H134559   2.955   0.473   8.101 -0.8553  0.2658 -2.0259
 4308TIP3    H234560   2.968   0.323   8.087  0.7804 -0.0996  1.9165
 4309TIP3   OH234561   5.909   4.199   0.014  0.3912  0.8611  0.1824
 4309TIP3    H134562   5.994   4.216  -0.027  0.0997  1.3696 -0.2328
 4309TIP3    H234563   5.898   4.273   0.075  0.7327  0.2150  1.0477
 4310TIP3   OH234564   2.946   4.202   8.745  0.0557  0.5248 -0.6925
 4310TIP3    H134565   2.895   4.148   8.806  0.0499  0.1826 -0.9961
 4310TIP3    H234566   2.895   4.282   8.736  1.0212  1.4298  1.2907
 4311TIP3   OH234567   1.839   3.481   8.382  0.0211  0.4066 -0.5306
 4311TIP3    H134568   1.796   3.562   8.354  0.5024  0.8813  0.0892
 4311TIP3    H234569   1.769   3.416   8.382 -0.7213  1.1710  0.4652
 4312TIP3   OH234570   2.847   5.024   1.609 -0.2216  0.5726  0.0900
 4312TIP3    H134571   2.781   5.083   1.575 -0.5302  1.1258  1.5759
 4312TIP3    H234572   2.908   5.011   1.536 -2.0211 -0.0816 -1.3609
 4313TIP3   OH234573   0.502   2.544   8.256 -0.1085 -0.0015 -0.6215
 4313TIP3    H134574   0.553   2.612   8.300  0.9740 -1.9418  1.3096
 4313TIP3    H234575   0.418   2.543   8.302 -0.1941  0.0919 -0.7698
 4314TIP3   OH234576   0.836   1.724   1.413 -0.5514  0.3742 -0.6004
 4314TIP3    H134577   0.779   1.693   1.483 -0.6213  1.5085 -0.1415
 4314TIP3    H234578   0.924   1.720   1.449 -0.7535  3.0329  0.4093
 4315TIP3   OH234579   3.821   1.094   7.501 -0.1895  0.2300  0.5573
 4315TIP3    H134580   3.870   1.151   7.442 -0.1690  1.6983  1.9456
 4315TIP3    H234581   3.747   1.063   7.449 -0.6600  2.1792 -0.0031
 4316TIP3   OH234582   0.936   2.010   6.843  0.3839  0.4451 -0.0362
 4316TIP3    H134583   0.996   1.976   6.777  0.0375  0.0854 -0.1698
 4316TIP3    H234584   0.954   2.104   6.846  0.1506  0.5292 -0.9061
 4317TIP3   OH234585   5.248   0.911   7.540 -0.2657  0.1371 -0.6647
 4317TIP3    H134586   5.301   0.839   7.576  0.0880  0.6145 -0.2172
 4317TIP3    H234587   5.186   0.931   7.610  2.1827  2.9303  0.9434
 4318TIP3   OH234588   3.808   4.233   2.651  1.1932  0.4364 -0.6039
 4318TIP3    H134589   3.827   4.161   2.591  1.8706 -0.1957  0.3327
 4318TIP3    H234590   3.718   4.259   2.630  0.1513 -2.0561  0.3498
 4319TIP3   OH234591   4.014   5.415   1.757  0.3577 -0.5301  0.1684
 4319TIP3    H134592   4.059   5.400   1.841  1.1954 -0.5949 -0.2813
 4319TIP3    H234593   3.947   5.348   1.754 -0.7954  0.4903  1.5443
 4320TIP3   OH234594   2.269   4.733   7.298 -0.4084  0.1917 -0.0694
 4320TIP3    H134595   2.273   4.749   7.393 -2.3823 -1.7107  0.4130
 4320TIP3    H234596   2.349   4.684   7.279  1.1063  2.3931  0.0995
 4321TIP3   OH234597   3.286   6.131   2.164  0.1971 -0.5080 -0.4821
 4321TIP3    H134598   3.273   6.110   2.257 -0.8372  0.7348 -0.3135
 4321TIP3    H234599   3.330   6.055   2.128  1.0945 -0.8136  1.1441
 4322TIP3   OH234600   5.547   4.049   0.719 -0.2228 -0.9492 -0.0418
 4322TIP3    H134601   5.483   3.985   0.689 -2.3604  0.5504  1.1169
 4322TIP3    H234602   5.531   4.127   0.665 -0.0459 -0.2309  0.9115
 4323TIP3   OH234603   2.983   4.879   6.734 -0.0462 -0.0237  0.5880
 4323TIP3    H134604   3.063   4.893   6.785 -0.6507 -1.3632  1.9847
 4323TIP3    H234605   2.956   4.966   6.706  1.4950  0.5238  0.7039
 4324TIP3   OH234606   3.436   6.185   1.826 -0.2690  0.0344 -0.4357
 4324TIP3    H134607   3.469   6.189   1.916  0.1712  0.6064 -0.6155
 4324TIP3    H234608   3.409   6.094   1.814 -1.3447  0.1872  0.6397
 4325TIP3   OH234609   0.697   3.078   0.391  0.0566  0.2572 -0.7191
 4325TIP3    H134610   0.622   3.066   0.449 -0.4632  1.6755 -1.0475
 4325TIP3    H234611   0.677   3.021   0.316  0.1377 -0.6403 -0.0827
 4326TIP3   OH234612   5.685   2.226   7.304  0.8247  0.4238  0.4041
 4326TIP3    H134613   5.645   2.301   7.259  0.7853  0.7952  1.0483
 4326TIP3    H234614   5.778   2.234   7.284  0.5910 -0.5415 -1.2425
 4327TIP3   OH234615   2.559   2.066   7.242  0.7349  0.5644 -0.5301
 4327TIP3    H134616   2.631   2.054   7.303  0.2444 -0.6935 -0.1634
 4327TIP3    H234617   2.597   2.116   7.169  2.0623 -0.3678 -0.5095
 4328TIP3   OH234618   1.957   5.943   7.645 -0.4414  0.0129  0.0477
 4328TIP3    H134619   1.949   5.901   7.559 -2.6696  1.4626 -0.5581
 4328TIP3    H234620   1.957   5.870   7.707 -1.0448 -1.0103 -1.0906
 4329TIP3   OH234621   1.168   2.242   0.269  0.4981  0.6265 -0.3902
 4329TIP3    H134622   1.242   2.270   0.215  0.0236 -0.8342 -1.8825
 4329TIP3    H234623   1.207   2.219   0.353  1.5510  1.1209 -0.7221
 4330TIP3   OH234624   5.878   2.324   7.720  0.2027 -0.0754 -0.0498
 4330TIP3    H134625   5.850   2.397   7.666  0.0701 -0.2497 -0.2155
 4330TIP3    H234626   5.813   2.318   7.790 -0.8839 -1.2542 -1.1149
 4331TIP3   OH234627   0.343   3.254   0.231  0.3634 -0.3130  0.4447
 4331TIP3    H134628   0.323   3.167   0.194  0.2226 -0.7324  1.4607
 4331TIP3    H234629   0.434   3.270   0.206  0.5310 -0.9522  0.6051
 4332TIP3   OH234630   0.804   5.774   1.237  0.1815  0.0382 -0.2386
 4332TIP3    H134631   0.784   5.857   1.282 -1.4832 -1.2293  1.4956
 4332TIP3    H234632   0.719   5.738   1.214  0.8298 -1.5925 -0.1862
 4333TIP3   OH234633   0.638   6.410   7.456  0.0648  0.0772 -0.4396
 4333TIP3    H134634   0.682   6.339   7.410 -2.0145 -1.1297 -0.6948
 4333TIP3    H234635   0.573   6.367   7.511 -1.1747  1.7559 -0.5014
 4334TIP3   OH234636   3.593   4.279   2.450  0.4086  0.0951  0.1200
 4334TIP3    H134637   3.504   4.257   2.479  0.6114 -1.3701 -0.2898
 4334TIP3    H234638   3.600   4.373   2.465 -0.9346  0.1013  0.9052
 4335TIP3   OH234639   2.315   5.890   0.957  0.4201 -0.8209  0.2215
 4335TIP3    H134640   2.243   5.930   1.006 -0.0712 -1.6274  0.1775
 4335TIP3    H234641   2.282   5.883   0.868  1.0619  0.0220 -0.0962
 4336TIP3   OH234642   4.864   1.059   8.748  0.1435  0.4967  0.0736
 4336TIP3    H134643   4.943   1.111   8.756  1.1445 -0.2906 -3.1300
 4336TIP3    H234644   4.810   1.106   8.684  0.4843 -1.5372 -1.8536
 4337TIP3   OH234645   4.917   2.796   8.605  0.2764  0.4800  0.6670
 4337TIP3    H134646   4.957   2.769   8.688  3.3893 -1.3663 -1.2303
 4337TIP3    H234647   4.949   2.885   8.591  2.5169 -0.3387  0.0469
 4338TIP3   OH234648   1.615   1.340   8.676  0.3823  0.6055 -0.1731
 4338TIP3    H134649   1.709   1.325   8.684  0.1799  0.0176  1.7079
 4338TIP3    H234650   1.589   1.376   8.761 -1.4161 -1.2142  0.1445
 4339TIP3   OH234651   2.231   4.221   0.662 -0.5619  0.0387 -0.2244
 4339TIP3    H134652   2.224   4.287   0.732  1.8903 -1.4197  1.5778
 4339TIP3    H234653   2.318   4.236   0.625 -1.3497 -0.0198 -2.2145
 4340TIP3   OH234654   4.594   1.264   1.756 -0.2410 -0.1253 -0.7068
 4340TIP3    H134655   4.562   1.330   1.694  0.6783 -0.4389 -1.5458
 4340TIP3    H234656   4.663   1.309   1.806 -0.1822 -0.2100 -0.7108
 4341TIP3   OH234657   1.341   2.169   0.470  0.0496 -0.2000 -0.4868
 4341TIP3    H134658   1.400   2.239   0.443  2.0857 -2.2179 -1.6840
 4341TIP3    H234659   1.328   2.183   0.564 -0.7336  2.4808 -0.9137
 4342TIP3   OH234660   6.819   3.538   1.174 -0.4633  0.4879 -0.1391
 4342TIP3    H134661   6.906   3.544   1.135 -0.9016 -0.0540 -1.2686
 4342TIP3    H234662   6.804   3.444   1.184 -1.7731  0.4228 -2.0671
 4343TIP3   OH234663   5.126   4.217   0.437 -0.0527  0.2356 -0.4222
 4343TIP3    H134664   5.144   4.175   0.353  1.5211  1.1470 -0.5884
 4343TIP3    H234665   5.119   4.144   0.499 -0.2234 -0.3940 -1.1617
 4344TIP3   OH234666   3.273   1.656   8.224 -0.4592 -0.0264  0.1988
 4344TIP3    H134667   3.324   1.706   8.287 -0.0003 -0.8439  0.4991
 4344TIP3    H234668   3.217   1.599   8.278 -0.9885  0.1725 -0.1316
 4345TIP3   OH234669   1.752   0.045   1.775 -0.6246 -0.4205 -0.5669
 4345TIP3    H134670   1.827   0.089   1.735  0.6365 -2.7303 -0.9340
 4345TIP3    H234671   1.676   0.082   1.731  0.4119  0.7219 -1.4629
 4346TIP3   OH234672   1.732   2.837   7.717 -0.0258  0.3834  0.1412
 4346TIP3    H134673   1.655   2.807   7.670 -1.1043 -0.8225  2.4884
 4346TIP3    H234674   1.786   2.759   7.728  0.7875  0.8950 -0.1298
 4347TIP3   OH234675   2.412   0.681   8.487 -0.5847  0.6556  0.6463
 4347TIP3    H134676   2.449   0.593   8.475 -0.9367  0.3573  1.6657
 4347TIP3    H234677   2.420   0.722   8.400  1.0991  0.2150  0.5474
 4348TIP3   OH234678   3.247   0.285   8.116 -0.6022  0.6755  0.1046
 4348TIP3    H134679   3.247   0.269   8.021 -0.8370 -1.8531  0.4598
 4348TIP3    H234680   3.166   0.332   8.133 -0.0619  2.1049 -1.0436
 4349TIP3   OH234681   2.413   0.119   7.974  0.5568  0.4846  0.2696
 4349TIP3    H134682   2.325   0.126   8.012  0.1412  0.0456 -0.5517
 4349TIP3    H234683   2.450   0.206   7.983  0.4994  0.3808  1.6940
 4350TIP3   OH234684   0.297   5.950   2.305 -0.3435  0.4420 -0.3980
 4350TIP3    H134685   0.377   5.974   2.259 -0.1364 -0.7409 -0.6943
 4350TIP3    H234686   0.246   5.901   2.241  0.2364 -1.7917  0.7535
 4351TIP3   OH234687   4.680   4.342   1.952 -0.3355 -0.3754 -0.8242
 4351TIP3    H134688   4.696   4.357   2.044 -0.6588 -1.1924 -0.6170
 4351TIP3    H234689   4.693   4.427   1.910 -3.3887  0.8761  0.4109
 4352TIP3   OH234690   0.715   3.110   7.226  0.4667  0.1207  0.0133
 4352TIP3    H134691   0.773   3.034   7.239  0.6327  0.3333  0.5368
 4352TIP3    H234692   0.702   3.113   7.131  2.3380  0.8089 -0.2784
 4353TIP3   OH234693   5.647   6.089   7.730  0.3354 -0.1519  0.4508
 4353TIP3    H134694   5.627   6.165   7.675  1.5513  0.7637  1.2239
 4353TIP3    H234695   5.625   6.014   7.676 -0.3337  0.7340 -0.5618
 4354TIP3   OH234696   5.982   3.073   8.508 -0.2968  0.4188 -0.0776
 4354TIP3    H134697   6.033   2.996   8.483 -0.1585  0.5858 -0.3149
 4354TIP3    H234698   5.910   3.038   8.560  0.3660  0.2347  0.7403
 4355TIP3   OH234699   0.385   1.523   2.185  0.5074 -0.1774  0.6733
 4355TIP3    H134700   0.465   1.518   2.238  1.0258  3.3478  0.4324
 4355TIP3    H234701   0.331   1.589   2.227 -0.5727  0.2718 -1.2819
 4356TIP3   OH234702   2.120   1.468   0.140  0.1990  0.1739 -0.6465
 4356TIP3    H134703   2.167   1.542   0.101 -1.5171  0.8002 -1.6764
 4356TIP3    H234704   2.050   1.509   0.191  0.0356 -0.7297 -0.1344
 4357TIP3   OH234705   5.662   5.138   8.566 -0.3832  0.3150 -0.2074
 4357TIP3    H134706   5.693   5.049   8.582 -0.9015  0.0841 -0.4528
 4357TIP3    H234707   5.651   5.143   8.471 -0.8295  0.4766 -0.1504
 4358TIP3   OH234708   5.058   4.125   7.458  0.2960 -0.3876  0.1418
 4358TIP3    H134709   5.123   4.145   7.391  1.2491 -1.4177  0.7326
 4358TIP3    H234710   5.052   4.030   7.459 -0.0111 -0.3754  1.2395
 4359TIP3   OH234711   2.056   3.596   6.984 -0.1464 -0.5042 -0.5798
 4359TIP3    H134712   1.990   3.550   6.932 -1.2090  0.2956  0.0255
 4359TIP3    H234713   2.056   3.685   6.949 -0.7754  0.0079  0.6731
 4360TIP3   OH234714   4.318   3.081   0.048  0.1830 -0.6389 -0.2843
 4360TIP3    H134715   4.298   3.037   0.131  0.6500 -1.0298 -0.3730
 4360TIP3    H234716   4.342   3.010  -0.011 -2.4964 -0.6287 -1.4931
 4361TIP3   OH234717   4.515   3.007   8.046  0.1293 -0.0064  0.1288
 4361TIP3    H134718   4.455   2.951   8.096  0.1731 -2.0457 -1.9376
 4361TIP3    H234719   4.509   3.093   8.089 -2.3877 -0.7553  1.4868
 4362TIP3   OH234720   5.799   0.880   1.237  0.0643 -0.4993 -0.7467
 4362TIP3    H134721   5.789   0.972   1.261  1.7516  0.0347 -1.8471
 4362TIP3    H234722   5.817   0.882   1.143 -1.8840 -2.1407 -1.2081
 4363TIP3   OH234723   6.627   2.620   0.535  0.1714 -0.1202  0.0435
 4363TIP3    H134724   6.601   2.558   0.603 -0.6594  0.4227  0.2337
 4363TIP3    H234725   6.559   2.687   0.536  0.2762  0.0283 -1.1588
 4364TIP3   OH234726   0.696   4.902   8.797 -0.1826 -0.1919 -0.1497
 4364TIP3    H134727   0.738   4.828   8.754 -0.4800 -0.5829  0.2289
 4364TIP3    H234728   0.667   4.958   8.724 -0.5452 -0.7713 -0.4632
 4365TIP3   OH234729   0.175   4.915   1.036  0.1008  0.4863  0.1027
 4365TIP3    H134730   0.246   4.968   1.073 -0.6783  1.6757 -0.0412
 4365TIP3    H234731   0.138   4.970   0.967  0.2946 -0.9319 -1.1691
 4366TIP3   OH234732   5.854   1.160   1.211 -0.1670  0.4628 -0.7907
 4366TIP3    H134733   5.945   1.154   1.239 -0.4481  1.2894  0.3767
 4366TIP3    H234734   5.813   1.219   1.274 -1.3339  0.7317 -1.7541
 4367TIP3   OH234735   6.447   5.022   6.907 -0.2506 -0.0418  0.1232
 4367TIP3    H134736   6.386   5.042   6.979  1.0779  0.7262  1.0649
 4367TIP3    H234737   6.457   5.104   6.860 -1.1078 -0.5371 -1.0042
 4368TIP3   OH234738   1.765   5.148   8.487  0.7185  0.2100 -0.3322
 4368TIP3    H134739   1.797   5.176   8.573 -1.6423  0.2466  0.5929
 4368TIP3    H234740   1.829   5.083   8.458  0.2870 -1.7542  2.6416
 4369TIP3   OH234741   6.350   4.908   0.121  0.0902  0.3702 -0.2551
 4369TIP3    H134742   6.395   4.983   0.083  1.2727  0.2662  0.8528
 4369TIP3    H234743   6.309   4.942   0.201  2.2000 -0.4644  1.2906
 4370TIP3   OH234744   3.835   5.426   0.316  0.0458  0.4601 -0.1788
 4370TIP3    H134745   3.830   5.369   0.393 -0.0750 -1.1212 -1.3137
 4370TIP3    H234746   3.877   5.373   0.249 -0.3752  1.6036 -1.3960
 4371TIP3   OH234747   4.331   5.836   0.728  0.7550  0.1151 -0.8255
 4371TIP3    H134748   4.294   5.749   0.712  0.1903  0.2987 -0.5329
 4371TIP3    H234749   4.413   5.837   0.678  2.3542 -1.6720  1.5912
 4372TIP3   OH234750   4.277   1.633   7.129 -0.0534 -0.1711  0.5312
 4372TIP3    H134751   4.280   1.559   7.189 -1.7325 -1.9058 -1.3338
 4372TIP3    H234752   4.349   1.617   7.068  0.5913  0.6450  1.0688
 4373TIP3   OH234753   1.182   2.652   7.166 -0.6414 -0.3638  0.0805
 4373TIP3    H134754   1.176   2.560   7.139 -0.5478 -0.5513  0.6853
 4373TIP3    H234755   1.269   2.680   7.138 -1.6900  0.3915 -2.6777
 4374TIP3   OH234756   4.472   3.688   7.185 -0.1351  0.1473 -0.0782
 4374TIP3    H134757   4.494   3.777   7.211 -1.0302 -0.1355  1.7576
 4374TIP3    H234758   4.383   3.694   7.152 -0.0733 -0.0180 -0.2807
 4375TIP3   OH234759   0.278   2.597   8.436 -0.0700  0.4880 -0.1755
 4375TIP3    H134760   0.238   2.642   8.361 -1.2584  1.9675  1.2548
 4375TIP3    H234761   0.339   2.661   8.473 -0.3539  0.2460  0.7624
 4376TIP3   OH234762   0.599   4.300   0.997  0.3148 -0.1412 -0.1622
 4376TIP3    H134763   0.654   4.248   0.939  1.2160  0.3236  0.2615
 4376TIP3    H234764   0.660   4.350   1.051 -0.4957  1.9653 -1.0818
 4377TIP3   OH234765   4.683   6.759   0.537 -0.4693  0.2996  0.0794
 4377TIP3    H134766   4.636   6.835   0.502  0.5100  1.3246  0.9226
 4377TIP3    H234767   4.767   6.794   0.566  0.1851 -1.2005  0.0845
 4378TIP3   OH234768   4.122   6.795   0.725  0.3848 -0.0925  0.2146
 4378TIP3    H134769   4.195   6.733   0.728  0.0093 -0.7243 -1.9481
 4378TIP3    H234770   4.121   6.826   0.635 -0.8771  1.3300  0.6873
 4379TIP3   OH234771   2.360   3.867   0.668 -0.1761  0.2724  0.0354
 4379TIP3    H134772   2.313   3.904   0.593 -0.8561  0.4065  0.5122
 4379TIP3    H234773   2.325   3.915   0.743 -0.3896 -0.7001  0.5677
 4380TIP3   OH234774   1.476   3.799   1.420  0.5629  0.1569 -0.3930
 4380TIP3    H134775   1.536   3.728   1.445 -0.9329 -0.6838  0.9908
 4380TIP3    H234776   1.409   3.755   1.367 -1.1801  0.1837  1.6827
 4381TIP3   OH234777   6.504   6.493   0.618  0.8171  0.1171 -0.6843
 4381TIP3    H134778   6.468   6.511   0.532  1.9049 -1.1015 -1.4438
 4381TIP3    H234779   6.595   6.523   0.613  1.7268 -2.3746 -0.9514
 4382TIP3   OH234780   3.300   0.114   0.163  0.2727  0.5056 -0.6390
 4382TIP3    H134781   3.211   0.077   0.160 -0.4690  2.2186 -1.1810
 4382TIP3    H234782   3.312   0.138   0.255  0.1828  0.2428 -0.5571
 4383TIP3   OH234783   5.261   5.916   2.216  0.2451 -0.0708  0.7729
 4383TIP3    H134784   5.313   5.994   2.237  0.7666  0.1064 -1.0540
 4383TIP3    H234785   5.271   5.905   2.122 -0.3120 -2.0200  0.9069
 4384TIP3   OH234786   0.128   3.174   1.944 -0.0851  0.2440 -0.0636
 4384TIP3    H134787   0.223   3.165   1.940 -0.1533 -0.1499 -1.2362
 4384TIP3    H234788   0.100   3.179   1.853 -1.4727 -2.7968  0.0352
 4385TIP3   OH234789   2.448   2.755   8.714 -0.3673  0.1275 -0.2591
 4385TIP3    H134790   2.443   2.758   8.618 -0.5188  2.0110 -0.2415
 4385TIP3    H234791   2.359   2.777   8.743 -0.4903 -1.0932  0.3328
 4386TIP3   OH234792   3.658   2.733   1.260  0.3485  0.2675 -0.0779
 4386TIP3    H134793   3.600   2.666   1.296  0.2843  0.7682  0.7791
 4386TIP3    H234794   3.735   2.685   1.230 -0.0733 -0.2841 -0.2798
 4387TIP3   OH234795   0.307   0.867   6.973 -0.5754 -0.2561  0.2886
 4387TIP3    H134796   0.248   0.813   6.922 -0.1857 -1.2864  0.8966
 4387TIP3    H234797   0.348   0.925   6.909 -2.4263  0.6910 -0.1100
 4388TIP3   OH234798   1.550   5.099   8.829  0.3041  0.0753 -0.2169
 4388TIP3    H134799   1.484   5.036   8.858 -1.0063 -0.3457 -3.5807
 4388TIP3    H234800   1.594   5.127   8.909 -1.9794 -1.8463  1.8789
 4389TIP3   OH234801   2.308   1.630   7.304 -0.2282  0.8156 -0.7453
 4389TIP3    H134802   2.300   1.712   7.255 -0.7133  0.1786 -1.7686
 4389TIP3    H234803   2.381   1.646   7.364 -1.7701  2.7968  0.7464
 4390TIP3   OH234804   5.956   4.464   2.115  0.9465 -0.3138  0.4398
 4390TIP3    H134805   5.894   4.526   2.155  0.2526 -0.9529  0.3649
 4390TIP3    H234806   5.941   4.382   2.161  1.8278 -0.4561  0.4992
 4391TIP3   OH234807   0.949   4.982   7.997 -0.2550  0.0093  0.0090
 4391TIP3    H134808   0.940   4.894   7.962 -1.7896 -0.0599  0.5218
 4391TIP3    H234809   0.994   5.031   7.928  1.8118 -1.4443  0.2223
 4392TIP3   OH234810   3.716   1.808   0.039 -0.0213  0.3923  0.2978
 4392TIP3    H134811   3.669   1.891   0.036 -0.3891  0.1612 -0.6722
 4392TIP3    H234812   3.807   1.833   0.056 -0.4713  0.8319  2.3766
 4393TIP3   OH234813   4.854   2.868   0.862 -0.1507  0.1872  0.0131
 4393TIP3    H134814   4.893   2.792   0.819 -1.1438 -0.9290  1.0143
 4393TIP3    H234815   4.829   2.836   0.949 -0.5642  1.6732  0.4701
 4394TIP3   OH234816   3.764   0.019   0.805 -0.4113  0.5466  0.3020
 4394TIP3    H134817   3.691   0.074   0.776 -1.2021 -0.2458  0.7233
 4394TIP3    H234818   3.808   0.072   0.872  0.3055  1.6225 -0.9880
 4395TIP3   OH234819   3.084   1.398   0.097 -0.1909 -0.3589 -0.3060
 4395TIP3    H134820   3.138   1.443   0.033 -1.6725  0.8154 -0.7791
 4395TIP3    H234821   3.091   1.305   0.073  0.3189 -0.0672 -1.3376
 4396TIP3   OH234822   1.896   5.860   6.914 -0.4124  0.6719 -0.5677
 4396TIP3    H134823   1.946   5.924   6.965 -1.5294 -0.5550  2.2335
 4396TIP3    H234824   1.830   5.913   6.869 -1.4572  1.5752  1.8519
 4397TIP3   OH234825   1.144   4.403   8.347 -0.7264 -0.0195 -0.2528
 4397TIP3    H134826   1.186   4.487   8.328  0.9799 -0.8617 -0.4780
 4397TIP3    H234827   1.206   4.358   8.405 -1.1782 -1.4591 -0.8309
 4398TIP3   OH234828   1.355   4.382   0.127 -0.4669 -0.1448  0.1987
 4398TIP3    H134829   1.393   4.295   0.142 -1.7695 -0.5347  1.5197
 4398TIP3    H234830   1.276   4.383   0.182 -0.4698  1.8806  0.2236
 4399TIP3   OH234831   1.748   3.744   0.569 -0.0625 -0.1014  0.2912
 4399TIP3    H134832   1.744   3.657   0.530 -1.6713  0.2358 -0.3584
 4399TIP3    H234833   1.811   3.792   0.514  0.5651 -0.7416  0.4449
 4400TIP3   OH234834   1.788   0.042   8.359  0.2439  0.1531  0.1445
 4400TIP3    H134835   1.822   0.115   8.307 -0.3306 -0.7859 -1.6523
 4400TIP3    H234836   1.759   0.082   8.441 -0.0506  1.9358 -0.7729
 4401TIP3   OH234837   2.165   1.611   8.393 -0.2533 -0.9799 -0.2590
 4401TIP3    H134838   2.161   1.583   8.302 -0.0663 -0.4947 -0.4188
 4401TIP3    H234839   2.077   1.646   8.411  0.1071  0.1963 -0.6780
 4402TIP3   OH234840   0.225   5.384   7.295 -0.1405 -0.1811 -0.8774
 4402TIP3    H134841   0.215   5.426   7.381 -0.5060  0.6413 -1.3075
 4402TIP3    H234842   0.152   5.322   7.291  0.4688 -0.9718 -0.1903
 4403TIP3   OH234843   5.136   4.107   1.795 -0.1136 -0.3885  0.4541
 4403TIP3    H134844   5.079   4.159   1.851 -1.5658 -0.7258 -0.6484
 4403TIP3    H234845   5.078   4.044   1.753  1.2372 -1.3984  0.0112
 4404TIP3   OH234846   4.228   0.025   0.499 -0.3494  0.0272 -0.1699
 4404TIP3    H134847   4.193   0.017   0.410 -1.3024 -0.2349  0.2132
 4404TIP3    H234848   4.312   0.069   0.488 -0.1957 -0.5010 -1.2580
 4405TIP3   OH234849   3.219   0.700   7.924  0.4234  0.3041 -0.4266
 4405TIP3    H134850   3.305   0.733   7.950  0.9210 -1.4629  0.3451
 4405TIP3    H234851   3.157   0.758   7.967  1.2326 -1.1310  3.0457
 4406TIP3   OH234852   4.097   5.421   7.213  0.0640  0.4867  0.7001
 4406TIP3    H134853   4.065   5.509   7.190  2.7199  1.2622 -0.3817
 4406TIP3    H234854   4.135   5.432   7.300  1.6250  0.8065  0.0090
 4407TIP3   OH234855   4.110   2.140   1.189 -0.3711 -0.5572  0.4100
 4407TIP3    H134856   4.195   2.113   1.157  0.1494 -0.7016  1.8325
 4407TIP3    H234857   4.099   2.229   1.156  0.7713 -0.1743  1.0221
 4408TIP3   OH234858   0.472   0.246   6.877  0.2537 -0.3131 -0.3004
 4408TIP3    H134859   0.473   0.293   6.794  0.1180  1.2630  0.5710
 4408TIP3    H234860   0.379   0.243   6.902  0.5444  1.9103  1.2522
 4409TIP3   OH234861   0.235   2.284   1.739 -0.1484  0.7174 -0.7654
 4409TIP3    H134862   0.272   2.300   1.826  2.3732  0.2160 -1.6530
 4409TIP3    H234863   0.222   2.189   1.736  0.1466  0.6854 -1.0660
 4410TIP3   OH234864   2.535   3.632   7.817  0.0011  0.3204  0.5167
 4410TIP3    H134865   2.575   3.719   7.815  1.2200 -0.2057  0.8110
 4410TIP3    H234866   2.519   3.615   7.910 -0.9350  0.5196  0.4031
 4411TIP3   OH234867   3.087   5.129   2.000  0.0663  0.4718  0.4386
 4411TIP3    H134868   3.141   5.160   1.927 -1.9664  0.4783 -1.1294
 4411TIP3    H234869   3.129   5.166   2.078  1.7330  1.2791 -0.7802
 4412TIP3   OH234870   3.805   5.595   2.162 -0.1928  0.3989  0.6469
 4412TIP3    H134871   3.783   5.543   2.084 -1.4865  2.5627 -0.5127
 4412TIP3    H234872   3.722   5.603   2.210  0.0233  1.2460  0.8926
 4413TIP3   OH234873   5.572   4.407   0.111  0.0891 -0.0352  0.1098
 4413TIP3    H134874   5.477   4.401   0.105  0.1640 -2.1134  0.1803
 4413TIP3    H234875   5.598   4.328   0.159  1.7140  1.5319  2.0252
 4414TIP3   OH234876   4.588   5.764   1.373  0.8373 -0.0591 -0.0279
 4414TIP3    H134877   4.554   5.674   1.380  1.0591 -0.0520  1.9064
 4414TIP3    H234878   4.662   5.765   1.434  2.2670  0.8378 -1.7155
 4415TIP3   OH234879   4.835   3.051   0.231  0.2346 -0.0923  0.0317
 4415TIP3    H134880   4.910   2.993   0.221  1.0003  0.7272  0.8165
 4415TIP3    H234881   4.793   3.023   0.313  0.1228 -0.0770 -0.0195
 4416TIP3   OH234882   6.461   5.273   6.777  0.7278  0.0505 -0.0903
 4416TIP3    H134883   6.391   5.244   6.718 -0.2249  1.2572  0.4279
 4416TIP3    H234884   6.482   5.362   6.748  0.6264  0.4543  1.0493
 4417TIP3   OH234885   5.399   3.451   1.027  0.2603 -0.0363 -0.2615
 4417TIP3    H134886   5.328   3.499   1.069  0.3842  0.6847 -0.8746
 4417TIP3    H234887   5.435   3.511   0.962  1.0442 -0.6078 -0.3773
 4418TIP3   OH234888   3.580   1.416   0.327  0.3147 -0.3756  0.7880
 4418TIP3    H134889   3.508   1.447   0.271 -0.8145 -2.4840  0.9625
 4418TIP3    H234890   3.657   1.460   0.293 -0.8578  1.0221 -0.2109
 4419TIP3   OH234891   0.186   2.948   1.606  0.1945 -0.1138 -0.2787
 4419TIP3    H134892   0.121   2.927   1.539 -0.9319  0.6877  0.5375
 4419TIP3    H234893   0.269   2.920   1.568 -0.4344  0.2203 -1.9634
 4420TIP3   OH234894   4.034   4.170   1.160 -0.1733 -0.3142  0.3447
 4420TIP3    H134895   4.028   4.153   1.066 -1.2889  0.8806  0.1736
 4420TIP3    H234896   3.944   4.178   1.190  0.1818  0.5333  1.2747
 4421TIP3   OH234897   5.530   5.790   0.057 -0.3065  0.3468 -0.0633
 4421TIP3    H134898   5.476   5.736  -0.001  0.1650 -0.2855  0.0674
 4421TIP3    H234899   5.484   5.787   0.141 -0.6112  0.6699 -0.2154
 4422TIP3   OH234900   6.549   0.650   8.643  0.4983  0.0507  0.3830
 4422TIP3    H134901   6.573   0.733   8.602 -0.9690  0.1676 -0.3166
 4422TIP3    H234902   6.620   0.631   8.704  1.5265  1.1190 -0.4552
 4423TIP3   OH234903   6.117   4.648   7.108 -0.5743  0.2976  0.1125
 4423TIP3    H134904   6.134   4.565   7.153  1.0659  0.0937 -0.8180
 4423TIP3    H234905   6.131   4.629   7.015  0.9876  1.8535 -0.0263
 4424TIP3   OH234906   6.403   6.324   1.583 -0.2562  0.0821  0.4386
 4424TIP3    H134907   6.395   6.413   1.548  2.1572 -0.0934 -0.7987
 4424TIP3    H234908   6.444   6.336   1.669 -2.0902  0.2480  1.3353
 4425TIP3   OH234909   6.038   0.264   7.177 -0.9620  0.0288  0.2839
 4425TIP3    H134910   6.120   0.299   7.211 -2.4790  3.8414  0.5229
 4425TIP3    H234911   6.048   0.267   7.082 -0.2344 -1.1922  0.3132
 4426TIP3   OH234912   5.967   0.512   7.370 -0.0326  0.1042 -0.2759
 4426TIP3    H134913   6.006   0.435   7.330 -2.5398 -1.3112 -0.1925
 4426TIP3    H234914   5.992   0.506   7.463  1.1345  0.3295 -0.5592
 4427TIP3   OH234915   4.509   3.685   0.896 -0.0042  0.2495 -0.6052
 4427TIP3    H134916   4.525   3.699   0.989  2.8573 -0.5708 -0.8710
 4427TIP3    H234917   4.504   3.773   0.859 -0.8376  0.5742  0.2384
 4428TIP3   OH234918   0.498   2.409   7.263 -0.4493  0.5410 -0.0757
 4428TIP3    H134919   0.535   2.396   7.176  0.2856  0.9744  0.1596
 4428TIP3    H234920   0.529   2.333   7.314  0.5715  1.1457  0.2521
 4429TIP3   OH234921   2.453   0.770   0.365 -0.7351  0.2291 -0.4830
 4429TIP3    H134922   2.512   0.699   0.342 -0.9902 -0.0309 -0.3386
 4429TIP3    H234923   2.375   0.726   0.398 -0.9356  0.5745 -0.4984
 4430TIP3   OH234924   0.926   2.686   8.311 -0.1902 -0.5170 -0.1968
 4430TIP3    H134925   0.947   2.707   8.220 -1.9673 -1.2912 -0.8270
 4430TIP3    H234926   0.996   2.728   8.362  1.3841 -0.8800 -1.9571
 4431TIP3   OH234927   4.194   0.356   6.753 -0.3496 -0.0868 -0.5763
 4431TIP3    H134928   4.118   0.300   6.770 -0.9280  0.9315  0.3970
 4431TIP3    H234929   4.218   0.338   6.662 -0.6630 -1.7019 -0.3671
 4432TIP3   OH234930   6.208   5.035   0.804 -0.1673 -0.4364 -0.3884
 4432TIP3    H134931   6.137   5.016   0.743 -0.5526 -1.4936  0.3526
 4432TIP3    H234932   6.167   5.028   0.891  0.6544 -0.2475  0.0251
 4433TIP3   OH234933   4.888   1.836   0.411 -0.0738 -0.2982 -0.6462
 4433TIP3    H134934   4.913   1.780   0.337  0.4281 -0.4588 -0.3558
 4433TIP3    H234935   4.900   1.925   0.378  3.0225 -0.3093  0.1376
 4434TIP3   OH234936   6.510   0.254   8.139 -0.9401  0.1080  0.4519
 4434TIP3    H134937   6.529   0.193   8.068 -0.1876 -0.3419  1.0262
 4434TIP3    H234938   6.596   0.283   8.170 -1.2806  1.8905 -0.1625
 4435TIP3   OH234939   1.214   3.586   1.735 -0.2053 -0.3512 -0.5659
 4435TIP3    H134940   1.196   3.631   1.652 -0.4655  1.2902  0.3563
 4435TIP3    H234941   1.160   3.507   1.730 -0.6495 -0.0046 -1.7308
 4436TIP3   OH234942   4.727   4.709   0.759  0.6166 -0.1564 -0.1678
 4436TIP3    H134943   4.669   4.713   0.683  1.1048 -0.6541 -0.5775
 4436TIP3    H234944   4.702   4.629   0.804 -0.0670  0.4319  0.5379
 4437TIP3   OH234945   1.455   5.247   7.758  0.1452 -0.4610 -0.0977
 4437TIP3    H134946   1.417   5.266   7.673  0.2879  1.1664  0.1688
 4437TIP3    H234947   1.380   5.228   7.815 -0.1683  1.0479  0.0208
 4438TIP3   OH234948   5.326   2.145   7.379 -0.4087  0.7049  0.6330
 4438TIP3    H134949   5.356   2.216   7.436 -0.9236  0.5264  1.1318
 4438TIP3    H234950   5.307   2.188   7.295 -0.7706  1.1590  0.9473
 4439TIP3   OH234951   0.295   0.387   0.467 -0.5243 -0.7193  0.4732
 4439TIP3    H134952   0.352   0.342   0.530  1.1716 -2.4227 -2.0740
 4439TIP3    H234953   0.295   0.478   0.495  3.9395 -0.4990  0.4867
 4440TIP3   OH234954   2.434   0.765   8.228 -0.0250 -0.1923  0.4172
 4440TIP3    H134955   2.513   0.776   8.176 -0.0665 -1.1074  0.1635
 4440TIP3    H234956   2.387   0.848   8.218  0.1972 -0.1865 -0.6039
 4441TIP3   OH234957   3.967   1.829   0.032 -0.4263 -0.5199  1.0048
 4441TIP3    H134958   4.028   1.882  -0.019 -1.7513  1.2376  1.1632
 4441TIP3    H234959   4.023   1.770   0.083  1.1308  0.9670  1.0827
 4442TIP3   OH234960   4.142   4.643   8.220  0.2897 -0.3319  1.0813
 4442TIP3    H134961   4.072   4.708   8.214  0.7031  0.0657  0.4253
 4442TIP3    H234962   4.114   4.583   8.289 -1.0984 -0.6395  0.2993
 4443TIP3   OH234963   2.681   5.107   2.509  0.3485 -0.0332  0.1068
 4443TIP3    H134964   2.759   5.090   2.457  0.0165 -1.3060 -0.0211
 4443TIP3    H234965   2.712   5.156   2.585  1.1866 -0.0953 -0.1871
 4444TIP3   OH234966   6.276   4.596   1.543  0.0403 -0.3476  0.1378
 4444TIP3    H134967   6.180   4.592   1.536  0.0011  1.0885 -0.4570
 4444TIP3    H234968   6.307   4.560   1.460  0.0031 -0.1782  0.0506
 4445TIP3   OH234969   5.041   4.307   7.124 -0.1113 -0.2191  0.5420
 4445TIP3    H134970   5.085   4.224   7.141  1.2705 -0.1374 -2.1022
 4445TIP3    H234971   4.949   4.284   7.113  0.3279 -1.5268 -0.6768
 4446TIP3   OH234972   1.380   2.458   8.180  0.1139 -0.1363 -0.6362
 4446TIP3    H134973   1.299   2.442   8.228  0.0821  0.4798 -0.4784
 4446TIP3    H234974   1.418   2.371   8.168  0.0014 -0.3290  0.2975
 4447TIP3   OH234975   3.447   3.871   8.384 -0.1009  0.3244  0.1076
 4447TIP3    H134976   3.530   3.918   8.376  0.0545 -0.2490 -3.2669
 4447TIP3    H234977   3.380   3.937   8.365 -0.4642  0.6601  2.2876
 4448TIP3   OH234978   5.869   2.881   1.626  0.7959 -0.3373 -0.0647
 4448TIP3    H134979   5.898   2.839   1.707  0.5621  0.6541  0.5434
 4448TIP3    H234980   5.820   2.812   1.580  1.5261 -1.1190  0.2967
 4449TIP3   OH234981   2.487   0.863   0.815  0.1225  0.4900 -0.7326
 4449TIP3    H134982   2.550   0.817   0.760  1.3918  1.2512  0.0132
 4449TIP3    H234983   2.541   0.922   0.868 -1.0524 -0.0889  1.1967
 4450TIP3   OH234984   4.444   2.218   7.508  0.5611 -0.2363 -0.0826
 4450TIP3    H134985   4.377   2.222   7.576  0.7319 -1.2043  0.1527
 4450TIP3    H234986   4.396   2.190   7.430  0.8683 -2.0508  0.3533
 4451TIP3   OH234987   0.227   2.448   1.483 -0.0859 -0.1726  0.3320
 4451TIP3    H134988   0.145   2.499   1.488 -1.2224 -2.0186  1.7690
 4451TIP3    H234989   0.213   2.375   1.543  2.2298 -1.1517 -0.2374
 4452TIP3   OH234990   1.677   6.197   0.628  0.6667  0.2893  0.1534
 4452TIP3    H134991   1.637   6.280   0.651 -1.8983 -1.1604  1.3911
 4452TIP3    H234992   1.727   6.172   0.705  1.6343  0.7355 -0.3056
 4453TIP3   OH234993   0.802   2.478   2.306  0.2368  0.3826  0.2964
 4453TIP3    H134994   0.715   2.464   2.268  0.6943  0.0764 -0.6530
 4453TIP3    H234995   0.814   2.403   2.365  0.2593 -0.1173 -0.3306
 4454TIP3   OH234996   5.428   0.259   7.983  0.0535  0.1565 -0.4461
 4454TIP3    H134997   5.408   0.255   7.890 -0.1079 -2.8902 -0.3673
 4454TIP3    H234998   5.466   0.173   8.004  0.1490  0.7548  2.2892
 4455TIP3   OH234999   4.363   6.231   8.388 -0.3737 -0.2632  0.1530
 4455TIP3    H135000   4.356   6.319   8.425 -0.0368 -0.7317  1.3641
 4455TIP3    H235001   4.407   6.244   8.304 -2.8672  1.0593 -1.0955
 4456TIP3   OH235002   5.851   0.947   7.242  0.3790 -0.1233  0.3949
 4456TIP3    H135003   5.823   0.856   7.242  0.4005 -0.1324  0.0278
 4456TIP3    H235004   5.932   0.948   7.191 -0.2536  0.2798 -0.6463
 4457TIP3   OH235005   5.255   4.408   8.665 -0.6638 -0.4769  0.1119
 4457TIP3    H135006   5.223   4.492   8.633 -0.8977 -0.4342  0.4481
 4457TIP3    H235007   5.239   4.347   8.593  1.0784  0.0859 -0.8074
 4458TIP3   OH235008   0.340   6.016   0.051 -0.7882  0.1598 -0.1822
 4458TIP3    H135009   0.247   6.014   0.073 -0.9507  3.3373 -0.2407
 4458TIP3    H235010   0.344   6.061  -0.033  0.8546  1.2546  0.4349
 4459TIP3   OH235011   6.274   5.627   2.001  0.0794  0.2131  0.1498
 4459TIP3    H135012   6.268   5.605   2.094  1.2857 -0.2723  0.1342
 4459TIP3    H235013   6.278   5.542   1.956 -0.5768  0.4452 -0.3523
 4460TIP3   OH235014   3.420   3.906   7.220  0.5035 -0.9684 -0.3692
 4460TIP3    H135015   3.388   3.816   7.228 -0.3641 -0.5888  0.6950
 4460TIP3    H235016   3.513   3.900   7.244  0.1525 -1.4004  0.9913
 4461TIP3   OH235017   4.827   5.239   0.350  0.3371  0.2248  0.6861
 4461TIP3    H135018   4.863   5.289   0.423 -2.0738  2.0307  0.7601
 4461TIP3    H235019   4.737   5.219   0.376 -0.0869 -0.4726 -1.1422
 4462TIP3   OH235020   2.180   5.699   8.404  1.3163  0.1762 -0.1676
 4462TIP3    H135021   2.171   5.700   8.499 -0.0596  0.9162 -0.2728
 4462TIP3    H235022   2.137   5.780   8.375 -0.2533 -1.0591 -1.5389
 4463TIP3   OH235023   1.199   2.480   7.829  0.1913 -0.2903  0.4034
 4463TIP3    H135024   1.168   2.560   7.787  2.0540 -0.6022 -1.7916
 4463TIP3    H235025   1.121   2.426   7.841 -0.6139  0.4424 -1.3416
 4464TIP3   OH235026   1.479   4.151   7.218 -0.1093 -0.2392 -0.2753
 4464TIP3    H135027   1.555   4.093   7.224  0.0735  0.0978  0.7294
 4464TIP3    H235028   1.504   4.217   7.154  1.9137  1.9806  2.5359
 4465TIP3   OH235029   3.602   0.137   6.713 -0.3003 -0.8399  0.4418
 4465TIP3    H135030   3.586   0.226   6.683  1.5552 -0.2360  1.1549
 4465TIP3    H235031   3.516   0.095   6.709 -1.0458  0.6975 -0.7486
 4466TIP3   OH235032   2.393   2.593   8.342  0.4566 -0.1933  0.2917
 4466TIP3    H135033   2.442   2.669   8.374  1.4915 -1.5462  2.1158
 4466TIP3    H235034   2.337   2.568   8.415  2.4472 -3.0144  1.0161
 4467TIP3   OH235035   0.802   0.928   8.102  0.2746  0.7037 -0.0402
 4467TIP3    H135036   0.872   0.864   8.116 -1.8005 -1.3935  1.3488
 4467TIP3    H235037   0.807   0.949   8.008  1.5691 -0.8095 -0.3478
 4468TIP3   OH235038   3.087   1.483   7.586 -0.1332  0.6502 -0.6906
 4468TIP3    H135039   3.015   1.454   7.530 -1.2674  1.3348  0.3519
 4468TIP3    H235040   3.152   1.519   7.526 -0.6109 -0.0713 -1.6639
 4469TIP3   OH235041   3.631   2.328   2.047  0.2115 -0.2308  0.3094
 4469TIP3    H135042   3.644   2.299   2.137  0.0522  1.3603  0.8934
 4469TIP3    H235043   3.570   2.402   2.055  1.5819  1.0987 -0.8927
 4470TIP3   OH235044   3.582   5.855   8.091  0.6950 -0.2586 -0.1355
 4470TIP3    H135045   3.594   5.947   8.116 -1.0887 -0.1607  0.4982
 4470TIP3    H235046   3.600   5.806   8.171  2.4634 -0.5744 -0.6767
 4471TIP3   OH235047   0.623   2.758   8.342  0.2877  0.7895  0.3203
 4471TIP3    H135048   0.602   2.822   8.410  1.3469  2.1335 -0.5547
 4471TIP3    H235049   0.716   2.740   8.354 -0.3227 -2.0058  1.6473
 4472TIP3   OH235050   5.622   5.624   0.642 -0.8134 -0.3152 -0.4197
 4472TIP3    H135051   5.643   5.647   0.733  0.4431 -0.1474 -0.7365
 4472TIP3    H235052   5.612   5.708   0.597 -3.5223 -0.3408 -0.0364
 4473TIP3   OH235053   2.938   1.111   1.436 -0.5300  0.0969  0.3851
 4473TIP3    H135054   3.011   1.056   1.464 -1.5601 -0.6618  1.6666
 4473TIP3    H235055   2.946   1.114   1.341  0.1698 -1.3893  0.3643
 4474TIP3   OH235056   6.301   3.562   6.606 -0.4981  0.3230  0.3886
 4474TIP3    H135057   6.375   3.528   6.556 -1.0963  0.5940 -0.6964
 4474TIP3    H235058   6.232   3.497   6.596 -1.3908  1.4223 -1.0626
 4475TIP3   OH235059   5.583   3.896   8.164 -0.2130 -0.1603  0.4471
 4475TIP3    H135060   5.599   3.978   8.211  0.2407  0.7888 -1.2467
 4475TIP3    H235061   5.489   3.882   8.170 -0.0104 -0.8939  2.8455
 4476TIP3   OH235062   4.770   4.675   7.961 -0.0002 -0.2153 -0.1824
 4476TIP3    H135063   4.783   4.601   8.020  2.7536  2.4125  2.9016
 4476TIP3    H235064   4.856   4.717   7.955 -0.9189  1.5965 -3.5232
 4477TIP3   OH235065   3.128   0.066   2.033 -0.0047  0.0207 -0.0656
 4477TIP3    H135066   3.034   0.057   2.051  0.0163  1.3457  0.8028
 4477TIP3    H235067   3.171   0.019   2.104  0.0107  2.4697  1.6751
 4478TIP3   OH235068   3.791   0.579   1.451 -0.0473  0.1072 -0.1442
 4478TIP3    H135069   3.779   0.626   1.369  0.9367  0.9816  0.1989
 4478TIP3    H235070   3.886   0.579   1.466 -0.0352 -1.8119 -0.0224
 4479TIP3   OH235071   3.606   5.936   1.144  0.0485  0.2057  0.6920
 4479TIP3    H135072   3.639   6.022   1.118  0.5926 -0.1391  0.2296
 4479TIP3    H235073   3.680   5.894   1.187  0.2840 -0.6248 -0.4737
 4480TIP3   OH235074   5.428   0.594   1.063  0.4893 -0.1555  0.3090
 4480TIP3    H135075   5.483   0.671   1.052  1.2715 -0.9576 -1.8326
 4480TIP3    H235076   5.348   0.615   1.015 -0.2376  0.1563  1.6062
 4481TIP3   OH235077   0.841   1.399   7.171  0.2527 -0.2616 -0.0205
 4481TIP3    H135078   0.813   1.337   7.104  0.1731 -0.2753  0.0259
 4481TIP3    H235079   0.815   1.359   7.254 -0.5823  0.2348 -0.0325
 4482TIP3   OH235080   5.431   3.340   7.572  0.1475  0.0442  0.5394
 4482TIP3    H135081   5.342   3.366   7.550 -0.0569 -1.1942 -0.2155
 4482TIP3    H235082   5.428   3.325   7.667 -0.5915 -0.4715  0.4459
 4483TIP3   OH235083   4.748   1.816   8.033 -0.1082 -0.4376 -0.4669
 4483TIP3    H135084   4.837   1.816   7.996 -0.5488 -1.1788 -1.5665
 4483TIP3    H235085   4.739   1.730   8.073 -0.6949 -0.7731 -1.2972
 4484TIP3   OH235086   0.091   2.272   2.038  0.2377  0.0097  0.5230
 4484TIP3    H135087   0.061   2.314   2.119  3.2194  0.3744  1.5781
 4484TIP3    H235088   0.172   2.317   2.017  0.1621 -0.9027 -2.0508
 4485TIP3   OH235089   5.438   1.079   6.930 -0.1269 -0.2561 -0.2253
 4485TIP3    H135090   5.354   1.104   6.969 -0.7186 -1.2718 -0.8124
 4485TIP3    H235091   5.472   1.012   6.990  0.7803  0.8869  0.5785
 4486TIP3   OH235092   3.569   2.224   0.746 -0.6259  0.1204  0.1055
 4486TIP3    H135093   3.565   2.213   0.651  0.8592 -1.8922  0.2162
 4486TIP3    H235094   3.628   2.298   0.759 -1.7435  1.1604 -0.5179
 4487TIP3   OH235095   5.552   0.613   1.516  0.1867  1.1934  0.3226
 4487TIP3    H135096   5.624   0.604   1.455 -2.6965 -1.3157 -3.1201
 4487TIP3    H235097   5.573   0.552   1.587  0.7010 -0.9274 -1.5393
 4488TIP3   OH235098   1.491   2.639   8.530  0.2008 -0.5626  0.3581
 4488TIP3    H135099   1.431   2.567   8.510 -1.1749  0.5831  0.1777
 4488TIP3    H235100   1.439   2.700   8.582  1.1744  0.5471  0.0806
 4489TIP3   OH235101   0.940   6.819   7.923 -0.3668  0.5762  0.5961
 4489TIP3    H135102   0.986   6.787   8.000 -2.1642 -0.7689  1.1870
 4489TIP3    H235103   0.857   6.771   7.923 -0.9539  1.4698 -1.4757
 4490TIP3   OH235104   3.575   6.462   2.068 -0.0193 -0.0296 -0.4727
 4490TIP3    H135105   3.533   6.546   2.089 -1.8182 -0.9689 -0.1287
 4490TIP3    H235106   3.648   6.486   2.010 -0.2890  1.7923 -0.1261
 4491TIP3   OH235107   5.640   3.453   6.992  0.1875  0.3481  0.4069
 4491TIP3    H135108   5.624   3.537   6.948 -1.2392 -0.1469 -0.0670
 4491TIP3    H235109   5.699   3.406   6.933 -0.0562  0.5079  0.0332
 4492TIP3   OH235110   1.767   5.864   0.275  0.1847  0.1355  0.6363
 4492TIP3    H135111   1.703   5.867   0.204 -0.3381 -0.0984  1.0935
 4492TIP3    H235112   1.758   5.948   0.319 -0.2344 -0.1287  1.0648
 4493TIP3   OH235113   0.967   6.834   1.287 -0.3893  0.7161 -0.1449
 4493TIP3    H135114   0.938   6.923   1.266 -0.2373  0.7220 -0.3330
 4493TIP3    H235115   1.036   6.816   1.224 -0.4780  0.4314 -0.1634
 4494TIP3   OH235116   4.049   2.105   8.052 -0.2507 -0.2742  0.0327
 4494TIP3    H135117   3.999   2.026   8.033  0.4294 -0.9122  0.7940
 4494TIP3    H235118   4.127   2.073   8.098 -1.0084  1.0134  2.3289
 4495TIP3   OH235119   2.076   5.968   8.289 -0.3231  0.1809 -0.1207
 4495TIP3    H135120   1.990   5.950   8.328  0.7429  0.0874  2.3637
 4495TIP3    H235121   2.066   6.053   8.247 -1.9061 -0.3151 -0.8329
 4496TIP3   OH235122   6.494   2.526   1.822 -0.4554 -0.4133  0.5838
 4496TIP3    H135123   6.507   2.438   1.856 -2.6371 -1.0491 -0.0789
 4496TIP3    H235124   6.401   2.531   1.803 -0.1057  1.4800 -0.9716
 4497TIP3   OH235125   5.361   4.365   0.380  0.3778 -0.2543 -0.0943
 4497TIP3    H135126   5.356   4.350   0.285 -0.1706  2.3492 -0.5601
 4497TIP3    H235127   5.300   4.301   0.417  0.1874 -0.9611 -1.5421
 4498TIP3   OH235128   5.526   0.666   0.757  1.2346 -0.1413 -0.2323
 4498TIP3    H135129   5.594   0.719   0.714  0.6847 -0.2895 -1.2954
 4498TIP3    H235130   5.572   0.587   0.786  1.7702  0.3016  0.1545
 4499TIP3   OH235131   6.231   1.228   7.442  0.3941 -0.1740 -0.7530
 4499TIP3    H135132   6.261   1.210   7.531 -1.8215  1.4884  0.4437
 4499TIP3    H235133   6.221   1.324   7.440  0.3792 -0.1822 -2.8024
 4500TIP3   OH235134   2.767   2.036   8.194 -0.1422 -0.1634  0.4202
 4500TIP3    H135135   2.686   2.062   8.150  0.3603  1.1030  0.2059
 4500TIP3    H235136   2.762   2.079   8.279  0.9112  1.0916 -0.1122
 4501TIP3   OH235137   6.664   2.815   7.724 -0.3152 -0.0282 -0.1020
 4501TIP3    H135138   6.751   2.814   7.684 -0.1263  2.6703  0.0500
 4501TIP3    H235139   6.615   2.881   7.674 -1.9065 -0.6152  0.5968
 4502TIP3   OH235140   1.427   0.951   0.862 -0.4536  0.0206 -0.4279
 4502TIP3    H135141   1.404   0.858   0.873  0.8905 -0.3652 -0.7238
 4502TIP3    H235142   1.347   0.991   0.826 -1.5629 -0.6872  1.1316
 4503TIP3   OH235143   4.569   5.309   7.121  0.1614 -0.1386  0.2948
 4503TIP3    H135144   4.533   5.288   7.035  0.8566  0.0390 -0.0406
 4503TIP3    H235145   4.510   5.265   7.182 -1.8877  1.8448 -0.1259
 4504TIP3   OH235146   6.232   0.840   0.134 -0.2855 -0.4668  0.9742
 4504TIP3    H135147   6.276   0.834   0.049 -2.3223 -0.0202 -0.1597
 4504TIP3    H235148   6.165   0.772   0.131 -1.4639  0.6369  1.5466
 4505TIP3   OH235149   6.676   2.979   0.609  0.0602  0.0813  0.2491
 4505TIP3    H135150   6.605   2.917   0.623  1.2849 -0.8937  2.6516
 4505TIP3    H235151   6.668   3.041   0.682 -1.0761  2.8280 -2.0202
 4506TIP3   OH235152   3.824   0.364   5.624 -0.2204 -0.4344 -0.3382
 4506TIP3    H135153   3.908   0.320   5.630 -0.0676  0.0591  2.3461
 4506TIP3    H235154   3.844   0.448   5.582  1.0094  0.3280  1.5911
 4507TIP3   OH235155   5.009   4.127   8.754  0.4472 -0.1103  0.2539
 4507TIP3    H135156   5.096   4.089   8.766  0.5398  0.1725  0.4757
 4507TIP3    H235157   4.972   4.132   8.842  0.4902  0.4384  0.2479
 4508TIP3   OH235158   1.316   6.060   2.145  0.3272  0.4335  0.0838
 4508TIP3    H135159   1.339   5.973   2.178 -1.9831 -0.2923 -0.0743
 4508TIP3    H235160   1.255   6.095   2.210 -1.8656  0.2561 -1.7673
 4509TIP3   OH235161   0.005   0.281   1.244  0.0030 -0.5679  0.3243
 4509TIP3    H135162   0.089   0.269   1.199  0.1439  0.0334  0.4260
 4509TIP3    H235163  -0.045   0.203   1.220  1.4856 -2.2258  2.3248
 4510TIP3   OH235164   5.742   2.402   2.908 -0.8967  0.2570 -0.1009
 4510TIP3    H135165   5.764   2.316   2.872 -2.6766 -0.0392 -0.5933
 4510TIP3    H235166   5.743   2.390   3.003 -1.4166 -0.4038 -0.1696
 4511TIP3   OH235167   4.414   5.430   0.928  0.3966 -0.2008 -0.6059
 4511TIP3    H135168   4.342   5.455   0.870 -0.1806  0.7916  0.4931
 4511TIP3    H235169   4.402   5.337   0.944 -0.1979 -0.1981 -1.0490
 4512TIP3   OH235170   4.559   6.784   1.641 -0.0627  0.9264  0.4657
 4512TIP3    H135171   4.553   6.702   1.690  0.3976  0.1133 -0.7975
 4512TIP3    H235172   4.648   6.816   1.657 -0.4444  1.5527  1.4820
 4513TIP3   OH235173   0.082   6.741   8.539  0.3125 -0.0769 -0.1586
 4513TIP3    H135174   0.001   6.692   8.525  2.0838 -3.3681  0.1756
 4513TIP3    H235175   0.071   6.782   8.625 -1.8714  1.6794 -1.1632
 4514TIP3   OH235176   1.899   3.135   0.423  0.3176  0.1010 -0.1557
 4514TIP3    H135177   1.810   3.116   0.392  0.0706 -0.0165  0.5970
 4514TIP3    H235178   1.942   3.049   0.424  0.6675  0.2533 -1.1861
 4515TIP3   OH235179   0.203   5.300   0.740 -0.1991  0.0555 -0.4727
 4515TIP3    H135180   0.298   5.301   0.751 -0.3221 -1.0681  1.1137
 4515TIP3    H235181   0.182   5.385   0.702  1.2284  1.2203  1.1831
 4516TIP3   OH235182   1.588   0.748   1.064 -0.2832 -0.2228 -0.4346
 4516TIP3    H135183   1.555   0.837   1.074  0.1790 -0.0789 -0.1371
 4516TIP3    H235184   1.575   0.727   0.972  0.9531  0.7011 -0.8388
 4517TIP3   OH235185   2.615   4.506   8.271  0.4853 -0.4929 -0.3639
 4517TIP3    H135186   2.548   4.512   8.339  1.3006  1.4896  0.3282
 4517TIP3    H235187   2.568   4.479   8.192 -1.1045  0.6314  0.1660
 4518TIP3   OH235188   0.110   1.636   0.729  0.9896 -0.2402 -0.6160
 4518TIP3    H135189   0.169   1.565   0.757 -0.2511 -1.5254 -1.1579
 4518TIP3    H235190   0.028   1.618   0.774  1.0462  1.6961  0.3531
 4519TIP3   OH235191   5.714   1.454   1.868 -0.3420 -0.3391  0.1308
 4519TIP3    H135192   5.726   1.504   1.949 -1.3315  1.5987 -0.8588
 4519TIP3    H235193   5.801   1.452   1.828 -0.2053  0.2619  0.3828
 4520TIP3   OH235194   1.019   2.458   7.527  0.1016  0.1849 -0.1595
 4520TIP3    H135195   0.971   2.541   7.529  1.2685  0.9274 -1.0622
 4520TIP3    H235196   1.108   2.483   7.501  0.0158 -1.5410 -2.4608
 4521TIP3   OH235197   3.095   0.869   8.349  0.1749 -0.1147 -0.1229
 4521TIP3    H135198   2.999   0.870   8.349  0.1370 -1.0745 -1.6810
 4521TIP3    H235199   3.119   0.961   8.337 -0.5697 -0.0068 -0.9065
 4522TIP3   OH235200   0.514   6.046   0.255 -0.6245  0.2391  0.3787
 4522TIP3    H135201   0.468   6.007   0.182  0.3111 -0.6876  0.2524
 4522TIP3    H235202   0.594   5.994   0.264  0.9984  2.4614 -0.1554
 4523TIP3   OH235203   0.935   6.154   1.670  0.3464  0.2191  0.7036
 4523TIP3    H135204   1.014   6.100   1.679 -0.3411 -1.1161 -0.6389
 4523TIP3    H235205   0.863   6.090   1.673 -0.5105  1.0562 -0.7797
 4524TIP3   OH235206   0.904   0.760   1.292  0.5246  0.3023 -0.2412
 4524TIP3    H135207   0.929   0.847   1.325  1.4303 -0.2098  0.4834
 4524TIP3    H235208   0.981   0.730   1.244  0.8322 -0.7537  0.8776
 4525TIP3   OH235209   2.421   6.243   7.207  0.4061  0.2218 -0.1495
 4525TIP3    H135210   2.346   6.301   7.223 -0.1034 -0.2338 -0.8027
 4525TIP3    H235211   2.382   6.162   7.174  1.1362 -0.3381  0.3219
 4526TIP3   OH235212   4.153   4.349   6.806  0.2619 -0.1036 -0.5670
 4526TIP3    H135213   4.202   4.411   6.752 -0.0290 -0.1928 -0.9420
 4526TIP3    H235214   4.063   4.358   6.776 -0.1065  0.6555  0.6772
 4527TIP3   OH235215   2.152   4.088   6.615 -0.0949 -0.2765 -0.0092
 4527TIP3    H135216   2.113   4.109   6.700  0.2037 -0.6873  0.2309
 4527TIP3    H235217   2.239   4.126   6.619 -0.5361  0.8535 -0.6383
 4528TIP3   OH235218   1.513   0.056   8.238  0.2326 -0.6044 -0.6718
 4528TIP3    H135219   1.568   0.076   8.313  0.0206 -2.8152  0.1458
 4528TIP3    H235220   1.560   0.094   8.163  1.5078 -0.1469  0.3231
 4529TIP3   OH235221   5.521   1.297   8.672 -0.4195 -0.0944  0.0970
 4529TIP3    H135222   5.490   1.387   8.670  1.3249  0.5293 -0.7288
 4529TIP3    H235223   5.464   1.251   8.610  0.1151  0.9836 -1.2559
 4530TIP3   OH235224   1.135   4.527   8.701 -0.4866 -0.6577 -0.0246
 4530TIP3    H135225   1.202   4.591   8.675  1.8298 -2.0950  1.9687
 4530TIP3    H235226   1.077   4.522   8.625  1.4586  0.9385 -1.7669
 4531TIP3   OH235227   6.636   1.450   8.039  0.1183 -0.1488 -0.7331
 4531TIP3    H135228   6.672   1.538   8.050 -0.8622  0.3268 -1.1840
 4531TIP3    H235229   6.614   1.422   8.127 -0.1814  0.3385 -0.6459
 4532TIP3   OH235230   2.764   4.192   7.016 -0.5870  0.0306  0.4337
 4532TIP3    H135231   2.759   4.287   7.006  1.5620  0.3708  1.8373
 4532TIP3    H235232   2.858   4.174   7.024 -0.9413 -2.2244  0.1484
 4533TIP3   OH235233   1.645   3.261   6.805  0.3182 -0.5243  0.7854
 4533TIP3    H135234   1.554   3.283   6.820  0.3873 -0.2257  0.7743
 4533TIP3    H235235   1.643   3.188   6.743  0.0876 -0.5727  0.8509
 4534TIP3   OH235236   5.258   5.938   0.074  0.3161 -0.0920  0.0803
 4534TIP3    H135237   5.318   5.982   0.134 -1.0674  0.2946  1.2438
 4534TIP3    H235238   5.262   5.991  -0.006  0.3172  0.8833  0.7042
 4535TIP3   OH235239   1.502   3.250   8.332 -0.0130  0.5704 -0.0294
 4535TIP3    H135240   1.529   3.301   8.256  1.2799  0.4497  0.3241
 4535TIP3    H235241   1.584   3.217   8.369 -0.7178 -0.5095  0.6231
 4536TIP3   OH235242   5.836   2.081   8.808 -0.3377 -0.0714 -0.2323
 4536TIP3    H135243   5.839   2.029   8.728  0.9915 -2.1143  1.0576
 4536TIP3    H235244   5.766   2.040   8.860  0.0167  0.0942  0.3829
 4537TIP3   OH235245   6.139   0.977   8.034 -0.4192  0.0999  0.4716
 4537TIP3    H135246   6.186   1.017   8.108 -2.1323 -0.2225  1.7935
 4537TIP3    H235247   6.051   1.014   8.040 -0.6992 -0.2474 -1.2000
 4538TIP3   OH235248   6.085   4.079   6.937  0.7443 -1.0995 -0.0642
 4538TIP3    H135249   6.033   4.007   6.902  0.3971 -0.8165 -0.1401
 4538TIP3    H235250   6.022   4.151   6.947  1.4608 -0.1516 -1.9260
 4539TIP3   OH235251   1.083   6.104   6.539 -0.1705  0.2812  0.3042
 4539TIP3    H135252   1.095   6.042   6.467 -0.6343  2.1170 -1.4416
 4539TIP3    H235253   1.164   6.097   6.590  0.2894 -0.8638 -0.5294
 4540TIP3   OH235254   4.609   6.611   0.760  0.1606 -0.0415  0.2141
 4540TIP3    H135255   4.649   6.526   0.740  0.7032  0.3939 -0.5870
 4540TIP3    H235256   4.625   6.664   0.682 -1.1863  0.4399  0.2396
 4541TIP3   OH235257   5.471   5.378   0.916  0.0532 -0.2607 -0.3599
 4541TIP3    H135258   5.415   5.393   0.992 -0.9841  0.6225 -1.2540
 4541TIP3    H235259   5.426   5.308   0.868 -0.8140  1.0205 -1.5131
 4542TIP3   OH235260   0.451   5.991   1.795  0.7511  0.1920  0.2297
 4542TIP3    H135261   0.534   6.002   1.749 -0.3802  1.4499 -1.6597
 4542TIP3    H235262   0.397   6.065   1.765 -1.5346 -1.3592  0.2370
 4543TIP3   OH235263   0.275   0.236   2.158  0.2107  0.3225  0.4312
 4543TIP3    H135264   0.268   0.325   2.192  0.4792 -0.1514  1.8216
 4543TIP3    H235265   0.194   0.222   2.110 -0.7547  0.6645  1.8804
 4544TIP3   OH235266   4.534   1.029   8.639 -0.1843  0.8388 -0.3239
 4544TIP3    H135267   4.572   0.943   8.653 -1.2336  0.0631 -1.9766
 4544TIP3    H235268   4.533   1.040   8.544  1.8092  3.5843 -0.1551
 4545TIP3   OH235269   3.769   0.098   1.702 -0.5520 -0.2760 -0.1232
 4545TIP3    H135270   3.773   0.191   1.684 -3.2333  0.2474  1.3900
 4545TIP3    H235271   3.854   0.076   1.739  0.1732  1.5094 -0.6479
 4546TIP3   OH235272   4.523   3.933   7.336 -1.4660  0.0030 -0.0294
 4546TIP3    H135273   4.590   3.928   7.268 -1.5609  1.5895 -0.2811
 4546TIP3    H235274   4.558   3.994   7.401 -2.1743 -0.0432  0.4154
 4547TIP3   OH235275   4.242   5.772   7.219 -0.2246 -0.0713  0.2687
 4547TIP3    H135276   4.237   5.782   7.124 -2.2437  0.1572  0.3499
 4547TIP3    H235277   4.308   5.704   7.233  1.6701  1.3594 -1.1491
 4548TIP3   OH235278   4.132   4.387   8.024  0.5825  0.4598 -0.9355
 4548TIP3    H135279   4.122   4.451   8.096  0.2883  1.4423 -1.8223
 4548TIP3    H235280   4.188   4.431   7.960  1.5709 -0.7554 -0.9412
 4549TIP3   OH235281   0.786   5.705   7.063  0.3362 -0.5081  0.4362
 4549TIP3    H135282   0.874   5.712   7.099  0.1079  3.2634  0.7007
 4549TIP3    H235283   0.734   5.765   7.116 -1.4526  0.4566 -2.1848
 4550TIP3   OH235284   3.863   1.696   7.331 -0.4687 -0.3434 -0.6718
 4550TIP3    H135285   3.838   1.719   7.241 -0.8968  0.6158 -0.3264
 4550TIP3    H235286   3.791   1.728   7.385  1.2188  2.0858  0.3247
 4551TIP3   OH235287   4.360   3.526   0.732 -0.1557 -0.2732  0.5491
 4551TIP3    H135288   4.317   3.601   0.690  0.2280  0.6717  1.7652
 4551TIP3    H235289   4.397   3.563   0.813 -0.0564 -1.8121  1.2306
 4552TIP3   OH235290   4.116   3.280   0.154 -0.0774  0.5197 -0.1279
 4552TIP3    H135291   4.148   3.207   0.101  0.7070  0.1688  0.7968
 4552TIP3    H235292   4.089   3.346   0.090 -0.9758 -0.6395 -0.9822
 4553TIP3   OH235293   2.548   1.857   2.021 -0.1971 -0.0470 -0.2705
 4553TIP3    H135294   2.631   1.901   2.038 -0.0829  0.4031 -1.8937
 4553TIP3    H235295   2.561   1.768   2.055  0.4856  0.3856  0.6429
 4554TIP3   OH235296   6.594   0.174   1.015 -0.3708  0.3447  0.4631
 4554TIP3    H135297   6.503   0.155   0.994 -0.0877  0.0265 -0.5310
 4554TIP3    H235298   6.635   0.191   0.930  0.1932  1.8514  0.9993
 4555TIP3   OH235299   0.358   5.501   1.755 -0.1352 -0.0072 -0.5000
 4555TIP3    H135300   0.328   5.574   1.809  1.9753 -0.5563  1.5669
 4555TIP3    H235301   0.287   5.489   1.691 -2.4141  1.2137  1.5848
 4556TIP3   OH235302   3.093   5.068   2.880  0.3318 -0.3708 -0.2201
 4556TIP3    H135303   3.097   4.974   2.900  0.3810 -0.0549  1.3939
 4556TIP3    H235304   3.181   5.101   2.902 -0.1036  0.2874  0.5850
 4557TIP3   OH235305   1.028   1.918   7.863  0.3754 -0.3003  0.1368
 4557TIP3    H135306   1.045   1.860   7.938 -0.4992 -0.5102  0.1876
 4557TIP3    H235307   0.987   1.995   7.902  2.2687  0.7435  0.1709
 4558TIP3   OH235308   3.375   3.379   1.244 -0.1278 -0.0498  0.7990
 4558TIP3    H135309   3.456   3.348   1.285  1.0819  3.5795  1.5320
 4558TIP3    H235310   3.403   3.417   1.161 -0.8621  1.8332  1.3470
 4559TIP3   OH235311   4.547   6.017   1.015 -0.3868  0.2090 -0.1499
 4559TIP3    H135312   4.595   6.063   0.946  1.0077 -1.4996 -0.3781
 4559TIP3    H235313   4.612   5.962   1.058 -1.9589 -1.6107  0.0439
 4560TIP3   OH235314   5.956   0.927   0.525  0.2170  0.4339  0.5708
 4560TIP3    H135315   5.916   1.005   0.487  1.3476  1.4172  1.3144
 4560TIP3    H235316   6.041   0.920   0.482 -0.5920 -1.5393 -0.8846
 4561TIP3   OH235317   0.315   3.961   6.859 -0.3931 -0.2269  0.0734
 4561TIP3    H135318   0.389   4.022   6.858 -0.5836  0.0047 -0.4485
 4561TIP3    H235319   0.290   3.953   6.767 -1.7666  0.6187  0.3520
 4562TIP3   OH235320   3.259   2.147   7.906 -0.3873 -0.5049 -0.5739
 4562TIP3    H135321   3.254   2.087   7.981 -1.0246 -0.3695 -0.5037
 4562TIP3    H235322   3.211   2.102   7.836 -1.3026  0.1306 -0.3718
 4563TIP3   OH235323   6.563   0.119   7.516  0.6069  0.1208  0.9217
 4563TIP3    H135324   6.618   0.067   7.457  0.3793 -0.5424  1.2755
 4563TIP3    H235325   6.614   0.198   7.533 -0.1972  1.3535 -1.8190
 4564TIP3   OH235326   1.722   0.160   7.245  0.2478 -0.5814 -0.0906
 4564TIP3    H135327   1.691   0.116   7.324 -0.9488 -1.2028 -0.8786
 4564TIP3    H235328   1.719   0.253   7.266  0.1945 -0.7526  0.6773
 4565TIP3   OH235329   6.151   1.846   7.532 -0.5289  0.6066 -0.6307
 4565TIP3    H135330   6.060   1.877   7.530 -0.5891  0.3998 -1.5880
 4565TIP3    H235331   6.145   1.751   7.531 -0.3152  0.5440  1.0760
 4566TIP3   OH235332   2.941   0.434   7.298  0.1422  0.1015 -0.1507
 4566TIP3    H135333   2.955   0.453   7.391 -2.4289 -0.3503  0.3920
 4566TIP3    H235334   3.005   0.490   7.253  1.7208  0.0538  1.8611
 4567TIP3   OH235335   6.603   4.286   8.338  0.1960  0.2102 -0.2099
 4567TIP3    H135336   6.631   4.307   8.427 -2.9315 -0.4096  1.0550
 4567TIP3    H235337   6.649   4.350   8.283  1.4209  1.3049  1.9473
 4568TIP3   OH235338   0.756   1.762   6.656 -0.8630  0.4418 -0.4140
 4568TIP3    H135339   0.681   1.721   6.700 -1.1478  2.3888  1.0617
 4568TIP3    H235340   0.718   1.808   6.581 -1.0101  0.5480 -0.2759
 4569TIP3   OH235341   0.759   3.344   8.749 -0.5244  0.5144  0.1793
 4569TIP3    H135342   0.754   3.436   8.721  1.7570  0.1832 -1.5853
 4569TIP3    H235343   0.787   3.296   8.671 -0.1085 -1.4511  1.4659
 4570TIP3   OH235344   0.819   1.981   0.494  0.1449  0.6043 -0.0722
 4570TIP3    H135345   0.799   1.925   0.420  1.5530 -0.0957  0.0341
 4570TIP3    H235346   0.867   2.055   0.456 -1.1240  1.4164 -0.1291
 4571TIP3   OH235347   2.267   6.030   1.303 -0.0169  0.0625 -0.1567
 4571TIP3    H135348   2.228   6.061   1.384 -0.2167  1.3923 -0.7318
 4571TIP3    H235349   2.362   6.033   1.318 -0.0151  1.2889 -0.2847
 4572TIP3   OH235350   6.530   0.205   1.355  0.0139 -0.1861 -0.3522
 4572TIP3    H135351   6.541   0.204   1.260 -0.4008  0.3606 -0.4135
 4572TIP3    H235352   6.435   0.198   1.367  0.0301  0.2102  0.0070
 4573TIP3   OH235353   1.030   3.069   7.997  0.1642  0.0514  0.4006
 4573TIP3    H135354   0.956   3.008   7.999 -0.7961  1.0696 -1.0800
 4573TIP3    H235355   1.107   3.014   7.986 -0.4151 -1.0131  1.4996
 4574TIP3   OH235356   0.957   5.949   0.840 -0.1577  0.2477  0.2912
 4574TIP3    H135357   0.865   5.929   0.857 -0.6560 -0.3614 -2.6338
 4574TIP3    H235358   0.995   5.865   0.814  0.7928  0.8254 -0.2151
 4575TIP3   OH235359   4.085   3.520   2.337 -0.0906 -0.5702  0.1419
 4575TIP3    H135360   4.122   3.609   2.343  0.8349 -1.0067  1.5175
 4575TIP3    H235361   4.019   3.526   2.268 -0.0204  1.1781  0.1716
 4576TIP3   OH235362   2.971   1.169   7.888 -0.4922  0.0972 -0.3473
 4576TIP3    H135363   2.936   1.258   7.885 -1.5630 -0.2906  0.1060
 4576TIP3    H235364   2.937   1.127   7.809 -1.7170 -0.4963  0.4557
 4577TIP3   OH235365   5.604   2.340   1.887 -0.0784 -0.1358 -0.3377
 4577TIP3    H135366   5.615   2.252   1.922 -0.9327  0.2018  0.8538
 4577TIP3    H235367   5.563   2.328   1.801 -2.2065 -0.8572  0.7048
 4578TIP3   OH235368   0.074   4.688   0.870  0.9467 -0.3030 -0.0705
 4578TIP3    H135369   0.039   4.776   0.854  0.4846 -0.5012 -0.1546
 4578TIP3    H235370   0.052   4.670   0.961 -1.0185 -1.2456 -0.6748
 4579TIP3   OH235371   4.279   4.660   0.905  0.2540 -0.0634  0.0067
 4579TIP3    H135372   4.299   4.568   0.918 -0.0650 -0.8106 -3.7165
 4579TIP3    H235373   4.184   4.662   0.895  0.1474  0.8702  1.0121
 4580TIP3   OH235374   6.405   6.512   8.768  0.0471 -0.2289  0.1613
 4580TIP3    H135375   6.387   6.429   8.723 -0.0743 -0.6146  0.8956
 4580TIP3    H235376   6.407   6.577   8.699  1.8122 -1.0794 -0.6597
 4581TIP3   OH235377   6.202   1.517   6.952 -0.0345 -0.0407 -0.4722
 4581TIP3    H135378   6.159   1.576   6.891 -1.5450  0.8439  1.3455
 4581TIP3    H235379   6.132   1.487   7.010  1.5912  0.8308  2.1104
 4582TIP3   OH235380   6.729   1.965   7.150 -0.0527  0.6100  0.3173
 4582TIP3    H135381   6.676   1.916   7.214  1.2876 -0.9530  0.3049
 4582TIP3    H235382   6.780   2.026   7.203  2.4303 -1.9344  1.1041
 4583TIP3   OH235383   6.654   1.040   1.609  0.0512 -0.2568 -0.2628
 4583TIP3    H135384   6.637   1.082   1.693 -0.0615 -0.1916 -0.3184
 4583TIP3    H235385   6.737   0.995   1.621  2.0865  2.9103 -1.2678
 4584TIP3   OH235386   1.685   5.427   7.745  0.1356 -0.1773  0.4069
 4584TIP3    H135387   1.615   5.410   7.683  0.3534  0.9899 -0.1707
 4584TIP3    H235388   1.669   5.364   7.816 -0.3038 -1.2999 -0.6495
 4585TIP3   OH235389   4.942   2.841   7.459 -0.1395 -0.3355  0.0855
 4585TIP3    H135390   4.953   2.757   7.502  1.0961 -0.0070  0.4437
 4585TIP3    H235391   4.987   2.832   7.375 -0.1419 -0.0814  0.0540
 4586TIP3   OH235392   3.125   6.095   7.024 -0.3534  0.7151 -0.2195
 4586TIP3    H135393   3.102   6.185   7.047  0.3068  0.7688  0.2638
 4586TIP3    H235394   3.217   6.099   7.000  0.0800 -0.0521  1.1900
 4587TIP3   OH235395   6.337   2.982   0.931  0.1982  0.1557 -0.1860
 4587TIP3    H135396   6.247   2.988   0.899  0.5814 -1.4244 -1.7211
 4587TIP3    H235397   6.370   3.072   0.928 -0.3721  0.3485 -2.6204
 4588TIP3   OH235398   3.173   4.645   7.114  0.1883 -0.0947 -0.6842
 4588TIP3    H135399   3.248   4.672   7.166  0.8179  0.8977 -2.0346
 4588TIP3    H235400   3.193   4.675   7.025 -1.0858 -1.2270 -1.4025
 4589TIP3   OH235401   3.543   1.583   8.567  0.0456  0.3307  0.1340
 4589TIP3    H135402   3.588   1.551   8.489  0.3957 -0.8030  0.7579
 4589TIP3    H235403   3.613   1.593   8.632 -0.3433  0.4816  0.5325
 4590TIP3   OH235404   3.043   4.190   7.086 -0.8582 -0.3240 -0.6901
 4590TIP3    H135405   3.058   4.263   7.026  0.5197  0.3439  0.4325
 4590TIP3    H235406   3.082   4.115   7.041 -0.6066 -0.0084 -1.0083
 4591TIP3   OH235407   6.712   0.684   1.511 -0.0676 -0.5427 -0.2456
 4591TIP3    H135408   6.619   0.697   1.497  0.0357  0.9954  0.3400
 4591TIP3    H235409   6.740   0.631   1.437 -1.1748  0.0001 -1.0780
 4592TIP3   OH235410   1.801   4.094   0.882  0.1366 -0.3061  0.8238
 4592TIP3    H135411   1.853   4.017   0.905  0.4830  0.1231  1.5199
 4592TIP3    H235412   1.842   4.126   0.801  0.0291 -0.8101  0.5644
 4593TIP3   OH235413   6.682   3.452   2.466 -0.1030 -0.0332  0.2598
 4593TIP3    H135414   6.604   3.450   2.409 -0.1144  2.5584  0.0393
 4593TIP3    H235415   6.699   3.360   2.486 -2.4121 -0.7890 -0.7845
 4594TIP3   OH235416   5.297   6.520   8.830  0.2232 -0.3657 -0.1482
 4594TIP3    H135417   5.288   6.605   8.872 -0.2805  0.3115 -1.5674
 4594TIP3    H235418   5.207   6.491   8.813  0.4017 -0.5506 -0.8538
 4595TIP3   OH235419   6.064   0.614   8.295 -0.4769  0.1796  0.3703
 4595TIP3    H135420   6.138   0.626   8.236 -0.6650 -0.1437  0.0646
 4595TIP3    H235421   6.078   0.527   8.333 -0.5503  0.2367  0.5300
 4596TIP3   OH235422   6.135   2.228   0.761  0.0427  0.2913 -0.0908
 4596TIP3    H135423   6.153   2.299   0.699  1.2167 -0.8183 -1.0866
 4596TIP3    H235424   6.051   2.192   0.733 -0.4707  1.1610  0.3080
 4597TIP3   OH235425   5.133   6.068   7.572  0.4850 -0.4881  0.7627
 4597TIP3    H135426   5.162   6.130   7.639  2.0123  0.2390 -0.4935
 4597TIP3    H235427   5.165   5.983   7.602  1.5666 -0.0999  0.7609
 4598TIP3   OH235428   6.479   2.256   8.053 -0.3465  0.2076  0.2792
 4598TIP3    H135429   6.560   2.305   8.064  0.8671 -1.7996  0.7347
 4598TIP3    H235430   6.443   2.287   7.970  2.0647 -0.4307 -1.1027
 4599TIP3   OH235431   2.429   0.651   0.028  0.8089  0.4310  0.0256
 4599TIP3    H135432   2.512   0.691   0.004  1.3498 -1.2311 -1.0590
 4599TIP3    H235433   2.392   0.621  -0.055  0.7393 -1.7907  0.7838
 4600TIP3   OH235434   6.537   1.972   6.954 -0.0286 -0.3272 -0.4697
 4600TIP3    H135435   6.567   1.917   6.883 -0.6101 -0.2326 -0.7932
 4600TIP3    H235436   6.594   1.949   7.028  0.5948 -0.4043 -0.9642
 4601TIP3   OH235437   1.542   4.997   6.322  0.4576  0.2937 -0.0111
 4601TIP3    H135438   1.450   5.012   6.341  0.5658  3.9819 -1.5974
 4601TIP3    H235439   1.542   4.935   6.250 -0.5729 -1.5696  1.4967
 4602TIP3   OH235440   3.035   5.340   7.772 -0.1412 -0.5410 -0.7129
 4602TIP3    H135441   2.962   5.294   7.814 -0.0470  0.5890  0.7628
 4602TIP3    H235442   3.104   5.275   7.765 -0.3283 -0.8878  0.4918
 4603TIP3   OH235443   6.571   1.915   8.522 -1.0059 -0.5003  0.5175
 4603TIP3    H135444   6.485   1.873   8.521 -0.9662 -0.5863  0.6775
 4603TIP3    H235445   6.626   1.856   8.575 -0.5991 -0.9489 -0.3777
 4604TIP3   OH235446   1.965   0.336   7.497 -0.9950  0.7688 -0.5133
 4604TIP3    H135447   1.887   0.313   7.548 -0.2148  2.0302  1.3233
 4604TIP3    H235448   1.941   0.419   7.454  0.2933  2.9890  2.6482
 4605TIP3   OH235449   2.192   6.596   0.097  0.2786 -0.8524 -0.0082
 4605TIP3    H135450   2.260   6.529   0.092 -0.5787 -1.8930  1.5462
 4605TIP3    H235451   2.218   6.653   0.169 -0.7703 -1.6412  1.0379
 4606TIP3   OH235452   6.760   0.010   1.204  0.3274 -0.1359  0.0968
 4606TIP3    H135453   6.757   0.013   1.300  0.4466 -2.2849  0.2286
 4606TIP3    H235454   6.672  -0.017   1.178  0.5400 -0.4304 -0.3276
 4607TIP3   OH235455   5.963   4.038   0.935 -0.5112  0.0274 -0.0759
 4607TIP3    H135456   6.020   4.082   0.999 -0.5266 -1.1943  0.8222
 4607TIP3    H235457   6.024   4.003   0.870 -0.2688 -0.8263  0.5985
 4608TIP3   OH235458   0.349   1.365   0.508  0.3090 -0.0759 -0.0804
 4608TIP3    H135459   0.281   1.339   0.445  0.7321 -1.7564  0.0918
 4608TIP3    H235460   0.431   1.359   0.460  0.6034 -1.0425  0.4965
 4609TIP3   OH235461   4.020   5.585   2.366 -0.2027 -0.5342  0.0135
 4609TIP3    H135462   3.976   5.595   2.282 -0.7411 -0.0386  0.3458
 4609TIP3    H235463   4.112   5.572   2.344 -0.0974  1.0663 -0.6077
 4610TIP3   OH235464   1.308   5.082   8.181  0.1067  0.8421  0.2900
 4610TIP3    H135465   1.272   5.118   8.100  0.9790  0.4417 -0.2983
 4610TIP3    H235466   1.364   5.151   8.215  0.5666  0.6304 -0.0193
 4611TIP3   OH235467   5.834   1.721   7.354 -0.6628  0.0814 -0.0566
 4611TIP3    H135468   5.785   1.669   7.418  2.0637  0.0204  2.2004
 4611TIP3    H235469   5.861   1.658   7.288 -0.5083 -0.6489  0.6817
 4612TIP3   OH235470   1.154   0.009   0.588 -0.6127  0.1145 -0.1370
 4612TIP3    H135471   1.201  -0.020   0.510  0.7917  1.7889  0.0119
 4612TIP3    H235472   1.215  -0.009   0.660  0.9245  4.3099 -0.1577
 4613TIP3   OH235473   1.509   0.469   0.240  0.2702  0.1996 -0.0773
 4613TIP3    H135474   1.599   0.438   0.239  0.8918  1.8680 -0.3594
 4613TIP3    H235475   1.480   0.457   0.330  0.9837  0.1602  0.1531
 4614TIP3   OH235476   0.838   4.279   7.830  0.2966 -0.1795 -0.1955
 4614TIP3    H135477   0.921   4.234   7.820  0.2299 -0.2804 -0.2987
 4614TIP3    H235478   0.780   4.213   7.869 -0.4468 -0.9168 -2.4168
 4615TIP3   OH235479   1.512   5.368   0.613 -0.0857 -0.0063  0.4168
 4615TIP3    H135480   1.531   5.452   0.653  0.6233  0.1347 -0.2006
 4615TIP3    H235481   1.461   5.389   0.534 -1.0267 -0.2492  0.9377
 4616TIP3   OH235482   3.910   4.487   2.591 -0.7545 -0.1989 -0.2825
 4616TIP3    H135483   3.999   4.494   2.624  0.4683 -2.6575 -2.7404
 4616TIP3    H235484   3.874   4.409   2.634 -1.4908  0.3317  0.0944
 4617TIP3   OH235485   3.351   5.888   2.078  0.8210  0.0381  0.2304
 4617TIP3    H135486   3.429   5.842   2.047  2.3173  1.4171  1.7552
 4617TIP3    H235487   3.293   5.818   2.108  2.1594 -0.9619  0.6032
 4618TIP3   OH235488   0.350   3.112   8.620 -0.0100  0.1832 -0.0647
 4618TIP3    H135489   0.368   3.201   8.590 -0.5174  0.2970 -0.0520
 4618TIP3    H235490   0.335   3.062   8.540 -1.9740  0.6218 -0.0392
 4619TIP3   OH235491   5.464   3.446   8.115  0.2032  0.0374  0.1800
 4619TIP3    H135492   5.483   3.516   8.178 -0.8714  0.1895  0.3453
 4619TIP3    H235493   5.374   3.461   8.088  0.2052 -0.8415 -0.3685
 4620TIP3   OH235494   6.784   4.245   7.974  0.1392  0.2861 -0.0048
 4620TIP3    H135495   6.765   4.273   7.885  0.9946  1.9958  0.2994
 4620TIP3    H235496   6.856   4.301   8.002 -0.7824  0.5335  2.1081
 4621TIP3   OH235497   1.638   1.979   2.093  0.1687  0.4335 -0.1648
 4621TIP3    H135498   1.660   1.935   2.011  2.2587 -0.6735  0.9391
 4621TIP3    H235499   1.591   1.914   2.144  1.0753  0.2853  0.4927
 4622TIP3   OH235500   5.573   5.244   0.480  0.0281 -0.0572  0.3016
 4622TIP3    H135501   5.550   5.172   0.421 -0.2120  0.0411  0.2766
 4622TIP3    H235502   5.565   5.323   0.426  0.1072  0.0056  0.3808
 4623TIP3   OH235503   3.577   5.710   8.326  0.0229 -0.2840 -0.0387
 4623TIP3    H135504   3.485   5.687   8.336 -0.7087  1.3167 -2.1943
 4623TIP3    H235505   3.611   5.711   8.415 -1.7600 -1.9307  0.7311
 4624TIP3   OH235506   2.983   4.873   7.179 -0.3217  0.6743 -0.2542
 4624TIP3    H135507   2.921   4.943   7.200  1.2800  2.0524  0.1053
 4624TIP3    H235508   3.043   4.913   7.115 -0.4229 -0.9675 -1.4402
 4625TIP3   OH235509   4.504   0.073   7.991  0.1228  0.4494  0.1626
 4625TIP3    H135510   4.555   0.032   8.061  0.0986 -0.0330 -0.0940
 4625TIP3    H235511   4.421   0.096   8.032  0.3240  0.6919  0.4341
 4626TIP3   OH235512   3.970   5.401   8.727 -0.2963 -0.0455 -0.1688
 4626TIP3    H135513   4.021   5.423   8.649 -0.4451  0.3559 -0.1559
 4626TIP3    H235514   4.034   5.401   8.798 -0.2499  0.0891 -0.2107
 4627TIP3   OH235515   5.486   1.743   8.021  0.2742  0.2611 -0.0479
 4627TIP3    H135516   5.541   1.813   7.986  0.5561 -0.1744 -0.4825
 4627TIP3    H235517   5.434   1.786   8.089  0.3460  0.9227 -0.4009
 4628TIP3   OH235518   4.174   6.246   8.026  0.0821 -0.0987  0.2982
 4628TIP3    H135519   4.082   6.260   8.050  0.5066  0.5158  1.6709
 4628TIP3    H235520   4.188   6.152   8.036 -0.4509 -0.2382 -0.1875
 4629TIP3   OH235521   3.850   2.327   1.071  0.1175 -0.4390 -0.6224
 4629TIP3    H135522   3.815   2.360   0.988 -0.1275 -0.3404 -0.4822
 4629TIP3    H235523   3.941   2.305   1.052 -0.3662 -1.9543 -1.3478
 4630TIP3   OH235524   2.355   2.995   7.412 -0.4687  0.4826 -0.4618
 4630TIP3    H135525   2.446   3.002   7.385 -0.7229  0.3933 -1.3827
 4630TIP3    H235526   2.307   2.980   7.330 -1.3616  0.9951 -0.0420
 4631TIP3   OH235527   1.208   5.017   0.869  0.2955 -0.1150 -0.0978
 4631TIP3    H135528   1.230   5.093   0.923  1.0177 -0.1676 -0.3058
 4631TIP3    H235529   1.235   5.041   0.781  0.6102 -0.6416 -0.1483
 4632TIP3   OH235530   3.727   5.033   1.693 -0.4694 -0.6384 -0.5451
 4632TIP3    H135531   3.682   4.955   1.660 -1.4653 -0.9807  1.4697
 4632TIP3    H235532   3.689   5.105   1.643 -0.2367 -1.3253 -1.7576
 4633TIP3   OH235533   0.822   6.305   0.316 -0.1571 -0.1958 -0.3765
 4633TIP3    H135534   0.760   6.376   0.300 -0.8647 -0.3873  1.3870
 4633TIP3    H235535   0.769   6.233   0.349  0.5935 -1.4789 -1.8262
 4634TIP3   OH235536   0.016   0.865   7.419  0.0131 -0.0048  0.0889
 4634TIP3    H135537   0.021   0.785   7.368 -0.0999 -0.1432  0.2930
 4634TIP3    H235538   0.021   0.935   7.355 -0.6764 -0.1770 -0.1626
 4635TIP3   OH235539   5.730   0.830   0.664  0.1403 -0.2904  0.0345
 4635TIP3    H135540   5.801   0.866   0.613  0.5867  0.0664  0.8890
 4635TIP3    H235541   5.683   0.906   0.699  0.0690 -0.5211  0.4563
 4636TIP3   OH235542   3.663   4.813   2.316 -0.7704 -0.0389 -0.0012
 4636TIP3    H135543   3.756   4.830   2.328 -1.1873  1.9314  0.9353
 4636TIP3    H235544   3.658   4.759   2.237  1.1005  0.6581 -0.6472
 4637TIP3   OH235545   5.769   3.703   1.112  0.0548  0.7804  0.1745
 4637TIP3    H135546   5.803   3.792   1.128  3.0878 -0.2426  0.0345
 4637TIP3    H235547   5.732   3.676   1.196  1.5921  1.2128  1.0246
 4638TIP3   OH235548   0.804   6.794   2.629  0.3100  0.3682 -0.8562
 4638TIP3    H135549   0.845   6.762   2.549  0.5747  0.6736 -0.8446
 4638TIP3    H235550   0.714   6.762   2.625  0.4346  0.0459 -1.0818
 4639TIP3   OH235551   1.075   0.176   8.837  0.3582 -0.2182  0.0365
 4639TIP3    H135552   1.029   0.093   8.843 -1.2893  0.4970 -1.6651
 4639TIP3    H235553   1.109   0.179   8.748  2.3153  0.0267  0.7333
 4640TIP3   OH235554   5.222   3.814   2.177  0.0958  0.0652 -0.1912
 4640TIP3    H135555   5.300   3.766   2.151 -0.3371 -0.4825 -0.5213
 4640TIP3    H235556   5.231   3.899   2.133  0.3124 -0.1436 -0.5601
 4641TIP3   OH235557   4.324   2.209   2.316 -0.2437 -0.1646  0.0894
 4641TIP3    H135558   4.284   2.274   2.374  1.6730  0.5251  0.7152
 4641TIP3    H235559   4.294   2.233   2.228 -3.3822 -1.3530  0.6711
 4642TIP3   OH235560   5.649   1.598   1.136 -0.1185  0.2753 -0.0031
 4642TIP3    H135561   5.687   1.649   1.208  0.1259 -1.1158  0.9033
 4642TIP3    H235562   5.590   1.537   1.179  0.2989 -0.8265 -0.9496
 4643TIP3   OH235563   2.878   4.304   6.765 -0.3573  0.2481  0.4577
 4643TIP3    H135564   2.899   4.395   6.744  1.0115  0.4119  2.3043
 4643TIP3    H235565   2.790   4.308   6.802 -0.5293  0.7369  0.0062
 4644TIP3   OH235566   5.821   6.583   7.347 -0.2687 -0.2892 -0.1295
 4644TIP3    H135567   5.734   6.583   7.306 -0.1695 -3.0025 -0.5509
 4644TIP3    H235568   5.805   6.555   7.437  0.1301 -0.2548 -0.0473
 4645TIP3   OH235569   3.293   3.878   7.581  0.0168 -1.0068 -0.2362
 4645TIP3    H135570   3.373   3.840   7.617  0.2930 -1.1399 -0.9722
 4645TIP3    H235571   3.256   3.930   7.653  0.3094 -1.6335  0.3797
 4646TIP3   OH235572   1.970   0.904   0.624 -0.0197  0.3777 -0.0705
 4646TIP3    H135573   1.897   0.889   0.685  0.2176  0.8979  0.3478
 4646TIP3    H235574   1.992   0.996   0.635 -0.1135  0.5363 -1.1187
 4647TIP3   OH235575   5.639   1.929   0.093  0.1200  0.0003 -0.2339
 4647TIP3    H135576   5.646   1.834   0.080 -0.5945  0.1653 -2.1658
 4647TIP3    H235577   5.553   1.952   0.057 -0.4086  1.1895  1.6344
 4648TIP3   OH235578   1.563   4.597   0.263  0.0687 -0.6685  0.3064
 4648TIP3    H135579   1.539   4.506   0.246 -0.8029 -0.7570  1.7793
 4648TIP3    H235580   1.536   4.644   0.184 -0.5034 -1.5257 -0.0261
 4649TIP3   OH235581   0.238   1.620   8.823  0.0441  0.2779 -0.2259
 4649TIP3    H135582   0.158   1.607   8.873  1.0939  0.4876  1.5876
 4649TIP3    H235583   0.309   1.607   8.886  1.4459  0.4611 -1.6832
 4650TIP3   OH235584   1.856   1.961   1.246 -0.3164  0.8432 -0.2041
 4650TIP3    H135585   1.802   1.886   1.271  1.1846  0.0496  0.7510
 4650TIP3    H235586   1.830   1.979   1.155 -2.8179  1.0964  0.4718
 4651TIP3   OH235587   3.635   4.871   8.186  0.4724 -0.3348  0.0287
 4651TIP3    H135588   3.586   4.898   8.264  1.0434 -1.2499  0.7237
 4651TIP3    H235589   3.597   4.787   8.161  0.7539 -0.3783 -0.2643
 4652TIP3   OH235590   0.871   1.733   0.738  0.4095  0.6588 -0.1567
 4652TIP3    H135591   0.932   1.766   0.673 -0.6823  2.0409 -0.5327
 4652TIP3    H235592   0.801   1.799   0.741 -1.0079 -0.8011  0.3336
 4653TIP3   OH235593   0.264   6.585   0.991 -0.1916 -0.3594  0.0155
 4653TIP3    H135594   0.336   6.642   1.018 -1.4982  1.2430  0.2358
 4653TIP3    H235595   0.220   6.562   1.072  0.7056 -2.3087  0.0119
 4654TIP3   OH235596   3.134   6.555   0.424 -0.6517  0.0526  0.4003
 4654TIP3    H135597   3.161   6.612   0.496  2.0835  0.8703 -1.1183
 4654TIP3    H235598   3.091   6.613   0.362 -0.6312 -0.1194  0.2221
 4655TIP3   OH235599   6.417   2.890   8.270 -0.2974 -0.6506  0.0232
 4655TIP3    H135600   6.504   2.929   8.261 -0.1574 -1.1550 -1.0312
 4655TIP3    H235601   6.426   2.827   8.342 -0.4991  1.1340  1.6799
 4656TIP3   OH235602   4.747   4.806   1.335  0.0578  0.0431 -0.0848
 4656TIP3    H135603   4.842   4.799   1.339  0.0767  0.5723  0.7027
 4656TIP3    H235604   4.730   4.844   1.249  0.3874 -2.1804 -1.1967
 4657TIP3   OH235605   0.908   4.965   2.039  0.0474  0.0549 -0.0493
 4657TIP3    H135606   0.844   4.980   2.108  0.8804  0.9645  0.5477
 4657TIP3    H235607   0.966   4.897   2.074 -0.5121 -0.7005 -0.5522
 4658TIP3   OH235608   1.230   5.496   7.054 -0.7342 -0.3208 -0.0978
 4658TIP3    H135609   1.214   5.455   7.139 -0.2559  0.9588  0.6469
 4658TIP3    H235610   1.325   5.492   7.044 -0.4840  2.0064  0.7810
 4659TIP3   OH235611   0.641   6.515   0.233 -0.1155 -0.5474 -0.2828
 4659TIP3    H135612   0.565   6.545   0.283 -0.0654  0.4987 -0.8216
 4659TIP3    H235613   0.609   6.437   0.186 -1.2581  0.5971 -1.4991
 4660TIP3   OH235614   6.161   4.235   7.818  0.4882  0.0592 -0.4658
 4660TIP3    H135615   6.152   4.140   7.825  1.8269 -0.3365 -3.0334
 4660TIP3    H235616   6.091   4.261   7.759  1.3391  0.3438 -1.3752
 4661TIP3   OH235617   2.396   6.672   7.691 -0.0285  0.5891  0.0964
 4661TIP3    H135618   2.392   6.700   7.782 -2.9106  1.0335 -0.0780
 4661TIP3    H235619   2.384   6.753   7.641  0.8987  0.2598 -0.6800
 4662TIP3   OH235620   1.599   6.340   0.912 -0.1685  0.1886 -0.0326
 4662TIP3    H135621   1.633   6.251   0.905 -1.8106 -0.5413  0.6396
 4662TIP3    H235622   1.505   6.329   0.926 -0.3492  2.0154  0.5331
 4663TIP3   OH235623   3.074   3.589   1.479 -0.1024  0.3504 -0.0630
 4663TIP3    H135624   3.080   3.684   1.464  0.2580  0.1845 -1.0164
 4663TIP3    H235625   3.107   3.550   1.398  0.7874 -0.6041  0.7402
 4664TIP3   OH235626   2.085   1.206   8.202  0.2710  0.2217  0.0294
 4664TIP3    H135627   2.012   1.169   8.152  0.1107 -0.6492  0.8803
 4664TIP3    H235628   2.042   1.252   8.275  0.5665 -0.8217  0.8880
 4665TIP3   OH235629   4.496   2.358   8.383 -0.5196 -0.5503 -0.2147
 4665TIP3    H135630   4.455   2.337   8.299  0.9805 -0.5265 -0.9984
 4665TIP3    H235631   4.480   2.282   8.438  0.9663 -1.8784 -1.5206
 4666TIP3   OH235632   3.448   1.462   6.383 -0.1330  0.6259 -0.2327
 4666TIP3    H135633   3.449   1.378   6.336  1.4576  1.2789 -1.4479
 4666TIP3    H235634   3.355   1.482   6.394 -0.6538 -2.3306  2.0946
 4667TIP3   OH235635   5.001   5.834   2.190 -0.3728  0.1077 -0.2184
 4667TIP3    H135636   5.096   5.836   2.202 -0.4046 -1.1622  0.4575
 4667TIP3    H235637   4.965   5.865   2.273 -0.5338 -2.0383  0.5931
 4668TIP3   OH235638   1.388   4.890   0.065  0.1486  0.6809 -0.4832
 4668TIP3    H135639   1.294   4.896   0.081  0.6251  0.4299  3.5013
 4668TIP3    H235640   1.403   4.799   0.041 -0.4013 -0.1295  1.9680
 4669TIP3   OH235641   4.856   0.253   7.965 -0.1070 -0.3055  0.2395
 4669TIP3    H135642   4.895   0.168   7.980  1.0199  0.2721  0.6914
 4669TIP3    H235643   4.782   0.257   8.025  0.8389 -0.3221  1.4431
 4670TIP3   OH235644   2.115   0.263   0.454 -0.0561  0.5531 -0.4144
 4670TIP3    H135645   2.142   0.191   0.511 -1.3371  0.4286  0.0772
 4670TIP3    H235646   2.119   0.340   0.509 -0.0538  0.6377 -0.5322
 4671TIP3   OH235647   6.514   3.802   2.390  0.3267 -0.1997 -0.4742
 4671TIP3    H135648   6.465   3.724   2.364  0.0094  0.2060 -1.1199
 4671TIP3    H235649   6.485   3.819   2.479  0.2224 -0.6827 -0.4113
 4672TIP3   OH235650   2.618   6.568   0.939  0.2949 -0.2363  0.1170
 4672TIP3    H135651   2.557   6.571   1.012  0.9223 -0.9653  0.6849
 4672TIP3    H235652   2.665   6.485   0.950  1.6766  0.4925 -0.0484
 4673TIP3   OH235653   5.706   2.383   7.046 -0.0930 -0.6260  0.2566
 4673TIP3    H135654   5.716   2.468   7.088  0.8664 -0.3825 -0.4261
 4673TIP3    H235655   5.668   2.403   6.960  0.7375 -0.7984 -0.1674
 4674TIP3   OH235656   4.759   6.049   8.650 -0.5947  0.7101  0.3867
 4674TIP3    H135657   4.685   6.087   8.698 -1.8049 -0.0423 -0.8103
 4674TIP3    H235658   4.730   6.048   8.558  0.1707 -1.2293  0.1170
 4675TIP3   OH235659   0.151   4.148   1.632 -0.1427 -0.3433 -0.0069
 4675TIP3    H135660   0.091   4.074   1.640  0.5439 -1.1574 -1.8724
 4675TIP3    H235661   0.188   4.140   1.544  0.3280  1.9493 -0.0907
 4676TIP3   OH235662   2.118   5.991   0.465  0.2969 -0.5943 -0.1547
 4676TIP3    H135663   2.098   5.974   0.373 -1.7724 -0.5384  0.2304
 4676TIP3    H235664   2.190   6.054   0.463 -0.7099  0.6072 -1.7848
 4677TIP3   OH235665   3.293   2.333   1.416 -0.1604  0.6574 -0.1762
 4677TIP3    H135666   3.220   2.272   1.419  0.6393 -0.4103 -1.2000
 4677TIP3    H235667   3.317   2.347   1.507 -2.2152  1.7991  0.2426
 4678TIP3   OH235668   5.815   3.044   7.724 -0.5875  0.0058 -0.5675
 4678TIP3    H135669   5.776   3.104   7.659 -0.9040  1.5200  0.9418
 4678TIP3    H235670   5.904   3.077   7.737  0.7351 -2.3912 -2.7041
 4679TIP3   OH235671   2.211   5.194   0.164  0.4937 -0.1131  0.0666
 4679TIP3    H135672   2.300   5.160   0.152 -0.1335 -1.0812 -2.3656
 4679TIP3    H235673   2.186   5.226   0.078 -2.8076 -3.1227 -0.2870
 4680TIP3   OH235674   2.945   0.483   0.703 -0.2356  0.2080 -0.3734
 4680TIP3    H135675   2.910   0.399   0.672  2.5597 -0.9064 -0.8270
 4680TIP3    H235676   3.038   0.479   0.682  0.4272  2.5072  1.6450
 4681TIP3   OH235677   2.547   1.411   1.048  0.1714  0.7236  0.5774
 4681TIP3    H135678   2.586   1.449   0.970  1.0097 -0.5392  0.3385
 4681TIP3    H235679   2.619   1.365   1.091 -0.4304  0.8157  1.7257
 4682TIP3   OH235680   3.392   1.194   1.301 -0.3808  0.3152  0.2665
 4682TIP3    H135681   3.450   1.231   1.234 -1.2913 -1.2646 -1.4792
 4682TIP3    H235682   3.304   1.222   1.274 -1.0689 -2.5925 -0.9010
 4683TIP3   OH235683   3.117   3.936   8.538  0.6059 -0.1853  0.7762
 4683TIP3    H135684   3.101   3.845   8.515 -1.1159  0.4156 -0.5857
 4683TIP3    H235685   3.068   3.987   8.474  2.4552  1.7550  0.7716
 4684TIP3   OH235686   1.359   4.289   0.440  0.6270  0.1437 -0.1092
 4684TIP3    H135687   1.361   4.364   0.500  1.6090 -1.4514  1.9924
 4684TIP3    H235688   1.268   4.258   0.444 -0.0745  1.7702 -1.8386
 4685TIP3   OH235689   1.845   2.936   1.496 -0.5752 -0.1782 -0.1975
 4685TIP3    H135690   1.912   2.931   1.428  2.6957  1.8807  2.5586
 4685TIP3    H235691   1.838   2.848   1.531  2.1585 -0.1401  0.6088
 4686TIP3   OH235692   3.748   6.106   0.916  0.3606  0.3980  0.3280
 4686TIP3    H135693   3.778   6.153   0.838  0.7940 -0.8395 -0.2809
 4686TIP3    H235694   3.719   6.174   0.976  2.0605  1.5057 -0.0609
 4687TIP3   OH235695   1.791   4.966   6.426  0.2676 -0.1563  0.5669
 4687TIP3    H135696   1.714   5.000   6.382 -0.1549 -1.3427  0.3731
 4687TIP3    H235697   1.792   4.872   6.406 -0.0840 -0.8248  3.2396
 4688TIP3   OH235698   0.011   6.470   7.922 -0.1512  0.0540  0.1240
 4688TIP3    H135699   0.098   6.503   7.901 -0.0419 -0.2575  0.0953
 4688TIP3    H235700  -0.016   6.522   7.999 -0.2046  0.5893 -0.2503
 4689TIP3   OH235701   3.001   4.873   0.404 -0.6644  0.3614  0.8269
 4689TIP3    H135702   3.045   4.829   0.476  0.4025 -0.8131 -0.4893
 4689TIP3    H235703   2.923   4.819   0.388  1.3255 -2.0843 -1.6777
 4690TIP3   OH235704   6.705   1.582   7.330  0.5889 -0.1149  0.1362
 4690TIP3    H135705   6.764   1.581   7.255  0.3777 -4.4158 -0.2002
 4690TIP3    H235706   6.623   1.617   7.295  1.3304  0.7393 -0.8150
 4691TIP3   OH235707   2.074   4.402   7.836  0.0408 -0.3988 -0.1690
 4691TIP3    H135708   1.990   4.447   7.848  0.1756 -0.0630 -0.4910
 4691TIP3    H235709   2.062   4.350   7.756 -0.4325 -1.6725  0.6925
 4692TIP3   OH235710   1.278   0.999   1.265  0.4170  0.2920 -0.7985
 4692TIP3    H135711   1.240   0.992   1.353 -0.2191 -1.0333 -1.1566
 4692TIP3    H235712   1.275   1.093   1.246 -0.5486  0.4753  0.1222
 4693TIP3   OH235713   2.221   6.505   6.716 -0.1991  0.0508  0.5035
 4693TIP3    H135714   2.160   6.546   6.654  0.6357 -0.4202 -0.6798
 4693TIP3    H235715   2.170   6.437   6.758 -0.7457  0.2648  0.1990
 4694TIP3   OH235716   3.978   1.045   7.063  0.3838 -0.2930 -0.0422
 4694TIP3    H135717   4.047   1.023   7.126  1.0807 -1.1452 -1.0663
 4694TIP3    H235718   4.026   1.065   6.982 -0.4284  1.8009 -0.0613
 4695TIP3   OH235719   3.520   0.141   0.726 -0.9641 -0.3888 -0.1797
 4695TIP3    H135720   3.497   0.234   0.716  0.2277 -0.2683 -2.7678
 4695TIP3    H235721   3.437   0.097   0.741 -2.0200  0.7918 -2.1262
 4696TIP3   OH235722   5.482   3.266   7.298 -0.4420  0.2813 -0.3144
 4696TIP3    H135723   5.509   3.174   7.287  1.3489  0.7113  0.1193
 4696TIP3    H235724   5.467   3.274   7.392 -2.3779  0.0107 -0.5682
 4697TIP3   OH235725   4.274   3.118   0.954 -0.6913 -0.0044  0.2912
 4697TIP3    H135726   4.276   3.199   0.903 -0.0206 -1.2162 -1.7403
 4697TIP3    H235727   4.322   3.138   1.034  1.1504  1.0901 -1.0272
 4698TIP3   OH235728   0.621   1.907   7.312 -0.0042  0.2606 -0.1446
 4698TIP3    H135729   0.641   1.815   7.291 -0.4585  0.4445 -1.4669
 4698TIP3    H235730   0.697   1.956   7.281 -0.2529  0.4414 -0.4706
 4699TIP3   OH235731   1.717   4.599   8.652 -0.0547  0.1290 -0.2281
 4699TIP3    H135732   1.628   4.590   8.619 -0.8413  0.6675  1.6356
 4699TIP3    H235733   1.720   4.688   8.689  1.4918  0.4019 -0.9149
 4700TIP3   OH235734   5.214   6.787   0.113  0.3345 -0.4328 -0.0789
 4700TIP3    H135735   5.127   6.776   0.075  1.0114 -1.3545 -1.4090
 4700TIP3    H235736   5.213   6.877   0.148  0.0921  1.0576 -3.4909
 4701TIP3   OH235737   6.446   3.164   7.475 -0.2774 -0.0985  0.4361
 4701TIP3    H135738   6.417   3.197   7.560 -0.4154 -0.9986  0.7531
 4701TIP3    H235739   6.365   3.150   7.426 -0.2875 -0.8545  0.6521
 4702TIP3   OH235740   0.135   3.456   2.389  0.3079  0.0747  0.4105
 4702TIP3    H135741   0.127   3.409   2.472 -1.7377 -0.7510 -0.1780
 4702TIP3    H235742   0.052   3.503   2.380  1.4264  2.0813 -0.0919
 4703TIP3   OH235743   3.376   6.364   7.093  0.4201 -0.5276 -0.0897
 4703TIP3    H135744   3.383   6.347   7.000 -0.6114 -0.3889 -0.2029
 4703TIP3    H235745   3.386   6.278   7.134  1.0649 -0.5616 -0.3065
 4704TIP3   OH235746   5.349   1.931   8.196 -0.1008 -0.9171 -0.1608
 4704TIP3    H135747   5.403   2.009   8.200  0.2549 -1.0838 -1.3860
 4704TIP3    H235748   5.271   1.957   8.148 -0.5845 -0.9918  0.5592
 4705TIP3   OH235749   3.130   4.863   0.767 -0.2359  0.5965 -0.2188
 4705TIP3    H135750   3.194   4.912   0.817  0.6246  0.1357 -0.8405
 4705TIP3    H235751   3.045   4.889   0.803  0.3783 -1.3325  3.0384
 4706TIP3   OH235752   0.832   4.715   7.953  0.4097  1.2304 -0.5557
 4706TIP3    H135753   0.755   4.734   7.899 -0.0222  2.2443  0.3893
 4706TIP3    H235754   0.810   4.749   8.040  0.9382 -0.7058  0.3985
 4707TIP3   OH235755   1.675   3.582   7.120 -0.7901 -1.0067 -0.3420
 4707TIP3    H135756   1.707   3.595   7.210  0.1003 -2.1539 -0.4650
 4707TIP3    H235757   1.580   3.592   7.126 -0.7466 -1.1490  0.7436
 4708TIP3   OH235758   5.973   5.603   0.729  0.0797  0.5740  0.0351
 4708TIP3    H135759   5.920   5.531   0.696 -0.6812  1.0697  0.1501
 4708TIP3    H235760   5.995   5.578   0.819  1.2711 -0.2910 -0.4700
 4709TIP3   OH235761   6.229   5.070   1.623 -0.1219 -0.7012  0.0139
 4709TIP3    H135762   6.193   5.008   1.688  3.4306 -2.3273  0.6712
 4709TIP3    H235763   6.255   5.015   1.549 -0.3097  0.5826 -1.0438
 4710TIP3   OH235764   0.235   1.712   2.323  0.3659  0.0920  0.4728
 4710TIP3    H135765   0.165   1.770   2.293 -0.6595 -2.2471 -2.0261
 4710TIP3    H235766   0.199   1.670   2.401 -0.0322  0.6576  0.5987
 4711TIP3   OH235767   2.013   0.859   1.214 -0.3327  0.7313  0.1290
 4711TIP3    H135768   2.041   0.834   1.125  0.1147  1.1621  0.1448
 4711TIP3    H235769   1.983   0.777   1.253  0.7115  0.2843  0.0324
 4712TIP3   OH235770   1.790   0.335   1.335 -0.4620  0.3876  0.5207
 4712TIP3    H135771   1.746   0.351   1.419 -0.7132 -0.0825  0.4832
 4712TIP3    H235772   1.880   0.362   1.350 -0.3340 -0.3529  1.1711
 4713TIP3   OH235773   1.893   6.421   8.358  0.2747 -0.6926 -0.3817
 4713TIP3    H135774   1.857   6.479   8.425  0.8036 -1.0343  0.2118
 4713TIP3    H235775   1.819   6.399   8.302  0.3480  1.9016 -1.6456
 4714TIP3   OH235776   3.615   0.529   0.186  0.2437  0.1771  0.1449
 4714TIP3    H135777   3.598   0.520   0.092 -0.2090 -1.7913  0.3713
 4714TIP3    H235778   3.647   0.619   0.196  0.3757  0.4054 -1.8874
 4715TIP3   OH235779   1.982   0.004   7.188  0.1734  0.1046  0.1665
 4715TIP3    H135780   1.936   0.067   7.243  0.6514  0.1958  0.4714
 4715TIP3    H235781   2.001  -0.069   7.247 -0.0678 -0.1697 -0.0949
 4716TIP3   OH235782   1.665   5.425   1.901 -0.4102 -0.0246  0.5748
 4716TIP3    H135783   1.580   5.463   1.923 -0.7087 -0.7524  0.7268
 4716TIP3    H235784   1.716   5.433   1.981  0.1446  1.6264  0.0976
 4717TIP3   OH235785   2.013   6.225   7.505  0.3787  0.0127  0.2084
 4717TIP3    H135786   2.035   6.317   7.520 -2.1348  0.7763 -0.2397
 4717TIP3    H235787   1.977   6.195   7.589 -2.4094  0.6841 -0.6299
 4718TIP3   OH235788   6.724   5.216   7.606  0.3270 -0.4775 -0.1636
 4718TIP3    H135789   6.677   5.197   7.687  1.0871 -0.5028  0.2886
 4718TIP3    H235790   6.808   5.252   7.635  0.4477 -0.0974 -0.9514
 4719TIP3   OH235791   4.857   3.623   7.509  0.0014 -0.5643  0.6579
 4719TIP3    H135792   4.882   3.701   7.559 -0.4038  0.6453 -0.9220
 4719TIP3    H235793   4.764   3.635   7.491  0.0127 -1.2372  0.1123
 4720TIP3   OH235794   1.812   4.171   1.720  0.2394  0.1356 -0.6343
 4720TIP3    H135795   1.893   4.221   1.720  0.2171  0.1729 -0.7576
 4720TIP3    H235796   1.821   4.110   1.794  0.5515 -0.1359 -0.8916
 4721TIP3   OH235797   6.793   5.241   6.772  0.0121 -0.1651 -0.0446
 4721TIP3    H135798   6.699   5.254   6.758  0.2481  0.0928 -1.5483
 4721TIP3    H235799   6.816   5.170   6.711  0.8471 -0.0095  0.0850
 4722TIP3   OH235800   2.993   0.327   0.213  0.1096  0.3114 -0.2626
 4722TIP3    H135801   2.972   0.418   0.190  1.0488 -0.1485 -3.5874
 4722TIP3    H235802   2.964   0.277   0.137  1.1324 -1.9668  0.7695
 4723TIP3   OH235803   1.081   1.300   7.013 -0.1269 -0.8783  0.1208
 4723TIP3    H135804   1.041   1.311   7.099  1.5891 -0.5899  0.9069
 4723TIP3    H235805   1.138   1.376   7.003  0.0160 -1.1258 -1.0993
 4724TIP3   OH235806   0.183   4.266   0.353 -0.3887 -0.1724 -0.1285
 4724TIP3    H135807   0.203   4.200   0.286  0.4613 -1.8476  1.6838
 4724TIP3    H235808   0.088   4.262   0.363 -0.6972  1.0132 -2.0658
 4725TIP3   OH235809   6.725   6.535   1.924  0.2334 -0.1293 -0.4932
 4725TIP3    H135810   6.738   6.472   1.995  0.2495  0.6567  0.2185
 4725TIP3    H235811   6.787   6.605   1.943 -1.2610  1.1367 -0.0266
 4726TIP3   OH235812   0.909   3.365   0.508 -0.3332  0.4187  0.5054
 4726TIP3    H135813   1.004   3.362   0.521 -0.6466 -1.6574  2.7423
 4726TIP3    H235814   0.881   3.442   0.557 -0.0420 -0.2646  1.7731
 4727TIP3   OH235815   0.872   5.411   7.630 -0.5197 -0.1695 -0.2258
 4727TIP3    H135816   0.858   5.317   7.642  2.4185 -0.6557  0.0856
 4727TIP3    H235817   0.894   5.420   7.537 -1.7067  0.4176 -0.4832
 4728TIP3   OH235818   6.803   4.874   8.391 -0.1219 -0.1323  0.0369
 4728TIP3    H135819   6.731   4.825   8.353 -0.7146 -0.4274  1.4668
 4728TIP3    H235820   6.843   4.814   8.454  0.6825  0.4023  0.0582
 4729TIP3   OH235821   1.120   4.465   2.230  1.0547  0.1882 -0.3627
 4729TIP3    H135822   1.140   4.525   2.301 -0.4735  0.4501 -0.1211
 4729TIP3    H235823   1.144   4.379   2.264  2.0821  0.5077 -0.2466
 4730TIP3   OH235824   0.198   4.594   8.754 -0.2249 -0.2496 -0.3907
 4730TIP3    H135825   0.255   4.552   8.691  0.5737  0.0384  0.1224
 4730TIP3    H235826   0.170   4.523   8.813  0.8900 -0.1305  0.3031
 4731TIP3   OH235827   2.125   6.492   1.117  0.0319 -0.3124  0.2133
 4731TIP3    H135828   2.196   6.428   1.119  0.4830  0.1924  1.0063
 4731TIP3    H235829   2.076   6.472   1.037 -0.7012 -2.5407  1.1683
 4732TIP3   OH235830   3.992   2.466   1.693 -0.0568 -0.1323 -0.4271
 4732TIP3    H135831   3.976   2.379   1.657 -1.3114  0.3805 -1.1706
 4732TIP3    H235832   3.965   2.526   1.623  0.3632  0.8579  0.2417
 4733TIP3   OH235833   3.189   5.375   8.140  0.1290  0.4016 -0.1531
 4733TIP3    H135834   3.247   5.382   8.064 -0.2824  1.4358 -0.4017
 4733TIP3    H235835   3.117   5.320   8.110 -0.2664  1.1878 -0.6910
 4734TIP3   OH235836   0.467   5.120   8.431  0.7281  0.2791 -0.2331
 4734TIP3    H135837   0.442   5.130   8.523  0.8504 -1.8353  0.0654
 4734TIP3    H235838   0.413   5.048   8.399  0.8111  0.8665 -1.7976
 4735TIP3   OH235839   2.581   4.782   1.215  0.1010 -0.0579 -0.3418
 4735TIP3    H135840   2.543   4.771   1.127  0.6252 -1.2587 -0.4302
 4735TIP3    H235841   2.656   4.723   1.216  0.2669  0.1622  0.8229
 4736TIP3   OH235842   2.577   5.087   1.304 -0.2519 -0.8767 -0.0964
 4736TIP3    H135843   2.537   5.005   1.332 -0.7746 -0.4615  0.3879
 4736TIP3    H235844   2.528   5.155   1.350  1.3198 -0.3653  0.8788
 4737TIP3   OH235845   2.500   6.526   8.536  0.2025 -0.2617 -0.3942
 4737TIP3    H135846   2.583   6.492   8.501  0.3859  1.0366 -1.3058
 4737TIP3    H235847   2.446   6.449   8.549  1.3956 -1.0982 -0.2042
 4738TIP3   OH235848   4.226   3.781   8.708  0.3907 -0.1977  0.3729
 4738TIP3    H135849   4.143   3.789   8.754  1.0176 -1.5768  1.8758
 4738TIP3    H235850   4.208   3.808   8.618 -1.3240  0.8590  0.9943
 4739TIP3   OH235851   5.744   4.527   8.802 -0.2720 -0.0318 -0.0379
 4739TIP3    H135852   5.824   4.535   8.854 -0.7950  0.5251  0.7121
 4739TIP3    H235853   5.677   4.501   8.865 -0.9280  0.7045 -0.4083
 4740TIP3   OH235854   3.485   5.681   1.925 -0.7542 -0.3140 -0.0190
 4740TIP3    H135855   3.580   5.685   1.942 -0.7429  0.3429 -0.2015
 4740TIP3    H235856   3.448   5.645   2.005 -0.4007 -0.0377  0.2749
 4741TIP3   OH235857   3.523   6.010   6.847 -0.1312  0.2188  0.2249
 4741TIP3    H135858   3.619   6.008   6.848 -0.1332 -0.3565  1.6247
 4741TIP3    H235859   3.501   6.024   6.755  1.2720 -1.3840 -0.4206
 4742TIP3   OH235860   5.545   5.664   8.417 -0.1391 -0.2513  0.4054
 4742TIP3    H135861   5.617   5.681   8.357 -1.2823 -2.0658 -1.6266
 4742TIP3    H235862   5.488   5.740   8.408  0.8827  0.6325  1.1280
 4743TIP3   OH235863   4.667   0.285   0.749  0.1097  0.3374 -0.2023
 4743TIP3    H135864   4.641   0.301   0.840  1.0850  2.2701 -0.2121
 4743TIP3    H235865   4.687   0.191   0.746 -0.1599  0.1869  1.5035
 4744TIP3   OH235866   1.480   3.387   2.384 -0.3233 -0.2156 -0.2835
 4744TIP3    H135867   1.399   3.421   2.345 -0.0041  1.1531  0.1889
 4744TIP3    H235868   1.544   3.389   2.313 -0.3940 -0.1646 -0.3457
 4745TIP3   OH235869   2.031   0.136   1.266 -0.1860  0.2461 -0.2505
 4745TIP3    H135870   2.107   0.193   1.253  0.8948 -1.5015 -2.0506
 4745TIP3    H235871   1.960   0.179   1.217  0.7512 -0.1328 -2.0284
 4746TIP3   OH235872   3.503   1.571   8.110 -0.6156  0.1988 -0.1564
 4746TIP3    H135873   3.420   1.583   8.155 -1.0141 -2.0585 -0.1739
 4746TIP3    H235874   3.567   1.552   8.179 -0.4509  0.3682 -0.2601
 4747TIP3   OH235875   5.979   3.339   7.734 -0.1431 -0.0830  0.7791
 4747TIP3    H135876   6.035   3.262   7.740 -0.0972 -0.2511 -1.1459
 4747TIP3    H235877   6.029   3.402   7.682 -1.7094 -0.2860 -1.1025
 4748TIP3   OH235878   4.824   5.900   7.926 -0.3038 -0.0474 -0.0361
 4748TIP3    H135879   4.774   5.818   7.931 -0.0012 -0.3616 -1.5911
 4748TIP3    H235880   4.757   5.968   7.920 -0.5699 -0.3698 -0.9155
 4749TIP3   OH235881   3.089   6.816   0.609 -0.3464 -0.3445  0.2454
 4749TIP3    H135882   3.056   6.726   0.615 -0.4321 -0.2775  0.8558
 4749TIP3    H235883   3.013   6.870   0.630  0.3657 -0.2074  2.9292
 4750TIP3   OH235884   3.158   3.962   6.976  0.8839 -0.2245  0.9104
 4750TIP3    H135885   3.125   3.872   6.967 -2.3048  0.8315  0.7942
 4750TIP3    H235886   3.184   3.986   6.887 -3.0107  0.4952 -0.2195
 4751TIP3   OH235887   4.865   1.669   2.043 -0.4661  0.4518 -0.2700
 4751TIP3    H135888   4.867   1.578   2.013  0.7908  0.3654  0.0173
 4751TIP3    H235889   4.776   1.682   2.075 -1.1040 -0.2067 -1.7144
 4752TIP3   OH235890   4.839   5.921   2.413 -0.1216  0.8172 -0.7199
 4752TIP3    H135891   4.792   5.858   2.466  0.1586  0.5740 -0.7579
 4752TIP3    H235892   4.771   5.982   2.382 -0.3479  0.7040 -0.4506
 4753TIP3   OH235893   6.577   4.909   7.992  0.2476  1.0285  0.2759
 4753TIP3    H135894   6.514   4.980   8.003 -0.1753  0.4797  1.5629
 4753TIP3    H235895   6.527   4.839   7.951  0.4917  1.2128 -0.3532
 4754TIP3   OH235896   3.535   1.007   6.900 -0.0370  0.3279  0.1062
 4754TIP3    H135897   3.630   1.008   6.889  0.0651  1.9991  0.9318
 4754TIP3    H235898   3.501   1.042   6.818  0.0404 -0.2404 -0.1770
 4755TIP3   OH235899   6.390   6.188   0.454  0.4907  0.5787  0.2004
 4755TIP3    H135900   6.410   6.193   0.548 -1.1807  1.1143  0.5619
 4755TIP3    H235901   6.344   6.269   0.435 -0.2823 -0.0714 -0.8073
 4756TIP3   OH235902   0.058   6.472   0.788 -0.0047 -0.1005 -0.0401
 4756TIP3    H135903  -0.033   6.487   0.812 -0.2363  0.3571 -1.1513
 4756TIP3    H235904   0.109   6.514   0.857 -0.6294 -0.0552  0.3978
 4757TIP3   OH235905   5.929   0.061   0.194 -0.1108  0.5818 -0.0367
 4757TIP3    H135906   5.937   0.156   0.198  1.7002  0.4637  0.0222
 4757TIP3    H235907   5.974   0.029   0.272  1.0863 -0.3702 -1.0713
 4758TIP3   OH235908   2.945   3.887   0.087  0.0550 -0.5689  0.6164
 4758TIP3    H135909   2.976   3.943   0.159 -1.7107  0.4830  0.6123
 4758TIP3    H235910   3.024   3.844   0.055  1.7413  2.6847 -0.0535
 4759TIP3   OH235911   4.608   6.492   7.780 -0.0512 -0.3800  0.2811
 4759TIP3    H135912   4.614   6.587   7.767  0.3385 -0.4300  0.1002
 4759TIP3    H235913   4.516   6.478   7.804 -0.4165 -0.1045 -0.8896
 4760TIP3   OH235914   4.963   1.939   0.815 -0.7025  0.0576  0.1129
 4760TIP3    H135915   4.891   1.918   0.756 -2.2676 -0.1460  1.9923
 4760TIP3    H235916   4.964   1.867   0.878  0.6901  0.4317  0.5547
 4761TIP3   OH235917   0.746   2.101   1.648  0.9590  0.0879  0.0518
 4761TIP3    H135918   0.779   2.178   1.695  1.0021 -1.0699  2.0318
 4761TIP3    H235919   0.660   2.128   1.616  0.0855  0.3913  2.4555
 4762TIP3   OH235920   6.288   3.085   0.654 -0.4674 -0.7722 -0.1674
 4762TIP3    H135921   6.322   3.132   0.729 -0.7555  2.3519 -1.8315
 4762TIP3    H235922   6.196   3.067   0.676 -0.5283  0.0429  0.2530
 4763TIP3   OH235923   1.013   6.606   0.538 -0.6264  0.5793  0.0432
 4763TIP3    H135924   1.018   6.588   0.444  0.7291  0.9457  0.0241
 4763TIP3    H235925   1.070   6.682   0.551 -0.6235  0.4024  1.1996
 4764TIP3   OH235926   3.249   3.160   2.568 -0.0238  0.3347  0.4306
 4764TIP3    H135927   3.342   3.175   2.585  0.1364  0.3433 -0.4227
 4764TIP3    H235928   3.232   3.073   2.604  0.5228 -0.0266 -0.1500
 4765TIP3   OH235929   4.405   3.218   2.299 -0.0022 -0.6161 -0.0521
 4765TIP3    H135930   4.433   3.293   2.350  1.8394 -1.6897  0.6076
 4765TIP3    H235931   4.342   3.173   2.355 -3.0509  1.5919 -1.3870
 4766TIP3   OH235932   1.240   6.395   7.376 -0.3465 -0.2029  0.4475
 4766TIP3    H135933   1.193   6.377   7.457  0.8167  0.9261  1.4318
 4766TIP3    H235934   1.332   6.375   7.396  0.1051  1.0166 -0.2549
 4767TIP3   OH235935   4.042   4.098   0.891  0.0173 -0.4692  0.0861
 4767TIP3    H135936   4.080   4.168   0.838 -0.8541  0.6719  0.9009
 4767TIP3    H235937   3.969   4.065   0.837 -1.9625  1.8414  1.1407
 4768TIP3   OH235938   6.385   5.820   1.850  0.0153  0.1948 -0.5742
 4768TIP3    H135939   6.335   5.754   1.899 -0.6060 -0.8888 -2.5818
 4768TIP3    H235940   6.438   5.864   1.917  0.1607 -2.0696  0.9041
 4769TIP3   OH235941   6.244   0.816   6.930  0.3127  0.1898 -0.1566
 4769TIP3    H135942   6.196   0.733   6.926  0.0837  0.3062  0.1657
 4769TIP3    H235943   6.251   0.844   6.839  0.8257 -0.4333 -0.3173
 4770TIP3   OH235944   0.198   2.557   1.816 -0.1404 -0.8732 -0.0864
 4770TIP3    H135945   0.213   2.465   1.834 -0.2285 -0.5797  1.7040
 4770TIP3    H235946   0.127   2.582   1.876 -0.4791  0.2367 -0.9027
 4771TIP3   OH235947   2.619   0.909   8.490 -0.2744  0.5809  0.2889
 4771TIP3    H135948   2.560   0.838   8.517 -1.2497  1.2069 -0.1476
 4771TIP3    H235949   2.572   0.989   8.514  1.5868  1.1301  2.4674
 4772TIP3   OH235950   3.980   1.632   6.343 -0.1136  0.1415 -0.2010
 4772TIP3    H135951   4.000   1.539   6.328  0.5816  0.0518  1.1565
 4772TIP3    H235952   3.927   1.657   6.267  0.0899 -1.2337 -0.8365
 4773TIP3   OH235953   0.160   6.492   1.240  0.4578 -0.6127 -0.1386
 4773TIP3    H135954   0.066   6.511   1.234  0.3371 -1.5692 -2.3356
 4773TIP3    H235955   0.176   6.481   1.333 -1.8358 -1.3533  0.2456
 4774TIP3   OH235956   4.349   5.031   8.292 -0.0229  0.4780 -0.0447
 4774TIP3    H135957   4.367   4.979   8.213 -1.4497  0.0410 -0.1117
 4774TIP3    H235958   4.305   4.970   8.351 -0.1710  1.1625  0.5639
 4775TIP3   OH235959   2.446   2.101   8.820 -0.0526 -0.1825  0.3827
 4775TIP3    H135960   2.507   2.165   8.856 -1.4513  0.9585  0.8251
 4775TIP3    H235961   2.423   2.045   8.895  1.6792 -1.7042 -0.1430
 4776TIP3   OH235962   0.584   4.069   1.243 -0.1493 -0.0506 -0.4158
 4776TIP3    H135963   0.649   4.067   1.172 -1.3382 -1.1746 -1.5298
 4776TIP3    H235964   0.578   4.162   1.267  3.2288 -0.0924  1.0984
 4777TIP3   OH235965   2.184   3.808   1.187  0.2238 -0.1779  0.0114
 4777TIP3    H135966   2.132   3.728   1.194  0.9151 -0.6886 -0.5629
 4777TIP3    H235967   2.269   3.778   1.156  1.2320  0.5053  1.9546
 4778TIP3   OH235968   0.804   2.378   1.813 -0.1597  0.0908 -0.3592
 4778TIP3    H135969   0.860   2.356   1.887 -1.4727  0.7978  0.8997
 4778TIP3    H235970   0.715   2.381   1.850 -1.2152 -1.9363 -2.4586
 4779TIP3   OH235971   4.179   2.818   8.778  0.1732  0.1755 -0.4207
 4779TIP3    H135972   4.201   2.728   8.804 -0.8233  0.0510  0.0208
 4779TIP3    H235973   4.255   2.847   8.728  0.0936 -1.2819 -1.4598
 4780TIP3   OH235974   0.382   3.982   7.461 -0.9399 -0.1249  0.0954
 4780TIP3    H135975   0.319   4.047   7.429 -0.9075  0.9907  2.1547
 4780TIP3    H235976   0.335   3.935   7.530  0.1259  0.0468  0.9692
 4781TIP3   OH235977   3.811   3.073   0.814  0.1679  0.0327 -0.3711
 4781TIP3    H135978   3.876   3.059   0.883  1.1303 -0.5944 -1.3719
 4781TIP3    H235979   3.831   3.160   0.779 -0.5009  0.4710  0.3106
 4782TIP3   OH235980   6.501   2.276   1.894 -0.1894  0.5300  0.1240
 4782TIP3    H135981   6.589   2.283   1.929  0.2038 -2.1698 -0.1019
 4782TIP3    H235982   6.445   2.265   1.972 -0.0473  0.0534  0.1571
 4783TIP3   OH235983   1.808   4.030   8.325  1.0426 -0.2438 -0.0962
 4783TIP3    H135984   1.813   4.010   8.418  0.7461  1.3357  0.2758
 4783TIP3    H235985   1.719   4.006   8.300  0.7623  0.3641  0.2940
 4784TIP3   OH235986   6.700   0.398   6.785  0.2753 -0.5127  0.2886
 4784TIP3    H135987   6.761   0.471   6.779 -0.2584 -0.1580 -1.0195
 4784TIP3    H235988   6.723   0.341   6.712 -0.3700 -0.8420  0.3354
 4785TIP3   OH235989   2.985   1.580   2.108  0.6809  0.8008  0.3611
 4785TIP3    H135990   3.028   1.528   2.040 -3.2339 -1.9457 -0.3462
 4785TIP3    H235991   3.031   1.556   2.188  1.9237 -0.1642 -0.5865
 4786TIP3   OH235992   3.788   4.037   1.296 -0.0005  0.0953 -0.3982
 4786TIP3    H135993   3.696   4.037   1.322 -0.0276  0.5555 -0.4882
 4786TIP3    H235994   3.829   3.969   1.350 -0.4197 -0.2040 -0.4565
 4787TIP3   OH235995   1.934   5.824   0.565 -0.2462 -0.2874  0.3656
 4787TIP3    H135996   2.016   5.858   0.529 -0.6226  0.4920  0.2225
 4787TIP3    H235997   1.881   5.806   0.487 -0.7949  0.7137  0.4996
 4788TIP3   OH235998   4.014   4.618   0.815 -0.0376 -0.2374  0.2904
 4788TIP3    H135999   3.978   4.549   0.870  0.4045  0.0349  0.9324
 4788TIP3    H236000   3.971   4.698   0.845 -0.6522 -0.2366 -0.5428
 4789TIP3   OH236001   6.208   1.304   0.694 -0.1310 -0.0319 -0.3572
 4789TIP3    H136002   6.222   1.393   0.727 -0.4811 -0.7184  1.8115
 4789TIP3    H236003   6.257   1.248   0.754 -2.2239 -1.5031  0.0976
 4790TIP3   OH236004   5.609   2.621   6.491  0.1999 -0.0218  0.3993
 4790TIP3    H136005   5.635   2.532   6.468  1.9218  0.8183 -1.1649
 4790TIP3    H236006   5.518   2.628   6.462  0.8702 -0.4811 -2.0500
 4791TIP3   OH236007   2.540   3.408   1.642  0.1786  0.2027  0.0901
 4791TIP3    H136008   2.624   3.445   1.615 -0.0447  0.8666  0.2849
 4791TIP3    H236009   2.475   3.458   1.593 -0.1073 -0.3103 -0.0624
 4792TIP3   OH236010   6.102   4.869   1.751 -0.1916  0.1512  0.6536
 4792TIP3    H136011   6.065   4.837   1.669 -0.0910  1.5478  0.0377
 4792TIP3    H236012   6.068   4.809   1.817 -0.6162 -0.7477 -0.3431
 4793TIP3   OH236013   1.762   5.880   7.942 -0.3014  0.0697 -0.2675
 4793TIP3    H136014   1.724   5.799   7.977 -0.4959  0.1837 -0.2123
 4793TIP3    H236015   1.707   5.949   7.978 -0.3914  0.2011 -0.6549
 4794TIP3   OH236016   2.808   3.952   8.609  0.3565  0.2575  0.1024
 4794TIP3    H136017   2.749   3.880   8.628  0.8794 -0.5186 -1.1199
 4794TIP3    H236018   2.885   3.935   8.664 -0.2180  0.8675  1.1343
 4795TIP3   OH236019   1.698   2.302   6.886  0.1264  0.0829  0.7422
 4795TIP3    H136020   1.793   2.301   6.875  0.1393  1.0998  0.7084
 4795TIP3    H236021   1.668   2.226   6.836  0.8307  0.4104 -0.2172
 4796TIP3   OH236022   4.919   2.099   7.051 -0.5389  0.1708 -0.3361
 4796TIP3    H136023   4.911   2.151   7.131  0.2201  0.4258 -0.4191
 4796TIP3    H236024   5.010   2.070   7.051 -0.7802 -0.5970 -0.6418
 4797TIP3   OH236025   2.790   0.236   7.437  0.2373 -0.0644 -0.2921
 4797TIP3    H136026   2.776   0.320   7.481 -0.9907 -0.2641 -0.2591
 4797TIP3    H236027   2.847   0.257   7.363  1.0792  0.5409  0.5014
 4798TIP3   OH236028   1.121   6.352   7.630 -0.3342 -0.3116  0.5279
 4798TIP3    H136029   1.092   6.443   7.639  0.6299  0.0967 -0.3026
 4798TIP3    H236030   1.040   6.301   7.631 -1.1723  0.7926 -1.8714
 4799TIP3   OH236031   6.128   2.873   6.359 -0.5294  0.0755 -0.1575
 4799TIP3    H136032   6.156   2.959   6.390 -2.0439  0.2849  0.7359
 4799TIP3    H236033   6.187   2.811   6.402 -1.5585  0.4744  1.9610
 4800TIP3   OH236034   3.639   2.762   8.042  0.3874 -0.4999 -0.1437
 4800TIP3    H136035   3.558   2.785   7.995 -0.0657 -2.4374 -0.4236
 4800TIP3    H236036   3.646   2.826   8.112 -1.5829 -0.4492  0.0586
 4801TIP3   OH236037   1.094   5.864   8.366 -0.5458  0.1019  0.0948
 4801TIP3    H136038   1.153   5.908   8.428  0.5809  2.6441 -2.5405
 4801TIP3    H236039   1.144   5.789   8.334 -0.8045 -0.7217  1.5046
 4802TIP3   OH236040   5.618   0.501   8.032 -0.2074  0.3978  0.0085
 4802TIP3    H136041   5.580   0.496   7.944 -0.5988  0.0034  0.1958
 4802TIP3    H236042   5.597   0.589   8.062 -1.5888 -0.0326  0.3775
 4803TIP3   OH236043   5.180   4.024   8.397  0.6020  0.6068  0.3983
 4803TIP3    H136044   5.108   3.968   8.426  0.9022  1.4766  3.0825
 4803TIP3    H236045   5.204   3.990   8.310 -3.9243  1.2131 -1.3385
 4804TIP3   OH236046   0.827   0.409   7.240  0.0144 -0.5189  0.0675
 4804TIP3    H136047   0.820   0.364   7.156 -0.2988 -0.5791  0.1231
 4804TIP3    H236048   0.854   0.341   7.302 -0.8290 -0.7224  0.2253
 4805TIP3   OH236049   4.536   3.867   8.785 -0.3208  0.6383  0.0521
 4805TIP3    H136050   4.561   3.775   8.784  3.0876  1.4178 -1.5617
 4805TIP3    H236051   4.491   3.879   8.869  1.1406 -2.0064  1.3447
 4806TIP3   OH236052   3.486   6.116   7.208 -0.1117 -0.3288 -0.0310
 4806TIP3    H136053   3.402   6.108   7.254 -0.3104 -1.4900 -0.5439
 4806TIP3    H236054   3.512   6.025   7.191  1.9811 -0.0512  1.3822
 4807TIP3   OH236055   6.531   3.197   6.928  0.5103 -0.0604  0.1854
 4807TIP3    H136056   6.544   3.210   6.834  1.5117  1.2267  0.4778
 4807TIP3    H236057   6.607   3.146   6.956  0.2264 -0.4191  0.3189
 4808TIP3   OH236058   6.522   3.948   0.325  0.0606 -0.1447  0.1399
 4808TIP3    H136059   6.614   3.922   0.329  0.0011 -0.8644 -1.9845
 4808TIP3    H236060   6.478   3.892   0.389  0.6796 -1.9992 -0.9662
 4809TIP3   OH236061   2.486   0.728   6.585  0.5054 -0.8388  1.1091
 4809TIP3    H136062   2.568   0.682   6.604  0.7983 -1.3856 -1.1625
 4809TIP3    H236063   2.421   0.658   6.575  0.3052 -0.5636  0.4757
 4810TIP3   OH236064   0.543   6.730   0.012  0.0413 -0.2753  0.0201
 4810TIP3    H136065   0.611   6.720  -0.054 -0.9451 -0.3667 -1.0206
 4810TIP3    H236066   0.484   6.796  -0.024 -0.3140 -0.0387  0.9975
 4811TIP3   OH236067   6.596   1.116   7.466  0.1077 -0.0101  0.2541
 4811TIP3    H136068   6.653   1.186   7.434  0.1606 -0.3893 -0.4998
 4811TIP3    H236069   6.526   1.110   7.401  1.5430 -2.4663 -1.2541
 4812TIP3   OH236070   5.902   4.967   8.218  0.4865 -0.1521  0.2631
 4812TIP3    H136071   5.862   4.932   8.137 -0.5535  0.6124  0.4222
 4812TIP3    H236072   5.957   4.895   8.250 -1.1230 -1.4553  0.2551
 4813TIP3   OH236073   4.502   3.286   8.179  0.4475 -0.0492  0.2835
 4813TIP3    H136074   4.451   3.340   8.240 -0.1007 -0.0675 -0.1488
 4813TIP3    H236075   4.593   3.309   8.197  0.2476  0.5865  0.5128
 4814TIP3   OH236076   3.870   0.299   7.855  0.5155 -0.3906 -1.2387
 4814TIP3    H136077   3.926   0.308   7.777  0.3255  2.1655 -1.1800
 4814TIP3    H236078   3.859   0.389   7.886  0.0199 -1.2808  1.3806
 4815TIP3   OH236079   5.080   3.389   7.267 -0.1800  0.2535  0.2969
 4815TIP3    H136080   5.033   3.312   7.300 -1.1681  0.6598 -0.0976
 4815TIP3    H236081   5.115   3.362   7.182 -1.2668  0.4813 -0.2426
 4816TIP3   OH236082   6.273   4.345   2.197 -0.3860  0.1640 -0.6917
 4816TIP3    H136083   6.239   4.417   2.250 -2.6260  1.0385 -3.0944
 4816TIP3    H236084   6.214   4.272   2.215 -0.2062 -0.0059 -0.7905
 4817TIP3   OH236085   6.103   5.164   8.175 -1.0105 -0.3249 -0.3224
 4817TIP3    H136086   6.157   5.155   8.254 -1.6453  1.2639  0.3421
 4817TIP3    H236087   6.028   5.107   8.191 -1.5611  0.6223  0.6504
 4818TIP3   OH236088   0.096   2.849   7.934  0.0004  0.6331 -0.8494
 4818TIP3    H136089   0.163   2.908   7.969 -0.7792  0.6447  0.6861
 4818TIP3    H236090   0.028   2.908   7.901  0.7569  0.6257 -2.5627
 4819TIP3   OH236091   1.349   6.556   1.686  0.2422  0.0438  0.1073
 4819TIP3    H136092   1.314   6.508   1.761  1.7717 -1.6906 -0.2229
 4819TIP3    H236093   1.429   6.509   1.662  0.2024  0.9992 -2.1517
 4820TIP3   OH236094   4.301   6.018   6.328  0.0340  0.3569 -0.2143
 4820TIP3    H136095   4.325   5.945   6.271 -0.8842  0.5265 -0.8353
 4820TIP3    H236096   4.385   6.050   6.363  0.6067  0.1597 -1.3614
 4821TIP3   OH236097   3.492   5.759   0.934  0.4774 -0.4237 -0.6323
 4821TIP3    H136098   3.527   5.828   0.991  1.5802 -1.9086  0.5559
 4821TIP3    H236099   3.508   5.791   0.845  0.0906  1.2728 -0.1314
 4822TIP3   OH236100   5.218   4.068   6.897 -0.4031 -0.4116  1.0953
 4822TIP3    H136101   5.170   3.986   6.884  0.1849 -0.7893  1.2583
 4822TIP3    H236102   5.209   4.087   6.990  1.6009 -1.6853  1.6204
 4823TIP3   OH236103   6.686   2.303   6.999 -0.2962 -0.1562  0.1159
 4823TIP3    H136104   6.734   2.382   7.022 -0.1113 -0.3045  0.2444
 4823TIP3    H236105   6.637   2.280   7.078  2.4249 -2.2033  1.3902
 4824TIP3   OH236106   0.212   5.226   2.407 -0.2191  0.1890  0.3205
 4824TIP3    H136107   0.180   5.223   2.497  2.0163 -3.2820  1.2161
 4824TIP3    H236108   0.150   5.173   2.358 -0.1388  0.0391  0.3778
 4825TIP3   OH236109   3.707   4.861   0.710  0.3377 -0.4465 -0.3112
 4825TIP3    H136110   3.748   4.833   0.792  1.0040  0.9694 -0.1388
 4825TIP3    H236111   3.618   4.887   0.735  0.9093  1.0993  0.1968
 4826TIP3   OH236112   5.222   0.515   1.768 -0.1947  0.6765 -0.4041
 4826TIP3    H136113   5.255   0.550   1.686  0.7818  0.2543 -0.2073
 4826TIP3    H236114   5.141   0.470   1.744 -0.9156  2.1559 -0.8154
 4827TIP3   OH236115   3.913   1.843   8.108  0.1419 -0.2512  0.3725
 4827TIP3    H136116   3.832   1.856   8.059  0.0495  0.1293  0.6176
 4827TIP3    H236117   3.901   1.760   8.154  0.2660 -0.6544 -0.3151
 4828TIP3   OH236118   0.468   1.348   7.570 -0.1602 -0.4229  0.2709
 4828TIP3    H136119   0.529   1.366   7.499 -0.8895  2.1310  0.2032
 4828TIP3    H236120   0.407   1.283   7.534 -0.6691  1.0130 -1.5563
 4829TIP3   OH236121   1.376   0.352   8.067 -0.4666  0.2017  0.2458
 4829TIP3    H136122   1.329   0.435   8.067 -1.8874 -0.4266  3.7020
 4829TIP3    H236123   1.468   0.377   8.073 -0.7337  1.4838 -0.4930
 4830TIP3   OH236124   2.210   4.214   8.006 -0.1509  0.1802  0.4057
 4830TIP3    H136125   2.255   4.165   7.937  0.5778  0.1325  0.9092
 4830TIP3    H236126   2.190   4.299   7.966  0.8203  0.3838  0.3187
 4831TIP3   OH236127   5.246   1.963   8.581 -0.1973 -0.5533 -0.0527
 4831TIP3    H136128   5.234   2.056   8.601  0.9782 -0.5470  0.7551
 4831TIP3    H236129   5.206   1.918   8.655 -0.0963 -0.6587 -0.0621
 4832TIP3   OH236130   3.683   3.944   7.276 -0.3399  0.4693 -0.0727
 4832TIP3    H136131   3.681   3.971   7.368 -1.9786 -0.2401  0.1449
 4832TIP3    H236132   3.760   3.987   7.240 -0.4033  1.8453  1.3049
 4833TIP3   OH236133   0.503   5.408   1.081  0.0499  0.2627 -0.4453
 4833TIP3    H136134   0.480   5.406   1.174  1.3746  1.6360 -0.0541
 4833TIP3    H236135   0.590   5.370   1.076  0.7571  1.8301 -0.8345
 4834TIP3   OH236136   6.365   0.851   7.932  0.4468  0.1199  0.5714
 4834TIP3    H136137   6.277   0.880   7.959  0.4904  0.5461  0.2602
 4834TIP3    H236138   6.390   0.787   7.999  0.6414  1.3255  1.7015
 4835TIP3   OH236139   0.220   1.870   1.134  0.2071  0.0387 -0.2473
 4835TIP3    H136140   0.130   1.870   1.102  0.4077  2.0345 -0.9369
 4835TIP3    H236141   0.274   1.858   1.056  0.5780  0.4669 -0.0604
 4836TIP3   OH236142   0.582   6.301   2.032  0.1671 -0.7074  0.1712
 4836TIP3    H136143   0.654   6.240   2.015  0.3736 -0.3199 -0.3672
 4836TIP3    H236144   0.621   6.373   2.081 -0.2736 -1.4500  1.6752
 4837TIP3   OH236145   0.382   2.973   8.380 -0.0290  0.0240  0.5028
 4837TIP3    H136146   0.364   2.979   8.286  1.9565  0.9777  0.1154
 4837TIP3    H236147   0.469   3.013   8.390  0.0584 -0.5782  2.6736
 4838TIP3   OH236148   6.460   5.990   7.043 -0.1936 -0.2704  0.6183
 4838TIP3    H136149   6.545   5.964   7.007 -0.5359  0.5157 -0.8505
 4838TIP3    H236150   6.479   6.068   7.095 -0.1889  0.9143 -1.0520
 4839TIP3   OH236151   5.364   2.929   8.005 -0.3738  0.3891  0.0087
 4839TIP3    H136152   5.342   3.016   7.971  1.2825  1.4416  1.4510
 4839TIP3    H236153   5.418   2.890   7.937  2.1423  2.1043  0.8849
 4840TIP3   OH236154   0.039   2.869   1.838  0.1776  0.0119  0.7434
 4840TIP3    H136155  -0.047   2.829   1.828  0.3267 -0.4550  1.3054
 4840TIP3    H236156   0.063   2.897   1.749 -0.9333  0.9546  0.7171
 4841TIP3   OH236157   6.531   1.655   0.272  0.3562  0.2228  0.1450
 4841TIP3    H136158   6.583   1.735   0.271  0.7480  0.0162 -2.5231
 4841TIP3    H236159   6.548   1.614   0.187 -3.6701 -0.1763 -0.6597
 4842TIP3   OH236160   2.445   6.798   8.559  0.4002  0.2477 -0.3352
 4842TIP3    H136161   2.471   6.707   8.545 -1.1795 -0.2785  0.0589
 4842TIP3    H236162   2.355   6.794   8.589  0.2191  1.9669 -0.5334
 4843TIP3   OH236163   3.486   0.928   1.950 -0.1988 -0.1428 -0.0030
 4843TIP3    H136164   3.508   0.851   2.002 -1.4004  0.6692  1.7964
 4843TIP3    H236165   3.410   0.900   1.897 -0.6594 -0.1861  0.6750
 4844TIP3   OH236166   1.858   1.561   0.308  0.4421 -1.4573 -0.0958
 4844TIP3    H136167   1.868   1.514   0.390  1.1256 -0.2888  0.5153
 4844TIP3    H236168   1.764   1.576   0.300  0.5358  0.8589  1.9423
 4845TIP3   OH236169   3.640   0.283   0.344 -0.4568  0.2136  0.1082
 4845TIP3    H136170   3.584   0.352   0.308  0.4240  0.3116 -1.1273
 4845TIP3    H236171   3.708   0.271   0.278 -0.1523 -1.3023  0.6728
 4846TIP3   OH236172   1.625   0.555   7.582 -0.0639 -0.5484 -0.2155
 4846TIP3    H136173   1.709   0.595   7.558  0.1626  1.2784  3.0318
 4846TIP3    H236174   1.586   0.530   7.498  2.8015  0.3756 -1.9935
 4847TIP3   OH236175   2.535   6.026   1.332 -0.4771  0.3383 -0.3824
 4847TIP3    H136176   2.554   6.040   1.424  0.4482 -0.3084 -0.4577
 4847TIP3    H236177   2.619   6.042   1.287 -0.4229 -1.1423 -0.8945
 4848TIP3   OH236178   6.338   2.936   0.012  0.1159  0.0914  0.2598
 4848TIP3    H136179   6.252   2.932  -0.031  0.3819 -0.8575 -0.2308
 4848TIP3    H236180   6.387   3.000  -0.039 -0.0138 -0.0418 -0.0403
 4849TIP3   OH236181   6.026   2.085   6.851 -0.1934 -0.6786  0.3205
 4849TIP3    H136182   6.022   2.178   6.875  0.3421 -0.0705 -1.7552
 4849TIP3    H236183   5.935   2.058   6.845 -0.4091  0.3007 -1.0982
 4850TIP3   OH236184   3.525   0.953   1.323 -1.0082  0.1293  0.0186
 4850TIP3    H136185   3.488   1.041   1.319  2.6262  1.8243 -0.7286
 4850TIP3    H236186   3.580   0.946   1.245 -0.3836 -2.4396  0.5630
 4851TIP3   OH236187   1.627   4.575   1.366  0.2578  0.7524  0.1966
 4851TIP3    H136188   1.558   4.613   1.420 -0.4757  0.0826 -0.2504
 4851TIP3    H236189   1.658   4.646   1.311 -0.4148  0.9295  0.0526
 4852TIP3   OH236190   3.505   1.205   7.140 -0.4341 -0.1818  0.8665
 4852TIP3    H136191   3.514   1.134   7.078  1.1082 -0.9145  1.8651
 4852TIP3    H236192   3.511   1.285   7.087  1.8167 -0.7731  0.1372
 4853TIP3   OH236193   4.834   4.933   8.626 -0.2187  0.0402 -0.6739
 4853TIP3    H136194   4.825   4.925   8.721 -0.0661 -1.2902 -0.7578
 4853TIP3    H236195   4.869   5.021   8.613 -0.7299  0.4329  0.4691
 4854TIP3   OH236196   2.795   1.555   6.537  0.8184 -0.1073  0.2004
 4854TIP3    H136197   2.731   1.541   6.607  0.8117  0.6382  0.3511
 4854TIP3    H236198   2.870   1.595   6.580  0.9200  0.1117 -0.1707
 4855TIP3   OH236199   2.261   0.407   8.628 -0.0678  0.0838 -0.5086
 4855TIP3    H136200   2.193   0.345   8.601  0.6110  0.1128 -2.4783
 4855TIP3    H236201   2.341   0.374   8.588  1.1169  0.1194  1.6701
 4856TIP3   OH236202   3.067   2.474   1.588  0.4683 -0.6868 -0.4940
 4856TIP3    H136203   3.094   2.538   1.654 -0.5675 -1.1650  0.4374
 4856TIP3    H236204   3.121   2.493   1.512  1.2583  0.2915  0.2866
 4857TIP3   OH236205   1.091   4.513   0.249  0.0179  0.2396  0.0700
 4857TIP3    H136206   1.043   4.570   0.188  0.9837  1.5366  0.4823
 4857TIP3    H236207   1.031   4.439   0.264 -1.8931  1.7947  0.5939
 4858TIP3   OH236208   3.616   4.562   1.295 -0.0945 -0.2155  0.5840
 4858TIP3    H136209   3.680   4.529   1.357  1.0953 -0.2728 -0.6398
 4858TIP3    H236210   3.664   4.623   1.240 -0.9409 -0.6851 -0.7270
 4859TIP3   OH236211   4.857   3.376   1.765  0.0756 -0.3791  0.4302
 4859TIP3    H136212   4.881   3.363   1.673  1.2864 -0.0663  0.6870
 4859TIP3    H236213   4.939   3.395   1.809 -0.6840  1.0956  1.3027
 4860TIP3   OH236214   2.159   4.923   8.212  0.2738  0.9318  0.3189
 4860TIP3    H136215   2.195   4.901   8.297  0.7421 -1.1925 -0.3803
 4860TIP3    H236216   2.065   4.935   8.227  0.2706  0.0548  1.0519
 4861TIP3   OH236217   3.044   5.308   1.662 -0.0775  0.4270 -0.2163
 4861TIP3    H136218   3.033   5.378   1.725 -0.8370  0.0075  0.1259
 4861TIP3    H236219   3.138   5.288   1.665  0.0432  1.0360  0.1012
 4862TIP3   OH236220   1.365   5.671   7.373  0.0591  0.0155  0.4467
 4862TIP3    H136221   1.401   5.679   7.285  0.2761  0.2243  0.5522
 4862TIP3    H236222   1.428   5.716   7.429  0.4961 -1.0535  0.8528
 4863TIP3   OH236223   6.734   2.573   7.100 -0.1310 -0.2507 -0.0252
 4863TIP3    H136224   6.675   2.580   7.025  0.7863  1.8925 -0.6218
 4863TIP3    H236225   6.678   2.593   7.176 -0.1889  2.2622 -0.6310
 4864TIP3   OH236226   5.240   0.070   7.756  0.2212 -0.0840 -0.6521
 4864TIP3    H136227   5.181   0.144   7.740  1.5953  0.8310 -1.7495
 4864TIP3    H236228   5.217   0.040   7.844 -2.4302 -0.3414 -1.3279
 4865TIP3   OH236229   4.390   2.849   0.458  0.1498 -0.8933  0.3327
 4865TIP3    H136230   4.319   2.819   0.514  0.2682 -2.3141 -0.2394
 4865TIP3    H236231   4.352   2.920   0.406 -0.0869  0.1361  1.8569
 4866TIP3   OH236232   0.699   6.331   1.500  0.4201 -0.0750  0.8958
 4866TIP3    H136233   0.702   6.427   1.489  0.4060 -0.0779  0.8639
 4866TIP3    H236234   0.649   6.317   1.580 -1.3139 -0.1177 -0.1441
 4867TIP3   OH236235   6.464   3.025   1.343 -0.1966 -0.5785  0.7704
 4867TIP3    H136236   6.544   3.032   1.396  0.6291 -1.2094 -0.3415
 4867TIP3    H236237   6.437   3.115   1.330  0.3775 -0.3462  1.1061
 4868TIP3   OH236238   2.562   4.402   8.014  0.0327  0.1985 -0.4380
 4868TIP3    H136239   2.637   4.395   7.955  2.3433  0.9717  2.1743
 4868TIP3    H236240   2.491   4.434   7.959  1.0623 -2.1179 -3.3989
 4869TIP3   OH236241   0.644   2.501   7.495 -0.3927  0.2916 -0.7308
 4869TIP3    H136242   0.616   2.482   7.405  3.4713 -0.5921 -1.9557
 4869TIP3    H236243   0.643   2.417   7.540  3.0043 -0.5080 -1.8200
 4870TIP3   OH236244   0.453   6.332   0.549  0.1557 -1.2621 -0.2237
 4870TIP3    H136245   0.422   6.401   0.608  0.3332  0.7593 -2.3180
 4870TIP3    H236246   0.549   6.340   0.552  0.2003 -1.8263 -0.0518
 4871TIP3   OH236247   1.281   2.878   0.100 -0.5052 -0.4562 -0.0035
 4871TIP3    H136248   1.202   2.837   0.135 -0.0260 -0.7421  0.7470
 4871TIP3    H236249   1.261   2.972   0.100 -1.4325 -0.6250 -1.3051
 4872TIP3   OH236250   3.738   5.283   7.400 -0.3292  0.1445  0.2598
 4872TIP3    H136251   3.763   5.375   7.409 -1.9724  0.9138 -2.0987
 4872TIP3    H236252   3.814   5.242   7.359 -0.4219  0.9903 -0.8069
 4873TIP3   OH236253   1.714   3.063   8.376  0.7491  0.0060 -0.2188
 4873TIP3    H136254   1.781   2.998   8.398 -1.2053 -1.9235  0.3970
 4873TIP3    H236255   1.675   3.085   8.461 -0.8532 -0.6303 -0.7570
 4874TIP3   OH236256   2.553   0.721   1.500  0.1397  0.5673  0.1047
 4874TIP3    H136257   2.536   0.796   1.557  1.1516  1.7211 -1.0654
 4874TIP3    H236258   2.648   0.718   1.492  0.1138 -0.8429  0.1020
 4875TIP3   OH236259   3.390   3.530   0.419  0.3698  0.2242 -0.5982
 4875TIP3    H136260   3.349   3.573   0.344 -2.5375 -1.9573 -0.4191
 4875TIP3    H236261   3.444   3.460   0.381  0.4358  0.3279 -0.6956
 4876TIP3   OH236262   0.222   5.464   2.210 -0.4681  0.5148 -0.5781
 4876TIP3    H136263   0.246   5.439   2.300 -0.9733 -1.1150 -0.8619
 4876TIP3    H236264   0.304   5.490   2.169  0.0739 -0.5018 -0.1708
 4877TIP3   OH236265   3.482   4.118   2.230 -0.0934 -0.0541  0.2665
 4877TIP3    H136266   3.502   4.031   2.265  0.9415  0.6422  1.4999
 4877TIP3    H236267   3.535   4.178   2.283 -0.3460  1.2847 -0.9316
 4878TIP3   OH236268   0.094   3.233   0.368  0.4991  0.1658  0.2618
 4878TIP3    H136269   0.163   3.233   0.302  1.7491  1.5082  1.4700
 4878TIP3    H236270   0.024   3.286   0.330 -0.0027 -1.3719 -1.0604
 4879TIP3   OH236271   5.674   4.320   1.421 -0.1396  0.1876  0.3237
 4879TIP3    H136272   5.635   4.244   1.464  1.6354 -1.1686 -0.3214
 4879TIP3    H236273   5.620   4.333   1.342  0.2377 -1.1848 -0.1815
 4880TIP3   OH236274   1.718   2.253   1.303 -0.6801  0.3115  0.6903
 4880TIP3    H136275   1.634   2.215   1.274  0.0449 -1.1007  0.3203
 4880TIP3    H236276   1.768   2.177   1.333  0.7416  1.0286  0.2067
 4881TIP3   OH236277   2.414   5.329   2.101 -0.3196 -0.4516 -0.2776
 4881TIP3    H136278   2.478   5.270   2.141  0.0333  0.6007  0.7463
 4881TIP3    H236279   2.333   5.312   2.150 -0.0138  0.4771  0.5677
 4882TIP3   OH236280   4.233   1.882   8.775  0.3466 -0.2124 -0.2560
 4882TIP3    H136281   4.260   1.819   8.707  0.6703 -0.4001  0.0421
 4882TIP3    H236282   4.291   1.863   8.849  0.1861  0.1836 -0.0287
 4883TIP3   OH236283   5.456   3.308   6.784  0.0305 -0.3338 -0.5572
 4883TIP3    H136284   5.534   3.264   6.819 -1.6661 -2.1198  1.1859
 4883TIP3    H236285   5.470   3.401   6.805  2.4632 -0.2984 -1.9297
 4884TIP3   OH236286   5.037   4.456   0.089  0.0976  0.2889  0.3198
 4884TIP3    H136287   5.118   4.435   0.042  1.1373  0.5465  1.9215
 4884TIP3    H236288   4.968   4.452   0.022  1.0464 -2.4028 -0.6202
 4885TIP3   OH236289   0.584   3.543   1.309  0.5214 -0.1259  0.1735
 4885TIP3    H136290   0.657   3.515   1.364  0.5726  1.2548  0.8702
 4885TIP3    H236291   0.576   3.637   1.327 -1.2039 -0.1787 -0.1509
 4886TIP3   OH236292   0.400   2.571   7.709  0.2563 -0.0390  0.2259
 4886TIP3    H136293   0.380   2.654   7.665 -1.7170  0.1156  1.3246
 4886TIP3    H236294   0.488   2.549   7.678  0.5637  2.1053 -0.6384
 4887TIP3   OH236295   0.335   2.119   0.927  0.3647 -0.2080 -0.0239
 4887TIP3    H136296   0.309   2.028   0.912 -1.0188  0.1730 -0.0478
 4887TIP3    H236297   0.306   2.138   1.017  1.9578 -0.2134  0.5306
 4888TIP3   OH236298   2.864   6.389   1.460 -0.1520  0.1863 -0.4867
 4888TIP3    H136299   2.805   6.420   1.529 -1.4852  1.2256 -2.0115
 4888TIP3    H236300   2.897   6.468   1.419  3.5976 -0.3125  1.2341
 4889TIP3   OH236301   0.496   0.109   7.539 -0.1724  0.0566 -0.3152
 4889TIP3    H136302   0.511   0.142   7.451  0.7219 -0.7084 -0.4689
 4889TIP3    H236303   0.425   0.163   7.574  0.0350  0.9173 -1.1929
 4890TIP3   OH236304   3.092   2.554   8.307  0.3564 -0.1914  0.1583
 4890TIP3    H136305   3.075   2.501   8.229 -1.5960 -0.4091  0.6637
 4890TIP3    H236306   3.013   2.543   8.361  0.5539  1.9893  0.9952
 4891TIP3   OH236307   0.828   2.235   2.418  0.5095  0.4686 -0.3292
 4891TIP3    H136308   0.883   2.186   2.358  0.5631  1.4183 -1.0839
 4891TIP3    H236309   0.812   2.175   2.491  0.7880 -0.5582 -1.0903
 4892TIP3   OH236310   5.373   1.257   0.358  0.5996  0.0698 -0.2365
 4892TIP3    H136311   5.301   1.251   0.421 -0.0937 -0.6115 -1.0653
 4892TIP3    H236312   5.452   1.248   0.411  0.0779  0.5368  0.6526
 4893TIP3   OH236313   5.127   6.088   2.770  0.2339 -0.0612 -0.7655
 4893TIP3    H136314   5.094   5.998   2.764 -1.1360  0.2583  0.9781
 4893TIP3    H236315   5.153   6.111   2.681 -0.9046 -1.6252 -1.5399
 4894TIP3   OH236316   1.192   1.502   7.582 -0.1608 -0.2955 -0.1729
 4894TIP3    H136317   1.122   1.567   7.574  0.0684 -0.1961 -1.6437
 4894TIP3    H236318   1.211   1.498   7.676 -2.7933 -1.0295  0.4151
 4895TIP3   OH236319   3.054   4.219   0.812  0.5366  0.3231  0.2731
 4895TIP3    H136320   3.138   4.264   0.809  0.4976  0.4286  0.7557
 4895TIP3    H236321   2.991   4.286   0.840  0.4741 -0.0104  0.9549
 4896TIP3   OH236322   4.326   2.323   6.873  0.3957 -0.0646 -0.0675
 4896TIP3    H136323   4.331   2.259   6.803 -0.9929 -0.4250  0.1398
 4896TIP3    H236324   4.417   2.334   6.902  0.6726 -1.9140 -0.1131
 4897TIP3   OH236325   5.902   5.401   0.038 -0.5962  0.2942  0.0145
 4897TIP3    H136326   5.922   5.406  -0.055 -0.3066 -0.6986  0.0088
 4897TIP3    H236327   5.817   5.357   0.042 -0.6552  0.4216  0.2184
 4898TIP3   OH236328   5.125   3.030   0.770 -0.0934 -0.3336 -0.7760
 4898TIP3    H136329   5.093   3.009   0.682  0.1425 -0.4155 -0.8448
 4898TIP3    H236330   5.054   3.004   0.828  1.0845 -3.7839 -0.6348
 4899TIP3   OH236331   2.799   2.959   6.889  0.4550  0.5094  0.6122
 4899TIP3    H136332   2.813   3.000   6.804  0.1437  0.6994  0.6505
 4899TIP3    H236333   2.774   3.031   6.947 -2.0500  0.0518  0.2313
 4900TIP3   OH236334   4.935   4.965   1.120  0.5204 -0.4286  0.0824
 4900TIP3    H136335   4.937   5.036   1.184 -0.3802 -0.4403  0.1313
 4900TIP3    H236336   4.969   4.889   1.168 -2.0490 -0.9539  1.2344
 4901TIP3   OH236337   0.284   6.212   8.703 -0.0161  0.0514 -0.3934
 4901TIP3    H136338   0.233   6.264   8.641  0.1553  1.4891  0.6219
 4901TIP3    H236339   0.367   6.259   8.712  0.1034 -0.3152  0.6384
 4902TIP3   OH236340   5.176   4.732   0.089  0.1292 -0.1363  0.1381
 4902TIP3    H136341   5.234   4.694   0.024 -0.2425  0.8006 -0.7602
 4902TIP3    H236342   5.124   4.658   0.122  1.6305 -0.9496  0.7923
 4903TIP3   OH236343   3.308   1.432   8.487  0.3562 -0.6388 -0.5922
 4903TIP3    H136344   3.267   1.455   8.404  1.9480  0.6278 -1.0793
 4903TIP3    H236345   3.389   1.483   8.489 -1.0792  1.9342  3.1835
 4904TIP3   OH236346   2.226   2.327   8.416  0.2428  0.2175 -0.1490
 4904TIP3    H136347   2.245   2.235   8.432  0.1553  0.1613 -0.3645
 4904TIP3    H236348   2.257   2.343   8.327  0.5103  0.4671 -0.0131
 4905TIP3   OH236349   1.527   3.492   2.629 -0.4894 -0.1625  1.1269
 4905TIP3    H136350   1.444   3.483   2.676 -0.9268 -0.4171  0.3227
 4905TIP3    H236351   1.516   3.441   2.549  0.6003 -0.5462  1.2006
 4906TIP3   OH236352   3.975   0.949   1.358  0.5212  0.1927  0.4071
 4906TIP3    H136353   3.973   0.969   1.265 -0.2519  0.2802  0.4379
 4906TIP3    H236354   3.975   0.853   1.362 -0.8916  0.1578  0.3164
 4907TIP3   OH236355   1.523   5.964   0.603 -0.4305  0.3478  0.1019
 4907TIP3    H136356   1.451   6.025   0.618 -0.1402  0.3171  1.8414
 4907TIP3    H236357   1.600   6.019   0.596 -0.4534  0.3027 -0.6291
 4908TIP3   OH236358   1.193   1.059   8.116 -0.5486  0.7158  0.0034
 4908TIP3    H136359   1.209   1.005   8.194 -0.7663  0.2778 -0.2497
 4908TIP3    H236360   1.167   0.996   8.049 -0.4021  1.0963 -0.4134
 4909TIP3   OH236361   3.915   0.274   0.898 -0.4084 -0.4696 -0.5505
 4909TIP3    H136362   3.954   0.197   0.937  1.5049 -0.4096 -2.1672
 4909TIP3    H236363   3.982   0.342   0.906 -0.8224  0.1358 -1.8942
 4910TIP3   OH236364   3.640   1.655   6.303 -0.0841 -0.3723  0.1255
 4910TIP3    H136365   3.584   1.600   6.358 -0.1779  1.1174  1.5921
 4910TIP3    H236366   3.599   1.741   6.305  1.4891  0.4072  0.0714
 4911TIP3   OH236367   5.833   1.340   6.427 -0.2225 -0.1715 -0.4786
 4911TIP3    H136368   5.901   1.385   6.477  0.4747 -1.1406 -0.5156
 4911TIP3    H236369   5.753   1.391   6.442 -0.0532 -0.4748  1.6859
 4912TIP3   OH236370   6.474   0.724   8.350  0.1027  0.0798 -0.3015
 4912TIP3    H136371   6.449   0.671   8.274  0.7852 -0.7435  0.0358
 4912TIP3    H236372   6.569   0.715   8.355 -0.0572 -1.2063  1.5833
 4913TIP3   OH236373   1.470   6.625   7.334 -0.3457 -0.2171 -0.3639
 4913TIP3    H136374   1.409   6.673   7.390  1.1210  0.9648  0.2923
 4913TIP3    H236375   1.428   6.626   7.248 -1.7172 -0.3415  0.2722
 4914TIP3   OH236376   0.697   2.814   7.016 -0.2128  0.4208 -0.0248
 4914TIP3    H136377   0.719   2.902   6.985 -0.0894 -0.3434 -2.2776
 4914TIP3    H236378   0.782   2.774   7.037 -0.1658  0.4407 -0.1732
 4915TIP3   OH236379   2.074   4.822   0.865  0.8388  0.5719  0.0616
 4915TIP3    H136380   1.995   4.876   0.871  1.0557  0.9312 -0.2742
 4915TIP3    H236381   2.074   4.770   0.945  0.2724  0.5891  0.0716
 4916TIP3   OH236382   6.772   1.398   7.777  0.7341 -0.0815 -0.1762
 4916TIP3    H136383   6.751   1.475   7.724 -1.3752  0.9436  1.9482
 4916TIP3    H236384   6.753   1.425   7.867 -1.2420 -3.3803  0.5818
 4917TIP3   OH236385   4.285   6.457   1.018 -0.2410  0.1605 -0.2861
 4917TIP3    H136386   4.298   6.374   1.065  3.0991  0.8022  0.2226
 4917TIP3    H236387   4.211   6.498   1.061 -1.6486 -2.2870 -0.1893
 4918TIP3   OH236388   4.959   4.470   0.624  0.3798  0.3100  0.1512
 4918TIP3    H136389   5.016   4.411   0.673  1.5178  1.6346  0.4972
 4918TIP3    H236390   5.019   4.519   0.567 -0.4947  1.2257 -0.0040
 4919TIP3   OH236391   5.211   4.671   7.585 -0.4278  0.0773  0.0209
 4919TIP3    H136392   5.281   4.609   7.563  0.1104  0.7796 -0.2750
 4919TIP3    H236393   5.251   4.732   7.648  0.6888  3.1584 -3.3390
 4920TIP3   OH236394   3.454   6.123   8.382  0.1707  0.0368  0.0842
 4920TIP3    H136395   3.425   6.206   8.345 -1.6216 -0.4075  0.4066
 4920TIP3    H236396   3.544   6.140   8.411  0.0447  1.6780 -0.3945
 4921TIP3   OH236397   1.044   5.082   8.279 -0.5730 -0.0289  0.4288
 4921TIP3    H136398   1.126   5.051   8.240 -0.9412 -1.5067  0.7857
 4921TIP3    H236399   1.003   5.004   8.315 -2.8722  0.4330 -1.0062
 4922TIP3   OH236400   5.970   0.604   0.323  0.4721 -0.1507  0.2734
 4922TIP3    H136401   6.006   0.667   0.260 -1.3743  0.4058 -0.3043
 4922TIP3    H236402   5.884   0.582   0.288  1.8038 -4.7812 -0.7450
 4923TIP3   OH236403   0.608   3.091   8.770  0.4808  0.2465  0.3352
 4923TIP3    H136404   0.513   3.094   8.760  0.6238 -1.2870 -3.0146
 4923TIP3    H236405   0.632   3.179   8.797 -1.7402  1.3281 -0.9071
 4924TIP3   OH236406   5.407   5.914   7.446  0.0145  1.1046  0.3384
 4924TIP3    H136407   5.360   5.864   7.379  1.9178  1.2105 -1.1407
 4924TIP3    H236408   5.367   6.001   7.444 -1.7558  0.3669  1.3074
 4925TIP3   OH236409   2.051   4.751   0.584 -0.1523 -0.4471  0.6777
 4925TIP3    H136410   2.114   4.822   0.571  0.6855 -1.3298 -0.2581
 4925TIP3    H236411   2.031   4.754   0.678  0.9809  0.1223  0.9221
 4926TIP3   OH236412   4.575   1.757   6.865 -0.1933 -0.0629  0.1248
 4926TIP3    H136413   4.501   1.759   6.925  0.4139  0.5344  0.8870
 4926TIP3    H236414   4.550   1.814   6.793 -0.4350  0.2321  0.4374
 4927TIP3   OH236415   0.237   3.749   8.791 -0.1370 -0.2524 -0.0258
 4927TIP3    H136416   0.176   3.752   8.717 -1.3390  0.2256  0.9592
 4927TIP3    H236417   0.184   3.720   8.865  0.9983 -0.5191  0.7048
 4928TIP3   OH236418   3.984   2.999   1.017  0.0339  0.1281  0.3535
 4928TIP3    H136419   4.035   2.919   0.999  1.5084  1.0052  0.4708
 4928TIP3    H236420   3.955   2.989   1.107 -0.4228 -0.6050  0.1326
 4929TIP3   OH236421   4.472   0.368   0.498 -0.1350 -0.2868 -0.6912
 4929TIP3    H136422   4.534   0.440   0.489 -0.7646  0.2191 -1.0323
 4929TIP3    H236423   4.491   0.332   0.585  0.5960 -0.1060 -0.7663
 4930TIP3   OH236424   3.937   5.684   8.328  0.2250  0.3455  0.0954
 4930TIP3    H136425   3.875   5.637   8.272  0.3379 -1.3701  1.3392
 4930TIP3    H236426   3.882   5.728   8.393  0.1121  2.1270 -1.1193
 4931TIP3   OH236427   2.253   3.460   8.099 -0.2164  0.2269 -0.4533
 4931TIP3    H136428   2.185   3.478   8.163 -0.6510  0.0823 -0.8680
 4931TIP3    H236429   2.294   3.379   8.129 -0.7547 -0.1139 -0.6333
 4932TIP3   OH236430   2.910   6.788   2.567 -0.0927 -0.0471  0.1712
 4932TIP3    H136431   2.917   6.769   2.473  0.0610  1.0728 -0.0592
 4932TIP3    H236432   2.998   6.769   2.602  0.2275  0.7408 -0.1646
 4933TIP3   OH236433   0.137   2.538   2.517  0.1565  0.3299  0.1248
 4933TIP3    H136434   0.143   2.607   2.451  0.2463 -0.3297 -0.5709
 4933TIP3    H236435   0.134   2.585   2.600  1.7961  1.1420 -0.2352
 4934TIP3   OH236436   6.487   4.639   6.968  0.3797 -0.3098 -0.1019
 4934TIP3    H136437   6.558   4.658   6.906  0.3034  0.4454  0.0281
 4934TIP3    H236438   6.483   4.717   7.023  1.0915 -1.3458  1.4881
 4935TIP3   OH236439   5.727   4.905   1.643 -0.2271  0.2868  0.3619
 4935TIP3    H136440   5.636   4.933   1.645  0.5827  3.1722  1.5184
 4935TIP3    H236441   5.765   4.942   1.723  2.4032  0.8487 -1.0528
 4936TIP3   OH236442   4.796   0.535   7.236  0.1939 -0.4534 -0.6579
 4936TIP3    H136443   4.744   0.469   7.283 -0.2915  1.1157  1.1180
 4936TIP3    H236444   4.733   0.599   7.205  0.9602  1.4595  1.4833
 4937TIP3   OH236445   2.900   6.461   1.931 -0.1668  0.3343  0.2902
 4937TIP3    H136446   2.923   6.551   1.909  1.5307  0.1796  1.2943
 4937TIP3    H236447   2.817   6.469   1.978 -0.2749  1.3129 -0.0378
 4938TIP3   OH236448   5.827   5.426   0.601  0.5267 -0.0509  0.1649
 4938TIP3    H136449   5.747   5.477   0.590 -0.3339 -1.3484  0.2083
 4938TIP3    H236450   5.806   5.340   0.565  1.9682 -0.3693  0.0113
 4939TIP3   OH236451   4.315   5.060   6.923 -0.0819 -0.2224  0.3827
 4939TIP3    H136452   4.252   5.130   6.941  2.4080  1.4838  3.3842
 4939TIP3    H236453   4.393   5.105   6.891  0.7458 -1.9528 -0.1726
 4940TIP3   OH236454   3.202   5.837   1.049 -0.4769 -0.3615  0.6767
 4940TIP3    H136455   3.275   5.877   1.001 -0.6897 -0.6610  0.0866
 4940TIP3    H236456   3.237   5.755   1.083 -0.5094 -0.4650  0.4653
 4941TIP3   OH236457   6.308   5.968   0.327  0.5419  0.1050  0.5853
 4941TIP3    H136458   6.381   5.907   0.341  0.9521  0.4941  0.1836
 4941TIP3    H236459   6.340   6.051   0.364  1.7963  1.2644 -2.7626
 4942TIP3   OH236460   0.717   6.413   0.570  0.1509 -0.1709  0.0633
 4942TIP3    H136461   0.749   6.499   0.542 -1.6078 -0.0967 -2.0023
 4942TIP3    H236462   0.785   6.352   0.541  1.0714  0.4269  0.8926
 4943TIP3   OH236463   1.073   4.293   0.744  0.3223 -0.2716  0.1479
 4943TIP3    H136464   1.158   4.328   0.770  0.1931  1.7945 -1.8953
 4943TIP3    H236465   1.012   4.326   0.810  0.5498  1.6322 -0.5426
 4944TIP3   OH236466   6.438   2.536   1.051 -0.3612  0.1862  0.3626
 4944TIP3    H136467   6.412   2.598   1.119  0.9785 -1.2798  2.3152
 4944TIP3    H236468   6.441   2.452   1.095  0.7038 -0.8177 -1.5034
 4945TIP3   OH236469   3.914   1.513   2.279 -0.1838 -0.1969  0.6525
 4945TIP3    H136470   3.825   1.486   2.301  0.3594 -1.0794  1.9256
 4945TIP3    H236471   3.970   1.451   2.326  1.1182  1.3180  1.2025
 4946TIP3   OH236472   6.321   4.610   0.499  0.5255 -0.4139 -0.7223
 4946TIP3    H136473   6.242   4.664   0.495  0.2560 -0.8389 -1.5102
 4946TIP3    H236474   6.351   4.618   0.589  1.7346  2.7657 -1.2758
 4947TIP3   OH236475   6.132   6.760   0.842 -0.4325 -0.0673  0.3765
 4947TIP3    H136476   6.057   6.731   0.893 -0.2958 -1.0075  0.0616
 4947TIP3    H236477   6.166   6.680   0.802  0.5399  0.3966  0.2553
 4948TIP3   OH236478   5.298   6.750   7.990 -0.0324 -0.6434  0.2848
 4948TIP3    H136479   5.261   6.696   8.060  0.5134 -2.2547 -0.6358
 4948TIP3    H236480   5.379   6.785   8.027 -0.1625 -0.8177  0.7370
 4949TIP3   OH236481   1.415   3.690   7.481  0.1380  0.5587 -0.0749
 4949TIP3    H136482   1.355   3.647   7.420 -2.3168 -1.2991  3.2816
 4949TIP3    H236483   1.373   3.774   7.500 -0.2267  0.2532  0.5209
 4950TIP3   OH236484   3.220   0.583   7.684  0.1849  0.4413 -0.1654
 4950TIP3    H136485   3.145   0.540   7.725 -0.1035  1.1581  0.0694
 4950TIP3    H236486   3.251   0.645   7.749  1.9470 -0.8866  0.3448
 4951TIP3   OH236487   1.174   6.420   7.974  0.2389 -0.1556  0.1153
 4951TIP3    H136488   1.086   6.388   7.954  0.0639  0.1633  0.3633
 4951TIP3    H236489   1.185   6.402   8.067  1.0534 -1.6484 -0.2334
 4952TIP3   OH236490   6.741   0.092   7.845  0.2827  0.5139 -0.0354
 4952TIP3    H136491   6.790   0.069   7.924 -0.7392 -0.5812  0.3141
 4952TIP3    H236492   6.650   0.100   7.875  0.2316  2.7345 -0.6113
 4953TIP3   OH236493   5.267   1.226   7.825  0.1249  0.4744  0.5187
 4953TIP3    H136494   5.354   1.192   7.847  1.5218  3.0819 -0.4625
 4953TIP3    H236495   5.239   1.273   7.904  0.3888  1.0560  0.2694
 4954TIP3   OH236496   3.459   3.825   1.465  0.2949 -0.1168 -0.0568
 4954TIP3    H136497   3.494   3.786   1.385  0.1323  1.9403 -1.2013
 4954TIP3    H236498   3.373   3.784   1.476 -0.9235  1.5424 -2.5878
 4955TIP3   OH236499   2.319   4.800   0.420  0.0234  0.2836  0.1493
 4955TIP3    H136500   2.338   4.738   0.491 -3.9323 -0.4140  0.8437
 4955TIP3    H236501   2.298   4.882   0.464 -1.4539  0.1297 -0.1971
 4956TIP3   OH236502   2.280   5.823   0.694  0.2217  0.9567  0.6130
 4956TIP3    H136503   2.272   5.811   0.599  1.8271  3.0990  0.1244
 4956TIP3    H236504   2.373   5.837   0.709  0.1821 -0.6579  2.7328
 4957TIP3   OH236505   4.583   2.254   7.043 -0.3036  0.1323 -0.2950
 4957TIP3    H136506   4.563   2.265   7.136  0.9778 -3.4744  0.5805
 4957TIP3    H236507   4.606   2.161   7.035  0.0474  0.4136 -4.1677
 4958TIP3   OH236508   3.402   2.890   7.531  0.1456 -0.3779  0.5977
 4958TIP3    H136509   3.423   2.950   7.603 -0.0731  0.9198 -0.3694
 4958TIP3    H236510   3.338   2.829   7.568 -0.2416  0.4964  1.4123
 4959TIP3   OH236511   2.669   4.691   7.061 -0.5071 -0.1860  0.7181
 4959TIP3    H136512   2.662   4.779   7.098  1.4734  0.2523  0.2073
 4959TIP3    H236513   2.753   4.658   7.095 -0.8510 -1.5667  0.2786
 4960TIP3   OH236514   1.299   0.011   7.118 -0.2455 -0.3195  0.1216
 4960TIP3    H136515   1.364   0.039   7.053  0.2916  0.0385  0.7954
 4960TIP3    H236516   1.217   0.048   7.089  0.2542  1.0546  0.4124
 4961TIP3   OH236517   3.131   2.949   0.506 -0.2905  0.2510 -0.0055
 4961TIP3    H136518   3.175   3.032   0.486  0.3715 -0.2261 -0.5835
 4961TIP3    H236519   3.084   2.966   0.587 -0.9358  1.4787 -0.6075
 4962TIP3   OH236520   4.793   1.833   1.097  0.0675  0.8643  0.2485
 4962TIP3    H136521   4.860   1.794   1.042 -0.4132  1.9798 -1.2010
 4962TIP3    H236522   4.730   1.762   1.113 -0.3249  0.7705 -1.5602
 4963TIP3   OH236523   5.622   5.899   0.507 -0.1352 -0.1099  0.4883
 4963TIP3    H136524   5.546   5.911   0.564  0.6609 -0.3835  1.6394
 4963TIP3    H236525   5.697   5.918   0.563  0.6214  1.6027 -1.0135
 4964TIP3   OH236526   4.153   1.373   0.210 -0.9252  0.4179  0.0473
 4964TIP3    H136527   4.243   1.350   0.187 -1.6461 -0.7583 -1.8557
 4964TIP3    H236528   4.143   1.345   0.301  0.5012  0.1800  0.1459
 4965TIP3   OH236529   5.318   2.267   0.811 -0.2230  0.6207  0.0789
 4965TIP3    H136530   5.347   2.260   0.720  1.8698 -1.0442  0.7987
 4965TIP3    H236531   5.225   2.246   0.809 -1.2214  4.2575 -2.0940
 4966TIP3   OH236532   2.892   5.111   6.970  0.6141 -0.4984  0.1907
 4966TIP3    H136533   2.940   5.164   6.906  0.8702  0.1212  0.8829
 4966TIP3    H236534   2.813   5.083   6.924  0.1069  1.0983  0.0364
 4967TIP3   OH236535   5.675   0.360   7.433 -0.2203  0.5161  0.4109
 4967TIP3    H136536   5.763   0.327   7.452 -0.3175  1.3362  2.6857
 4967TIP3    H236537   5.678   0.386   7.341  1.3330 -1.1580 -0.0647
 4968TIP3   OH236538   4.999   2.109   1.741  0.2877  0.1623  0.5370
 4968TIP3    H136539   5.027   2.019   1.759 -0.9751 -0.4612 -0.4993
 4968TIP3    H236540   5.022   2.123   1.649 -0.0728  0.6822  0.5256
 4969TIP3   OH236541   1.580   1.579   8.318 -0.1264 -0.2015  0.3685
 4969TIP3    H136542   1.511   1.642   8.336 -0.9093 -0.6787 -0.8582
 4969TIP3    H236543   1.656   1.633   8.296 -0.7536  0.3349 -0.5592
 4970TIP3   OH236544   5.545   1.944   7.378 -0.5392  0.3279 -0.1977
 4970TIP3    H136545   5.464   1.987   7.350  0.1146  1.5036 -0.3556
 4970TIP3    H236546   5.612   2.013   7.372  0.1711 -0.1547  1.5111
 4971TIP3   OH236547   0.376   2.639   7.028 -0.4974  0.3178 -0.2786
 4971TIP3    H136548   0.282   2.624   7.034 -0.5093  0.4257 -0.2050
 4971TIP3    H236549   0.398   2.693   7.104 -0.4618  0.7206 -0.5747
 4972TIP3   OH236550   6.400   4.479   2.543 -0.2184  0.1698 -0.9399
 4972TIP3    H136551   6.376   4.519   2.626  1.2140  1.3360 -1.0345
 4972TIP3    H236552   6.318   4.473   2.494 -0.8620  0.6969  0.0534
 4973TIP3   OH236553   5.755   6.774   6.936  0.1997 -0.0661  0.0944
 4973TIP3    H136554   5.799   6.812   7.012  0.7807  1.9545 -1.1482
 4973TIP3    H236555   5.823   6.769   6.869 -0.7618  0.3274 -0.9528
 4974TIP3   OH236556   3.748   0.619   6.978 -0.5980 -0.7464 -0.0104
 4974TIP3    H136557   3.667   0.668   6.960 -1.1290 -1.8939 -0.9394
 4974TIP3    H236558   3.805   0.682   7.022 -1.7252  0.3102  0.0073
 4975TIP3   OH236559   4.417   4.247   7.899  0.3923 -0.7377 -0.5627
 4975TIP3    H136560   4.370   4.221   7.978  1.0813  1.3404  0.6040
 4975TIP3    H236561   4.355   4.230   7.828 -1.0528 -0.6866  0.6357
 4976TIP3   OH236562   5.903   4.444   0.875 -0.4030 -0.1645 -0.0247
 4976TIP3    H136563   5.834   4.386   0.908 -0.9663  0.7982  0.5576
 4976TIP3    H236564   5.961   4.457   0.950  0.6202 -1.2139 -0.5969
 4977TIP3   OH236565   1.820   1.006   7.527  0.7678 -0.0185  0.0685
 4977TIP3    H136566   1.859   1.023   7.441 -0.0599  0.2513 -0.2617
 4977TIP3    H236567   1.789   1.091   7.557 -0.6941 -0.4083 -0.2498
 4978TIP3   OH236568   3.162   4.916   8.349 -0.1086  0.4613 -0.5106
 4978TIP3    H136569   3.097   4.926   8.279 -0.0537 -2.6920 -1.1701
 4978TIP3    H236570   3.110   4.902   8.428 -0.2568 -0.0827 -0.6935
 4979TIP3   OH236571   1.859   0.514   7.297 -0.3065 -0.6959 -0.0867
 4979TIP3    H136572   1.826   0.589   7.346  0.0884 -0.5273 -0.0710
 4979TIP3    H236573   1.821   0.523   7.210 -0.5185 -0.6550  0.0109
 4980TIP3   OH236574   4.562   4.761   8.398  0.3242  0.1805 -0.0568
 4980TIP3    H136575   4.499   4.719   8.456  1.4715  0.3555  1.3555
 4980TIP3    H236576   4.608   4.824   8.453  2.1827 -0.3846 -0.8744
 4981TIP3   OH236577   0.491   4.817   2.088  0.6733 -0.0770  0.3027
 4981TIP3    H136578   0.511   4.881   2.020  1.1481 -0.0370  0.4711
 4981TIP3    H236579   0.406   4.845   2.123  1.0035  0.6419  0.5703
 4982TIP3   OH236580   3.484   5.915   8.830 -0.4715 -0.4579 -0.0272
 4982TIP3    H136581   3.490   5.820   8.829  1.9280 -0.4100  2.0578
 4982TIP3    H236582   3.575   5.946   8.832 -1.1608  1.9171 -0.8715
 4983TIP3   OH236583   2.709   6.554   2.212 -0.2365  0.1932  0.2799
 4983TIP3    H136584   2.750   6.611   2.278  2.0280 -0.4670 -0.4509
 4983TIP3    H236585   2.683   6.476   2.260 -0.1584  0.4109  0.6766
 4984TIP3   OH236586   5.074   1.023   8.024  0.1212 -0.5509 -0.1391
 4984TIP3    H136587   5.090   1.072   8.105  0.3141  0.5580 -0.8136
 4984TIP3    H236588   5.125   0.943   8.033  1.0305  0.0700  0.3842
 4985TIP3   OH236589   5.349   2.892   0.464 -0.5989  0.2968 -0.4765
 4985TIP3    H136590   5.291   2.822   0.494  0.1418  0.5912  1.8128
 4985TIP3    H236591   5.377   2.936   0.544  1.4500  1.2260 -1.6305
 4986TIP3   OH236592   2.008   2.433   8.142 -0.0688 -0.1335  0.0371
 4986TIP3    H136593   1.990   2.527   8.146  1.3206  0.1175  1.3732
 4986TIP3    H236594   1.926   2.391   8.169 -1.7107  0.5047 -3.4518
 4987TIP3   OH236595   4.149   3.321   1.452  0.5682 -0.0932 -0.0750
 4987TIP3    H136596   4.066   3.285   1.484  1.0634 -0.6969  0.5523
 4987TIP3    H236597   4.123   3.394   1.396 -0.3680  1.2904  2.0242
 4988TIP3   OH236598   6.123   6.775   7.150  0.0902 -0.5713 -0.1656
 4988TIP3    H136599   6.202   6.827   7.163  0.2469 -0.6436 -0.7940
 4988TIP3    H236600   6.055   6.838   7.126  0.9739 -0.8738 -3.9627
 4989TIP3   OH236601   4.222   6.511   8.166 -0.4061 -0.6855  0.6103
 4989TIP3    H136602   4.187   6.434   8.210  0.2073 -0.8988  0.7343
 4989TIP3    H236603   4.310   6.486   8.140 -0.7318 -0.5425 -0.6860
 4990TIP3   OH236604   0.020   5.236   7.360  0.1776  0.0825 -0.0085
 4990TIP3    H136605  -0.049   5.260   7.297 -0.6442 -0.4936  0.6445
 4990TIP3    H236606  -0.024   5.237   7.445  0.7648 -1.0878  0.3317
 4991TIP3   OH236607   6.582   3.271   1.466 -0.5365 -0.0954  0.1443
 4991TIP3    H136608   6.653   3.222   1.508 -1.0091 -0.2459  0.7799
 4991TIP3    H236609   6.626   3.340   1.417  0.0206  0.2707  1.1231
 4992TIP3   OH236610   6.733   2.993   0.251 -0.0234 -0.4069 -0.2755
 4992TIP3    H136611   6.750   2.986   0.345  0.4267  3.0885  0.0356
 4992TIP3    H236612   6.638   2.987   0.243 -0.2405  1.2584  0.7113
 4993TIP3   OH236613   1.939   5.415   0.810  0.1402 -0.5711 -0.0635
 4993TIP3    H136614   1.997   5.489   0.792  1.4902 -1.6826 -0.4313
 4993TIP3    H236615   1.953   5.396   0.903 -0.5133 -0.1424  0.1353
 4994TIP3   OH236616   3.681   5.630   1.298  0.5084 -0.2119  0.3091
 4994TIP3    H136617   3.753   5.666   1.351  0.0214  0.2056  0.6959
 4994TIP3    H236618   3.700   5.660   1.209  0.9810 -0.3670  0.3524
 4995TIP3   OH236619   3.639   1.863   8.314  0.3244 -0.0353  0.4996
 4995TIP3    H136620   3.677   1.929   8.256 -2.3103  0.5692 -0.6601
 4995TIP3    H236621   3.617   1.789   8.256 -0.0628 -0.4499  1.1574
 4996TIP3   OH236622   2.153   2.567   8.511 -0.3403  0.5362  0.0686
 4996TIP3    H136623   2.119   2.548   8.598  0.6265  0.7548  0.5139
 4996TIP3    H236624   2.173   2.482   8.473 -1.9903  0.3623 -0.4776
 4997TIP3   OH236625   1.546   3.433   1.908  0.2579  0.2663 -0.2053
 4997TIP3    H136626   1.547   3.522   1.872 -0.7121  0.7390  0.8672
 4997TIP3    H236627   1.624   3.391   1.872 -0.3622  0.8606 -2.4170
 4998TIP3   OH236628   6.655   1.478   0.834  0.0025  0.1281  0.1155
 4998TIP3    H136629   6.647   1.574   0.829 -0.2298  0.1047  0.0127
 4998TIP3    H236630   6.605   1.454   0.912 -2.1110 -0.1433 -1.2347
 4999TIP3   OH236631   1.667   6.260   1.403 -0.0103 -0.2241  0.2347
 4999TIP3    H136632   1.756   6.292   1.389 -0.2249  0.6356  0.7699
 4999TIP3    H236633   1.670   6.168   1.375  0.7181  0.1462 -0.9690
 5000TIP3   OH236634   0.930   2.935   7.282  0.3675 -0.2009 -0.7846
 5000TIP3    H136635   0.906   2.851   7.322 -0.4259 -0.9299 -2.6715
 5000TIP3    H236636   1.015   2.956   7.320 -0.3086 -0.8405  1.2157
 5001TIP3   OH236637   2.533   1.322   8.773  0.0213 -0.0823  0.7117
 5001TIP3    H136638   2.498   1.411   8.765  1.2593  0.3104 -1.1122
 5001TIP3    H236639   2.521   1.300   8.865 -2.5851  0.9832  0.7211
 5002TIP3   OH236640   1.061   3.826   2.132  0.4312  0.3725  0.0346
 5002TIP3    H136641   1.012   3.893   2.084 -1.1744 -0.4122  0.5352
 5002TIP3    H236642   1.053   3.851   2.224 -0.7626 -0.8368  0.2905
 5003TIP3   OH236643   6.804   4.415   6.657 -0.7905  1.0393 -0.5317
 5003TIP3    H136644   6.770   4.337   6.702 -0.2079  0.9972 -0.1593
 5003TIP3    H236645   6.788   4.398   6.564  0.7434 -0.2281 -0.5998
 5004TIP3   OH236646   3.272   0.098   7.646  0.4606  0.1804 -0.0214
 5004TIP3    H136647   3.297   0.022   7.593  0.3460  2.5478 -3.8592
 5004TIP3    H236648   3.177   0.103   7.638  0.6965  2.6123 -3.0190
 5005TIP3   OH236649   5.222   5.757   1.919 -1.0661  0.4806 -0.8437
 5005TIP3    H136650   5.209   5.851   1.922  2.5698  1.1480  2.2292
 5005TIP3    H236651   5.153   5.721   1.975 -3.1894  1.0167 -2.9421
 5006TIP3   OH236652   1.442   3.766   0.924  0.1016  0.4094 -0.2264
 5006TIP3    H136653   1.421   3.849   0.967  0.7590  0.2494  0.4154
 5006TIP3    H236654   1.438   3.786   0.830 -1.8947  0.6350 -0.1542
 5007TIP3   OH236655   4.678   0.780   8.616 -0.0466 -0.3341  0.2063
 5007TIP3    H136656   4.608   0.725   8.650 -0.7578  0.6151  0.3064
 5007TIP3    H236657   4.752   0.720   8.604 -0.5330 -1.1443  1.1179
 5008TIP3   OH236658   6.754   5.906   8.779  0.2277 -0.2124  0.3222
 5008TIP3    H136659   6.819   5.929   8.846  1.6354 -0.7924 -0.7967
 5008TIP3    H236660   6.762   5.974   8.712 -0.4570 -0.1916  0.2527
 5009TIP3   OH236661   3.774   3.394   0.066 -0.0033  0.4232  0.2483
 5009TIP3    H136662   3.680   3.385   0.057  0.0206  0.4068  0.0153
 5009TIP3    H236663   3.786   3.469   0.125 -0.1734 -0.0629  0.9109
 5010TIP3   OH236664   5.165   4.733   7.318  0.2785 -0.7525  0.3347
 5010TIP3    H136665   5.169   4.714   7.411  0.3310 -0.4521  0.3950
 5010TIP3    H236666   5.157   4.647   7.276 -0.0747 -0.8650  0.6323
 5011TIP3   OH236667   0.801   5.343   1.904 -0.2778 -0.1431  0.4099
 5011TIP3    H136668   0.812   5.340   1.999  0.9420  0.8525  0.3170
 5011TIP3    H236669   0.752   5.423   1.888  0.3500  0.1890  0.1329
 5012TIP3   OH236670   6.057   6.516   0.040  0.6862  0.0927  0.3685
 5012TIP3    H136671   6.082   6.608   0.044 -1.3765  0.7226  0.1424
 5012TIP3    H236672   6.052   6.496  -0.054  0.3204 -0.0078  0.4077
 5013TIP3   OH236673   3.452   0.920   0.115 -0.4454 -0.0930 -0.0462
 5013TIP3    H136674   3.486   0.899   0.028 -0.1779  0.9397 -0.2053
 5013TIP3    H236675   3.483   1.008   0.132 -2.9059  0.8599 -0.1222
 5014TIP3   OH236676   6.664   0.860   8.543 -0.1758 -0.0870 -0.2810
 5014TIP3    H136677   6.680   0.879   8.450  1.4169 -0.8574 -0.2032
 5014TIP3    H236678   6.745   0.888   8.587 -1.4726  1.6745  1.1211
 5015TIP3   OH236679   1.526   4.061   0.864  0.4643  0.1321 -0.7077
 5015TIP3    H136680   1.613   4.100   0.859  0.7938 -0.3776  0.5632
 5015TIP3    H236681   1.531   3.984   0.806  0.0232  1.4915 -2.6634
 5016TIP3   OH236682   0.828   4.135   1.138  0.1662 -0.6741 -0.5087
 5016TIP3    H136683   0.871   4.167   1.217 -0.4493  1.6661 -1.0303
 5016TIP3    H236684   0.868   4.050   1.121  0.1467 -1.3508  2.4052
 5017TIP3   OH236685   4.176   2.346   0.148  0.1246  0.1447 -0.1841
 5017TIP3    H136686   4.105   2.325   0.210  2.1176  0.0863  2.2733
 5017TIP3    H236687   4.184   2.267   0.095 -3.2501  1.0573 -2.3857
 5018TIP3   OH236688   6.049   3.366   7.434  0.1829  0.2044 -0.2249
 5018TIP3    H136689   6.069   3.279   7.399  1.1891  0.4651 -0.3297
 5018TIP3    H236690   6.132   3.413   7.430 -0.3777  1.2194 -0.2929
 5019TIP3   OH236691   1.641   0.413   8.116 -0.0681 -0.4061  0.0024
 5019TIP3    H136692   1.681   0.387   8.199  1.6573 -0.1484 -0.7074
 5019TIP3    H236693   1.688   0.493   8.091 -1.3795  0.1864 -0.6480
 5020TIP3   OH236694   1.690   4.359   8.002  0.2096 -0.2711 -0.4155
 5020TIP3    H136695   1.613   4.326   8.048  0.0419  1.1268  0.3533
 5020TIP3    H236696   1.764   4.319   8.049  0.1002  2.1109  2.0315
 5021TIP3   OH236697   5.740   3.675   1.409 -0.1334 -0.0142 -0.0223
 5021TIP3    H136698   5.662   3.730   1.414 -1.2703 -1.5669  0.1865
 5021TIP3    H236699   5.772   3.671   1.500  0.6565  1.2279 -0.2276
 5022TIP3   OH236700   6.829   4.421   7.116  0.4139  0.0922 -0.2824
 5022TIP3    H136701   6.812   4.336   7.076  0.8048  0.1042 -0.4833
 5022TIP3    H236702   6.746   4.447   7.155 -0.3862  0.7015 -2.2645
 5023TIP3   OH236703   3.939   6.589   0.630  0.7338  0.1666  0.2117
 5023TIP3    H136704   4.000   6.652   0.668  1.4916 -0.1047 -0.5306
 5023TIP3    H236705   3.921   6.623   0.542 -0.5086  0.4597  0.5609
 5024TIP3   OH236706   6.521   1.902   1.987 -0.4122 -0.5536 -0.4299
 5024TIP3    H136707   6.605   1.930   1.951 -0.9829  0.8222 -0.7583
 5024TIP3    H236708   6.514   1.947   2.071 -1.5523  0.7409 -1.1707
 5025TIP3   OH236709   0.281   1.343   1.838 -0.1721  0.3022 -0.0411
 5025TIP3    H136710   0.313   1.300   1.918 -1.8095 -0.3907  0.2930
 5025TIP3    H236711   0.208   1.288   1.809 -0.5099  1.3297 -1.2213
 5026TIP3   OH236712   1.029   5.434   7.409 -0.5539  0.3931  0.6485
 5026TIP3    H136713   1.007   5.441   7.317 -0.7794  1.5154  0.7763
 5026TIP3    H236714   1.112   5.386   7.410 -0.1132  1.1076 -0.2009
 5027TIP3   OH236715   2.701   2.798   1.852  0.1499  0.4830 -0.2519
 5027TIP3    H136716   2.773   2.773   1.795 -0.1689  1.4368 -1.0975
 5027TIP3    H236717   2.736   2.872   1.902  0.2613 -0.0360  0.4603
 5028TIP3   OH236718   2.136   6.296   0.761 -0.2011  0.5057 -0.1230
 5028TIP3    H136719   2.099   6.305   0.673 -0.1605  0.0893 -0.1876
 5028TIP3    H236720   2.214   6.351   0.761 -0.2602  0.5883 -0.3140
 5029TIP3   OH236721   1.644   3.871   1.631 -0.0186 -0.2876  0.6387
 5029TIP3    H136722   1.611   3.849   1.544  0.0442  0.1434  0.5053
 5029TIP3    H236723   1.725   3.919   1.615  0.5716 -1.1527  0.9614
 5030TIP3   OH236724   4.517   2.806   8.385  0.6606  0.7798 -0.2944
 5030TIP3    H136725   4.499   2.871   8.452 -0.0235 -0.2991  0.5940
 5030TIP3    H236726   4.609   2.819   8.363  0.5609  1.9694 -0.0667
 5031TIP3   OH236727   1.953   5.520   0.142 -0.3363  0.6958  0.3951
 5031TIP3    H136728   2.000   5.487   0.066 -0.6056  0.8480  0.1600
 5031TIP3    H236729   1.968   5.615   0.141 -2.2555  1.0283 -0.8238
 5032TIP3   OH236730   6.036   2.796   8.550  0.3632  0.0280  0.8069
 5032TIP3    H136731   6.047   2.701   8.557 -0.0811  0.0818  2.5828
 5032TIP3    H236732   5.990   2.809   8.467  0.3574 -1.3011  0.5802
 5033TIP3   OH236733   1.074   0.637   0.357  0.8265  0.3604  0.0155
 5033TIP3    H136734   1.038   0.685   0.432  2.5344 -1.1446  1.9166
 5033TIP3    H236735   1.058   0.545   0.378 -0.3379 -0.0766 -2.4502
 5034TIP3   OH236736   4.252   1.915   0.676  0.3575 -0.0223 -0.7035
 5034TIP3    H136737   4.170   1.911   0.625 -0.6210 -0.9240  0.8471
 5034TIP3    H236738   4.224   1.945   0.762  1.6221 -0.6439 -0.0604
 5035TIP3   OH236739   6.737   4.949   2.003  0.2976  0.0149 -0.1018
 5035TIP3    H136740   6.712   4.888   2.072  1.6017 -0.2707  0.1397
 5035TIP3    H236741   6.738   5.035   2.045 -0.6487  0.1014 -0.2229
 5036TIP3   OH236742   5.043   5.222   1.776 -0.0500 -0.3716 -0.1366
 5036TIP3    H136743   5.023   5.176   1.857 -0.9890  0.7335  0.2991
 5036TIP3    H236744   4.958   5.243   1.738  0.3607  0.1684 -0.8003
 5037TIP3   OH236745   4.728   1.433   7.595  0.0941 -0.1652 -0.0142
 5037TIP3    H136746   4.780   1.393   7.525  0.7212 -0.1922  0.4551
 5037TIP3    H236747   4.789   1.493   7.638 -0.4587  0.2949  0.1329
 5038TIP3   OH236748   1.179   6.498   1.115  0.0951 -0.1699 -0.2035
 5038TIP3    H136749   1.183   6.593   1.125  0.5245 -0.2101  0.0396
 5038TIP3    H236750   1.167   6.464   1.204 -0.6093 -0.3228 -0.3481
 5039TIP3   OH236751   2.932   2.076   0.372 -0.0440 -0.2550 -0.1016
 5039TIP3    H136752   2.888   2.031   0.444 -1.2821 -0.3080 -0.8644
 5039TIP3    H236753   2.922   2.169   0.392 -1.9143 -0.2029 -1.0137
 5040TIP3   OH236754   2.790   4.615   1.249 -0.3746 -0.5484  0.0212
 5040TIP3    H136755   2.819   4.525   1.263  2.3920  0.2189 -0.2241
 5040TIP3    H236756   2.787   4.653   1.337  0.1504 -0.4179 -0.0157
 5041TIP3   OH236757   0.667   5.106   1.202  0.3312 -0.1943  0.7341
 5041TIP3    H136758   0.636   5.102   1.293  2.5707  0.8268  1.6055
 5041TIP3    H236759   0.761   5.122   1.209  0.6837 -0.7338 -1.7884
 5042TIP3   OH236760   3.789   4.521   7.683 -0.4884  0.1362 -0.2517
 5042TIP3    H136761   3.729   4.523   7.757 -0.5495  1.8486 -0.3025
 5042TIP3    H236762   3.737   4.486   7.611 -0.7670 -0.4306  0.2109
 5043TIP3   OH236763   6.702   2.018   0.436  0.0680  0.1932  0.2849
 5043TIP3    H136764   6.739   1.951   0.379  0.3221 -1.3755  2.1893
 5043TIP3    H236765   6.725   2.101   0.395  1.1600 -0.8603 -1.2923
 5044TIP3   OH236766   2.762   0.758   7.829  0.1470 -0.3053  0.3735
 5044TIP3    H136767   2.808   0.832   7.868 -1.3277  2.2195 -2.3030
 5044TIP3    H236768   2.806   0.744   7.745 -1.1095 -0.8638 -0.2149
 5045TIP3   OH236769   5.150   3.341   1.126  0.1860  0.4191  0.3240
 5045TIP3    H136770   5.060   3.373   1.117  0.4196  0.8127 -0.7109
 5045TIP3    H236771   5.174   3.364   1.216 -0.6602  0.5210  0.5382
 5046TIP3   OH236772   3.498   1.199   1.584 -0.0546  0.1087 -0.2522
 5046TIP3    H136773   3.479   1.227   1.494  2.2956 -0.2645 -0.9427
 5046TIP3    H236774   3.507   1.104   1.577  1.8720  0.2386 -0.0296
 5047TIP3   OH236775   4.348   4.191   8.176 -0.0546 -0.1237  0.5489
 5047TIP3    H136776   4.340   4.241   8.257 -1.0403 -0.2061  0.5183
 5047TIP3    H236777   4.364   4.101   8.203 -1.8737 -0.4351  0.7266
 5048TIP3   OH236778   3.434   4.336   1.959 -0.0189 -0.6298 -0.0078
 5048TIP3    H136779   3.420   4.343   2.053 -0.2081 -2.1911  0.1054
 5048TIP3    H236780   3.513   4.284   1.950 -0.4597 -1.2054 -0.7033
 5049TIP3   OH236781   5.513   6.355   0.075 -0.4902 -0.0761 -0.0337
 5049TIP3    H136782   5.528   6.326  -0.015 -0.5794 -0.4774  0.0808
 5049TIP3    H236783   5.435   6.410   0.070 -1.9657 -2.0640  0.1838
 5050TIP3   OH236784   0.455   6.758   7.890 -0.1905 -0.6298  0.1362
 5050TIP3    H136785   0.536   6.808   7.901  0.7391 -2.0763  0.1708
 5050TIP3    H236786   0.478   6.690   7.827 -1.4023 -1.0522  0.1343
 5051TIP3   OH236787   6.612   4.286   7.461 -0.0655  0.2061  0.0864
 5051TIP3    H136788   6.609   4.355   7.394  0.0634  0.6744  0.5549
 5051TIP3    H236789   6.521   4.270   7.483 -0.5862 -3.3029 -3.5294
 5052TIP3   OH236790   6.776   0.534   0.948  0.4250 -0.1001  0.0212
 5052TIP3    H136791   6.782   0.554   0.855  0.3719 -0.0566  0.0271
 5052TIP3    H236792   6.854   0.573   0.987  0.0753  0.5271  0.1103
 5053TIP3   OH236793   1.406   1.567   2.402  0.7649  0.8264 -0.3115
 5053TIP3    H136794   1.383   1.594   2.491  1.0766 -1.8597  0.6812
 5053TIP3    H236795   1.325   1.529   2.367  0.6401  1.8700 -1.2194
 5054TIP3   OH236796   1.613   2.523   0.760 -0.1131  0.3878  0.4861
 5054TIP3    H136797   1.679   2.582   0.796 -1.0979  1.0678  1.2264
 5054TIP3    H236798   1.551   2.508   0.832 -0.4664 -0.6954 -0.0112
 5055TIP3   OH236799   1.274   0.607   8.033  0.1282  0.9911 -0.4626
 5055TIP3    H136800   1.201   0.570   7.984  0.1337 -1.6960  1.3034
 5055TIP3    H236801   1.255   0.700   8.040 -3.7630  0.2816  0.8219
 5056TIP3   OH236802   1.097   2.487   0.574  0.0322  0.3782  0.2619
 5056TIP3    H136803   1.079   2.517   0.484  0.6428  0.1960  0.0721
 5056TIP3    H236804   1.134   2.564   0.617 -0.9201  0.6755  0.5746
 5057TIP3   OH236805   3.827   6.104   1.346  0.1260 -0.1059 -0.2667
 5057TIP3    H136806   3.919   6.083   1.366 -0.0955 -1.7342 -0.7920
 5057TIP3    H236807   3.779   6.075   1.423 -0.0306 -0.1155 -0.3685
 5058TIP3   OH236808   0.895   2.505   8.653  0.6154  0.0156 -0.3710
 5058TIP3    H136809   0.836   2.569   8.693 -0.9354  0.0901 -2.5978
 5058TIP3    H236810   0.977   2.553   8.640  0.0303  1.0286 -0.4147
 5059TIP3   OH236811   6.603   1.447   8.317 -0.4379  0.1675 -0.8664
 5059TIP3    H136812   6.563   1.523   8.359  2.5411  0.7599  1.1965
 5059TIP3    H236813   6.567   1.372   8.365  0.6698  0.6812  0.8746
 5060TIP3   OH236814   3.862   6.572   1.004  0.0514 -0.1885  0.0201
 5060TIP3    H136815   3.837   6.526   0.924 -1.3537 -0.9892  0.8974
 5060TIP3    H236816   3.805   6.649   1.005  1.8620  1.2699 -1.0434
 5061TIP3   OH236817   6.310   1.095   0.875  0.3138  0.2336 -0.1589
 5061TIP3    H136818   6.379   1.032   0.852 -0.1549 -0.9603  1.5168
 5061TIP3    H236819   6.233   1.065   0.827 -0.2722 -1.3622  1.6739
 5062TIP3   OH236820   5.859   1.204   0.933 -0.0008  0.2083 -0.3435
 5062TIP3    H136821   5.845   1.298   0.941 -3.0864  0.0153 -1.9777
 5062TIP3    H236822   5.846   1.170   1.021  0.5395  1.2163  0.1403
 5063TIP3   OH236823   1.239   5.169   6.724 -0.0116  0.0865  0.0868
 5063TIP3    H136824   1.175   5.113   6.681  2.6258 -1.3645 -2.3240
 5063TIP3    H236825   1.248   5.245   6.665  0.2754  0.3995  0.5281
 5064TIP3   OH236826   2.719   4.423   7.317  0.1698 -0.4729 -0.0867
 5064TIP3    H136827   2.765   4.490   7.266  1.0898  0.1293  1.4551
 5064TIP3    H236828   2.789   4.373   7.359 -0.5512 -1.3379  0.1167
 5065TIP3   OH236829   6.651   3.172   7.207  0.7142 -0.0358 -0.5329
 5065TIP3    H136830   6.575   3.139   7.255  1.3634 -1.2721 -0.3136
 5065TIP3    H236831   6.720   3.108   7.224  1.3682  0.2342 -1.9713
 5066TIP3   OH236832   0.036   0.156   7.084  0.3300  0.3132 -0.0568
 5066TIP3    H136833   0.072   0.217   7.021  0.1439  0.3421 -0.1358
 5066TIP3    H236834   0.097   0.158   7.158  0.6422  0.1438 -0.3087
 5067TIP3   OH236835   0.401   5.894   7.607 -0.6024 -0.1226 -0.4411
 5067TIP3    H136836   0.323   5.944   7.630 -1.2365 -0.7244 -1.2118
 5067TIP3    H236837   0.459   5.903   7.682 -0.2391  2.6330 -0.9630
 5068TIP3   OH236838   5.847   0.641   8.069  0.0134 -0.3000  0.0918
 5068TIP3    H136839   5.883   0.590   8.142 -1.2828  0.6732  1.4923
 5068TIP3    H236840   5.769   0.592   8.042  0.6362 -0.7976 -0.8578
 5069TIP3   OH236841   3.994   2.040   0.230  0.3780  0.6221  0.1516
 5069TIP3    H136842   4.089   2.030   0.230  0.2377 -1.0277  0.0721
 5069TIP3    H236843   3.964   1.979   0.162 -0.7622  0.8873  0.3994
 5070TIP3   OH236844   5.285   0.480   2.010  0.0314 -0.3839  0.4722
 5070TIP3    H136845   5.205   0.429   2.024  0.2865 -1.4499 -1.6202
 5070TIP3    H236846   5.275   0.517   1.923  1.2482  0.5723  0.7227
 5071TIP3   OH236847   6.637   3.625   0.898 -0.0160 -0.4709  0.0699
 5071TIP3    H136848   6.667   3.576   0.975 -0.5244 -1.8300 -0.5755
 5071TIP3    H236849   6.711   3.620   0.837  0.9563  1.8009  0.9232
 5072TIP3   OH236850   1.273   4.793   1.119  0.1386 -0.2480  0.1930
 5072TIP3    H136851   1.335   4.852   1.078  0.5505 -0.1638  0.9099
 5072TIP3    H236852   1.322   4.712   1.134 -0.1872 -0.4957 -0.0581
 5073TIP3   OH236853   5.998   0.041   0.638 -0.2449  0.1170  0.4523
 5073TIP3    H136854   6.029   0.119   0.593 -0.5174  1.1654  1.9712
 5073TIP3    H236855   6.075   0.005   0.681  0.0612 -1.0147 -0.9968
 5074TIP3   OH236856   4.190   5.332   6.962  0.0226  0.7856 -0.0215
 5074TIP3    H136857   4.149   5.376   7.036 -1.3183 -0.6359  0.1431
 5074TIP3    H236858   4.127   5.342   6.890  1.5627  2.6560 -1.1871
 5075TIP3   OH236859   2.672   6.371   0.220  0.6427 -0.8726 -0.1891
 5075TIP3    H136860   2.732   6.298   0.237  1.1181 -0.9504 -1.9958
 5075TIP3    H236861   2.588   6.329   0.201  0.8947 -0.9641 -1.1408
 5076TIP3   OH236862   0.038   2.006   2.110  0.5284  0.3649 -0.5785
 5076TIP3    H136863   0.042   2.096   2.077 -0.0455 -0.2101 -2.3404
 5076TIP3    H236864   0.016   1.953   2.033  2.2470 -1.4788  0.1166
 5077TIP3   OH236865   5.033   5.560   7.992 -0.2362 -0.1316 -0.1615
 5077TIP3    H136866   5.120   5.568   8.031  0.6508  1.3589 -2.2812
 5077TIP3    H236867   5.010   5.468   8.004  2.2128 -0.8738 -0.6774
 5078TIP3   OH236868   6.097   1.490   0.195  0.2055 -0.3898 -0.4950
 5078TIP3    H136869   6.140   1.494   0.280  1.7735 -1.2120 -1.2149
 5078TIP3    H236870   6.132   1.411   0.153 -0.7319 -0.1574 -1.7955
 5079TIP3   OH236871   3.509   4.081   1.395  0.3547 -0.3045  0.1410
 5079TIP3    H136872   3.444   4.119   1.337  1.0706 -1.4479 -1.4786
 5079TIP3    H236873   3.478   3.992   1.411  0.3879 -0.1383  1.1754
 5080TIP3   OH236874   5.572   5.210   8.263 -0.5425  0.6617  0.1797
 5080TIP3    H136875   5.511   5.284   8.257 -1.2251  0.0190 -1.6485
 5080TIP3    H236876   5.516   5.134   8.279  0.0160  0.3352  0.6494
 5081TIP3   OH236877   4.001   3.370   0.407  0.2936 -0.1608  0.0178
 5081TIP3    H136878   3.953   3.295   0.372  1.5408 -0.6154 -0.7954
 5081TIP3    H236879   4.043   3.409   0.331 -1.1539  2.0233  0.2739
 5082TIP3   OH236880   3.822   4.079   1.640 -0.4221 -0.2858  0.1848
 5082TIP3    H136881   3.743   4.026   1.646 -0.1669 -0.7349 -0.3240
 5082TIP3    H236882   3.888   4.020   1.603 -0.1545  0.4096 -0.4836
 5083TIP3   OH236883   3.106   5.513   1.957 -0.0484 -0.4741  0.2770
 5083TIP3    H136884   3.019   5.472   1.961  0.3970 -1.3983  0.8859
 5083TIP3    H236885   3.088   5.606   1.942 -1.1472 -0.6328  0.5070
 5084TIP3   OH236886   1.534   4.942   7.814  0.0998  0.2406 -0.2625
 5084TIP3    H136887   1.522   4.888   7.891 -0.4373 -1.1134 -1.2538
 5084TIP3    H236888   1.568   5.025   7.847 -0.7926 -0.0542  1.4766
 5085TIP3   OH236889   1.682   1.469   0.613 -0.0968  0.5467  0.6240
 5085TIP3    H136890   1.640   1.546   0.652  0.4533  0.6764  0.9760
 5085TIP3    H236891   1.621   1.439   0.546  0.5649  2.4902 -0.9480
 5086TIP3   OH236892   6.442   1.142   1.499 -0.5151  0.0435 -0.7702
 5086TIP3    H136893   6.385   1.065   1.504 -1.4619  0.8041  0.4563
 5086TIP3    H236894   6.503   1.133   1.572 -2.2075  1.6462  0.9355
 5087TIP3   OH236895   4.554   1.009   6.728  0.6416 -0.2782  0.6293
 5087TIP3    H136896   4.550   1.061   6.648  1.6033  0.8619  1.2945
 5087TIP3    H236897   4.636   0.960   6.721  0.9956  0.2328  1.1482
 5088TIP3   OH236898   5.302   2.400   7.889 -0.1212 -0.4228  0.2023
 5088TIP3    H136899   5.207   2.392   7.877 -0.4351  1.3094  1.1167
 5088TIP3    H236900   5.334   2.435   7.806 -0.5135  0.3580  0.3708
 5089TIP3   OH236901   2.616   3.895   0.557  0.8645 -0.0690 -0.3211
 5089TIP3    H136902   2.540   3.860   0.604 -0.3013  1.4526 -0.9861
 5089TIP3    H236903   2.682   3.909   0.625 -0.5339  1.4306  0.8045
 5090TIP3   OH236904   0.145   4.264   0.680  0.5270 -0.2496  0.2480
 5090TIP3    H136905   0.111   4.349   0.709 -0.6367  0.5789 -3.1053
 5090TIP3    H236906   0.067   4.216   0.653  1.4012 -1.4400 -0.2022
 5091TIP3   OH236907   2.671   0.572   0.348  0.1877 -0.4265 -0.0765
 5091TIP3    H136908   2.653   0.481   0.373  1.5080 -1.0508 -1.2106
 5091TIP3    H236909   2.737   0.564   0.279 -0.1162  1.3874 -0.6096
 5092TIP3   OH236910   2.186   0.977   1.750 -0.1691  0.0036 -0.0898
 5092TIP3    H136911   2.271   1.022   1.743 -0.0761 -0.1737 -0.1082
 5092TIP3    H236912   2.135   1.032   1.809 -0.1189  0.2308 -0.2566
 5093TIP3   OH236913   5.142   1.303   7.018 -0.4626 -0.0506 -0.4011
 5093TIP3    H136914   5.217   1.282   6.963 -0.6117 -0.3520 -0.4897
 5093TIP3    H236915   5.161   1.260   7.102 -0.8438 -0.6902 -0.6348
 5094TIP3   OH236916   2.031   0.162   7.689  0.3789  0.0858 -0.0088
 5094TIP3    H136917   1.954   0.106   7.683 -2.0766  3.0097  1.8165
 5094TIP3    H236918   2.006   0.242   7.644  2.3369  1.1356  0.6645
 5095TIP3   OH236919   1.823   2.945   6.502 -0.0410  0.4243 -0.0640
 5095TIP3    H136920   1.844   2.994   6.423  2.2368 -0.1742  0.0944
 5095TIP3    H236921   1.755   2.997   6.545 -0.9556  1.0249 -2.1329
 5096TIP3   OH236922   2.917   1.061   0.260  0.2750 -0.0422 -0.6288
 5096TIP3    H136923   3.012   1.056   0.256  0.5356  0.2867  2.6021
 5096TIP3    H236924   2.887   0.972   0.240  1.2148 -0.1136 -1.8125
 5097TIP3   OH236925   0.829   5.605   8.536 -0.1165  0.2788  0.4778
 5097TIP3    H136926   0.895   5.674   8.548  0.4047 -0.0763 -0.2805
 5097TIP3    H236927   0.792   5.591   8.623  1.0190  0.2800  0.9690
 5098TIP3   OH236928   4.276   4.657   7.647 -0.0480 -0.5532 -0.6344
 5098TIP3    H136929   4.249   4.603   7.721 -0.7990  0.2872 -0.2725
 5098TIP3    H236930   4.314   4.735   7.687 -1.0138  0.1853 -1.1035
 5099TIP3   OH236931   5.405   4.014   6.698  0.3706  0.4058 -0.1069
 5099TIP3    H136932   5.312   3.997   6.682 -0.7913  2.6488  3.0585
 5099TIP3    H236933   5.424   3.967   6.779  1.7522  0.6513 -0.2593
 5100TIP3   OH236934   5.792   3.988   1.123 -0.1222  0.3228 -0.1033
 5100TIP3    H136935   5.848   3.987   1.045  1.5999 -1.4408  1.0885
 5100TIP3    H236936   5.758   4.078   1.126  0.7018  0.7720 -2.1946
 5101TIP3   OH236937   4.105   2.786   6.474 -0.0564 -0.6903 -0.1383
 5101TIP3    H136938   4.047   2.848   6.519  0.9052  1.9976 -2.3140
 5101TIP3    H236939   4.051   2.709   6.457 -1.9361  0.3353  0.8976
 5102TIP3   OH236940   3.713   3.286   7.294 -0.3902 -0.4147  0.0998
 5102TIP3    H136941   3.650   3.309   7.225 -0.5047 -1.6580 -0.2250
 5102TIP3    H236942   3.770   3.363   7.300 -1.0323  0.1419 -0.6329
 5103TIP3   OH236943   4.008   5.791   0.726  0.0194 -0.8266  0.1321
 5103TIP3    H136944   4.089   5.742   0.716 -0.9172 -2.2004 -1.3116
 5103TIP3    H236945   3.970   5.792   0.638 -1.5197 -0.2131  0.7724
 5104TIP3   OH236946   3.802   1.249   7.006 -0.1126 -0.9014 -0.0080
 5104TIP3    H136947   3.866   1.201   7.058  2.7845  0.0588 -2.4150
 5104TIP3    H236948   3.784   1.193   6.931  0.2358  0.0639 -0.8404
 5105TIP3   OH236949   2.685   3.514   1.425 -0.3637 -0.1948 -0.4700
 5105TIP3    H136950   2.590   3.518   1.435 -0.4640  1.2999 -1.5448
 5105TIP3    H236951   2.709   3.602   1.396  1.1382 -1.0130 -1.8727
 5106TIP3   OH236952   1.299   2.093   7.581 -0.3669  0.1162 -0.2675
 5106TIP3    H136953   1.210   2.078   7.613 -1.2098  3.0547 -0.9828
 5106TIP3    H236954   1.348   2.017   7.612 -2.7424 -0.8080  1.5597
 5107TIP3   OH236955   2.775   3.441   0.830 -0.4773  0.3115  0.6338
 5107TIP3    H136956   2.740   3.500   0.763 -0.3905 -0.6923 -0.3325
 5107TIP3    H236957   2.722   3.362   0.822  0.1695 -0.1803  1.1019
 5108TIP3   OH236958   6.325   1.604   8.808 -0.2729 -0.8692 -0.6110
 5108TIP3    H136959   6.284   1.679   8.850  1.0269 -0.7254  0.5078
 5108TIP3    H236960   6.280   1.528   8.845 -0.3774 -0.6849 -0.3588
 5109TIP3   OH236961   3.754   6.249   0.249  0.1218  0.4804 -0.1520
 5109TIP3    H136962   3.662   6.224   0.245  0.3728 -0.3043 -2.1510
 5109TIP3    H236963   3.801   6.171   0.221  1.3009  1.3269 -0.5899
 5110TIP3   OH236964   3.959   4.647   7.333  0.5180  0.0887 -0.6160
 5110TIP3    H136965   3.986   4.587   7.403 -0.1962  0.1162 -0.3126
 5110TIP3    H236966   4.004   4.729   7.354 -0.8171  0.5356  0.6496
 5111TIP3   OH236967   3.520   3.004   6.866 -0.7970  0.2311 -0.2649
 5111TIP3    H136968   3.562   3.084   6.897  0.8942 -0.6159 -0.2644
 5111TIP3    H236969   3.585   2.963   6.810 -0.8737 -2.0727  1.2043
 5112TIP3   OH236970   5.342   3.184   0.056 -0.0599 -0.2348 -0.4679
 5112TIP3    H136971   5.382   3.152   0.136 -3.1173 -2.0557  0.5266
 5112TIP3    H236972   5.330   3.106   0.002 -0.0335  0.6293 -1.7876
 5113TIP3   OH236973   5.993   6.061   0.710  0.5836 -0.1283 -0.7082
 5113TIP3    H136974   6.007   5.989   0.771  2.9284  0.8308  0.0049
 5113TIP3    H236975   6.016   6.025   0.624  2.4102 -0.1236 -0.2668
 5114TIP3   OH236976   3.581   5.665   1.681 -0.2435  0.3085  0.1414
 5114TIP3    H136977   3.523   5.651   1.756 -1.8309  0.0039 -1.0790
 5114TIP3    H236978   3.523   5.697   1.612  0.7870 -1.3233 -1.5771
 5115TIP3   OH236979   5.029   3.665   1.985 -0.1163 -0.0859 -0.6969
 5115TIP3    H136980   5.042   3.571   1.997 -0.7662 -0.0493  0.4528
 5115TIP3    H236981   5.046   3.703   2.071  0.5445  0.9084 -1.2427
 5116TIP3   OH236982   5.688   2.367   0.472  1.0132 -0.0606 -0.7450
 5116TIP3    H136983   5.691   2.356   0.567  0.8240  1.0305 -0.6041
 5116TIP3    H236984   5.772   2.406   0.449  1.2202 -0.6954 -1.0851
 5117TIP3   OH236985   3.364   2.726   0.459 -0.1018  0.5732 -0.0780
 5117TIP3    H136986   3.283   2.775   0.472 -0.7265 -0.5187  0.2933
 5117TIP3    H236987   3.336   2.639   0.429  0.7593 -0.5985  2.2018
 5118TIP3   OH236988   4.356   5.673   1.037  0.0758 -0.2329  0.0635
 5118TIP3    H136989   4.275   5.709   0.999  0.4207 -0.0116 -0.4647
 5118TIP3    H236990   4.370   5.592   0.989  0.3100 -0.1402 -0.0236
 5119TIP3   OH236991   2.518   0.100   7.483 -0.6120 -0.0923  0.6892
 5119TIP3    H136992   2.606   0.136   7.501  0.3962 -2.6383  1.2368
 5119TIP3    H236993   2.475   0.098   7.569 -0.8016  0.1447  0.5997
 5120TIP3   OH236994   4.112   4.806   6.979  0.6715 -0.1251  0.5030
 5120TIP3    H136995   4.067   4.887   6.956 -0.6532 -0.6036  1.2925
 5120TIP3    H236996   4.153   4.778   6.897 -1.6235 -0.3720 -0.6681
 5121TIP3   OH236997   6.315   4.364   0.404 -0.0325 -0.1309 -0.3882
 5121TIP3    H136998   6.328   4.449   0.446 -0.1688 -1.1744  1.9149
 5121TIP3    H236999   6.316   4.383   0.310  1.5364  2.1679  0.0144
 5122TIP3   OH237000   2.654   2.931   6.586  0.1919 -0.0305 -0.2341
 5122TIP3    H137001   2.685   3.009   6.540 -1.5355  0.3805 -0.8040
 5122TIP3    H237002   2.628   2.871   6.517 -0.8682 -0.0757  0.1806
 5123TIP3   OH237003   4.345   6.653   2.119  0.4482 -0.3463  0.7106
 5123TIP3    H137004   4.357   6.714   2.191 -0.2763  0.1588  0.4146
 5123TIP3    H237005   4.418   6.673   2.059  0.3831  0.0299  0.7532
 5124TIP3   OH237006   4.345   0.075   1.251  0.1024 -0.7930  0.3719
 5124TIP3    H137007   4.405   0.050   1.321  1.8875  2.2456  0.1110
 5124TIP3    H237008   4.373   0.023   1.176  1.8576 -0.1667  0.5361
 5125TIP3   OH237009   1.341   1.033   1.723 -0.2031 -0.3257  0.0999
 5125TIP3    H137010   1.428   1.007   1.694  0.3226  2.2297 -0.8254
 5125TIP3    H237011   1.352   1.058   1.815 -0.4582 -1.9361  0.6132
 5126TIP3   OH237012   6.101   3.980   7.986  0.2061 -0.0540 -0.4439
 5126TIP3    H137013   6.192   3.973   8.015  0.4114  1.6075 -0.6201
 5126TIP3    H237014   6.049   3.960   8.064  0.7121 -0.5230 -0.2199
 5127TIP3   OH237015   0.602   1.271   0.994 -0.1530 -0.3989 -0.0524
 5127TIP3    H137016   0.595   1.274   0.899 -0.2353  0.1715 -0.0321
 5127TIP3    H237017   0.519   1.307   1.026  0.6448  1.3154  0.2128
 5128TIP3   OH237018   5.832   4.701   2.209  0.3248  0.2777  0.4318
 5128TIP3    H137019   5.788   4.771   2.161 -0.8862 -0.5570  0.2803
 5128TIP3    H237020   5.886   4.747   2.274 -0.4032  1.3512  0.2987
 5129TIP3   OH237021   4.318   0.881   8.366  0.3598  0.3717 -0.0612
 5129TIP3    H137022   4.333   0.787   8.380  1.4829  0.7494  1.6084
 5129TIP3    H237023   4.373   0.903   8.290  0.2570 -0.2738 -0.3315
 5130TIP3   OH237024   5.013   6.586   0.687 -0.2648  0.1437 -0.3300
 5130TIP3    H137025   5.067   6.526   0.739 -0.8525 -0.6317 -0.5989
 5130TIP3    H237026   5.012   6.667   0.737 -0.5045 -0.4685  0.6864
 5131TIP3   OH237027   0.268   6.129   6.953 -0.2326 -0.0008  0.2664
 5131TIP3    H137028   0.235   6.043   6.929 -0.6660  0.0369  0.7238
 5131TIP3    H237029   0.321   6.156   6.877 -0.3606 -0.5250 -0.0128
 5132TIP3   OH237030   0.065   2.343   7.933  0.2343  0.1409  0.8480
 5132TIP3    H137031   0.117   2.270   7.899 -1.4246  0.1432 -2.0154
 5132TIP3    H237032   0.108   2.421   7.897 -2.6913  0.0765 -3.5789
 5133TIP3   OH237033   2.247   3.892   7.819 -0.4755  0.0525 -0.0345
 5133TIP3    H137034   2.321   3.945   7.850 -0.0680 -0.1295 -0.6645
 5133TIP3    H237035   2.261   3.886   7.724 -0.3197 -1.4707  0.0607
 5134TIP3   OH237036   4.144   1.086   6.832 -0.1212 -0.6430 -0.4202
 5134TIP3    H137037   4.198   1.023   6.879 -0.6691 -1.1097 -0.4020
 5134TIP3    H237038   4.170   1.075   6.740 -0.1535 -0.8311 -0.4071
 5135TIP3   OH237039   0.931   2.903   7.627 -0.0719 -0.0446  0.2674
 5135TIP3    H137040   0.877   2.900   7.706  0.1020  0.8141  0.4259
 5135TIP3    H237041   0.995   2.971   7.644  0.0725  0.0378 -0.5527
 5136TIP3   OH237042   1.660   5.049   0.602 -0.6534 -0.3785 -0.6607
 5136TIP3    H137043   1.564   5.044   0.595 -1.0251  0.8226  2.1867
 5136TIP3    H237044   1.675   5.099   0.683  2.3977 -0.2024 -1.2390
 5137TIP3   OH237045   3.589   2.121   0.483 -0.2216 -0.0024 -0.0032
 5137TIP3    H137046   3.607   2.027   0.476  0.6598  0.1940 -0.5759
 5137TIP3    H237047   3.553   2.144   0.397 -0.4224  0.1912  0.1320
 5138TIP3   OH237048   5.927   5.684   7.286 -0.0464 -0.5133 -0.1855
 5138TIP3    H137049   5.984   5.611   7.262  0.7742  1.0006 -3.3713
 5138TIP3    H237050   5.986   5.759   7.298 -1.1389  0.4746 -0.7647
 5139TIP3   OH237051   6.696   3.264   7.499 -0.0484 -0.0740  0.0866
 5139TIP3    H137052   6.701   3.358   7.480  0.0673  0.0937  0.9149
 5139TIP3    H237053   6.603   3.247   7.512 -0.0240  0.0183  0.3842
 5140TIP3   OH237054   2.107   3.819   2.463 -0.1053  0.2655  0.6833
 5140TIP3    H137055   2.117   3.845   2.372  0.5097 -1.1934  0.2958
 5140TIP3    H237056   2.034   3.871   2.496 -0.5376  0.5891 -0.7280
 5141TIP3   OH237057   4.251   3.089   0.343  0.1517  0.6906 -0.1960
 5141TIP3    H137058   4.225   3.175   0.312 -0.3969  0.9207  0.8701
 5141TIP3    H237059   4.248   3.095   0.438  1.5682 -0.0682 -0.0793
 5142TIP3   OH237060   1.717   4.226   0.023  0.8356 -0.4226 -0.4608
 5142TIP3    H137061   1.664   4.254   0.098 -1.6240 -1.1622 -1.8097
 5142TIP3    H237062   1.785   4.292   0.016 -1.3857  2.0937 -0.0987
 5143TIP3   OH237063   1.862   3.493   0.793  0.5213  0.0071 -0.5890
 5143TIP3    H137064   1.913   3.569   0.766  1.9605 -1.0191 -0.8979
 5143TIP3    H237065   1.773   3.526   0.803  1.2980  1.9856  0.4457
 5144TIP3   OH237066   1.207   0.272   0.978  1.0294 -0.0460  0.9675
 5144TIP3    H137067   1.140   0.325   1.022  1.7405  1.8518 -0.1008
 5144TIP3    H237068   1.163   0.188   0.961 -0.5402  0.5753  1.7118
 5145TIP3   OH237069   5.774   6.476   1.080  0.2318 -0.1799 -0.3910
 5145TIP3    H137070   5.716   6.415   1.126 -0.4711 -0.5724 -1.7509
 5145TIP3    H237071   5.717   6.548   1.053  0.5218 -0.2097 -1.0996
 5146TIP3   OH237072   1.334   2.185   8.449  0.4113 -0.5281  0.0960
 5146TIP3    H137073   1.301   2.099   8.472  0.3334 -0.8710 -1.2302
 5146TIP3    H237074   1.428   2.173   8.438  1.0313  0.3146  3.2423
 5147TIP3   OH237075   5.506   2.581   6.819 -0.1041  0.3588 -0.0445
 5147TIP3    H137076   5.546   2.655   6.863  0.1834  1.5297 -2.1246
 5147TIP3    H237077   5.447   2.621   6.754 -1.7926 -1.2808  0.3890
 5148TIP3   OH237078   3.809   4.533   1.490 -0.0615 -0.5437 -0.6647
 5148TIP3    H137079   3.902   4.555   1.498 -0.5084  1.2715 -0.0819
 5148TIP3    H237080   3.792   4.471   1.560  1.0172 -2.0828 -1.7054
 5149TIP3   OH237081   5.074   3.237   8.758  0.0983  0.3670 -0.4234
 5149TIP3    H137082   5.016   3.255   8.831 -1.3480  0.5394 -1.5656
 5149TIP3    H237083   5.161   3.226   8.798 -0.9489 -1.6049  1.5368
 5150TIP3   OH237084   0.208   4.334   8.091  0.2771  0.9350 -0.1028
 5150TIP3    H137085   0.276   4.347   8.157  1.3756  2.3192 -1.4657
 5150TIP3    H237086   0.215   4.241   8.068  2.6230  1.3089 -1.1473
 5151TIP3   OH237087   6.753   5.381   8.460 -0.0541 -0.6390 -0.1471
 5151TIP3    H137088   6.702   5.462   8.468 -1.3815 -1.5083  0.6452
 5151TIP3    H237089   6.720   5.340   8.380  1.2281 -0.0230 -1.0286
 5152TIP3   OH237090   4.279   0.183   7.690 -0.2524  0.0795 -0.0769
 5152TIP3    H137091   4.263   0.127   7.765  0.9720  0.1536  0.2585
 5152TIP3    H237092   4.196   0.229   7.676 -1.4259 -2.0787 -0.6163
 5153TIP3   OH237093   6.010   0.741   6.726  0.4513  0.1451 -0.5362
 5153TIP3    H137094   6.083   0.801   6.713 -0.4163  1.2975 -0.3342
 5153TIP3    H237095   5.943   0.772   6.664 -0.3727  0.0109  0.2733
 5154TIP3   OH237096   2.383   0.075   7.012 -0.4581 -0.2753 -0.3681
 5154TIP3    H137097   2.402   0.163   7.044  0.3754 -0.9490  1.1074
 5154TIP3    H237098   2.440   0.063   6.936 -0.8356  0.5703 -0.7925
 5155TIP3   OH237099   2.678   4.865   8.800 -0.0560  0.5701  0.3100
 5155TIP3    H137100   2.672   4.778   8.840  0.2609 -0.7450 -2.3057
 5155TIP3    H237101   2.762   4.899   8.829 -0.5712  0.4490  2.0858
 5156TIP3   OH237102   0.254   4.805   0.390  0.4878  0.0862 -0.1366
 5156TIP3    H137103   0.258   4.733   0.453  0.7825 -0.4560 -0.7611
 5156TIP3    H237104   0.197   4.870   0.431  0.9009 -0.1326  0.8089
 5157TIP3   OH237105   4.505   0.693   7.034 -0.3216  0.1124 -0.3539
 5157TIP3    H137106   4.601   0.684   7.030 -0.3790 -0.3507 -0.6977
 5157TIP3    H237107   4.472   0.621   6.981 -0.8480  0.6934 -0.8261
 5158TIP3   OH237108   5.635   2.926   2.181 -0.4080  0.1320  0.3320
 5158TIP3    H137109   5.559   2.934   2.238  0.4815 -0.8564  1.7253
 5158TIP3    H237110   5.600   2.938   2.093 -1.8280  1.6672  1.0518
 5159TIP3   OH237111   5.994   1.461   1.275  0.5258  0.1762  0.2673
 5159TIP3    H137112   6.062   1.408   1.233  1.1310  0.1078  1.3015
 5159TIP3    H237113   5.987   1.538   1.220  0.3674 -0.4955 -0.6835
 5160TIP3   OH237114   5.935   1.408   1.708  0.3723 -0.2837  0.1495
 5160TIP3    H137115   6.025   1.419   1.739  0.4222 -0.4963  0.0832
 5160TIP3    H237116   5.927   1.315   1.690 -0.2172 -0.4663  1.2506
 5161TIP3   OH237117   5.331   1.596   0.569 -0.4630  0.0924  0.6108
 5161TIP3    H137118   5.270   1.658   0.609 -1.0937  0.2144 -0.5121
 5161TIP3    H237119   5.313   1.602   0.476 -0.0702 -1.3074  0.4306
 5162TIP3   OH237120   0.021   2.560   6.445  0.0168  0.3995  0.0507
 5162TIP3    H137121   0.044   2.471   6.417 -0.6389  0.3100 -0.2284
 5162TIP3    H237122  -0.031   2.595   6.372  0.5478  1.1323  0.0191
 5163TIP3   OH237123   2.779   1.333   8.644 -0.8619 -0.1074  0.0172
 5163TIP3    H137124   2.789   1.246   8.604 -0.1875 -0.3173  0.6243
 5163TIP3    H237125   2.691   1.331   8.681 -2.1575  0.6566 -2.7499
 5164TIP3   OH237126   2.968   6.760   0.304  0.4640  0.9142  0.0888
 5164TIP3    H137127   2.965   6.819   0.229 -1.4471 -0.9806 -1.4394
 5164TIP3    H237128   2.950   6.816   0.380 -1.0405  2.3666 -1.2630
 5165TIP3   OH237129   4.725   6.216   1.902  0.4517 -0.3996 -0.1239
 5165TIP3    H137130   4.759   6.300   1.931  0.0519  0.2781 -1.5503
 5165TIP3    H237131   4.657   6.194   1.966  1.0305 -0.0000  0.6522
 5166TIP3   OH237132   5.572   4.774   0.514  0.2460 -0.2324  0.5867
 5166TIP3    H137133   5.544   4.732   0.433  0.0528 -0.9995  1.0449
 5166TIP3    H237134   5.495   4.821   0.544  0.6941  1.1623 -0.3531
 5167TIP3   OH237135   2.896   1.396   7.414  0.2095  0.0944 -0.3675
 5167TIP3    H137136   2.877   1.328   7.350 -0.7408  0.5432 -0.5860
 5167TIP3    H237137   2.835   1.381   7.485 -2.4018  2.6054 -1.8583
 5168TIP3   OH237138   4.197   2.100   7.002  0.2590 -0.6207  0.3658
 5168TIP3    H137139   4.217   2.191   6.981  1.6271 -1.0443 -0.2890
 5168TIP3    H237140   4.106   2.088   6.974 -0.4353  0.9110  1.7730
 5169TIP3   OH237141   5.115   5.703   1.635  0.1900 -0.0862 -0.4599
 5169TIP3    H137142   5.134   5.642   1.706 -0.7514 -1.1408 -1.0748
 5169TIP3    H237143   5.199   5.743   1.614  0.6340 -0.3881  0.6653
 5170TIP3   OH237144   3.310   4.588   2.483 -0.6410 -0.2992  0.2453
 5170TIP3    H137145   3.384   4.637   2.517 -0.8221  0.7269 -0.7794
 5170TIP3    H237146   3.235   4.647   2.494 -1.2311 -1.1161  0.7834
 5171TIP3   OH237147   1.709   5.267   1.370 -0.2702  0.1438 -0.4057
 5171TIP3    H137148   1.663   5.331   1.316  0.2628  2.6463  1.8777
 5171TIP3    H237149   1.687   5.292   1.460  2.9928 -0.5057  0.6827
 5172TIP3   OH237150   4.206   3.792   7.115 -0.2498  0.6221  0.5498
 5172TIP3    H137151   4.258   3.826   7.043 -0.4166  1.2585  0.7213
 5172TIP3    H237152   4.115   3.809   7.090 -0.3252  0.5336  0.7573
 5173TIP3   OH237153   4.350   4.495   1.995 -0.3529  0.6986  0.3127
 5173TIP3    H137154   4.440   4.518   2.019 -0.5970  1.2658  0.6970
 5173TIP3    H237155   4.308   4.579   1.974 -0.9513  0.4979  0.6840
 5174TIP3   OH237156   6.573   0.064   7.106 -0.1628 -0.2962 -0.2829
 5174TIP3    H137157   6.599   0.001   7.039 -1.7498  0.7093 -1.9630
 5174TIP3    H237158   6.633   0.138   7.094 -0.4635 -0.1048 -0.6629
 5175TIP3   OH237159   0.540   0.626   7.096  0.3718 -0.2327 -0.1275
 5175TIP3    H137160   0.608   0.689   7.119  2.1147 -1.2384 -2.1714
 5175TIP3    H237161   0.523   0.642   7.003 -0.3277 -1.7201 -0.2806
 5176TIP3   OH237162   5.564   0.373   0.421  0.0908 -0.4340 -0.1541
 5176TIP3    H137163   5.579   0.303   0.485  2.4159  1.7381  1.9238
 5176TIP3    H237164   5.586   0.454   0.468 -0.3377  1.5251 -3.0493
 5177TIP3   OH237165   3.883   3.932   0.733 -0.3078  0.6522  0.9665
 5177TIP3    H137166   3.860   3.857   0.788 -1.4708  0.7042  0.5831
 5177TIP3    H237167   3.849   3.910   0.646  1.0774  0.7826  0.3690
 5178TIP3   OH237168   0.305   0.463   0.868  0.0495  0.2285 -0.5187
 5178TIP3    H137169   0.231   0.426   0.916  0.5309 -0.8154 -0.5652
 5178TIP3    H237170   0.264   0.523   0.805 -0.8736 -1.1752 -1.3207
 5179TIP3   OH237171   0.770   4.627   7.549  0.4697 -0.0170  0.0300
 5179TIP3    H137172   0.716   4.548   7.548  0.2320  0.1416 -1.5475
 5179TIP3    H237173   0.841   4.606   7.610  0.8325 -1.7457 -0.9136
 5180TIP3   OH237174   0.238   5.570   1.222  0.7196  0.4654  0.2701
 5180TIP3    H137175   0.155   5.591   1.266  0.7476  2.0621 -0.3676
 5180TIP3    H237176   0.255   5.479   1.246 -1.3959 -0.0290  0.1407
 5181TIP3   OH237177   6.011   5.446   7.797 -0.1244  0.2459 -0.6441
 5181TIP3    H137178   5.982   5.463   7.886  1.3844 -0.1728 -0.0444
 5181TIP3    H237179   6.003   5.530   7.752 -1.2774  0.3687 -0.2410
 5182TIP3   OH237180   5.041   6.415   8.756  0.5227  0.4333 -0.2170
 5182TIP3    H137181   5.024   6.359   8.832  0.8353  0.5295 -0.0726
 5182TIP3    H237182   4.954   6.440   8.724  0.3767  1.4237  0.8795
 5183TIP3   OH237183   6.149   5.655   6.306  0.1624  0.0457  0.2353
 5183TIP3    H137184   6.104   5.577   6.339  1.9721 -1.4598 -0.6792
 5183TIP3    H237185   6.081   5.722   6.305 -1.6146 -1.6292  0.6124
 5184TIP3   OH237186   3.521   2.944   1.139 -0.1560 -0.3672  0.4911
 5184TIP3    H137187   3.571   2.868   1.167 -1.5744 -1.0297  1.3471
 5184TIP3    H237188   3.520   3.002   1.215  0.5827  0.3574 -0.0297
 5185TIP3   OH237189   3.035   3.442   0.933  0.4626  0.4695  0.0976
 5185TIP3    H137190   3.072   3.390   0.862  1.8089  0.3707  0.8339
 5185TIP3    H237191   2.943   3.454   0.909  0.5945 -0.6033 -1.0324
 5186TIP3   OH237192   6.648   1.395   7.098  0.1691 -0.1134 -0.2644
 5186TIP3    H137193   6.636   1.305   7.130  0.5024  0.2851  1.0262
 5186TIP3    H237194   6.567   1.440   7.120 -0.7479 -0.5134 -2.5363
 5187TIP3   OH237195   2.877   2.750   8.473 -0.2812  0.3052 -0.4413
 5187TIP3    H137196   2.841   2.674   8.428  1.5804 -1.7547  1.3377
 5187TIP3    H237197   2.808   2.775   8.535 -0.7057 -0.2477 -0.6758
 5188TIP3   OH237198   0.447   0.426   6.673  0.4363 -0.5511  0.0290
 5188TIP3    H137199   0.501   0.478   6.614  0.0511 -2.8485 -2.5546
 5188TIP3    H237200   0.368   0.478   6.686 -0.3981 -0.8010 -3.3000
 5189TIP3   OH237201   5.016   3.123   7.741 -0.1349 -0.0570  0.5379
 5189TIP3    H137202   4.945   3.141   7.680  1.2842  0.9248 -0.8833
 5189TIP3    H237203   5.005   3.188   7.810  0.2991  1.1427 -0.5007
 5190TIP3   OH237204   6.695   2.366   1.598  0.9481 -0.0005  0.1793
 5190TIP3    H137205   6.731   2.345   1.684  0.0266 -0.9718  0.3567
 5190TIP3    H237206   6.607   2.329   1.599  0.3033  1.4071 -0.5975
 5191TIP3   OH237207   0.583   5.923   6.899 -0.7436  0.0850 -0.3477
 5191TIP3    H137208   0.530   5.977   6.840 -2.0492 -1.0316 -0.2359
 5191TIP3    H237209   0.567   5.834   6.870 -0.2433 -0.3878  0.7760
 5192TIP3   OH237210   5.802   5.790   0.106  0.3231  0.0772 -0.6928
 5192TIP3    H137211   5.710   5.801   0.080 -0.2106  1.9745  1.5845
 5192TIP3    H237212   5.845   5.869   0.075  0.4347  0.7048  0.9756
 5193TIP3   OH237213   5.840   3.421   2.147  0.1007  0.2896 -0.0783
 5193TIP3    H137214   5.820   3.330   2.165  0.1250  0.5349  1.3473
 5193TIP3    H237215   5.755   3.465   2.146  0.0846  0.2495 -0.8126
 5194TIP3   OH237216   6.587   6.018   1.110 -0.7303  0.8044 -0.1815
 5194TIP3    H137217   6.515   6.002   1.172 -2.6429  0.3287 -2.4102
 5194TIP3    H237218   6.588   6.113   1.099 -1.4427  0.7749 -0.5784
 5195TIP3   OH237219   4.996   5.560   7.683  0.2744  0.2345 -0.2743
 5195TIP3    H137220   5.021   5.522   7.767 -1.0844 -1.1717 -0.4674
 5195TIP3    H237221   4.956   5.488   7.635 -0.2305  1.3518 -1.5931
 5196TIP3   OH237222   5.755   6.318   8.460 -0.0338  0.5000  0.4196
 5196TIP3    H137223   5.837   6.270   8.473 -1.3517 -2.2237 -0.7344
 5196TIP3    H237224   5.714   6.276   8.384 -1.8704  2.7251  0.0704
 5197TIP3   OH237225   0.562   5.723   0.522 -0.0537 -0.6150  0.0469
 5197TIP3    H137226   0.580   5.741   0.615  3.0081 -1.2035 -0.3127
 5197TIP3    H237227   0.569   5.627   0.515  0.1448 -0.5455 -0.8336
 5198TIP3   OH237228   3.492   0.803   7.924 -0.0024 -0.1131 -0.5394
 5198TIP3    H137229   3.577   0.815   7.883 -0.0752 -0.1599 -0.7046
 5198TIP3    H237230   3.466   0.891   7.951  1.7973 -0.4906  2.9744
 5199TIP3   OH237231   1.765   3.013   1.844  0.0406 -0.9584 -0.3726
 5199TIP3    H137232   1.812   2.937   1.878 -0.9917 -2.0846 -1.3468
 5199TIP3    H237233   1.735   2.985   1.757  0.3972  0.8895 -1.1188
 5200TIP3   OH237234   1.948   1.359   8.401  0.0620  0.6759 -0.6087
 5200TIP3    H137235   1.885   1.287   8.406  0.8910  0.0041  0.6272
 5200TIP3    H237236   1.895   1.438   8.413 -0.6960  0.2152 -0.8073
 5201TIP3   OH237237   0.509   3.878   6.540  0.3776  0.5052 -0.0199
 5201TIP3    H137238   0.419   3.907   6.556  0.7845  1.6964  0.2431
 5201TIP3    H237239   0.502   3.784   6.522 -0.7945  0.3531  1.1092
 5202TIP3   OH237240   0.520   0.566   0.090  0.5233  0.0821  0.5075
 5202TIP3    H137241   0.606   0.582   0.129  0.9454 -0.9103  0.0216
 5202TIP3    H237242   0.508   0.636   0.026  1.8994 -0.9275 -0.9114
 5203TIP3   OH237243   5.094   0.403   6.963  0.1658  0.5790 -0.1048
 5203TIP3    H137244   5.128   0.462   6.895  0.2306 -0.0189 -0.5996
 5203TIP3    H237245   5.143   0.321   6.950 -3.0115 -1.1785 -2.3937
 5204TIP3   OH237246   2.450   2.365   8.604  0.1884 -0.3947 -0.3913
 5204TIP3    H137247   2.480   2.355   8.513 -0.7504  0.1891 -0.7854
 5204TIP3    H237248   2.391   2.291   8.617 -0.6815  0.2267 -0.7026
 5205TIP3   OH237249   3.387   2.749   0.156  0.4105 -0.4314  0.0169
 5205TIP3    H137250   3.333   2.726   0.081 -1.2334 -0.9635  1.3113
 5205TIP3    H237251   3.413   2.664   0.194 -0.4650 -0.1917  1.2021
 5206TIP3   OH237252   1.131   2.883   1.509 -0.0861 -0.5202  0.2459
 5206TIP3    H137253   1.102   2.892   1.600  2.0364  0.8189  0.8589
 5206TIP3    H237254   1.068   2.935   1.459 -0.8642 -0.6849  1.0205
 5207TIP3   OH237255   6.285   1.580   0.724  0.5128 -0.2543  0.3694
 5207TIP3    H137256   6.334   1.546   0.650 -0.8307  0.5820 -0.9485
 5207TIP3    H237257   6.252   1.665   0.695  1.8389  1.1905  2.7302
 5208TIP3   OH237258   6.329   4.935   2.499 -0.0199 -0.5948  0.3551
 5208TIP3    H137259   6.364   5.021   2.522 -0.9231  0.4959 -2.0093
 5208TIP3    H237260   6.250   4.926   2.551 -1.6732  1.5081 -1.6011
 5209TIP3   OH237261   0.733   1.201   7.006  0.3960 -0.7863  0.2736
 5209TIP3    H137262   0.745   1.223   6.914  1.2489 -1.2207  0.2699
 5209TIP3    H237263   0.759   1.109   7.013 -0.8485 -1.1320  0.7246
 5210TIP3   OH237264   3.779   2.537   0.192  0.0397 -0.0385 -0.4963
 5210TIP3    H137265   3.824   2.573   0.116 -2.1311  0.0874 -1.7903
 5210TIP3    H237266   3.820   2.452   0.206 -0.7683 -0.9210 -3.0267
 5211TIP3   OH237267   4.959   3.329   7.918  0.2515  0.6264 -0.7448
 5211TIP3    H137268   4.992   3.413   7.886 -1.4810  1.3068 -0.8852
 5211TIP3    H237269   4.881   3.352   7.969 -0.9453 -0.9726 -1.7404
 5212TIP3   OH237270   1.501   2.298   0.960  0.1200 -0.9125  0.0231
 5212TIP3    H137271   1.541   2.363   1.018 -0.9712 -1.3976  1.3802
 5212TIP3    H237272   1.472   2.228   1.019 -1.8037 -1.0424 -1.0188
 5213TIP3   OH237273   0.691   5.034   2.187 -0.0331  0.3830 -0.0633
 5213TIP3    H137274   0.613   5.000   2.143  0.4186  0.0412 -0.6134
 5213TIP3    H237275   0.657   5.076   2.266 -0.5008 -2.8583  1.6205
 5214TIP3   OH237276   0.058   3.784   8.541 -0.4404 -0.4178 -0.5338
 5214TIP3    H137277   0.090   3.800   8.452  0.2011  0.0335 -0.2305
 5214TIP3    H237278  -0.025   3.831   8.545 -0.2983 -0.1375 -0.7862
 5215TIP3   OH237279   4.334   5.234   0.599  0.2915  0.0846 -0.1654
 5215TIP3    H137280   4.265   5.287   0.640 -0.8640  1.0936 -3.1074
 5215TIP3    H237281   4.286   5.163   0.555  1.6066 -1.9158  1.4702
 5216TIP3   OH237282   6.678   5.415   8.790 -0.2914  0.0226  0.6565
 5216TIP3    H137283   6.588   5.439   8.811 -0.2222 -0.5636  1.7231
 5216TIP3    H237284   6.732   5.474   8.844 -0.0545 -0.2162  0.6843
 5217TIP3   OH237285   2.092   2.031   0.790 -0.0673 -0.6968 -0.6120
 5217TIP3    H137286   2.144   2.042   0.710 -1.1430  3.1733 -0.9882
 5217TIP3    H237287   2.005   2.007   0.758  0.3810 -3.0849 -0.2341
 5218TIP3   OH237288   4.378   2.519   0.829  0.0182 -0.1732  0.2817
 5218TIP3    H137289   4.455   2.461   0.823 -0.3179 -0.5154 -1.4896
 5218TIP3    H237290   4.414   2.603   0.857  0.8967 -0.5756  0.4166
 5219TIP3   OH237291   4.340   6.213   1.851 -0.5649  0.6582 -0.2019
 5219TIP3    H137292   4.338   6.306   1.829 -1.7584  0.8750  0.7430
 5219TIP3    H237293   4.371   6.170   1.771  1.0212  1.9422 -0.3279
 5220TIP3   OH237294   0.854   4.645   1.478  0.0709 -0.3970 -0.0060
 5220TIP3    H137295   0.873   4.684   1.392 -0.8199 -0.0745 -0.0750
 5220TIP3    H237296   0.936   4.651   1.526  0.3442  0.2468 -0.5269
 5221TIP3   OH237297   0.037   3.305   0.623  0.5909  0.2124  0.3440
 5221TIP3    H137298   0.065   3.225   0.669 -0.3373 -1.4436 -1.7905
 5221TIP3    H237299   0.067   3.292   0.533 -0.8082  1.6396 -0.3700
 5222TIP3   OH237300   3.466   3.656   0.100  0.5860  0.4392 -0.1528
 5222TIP3    H137301   3.388   3.602   0.090  0.7279  0.3368 -0.7400
 5222TIP3    H237302   3.433   3.746   0.106  0.1259  0.1475  3.6927
 5223TIP3   OH237303   6.054   2.967   8.213 -0.8150 -0.8514  0.4934
 5223TIP3    H137304   6.109   3.041   8.185 -2.2539 -0.6546 -2.1082
 5223TIP3    H237305   6.071   2.899   8.149 -2.4700 -1.3115  0.4982
 5224TIP3   OH237306   1.802   3.908   6.343 -0.3765 -0.0936  0.8374
 5224TIP3    H137307   1.881   3.948   6.381 -0.1007  0.0645  0.1321
 5224TIP3    H237308   1.790   3.955   6.260  1.0391 -2.6416 -0.9626
 5225TIP3   OH237309   4.743   4.506   0.463 -0.5289 -0.4022  0.1753
 5225TIP3    H137310   4.783   4.444   0.403  0.9203  0.2011  0.4706
 5225TIP3    H237311   4.802   4.508   0.539 -0.3295  1.5756  0.0188
 5226TIP3   OH237312   5.304   5.353   0.236  0.4329 -0.0339 -0.4417
 5226TIP3    H137313   5.398   5.334   0.235  0.1389 -1.7165 -2.0274
 5226TIP3    H237314   5.266   5.288   0.176 -1.6600  1.0487 -0.3731
 5227TIP3   OH237315   5.232   3.258   7.073 -0.0564  0.0469  0.0607
 5227TIP3    H137316   5.223   3.185   7.011  2.9891 -0.1217 -0.3364
 5227TIP3    H237317   5.302   3.230   7.132 -0.5507  1.6596  1.4907
 5228TIP3   OH237318   2.956   1.877   1.179 -0.5712  0.0959  0.4442
 5228TIP3    H137319   2.951   1.924   1.263  1.6288  1.8528 -0.2938
 5228TIP3    H237320   3.016   1.930   1.126 -0.6900 -1.7902 -1.7098
 5229TIP3   OH237321   1.247   3.372   8.203 -0.7967 -0.1085  0.2931
 5229TIP3    H137322   1.337   3.347   8.223  0.0388  1.8112 -0.7190
 5229TIP3    H237323   1.233   3.340   8.114 -0.8441  0.1903  0.1902
 5230TIP3   OH237324   4.253   1.341   6.797 -0.0722 -0.4349 -0.2128
 5230TIP3    H137325   4.219   1.253   6.812 -1.9794 -0.1151 -2.1293
 5230TIP3    H237326   4.274   1.344   6.704  0.8279  0.8563  0.0043
 5231TIP3   OH237327   0.032   6.059   7.415  0.2625 -0.3195  0.1498
 5231TIP3    H137328  -0.037   6.121   7.440  0.0171 -0.9557  1.1192
 5231TIP3    H237329   0.044   6.072   7.321 -0.0943  0.8791  0.2600
 5232TIP3   OH237330   5.157   1.654   1.330  0.3854 -0.2369  0.4715
 5232TIP3    H137331   5.131   1.693   1.413 -0.2834 -0.7302  0.5047
 5232TIP3    H237332   5.084   1.596   1.307  1.2088 -1.2211  0.2694
 5233TIP3   OH237333   4.686   4.611   1.858  0.8360  0.1734  0.1587
 5233TIP3    H137334   4.643   4.695   1.841  0.9469  0.1635 -0.1844
 5233TIP3    H237335   4.779   4.629   1.844  0.7079 -0.4440 -1.8160
 5234TIP3   OH237336   2.616   1.689   0.140  0.4972  0.7577  0.2479
 5234TIP3    H137337   2.651   1.608   0.102  0.2067  0.1887  1.1478
 5234TIP3    H237338   2.533   1.663   0.180  0.7233  1.3468  1.1427
 5235TIP3   OH237339   5.380   3.688   1.846 -0.0250 -0.6638 -0.0350
 5235TIP3    H137340   5.380   3.696   1.941  0.4536 -1.3515  0.0302
 5235TIP3    H237341   5.330   3.608   1.829 -0.2059 -0.4824 -0.3657
 5236TIP3   OH237342   6.174   0.784   7.651  0.0169 -0.1989 -0.4256
 5236TIP3    H137343   6.203   0.719   7.588  1.1942 -0.7580  0.6360
 5236TIP3    H237344   6.164   0.735   7.733 -3.4914  0.0701 -0.5683
 5237TIP3   OH237345   1.467   1.406   0.060 -0.3686  0.3974 -0.6308
 5237TIP3    H137346   1.528   1.337   0.087 -1.1063 -0.3672 -0.8793
 5237TIP3    H237347   1.386   1.386   0.106 -1.1570  0.0084 -2.1391
 5238TIP3   OH237348   1.568   3.537   1.523 -0.1509 -0.0790 -0.3080
 5238TIP3    H137349   1.502   3.487   1.475  0.5040  0.9816 -2.4438
 5238TIP3    H237350   1.649   3.525   1.472  0.2909  2.1179 -0.2059
 5239TIP3   OH237351   6.259   6.094   7.409  0.2537 -0.4914  0.5967
 5239TIP3    H137352   6.315   6.070   7.483  1.2007 -0.5174 -0.0983
 5239TIP3    H237353   6.300   6.172   7.372  0.1741 -0.8450 -0.2765
 5240TIP3   OH237354   0.486   5.319   0.817 -0.1431 -0.5500 -0.1736
 5240TIP3    H137355   0.499   5.345   0.908  0.4836 -2.5436  0.3571
 5240TIP3    H237356   0.548   5.247   0.803  0.9001  0.6909 -2.6635
 5241TIP3   OH237357   0.296   2.032   8.612 -0.1009 -0.3144 -0.2212
 5241TIP3    H137358   0.217   2.086   8.607 -0.5930 -1.0053 -0.0420
 5241TIP3    H237359   0.356   2.072   8.549 -0.3666  0.5715  0.0689
 5242TIP3   OH237360   0.993   0.639   7.286  0.4453 -0.1703  0.3027
 5242TIP3    H137361   0.912   0.587   7.289 -1.0083  1.9478 -0.1850
 5242TIP3    H237362   1.058   0.584   7.330 -1.4555 -1.5824  1.5255
 5243TIP3   OH237363   2.933   6.272   1.228 -0.4842  0.2712  0.3579
 5243TIP3    H137364   2.915   6.314   1.312 -0.9550  0.2099  0.2938
 5243TIP3    H237365   3.019   6.304   1.203 -0.6399  0.8338  0.5313
 5244TIP3   OH237366   1.208   6.059   0.576 -0.2684  0.8629 -0.2097
 5244TIP3    H137367   1.192   6.004   0.500 -1.8106 -1.3468  1.5851
 5244TIP3    H237368   1.124   6.102   0.592  0.1187  1.5137  0.1198
 5245TIP3   OH237369   0.677   4.017   7.586 -0.3224  0.0288 -0.3387
 5245TIP3    H137370   0.613   4.008   7.515 -3.6963  1.4871  2.2337
 5245TIP3    H237371   0.714   4.104   7.574 -1.3988  0.5520  0.0157
 5246TIP3   OH237372   0.210   2.778   8.696  0.3195 -0.4128 -0.6661
 5246TIP3    H137373   0.151   2.823   8.758  0.3720 -0.4140 -0.6150
 5246TIP3    H237374   0.162   2.700   8.669  0.4630 -0.6260 -0.3127
 5247TIP3   OH237375   2.592   1.649   6.897  0.6964  0.6120 -0.2947
 5247TIP3    H137376   2.637   1.571   6.930  2.8391  0.9931 -2.0725
 5247TIP3    H237377   2.577   1.630   6.804 -1.6165  1.1196 -0.0886
 5248TIP3   OH237378   1.692   1.374   8.073  0.0855 -0.9826  0.0136
 5248TIP3    H137379   1.661   1.462   8.093  2.0217 -0.4529  0.8993
 5248TIP3    H237380   1.719   1.378   7.981  0.5816 -0.4940  0.1733
 5249TIP3   OH237381   5.011   1.414   8.826  1.0857  0.0123 -0.4363
 5249TIP3    H137382   5.015   1.483   8.893 -2.8207  0.3327 -0.2891
 5249TIP3    H237383   4.986   1.460   8.746 -3.5544 -1.1584  0.0717
 5250TIP3   OH237384   1.058   6.655   0.256  0.3234  0.3303 -0.2239
 5250TIP3    H137385   0.980   6.642   0.202  0.8440  0.5380 -1.0487
 5250TIP3    H237386   1.109   6.575   0.243  1.1449  0.9964 -1.2409
 5251TIP3   OH237387   5.091   1.537   6.114 -0.7028  0.8371 -0.0095
 5251TIP3    H137388   5.023   1.472   6.097  1.8613 -1.9444 -0.4652
 5251TIP3    H237389   5.145   1.537   6.034  1.5614  0.5440  1.4187
 5252TIP3   OH237390   0.332   3.564   1.066 -0.4638 -0.2830  0.2371
 5252TIP3    H137391   0.321   3.654   1.097 -1.4374 -0.3180  0.0202
 5252TIP3    H237392   0.289   3.563   0.980 -0.0527 -0.8378  0.0366
 5253TIP3   OH237393   0.493   1.117   1.829  0.6495 -0.5905 -0.6484
 5253TIP3    H137394   0.555   1.137   1.899  1.1761 -1.0560 -0.9797
 5253TIP3    H237395   0.514   1.178   1.759 -1.8263  2.0044  0.6661
 5254TIP3   OH237396   1.956   6.220   1.312 -0.1336 -0.0820  0.2774
 5254TIP3    H137397   1.961   6.303   1.359  0.7612  0.1176 -0.1447
 5254TIP3    H237398   1.998   6.157   1.371  3.3329  0.6368 -1.1864
 5255TIP3   OH237399   1.541   3.097   7.756  0.0847 -0.1772 -0.3502
 5255TIP3    H137400   1.561   3.012   7.794 -0.1318 -0.8844 -1.7442
 5255TIP3    H237401   1.526   3.079   7.663 -1.6103  1.1213 -0.3895
 5256TIP3   OH237402   4.348   1.534   0.409  0.2875  1.1520 -0.5270
 5256TIP3    H137403   4.326   1.502   0.321  0.1931 -0.7089  0.1386
 5256TIP3    H237404   4.438   1.505   0.423 -0.2179  0.0387  0.5779
 5257TIP3   OH237405   3.640   6.352   8.292  0.2523 -0.1886  0.1746
 5257TIP3    H137406   3.614   6.444   8.283 -1.0835 -0.5042  0.6332
 5257TIP3    H237407   3.647   6.339   8.387  1.4156 -0.3122  0.0822
 5258TIP3   OH237408   2.744   5.056   7.507  0.1117 -0.0808  0.5375
 5258TIP3    H137409   2.783   5.032   7.424  0.6774  0.6458  0.5779
 5258TIP3    H237410   2.650   5.045   7.494  0.3068 -2.2140  0.5573
 5259TIP3   OH237411   4.862   4.316   7.885  0.3794  0.5629  0.0418
 5259TIP3    H137412   4.896   4.296   7.798  0.2454  0.1798  0.0772
 5259TIP3    H237413   4.772   4.346   7.870 -0.0222 -0.5660  0.1411
 5260TIP3   OH237414   5.488   2.851   0.919 -0.3346 -0.2593  0.0917
 5260TIP3    H137415   5.578   2.859   0.888 -0.7213  1.4959 -0.7131
 5260TIP3    H237416   5.444   2.930   0.886 -2.1898 -1.1098  0.3847
 5261TIP3   OH237417   2.602   3.506   1.106 -0.8173  0.2186  0.3126
 5261TIP3    H137418   2.593   3.428   1.161  0.3968  0.7093  1.2400
 5261TIP3    H237419   2.669   3.483   1.042 -0.6320  0.4076  0.4363
 5262TIP3   OH237420   0.982   6.805   8.431 -0.2281 -0.3369 -0.1649
 5262TIP3    H137421   0.997   6.880   8.488 -0.0291  0.1583 -0.8639
 5262TIP3    H237422   1.046   6.740   8.460  0.8334  0.4333 -0.7446
 5263TIP3   OH237423   2.662   3.721   0.793 -0.1703 -0.4502  0.1154
 5263TIP3    H137424   2.581   3.671   0.784 -1.3621  1.0759  1.5975
 5263TIP3    H237425   2.634   3.805   0.830  2.0943  0.1519  0.6261
 5264TIP3   OH237426   4.679   0.457   8.348 -0.0503  0.1487  0.8301
 5264TIP3    H137427   4.725   0.540   8.340 -0.1378  0.1262 -0.0151
 5264TIP3    H237428   4.721   0.413   8.422  1.4914  0.0156 -0.0706
 5265TIP3   OH237429   3.104   5.425   0.365 -0.5340  0.1485 -0.4579
 5265TIP3    H137430   3.109   5.496   0.301  1.4418  0.2795 -0.2274
 5265TIP3    H237431   3.167   5.360   0.334  1.8167  0.9727  2.1506
 5266TIP3   OH237432   2.240   4.553   8.663 -0.0642  0.5172  0.2799
 5266TIP3    H137433   2.262   4.513   8.579 -0.4092 -0.5998  0.7001
 5266TIP3    H237434   2.205   4.639   8.640 -1.5358 -0.3338 -0.8457
 5267TIP3   OH237435   5.313   4.776   1.371 -0.6949 -0.2078  0.2961
 5267TIP3    H137436   5.355   4.837   1.310  0.4919 -0.1781  1.1084
 5267TIP3    H237437   5.364   4.696   1.365  0.9431  0.5344  2.9065
 5268TIP3   OH237438   1.101   1.388   6.492  0.0194  0.4911 -0.2063
 5268TIP3    H137439   1.143   1.326   6.552  1.0114  1.5750  0.2706
 5268TIP3    H237440   1.011   1.356   6.483 -0.6403  1.0592  3.0243
 5269TIP3   OH237441   3.874   0.709   6.527  0.4461 -0.6330  0.1703
 5269TIP3    H137442   3.853   0.630   6.577  0.4797 -0.5402  0.3316
 5269TIP3    H237443   3.880   0.778   6.593 -1.2459 -0.1530 -0.1209
 5270TIP3   OH237444   2.174   1.251   7.162 -0.1480 -0.4564  0.3141
 5270TIP3    H137445   2.179   1.189   7.235 -1.3734  0.5800  1.3364
 5270TIP3    H237446   2.083   1.245   7.133 -0.3501  0.9845  0.5769
 5271TIP3   OH237447   2.666   0.593   6.936  0.4789 -0.4478 -0.5880
 5271TIP3    H137448   2.697   0.513   6.979 -0.3767 -0.8770 -0.7505
 5271TIP3    H237449   2.591   0.565   6.885  0.3454  0.4164 -0.8775
 5272TIP3   OH237450   5.505   1.426   1.271 -0.5997  0.0347 -0.2823
 5272TIP3    H137451   5.512   1.332   1.254  2.0101  0.2445 -0.7245
 5272TIP3    H237452   5.473   1.431   1.361  1.0771 -1.3714  0.4618
 5273TIP3   OH237453   6.027   1.002   0.802  0.1033 -0.0074  0.0276
 5273TIP3    H137454   6.004   0.994   0.709 -1.9709 -0.9747  0.5671
 5273TIP3    H237455   5.949   1.039   0.843  2.1616  3.9246  0.9309
 5274TIP3   OH237456   4.441   2.665   0.267 -0.3763  0.3560 -0.1941
 5274TIP3    H137457   4.437   2.734   0.334 -2.0336  0.7506 -0.6455
 5274TIP3    H237458   4.525   2.678   0.225  0.6943  0.1430  1.7465
 5275TIP3   OH237459   4.335   3.891   0.459 -0.4501 -0.4602  0.0787
 5275TIP3    H137460   4.377   3.977   0.459 -1.3492  0.0092  1.2926
 5275TIP3    H237461   4.405   3.830   0.483  0.5260 -0.3046 -2.0885
 5276TIP3   OH237462   1.065   0.467   1.155 -0.1637  0.4172 -0.2953
 5276TIP3    H137463   1.108   0.550   1.176 -2.0593  1.2236  0.6371
 5276TIP3    H237464   1.102   0.404   1.217 -0.0510  1.0016  0.2391
 5277TIP3   OH237465   0.550   4.130   2.160 -0.1610 -0.2128 -0.4144
 5277TIP3    H137466   0.480   4.191   2.139 -0.7167 -0.3775  0.8786
 5277TIP3    H237467   0.577   4.154   2.248  0.7349 -0.7947 -0.5147
 5278TIP3   OH237468   1.044   5.898   1.170 -0.0173 -0.1128  0.7625
 5278TIP3    H137469   1.017   5.990   1.165 -1.5717 -0.5890 -2.4330
 5278TIP3    H237470   0.963   5.851   1.188  0.4999 -0.9429  0.9303
 5279TIP3   OH237471   2.302   2.164   0.995  0.1743 -0.0541 -0.2965
 5279TIP3    H137472   2.243   2.094   1.024  1.8514 -1.8015 -0.9064
 5279TIP3    H237473   2.278   2.180   0.904  0.4916 -0.5962 -0.4751
 5280TIP3   OH237474   2.362   0.053   1.810  0.0261  0.3218 -0.3829
 5280TIP3    H137475   2.401   0.045   1.897  1.7987 -0.3706 -1.1885
 5280TIP3    H237476   2.402  -0.017   1.759 -1.1867  0.5366 -1.6986
 5281TIP3   OH237477   6.389   4.469   8.777 -0.0598  0.7339  0.1132
 5281TIP3    H137478   6.471   4.459   8.728 -0.1160  0.8529 -0.0058
 5281TIP3    H237479   6.321   4.457   8.711 -0.1377  2.8259 -0.2386
 5282TIP3   OH237480   0.379   3.982   2.639  0.0778  0.5630  0.1661
 5282TIP3    H137481   0.363   3.888   2.646 -2.3350  0.9434  0.7845
 5282TIP3    H237482   0.391   4.011   2.729 -2.2549  1.2299  0.3370
 5283TIP3   OH237483   1.522   2.221   8.099  0.0333  0.2896  0.7945
 5283TIP3    H137484   1.516   2.134   8.138  1.7828 -0.8255 -1.2190
 5283TIP3    H237485   1.499   2.208   8.007  0.4425  1.9282  0.4257
 5284TIP3   OH237486   4.108   2.506   8.053  0.4186  0.0592 -0.2304
 5284TIP3    H137487   4.119   2.514   8.147  0.8100  2.8775 -0.4319
 5284TIP3    H237488   4.014   2.496   8.040  0.3819 -0.5261  0.4494
 5285TIP3   OH237489   4.940   0.835   7.385 -0.2396  0.2086 -0.2705
 5285TIP3    H137490   4.975   0.833   7.475 -1.2434 -0.8641  0.1148
 5285TIP3    H237491   4.873   0.903   7.388 -0.1192  0.3282 -0.2697
 5286TIP3   OH237492   0.399   5.217   1.811 -0.0050  0.2876  0.0671
 5286TIP3    H137493   0.401   5.303   1.853 -0.0255  0.0194  0.6348
 5286TIP3    H237494   0.310   5.209   1.777 -0.2115  0.2122  0.6159
 5287TIP3   OH237495   5.275   3.859   8.192 -0.1873 -0.4994  0.0135
 5287TIP3    H137496   5.271   3.766   8.216 -0.0640 -0.6963 -0.7039
 5287TIP3    H237497   5.258   3.860   8.098 -0.5343  0.2414  0.0782
 5288TIP3   OH237498   1.975   5.232   1.069 -0.3307  0.2229 -0.1658
 5288TIP3    H137499   1.897   5.180   1.090  1.2040 -1.8080  0.7535
 5288TIP3    H237500   1.992   5.283   1.149 -0.1676 -0.0554 -0.0227
 5289TIP3   OH237501   5.501   4.277   0.582  0.6124  0.6291 -0.0454
 5289TIP3    H137502   5.487   4.337   0.509  0.8130  1.5901  0.6864
 5289TIP3    H237503   5.575   4.315   0.630  0.7108 -0.1840  0.4553
 5290TIP3   OH237504   3.646   2.455   1.722  0.0528  0.2297  0.0081
 5290TIP3    H137505   3.712   2.460   1.790  2.4561 -1.2760 -2.0558
 5290TIP3    H237506   3.674   2.518   1.656 -2.1554  1.5709  0.2342
 5291TIP3   OH237507   3.104   0.201   7.311  0.0355 -0.0968 -0.2496
 5291TIP3    H137508   3.177   0.241   7.357 -0.7657 -0.2178  1.1676
 5291TIP3    H237509   3.059   0.275   7.269  1.2004 -0.0713 -1.5319
 5292TIP3   OH237510   1.922   1.014   0.170 -0.9082  0.2521  0.4853
 5292TIP3    H137511   1.899   0.922   0.155  0.0909  0.2786 -1.5650
 5292TIP3    H237512   1.978   1.012   0.247 -0.6010 -0.9188  0.2545
 5293TIP3   OH237513   0.854   3.542   7.521 -0.3154 -0.1277  0.0210
 5293TIP3    H137514   0.803   3.484   7.464 -0.4138  0.1243 -0.1467
 5293TIP3    H237515   0.789   3.597   7.564 -0.2784 -0.6049  0.7101
 5294TIP3   OH237516   2.845   6.126   8.040  0.1240 -0.1940 -0.4584
 5294TIP3    H137517   2.757   6.156   8.019 -0.7050 -1.5776  0.8185
 5294TIP3    H237518   2.832   6.041   8.082  2.0685 -0.3992 -0.1799
 5295TIP3   OH237519   6.370   6.006   1.265  0.1449 -0.4138  0.5273
 5295TIP3    H137520   6.301   6.041   1.209 -0.4531 -0.3695  1.2801
 5295TIP3    H237521   6.349   6.038   1.352 -0.6655 -2.9278  1.3354
 5296TIP3   OH237522   1.812   0.960   0.967 -0.2554  0.0395  0.1099
 5296TIP3    H137523   1.732   0.918   1.000 -0.3382  0.3674  0.3234
 5296TIP3    H237524   1.865   0.887   0.935 -0.9397 -0.1248 -0.6859
 5297TIP3   OH237525   1.352   0.062   7.841  0.6324  0.3492  0.5776
 5297TIP3    H137526   1.278   0.103   7.887 -0.0632  0.8123 -0.9008
 5297TIP3    H237527   1.333  -0.032   7.845 -1.4279  0.5552 -1.9449
 5298TIP3   OH237528   3.739   6.253   1.130  0.2554 -0.0219  0.2027
 5298TIP3    H137529   3.744   6.346   1.152 -0.7910 -0.4313  2.4768
 5298TIP3    H237530   3.792   6.209   1.195 -2.2664 -1.2591  1.5854
 5299TIP3   OH237531   5.785   0.894   8.241  0.4204 -1.3363  0.3479
 5299TIP3    H137532   5.798   0.905   8.147  0.5507 -0.4821  0.4635
 5299TIP3    H237533   5.724   0.964   8.265  0.5048 -1.4594  0.9308
 5300TIP3   OH237534   4.760   5.468   8.601 -0.4449 -0.2062 -0.0736
 5300TIP3    H137535   4.805   5.549   8.578 -0.4643 -0.5106 -1.2496
 5300TIP3    H237536   4.751   5.472   8.696 -0.8418  1.3773 -0.1427
 5301TIP3   OH237537   3.244   2.987   6.918  0.0479  0.1090  0.2874
 5301TIP3    H137538   3.339   2.999   6.912  0.1975 -1.1308 -0.1652
 5301TIP3    H237539   3.224   2.924   6.848 -0.9195 -0.5811  1.1609
 5302TIP3   OH237540   6.779   2.730   0.962  0.0506 -0.5104 -0.1205
 5302TIP3    H137541   6.870   2.726   0.932  0.5806 -2.6631  1.4811
 5302TIP3    H237542   6.740   2.648   0.930  0.0786 -1.8980  3.0187
 5303TIP3   OH237543   1.952   1.534   0.666 -0.2197  0.1960  0.9213
 5303TIP3    H137544   1.953   1.628   0.686  2.5361  0.6758 -0.9742
 5303TIP3    H237545   1.865   1.519   0.629 -0.3455  2.2767  0.2383
 5304TIP3   OH237546   6.431   1.997   0.555  0.0790  0.0710  0.5826
 5304TIP3    H137547   6.438   2.030   0.466 -0.5001 -0.7658  0.2219
 5304TIP3    H237548   6.432   2.076   0.610  0.7264  0.5736 -0.1320
 5305TIP3   OH237549   4.589   1.579   0.815 -0.4450  0.6083  0.3662
 5305TIP3    H137550   4.674   1.537   0.805 -0.8455 -0.5034  1.3766
 5305TIP3    H237551   4.576   1.626   0.733  0.7708  0.1125 -0.1355
 5306TIP3   OH237552   4.122   1.469   8.083 -0.0878 -0.1931  0.0198
 5306TIP3    H137553   4.172   1.394   8.051 -0.2326  0.6604 -2.3764
 5306TIP3    H237554   4.133   1.535   8.015 -0.4266  1.7846  1.7921
 5307TIP3   OH237555   0.022   2.553   8.710  0.1832 -0.0326 -0.0463
 5307TIP3    H137556  -0.074   2.553   8.716  0.1692  2.0622  0.4550
 5307TIP3    H237557   0.041   2.491   8.639 -1.4148 -1.7471  0.9309
 5308TIP3   OH237558   3.608   1.510   7.522  0.2217  0.0434  0.3674
 5308TIP3    H137559   3.621   1.488   7.430  1.6608  0.1104  0.5292
 5308TIP3    H237560   3.634   1.601   7.529 -0.0208  0.0828  0.8147
 5309TIP3   OH237561   0.206   2.037   8.070  0.1022 -0.2097 -0.6298
 5309TIP3    H137562   0.247   1.964   8.116 -0.8537 -0.7052 -0.5366
 5309TIP3    H237563   0.251   2.115   8.103  0.6358 -0.6954 -0.1906
 5310TIP3   OH237564   5.077   2.954   1.741 -0.3589  0.0837  0.0886
 5310TIP3    H137565   4.991   2.928   1.710 -0.0035  0.7813 -1.6234
 5310TIP3    H237566   5.124   2.872   1.757 -1.0344 -0.2904  0.1603
 5311TIP3   OH237567   1.716   0.072   0.488 -0.8054  0.3305  0.0263
 5311TIP3    H137568   1.642   0.058   0.428 -0.0602  0.2662 -0.8889
 5311TIP3    H237569   1.789   0.025   0.448  0.1795  1.7679  0.0599
 5312TIP3   OH237570   5.484   6.427   7.839  0.0079 -0.3283 -0.5609
 5312TIP3    H137571   5.486   6.418   7.934  3.0991 -1.2234 -0.6154
 5312TIP3    H237572   5.477   6.521   7.823  2.2179  0.0875  0.6345
 5313TIP3   OH237573   5.095   3.067   8.534  0.0416  0.5973 -0.1641
 5313TIP3    H137574   5.116   3.116   8.455 -1.8875  0.2839 -0.9090
 5313TIP3    H237575   5.064   3.134   8.596  0.8629  0.7476  0.0994
 5314TIP3   OH237576   3.777   0.217   7.408 -0.6795 -0.1414 -0.0683
 5314TIP3    H137577   3.852   0.164   7.381  0.6109  0.1624  2.6254
 5314TIP3    H237578   3.771   0.285   7.340  1.9486  0.2309 -0.0329
 5315TIP3   OH237579   2.373   5.491   0.415  0.1789 -0.2382  0.1712
 5315TIP3    H137580   2.351   5.541   0.336 -0.4374 -1.4746 -0.4615
 5315TIP3    H237581   2.465   5.468   0.403  0.6131  1.1184  0.6973
 5316TIP3   OH237582   5.999   3.691   0.102  0.1570 -0.2139 -0.5118
 5316TIP3    H137583   6.075   3.661   0.051  0.2238  0.3828 -0.7667
 5316TIP3    H237584   5.928   3.634   0.073  0.4988 -0.7838 -0.2669
 5317TIP3   OH237585   2.618   2.960   1.049  0.1668 -0.3409 -0.8292
 5317TIP3    H137586   2.602   3.038   1.102 -0.3542 -1.4213  0.6813
 5317TIP3    H237587   2.537   2.909   1.055  0.3843 -0.8749 -2.0392
 5318TIP3   OH237588   3.307   0.682   6.015  0.5227 -0.1059  0.0103
 5318TIP3    H137589   3.237   0.743   6.036 -0.3140 -0.2137 -2.2386
 5318TIP3    H237590   3.263   0.605   5.979  1.7272 -0.7073 -0.2486
 5319TIP3   OH237591   5.655   2.662   2.906  0.6230 -0.4122  0.0359
 5319TIP3    H137592   5.706   2.581   2.909  0.0752 -0.7783 -0.2804
 5319TIP3    H237593   5.584   2.649   2.969  0.6233 -0.1140  0.1005
 5320TIP3   OH237594   2.044   4.311   6.385 -0.3665  0.1798  0.0449
 5320TIP3    H137595   1.997   4.393   6.374 -1.6997 -0.7446 -1.4144
 5320TIP3    H237596   2.111   4.312   6.317 -0.8461 -0.2328 -0.4447
 5321TIP3   OH237597   1.050   1.162   7.285  0.5084 -0.0860 -0.0824
 5321TIP3    H137598   0.971   1.156   7.339  0.5173 -0.0520 -0.0662
 5321TIP3    H237599   1.071   1.070   7.265  1.7641 -0.2568  1.7850
 5322TIP3   OH237600   0.201   4.444   1.081  0.2328  0.2254  0.1362
 5322TIP3    H137601   0.238   4.525   1.046  0.3246  0.7540  1.3987
 5322TIP3    H237602   0.240   4.375   1.027  2.7191  0.7943  1.0490
 5323TIP3   OH237603   4.622   0.733   7.296  0.5488  0.0383 -0.0172
 5323TIP3    H137604   4.543   0.679   7.299 -0.3587  1.3270  0.0503
 5323TIP3    H237605   4.645   0.746   7.387 -1.4893  2.8692  0.2362
 5324TIP3   OH237606   5.070   0.757   1.674  0.3195 -0.3289 -0.3728
 5324TIP3    H137607   5.053   0.667   1.647  1.9606 -1.0502  0.8034
 5324TIP3    H237608   5.163   0.770   1.657 -0.1843  1.7066 -1.9538
 5325TIP3   OH237609   5.205   6.637   2.051 -0.2658 -0.4381 -0.1037
 5325TIP3    H137610   5.281   6.647   2.108 -0.4449 -0.9880  0.2335
 5325TIP3    H237611   5.149   6.575   2.096 -1.5054  0.8905  0.2426
 5326TIP3   OH237612   5.486   6.227   1.989  0.0440  0.5567  0.3605
 5326TIP3    H137613   5.541   6.255   2.061  0.0517  1.1076  0.1422
 5326TIP3    H237614   5.397   6.248   2.017  0.0248  0.5341  0.3172
 5327TIP3   OH237615   5.660   3.068   2.445  0.2914 -1.0352  0.4764
 5327TIP3    H137616   5.590   3.133   2.449  0.2894 -1.0990  1.7387
 5327TIP3    H237617   5.618   2.988   2.414  0.0125 -0.8108  0.2761
 5328TIP3   OH237618   3.604   1.491   1.787 -0.0220  0.3770 -0.5477
 5328TIP3    H137619   3.647   1.427   1.731  0.2298  0.2830 -0.2501
 5328TIP3    H237620   3.515   1.457   1.799 -0.6204  1.2218 -2.2217
 5329TIP3   OH237621   0.036   3.203   8.671  0.1825  0.1521 -0.3332
 5329TIP3    H137622   0.011   3.190   8.579  0.4093 -0.4371 -0.3133
 5329TIP3    H237623   0.091   3.281   8.670  1.8985 -1.0244 -1.0095
 5330TIP3   OH237624   5.325   2.978   8.672  0.0186 -0.1679  0.2754
 5330TIP3    H137625   5.368   3.046   8.620  1.4403 -0.3338  1.1938
 5330TIP3    H237626   5.242   2.963   8.627  1.0698 -0.1081 -1.7728
 5331TIP3   OH237627   4.405   2.499   1.234  0.1094 -0.4630  0.1556
 5331TIP3    H137628   4.417   2.588   1.199 -0.6484 -0.1138  0.7602
 5331TIP3    H237629   4.493   2.461   1.231  0.1367 -0.3203 -1.7528
 5332TIP3   OH237630   0.029   3.100   7.622 -0.1864 -0.4336 -0.0272
 5332TIP3    H137631   0.008   3.110   7.715  0.6473 -0.6940  0.1985
 5332TIP3    H237632  -0.027   3.163   7.577 -0.6620 -0.3752  0.6433
 5333TIP3   OH237633   0.435   0.664   7.762 -0.8611  0.1414 -0.3432
 5333TIP3    H137634   0.378   0.739   7.778 -1.2744 -0.0784 -0.7829
 5333TIP3    H237635   0.394   0.591   7.809 -1.1953 -0.1243 -1.0391
 5334TIP3   OH237636   1.607   2.778   7.350  0.3397  0.6030 -0.0530
 5334TIP3    H137637   1.574   2.752   7.437 -1.1976  0.3241 -0.6814
 5334TIP3    H237638   1.673   2.713   7.329 -0.7136 -0.5496  0.0699
 5335TIP3   OH237639   1.169   4.878   7.154  0.8089 -0.0725  0.3247
 5335TIP3    H137640   1.144   4.841   7.069  1.5061 -0.0329  0.0990
 5335TIP3    H237641   1.144   4.970   7.148 -1.8424 -0.6311  1.2396
 5336TIP3   OH237642   3.299   0.039   0.886  0.4280  0.2351 -0.3524
 5336TIP3    H137643   3.270  -0.044   0.924 -0.0388  0.1677 -0.8425
 5336TIP3    H237644   3.394   0.033   0.887  0.4039 -0.2070 -0.1649
 5337TIP3   OH237645   2.680   5.323   0.916  0.1667  0.1440 -0.3584
 5337TIP3    H137646   2.723   5.287   0.993  0.0907  0.1493 -0.3128
 5337TIP3    H237647   2.742   5.388   0.882  0.7116 -0.7029 -0.9951
 5338TIP3   OH237648   5.050   6.402   7.446  0.6867 -0.0361  0.0053
 5338TIP3    H137649   5.043   6.378   7.539  0.2145  0.9397  0.2350
 5338TIP3    H237650   5.068   6.319   7.401 -0.9799 -0.8690  0.7610
 5339TIP3   OH237651   6.268   0.635   7.430 -0.2204  0.2347  0.2264
 5339TIP3    H137652   6.358   0.668   7.427 -0.0076 -0.2249  1.1993
 5339TIP3    H237653   6.230   0.662   7.346  0.9606  0.0288 -0.3978
 5340TIP3   OH237654   0.017   5.030   2.332 -0.2007 -0.2652  0.0461
 5340TIP3    H137655  -0.020   5.056   2.248  0.6573 -2.7548 -1.1833
 5340TIP3    H237656  -0.059   5.005   2.385 -0.5919 -0.7713 -0.7523
 5341TIP3   OH237657   4.275   3.342   7.192  0.0634  0.6261  0.1159
 5341TIP3    H137658   4.329   3.308   7.262  0.3731  0.1824 -0.3330
 5341TIP3    H237659   4.209   3.274   7.176  0.1084  0.6393 -0.1431
 5342TIP3   OH237660   0.318   1.183   8.292 -0.7182  0.1388  0.1395
 5342TIP3    H137661   0.302   1.184   8.197  1.0056 -0.7110 -0.1916
 5342TIP3    H237662   0.382   1.253   8.306 -0.8175  0.1283  0.6534
 5343TIP3   OH237663   2.481   4.530   1.365 -0.2211 -0.4459 -0.1615
 5343TIP3    H137664   2.529   4.604   1.403  1.8813 -1.0012 -1.5936
 5343TIP3    H237665   2.390   4.544   1.393  0.4475  1.5889  1.2341
 5344TIP3   OH237666   3.601   3.913   1.675 -0.2710 -0.6026 -0.2252
 5344TIP3    H137667   3.546   3.875   1.605 -1.9291  2.3913 -0.7382
 5344TIP3    H237668   3.551   3.899   1.755 -1.3563  1.1476 -0.5426
 5345TIP3   OH237669   2.266   2.732   0.880 -0.5212 -0.0166  0.1457
 5345TIP3    H137670   2.298   2.643   0.863  1.1965  0.5638  0.0796
 5345TIP3    H237671   2.221   2.725   0.964  1.4223 -0.5989  1.2215
 5346TIP3   OH237672   1.046   5.023   6.585 -0.3378 -0.1672 -0.1992
 5346TIP3    H137673   0.974   5.060   6.636 -1.6894 -1.1479 -1.3206
 5346TIP3    H237674   1.036   4.928   6.596  0.8263 -0.3218 -0.3407
 5347TIP3   OH237675   4.199   1.298   1.548 -0.5489  0.4438 -0.1372
 5347TIP3    H137676   4.271   1.236   1.557 -0.3536  0.5779 -0.6952
 5347TIP3    H237677   4.164   1.281   1.460 -0.4307  1.1839 -0.3347
 5348TIP3   OH237678   6.186   3.532   0.300  0.4076 -0.5789  0.3733
 5348TIP3    H137679   6.270   3.555   0.261  0.3931  0.0267  0.6817
 5348TIP3    H237680   6.122   3.585   0.253  0.3203 -0.2911  0.8073
 5349TIP3   OH237681   1.450   4.346   7.433  0.1376  0.7082 -0.6093
 5349TIP3    H137682   1.483   4.273   7.380  1.1781  1.0535 -0.4551
 5349TIP3    H237683   1.527   4.401   7.448 -0.7229  2.0744 -1.0954
 5350TIP3   OH237684   4.638   6.627   1.036  0.1782 -0.2657  0.4060
 5350TIP3    H137685   4.638   6.605   0.942 -1.6835 -1.1102  0.5446
 5350TIP3    H237686   4.584   6.706   1.042 -0.1687 -0.5281  0.8086
 5351TIP3   OH237687   0.737   1.068   1.094  0.1942  0.0936 -0.1590
 5351TIP3    H137688   0.694   1.138   1.045  0.3456 -0.2642 -0.8118
 5351TIP3    H237689   0.790   1.114   1.159 -0.6837  0.5523  0.2511
 5352TIP3   OH237690   5.183   2.394   7.400 -0.4261 -0.0299  0.1003
 5352TIP3    H137691   5.088   2.405   7.386 -0.5261 -2.7457 -2.4673
 5352TIP3    H237692   5.221   2.413   7.315  0.7451 -3.4708 -0.2911
 5353TIP3   OH237693   1.159   5.431   1.129  0.1195 -0.4727  0.0062
 5353TIP3    H137694   1.222   5.444   1.200  0.7529  2.3949 -0.9195
 5353TIP3    H237695   1.073   5.432   1.172  0.5667 -0.8768  0.9240
 5354TIP3   OH237696   5.807   3.092   8.210 -0.0344 -0.3142 -0.8188
 5354TIP3    H137697   5.893   3.057   8.185  0.6285  0.9969 -0.4668
 5354TIP3    H237698   5.749   3.067   8.139  0.0500 -3.2958  0.0274
 5355TIP3   OH237699   6.415   0.781   0.743  0.0009 -0.0464  0.3110
 5355TIP3    H137700   6.490   0.754   0.690  0.3992 -0.6364  1.1465
 5355TIP3    H237701   6.397   0.705   0.799 -2.2067 -0.5195 -0.9270
 5356TIP3   OH237702   4.766   1.717   8.727 -0.1971  0.2972 -0.2405
 5356TIP3    H137703   4.718   1.634   8.723 -0.5712  0.4226  1.2062
 5356TIP3    H237704   4.817   1.711   8.808 -0.1414  1.4201 -0.1822
 5357TIP3   OH237705   2.482   4.245   0.829  0.0689 -0.2717 -0.1828
 5357TIP3    H137706   2.524   4.298   0.897  3.2791 -0.9626 -1.4857
 5357TIP3    H237707   2.482   4.301   0.751  2.3669 -1.6580 -1.2437
 5358TIP3   OH237708   4.109   4.412   7.453 -0.0016 -0.2506  0.8332
 5358TIP3    H137709   4.139   4.328   7.419 -0.4191  0.2187 -0.8012
 5358TIP3    H237710   4.189   4.464   7.462  0.1606 -0.5249  0.9945
 5359TIP3   OH237711   6.308   6.684   7.355 -0.5797  0.3285  0.2505
 5359TIP3    H137712   6.335   6.768   7.316 -1.2906  0.3732 -0.1680
 5359TIP3    H237713   6.390   6.639   7.373 -0.2065  0.4356 -1.0360
 5360TIP3   OH237714   0.323   5.930   1.245 -0.5017 -0.1631  0.2925
 5360TIP3    H137715   0.295   5.882   1.323  0.9357 -0.1419  0.8568
 5360TIP3    H237716   0.365   5.863   1.191  0.1635  0.1656  0.3936
 5361TIP3   OH237717   3.394   1.778   8.437 -0.7467 -0.0511 -0.2223
 5361TIP3    H137718   3.454   1.848   8.411 -1.4936  0.7121  0.0837
 5361TIP3    H237719   3.445   1.725   8.499 -0.8864  1.5343  1.3372
 5362TIP3   OH237720   6.236   1.344   8.362  0.1164  0.1696  0.1603
 5362TIP3    H137721   6.303   1.379   8.420 -0.7205  2.4543 -0.1625
 5362TIP3    H237722   6.159   1.332   8.418  0.1723 -0.4846  0.1100
 5363TIP3   OH237723   1.763   1.793   8.239  0.3175 -0.1283  0.1177
 5363TIP3    H137724   1.764   1.873   8.187 -2.0098 -1.3752 -2.0078
 5363TIP3    H237725   1.845   1.749   8.216  1.4576  1.3836  1.0477
 5364TIP3   OH237726   3.388   2.826   7.921 -0.4209  0.1979 -0.3529
 5364TIP3    H137727   3.364   2.768   7.994 -0.2220  1.6684  0.9396
 5364TIP3    H237728   3.335   2.795   7.848 -0.0400 -1.8423  0.1522
 5365TIP3   OH237729   1.614   5.371   8.709  0.4218  0.3107  0.2806
 5365TIP3    H137730   1.560   5.341   8.635  0.0214  0.6500  0.4325
 5365TIP3    H237731   1.556   5.427   8.760  0.7153  0.1307  0.8235
 5366TIP3   OH237732   2.648   4.468   8.605  0.2074 -0.4147  0.2868
 5366TIP3    H137733   2.592   4.421   8.667  0.2217 -1.4134 -0.4336
 5366TIP3    H237734   2.624   4.433   8.520 -0.6993  1.8190 -0.4411
 5367TIP3   OH237735   3.351   0.027   8.081  0.3746 -0.1792  0.2565
 5367TIP3    H137736   3.431  -0.006   8.122  1.0567  0.7699 -0.2782
 5367TIP3    H237737   3.380   0.100   8.027 -0.7403 -0.3611 -0.6242
 5368TIP3   OH237738   3.754   6.438   1.561 -0.1500  0.3661  0.6058
 5368TIP3    H137739   3.729   6.387   1.484 -1.9951 -2.0092  2.6074
 5368TIP3    H237740   3.845   6.463   1.545 -0.0399 -1.2620 -1.7156
 5369TIP3   OH237741   5.586   4.211   7.097  0.6491 -0.0536  0.1369
 5369TIP3    H137742   5.631   4.295   7.108  1.3826 -0.4398  0.1186
 5369TIP3    H237743   5.501   4.235   7.060  1.0837  0.6395 -0.4421
 5370TIP3   OH237744   6.783   4.071   8.828  0.4860  0.3361 -0.1668
 5370TIP3    H137745   6.769   4.137   8.760 -0.7555 -0.2555 -0.5108
 5370TIP3    H237746   6.699   4.067   8.875  0.9822 -0.0372  0.7169
 5371TIP3   OH237747   2.166   6.481   7.586 -0.5148 -0.1583  0.6428
 5371TIP3    H137748   2.199   6.568   7.608  1.7328 -0.9908  0.7996
 5371TIP3    H237749   2.224   6.420   7.633 -1.3065 -1.7661 -0.3625
 5372TIP3   OH237750   6.019   4.148   8.226  0.1305  0.5064  0.4229
 5372TIP3    H137751   5.935   4.190   8.208 -0.5515 -0.9178  0.1914
 5372TIP3    H237752   5.999   4.055   8.232  1.7854  0.0741 -0.1803
 5373TIP3   OH237753   3.592   2.093   7.302  0.3355 -0.3104 -0.0166
 5373TIP3    H137754   3.521   2.041   7.340 -0.1406 -0.4491 -1.0600
 5373TIP3    H237755   3.672   2.053   7.336 -0.0393  1.0964  2.8281
 5374TIP3   OH237756   5.675   3.136   1.519 -0.4625 -0.3769 -0.1093
 5374TIP3    H137757   5.675   3.068   1.451 -0.7133  0.2083 -0.7109
 5374TIP3    H237758   5.599   3.191   1.498  0.8551  1.2646 -0.8451
 5375TIP3   OH237759   4.015   4.734   6.690  0.5170 -0.0984  0.0887
 5375TIP3    H137760   4.077   4.708   6.622 -1.2214  0.3556 -1.7348
 5375TIP3    H237761   3.985   4.652   6.728 -0.0194 -0.4812 -1.1180
 5376TIP3   OH237762   6.267   6.557   7.911 -0.0307  0.2937 -0.4373
 5376TIP3    H137763   6.295   6.579   7.823  0.1155 -0.4267 -0.5719
 5376TIP3    H237764   6.337   6.502   7.946 -0.2657  0.2649 -0.0058
 5377TIP3   OH237765   4.954   2.142   7.431 -0.2562  0.1318  0.0688
 5377TIP3    H137766   4.974   2.048   7.432  1.0030  0.3395 -1.5387
 5377TIP3    H237767   5.021   2.182   7.486  1.9456  0.4760 -2.6676
 5378TIP3   OH237768   6.351   4.667   8.365 -0.1383 -0.2952 -0.2509
 5378TIP3    H137769   6.321   4.748   8.404 -0.9931  0.1423 -1.7360
 5378TIP3    H237770   6.426   4.692   8.310 -0.1274 -0.5720 -0.3686
 5379TIP3   OH237771   1.410   5.145   1.606 -0.4731 -0.2975  0.0101
 5379TIP3    H137772   1.499   5.142   1.642 -1.3700  2.4590  2.8287
 5379TIP3    H237773   1.388   5.238   1.603 -3.5022 -0.9049 -0.0706
 5380TIP3   OH237774   0.560   2.506   0.753  0.4912 -0.3720 -0.1707
 5380TIP3    H137775   0.490   2.531   0.813  0.0473  1.0740 -1.2497
 5380TIP3    H237776   0.518   2.502   0.667  1.3476 -1.3398 -0.5638
 5381TIP3   OH237777   0.074   2.228   6.674 -0.2844 -0.0238 -0.2843
 5381TIP3    H137778  -0.021   2.218   6.672 -0.3430  0.5932 -0.9416
 5381TIP3    H237779   0.089   2.322   6.670  0.3535 -0.1017  0.1461
 5382TIP3   OH237780   3.834   5.551   7.769  0.1185 -0.1989 -0.4168
 5382TIP3    H137781   3.815   5.471   7.720  3.0794 -2.0212  1.0971
 5382TIP3    H237782   3.901   5.595   7.717 -0.2110  0.3766 -0.3572
 5383TIP3   OH237783   0.840   0.364   8.701  0.7207  0.9128 -0.1651
 5383TIP3    H137784   0.860   0.354   8.794  0.3276  0.6374 -0.1089
 5383TIP3    H237785   0.909   0.314   8.656  0.0224 -0.2749  0.0381
 5384TIP3   OH237786   1.470   5.498   0.088  0.1900 -0.6483  0.7821
 5384TIP3    H137787   1.392   5.551   0.100 -0.6332 -1.4079 -0.9239
 5384TIP3    H237788   1.537   5.541   0.142 -0.9830  0.8822  1.0750
 5385TIP3   OH237789   3.928   6.058   8.346  0.0017 -0.2183  0.1630
 5385TIP3    H137790   3.898   5.971   8.322 -1.5903  0.2562  0.3582
 5385TIP3    H237791   3.890   6.116   8.280  1.6537  0.2803 -0.4087
 5386TIP3   OH237792   1.314   3.704   1.230 -0.2109  0.2836  0.9236
 5386TIP3    H137793   1.278   3.633   1.177 -0.6087  0.8010  0.4855
 5386TIP3    H237794   1.302   3.783   1.176 -1.4722  0.9715  2.1285
 5387TIP3   OH237795   5.758   5.913   1.839 -0.1256  0.3041 -0.4025
 5387TIP3    H137796   5.693   5.932   1.906 -0.0171 -0.2140 -0.1486
 5387TIP3    H237797   5.833   5.969   1.862  0.0378 -0.1120  0.1066
 5388TIP3   OH237798   1.594   0.985   1.629 -0.0016 -0.2778  0.6501
 5388TIP3    H137799   1.669   1.025   1.673 -0.7021  1.1026  0.6481
 5388TIP3    H237800   1.602   1.014   1.538 -0.7955  0.3108  0.7583
 5389TIP3   OH237801   0.114   2.222   0.515 -0.1485  0.5306 -0.0171
 5389TIP3    H137802   0.061   2.229   0.435 -2.8174  0.7848  1.6539
 5389TIP3    H237803   0.158   2.137   0.506 -3.5017 -1.3950 -0.1220
 5390TIP3   OH237804   6.136   5.431   7.349  0.7830 -0.4750  0.0726
 5390TIP3    H137805   6.110   5.457   7.261  1.7955  1.8353  0.3872
 5390TIP3    H237806   6.205   5.366   7.335  0.7332 -0.3514 -0.8253
 5391TIP3   OH237807   5.597   4.835   7.757  0.0633 -0.4702 -0.5380
 5391TIP3    H137808   5.683   4.825   7.716 -0.0080  1.5439 -1.2924
 5391TIP3    H237809   5.613   4.830   7.851  1.5403  2.6903 -0.4924
 5392TIP3   OH237810   3.049   2.977   7.923 -0.7726  0.2878 -0.2281
 5392TIP3    H137811   3.120   2.975   7.859 -2.2319  0.3800 -1.9367
 5392TIP3    H237812   3.076   2.915   7.991  0.1710 -0.9770 -1.6852
 5393TIP3   OH237813   2.501   0.894   1.690 -0.1875  0.4205 -0.4259
 5393TIP3    H137814   2.485   0.984   1.718  0.7652  0.4406  0.0807
 5393TIP3    H237815   2.490   0.841   1.769 -1.9758 -0.0925 -0.9589
 5394TIP3   OH237816   4.484   0.339   8.836  0.5391  0.3923 -0.1089
 5394TIP3    H137817   4.409   0.397   8.846  0.1815 -0.0820  0.0248
 5394TIP3    H237818   4.529   0.343   8.921 -0.5562 -0.9678  0.5981
 5395TIP3   OH237819   2.168   1.079   7.376 -0.0292 -0.2070 -0.0700
 5395TIP3    H137820   2.244   1.106   7.428  0.2957 -1.7455  0.2886
 5395TIP3    H237821   2.198   1.004   7.326 -1.2775 -0.7871  0.0067
 5396TIP3   OH237822   2.412   6.356   8.813  0.3940 -0.4383  0.3870
 5396TIP3    H137823   2.504   6.382   8.816  0.5760 -1.1861  1.8986
 5396TIP3    H237824   2.402   6.317   8.726  0.8507  1.8398 -0.7781
 5397TIP3   OH237825   5.569   2.591   1.694  0.2941  0.8523  0.6396
 5397TIP3    H137826   5.599   2.505   1.665  0.9127  1.3814 -0.3108
 5397TIP3    H237827   5.599   2.597   1.785 -0.0173 -0.0424  0.8167
 5398TIP3   OH237828   3.396   6.413   0.489 -0.0844  0.0953  0.5079
 5398TIP3    H137829   3.407   6.478   0.420 -0.2802  0.7472  1.0690
 5398TIP3    H237830   3.354   6.462   0.561 -2.1500 -1.1259  0.2108
 5399TIP3   OH237831   3.914   1.990   1.266  0.0292 -0.7443  0.1852
 5399TIP3    H137832   3.834   2.043   1.263  0.4099 -0.2320 -1.2226
 5399TIP3    H237833   3.983   2.049   1.238  0.3377 -2.1932 -2.3273
 5400TIP3   OH237834   4.879   3.641   1.472  0.5413 -0.2105  0.3406
 5400TIP3    H137835   4.931   3.688   1.538  0.4719  1.4268 -0.7329
 5400TIP3    H237836   4.813   3.595   1.524 -0.5834  2.3718  1.3837
 5401TIP3   OH237837   2.189   1.387   8.610  0.0107 -0.8106 -0.4886
 5401TIP3    H137838   2.155   1.433   8.533  0.3565 -1.2378 -0.9016
 5401TIP3    H237839   2.253   1.448   8.648 -1.6179  0.2598  0.6464
 5402TIP3   OH237840   6.339   0.012   0.449  0.2435  1.0391 -0.7302
 5402TIP3    H137841   6.363  -0.008   0.540  3.4740  2.6673 -1.0519
 5402TIP3    H237842   6.335   0.108   0.446 -1.8277  0.9805 -1.9440
 5403TIP3   OH237843   4.381   1.093   1.848  0.1513  0.4022 -0.2877
 5403TIP3    H137844   4.351   1.143   1.924  1.0883 -1.8784  1.6944
 5403TIP3    H237845   4.459   1.141   1.818  1.2845 -0.0053  1.8199
 5404TIP3   OH237846   4.003   1.786   1.086 -0.7348  0.5373 -0.3714
 5404TIP3    H137847   3.945   1.727   1.039  0.0120  0.5948 -1.4233
 5404TIP3    H237848   3.953   1.814   1.162 -1.5662 -0.4568 -0.5315
 5405TIP3   OH237849   2.086   3.846   6.877  0.2008 -0.0433  0.1426
 5405TIP3    H137850   2.074   3.940   6.891 -1.5282 -0.4152  1.7422
 5405TIP3    H237851   2.021   3.823   6.811 -0.5778 -0.3519  0.9894
 5406TIP3   OH237852   6.798   6.846   1.476 -0.2516  0.0415  0.9008
 5406TIP3    H137853   6.826   6.938   1.475 -2.6472  0.8649 -1.0269
 5406TIP3    H237854   6.836   6.811   1.556  2.6501  2.0442  0.5688
 5407TIP3   OH237855   1.760   4.113   7.374  0.3685 -0.3063 -0.2109
 5407TIP3    H137856   1.789   4.101   7.284 -1.4195  0.2359 -0.9099
 5407TIP3    H237857   1.800   4.196   7.400  1.3189 -0.7191 -0.2952
 5408TIP3   OH237858   2.204   2.907   7.195  0.1732 -0.1021  0.3372
 5408TIP3    H137859   2.199   2.934   7.103 -1.1183 -1.9487 -0.1984
 5408TIP3    H237860   2.238   2.818   7.192  0.9179  0.0986  1.7430
 5409TIP3   OH237861   6.315   6.212   8.125  0.2470  0.1458  0.5320
 5409TIP3    H137862   6.254   6.146   8.158  0.1056 -0.1178 -0.2472
 5409TIP3    H237863   6.388   6.162   8.089 -0.1901  0.3737 -0.7135
 5410TIP3   OH237864   5.130   0.572   0.651  0.2130 -0.3196 -0.4663
 5410TIP3    H137865   5.039   0.546   0.670  0.0769 -0.2096 -0.9665
 5410TIP3    H237866   5.180   0.491   0.658 -0.0177 -0.4932 -0.7831
 5411TIP3   OH237867   5.537   1.141   7.813  0.0585 -0.3895 -0.0040
 5411TIP3    H137868   5.555   1.137   7.719 -2.4508  0.3414 -0.6002
 5411TIP3    H237869   5.581   1.221   7.842  1.3281 -0.9234 -0.4088
 5412TIP3   OH237870   5.648   0.212   7.708  0.4050 -0.3099 -0.0717
 5412TIP3    H137871   5.694   0.206   7.791  1.0059  0.4148 -0.3356
 5412TIP3    H237872   5.715   0.242   7.646 -0.6022  1.6355 -0.2900
 5413TIP3   OH237873   4.463   1.312   7.232 -0.1469 -0.0629 -0.1492
 5413TIP3    H137874   4.391   1.250   7.218  0.5375 -0.8238 -0.3517
 5413TIP3    H237875   4.432   1.368   7.304 -0.2797 -1.4242  0.8913
 5414TIP3   OH237876   4.273   3.835   7.386 -0.0177 -0.0236  0.2163
 5414TIP3    H137877   4.226   3.791   7.315 -0.7508 -1.5335  1.5640
 5414TIP3    H237878   4.364   3.838   7.356 -0.5882  1.1056 -1.5645
 5415TIP3   OH237879   5.119   2.488   2.007  0.1904  0.2440  0.1658
 5415TIP3    H137880   5.079   2.503   2.092 -0.3987  1.9592 -0.3852
 5415TIP3    H237881   5.211   2.470   2.027  0.3673  1.9797  1.1228
 5416TIP3   OH237882   2.333   5.474   8.313  0.5031  0.4878 -0.0843
 5416TIP3    H137883   2.339   5.568   8.330  0.1853  0.9819 -2.4456
 5416TIP3    H237884   2.291   5.467   8.227  1.6963 -1.7749 -0.5576
 5417TIP3   OH237885   0.808   5.279   0.586 -0.0845 -0.2563  0.2701
 5417TIP3    H137886   0.865   5.244   0.655 -0.4140  0.3986  0.8855
 5417TIP3    H237887   0.726   5.229   0.596 -0.3003  0.1724  0.6735
 5418TIP3   OH237888   6.820   1.934   1.039  0.4864 -0.0386 -0.1403
 5418TIP3    H137889   6.764   2.002   1.077 -2.5348 -1.9237 -0.7927
 5418TIP3    H237890   6.853   1.972   0.958 -0.2143  1.0300  0.0564
 5419TIP3   OH237891   6.017   5.598   2.444  0.2148 -0.4412 -0.5455
 5419TIP3    H137892   5.978   5.525   2.492  1.5094  0.3235  1.8143
 5419TIP3    H237893   5.994   5.581   2.352 -3.3651 -1.3654  0.3844
 5420TIP3   OH237894   4.767   3.424   8.145 -0.4189  0.8766 -0.1813
 5420TIP3    H137895   4.734   3.506   8.181  0.2105  0.7353  0.7568
 5420TIP3    H237896   4.856   3.417   8.178  0.3661  0.9281 -2.1244
 5421TIP3   OH237897   5.239   2.730   8.268 -0.3430 -0.5253 -0.2138
 5421TIP3    H137898   5.260   2.656   8.211  0.1497 -0.1068 -0.5847
 5421TIP3    H237899   5.282   2.709   8.351 -0.0691 -0.5774 -0.3682
 5422TIP3   OH237900   6.563   6.643   2.156 -0.7457  0.2156  0.3634
 5422TIP3    H137901   6.541   6.556   2.190 -1.3853  0.0181 -0.5089
 5422TIP3    H237902   6.601   6.689   2.230 -1.3992 -0.4522  1.1294
 5423TIP3   OH237903   3.279   2.897   0.796  0.0329 -0.5272  0.4274
 5423TIP3    H137904   3.356   2.951   0.778 -1.5532  1.0769 -2.2861
 5423TIP3    H237905   3.301   2.812   0.759  1.1656 -0.6692  1.3666
 5424TIP3   OH237906   4.311   0.101   7.122 -0.3124 -0.1151 -0.1740
 5424TIP3    H137907   4.273   0.154   7.192 -1.1001 -1.7749  0.7434
 5424TIP3    H237908   4.395   0.072   7.156  1.4107  2.5954 -1.7405
 5425TIP3   OH237909   1.398   2.716   0.872  0.2767 -0.1303  0.0253
 5425TIP3    H137910   1.389   2.673   0.957 -0.8449  0.5731  0.2880
 5425TIP3    H237911   1.483   2.759   0.875  0.8868 -1.3146  0.2207
 5426TIP3   OH237912   0.029   0.861   1.935 -0.7529  0.0963  0.3650
 5426TIP3    H137913   0.046   0.777   1.977  1.2066  0.6417  0.7842
 5426TIP3    H237914   0.115   0.905   1.934 -1.2515  1.1958 -1.8154
 5427TIP3   OH237915   5.408   4.781   8.725 -0.1124  0.6458  0.0702
 5427TIP3    H137916   5.318   4.786   8.694 -0.1917  1.3399  0.3931
 5427TIP3    H237917   5.440   4.696   8.694 -1.3262 -0.2387  1.1472
 5428TIP3   OH237918   3.391   1.534   1.298  0.3166 -0.2761 -0.2462
 5428TIP3    H137919   3.485   1.524   1.317  0.0942  0.0775  1.1152
 5428TIP3    H237920   3.347   1.491   1.371 -0.5930  0.1814 -0.5145
 5429TIP3   OH237921   4.201   1.964   8.226  0.1845  0.8260  0.1513
 5429TIP3    H137922   4.117   1.919   8.238 -0.0070  1.1185 -0.0787
 5429TIP3    H237923   4.258   1.897   8.188  0.1915  0.4936  0.7451
 5430TIP3   OH237924   0.030   2.876   0.045 -0.0511  0.5222  0.4190
 5430TIP3    H137925   0.004   2.905   0.133 -1.7898 -1.0520  0.4784
 5430TIP3    H237926  -0.051   2.848   0.004  0.8893  0.2731 -1.3422
 5431TIP3   OH237927   4.666   2.619   0.638  0.2136  0.1023  0.7036
 5431TIP3    H137928   4.631   2.532   0.658  0.7970 -0.2713  0.1186
 5431TIP3    H237929   4.705   2.610   0.551  1.2564  0.6672  1.1019
 5432TIP3   OH237930   2.477   0.992   7.085  0.2331  0.0248  0.1950
 5432TIP3    H137931   2.461   0.928   7.016  1.1337 -1.9390  1.7212
 5432TIP3    H237932   2.451   0.948   7.166  3.5631  0.3951  1.6230
 5433TIP3   OH237933   4.819   3.550   7.114  0.2351 -0.6639 -0.6256
 5433TIP3    H137934   4.745   3.513   7.161  2.3890 -2.5869  1.5139
 5433TIP3    H237935   4.836   3.488   7.042  1.6693 -2.0579  0.8396
 5434TIP3   OH237936   5.112   2.468   7.108 -0.3253  0.3569 -0.1373
 5434TIP3    H137937   5.122   2.506   7.022  0.9580  1.2893  0.4050
 5434TIP3    H237938   5.020   2.441   7.112 -0.0105 -1.2905 -2.4070
 5435TIP3   OH237939   2.868   0.049   1.943 -0.3508 -0.1824 -0.1457
 5435TIP3    H137940   2.853   0.068   2.035 -0.8681 -1.2426  0.0016
 5435TIP3    H237941   2.791  -0.000   1.915 -0.3490  0.3889 -1.2355
 5436TIP3   OH237942   2.393   1.395   7.870 -0.1235  0.2703 -0.4681
 5436TIP3    H137943   2.368   1.436   7.953  0.2759  0.0503 -0.2382
 5436TIP3    H237944   2.316   1.346   7.843 -0.6729  1.3066 -0.8338
 5437TIP3   OH237945   0.731   6.704   8.355 -0.2235 -0.5517  0.1326
 5437TIP3    H137946   0.819   6.739   8.369  0.4996 -1.0341 -2.5724
 5437TIP3    H237947   0.679   6.780   8.329 -0.4056 -0.4104  0.8898
 5438TIP3   OH237948   6.216   1.319   8.833 -0.1792  0.4525 -0.3368
 5438TIP3    H137949   6.163   1.246   8.864  0.3110 -0.7052 -2.0667
 5438TIP3    H237950   6.186   1.334   8.743  0.4002  1.7349 -0.3322
 5439TIP3   OH237951   3.762   3.794   8.241  0.1719  0.5708  0.4540
 5439TIP3    H137952   3.818   3.867   8.212 -0.3189  0.6366 -0.3825
 5439TIP3    H237953   3.817   3.717   8.233 -1.0320 -0.1785 -5.1565
 5440TIP3   OH237954   0.096   1.535   7.610  0.2976  0.1302  0.0580
 5440TIP3    H137955   0.151   1.478   7.557  1.1133  0.0909  0.9024
 5440TIP3    H237956   0.049   1.476   7.669 -1.7819  0.0398 -1.5995
 5441TIP3   OH237957   1.019   1.606   7.151  0.1950  0.0209  0.1505
 5441TIP3    H137958   1.029   1.606   7.056  3.4413 -2.1178  0.3249
 5441TIP3    H237959   0.964   1.530   7.170 -0.4714  0.4610  0.0259
 5442TIP3   OH237960   5.436   1.415   0.733  0.4829  0.4173 -0.0718
 5442TIP3    H137961   5.390   1.484   0.685 -1.5045 -1.2717 -0.7647
 5442TIP3    H237962   5.414   1.431   0.824 -0.3625  0.4369 -0.2712
 5443TIP3   OH237963   4.122   6.794   0.085  0.4433 -0.2028 -0.2977
 5443TIP3    H137964   4.164   6.709   0.095 -2.5679 -1.7264  0.5575
 5443TIP3    H237965   4.045   6.777   0.031 -0.3199  1.9352  0.0097
 5444TIP3   OH237966   4.799   5.695   0.913  0.1110 -0.4754 -1.1040
 5444TIP3    H137967   4.826   5.603   0.917 -0.0226 -0.5385 -1.6135
 5444TIP3    H237968   4.766   5.714   1.001  1.1935 -0.5827 -0.6566
 5445TIP3   OH237969   0.733   5.279   7.323 -0.3215 -0.2487  0.2462
 5445TIP3    H137970   0.651   5.245   7.287 -0.5062 -0.9849  1.3021
 5445TIP3    H237971   0.708   5.357   7.373  0.0148  1.1267 -1.6386
 5446TIP3   OH237972   1.714   4.922   8.711  0.3923  0.1549 -0.0711
 5446TIP3    H137973   1.796   4.971   8.718  1.5764 -1.7399 -0.0235
 5446TIP3    H237974   1.650   4.977   8.755  0.9717  2.9804 -2.4067
 5447TIP3   OH237975   3.100   6.326   1.778  0.5950 -0.4073 -0.0726
 5447TIP3    H137976   3.052   6.305   1.698  0.2147  2.0013 -0.5567
 5447TIP3    H237977   3.043   6.385   1.826  2.0875  0.6865  0.4551
 5448TIP3   OH237978   0.496   2.436   7.988  0.3539  0.5957 -0.1376
 5448TIP3    H137979   0.466   2.425   8.078 -0.2329 -0.5168 -0.4462
 5448TIP3    H237980   0.415   2.432   7.935  0.6775  1.3388 -0.7004
 5449TIP3   OH237981   3.601   2.199   6.762 -0.1088  0.2934  0.1066
 5449TIP3    H137982   3.665   2.206   6.691  1.7484 -1.7881  1.4397
 5449TIP3    H237983   3.531   2.144   6.726  1.2624 -1.5419  0.0648
 5450TIP3   OH237984   1.596   1.480   7.113  0.2675 -0.5549  0.1258
 5450TIP3    H137985   1.579   1.549   7.050  0.6460 -0.7477 -0.1954
 5450TIP3    H237986   1.636   1.410   7.061 -1.0781 -1.4473  0.2382
 5451TIP3   OH237987   0.116   1.534   1.112  0.4132  0.2465  0.2180
 5451TIP3    H137988   0.021   1.525   1.112  0.5588 -1.9633  0.7958
 5451TIP3    H237989   0.136   1.575   1.197 -0.0371  1.5309 -0.2695
 5452TIP3   OH237990   1.931   0.236   8.229  0.5277  0.5115 -0.5920
 5452TIP3    H137991   1.896   0.316   8.270  0.8592  0.1187  0.4739
 5452TIP3    H237992   1.969   0.267   8.146  0.2322  1.3897 -0.4119
 5453TIP3   OH237993   1.626   2.432   7.810 -0.6306 -0.0822  0.3537
 5453TIP3    H137994   1.572   2.511   7.814 -0.8057 -0.0774 -1.2529
 5453TIP3    H237995   1.564   2.360   7.806 -0.6866 -0.0212 -2.7254
 5454TIP3   OH237996   2.204   3.154   8.600  0.2218  0.2403 -0.9823
 5454TIP3    H137997   2.275   3.128   8.659 -1.1495  0.6046  0.9088
 5454TIP3    H237998   2.180   3.242   8.627  2.2887  2.2755 -4.8821
 5455TIP3   OH237999   1.324   5.774   8.602 -0.2938  0.1428  0.0818
 5455TIP3    H138000   1.395   5.711   8.606 -0.9060 -0.5041  1.7990
 5455TIP3    H238001   1.367   5.860   8.608  0.4636 -0.1069 -1.2621
 5456TIP3   OH238002   2.302   6.706   0.816 -0.3738 -0.3449  0.3667
 5456TIP3    H138003   2.214   6.670   0.801 -1.5519  1.8295  1.5498
 5456TIP3    H238004   2.326   6.674   0.903 -0.3311 -0.3289  0.3604
 5457TIP3   OH238005   5.814   5.048   0.092 -0.0606 -0.2529 -0.3031
 5457TIP3    H138006   5.906   5.060   0.070  0.1582  0.3353  0.8488
 5457TIP3    H238007   5.814   5.020   0.184 -0.9641 -1.7959 -0.7304
 5458TIP3   OH238008   4.534   3.013   0.821 -0.4398  0.0981 -0.3875
 5458TIP3    H138009   4.586   3.015   0.740 -0.8297 -0.7012 -0.6658
 5458TIP3    H238010   4.500   3.102   0.830 -0.8905  0.0386 -1.4302
 5459TIP3   OH238011   4.177   6.007   7.765  0.6471 -0.3387 -0.2798
 5459TIP3    H138012   4.089   5.991   7.730  0.7685 -0.3139 -0.5977
 5459TIP3    H238013   4.193   5.933   7.823  0.2035 -0.0741  0.1926
 5460TIP3   OH238014   4.944   2.637   0.713 -0.0657 -0.2473  0.5761
 5460TIP3    H138015   4.863   2.637   0.663  0.3300  0.4729 -0.0920
 5460TIP3    H238016   4.990   2.558   0.686 -0.0026 -0.0285  0.0260
 5461TIP3   OH238017   4.549   0.881   6.167 -0.1136 -0.1093  0.4466
 5461TIP3    H138018   4.487   0.826   6.119  1.2470 -1.0308 -0.3227
 5461TIP3    H238019   4.634   0.858   6.131  0.6434  1.5144  1.1017
 5462TIP3   OH238020   0.132   5.972   7.645 -0.5103  0.0779 -0.6599
 5462TIP3    H138021   0.085   5.989   7.564 -0.7078  0.2976 -0.4993
 5462TIP3    H238022   0.087   6.024   7.711 -0.2994 -0.0337 -0.4237
 5463TIP3   OH238023   1.281   3.474   6.920 -0.0201  0.5829  0.0913
 5463TIP3    H138024   1.297   3.387   6.883 -2.3995 -0.4758  1.3614
 5463TIP3    H238025   1.195   3.500   6.887 -0.4231  1.3687  1.6367
 5464TIP3   OH238026   0.799   0.165   2.796 -0.0532 -0.3576  0.2070
 5464TIP3    H138027   0.807   0.081   2.751  1.4930 -0.2670  0.2454
 5464TIP3    H238028   0.707   0.189   2.787 -0.4090 -1.8029 -0.2510
 5465TIP3   OH238029   5.408   6.288   0.650 -0.9659  0.3769  0.2723
 5465TIP3    H138030   5.403   6.361   0.589 -0.0863  0.1660 -0.0719
 5465TIP3    H238031   5.502   6.270   0.658 -1.1483 -0.4347  0.6848
 5466TIP3   OH238032   4.716   1.004   0.164 -0.2853 -0.5159  0.2305
 5466TIP3    H138033   4.681   0.935   0.107  0.3913 -0.3297 -0.4118
 5466TIP3    H238034   4.801   1.026   0.127 -1.0538  1.6255 -0.3644
 5467TIP3   OH238035   4.716   2.510   8.274 -0.1186 -0.1035 -0.1535
 5467TIP3    H138036   4.661   2.432   8.278  1.6461 -1.4107 -0.5297
 5467TIP3    H238037   4.776   2.494   8.202  0.0878  1.7676 -0.4636
 5468TIP3   OH238038   3.855   4.033   2.440  0.7554  0.2709  0.0993
 5468TIP3    H138039   3.797   3.957   2.447 -1.7480  1.9853 -0.8625
 5468TIP3    H238040   3.873   4.040   2.347  0.5962  1.1137  0.1281
 5469TIP3   OH238041   1.460   0.818   8.163  0.1438 -0.2528 -0.1422
 5469TIP3    H138042   1.507   0.899   8.183  0.9316 -0.0085 -2.6758
 5469TIP3    H238043   1.525   0.762   8.121 -0.5623 -1.9909  0.9535
 5470TIP3   OH238044   3.442   4.385   1.151  0.0315 -0.1397 -0.4917
 5470TIP3    H138045   3.357   4.392   1.195 -0.0701 -1.4799 -0.4451
 5470TIP3    H238046   3.501   4.440   1.204 -0.8715  1.1314 -0.7569
 5471TIP3   OH238047   0.601   1.888   0.637  0.1897  0.6238 -0.4602
 5471TIP3    H138048   0.611   1.931   0.722 -0.7199  0.6323 -0.3503
 5471TIP3    H238049   0.670   1.928   0.583  0.6478  0.7616  0.2050
 5472TIP3   OH238050   1.098   5.046   7.725  0.5628  0.6874 -0.8796
 5472TIP3    H138051   1.094   4.951   7.708  0.0737  0.4409  0.4998
 5472TIP3    H238052   1.140   5.082   7.647  1.3816 -0.7491 -1.1442
 5473TIP3   OH238053   3.115   6.136   7.603  0.0689  0.0887  0.5741
 5473TIP3    H138054   3.077   6.222   7.584 -0.7419 -0.5390 -0.8156
 5473TIP3    H238055   3.060   6.101   7.674 -2.1530 -0.8427 -1.4690
 5474TIP3   OH238056   0.064   0.872   1.278 -0.1451 -0.4152  0.5645
 5474TIP3    H138057   0.119   0.827   1.343 -0.8039  0.3504  1.6860
 5474TIP3    H238058   0.076   0.822   1.198  0.9621 -1.1908  1.1881
 5475TIP3   OH238059   4.565   0.628   2.385  0.4042  0.4657  0.1842
 5475TIP3    H138060   4.608   0.634   2.470  0.7978  0.1416  0.0115
 5475TIP3    H238061   4.619   0.681   2.327  0.8800 -0.3598 -0.1498
 5476TIP3   OH238062   1.161   2.369   7.123 -0.3953  0.4971  0.2278
 5476TIP3    H138063   1.137   2.321   7.202  0.0133  1.8935  1.2236
 5476TIP3    H238064   1.123   2.316   7.052 -1.7330 -0.2098  1.3961
 5477TIP3   OH238065   0.158   6.777   6.951 -0.1946 -0.2728 -0.2736
 5477TIP3    H138066   0.117   6.855   6.989 -0.7608 -0.3475 -0.7230
 5477TIP3    H238067   0.155   6.792   6.857  0.2078 -0.5864 -0.3383
 5478TIP3   OH238068   6.562   3.622   1.657  0.0048 -0.2644  0.8252
 5478TIP3    H138069   6.638   3.602   1.603  0.7186 -0.7698  1.9619
 5478TIP3    H238070   6.511   3.541   1.659 -1.7283  0.6403 -1.6136
 5479TIP3   OH238071   6.247   3.154   8.217 -0.2895  0.2996 -0.0438
 5479TIP3    H138072   6.301   3.084   8.252 -0.3323 -0.7271 -1.9047
 5479TIP3    H238073   6.255   3.225   8.281  0.3381 -1.1231  1.5178
 5480TIP3   OH238074   2.647   0.308   8.833  0.0517 -0.5051  0.1347
 5480TIP3    H138075   2.730   0.267   8.809 -0.2316 -2.0648  1.6345
 5480TIP3    H238076   2.664   0.402   8.824  2.4874 -0.6849  1.7732
 5481TIP3   OH238077   5.488   2.639   2.196 -0.4718  0.3253 -0.4005
 5481TIP3    H138078   5.553   2.663   2.262 -0.9387 -0.1036  0.2329
 5481TIP3    H238079   5.410   2.689   2.220 -1.1713 -1.0629  0.3918
 5482TIP3   OH238080   2.417   2.631   8.042  0.3980  0.0837  0.0431
 5482TIP3    H138081   2.343   2.668   7.995 -0.8158 -0.0701  1.7481
 5482TIP3    H238082   2.404   2.657   8.133  2.0905 -0.5150  0.5058
 5483TIP3   OH238083   4.465   0.303   1.309 -0.3339 -0.9986  0.4609
 5483TIP3    H138084   4.457   0.291   1.404 -4.0994  0.7634  0.5501
 5483TIP3    H238085   4.402   0.240   1.273 -0.5017 -0.1671 -0.7170
 5484TIP3   OH238086   0.648   2.601   1.543  0.1413 -0.6246 -1.0663
 5484TIP3    H138087   0.573   2.553   1.580 -0.2748  0.0107 -1.0575
 5484TIP3    H238088   0.651   2.683   1.594  1.3875 -1.0137 -0.4867
 5485TIP3   OH238089   3.236   4.575   7.446 -0.1890 -0.1064 -0.8686
 5485TIP3    H138090   3.286   4.583   7.365 -0.6145  0.1321 -1.1074
 5485TIP3    H238091   3.237   4.482   7.466 -0.6574 -0.2536 -1.5086
 5486TIP3   OH238092   5.279   5.356   1.324  0.4182 -0.2411 -0.1916
 5486TIP3    H138093   5.309   5.414   1.254 -2.2650  2.5446  0.7503
 5486TIP3    H238094   5.304   5.401   1.405 -1.9244 -0.1782  0.5648
 5487TIP3   OH238095   5.824   3.432   0.372 -0.0302  0.1196 -0.5959
 5487TIP3    H138096   5.746   3.487   0.361 -2.5628 -2.9908  0.4227
 5487TIP3    H238097   5.864   3.430   0.286 -3.1798 -0.9863 -2.2098
 5488TIP3   OH238098   5.863   4.510   6.327 -0.2633  0.0837  0.0248
 5488TIP3    H138099   5.935   4.533   6.385 -0.9779  1.9692  0.2043
 5488TIP3    H238100   5.894   4.534   6.240 -1.6632  3.7131  0.3834
 5489TIP3   OH238101   4.951   6.767   1.604  0.2510  0.3030 -0.2597
 5489TIP3    H138102   4.884   6.835   1.611 -0.1545  0.1167 -1.9301
 5489TIP3    H238103   4.924   6.700   1.666 -0.9026  0.4253 -0.6015
 5490TIP3   OH238104   6.382   1.645   1.854  0.0900 -0.2013  0.2025
 5490TIP3    H138105   6.402   1.715   1.915  0.2023  1.2415 -1.4023
 5490TIP3    H238106   6.459   1.588   1.855  0.6214  0.5112  0.4662
 5491TIP3   OH238107   6.014   6.375   1.997  0.4783  0.3344  0.1475
 5491TIP3    H138108   5.962   6.430   2.056  1.9772  1.5619  0.4056
 5491TIP3    H238109   6.091   6.351   2.049  0.1470 -1.5522 -0.1667
 5492TIP3   OH238110   5.138   4.886   0.886 -0.6718  0.0775 -0.2160
 5492TIP3    H138111   5.084   4.900   0.963  0.7241  0.3140  0.7620
 5492TIP3    H238112   5.076   4.868   0.815 -1.9671 -0.5612  1.0421
 5493TIP3   OH238113   5.235   1.708   0.315 -0.1620 -0.0565  0.1493
 5493TIP3    H138114   5.240   1.803   0.323  0.3507 -0.1997  1.9395
 5493TIP3    H238115   5.141   1.688   0.315 -0.2961  0.4799 -1.1085
 5494TIP3   OH238116   3.413   4.671   1.531 -0.0664 -0.2292 -0.0133
 5494TIP3    H138117   3.461   4.606   1.583 -1.8864 -1.3064  0.4081
 5494TIP3    H238118   3.378   4.622   1.458  0.8040  0.8911 -1.2277
 5495TIP3   OH238119   5.766   2.397   2.187  0.3836  0.1602 -0.0031
 5495TIP3    H138120   5.736   2.306   2.195  1.4030 -0.2601 -0.7345
 5495TIP3    H238121   5.738   2.439   2.268 -3.7574  0.2994 -1.2631
 5496TIP3   OH238122   0.059   4.471   8.282 -0.5421 -0.0953 -0.4015
 5496TIP3    H138123   0.094   4.554   8.250  0.2773  0.0035  0.6861
 5496TIP3    H238124   0.100   4.405   8.227  0.6425  0.0860  0.2372
 5497TIP3   OH238125   1.922   4.030   7.156  0.2457 -0.2700 -0.8808
 5497TIP3    H138126   1.889   4.104   7.106  2.2995  0.2134 -1.6524
 5497TIP3    H238127   1.910   3.955   7.097 -0.8327 -0.3802 -0.5373
 5498TIP3   OH238128   0.003   0.852   1.651 -0.7214 -0.3300 -0.1585
 5498TIP3    H138129  -0.022   0.846   1.743 -0.5883  0.4855 -0.0665
 5498TIP3    H238130  -0.052   0.786   1.608  0.0242 -1.5105  0.6524
 5499TIP3   OH238131   0.254   6.425   7.739  0.5498 -0.0087  0.3226
 5499TIP3    H138132   0.200   6.411   7.661 -0.9589  0.9709  1.1348
 5499TIP3    H238133   0.314   6.494   7.715  0.0969  0.2828  0.0128
 5500TIP3   OH238134   2.055   2.576   1.026 -0.2604 -0.4961  0.6845
 5500TIP3    H138135   1.993   2.513   1.062 -0.2130 -0.8337  0.1934
 5500TIP3    H238136   2.112   2.523   0.970 -1.8138  0.3262 -1.8468
 5501TIP3   OH238137   1.941   0.562   0.054 -0.1048 -0.6371 -0.2846
 5501TIP3    H138138   2.032   0.560   0.086 -0.6322  1.0092  1.6004
 5501TIP3    H238139   1.943   0.624  -0.019  0.7856 -3.0092 -2.4086
 5502TIP3   OH238140   6.280   2.931   8.018  0.1539 -0.1836  0.1833
 5502TIP3    H138141   6.306   2.890   8.100  0.4409  0.7017  0.5489
 5502TIP3    H238142   6.354   2.916   7.959  0.4894  0.2615  0.4824
 5503TIP3   OH238143   0.563   0.016   6.760  0.6903  0.3116  0.0964
 5503TIP3    H138144   0.641   0.071   6.756  0.6955  0.2631 -0.7740
 5503TIP3    H238145   0.501   0.065   6.815  0.8132  1.0304 -0.3926
 5504TIP3   OH238146   6.271   5.073   7.109  0.4108 -0.0034 -0.3376
 5504TIP3    H138147   6.291   5.150   7.164  0.8552  0.3546 -0.9815
 5504TIP3    H238148   6.185   5.092   7.072  0.9569  0.6718 -1.2990
 5505TIP3   OH238149   0.967   0.723   1.653 -0.4000 -0.1178  0.2215
 5505TIP3    H138150   0.928   0.810   1.649  1.6655  0.8446 -0.5924
 5505TIP3    H238151   1.050   0.732   1.607  0.7717 -2.0281  1.7852
 5506TIP3   OH238152   5.747   4.501   1.646 -0.0871 -0.2767  0.4185
 5506TIP3    H138153   5.722   4.539   1.562  1.1152  1.5002  0.8025
 5506TIP3    H238154   5.792   4.420   1.624  1.1584  0.6996 -0.7432
 5507TIP3   OH238155   5.976   3.285   1.004  0.3834  0.1615  0.0948
 5507TIP3    H138156   5.994   3.227   1.078  0.4578  0.0843  0.0171
 5507TIP3    H238157   5.974   3.373   1.042 -0.2025  0.0673  0.2903
 5508TIP3   OH238158   1.137   2.172   1.481 -0.9024  0.0581  0.5861
 5508TIP3    H138159   1.162   2.081   1.465  0.6186  0.3966  0.8862
 5508TIP3    H238160   1.148   2.184   1.575 -2.1905  0.2629  0.7333
 5509TIP3   OH238161   6.355   4.803   7.161 -0.4566 -0.3838 -0.2207
 5509TIP3    H138162   6.293   4.737   7.131 -0.4122 -0.1203 -0.9130
 5509TIP3    H238163   6.307   4.886   7.154 -0.2135 -0.2424 -0.2404
 5510TIP3   OH238164   3.981   6.486   6.596 -0.1578  0.1303 -0.6295
 5510TIP3    H138165   3.916   6.545   6.557 -0.5974 -0.0169 -0.1317
 5510TIP3    H238166   4.061   6.503   6.547 -0.6744  0.0245 -1.5348
 5511TIP3   OH238167   0.369   5.153   1.520  0.3144  0.1307 -0.5713
 5511TIP3    H138168   0.324   5.100   1.586 -2.4705  0.1216 -2.3631
 5511TIP3    H238169   0.456   5.113   1.513  0.7187  0.0474  2.9014
 5512TIP3   OH238170   4.995   5.875   2.633 -0.2686  0.2195  0.3039
 5512TIP3    H138171   4.929   5.878   2.564  0.3164 -0.6750 -0.3293
 5512TIP3    H238172   5.074   5.843   2.589  0.3034  0.2731  1.2528
 5513TIP3   OH238173   5.102   1.289   0.855 -0.7239  0.3120 -0.1134
 5513TIP3    H138174   5.124   1.278   0.762  0.8665 -2.7629  0.4793
 5513TIP3    H238175   5.186   1.299   0.899 -1.3386  0.1982  1.1330
 5514TIP3   OH238176   6.176   3.960   0.401  0.0707 -0.1852  0.4462
 5514TIP3    H138177   6.249   3.908   0.432  0.5427  0.9032  1.2375
 5514TIP3    H238178   6.101   3.929   0.451 -0.1223 -1.5522 -0.6229
 5515TIP3   OH238179   1.043   1.667   8.606 -0.0790 -0.4560 -0.5763
 5515TIP3    H138180   1.106   1.733   8.579 -0.9235  0.3188 -0.6685
 5515TIP3    H238181   1.095   1.604   8.657  0.8468 -0.0741 -1.0284
 5516TIP3   OH238182   6.718   3.511   8.338  0.0692  0.8167 -0.3965
 5516TIP3    H138183   6.675   3.454   8.274 -1.9032  0.4494  1.1657
 5516TIP3    H238184   6.694   3.474   8.423  1.3504  2.1720  0.6018
 5517TIP3   OH238185   0.511   5.609   8.528 -0.4466 -0.1997  0.1588
 5517TIP3    H138186   0.537   5.634   8.440  0.4770  0.4995  0.6118
 5517TIP3    H238187   0.589   5.623   8.582 -1.2689  0.3503  1.2618
 5518TIP3   OH238188   0.119   4.950   7.732  0.3093 -0.4670 -0.1567
 5518TIP3    H138189   0.167   4.881   7.777  0.7784 -0.3089 -0.4071
 5518TIP3    H238190   0.092   5.010   7.802  1.7816  0.2330 -0.1588
 5519TIP3   OH238191   6.143   0.440   7.575  0.1130 -0.2160 -0.0820
 5519TIP3    H138192   6.192   0.430   7.657 -1.2963  1.2109  0.9938
 5519TIP3    H238193   6.193   0.504   7.525 -0.7757  1.6123  1.2192
 5520TIP3   OH238194   2.731   1.307   0.576  0.1118  0.1311  0.2185
 5520TIP3    H138195   2.779   1.234   0.539 -0.2675  0.7835 -1.6629
 5520TIP3    H238196   2.646   1.306   0.532  0.4519  2.2593 -0.6412
 5521TIP3   OH238197   5.051   4.010   0.632  0.2041 -0.5784 -1.1607
 5521TIP3    H138198   5.082   3.925   0.602 -0.4882 -1.4510  0.4236
 5521TIP3    H238199   4.958   3.996   0.652  0.5060 -0.0111  0.9340
 5522TIP3   OH238200   6.554   2.959   1.812  0.0141 -0.2498 -0.3299
 5522TIP3    H138201   6.503   2.880   1.791  0.1245 -1.0172  1.9131
 5522TIP3    H238202   6.510   3.030   1.765 -0.8030 -1.4763 -1.4782
 5523TIP3   OH238203   2.017   4.279   7.213 -0.2211 -0.2663  0.3480
 5523TIP3    H138204   1.992   4.186   7.211  0.1327 -0.3508 -1.7662
 5523TIP3    H238205   2.099   4.280   7.263 -0.4572 -1.0142  0.7813
 5524TIP3   OH238206   0.197   0.302   8.086  0.3521 -0.7966  0.2909
 5524TIP3    H138207   0.279   0.342   8.115 -0.1555  0.7121 -0.2419
 5524TIP3    H238208   0.211   0.208   8.095  1.4627 -0.5078  2.0169
 5525TIP3   OH238209   5.932   5.954   7.814  0.3731 -0.2194  0.3166
 5525TIP3    H138210   5.905   5.998   7.894  1.2170  0.1427  0.4138
 5525TIP3    H238211   5.879   5.874   7.811 -0.5341  0.3545  0.6028
 5526TIP3   OH238212   2.679   2.169   8.418  0.3161  0.1669  0.4399
 5526TIP3    H138213   2.681   2.260   8.388 -1.3621 -0.1721 -0.8520
 5526TIP3    H238214   2.746   2.165   8.486  1.5090  1.9802 -0.5367
 5527TIP3   OH238215   0.040   6.284   6.692 -0.7872 -0.2750  0.1135
 5527TIP3    H138216   0.074   6.341   6.761  0.5733  0.1866 -0.8878
 5527TIP3    H238217   0.057   6.332   6.611 -0.5164 -1.6733 -0.6933
 5528TIP3   OH238218   1.215   0.055   0.265  0.1583  0.5683 -0.4714
 5528TIP3    H138219   1.170  -0.029   0.263 -0.7343  1.0560 -1.6177
 5528TIP3    H238220   1.149   0.117   0.295  0.2357  1.1669 -1.4836
 5529TIP3   OH238221   2.150   3.769   1.556 -0.0881  0.0096  0.5815
 5529TIP3    H138222   2.093   3.844   1.575 -0.5976 -0.1768 -0.1564
 5529TIP3    H238223   2.213   3.802   1.492  0.3741  0.0964  1.0726
 5530TIP3   OH238224   6.592   0.717   0.515 -0.2360 -0.0612 -0.0999
 5530TIP3    H138225   6.582   0.812   0.503 -0.9138 -0.0181  0.6709
 5530TIP3    H238226   6.535   0.679   0.449  0.0651  0.0683 -0.4351
 5531TIP3   OH238227   1.612   5.219   6.977 -0.7545 -0.0786 -0.2870
 5531TIP3    H138228   1.554   5.176   6.915 -1.7035  2.1487 -1.0203
 5531TIP3    H238229   1.584   5.310   6.978  2.0628  0.9034  0.0950
 5532TIP3   OH238230   2.777   3.251   0.293  0.5163 -0.4147  0.5594
 5532TIP3    H138231   2.739   3.275   0.208  0.9224 -0.7178  0.2863
 5532TIP3    H238232   2.835   3.178   0.273  1.2826  0.0712  0.9609
 5533TIP3   OH238233   1.252   6.034   8.005  0.5401 -0.5540 -0.1855
 5533TIP3    H138234   1.243   6.034   7.909  0.6369 -1.3214 -0.1990
 5533TIP3    H238235   1.228   5.945   8.031  1.1772 -0.5428  0.4424
 5534TIP3   OH238236   4.742   5.383   1.192 -0.4951 -0.4537  0.1820
 5534TIP3    H138237   4.822   5.341   1.224  1.3673  2.0845 -0.8259
 5534TIP3    H238238   4.722   5.449   1.258 -2.2065 -1.4853  0.7505
 5535TIP3   OH238239   1.061   5.808   8.696  0.3594 -0.1603  0.0467
 5535TIP3    H138240   1.061   5.891   8.646 -2.3108 -0.6036 -0.9093
 5535TIP3    H238241   1.141   5.764   8.670  1.1630  1.5396 -0.5003
 5536TIP3   OH238242   3.878   2.317   8.065  0.3846 -0.1487  0.2403
 5536TIP3    H138243   3.851   2.323   8.157  0.8537 -1.5055  0.4814
 5536TIP3    H238244   3.947   2.252   8.064 -0.1855 -0.7816 -1.2039
 5537TIP3   OH238245   2.684   0.365   7.181 -0.1947  0.1774 -0.1724
 5537TIP3    H138246   2.739   0.287   7.188 -2.1342 -1.1943  0.4182
 5537TIP3    H238247   2.704   0.415   7.260  0.0978 -0.3570  0.0976
 5538TIP3   OH238248   0.593   1.597   7.261 -0.0240  0.1869  0.0636
 5538TIP3    H138249   0.624   1.608   7.171 -0.2536 -1.9400 -0.3205
 5538TIP3    H238250   0.661   1.545   7.303  0.2097  1.3943  1.2433
 5539TIP3   OH238251   3.166   3.096   1.794 -0.3434 -0.4973  0.4836
 5539TIP3    H138252   3.091   3.143   1.756 -0.8161 -1.6622 -0.1063
 5539TIP3    H238253   3.188   3.145   1.872 -0.9435  0.5760  0.0098
 5540TIP3   OH238254   2.873   4.007   1.449 -0.3236  0.3526  0.6278
 5540TIP3    H138255   2.832   4.002   1.535  1.1140 -0.4536  1.2926
 5540TIP3    H238256   2.901   4.099   1.441 -0.6489  0.4797  0.9202
 5541TIP3   OH238257   2.574   0.390   7.575 -0.1692 -0.5823 -0.2386
 5541TIP3    H138258   2.481   0.382   7.554 -0.4313  0.0184  0.6409
 5541TIP3    H238259   2.610   0.444   7.505 -0.4392 -0.9805 -0.6889
 5542TIP3   OH238260   6.013   1.375   2.115 -0.0412 -0.1692  0.9156
 5542TIP3    H138261   5.989   1.404   2.203 -0.7328 -0.0633  0.6950
 5542TIP3    H238262   6.014   1.455   2.063  0.3410 -0.2351  0.8139
 5543TIP3   OH238263   1.366   5.407   8.463 -0.3651 -0.5639 -0.3249
 5543TIP3    H138264   1.433   5.378   8.401  0.6577  0.8528  0.0581
 5543TIP3    H238265   1.327   5.327   8.495  0.3878 -1.3959 -1.3928
 5544TIP3   OH238266   6.712   0.664   7.987  0.1332  0.0168  0.2096
 5544TIP3    H138267   6.751   0.716   7.917 -0.4114  3.3691  2.1820
 5544TIP3    H238268   6.784   0.647   8.048 -0.0626  0.0226  0.4429
 5545TIP3   OH238269   4.900   4.492   8.412  0.4948  0.5162  0.0370
 5545TIP3    H138270   4.956   4.420   8.442 -0.5035  0.0473  0.8568
 5545TIP3    H238271   4.912   4.561   8.477  2.1370  1.4978 -1.2220
 5546TIP3   OH238272   3.628   6.284   6.967 -0.3004  0.1248 -0.1118
 5546TIP3    H138273   3.704   6.294   7.024  0.7669 -1.1787 -1.2080
 5546TIP3    H238274   3.613   6.189   6.963  0.5618 -0.0038 -2.9883
 5547TIP3   OH238275   4.549   4.018   6.797 -0.3617 -0.1201 -0.2839
 5547TIP3    H138276   4.630   3.978   6.829 -1.0583 -1.3367 -0.0214
 5547TIP3    H238277   4.530   4.087   6.861  2.0615  2.3118 -1.9208
 5548TIP3   OH238278   4.505   3.424   0.455 -0.3467 -0.4394 -0.5706
 5548TIP3    H138279   4.548   3.381   0.529 -1.4976 -1.7631 -0.6365
 5548TIP3    H238280   4.572   3.428   0.387 -0.1280 -1.9022 -0.4595
 5549TIP3   OH238281   1.616   2.890   2.437  0.1353 -0.0162 -0.3026
 5549TIP3    H138282   1.559   2.953   2.392 -1.1217 -1.4650 -0.8268
 5549TIP3    H238283   1.583   2.804   2.411  0.1468 -0.9424  2.3709
 5550TIP3   OH238284   0.221   3.927   7.686  0.0785  0.4974  0.3091
 5550TIP3    H138285   0.147   3.982   7.659 -0.4123 -0.2102  0.2049
 5550TIP3    H238286   0.182   3.859   7.740  0.8718  1.0772  1.6674
 5551TIP3   OH238287   4.614   5.694   8.374  0.6285 -0.3238  0.5396
 5551TIP3    H138288   4.576   5.778   8.400 -1.8116 -0.8100 -1.0924
 5551TIP3    H238289   4.695   5.717   8.328  0.8411  1.0048  1.5143
 5552TIP3   OH238290   1.113   2.229   7.341  0.1315 -0.4272  0.6096
 5552TIP3    H138291   1.109   2.309   7.394 -2.1498  0.1790 -0.3302
 5552TIP3    H238292   1.168   2.169   7.392  2.1595  1.7747  1.2282
 5553TIP3   OH238293   3.404   1.423   0.544 -0.3945 -0.3526  0.2840
 5553TIP3    H138294   3.484   1.459   0.506 -0.2036  0.3343  1.3053
 5553TIP3    H238295   3.336   1.441   0.479 -0.0655  0.7604  0.2363
 5554TIP3   OH238296   6.433   2.264   8.700  0.2709 -0.7281  0.1471
 5554TIP3    H138297   6.451   2.236   8.610 -2.7801 -1.7218 -0.2703
 5554TIP3    H238298   6.395   2.187   8.742  0.4340  0.1077  1.9179
 5555TIP3   OH238299   4.872   1.907   2.337  0.4935  0.1762  0.4166
 5555TIP3    H138300   4.839   1.838   2.395 -0.1432  1.9596  2.3227
 5555TIP3    H238301   4.811   1.907   2.264 -1.1369  0.4492  1.7095
 5556TIP3   OH238302   4.135   1.727   7.881  0.0190 -0.3443 -1.2730
 5556TIP3    H138303   4.220   1.770   7.867 -0.1157 -0.0400 -1.1701
 5556TIP3    H238304   4.120   1.735   7.975 -0.2226 -0.2140 -1.3237
 5557TIP3   OH238305   5.127   6.358   7.064  0.6696  0.1862 -0.5312
 5557TIP3    H138306   5.112   6.388   6.974 -0.0535  1.6428  0.0349
 5557TIP3    H238307   5.039   6.345   7.100  0.8351  2.0006  0.6842
 5558TIP3   OH238308   4.931   4.743   7.643 -0.2247 -0.2451  0.5939
 5558TIP3    H138309   4.884   4.675   7.690 -1.3706  1.3965  1.9129
 5558TIP3    H238310   5.020   4.740   7.678 -0.9070  0.5474  2.4825
 5559TIP3   OH238311   6.748   1.761   8.728  0.6973  0.1004  0.2375
 5559TIP3    H138312   6.770   1.827   8.794 -0.1979  1.0241 -0.3586
 5559TIP3    H238313   6.827   1.753   8.675  0.9708  0.3456  0.5993
 5560TIP3   OH238314   5.736   0.428   8.400 -1.0744 -0.0840 -0.1792
 5560TIP3    H138315   5.667   0.478   8.443  1.3843  0.2369  3.9347
 5560TIP3    H238316   5.792   0.494   8.360  0.5218  0.4715  2.6593
 5561TIP3   OH238317   2.292   4.332   7.388 -0.0272 -0.3801 -0.0300
 5561TIP3    H138318   2.243   4.384   7.324  0.0006 -0.4842 -0.1356
 5561TIP3    H238319   2.364   4.294   7.338  1.7535  1.8895  0.6242
 5562TIP3   OH238320   1.327   3.957   7.400 -0.1490  0.4392  0.2708
 5562TIP3    H138321   1.240   3.975   7.364  0.4019  1.5339 -0.5536
 5562TIP3    H238322   1.388   3.994   7.336  0.9967 -1.8006 -0.0033
 5563TIP3   OH238323   6.380   4.590   1.171  0.2636 -0.1638  0.0110
 5563TIP3    H138324   6.312   4.657   1.174  0.9496  0.5014  1.2619
 5563TIP3    H238325   6.434   4.606   1.248 -1.0407 -3.7272  1.9117
 5564TIP3   OH238326   0.673   2.381   1.359 -0.6295 -0.2511 -0.0028
 5564TIP3    H138327   0.679   2.459   1.413  1.1425 -0.1493 -0.2795
 5564TIP3    H238328   0.764   2.360   1.337 -0.8331 -3.4622  1.5986
 5565TIP3   OH238329   6.645   3.900   6.809 -0.2648 -0.2128  0.2091
 5565TIP3    H138330   6.626   3.862   6.894 -0.9357  2.0016  1.1319
 5565TIP3    H238331   6.740   3.900   6.803 -0.1382  0.8470  1.6205
 5566TIP3   OH238332   3.109   3.014   7.493 -0.5005  0.0040 -0.3154
 5566TIP3    H138333   3.203   3.029   7.504 -0.6517 -0.2250  1.9030
 5566TIP3    H238334   3.102   2.937   7.438  0.6170 -0.0380 -0.4093
 5567TIP3   OH238335   3.690   3.883   0.948  0.1690  0.1367  0.0926
 5567TIP3    H138336   3.744   3.824   1.001  1.8675 -0.0337 -1.7148
 5567TIP3    H238337   3.625   3.917   1.010 -0.5074 -3.0745  1.3735
 5568TIP3   OH238338   2.058   6.672   7.920 -0.3177 -0.0260 -0.0390
 5568TIP3    H138339   1.967   6.688   7.898  0.0605 -1.5718 -3.2215
 5568TIP3    H238340   2.068   6.710   8.007 -3.7620  0.8649  0.1205
 5569TIP3   OH238341   1.878   6.847   0.116  0.0067  0.1903  0.5551
 5569TIP3    H138342   1.893   6.784   0.187 -1.1681  0.6255  1.2238
 5569TIP3    H238343   1.950   6.910   0.125  0.6878 -0.5516  0.4364
 5570TIP3   OH238344   3.058   5.572   0.599  0.2551  0.2590  0.1415
 5570TIP3    H138345   3.096   5.514   0.533  0.8897 -0.2923  0.9731
 5570TIP3    H238346   3.104   5.655   0.587  1.1261 -0.1509  0.5708
 5571TIP3   OH238347   4.798   6.366   0.710  0.4188  0.0048  0.1693
 5571TIP3    H138348   4.874   6.422   0.697  0.9254 -0.8057 -0.4628
 5571TIP3    H238349   4.760   6.356   0.623 -0.5301  0.5426  0.5016
 5572TIP3   OH238350   0.558   1.161   0.156  0.0224 -0.1869 -0.2400
 5572TIP3    H138351   0.651   1.184   0.156  0.4824 -1.8295 -1.2743
 5572TIP3    H238352   0.514   1.235   0.199  1.9473 -0.0404  1.6173
 5573TIP3   OH238353   1.060   6.175   8.176 -0.0589 -0.2193  0.5111
 5573TIP3    H138354   1.127   6.150   8.112 -1.0804  2.2135 -1.7001
 5573TIP3    H238355   1.017   6.093   8.199  0.8705 -1.3054 -1.3940
 5574TIP3   OH238356   3.600   3.185   2.005  0.5560 -0.5209 -0.4907
 5574TIP3    H138357   3.525   3.181   2.064  0.9255  1.0315  0.1206
 5574TIP3    H238358   3.662   3.121   2.042  1.2753  1.2314  1.5912
 5575TIP3   OH238359   5.363   1.572   7.354  0.1395  0.1743 -0.1213
 5575TIP3    H138360   5.456   1.589   7.368  0.0654 -0.1912  0.9169
 5575TIP3    H238361   5.357   1.478   7.341  0.1109  0.4070 -2.0368
 5576TIP3   OH238362   0.416   5.939   7.344  0.4434 -0.1143  0.1507
 5576TIP3    H138363   0.407   5.927   7.439 -1.9973 -0.0575 -0.0060
 5576TIP3    H238364   0.342   5.994   7.319  1.6385  0.7839 -1.6753
 5577TIP3   OH238365   0.117   6.668   7.648 -0.4814  0.2681  0.4914
 5577TIP3    H138366   0.202   6.624   7.652 -1.6205 -2.3315 -1.1162
 5577TIP3    H238367   0.129   6.739   7.586  0.4031 -0.4307 -0.1635
 5578TIP3   OH238368   4.670   0.376   0.206  0.9148  0.4707  0.1772
 5578TIP3    H138369   4.712   0.453   0.167  1.6003 -0.4472 -0.9514
 5578TIP3    H238370   4.735   0.341   0.266  0.9502  0.2313 -0.0043
 5579TIP3   OH238371   3.992   5.185   7.291  0.1306  0.0043  0.3809
 5579TIP3    H138372   4.036   5.265   7.262  1.4289  0.0599  2.3476
 5579TIP3    H238373   4.045   5.114   7.255 -1.4791 -0.0884 -2.0669
 5580TIP3   OH238374   0.603   2.222   7.839 -0.0284  0.3354  0.1841
 5580TIP3    H138375   0.693   2.195   7.857 -0.1239  0.6467  1.2216
 5580TIP3    H238376   0.594   2.306   7.885 -0.1685  1.4651 -1.7956
 5581TIP3   OH238377   4.751   2.467   2.254  0.0554 -0.2140  0.3289
 5581TIP3    H138378   4.697   2.427   2.322 -0.4351  1.1186  0.7558
 5581TIP3    H238379   4.699   2.541   2.222  1.4798  0.9272  0.5312
 5582TIP3   OH238380   3.017   3.352   0.635  0.0479 -0.7527  0.2542
 5582TIP3    H138381   2.935   3.397   0.654 -0.2102 -0.9669 -0.3364
 5582TIP3    H238382   3.073   3.420   0.597 -0.3763 -0.9285 -0.7312
 5583TIP3   OH238383   4.280   3.591   1.493  0.8291 -0.3002 -0.6652
 5583TIP3    H138384   4.220   3.536   1.442 -0.5573  0.4287  0.1180
 5583TIP3    H238385   4.282   3.549   1.579  1.3621 -0.2409 -0.6462
 5584TIP3   OH238386   3.771   6.000   0.438  0.0372  0.1995 -0.1994
 5584TIP3    H138387   3.775   5.917   0.485  0.8905  0.8042  0.8535
 5584TIP3    H238388   3.818   5.983   0.356 -0.1441 -0.4495 -0.1787
 5585TIP3   OH238389   3.980   5.242   0.200  0.0662  0.1908  0.2753
 5585TIP3    H138390   3.916   5.202   0.141  2.2640 -0.8601 -1.5800
 5585TIP3    H238391   3.981   5.185   0.277 -2.5197  1.3187  1.2285
 5586TIP3   OH238392   3.441   3.079   7.989  0.5385  0.0892 -0.6308
 5586TIP3    H138393   3.529   3.104   7.961  1.8394 -1.7735  1.4522
 5586TIP3    H238394   3.428   2.991   7.952 -0.6736  0.5424 -1.3241
 5587TIP3   OH238395   3.746   0.341   1.585  0.2072 -0.4304  0.1536
 5587TIP3    H138396   3.694   0.370   1.660  0.1777  0.4725 -0.1931
 5587TIP3    H238397   3.758   0.421   1.533  0.4704 -0.9846 -0.6513
 5588TIP3   OH238398   5.227   1.977   0.378  0.3170  0.1147  0.1849
 5588TIP3    H138399   5.138   1.989   0.411  0.5631 -0.5536  1.1240
 5588TIP3    H238400   5.260   2.066   0.363 -0.8233  0.3588 -1.1070
 5589TIP3   OH238401   1.971   2.241   6.905 -0.0214 -0.6922  0.4759
 5589TIP3    H138402   2.053   2.243   6.855 -1.1374  0.8212 -1.4596
 5589TIP3    H238403   1.982   2.308   6.972  0.4200 -0.6567  0.3717
 5590TIP3   OH238404   0.573   6.651   6.538  0.3824 -0.0002 -0.0781
 5590TIP3    H138405   0.601   6.716   6.602  0.9670  0.8480 -1.1566
 5590TIP3    H238406   0.479   6.639   6.556  0.1275  1.5428 -0.1812
 5591TIP3   OH238407   4.674   6.375   0.473  0.1991 -0.4521 -0.1973
 5591TIP3    H138408   4.613   6.447   0.454  1.1791  0.1400 -1.2289
 5591TIP3    H238409   4.638   6.300   0.425  0.1435 -0.1663 -0.6095
 5592TIP3   OH238410   2.525   4.616   7.790 -0.0527  0.1004 -0.9351
 5592TIP3    H138411   2.525   4.572   7.704  1.3263  0.9497 -1.4179
 5592TIP3    H238412   2.444   4.588   7.832  1.2010 -3.8001 -0.7437
 5593TIP3   OH238413   1.319   4.102   6.801 -0.0443 -0.5711  0.1957
 5593TIP3    H138414   1.278   4.019   6.777  0.4151 -0.7572  0.0444
 5593TIP3    H238415   1.412   4.082   6.807 -0.0186 -0.2508  0.9557
 5594TIP3   OH238416   2.269   5.822   8.125 -0.0385  0.6191 -0.1000
 5594TIP3    H138417   2.244   5.876   8.200 -2.9666 -1.9589  1.0036
 5594TIP3    H238418   2.187   5.805   8.080  1.0746 -1.1718 -1.5867
 5595TIP3   OH238419   6.468   6.401   1.868 -0.2393  0.0475 -0.6080
 5595TIP3    H138420   6.413   6.405   1.946  0.6705 -2.0099  0.2328
 5595TIP3    H238421   6.533   6.470   1.881 -2.2882  2.2787 -1.4605
 5596TIP3   OH238422   2.087   2.242   0.051  0.1729  0.0616  0.1424
 5596TIP3    H138423   2.157   2.292   0.011  0.0518 -1.2459 -1.8167
 5596TIP3    H238424   2.058   2.182  -0.017 -0.9492 -1.3753  1.7989
 5597TIP3   OH238425   0.162   0.640   1.117 -0.4251 -0.1267 -0.1816
 5597TIP3    H138426   0.245   0.664   1.076 -0.6693  0.1920 -0.4945
 5597TIP3    H238427   0.185   0.616   1.207 -0.0388  0.2630 -0.1778
 5598TIP3   OH238428   0.925   0.986   0.422  0.3592  0.0100  0.3037
 5598TIP3    H138429   0.884   0.903   0.444  0.8006 -0.4512 -0.5858
 5598TIP3    H238430   0.863   1.052   0.453 -0.4276 -0.6511  0.1736
 5599TIP3   OH238431   2.862   4.679   6.582  0.1678 -0.2500  0.5343
 5599TIP3    H138432   2.790   4.687   6.644  0.7959 -1.4954  1.4812
 5599TIP3    H238433   2.924   4.748   6.608 -0.0582 -0.0667  0.5913
 5600TIP3   OH238434   0.472   2.810   8.637  0.2730 -0.4952  0.5416
 5600TIP3    H138435   0.384   2.812   8.676 -0.3820 -0.2387 -0.8716
 5600TIP3    H238436   0.506   2.898   8.652  1.1301 -1.1702  2.8540
 5601TIP3   OH238437   0.577   3.046   1.141  0.5829  0.4193  0.2599
 5601TIP3    H138438   0.524   3.098   1.081  0.6794  0.1251 -0.0832
 5601TIP3    H238439   0.539   2.958   1.137  0.9776  0.2522  0.1546
 5602TIP3   OH238440   5.722   6.467   0.224 -0.1815  0.4492  0.3544
 5602TIP3    H138441   5.805   6.419   0.231  0.9962  2.1424 -1.2270
 5602TIP3    H238442   5.668   6.414   0.165  0.5583  0.3530 -0.2435
 5603TIP3   OH238443   2.715   3.572   1.898  0.5706 -0.2144 -0.7082
 5603TIP3    H138444   2.623   3.596   1.894 -0.1563 -2.9383 -2.8377
 5603TIP3    H238445   2.723   3.520   1.979  0.8882  2.0460  0.8012
 5604TIP3   OH238446   1.249   3.404   0.225 -0.4933 -0.0653  0.7007
 5604TIP3    H138447   1.317   3.468   0.204  0.6721 -0.8398  1.9758
 5604TIP3    H238448   1.167   3.453   0.216  0.2081  0.9128 -0.7713
 5605TIP3   OH238449   2.879   6.260   2.697  0.6158  0.1908  0.2963
 5605TIP3    H138450   2.894   6.350   2.670  0.9427  0.4558  1.3004
 5605TIP3    H238451   2.786   6.245   2.679  0.7476  0.4462 -0.6364
 5606TIP3   OH238452   4.854   0.491   0.693 -0.3194  0.3917 -0.2807
 5606TIP3    H138453   4.792   0.419   0.698  0.9273 -0.6728  0.4404
 5606TIP3    H238454   4.802   0.569   0.715 -1.3978 -0.4474  0.2351
 5607TIP3   OH238455   5.044   5.624   0.694 -0.1923  0.5435  0.5118
 5607TIP3    H138456   5.130   5.632   0.652 -0.2562 -0.3387  0.2020
 5607TIP3    H238457   5.028   5.710   0.733  1.3098  0.3893  1.5159
 5608TIP3   OH238458   0.842   6.650   0.102  0.0540 -0.2891  0.2205
 5608TIP3    H138459   0.773   6.649   0.168  2.0841 -2.3065  2.5566
 5608TIP3    H238460   0.817   6.582   0.039 -0.1980 -0.8635  0.9369
 5609TIP3   OH238461   2.766   4.202   0.190  0.2457  0.2390  0.4086
 5609TIP3    H138462   2.701   4.271   0.198 -1.8636 -1.4530 -1.0871
 5609TIP3    H238463   2.725   4.124   0.227  1.2916 -0.9363 -0.7804
 5610TIP3   OH238464   4.902   2.438   7.400 -0.6324  0.4746 -0.1034
 5610TIP3    H138465   4.856   2.441   7.316  0.0028 -2.1273 -0.6168
 5610TIP3    H238466   4.867   2.361   7.444 -0.1852  1.1973  1.6051
 5611TIP3   OH238467   4.050   3.927   1.697  0.3922 -0.4120 -0.2601
 5611TIP3    H138468   4.027   3.964   1.782 -0.1715 -2.3009  0.4710
 5611TIP3    H238469   4.144   3.910   1.703  0.0105 -2.4674  0.8487
 5612TIP3   OH238470   5.249   1.244   0.614  0.1088 -0.2235  0.3612
 5612TIP3    H138471   5.296   1.161   0.619 -0.9471 -0.8696  0.0196
 5612TIP3    H238472   5.317   1.311   0.618  0.9463 -1.0908  1.1059
 5613TIP3   OH238473   5.138   5.138   2.341  0.1540 -0.1172  0.0978
 5613TIP3    H138474   5.126   5.049   2.308  0.8735 -0.3966  0.5664
 5613TIP3    H238475   5.050   5.167   2.364 -0.0307 -0.8920  0.3958
 5614TIP3   OH238476   2.722   5.399   1.293  0.0135 -0.0014 -0.5292
 5614TIP3    H138477   2.735   5.358   1.379 -1.1451  2.1429  0.7671
 5614TIP3    H238478   2.723   5.327   1.231 -1.1683 -1.8938  1.5194
 5615TIP3   OH238479   5.063   3.795   6.842  0.3432  0.1753  0.0891
 5615TIP3    H138480   5.002   3.725   6.821  0.3944  0.2102 -0.1849
 5615TIP3    H238481   5.092   3.828   6.756 -0.6316  1.3599  0.1765
 5616TIP3   OH238482   2.574   4.391   1.939  0.0874 -0.0640  0.0215
 5616TIP3    H138483   2.603   4.300   1.934 -1.9876 -0.7864  0.0432
 5616TIP3    H238484   2.478   4.385   1.940 -0.1395  2.2085 -1.5533
 5617TIP3   OH238485   1.684   3.316   7.749 -0.3054 -0.0967 -0.2789
 5617TIP3    H138486   1.629   3.237   7.745  1.0065 -0.9981 -1.2797
 5617TIP3    H238487   1.628   3.385   7.713 -1.1410 -0.7784 -0.3243
 5618TIP3   OH238488   4.592   2.455   6.779 -0.6818  0.0579 -0.1145
 5618TIP3    H138489   4.650   2.422   6.848 -1.2113 -0.1015  0.2647
 5618TIP3    H238490   4.590   2.386   6.713 -0.6788 -0.0713  0.0195
 5619TIP3   OH238491   4.998   2.915   0.556 -0.3612 -0.2153  0.1472
 5619TIP3    H138492   4.931   2.881   0.498 -0.3612  0.1008 -0.0399
 5619TIP3    H238493   5.049   2.838   0.582 -0.2945 -0.3418 -0.3527
 5620TIP3   OH238494   5.438   1.268   1.821  0.1083 -0.3297  0.0891
 5620TIP3    H138495   5.357   1.216   1.825  0.8273 -1.3832  2.7975
 5620TIP3    H238496   5.431   1.329   1.894  0.9906  0.8451 -0.7641
 5621TIP3   OH238497   5.381   2.022   6.855  0.1073 -0.3344 -0.1878
 5621TIP3    H138498   5.427   1.960   6.912  0.4460 -0.2451 -0.3629
 5621TIP3    H238499   5.450   2.073   6.814  0.0111 -1.5999 -2.0705
 5622TIP3   OH238500   4.295   0.990   7.934  0.5726 -0.4407  0.0209
 5622TIP3    H138501   4.347   0.936   7.994  0.4606 -0.5991 -0.0254
 5622TIP3    H238502   4.321   1.080   7.955  2.1265 -0.5785 -1.1267
 5623TIP3   OH238503   2.983   4.941   1.846  0.3906  0.0433  0.3300
 5623TIP3    H138504   2.917   4.975   1.785 -1.7452 -1.8097  1.4488
 5623TIP3    H238505   2.999   5.014   1.907 -0.1106  0.7486 -0.3636
 5624TIP3   OH238506   1.895   4.218   2.120  0.3019 -0.3934  0.3341
 5624TIP3    H138507   1.977   4.192   2.162  1.3784 -0.3299 -1.6044
 5624TIP3    H238508   1.916   4.299   2.074 -1.1567  0.1900  0.6222
 5625TIP3   OH238509   3.630   2.563   7.336 -0.0076 -0.3858  0.1049
 5625TIP3    H138510   3.619   2.658   7.341 -0.3641 -0.4981  2.0171
 5625TIP3    H238511   3.580   2.538   7.258  0.4058  1.0104 -0.6618
 5626TIP3   OH238512   3.473   6.216   1.175 -0.0778 -0.4144 -0.0019
 5626TIP3    H138513   3.498   6.189   1.263 -1.8927  0.8646  0.9582
 5626TIP3    H238514   3.551   6.260   1.141  0.5112 -0.5636  1.1129
 5627TIP3   OH238515   2.890   3.350   1.354 -0.2710 -0.2104 -0.3461
 5627TIP3    H138516   2.818   3.413   1.362  0.0807  0.0776  0.7452
 5627TIP3    H238517   2.969   3.403   1.356  0.0647 -0.2087 -4.4414
 5628TIP3   OH238518   0.224   5.533   7.890 -0.0187 -0.6353 -0.1665
 5628TIP3    H138519   0.244   5.626   7.882 -0.7985 -0.5864 -1.9930
 5628TIP3    H238520   0.165   5.527   7.965  1.4861  0.0560  1.1302
 5629TIP3   OH238521   4.363   3.302   7.653 -0.0378  0.5345  0.1229
 5629TIP3    H138522   4.370   3.211   7.682  2.4802  1.2820  2.3004
 5629TIP3    H238523   4.293   3.302   7.588 -0.7168 -2.7714  0.7028
 5630TIP3   OH238524   2.267   3.421   7.060 -0.2922  0.0681 -0.4977
 5630TIP3    H138525   2.252   3.332   7.028 -1.1743 -0.2540  0.7758
 5630TIP3    H238526   2.194   3.471   7.025  0.0162  0.2293 -0.9231
 5631TIP3   OH238527   1.469   2.234   7.405  0.0122  0.1612 -0.1322
 5631TIP3    H138528   1.415   2.203   7.332  0.6531 -0.7812 -0.2322
 5631TIP3    H238529   1.425   2.200   7.483  0.0404  0.0431 -0.1667
 5632TIP3   OH238530   2.451   1.908   0.183 -0.0919 -0.3812 -0.1794
 5632TIP3    H138531   2.484   1.915   0.273  0.8140 -1.5269 -0.4060
 5632TIP3    H238532   2.516   1.855   0.138 -0.6593 -0.0089 -1.4686
 5633TIP3   OH238533   3.037   0.464   8.576 -0.5240 -0.5751 -0.1760
 5633TIP3    H138534   3.042   0.514   8.494 -0.7344 -0.9796 -0.4412
 5633TIP3    H238535   3.062   0.375   8.551 -0.3526 -0.6485  0.2491
 5634TIP3   OH238536   6.807   2.220   0.289  0.2180  0.3831  0.0823
 5634TIP3    H138537   6.760   2.302   0.272 -1.3200 -0.4324  0.2226
 5634TIP3    H238538   6.844   2.196   0.204 -2.8038 -0.8349 -1.0475
 5635TIP3   OH238539   6.040   2.152   7.975  0.2181  0.1542  0.3163
 5635TIP3    H138540   6.006   2.141   7.886 -1.4730  0.1356  0.9227
 5635TIP3    H238541   6.068   2.064   8.001  1.3451  0.2809 -0.4174
 5636TIP3   OH238542   2.652   2.490   6.842 -1.0417 -0.4838 -0.7571
 5636TIP3    H138543   2.675   2.562   6.783 -2.4866  1.8729  1.3533
 5636TIP3    H238544   2.572   2.454   6.804 -1.5303  0.4887 -0.6868
 5637TIP3   OH238545   1.085   4.507   1.695  0.9928 -0.2825  1.0106
 5637TIP3    H138546   1.079   4.552   1.780 -2.1861 -0.2521  0.8813
 5637TIP3    H238547   1.114   4.575   1.634 -1.0348  0.9399  1.3294
 5638TIP3   OH238548   1.064   0.224   8.544  0.1017 -0.6738 -0.0136
 5638TIP3    H138549   1.024   0.244   8.460  0.9290  1.4993  0.0409
 5638TIP3    H238550   1.158   0.229   8.528  0.2751 -0.4277  1.0023
 5639TIP3   OH238551   4.040   2.762   2.074  0.7676 -0.1436 -0.0356
 5639TIP3    H138552   4.043   2.813   1.992 -1.3567  0.5931  0.2754
 5639TIP3    H238553   3.967   2.702   2.062  1.9508 -1.7238  0.4290
 5640TIP3   OH238554   6.737   4.330   7.729  0.6713 -0.0567 -0.2360
 5640TIP3    H138555   6.691   4.410   7.756  1.6441  0.6518 -0.5992
 5640TIP3    H238556   6.702   4.311   7.642  0.2898 -0.1468 -0.0646
 5641TIP3   OH238557   4.532   4.230   6.998 -0.2241  0.0259  1.0452
 5641TIP3    H138558   4.549   4.321   7.025 -1.2373  0.8883 -0.9381
 5641TIP3    H238559   4.438   4.219   7.013 -0.9035  0.6421 -2.0452
 5642TIP3   OH238560   3.501   6.144   7.906  0.0302  0.1899  0.4696
 5642TIP3    H138561   3.428   6.083   7.898 -0.2608  0.6601 -0.5879
 5642TIP3    H238562   3.469   6.225   7.867 -0.1135  1.5327  3.1209
 5643TIP3   OH238563   5.337   3.513   0.515 -0.5964  0.2339  0.0568
 5643TIP3    H138564   5.256   3.491   0.470 -0.7294 -0.9696  0.8411
 5643TIP3    H238565   5.366   3.594   0.474 -1.6300  0.1087 -0.9667
 5644TIP3   OH238566   5.293   3.452   0.216 -0.1039  0.1383  0.2380
 5644TIP3    H138567   5.346   3.449   0.137 -2.3715 -3.3019 -1.3920
 5644TIP3    H238568   5.337   3.394   0.277 -1.2832 -1.8685 -0.7295
 5645TIP3   OH238569   0.500   4.788   0.105  0.2000 -0.8398  0.3878
 5645TIP3    H138570   0.497   4.867   0.158 -1.1088  0.9586 -2.1343
 5645TIP3    H238571   0.577   4.799   0.048  0.8501 -2.1076  0.9799
 5646TIP3   OH238572   6.534   6.116   7.978 -0.0426  0.4234  0.1355
 5646TIP3    H138573   6.595   6.101   7.905 -0.1248  2.8508 -0.5282
 5646TIP3    H238574   6.570   6.065   8.050  1.1255 -0.5340 -1.0737
 5647TIP3   OH238575   1.917   1.435   6.492 -0.3188  0.0565  0.0514
 5647TIP3    H138576   1.846   1.386   6.535  0.3094 -0.5159  0.4512
 5647TIP3    H238577   1.963   1.370   6.440  0.4859  0.2217  0.5392
 5648TIP3   OH238578   6.152   5.739   8.197 -0.5447 -0.1034 -0.4915
 5648TIP3    H138579   6.149   5.643   8.202 -0.0889 -0.0393  1.7374
 5648TIP3    H238580   6.120   5.769   8.282  1.3711  1.6940 -0.3192
 5649TIP3   OH238581   0.763   2.170   0.769 -1.0466  0.3050  0.5145
 5649TIP3    H138582   0.755   2.098   0.831  1.7854 -0.6099 -0.0501
 5649TIP3    H238583   0.799   2.130   0.690 -1.9357  1.9226 -0.7740
 5650TIP3   OH238584   2.116   6.030   0.151  0.3079 -0.4097  0.1729
 5650TIP3    H138585   2.055   6.061   0.085  0.6464 -0.5111 -0.1871
 5650TIP3    H238586   2.200   6.023   0.106  0.2906 -1.6179  0.3169
 5651TIP3   OH238587   0.750   2.584   8.022  0.1405 -0.1595  0.3538
 5651TIP3    H138588   0.752   2.674   7.990  0.4393 -0.3558 -0.1913
 5651TIP3    H238589   0.658   2.567   8.039 -0.4361 -0.8540 -2.7786
 5652TIP3   OH238590   0.675   6.674   7.311 -0.3452  0.0695  0.5162
 5652TIP3    H138591   0.770   6.675   7.315 -0.3289 -1.2627  1.9197
 5652TIP3    H238592   0.650   6.601   7.369 -2.2285  0.7887  0.6868
 5653TIP3   OH238593   5.687   1.107   1.677  0.2224  0.1723  0.4562
 5653TIP3    H138594   5.779   1.137   1.675 -0.3562  2.0526 -0.9144
 5653TIP3    H238595   5.692   1.015   1.654  1.7707  0.2324  0.3976
 5654TIP3   OH238596   2.427   3.558   1.456 -0.3464  0.1063  0.1777
 5654TIP3    H138597   2.388   3.645   1.452 -1.5115 -0.2789  2.0525
 5654TIP3    H238598   2.356   3.499   1.430 -0.4222 -0.4572  1.6013
 5655TIP3   OH238599   6.091   4.226   2.570 -0.1476 -0.5627  0.1514
 5655TIP3    H138600   6.062   4.147   2.525  0.1505  0.0621 -1.2067
 5655TIP3    H238601   6.177   4.203   2.607  0.2695 -0.6700 -0.8624
 5656TIP3   OH238602   4.578   4.725   8.735 -0.2269  0.3187 -0.4246
 5656TIP3    H138603   4.618   4.797   8.782 -0.2533  0.6769 -0.9426
 5656TIP3    H238604   4.534   4.673   8.802  2.1437 -0.8029  0.3636
 5657TIP3   OH238605   4.521   2.381   0.329  0.1382  0.4079 -0.2841
 5657TIP3    H138606   4.495   2.472   0.315 -1.2136  0.3016  1.1723
 5657TIP3    H238607   4.472   2.332   0.263  0.1910  0.6465 -0.5044
 5658TIP3   OH238608   6.181   5.475   8.273 -0.1296 -0.2101 -0.7405
 5658TIP3    H138609   6.249   5.440   8.215  0.1663 -2.4375  0.8297
 5658TIP3    H238610   6.111   5.409   8.270 -1.8063  1.5076 -1.4679
 5659TIP3   OH238611   6.599   2.792   8.776  0.1459  0.1547 -0.0288
 5659TIP3    H138612   6.618   2.701   8.752 -0.8688 -0.1089  0.1078
 5659TIP3    H238613   6.514   2.810   8.735 -0.1732  0.6802  0.8418
 5660TIP3   OH238614   3.120   2.507   0.369 -0.0354  0.5054  0.1844
 5660TIP3    H138615   3.064   2.467   0.436  0.5670  2.4203  1.9251
 5660TIP3    H238616   3.067   2.504   0.289 -0.4205 -2.7133  0.4202
 5661TIP3   OH238617   1.189   1.416   7.322 -0.1508  0.0491 -0.8496
 5661TIP3    H138618   1.209   1.434   7.414  0.6904 -0.4445 -0.9303
 5661TIP3    H238619   1.140   1.334   7.324  0.0504 -0.0707 -0.8612
 5662TIP3   OH238620   5.733   4.772   8.034  0.3092 -0.1658  0.0540
 5662TIP3    H138621   5.693   4.697   8.077 -0.6692  0.8647  0.9886
 5662TIP3    H238622   5.826   4.749   8.027  0.0065 -1.4992  0.2032
 5663TIP3   OH238623   5.003   0.222   1.555 -0.4457 -0.7016  0.1275
 5663TIP3    H138624   4.998   0.314   1.581  1.4515 -0.0821 -1.4511
 5663TIP3    H238625   4.938   0.178   1.609  0.5113  1.0872  2.9486
 5664TIP3   OH238626   5.851   0.491   6.720  0.2770  0.3453 -0.1968
 5664TIP3    H138627   5.760   0.519   6.723  0.4411  0.8790 -0.0046
 5664TIP3    H238628   5.893   0.551   6.658  0.2213 -0.7475 -1.3208
 5665TIP3   OH238629   6.421   6.094   8.413 -0.5183  0.0724  0.0159
 5665TIP3    H138630   6.473   6.061   8.340  1.0132 -0.9233  1.4751
 5665TIP3    H238631   6.424   6.023   8.478 -0.4496  1.5402  1.6937
 5666TIP3   OH238632   0.659   2.068   6.859  0.1940 -0.2630  0.0998
 5666TIP3    H138633   0.586   2.020   6.820  0.5347 -0.2565 -0.5566
 5666TIP3    H238634   0.735   2.047   6.804  0.8359 -0.7744  1.1347
 5667TIP3   OH238635   4.541   0.557   8.669  0.1885 -0.0402  0.1420
 5667TIP3    H138636   4.524   0.464   8.688 -2.9493  0.2170 -0.7835
 5667TIP3    H238637   4.462   0.602   8.701  1.4401  2.2874  0.1500
 5668TIP3   OH238638   4.433   5.240   0.207  0.2159 -0.5734  0.6534
 5668TIP3    H138639   4.465   5.201   0.289  0.1128 -1.6140  0.2180
 5668TIP3    H238640   4.510   5.283   0.170  0.2221  0.0574  1.3731
 5669TIP3   OH238641   5.851   2.864   8.353  0.6396  0.2349 -0.6373
 5669TIP3    H138642   5.920   2.908   8.304 -0.0405  0.5858 -1.2993
 5669TIP3    H238643   5.770   2.891   8.310  0.0692  0.0471  0.2974
 5670TIP3   OH238644   6.663   2.403   7.837 -0.4337 -0.1153  0.5268
 5670TIP3    H138645   6.646   2.483   7.885 -0.2559  0.4805 -0.3731
 5670TIP3    H238646   6.755   2.383   7.852  0.9915  2.5939 -3.0703
 5671TIP3   OH238647   5.793   2.700   1.434 -0.3174 -0.1191  0.5547
 5671TIP3    H138648   5.775   2.640   1.361  0.0371  0.0240  0.3426
 5671TIP3    H238649   5.888   2.710   1.433 -0.4749  1.7010 -0.4331
 5672TIP3   OH238650   5.226   3.196   6.714 -0.0007 -0.0775  0.6871
 5672TIP3    H138651   5.309   3.229   6.749  0.3881 -0.4311  0.1038
 5672TIP3    H238652   5.172   3.274   6.704  1.5330  0.7204 -2.3896
 5673TIP3   OH238653   1.991   5.080   1.739 -0.0556  0.5403  0.1260
 5673TIP3    H138654   2.036   5.027   1.674 -1.0915 -0.5902  0.3003
 5673TIP3    H238655   2.005   5.034   1.822 -2.6310 -0.6359 -0.0091
 5674TIP3   OH238656   0.829   1.229   6.505 -0.1301 -0.8364  0.0146
 5674TIP3    H138657   0.854   1.254   6.594  1.2889 -0.5214 -0.4463
 5674TIP3    H238658   0.882   1.152   6.485 -0.0939 -0.6409 -0.7060
 5675TIP3   OH238659   3.174   3.774   0.011  0.0889 -0.1926  0.9012
 5675TIP3    H138660   3.230   3.849  -0.004 -0.9820  0.2749 -1.1072
 5675TIP3    H238661   3.209   3.706  -0.046 -1.2539  0.0746 -0.3027
 5676TIP3   OH238662   5.363   2.952   7.403 -0.4662  0.0327  0.0931
 5676TIP3    H138663   5.428   2.984   7.466  1.2736 -0.7028 -1.2235
 5676TIP3    H238664   5.279   2.962   7.447  0.7205 -1.1597  2.8282
 5677TIP3   OH238665   0.381   3.939   1.005 -0.1657 -0.5496  0.3976
 5677TIP3    H138666   0.408   3.878   0.937  0.1520 -0.2110  0.2148
 5677TIP3    H238667   0.452   3.937   1.070  1.0954  1.4353 -0.7884
 5678TIP3   OH238668   0.809   6.299   6.272  0.7902  0.1470  0.0786
 5678TIP3    H138669   0.773   6.384   6.297  1.5253  0.1281  1.2507
 5678TIP3    H238670   0.794   6.294   6.177  1.4332  1.9206 -0.1447
 5679TIP3   OH238671   6.660   0.017   2.361  0.6357  0.2827  0.5418
 5679TIP3    H138672   6.629  -0.035   2.435  1.0541 -0.6830  0.0549
 5679TIP3    H238673   6.743   0.055   2.391  2.5049 -2.7008 -0.4395
 5680TIP3   OH238674   4.245   4.729   1.894 -0.0958 -0.3926  0.3320
 5680TIP3    H138675   4.208   4.769   1.973 -0.1582  1.6056 -0.6427
 5680TIP3    H238676   4.169   4.707   1.840 -0.0145 -0.8441  0.3967
 5681TIP3   OH238677   0.147   4.513   1.460  0.7001 -0.5497 -0.1680
 5681TIP3    H138678   0.190   4.433   1.427 -1.4078 -1.6619 -0.3647
 5681TIP3    H238679   0.120   4.490   1.548  1.8856  0.7116  0.5644
 5682TIP3   OH238680   3.579   3.254   1.502 -0.4754 -0.3234  0.1459
 5682TIP3    H138681   3.485   3.270   1.505 -0.4917  0.6667 -2.5784
 5682TIP3    H238682   3.587   3.167   1.462 -0.2275 -0.7849  1.1826
 5683TIP3   OH238683   4.407   2.220   1.040  0.0443  0.1325  0.1381
 5683TIP3    H138684   4.334   2.281   1.052 -1.2817 -1.6854  2.3577
 5683TIP3    H238685   4.476   2.272   1.000 -1.3138  2.8187  1.0227
 5684TIP3   OH238686   5.294   4.387   2.171  0.4284 -0.9840  0.3913
 5684TIP3    H138687   5.357   4.381   2.243 -0.1395 -1.9921  0.8211
 5684TIP3    H238688   5.263   4.297   2.159 -0.7128 -0.5525 -0.0033
 5685TIP3   OH238689   0.911   0.547   2.540 -0.3335 -0.3558  0.0195
 5685TIP3    H138690   0.900   0.629   2.589 -1.3374  1.0701 -2.3858
 5685TIP3    H238691   0.873   0.566   2.454 -0.7270 -3.4332 -0.5944
 5686TIP3   OH238692   3.903   6.006   0.179 -0.6003  0.5295  0.1901
 5686TIP3    H138693   3.965   6.022   0.108  0.2405 -1.1597  0.5109
 5686TIP3    H238694   3.874   5.916   0.166 -0.0889  0.0174  2.2163
 5687TIP3   OH238695   6.062   5.444   7.088 -0.2177  0.4503 -0.0083
 5687TIP3    H138696   6.087   5.414   7.001 -0.0924 -2.0381  0.7900
 5687TIP3    H238697   5.969   5.419   7.095 -0.2332  0.6581  0.5444
 5688TIP3   OH238698   0.562   6.712   0.835  0.7150 -0.4233  0.0732
 5688TIP3    H138699   0.521   6.750   0.757 -0.4852 -1.9231 -0.0748
 5688TIP3    H238700   0.656   6.717   0.818  0.4806 -0.4449 -1.3445
 5689TIP3   OH238701   4.832   6.349   7.911 -0.1867 -0.3252 -0.2286
 5689TIP3    H138702   4.769   6.418   7.891  0.1086 -0.1378 -0.5185
 5689TIP3    H238703   4.778   6.273   7.933 -0.5648  0.6589  2.6427
 5690TIP3   OH238704   0.192   0.041   0.936 -0.0259 -0.3458 -0.4130
 5690TIP3    H138705   0.124  -0.026   0.931  0.4297 -0.9105  0.5578
 5690TIP3    H238706   0.148   0.122   0.912 -1.2170 -0.5757  0.8704
 5691TIP3   OH238707   6.721   6.799   2.017 -0.0003  0.1125 -0.6747
 5691TIP3    H138708   6.720   6.873   2.077 -0.3583  1.0855 -1.8513
 5691TIP3    H238709   6.662   6.735   2.057  1.1850 -0.0557  0.9338
 5692TIP3   OH238710   0.607   5.890   8.771 -0.4720  0.0744  0.2126
 5692TIP3    H138711   0.602   5.795   8.770  0.1111  0.0221  1.0179
 5692TIP3    H238712   0.550   5.917   8.843  0.5336  0.2241  0.9822
 5693TIP3   OH238713   1.406   1.412   8.157  0.3439  0.7573  0.0769
 5693TIP3    H138714   1.322   1.446   8.187  0.0958  0.3486 -0.1469
 5693TIP3    H238715   1.469   1.439   8.224 -0.3626 -1.0375  1.5375
 5694TIP3   OH238716   4.121   3.124   1.900 -0.1343 -0.2094 -0.2987
 5694TIP3    H138717   4.140   3.068   1.825 -0.2846  0.1179 -0.5874
 5694TIP3    H238718   4.025   3.124   1.906 -0.1041 -0.6154  0.1888
 5695TIP3   OH238719   3.846   3.405   8.534  0.2174  0.3987  0.6594
 5695TIP3    H138720   3.906   3.417   8.608 -1.1675  0.8422  1.7577
 5695TIP3    H238721   3.792   3.330   8.559 -0.0100  0.3149 -0.0832
 5696TIP3   OH238722   5.241   4.520   1.929  0.2844  0.4674 -0.1317
 5696TIP3    H138723   5.260   4.474   2.011  0.7433  2.2920  0.8250
 5696TIP3    H238724   5.148   4.502   1.913  0.3903 -0.5687  0.3340
 5697TIP3   OH238725   2.235   6.298   0.194 -0.3180  0.7946 -0.0057
 5697TIP3    H138726   2.284   6.293   0.112 -0.1374  0.1126  0.1382
 5697TIP3    H238727   2.275   6.232   0.250 -1.4291  0.1956  0.1053
 5698TIP3   OH238728   5.772   3.161   2.092 -0.7947  1.1091 -0.3362
 5698TIP3    H138729   5.766   3.121   2.006  1.6899  1.6370 -0.8205
 5698TIP3    H238730   5.770   3.087   2.153  0.8625  0.4132 -1.0655
 5699TIP3   OH238731   5.439   3.872   0.540 -0.1331  0.5585  0.3906
 5699TIP3    H138732   5.504   3.806   0.566  0.0471 -0.0840 -1.5368
 5699TIP3    H238733   5.397   3.835   0.462 -1.3615  1.9076  0.3716
 5700TIP3   OH238734   2.663   1.710   6.018  0.0601 -0.0495 -0.6552
 5700TIP3    H138735   2.585   1.757   6.047 -0.1791  0.3558 -1.9044
 5700TIP3    H238736   2.716   1.701   6.098 -0.6937  0.7646 -0.0364
 5701TIP3   OH238737   0.944   0.805   2.628  0.4304  0.0188  0.0449
 5701TIP3    H138738   0.862   0.854   2.627 -0.2072 -0.9972  1.1548
 5701TIP3    H238739   1.011   0.872   2.641 -0.4844  0.5644  2.3516
 5702TIP3   OH238740   5.745   1.378   2.633  0.4042  0.0132  0.3477
 5702TIP3    H138741   5.753   1.470   2.661 -0.9408 -0.1203  1.2577
 5702TIP3    H238742   5.670   1.377   2.574  1.8347 -0.1315 -1.5655
 5703TIP3   OH238743   3.407   6.735   0.576  0.8463  0.0519 -0.0188
 5703TIP3    H138744   3.437   6.713   0.664  0.0456 -1.8773 -0.1753
 5703TIP3    H238745   3.346   6.807   0.588  1.1264  0.1437  0.9426
 5704TIP3   OH238746   3.845   3.391   1.084 -0.2220  0.4702 -0.7355
 5704TIP3    H138747   3.911   3.336   1.125  0.8362  2.8597  1.0594
 5704TIP3    H238748   3.854   3.375   0.990  2.7373  0.4892 -0.5428
 5705TIP3   OH238749   5.101   4.917   1.578 -0.3264 -0.2488  0.4605
 5705TIP3    H138750   5.138   4.876   1.656  0.5725  0.3443  0.3634
 5705TIP3    H238751   5.178   4.941   1.526 -0.9036 -1.9345 -1.2934
 5706TIP3   OH238752   6.555   5.954   0.636 -0.8417  0.2744  0.6713
 5706TIP3    H138753   6.622   5.993   0.693  1.0480 -0.7342 -0.7490
 5706TIP3    H238754   6.517   5.883   0.689  0.0973  0.0652  1.0889
 5707TIP3   OH238755   6.750   4.670   1.383 -0.5785  0.4061  0.3833
 5707TIP3    H138756   6.823   4.621   1.420 -0.4556 -0.4809 -0.9851
 5707TIP3    H238757   6.790   4.727   1.318 -1.1373 -0.5418 -0.8316
 5708TIP3   OH238758   1.931   4.230   0.305  0.4230 -0.2020  0.4267
 5708TIP3    H138759   1.971   4.277   0.378 -3.3299 -0.6670  3.0893
 5708TIP3    H238760   1.906   4.299   0.243  0.8305  0.5684  1.0965
 5709TIP3   OH238761   5.398   6.649   8.273  0.3501  0.4411  0.1374
 5709TIP3    H138762   5.422   6.741   8.279  0.5851  0.3210  1.1798
 5709TIP3    H238763   5.378   6.623   8.363  1.7051 -0.8910  0.0934
 5710TIP3   OH238764   5.927   4.217   1.957  0.5422 -0.0241  0.4813
 5710TIP3    H138765   5.921   4.232   1.863 -0.4503  1.1547  0.7059
 5710TIP3    H238766   5.949   4.302   1.994  0.1206 -0.2868  1.3823
 5711TIP3   OH238767   4.553   2.103   8.219  0.5081 -0.1446  0.2746
 5711TIP3    H138768   4.484   2.162   8.190  0.2751 -0.3058  0.4952
 5711TIP3    H238769   4.507   2.021   8.241  0.6185  0.1000  1.4863
 5712TIP3   OH238770   2.403   6.551   7.980  0.3024  0.1590 -0.1538
 5712TIP3    H138771   2.392   6.619   8.047 -0.7494  2.0952 -2.1564
 5712TIP3    H238772   2.314   6.520   7.963  0.4890  0.0756 -1.0226
 5713TIP3   OH238773   0.448   3.080   0.523 -0.0189  0.1498 -0.0887
 5713TIP3    H138774   0.436   2.998   0.570 -1.5155  1.3973  1.8196
 5713TIP3    H238775   0.372   3.086   0.466  0.0223  0.2920 -0.1276
 5714TIP3   OH238776   4.745   1.138   2.072 -0.2144 -0.4451 -0.2207
 5714TIP3    H138777   4.792   1.056   2.054 -1.9945 -1.8998  1.3314
 5714TIP3    H238778   4.654   1.111   2.082 -0.4954  1.2660  2.9288
 5715TIP3   OH238779   4.600   0.777   0.052 -0.2628  0.5761  0.2173
 5715TIP3    H138780   4.555   0.720   0.114 -0.9328  2.1923  1.3007
 5715TIP3    H238781   4.666   0.721   0.011 -0.6029 -0.8457  1.5163
 5716TIP3   OH238782   3.042   6.772   7.320  0.4062 -0.0453 -0.3420
 5716TIP3    H138783   3.121   6.720   7.305 -0.3142 -0.8510 -1.4801
 5716TIP3    H238784   3.067   6.861   7.295  0.2898 -0.7135 -3.1231
 5717TIP3   OH238785   5.899   2.171   1.140  0.5439 -0.4624  0.0803
 5717TIP3    H138786   5.854   2.227   1.204 -1.1631 -0.9372 -0.6500
 5717TIP3    H238787   5.829   2.124   1.096  1.6103  0.3077 -2.6129
 5718TIP3   OH238788   3.874   1.048   8.179 -0.4142 -0.2340  0.5288
 5718TIP3    H138789   3.813   0.978   8.201  0.6993 -1.3818  0.0592
 5718TIP3    H238790   3.927   1.059   8.258 -0.2769 -0.2396  0.4370
 5719TIP3   OH238791   3.265   5.678   8.587  0.2194  0.6082  0.5722
 5719TIP3    H138792   3.297   5.665   8.498 -0.9035  1.5104  0.0274
 5719TIP3    H238793   3.262   5.773   8.599 -4.3497  0.7894 -0.2597
 5720TIP3   OH238794   3.225   1.011   0.952  0.4076  0.2779 -0.2462
 5720TIP3    H138795   3.313   1.003   0.916  0.3804  1.3040 -0.5716
 5720TIP3    H238796   3.167   0.990   0.878  0.3673  0.1689 -0.1847
 5721TIP3   OH238797   1.179   0.980   1.523  0.7807  0.0591 -0.3008
 5721TIP3    H138798   1.239   1.006   1.593 -0.2216 -0.8467  0.9335
 5721TIP3    H238799   1.196   0.887   1.510 -1.1782 -0.5358  0.9712
 5722TIP3   OH238800   0.324   2.014   1.595  0.4328  0.5332  0.3333
 5722TIP3    H138801   0.384   2.086   1.577  2.1876 -0.6487  1.1334
 5722TIP3    H238802   0.334   1.956   1.519  1.2244 -0.2201  0.9875
 5723TIP3   OH238803   3.750   3.109   8.586 -0.2185 -0.2225  0.4655
 5723TIP3    H138804   3.812   3.063   8.642 -0.0533 -1.1517 -0.4501
 5723TIP3    H238805   3.782   3.094   8.497 -0.2858  1.5033  0.1108
 5724TIP3   OH238806   1.037   2.881   1.768 -0.2717 -0.2059  0.2403
 5724TIP3    H138807   1.012   2.789   1.768 -0.5456 -0.2170 -2.5290
 5724TIP3    H238808   1.129   2.882   1.794 -0.7973 -1.0010  2.2945
 5725TIP3   OH238809   6.271   0.776   2.447 -0.2962  0.6342  0.2878
 5725TIP3    H138810   6.341   0.820   2.398 -1.7915  1.4364 -1.2278
 5725TIP3    H238811   6.263   0.828   2.527  1.3041  0.0812  0.8557
 5726TIP3   OH238812   6.200   1.470   1.760  0.0416  0.3525 -0.2706
 5726TIP3    H138813   6.251   1.524   1.821 -0.2806  0.2432  0.0988
 5726TIP3    H238814   6.238   1.383   1.767 -1.3995 -0.1819  1.4375
 5727TIP3   OH238815   6.698   6.257   7.549  0.2390  0.0278 -0.5536
 5727TIP3    H138816   6.737   6.342   7.531 -1.2562  1.0770  0.9520
 5727TIP3    H238817   6.606   6.276   7.568 -0.3707 -2.0430 -1.1746
 5728TIP3   OH238818   4.297   1.059   8.801  0.0450  0.4410 -0.1747
 5728TIP3    H138819   4.335   1.023   8.881  1.0308 -0.9523 -1.2314
 5728TIP3    H238820   4.368   1.055   8.736 -1.2228 -0.0488 -1.5863
 5729TIP3   OH238821   1.136   3.761   8.338  0.1624  1.2723  0.8857
 5729TIP3    H138822   1.087   3.711   8.402 -1.3244  1.3112 -0.1718
 5729TIP3    H238823   1.103   3.731   8.253  0.3200  2.9277  0.1938
 5730TIP3   OH238824   0.387   4.639   1.359  0.3967 -0.3006  0.0591
 5730TIP3    H138825   0.306   4.608   1.400  0.1163 -0.4274 -0.5873
 5730TIP3    H238826   0.370   4.636   1.265  2.0296 -2.8277 -0.2535
 5731TIP3   OH238827   5.043   4.160   8.008 -0.1971 -0.1637  0.1339
 5731TIP3    H138828   4.984   4.134   8.078  0.7101 -0.8916  0.6514
 5731TIP3    H238829   4.985   4.187   7.936 -1.1860 -1.8028  0.2647
 5732TIP3   OH238830   1.259   2.474   1.583  0.1626 -0.4277 -0.2078
 5732TIP3    H138831   1.243   2.391   1.628 -0.8086 -0.6884 -1.0053
 5732TIP3    H238832   1.180   2.490   1.532  0.2352  1.1087  0.0866
 5733TIP3   OH238833   1.220   2.357   8.787 -0.2947 -0.4649 -0.0127
 5733TIP3    H138834   1.128   2.379   8.802 -0.9149 -1.9980 -1.1897
 5733TIP3    H238835   1.239   2.392   8.700  1.3420  2.8287  1.4773
 5734TIP3   OH238836   4.933   0.040   0.528  0.1789  0.5183  0.2419
 5734TIP3    H138837   4.949   0.087   0.609 -0.5546 -0.1983  0.8233
 5734TIP3    H238838   5.020   0.018   0.494  0.6028 -2.4514  2.8005
 5735TIP3   OH238839   1.815   1.459   7.427 -0.2693 -0.1894 -0.2512
 5735TIP3    H138840   1.789   1.551   7.435 -2.0649 -0.7009  0.0965
 5735TIP3    H238841   1.780   1.417   7.505  1.5038 -1.0000  0.1775
 5736TIP3   OH238842   4.921   5.530   0.035  0.0419  0.1202 -0.2686
 5736TIP3    H138843   4.982   5.602   0.022  1.2833 -0.2342  2.7583
 5736TIP3    H238844   4.858   5.562   0.100 -0.7522 -0.7878 -0.5587
 5737TIP3   OH238845   3.304   3.352   7.816 -0.6342  1.0710 -0.4660
 5737TIP3    H138846   3.279   3.340   7.907  1.6132 -0.2297  0.0616
 5737TIP3    H238847   3.238   3.304   7.766 -0.9816  0.4131  0.6030
 5738TIP3   OH238848   5.995   4.947   7.926 -0.0084 -0.2831  0.3460
 5738TIP3    H138849   5.995   4.953   7.831 -0.7080 -0.0043  0.3538
 5738TIP3    H238850   5.975   4.855   7.944  0.4952 -0.4209  0.2308
 5739TIP3   OH238851   1.825   0.646   1.238 -0.8463 -1.0294  0.0682
 5739TIP3    H138852   1.744   0.663   1.191 -0.6902 -2.2994 -0.7082
 5739TIP3    H238853   1.874   0.586   1.181  0.9339  0.2077  0.2047
 5740TIP3   OH238854   1.671   3.777   8.108  0.6070 -0.0215 -0.2476
 5740TIP3    H138855   1.669   3.788   8.203 -3.0843  0.0390 -0.1826
 5740TIP3    H238856   1.605   3.838   8.076 -0.4014 -2.1496 -2.5283
 5741TIP3   OH238857   1.008   5.497   0.593  0.0978 -0.3159 -0.4611
 5741TIP3    H138858   1.093   5.473   0.630 -0.3006  0.1682  0.7989
 5741TIP3    H238859   0.974   5.416   0.555 -1.1208 -1.8595  3.4852
 5742TIP3   OH238860   3.487   1.000   0.927 -0.1448 -0.2309  0.1902
 5742TIP3    H138861   3.552   0.999   0.997 -0.4697  1.0679  0.5422
 5742TIP3    H238862   3.475   0.908   0.904  0.8914 -0.5799  0.9773
 5743TIP3   OH238863   6.761   5.196   7.086  0.2968 -0.6182  0.4993
 5743TIP3    H138864   6.766   5.219   6.994  0.2549 -0.4262  0.5459
 5743TIP3    H238865   6.847   5.158   7.106  0.4609 -0.2521  0.4925
 5744TIP3   OH238866   4.023   2.886   7.256 -0.0355  0.2749 -0.3919
 5744TIP3    H138867   4.077   2.910   7.331  0.5788  0.2502 -0.8136
 5744TIP3    H238868   3.964   2.818   7.288  0.2457  0.2427  0.0596
 5745TIP3   OH238869   2.277   2.263   0.673 -0.0671 -0.3375  0.2470
 5745TIP3    H138870   2.268   2.198   0.603 -0.5444 -0.1263  0.1092
 5745TIP3    H238871   2.304   2.343   0.628 -1.7598  0.1846  0.1086
 5746TIP3   OH238872   1.066   5.717   7.343 -0.2975  0.1046  0.4790
 5746TIP3    H138873   1.105   5.656   7.407 -2.4982 -0.2335  1.5942
 5746TIP3    H238874   1.130   5.721   7.273  0.8154 -2.0127  1.2552
 5747TIP3   OH238875   2.103   4.147   8.639 -0.2102  0.7132  0.1136
 5747TIP3    H138876   2.133   4.221   8.692 -0.3455  0.6187  0.3258
 5747TIP3    H238877   2.042   4.101   8.696  2.4570 -1.5831  1.3079
 5748TIP3   OH238878   1.083   4.080   6.351  0.2914 -0.3350 -0.5722
 5748TIP3    H138879   1.149   4.103   6.416  0.7735 -3.1603  0.0704
 5748TIP3    H238880   1.132   4.056   6.273 -0.0467 -0.8144 -0.6465
 5749TIP3   OH238881   3.833   1.141   0.367 -0.2449  0.3250  0.1253
 5749TIP3    H138882   3.863   1.064   0.319  0.7350 -0.0986  1.3445
 5749TIP3    H238883   3.855   1.215   0.310  2.3172 -0.0416  0.4747
 5750TIP3   OH238884   6.317   2.006   0.796  0.2286  0.0752  0.0384
 5750TIP3    H138885   6.253   2.077   0.793  0.5319  0.3781  0.6944
 5750TIP3    H238886   6.312   1.966   0.709 -1.5484 -0.5199  0.3728
 5751TIP3   OH238887   4.976   6.773   7.516 -0.5189 -0.1617  0.2934
 5751TIP3    H138888   5.010   6.729   7.594  0.6516  1.2073  0.6008
 5751TIP3    H238889   4.881   6.759   7.519 -0.2864 -1.7241  0.9281
 5752TIP3   OH238890   3.091   1.755   7.588  0.2907 -0.1308 -0.0573
 5752TIP3    H138891   3.029   1.697   7.632  0.8102 -0.0469  0.8088
 5752TIP3    H238892   3.175   1.709   7.592  0.6228  0.4783  0.2599
 5753TIP3   OH238893   0.624   0.068   1.501 -0.5260  0.1089  0.2050
 5753TIP3    H138894   0.702   0.119   1.524 -0.8977  0.0434  1.7748
 5753TIP3    H238895   0.656  -0.022   1.495 -0.7111 -0.1833  2.5703
 5754TIP3   OH238896   4.902   0.670   1.027 -0.2466 -0.3430  0.2934
 5754TIP3    H138897   4.881   0.744   1.084  0.6271  0.9949 -1.0548
 5754TIP3    H238898   4.843   0.679   0.952 -1.6467 -2.3003  1.0836
 5755TIP3   OH238899   4.253   1.662   6.284 -0.4687 -0.3823 -0.1908
 5755TIP3    H138900   4.159   1.662   6.300 -0.3680 -0.4878  0.4150
 5755TIP3    H238901   4.263   1.614   6.201 -0.7701 -2.3754  0.8604
 5756TIP3   OH238902   2.745   3.503   0.441  0.2632 -0.1576  0.6833
 5756TIP3    H138903   2.650   3.506   0.449  0.3925  0.7755  2.5682
 5756TIP3    H238904   2.763   3.422   0.394 -1.6248  2.0191 -4.5632
 5757TIP3   OH238905   0.003   0.264   2.040  0.5028 -0.0804 -0.1363
 5757TIP3    H138906  -0.008   0.286   2.132  0.0991  2.7544 -0.7758
 5757TIP3    H238907  -0.062   0.318   1.994 -0.7540 -2.9054 -1.9932
 5758TIP3   OH238908   4.224   3.585   1.965 -0.3517  0.2652 -0.4946
 5758TIP3    H138909   4.261   3.649   2.026 -0.1473 -0.2828 -0.0385
 5758TIP3    H238910   4.227   3.502   2.012 -0.5757 -0.0924 -1.0986
 5759TIP3   OH238911   4.648   6.765   7.547 -0.2967 -0.1857 -0.6318
 5759TIP3    H138912   4.691   6.827   7.606 -0.0874 -0.8090 -0.1107
 5759TIP3    H238913   4.688   6.782   7.462  0.7949 -0.5557 -0.2123
 5760TIP3   OH238914   6.220   4.259   8.346  0.6238  0.2767 -0.1403
 5760TIP3    H138915   6.163   4.208   8.289 -1.2256 -1.6783  3.1431
 5760TIP3    H238916   6.285   4.195   8.378 -0.7050  0.2266  2.7548
 5761TIP3   OH238917   4.406   1.746   0.155 -0.0156 -0.1088  0.7404
 5761TIP3    H138918   4.492   1.745   0.198 -0.0958  1.7669  1.0384
 5761TIP3    H238919   4.396   1.658   0.120  1.5418 -0.7023  1.6635
 5762TIP3   OH238920   1.004   5.566   0.899  0.3400  0.0925  0.8602
 5762TIP3    H138921   1.046   5.520   0.826 -0.2716  0.6108  0.1606
 5762TIP3    H238922   0.997   5.501   0.968  1.2634 -0.3142  0.5891
 5763TIP3   OH238923   5.613   4.593   7.453  0.2857  0.3585 -0.1109
 5763TIP3    H138924   5.538   4.552   7.495  1.6990 -0.3033  1.8928
 5763TIP3    H238925   5.575   4.662   7.398 -1.8971 -1.3448 -0.8962
 5764TIP3   OH238926   1.363   3.587   0.539  0.1565  0.1808 -0.1456
 5764TIP3    H138927   1.291   3.526   0.523 -0.8116  1.6325 -1.6946
 5764TIP3    H238928   1.344   3.625   0.625 -1.4881  1.1798 -0.8943
 5765TIP3   OH238929   0.281   0.353   1.172  0.3110  0.4051 -0.3524
 5765TIP3    H138930   0.364   0.394   1.149  0.8978  0.1393  1.1598
 5765TIP3    H238931   0.283   0.346   1.268 -1.5265  0.5299 -0.2693
 5766TIP3   OH238932   0.460   1.527   8.682  0.0953  0.0889 -0.5575
 5766TIP3    H138933   0.370   1.513   8.709 -0.2158  0.4670 -1.3664
 5766TIP3    H238934   0.476   1.620   8.700  1.0749 -0.4383  1.6862
 5767TIP3   OH238935   5.811   5.124   0.523 -0.2249  0.0264  0.8139
 5767TIP3    H138936   5.723   5.161   0.523 -0.8175 -1.3260  0.6662
 5767TIP3    H238937   5.807   5.051   0.462  1.8957  1.9033 -1.8171
 5768TIP3   OH238938   2.537   2.251   7.045 -0.1564  0.0232 -0.2645
 5768TIP3    H138939   2.576   2.334   7.018 -1.5245  1.2350  1.3266
 5768TIP3    H238940   2.454   2.275   7.087 -1.0850 -2.2271 -0.6712
 5769TIP3   OH238941   6.050   4.775   8.708  0.7061 -0.4406 -0.5124
 5769TIP3    H138942   6.098   4.722   8.770  1.8495  0.2345 -0.8011
 5769TIP3    H238943   6.047   4.862   8.747  1.2160 -0.0675 -1.2773
 5770TIP3   OH238944   4.245   3.121   0.616  0.3249  0.2247  0.0137
 5770TIP3    H138945   4.231   3.040   0.666 -0.6347  0.4008  0.0476
 5770TIP3    H238946   4.264   3.187   0.683  0.5625  0.1453  0.0262
 5771TIP3   OH238947   2.288   2.351   8.147  0.0229 -0.7982 -0.0912
 5771TIP3    H138948   2.336   2.426   8.112 -1.3611  1.0047  1.6591
 5771TIP3    H238949   2.196   2.370   8.129 -0.4137 -1.6646  1.0813
 5772TIP3   OH238950   2.670   5.292   1.541 -0.2923  0.6857 -0.2397
 5772TIP3    H138951   2.576   5.294   1.519 -0.9777 -3.8411  1.3109
 5772TIP3    H238952   2.672   5.284   1.637  1.4120 -2.1623 -0.4031
 5773TIP3   OH238953   3.542   3.357   7.092  0.7443  0.5567 -0.2166
 5773TIP3    H138954   3.604   3.315   7.033 -0.4919  2.2562 -2.9019
 5773TIP3    H238955   3.472   3.293   7.103  1.2339  0.0245 -0.1353
 5774TIP3   OH238956   3.742   5.775   0.140 -0.1475 -0.1234  0.5659
 5774TIP3    H138957   3.717   5.805   0.053  1.1822 -1.0270 -0.1594
 5774TIP3    H238958   3.770   5.685   0.128 -0.3824 -0.4166  2.0156
 5775TIP3   OH238959   3.319   6.364   2.011 -0.1844  0.4347 -0.4758
 5775TIP3    H138960   3.302   6.279   2.053  0.7883  0.7571  0.6162
 5775TIP3    H238961   3.402   6.394   2.048 -0.8966  2.2395 -0.2232
 5776TIP3   OH238962   6.160   3.672   8.491 -0.1488 -0.1548  0.6252
 5776TIP3    H138963   6.093   3.624   8.539 -2.1769  2.1091  0.2905
 5776TIP3    H238964   6.201   3.728   8.558 -0.7623  0.6882  0.3099
 5777TIP3   OH238965   4.572   5.802   0.606  0.1180 -0.4988 -0.4893
 5777TIP3    H138966   4.594   5.725   0.658  3.6657 -1.0925 -2.5250
 5777TIP3    H238967   4.626   5.872   0.644 -0.2668  0.0599 -0.9532
 5778TIP3   OH238968   2.553   2.535   8.809  0.3602 -0.3141 -0.1709
 5778TIP3    H138969   2.516   2.462   8.760  1.0195 -0.1441 -0.9498
 5778TIP3    H238970   2.507   2.612   8.776  0.4028 -0.2630 -0.1116
 5779TIP3   OH238971   3.259   5.979   7.848  0.2727  0.1134 -0.0339
 5779TIP3    H138972   3.170   6.013   7.853 -1.0102 -2.3252 -2.8120
 5779TIP3    H238973   3.254   5.893   7.890  0.6461 -1.0265 -2.1798
 5780TIP3   OH238974   5.667   4.190   6.785  0.4882 -0.4596  0.2925
 5780TIP3    H138975   5.698   4.221   6.870  0.4424  0.3201  0.0418
 5780TIP3    H238976   5.576   4.220   6.780  0.4509 -0.6110  0.0230
 5781TIP3   OH238977   5.709   4.122   0.228  0.2499  0.2741  0.0340
 5781TIP3    H138978   5.791   4.086   0.260  1.3181  3.9117  1.9710
 5781TIP3    H238979   5.728   4.153   0.139  0.4284 -0.4256 -0.1761
 5782TIP3   OH238980   3.027   1.587   0.545  0.5591 -0.2127  0.4042
 5782TIP3    H138981   2.945   1.630   0.567  1.0137  0.0324  1.7140
 5782TIP3    H238982   3.088   1.659   0.528  1.2559 -0.2685  2.3605
 5783TIP3   OH238983   6.454   5.140   0.737  0.1659 -0.0669  0.1194
 5783TIP3    H138984   6.367   5.110   0.763  1.0379 -0.3568  2.9757
 5783TIP3    H238985   6.486   5.071   0.678  0.0149 -2.1104  2.2773
 5784TIP3   OH238986   2.018   5.345   1.735 -0.5788  0.0446 -0.0604
 5784TIP3    H138987   2.054   5.368   1.821  1.5012  0.0113 -0.8476
 5784TIP3    H238988   2.020   5.249   1.733  2.1961  0.0051 -1.1160
 5785TIP3   OH238989   4.329   0.563   2.268  0.4450 -0.0836 -0.1961
 5785TIP3    H138990   4.277   0.637   2.237  0.9254  0.5351  0.4687
 5785TIP3    H238991   4.405   0.602   2.310  1.7119 -0.9859 -1.5627
 5786TIP3   OH238992   5.946   5.350   1.606 -0.5040  0.4472  0.1775
 5786TIP3    H138993   5.902   5.402   1.538  0.4879 -0.5068 -1.2537
 5786TIP3    H238994   6.005   5.412   1.649  0.9080  0.5212 -1.7281
 5787TIP3   OH238995   1.420   3.899   7.853 -0.3216  0.2169 -0.3453
 5787TIP3    H138996   1.412   3.945   7.769  0.0696 -1.1746 -1.1891
 5787TIP3    H238997   1.478   3.825   7.834  0.4713  0.3500  1.3757
 5788TIP3   OH238998   0.441   4.304   0.219  0.4480  0.3934 -0.3016
 5788TIP3    H138999   0.410   4.391   0.195  1.9699  1.1032  0.1403
 5788TIP3    H239000   0.368   4.264   0.266 -0.6181  1.0442 -1.3518
 5789TIP3   OH239001   4.085   1.630   0.187  0.3140 -0.1695  0.2329
 5789TIP3    H139002   4.116   1.540   0.198  0.5161 -0.2726 -1.0908
 5789TIP3    H239003   4.128   1.679   0.257  3.1987 -0.3806 -1.2546
 5790TIP3   OH239004   1.845   5.211   8.767  0.4508  0.1290  0.3377
 5790TIP3    H139005   1.774   5.257   8.723  0.8506  0.5456  0.1239
 5790TIP3    H239006   1.816   5.201   8.858  0.5812  1.2581  0.5109
 5791TIP3   OH239007   4.151   0.971   7.607  0.5880 -0.0939 -0.0113
 5791TIP3    H139008   4.244   0.988   7.618  0.8138 -0.3393 -1.3341
 5791TIP3    H239009   4.108   1.041   7.656  1.4628  0.1535  0.4311
 5792TIP3   OH239010   6.650   1.758   8.304 -0.0299 -0.0090  0.4998
 5792TIP3    H139011   6.741   1.786   8.295 -0.7887  2.4380 -0.3905
 5792TIP3    H239012   6.617   1.809   8.378 -1.1402  0.5888 -0.3733
 5793TIP3   OH239013   4.631   4.335   7.696  0.2872  0.6405  1.1485
 5793TIP3    H139014   4.562   4.318   7.760  0.8277  0.9246  1.8205
 5793TIP3    H239015   4.615   4.425   7.666 -1.1076 -0.1317 -0.5721
 5794TIP3   OH239016   5.911   0.068   6.732 -0.9134  0.0178 -0.4609
 5794TIP3    H139017   5.830   0.056   6.683 -1.3365  0.5022  0.1029
 5794TIP3    H239018   5.939  -0.021   6.754 -3.5138 -0.1643  2.8915
 5795TIP3   OH239019   2.089   2.842   7.755  0.0622  0.4036  0.4148
 5795TIP3    H139020   2.042   2.926   7.757  0.7591  0.8343 -0.7103
 5795TIP3    H239021   2.084   2.813   7.664  0.7817 -0.2351  0.5663
 5796TIP3   OH239022   1.447   1.781   1.108  0.8962 -0.7511 -0.9683
 5796TIP3    H139023   1.531   1.792   1.150 -0.2131 -0.3310  1.2805
 5796TIP3    H239024   1.397   1.725   1.167 -0.4792 -0.8213 -2.1374
 5797TIP3   OH239025   0.389   5.116   2.091  0.6641 -0.0690 -0.2161
 5797TIP3    H139026   0.301   5.078   2.098  0.2717  1.0081  1.3895
 5797TIP3    H239027   0.388   5.165   2.009  0.1604 -0.9955 -0.7787
 5798TIP3   OH239028   1.673   6.013   1.237 -0.2848  0.2831 -0.6556
 5798TIP3    H139029   1.742   6.060   1.191  0.5373  0.6705  0.9088
 5798TIP3    H239030   1.622   5.971   1.167  2.2299 -1.0424 -1.8368
 5799TIP3   OH239031   3.210   2.278   8.814  0.1568  0.3491 -0.7057
 5799TIP3    H139032   3.272   2.261   8.743  0.2043 -2.4805 -0.0967
 5799TIP3    H239033   3.265   2.308   8.887  0.9821 -2.4858 -0.0539
 5800TIP3   OH239034   1.472   1.312   0.782  0.2995  0.1901  0.1936
 5800TIP3    H139035   1.562   1.281   0.786 -0.0540 -0.9632 -0.4900
 5800TIP3    H239036   1.424   1.243   0.736 -1.0080  0.6082  0.8681
 5801TIP3   OH239037   1.706   6.092   0.894 -0.5624  0.9639  0.0562
 5801TIP3    H139038   1.764   6.093   0.970  1.4352  1.3826 -1.3866
 5801TIP3    H239039   1.652   6.014   0.906  1.4099 -0.3750  0.7081
 5802TIP3   OH239040   1.549   4.966   7.129 -0.4725 -0.3204 -0.1034
 5802TIP3    H139041   1.521   4.994   7.042  0.0499 -0.0581 -0.1901
 5802TIP3    H239042   1.613   4.897   7.114  0.0237  0.0951  0.0511
 5803TIP3   OH239043   1.593   2.885   1.570  0.3786  0.5045 -0.2346
 5803TIP3    H139044   1.658   2.950   1.544  0.1201  0.8895  0.0696
 5803TIP3    H239045   1.595   2.820   1.500  2.0893 -0.2212  0.4325
 5804TIP3   OH239046   1.612   2.049   2.395 -0.4529 -0.2385  0.9203
 5804TIP3    H139047   1.624   1.966   2.442 -1.1149  0.2448  1.9638
 5804TIP3    H239048   1.659   2.114   2.447  1.7562 -0.2414 -0.9254
 5805TIP3   OH239049   5.628   6.287   1.223  0.0108  0.2281 -0.4166
 5805TIP3    H139050   5.667   6.211   1.266 -1.5222 -0.6526 -0.4973
 5805TIP3    H239051   5.534   6.276   1.238 -0.1660  3.0047  1.0066
 5806TIP3   OH239052   4.365   0.484   6.934  0.3230 -0.2149 -0.1063
 5806TIP3    H139053   4.346   0.456   7.024 -1.3553 -0.0618 -0.3775
 5806TIP3    H239054   4.305   0.432   6.880  1.0278 -0.0080 -1.1098
 5807TIP3   OH239055   3.875   6.668   0.369  0.0348  0.2143  0.6333
 5807TIP3    H139056   3.790   6.712   0.366 -1.2542 -1.9779  1.9146
 5807TIP3    H239057   3.872   6.604   0.298  0.3068 -0.3350  1.1006
 5808TIP3   OH239058   2.780   0.045   2.193 -0.1360  0.1808 -0.9275
 5808TIP3    H139059   2.847  -0.010   2.233 -1.4064 -0.3888  0.5148
 5808TIP3    H239060   2.704   0.037   2.251 -1.0716  1.7486 -1.8535
 5809TIP3   OH239061   4.980   4.213   6.770  0.1703 -0.4233 -0.2461
 5809TIP3    H139062   5.063   4.208   6.818  0.0293 -0.3313  0.0126
 5809TIP3    H239063   5.005   4.219   6.678  0.5591  2.2434 -0.0376
 5810TIP3   OH239064   2.153   0.893   8.781  0.3842  0.3385 -0.1750
 5810TIP3    H139065   2.190   0.817   8.737  0.5561 -0.6382  1.5490
 5810TIP3    H239066   2.221   0.960   8.775 -0.0799  0.6820 -2.4103
 5811TIP3   OH239067   6.128   2.418   7.984 -0.2427 -0.2953  0.2819
 5811TIP3    H139068   6.115   2.329   8.018 -0.1431 -0.1575  0.6801
 5811TIP3    H239069   6.202   2.452   8.033 -0.9162  0.3792  0.8615
 5812TIP3   OH239070   3.468   5.367   8.725  0.3514 -0.1599  0.8285
 5812TIP3    H139071   3.486   5.372   8.819 -0.2789 -1.4354  1.0409
 5812TIP3    H239072   3.373   5.383   8.718  0.5029  0.6065  0.3251
 5813TIP3   OH239073   2.461   1.606   8.379 -0.6061  0.0240  0.5707
 5813TIP3    H139074   2.481   1.675   8.443 -1.0272 -0.0927  0.8341
 5813TIP3    H239075   2.494   1.526   8.419  0.6718  0.1816 -0.1204
 5814TIP3   OH239076   6.380   6.636   8.507 -0.2905  0.4898  0.5513
 5814TIP3    H139077   6.356   6.726   8.531  1.3714  0.7931  1.2611
 5814TIP3    H239078   6.349   6.626   8.418  0.2837  2.1117  0.1238
 5815TIP3   OH239079   6.527   1.856   7.937  0.0809 -0.2605  0.6772
 5815TIP3    H139080   6.542   1.920   8.007 -0.0516  0.8308 -0.2483
 5815TIP3    H239081   6.435   1.833   7.944  0.1383 -0.3787  1.0428
 5816TIP3   OH239082   4.535   5.870   0.322  0.6145 -0.3177  0.2764
 5816TIP3    H139083   4.533   5.798   0.259  1.1982 -0.6131  0.5909
 5816TIP3    H239084   4.546   5.827   0.407  0.8293  0.1329  0.4795
 5817TIP3   OH239085   1.512   6.007   8.349  0.2048 -0.4210  0.1102
 5817TIP3    H139086   1.435   5.995   8.404  0.2516 -0.8309  0.0901
 5817TIP3    H239087   1.477   6.039   8.265  0.1530  0.4047  0.4365
 5818TIP3   OH239088   3.948   1.093   2.460 -0.9761 -0.0713 -0.4827
 5818TIP3    H139089   3.929   1.021   2.520  0.2165 -0.0212 -0.0237
 5818TIP3    H239090   3.946   1.053   2.373  0.9566 -0.9902 -0.1594
 5819TIP3   OH239091   5.089   2.776   6.876  0.1358  0.3615 -0.7400
 5819TIP3    H139092   5.043   2.846   6.921 -1.3534  0.6568 -2.6061
 5819TIP3    H239093   5.178   2.779   6.911 -0.4593  1.7473  0.7737
 5820TIP3   OH239094   2.236   2.007   0.550  0.2042 -0.4896  0.0220
 5820TIP3    H139095   2.215   1.918   0.521  2.6237 -0.8054 -0.9780
 5820TIP3    H239096   2.263   2.052   0.470  1.5695  0.3186  0.8997
 5821TIP3   OH239097   6.757   1.328   7.412 -0.5233 -0.3819 -0.4646
 5821TIP3    H139098   6.782   1.355   7.500 -0.7298 -0.5888 -0.3411
 5821TIP3    H239099   6.730   1.409   7.369  0.3111 -0.1657 -0.5859
 5822TIP3   OH239100   0.153   3.260   2.580 -0.1329  0.2610  0.1377
 5822TIP3    H139101   0.185   3.231   2.666  1.4318  0.9100 -0.1993
 5822TIP3    H239102   0.079   3.203   2.563 -1.0180  0.6455  2.2867
 5823TIP3   OH239103   3.890   3.726   7.990 -1.2130 -0.0911  0.6459
 5823TIP3    H139104   3.881   3.813   7.949 -1.5599 -0.4145  0.0181
 5823TIP3    H239105   3.811   3.715   8.041 -0.4320  0.6390  2.0698
 5824TIP3   OH239106   5.796   3.904   7.913  0.2221  0.5440  0.1758
 5824TIP3    H139107   5.734   3.890   7.985 -0.8503 -1.3281 -1.0228
 5824TIP3    H239108   5.874   3.856   7.939  0.3590  1.0400  0.6973
 5825TIP3   OH239109   5.789   0.678   7.284 -0.4525 -0.0042 -0.0845
 5825TIP3    H139110   5.859   0.626   7.323 -1.1647 -1.4627 -0.6653
 5825TIP3    H239111   5.717   0.672   7.346 -0.7596 -0.2903 -0.4583
 5826TIP3   OH239112   6.055   3.042   1.507  0.4552  0.4250 -0.4031
 5826TIP3    H139113   5.982   2.995   1.546  0.4945  0.8021  0.1320
 5826TIP3    H239114   6.123   2.975   1.495 -0.3617 -0.1725 -1.9631
 5827TIP3   OH239115   3.753   6.614   2.530 -0.1819 -0.2797 -0.6105
 5827TIP3    H139116   3.786   6.567   2.453 -0.5168 -1.6064  0.0217
 5827TIP3    H239117   3.688   6.675   2.496  0.5559  0.0258 -1.5015
 5828TIP3   OH239118   5.982   1.786   1.938 -0.2675  0.3403 -0.0685
 5828TIP3    H139119   6.059   1.734   1.960 -1.2792 -0.9735  0.4910
 5828TIP3    H239120   5.987   1.799   1.843 -0.9878 -2.5142 -0.5721
 5829TIP3   OH239121   5.166   0.253   0.333  0.1771  0.3287  0.4087
 5829TIP3    H139122   5.199   0.335   0.369 -0.1751  0.4148  0.5415
 5829TIP3    H239123   5.204   0.185   0.389  1.2033  0.3403 -0.2560
 5830TIP3   OH239124   3.886   3.621   0.754  0.3431  0.2360  0.4402
 5830TIP3    H139125   3.913   3.575   0.834  1.5709 -1.5868 -0.9422
 5830TIP3    H239126   3.797   3.589   0.737 -0.4899  1.7049  1.7762
 5831TIP3   OH239127   4.180   4.096   1.474 -0.5539  0.4155 -0.3271
 5831TIP3    H139128   4.161   4.058   1.560 -1.2274  0.6065 -0.3878
 5831TIP3    H239129   4.130   4.177   1.472  0.3793  1.0094 -0.4472
 5832TIP3   OH239130   2.295   5.006   1.059 -0.2372  0.1542  0.5643
 5832TIP3    H139131   2.278   5.100   1.055  1.8703  0.5304 -2.1167
 5832TIP3    H239132   2.219   4.966   1.016 -1.2494  0.5406  1.9144
 5833TIP3   OH239133   0.776   2.589   1.174 -0.5651 -0.1807 -0.0094
 5833TIP3    H139134   0.820   2.655   1.229 -0.7986  0.1009 -0.1558
 5833TIP3    H239135   0.746   2.639   1.097 -4.7016  0.5731  1.8174
 5834TIP3   OH239136   3.597   3.567   8.575  0.1217 -0.0801  0.0230
 5834TIP3    H139137   3.530   3.504   8.550 -0.0366 -0.1620  0.6291
 5834TIP3    H239138   3.679   3.517   8.570 -0.0732 -0.5634  1.1890
 5835TIP3   OH239139   1.986   4.397   1.809 -0.1721  0.3894  0.7014
 5835TIP3    H139140   1.959   4.412   1.900  1.6811 -2.1389  1.7897
 5835TIP3    H239141   2.066   4.346   1.816  1.0885  1.6929 -2.3948
 5836TIP3   OH239142   3.468   0.783   6.205  0.3377  0.2049  0.4045
 5836TIP3    H139143   3.409   0.756   6.135  0.3007  1.9112 -0.2716
 5836TIP3    H239144   3.421   0.854   6.249  1.0066  0.1762  1.1814
 5837TIP3   OH239145   2.630   2.984   7.718 -0.1722 -0.0412 -0.0515
 5837TIP3    H139146   2.560   2.918   7.714  0.8016 -1.2923  2.1144
 5837TIP3    H239147   2.590   3.057   7.766 -1.2272  1.0218 -2.3844
 5838TIP3   OH239148   2.236   0.381   0.081 -0.2923  0.1098 -0.6870
 5838TIP3    H139149   2.225   0.405  -0.011 -0.4566  0.9928 -0.4469
 5838TIP3    H239150   2.233   0.465   0.128  3.0446  0.0541 -0.1577
 5839TIP3   OH239151   1.572   0.428   0.764  0.4687  0.1650 -0.3163
 5839TIP3    H139152   1.611   0.429   0.676  0.3059  0.5072 -0.3840
 5839TIP3    H239153   1.479   0.441   0.749  0.5219  0.8569 -0.0481
 5840TIP3   OH239154   4.303   4.799   1.326 -0.1749 -0.0574  0.0341
 5840TIP3    H139155   4.322   4.855   1.250 -2.0018  1.4081  0.5699
 5840TIP3    H239156   4.340   4.847   1.400 -0.0174 -0.5653  0.2852
 5841TIP3   OH239157   2.288   2.028   6.934 -0.1179  0.7513  0.5161
 5841TIP3    H139158   2.277   2.119   6.908 -2.9148  0.1522 -0.7352
 5841TIP3    H239159   2.270   1.977   6.855  1.6412 -0.9587  1.1087
 5842TIP3   OH239160   4.897   0.283   6.283 -0.0410 -0.2781 -0.3264
 5842TIP3    H139161   4.926   0.216   6.345  0.4074 -0.5039 -0.7735
 5842TIP3    H239162   4.860   0.233   6.210  0.7142 -0.0601 -0.8727
 5843TIP3   OH239163   1.068   0.750   8.386  0.5085  0.4353  0.1384
 5843TIP3    H139164   1.026   0.673   8.423  0.7156  0.8257  1.2212
 5843TIP3    H239165   1.013   0.823   8.414 -0.7107  0.5924 -2.3508
 5844TIP3   OH239166   1.064   0.353   6.497  0.1480  0.3051 -0.2753
 5844TIP3    H139167   0.984   0.389   6.536 -0.8682  0.0473 -2.0029
 5844TIP3    H239168   1.068   0.263   6.530  0.2734  0.6216  0.5894
 5845TIP3   OH239169   1.531   1.647   6.899  0.4756  0.2563  0.1111
 5845TIP3    H139170   1.586   1.723   6.882  0.4090 -0.0280 -1.5562
 5845TIP3    H239171   1.473   1.641   6.824  1.0547 -1.9155 -0.2601
 5846TIP3   OH239172   3.250   2.444   8.597 -0.3256 -0.0676 -0.1722
 5846TIP3    H139173   3.225   2.479   8.683 -1.0481 -1.9613  0.4370
 5846TIP3    H239174   3.173   2.460   8.542 -0.7467 -0.8785  0.1692
 5847TIP3   OH239175   0.463   2.308   0.264 -0.2931 -0.3019  0.3471
 5847TIP3    H139176   0.521   2.238   0.233  1.8680  2.1501 -1.6759
 5847TIP3    H239177   0.407   2.328   0.188 -1.3214 -0.2310  1.1082
 5848TIP3   OH239178   2.980   0.160   0.431 -0.6061 -0.5124 -0.2710
 5848TIP3    H139179   2.932   0.203   0.501 -0.3661 -1.9522  0.8228
 5848TIP3    H239180   3.002   0.231   0.370 -1.3958  0.6618  0.7578
 5849TIP3   OH239181   5.883   4.805   1.199  0.3567  0.0864  0.0834
 5849TIP3    H139182   5.841   4.788   1.284 -0.0486  2.6839  0.4791
 5849TIP3    H239183   5.810   4.818   1.138  0.5652  1.6736  0.1306
 5850TIP3   OH239184   1.630   6.822   0.748  0.4495  0.0788  0.6595
 5850TIP3    H139185   1.687   6.849   0.676  0.4216  0.2295  0.6926
 5850TIP3    H239186   1.661   6.734   0.772 -0.8569 -0.8366 -0.8759
 5851TIP3   OH239187   5.089   6.692   8.218  0.0417  0.1237 -0.1573
 5851TIP3    H139188   5.108   6.693   8.312  2.1569  0.4197 -0.5388
 5851TIP3    H239189   5.079   6.599   8.196 -2.4858  0.1405  0.6766
 5852TIP3   OH239190   0.788   3.163   8.292 -0.4522 -0.1407 -0.0370
 5852TIP3    H139191   0.737   3.121   8.222 -2.8023 -0.5283  1.7946
 5852TIP3    H239192   0.805   3.251   8.259 -0.6285 -0.6189 -1.4992
 5853TIP3   OH239193   0.837   1.626   1.768 -0.0826  0.1081 -0.3261
 5853TIP3    H139194   0.838   1.563   1.839 -0.0451  1.6512  1.0943
 5853TIP3    H239195   0.767   1.688   1.792 -0.3623  0.4237 -1.8491
 5854TIP3   OH239196   4.304   0.529   5.683 -0.4930  0.1411 -0.1329
 5854TIP3    H139197   4.327   0.488   5.766  2.3107  0.3073 -0.7122
 5854TIP3    H239198   4.287   0.621   5.705 -0.3102  0.0639  0.3424
 5855TIP3   OH239199   4.844   4.452   7.306 -0.0068  0.1680 -0.3633
 5855TIP3    H139200   4.797   4.392   7.248 -0.4112  0.8517 -0.7525
 5855TIP3    H239201   4.936   4.444   7.280  0.0186 -0.7005 -0.0245
 5856TIP3   OH239202   4.613   0.618   0.532 -0.3267  0.0820  0.3061
 5856TIP3    H139203   4.622   0.620   0.627  0.6803 -1.5612  0.2863
 5856TIP3    H239204   4.668   0.690   0.501  0.2972 -0.1124  0.9293
 5857TIP3   OH239205   0.008   6.446   8.259  0.4202  0.0036  0.1350
 5857TIP3    H139206   0.070   6.505   8.216  0.1214  0.3829  0.2186
 5857TIP3    H239207  -0.048   6.504   8.311  0.8421 -0.4520  1.1258
 5858TIP3   OH239208   2.550   0.175   1.403  0.6407 -0.3794  0.3244
 5858TIP3    H139209   2.482   0.190   1.469 -0.1695 -0.9335 -0.3558
 5858TIP3    H239210   2.631   0.202   1.445 -0.1897  1.8182  0.6066
 5859TIP3   OH239211   0.997   3.587   0.261  0.0589 -0.1036  0.2204
 5859TIP3    H139212   1.015   3.648   0.332  3.3725 -2.4315  1.6453
 5859TIP3    H239213   0.911   3.550   0.283 -0.3946  1.4406  1.2377
 5860TIP3   OH239214   5.625   4.171   2.579  0.1795 -0.3901 -0.0927
 5860TIP3    H139215   5.579   4.183   2.662  1.7763  0.0344  0.7650
 5860TIP3    H239216   5.664   4.084   2.586 -2.4248 -1.8537 -1.8446
 5861TIP3   OH239217   2.108   4.681   7.095 -0.1226  0.5565  0.2499
 5861TIP3    H139218   2.141   4.710   7.181 -0.2602  0.0583  0.4735
 5861TIP3    H239219   2.177   4.705   7.034  2.0078 -2.8386  1.0277
 5862TIP3   OH239220   6.543   5.529   8.346  0.1067 -0.8225 -0.4939
 5862TIP3    H139221   6.474   5.558   8.406  0.7089  0.1698 -0.2562
 5862TIP3    H239222   6.542   5.594   8.275  1.7518  0.0885  0.2477
 5863TIP3   OH239223   4.166   3.185   7.969 -0.1335  0.9852  0.4556
 5863TIP3    H139224   4.130   3.271   7.991 -0.8336  0.1416  2.9896
 5863TIP3    H239225   4.191   3.147   8.053 -0.0911 -1.4055 -0.5358
 5864TIP3   OH239226   5.172   0.895   8.702 -0.8168  0.2570  0.3905
 5864TIP3    H139227   5.177   0.990   8.710 -0.1337  0.1259  1.9522
 5864TIP3    H239228   5.151   0.865   8.791  0.6519 -1.1410  0.3000
 5865TIP3   OH239229   2.290   6.392   1.345  0.1467 -0.6462  0.2256
 5865TIP3    H139230   2.194   6.398   1.347  0.2348  1.2817  0.6771
 5865TIP3    H239231   2.309   6.331   1.274 -1.4102 -1.0600  0.1294
 5866TIP3   OH239232   1.997   1.781   0.209 -0.2977  0.5672  0.1485
 5866TIP3    H139233   2.056   1.781   0.285  0.3268 -1.8268 -0.2467
 5866TIP3    H239234   1.931   1.715   0.229 -0.7181  0.6155 -0.9793
 5867TIP3   OH239235   0.454   2.461   6.791 -0.2206  0.0568  0.4344
 5867TIP3    H139236   0.465   2.526   6.860 -2.6562 -0.0783  1.0252
 5867TIP3    H239237   0.531   2.404   6.800  1.8399  2.5856  0.0819
 5868TIP3   OH239238   1.951   2.554   2.161  0.1737 -0.0925 -0.0220
 5868TIP3    H139239   1.992   2.536   2.076 -0.4368  0.6070 -0.4825
 5868TIP3    H239240   2.007   2.509   2.225  0.3833 -1.0248 -0.8310
 5869TIP3   OH239241   4.129   2.827   2.329 -0.2662  1.0302  0.0519
 5869TIP3    H139242   4.217   2.792   2.342 -0.0821  1.7730  0.9197
 5869TIP3    H239243   4.105   2.800   2.241  1.1657  1.4970 -0.5133
 5870TIP3   OH239244   2.102   2.789   7.454  0.2252 -0.3572  0.6864
 5870TIP3    H139245   2.104   2.698   7.426 -1.3341 -0.1783 -0.1077
 5870TIP3    H239246   2.185   2.826   7.424  0.0983 -1.0688 -0.5858
 5871TIP3   OH239247   4.429   4.107   8.650  0.2595  0.4220  0.3234
 5871TIP3    H139248   4.482   4.027   8.657 -0.6535 -0.2775 -0.4489
 5871TIP3    H239249   4.377   4.108   8.730 -0.8578 -0.6360 -0.3405
 5872TIP3   OH239250   0.979   5.801   6.609  0.7092 -0.0649  0.0686
 5872TIP3    H139251   0.894   5.761   6.588  0.5007  0.7804 -0.7660
 5872TIP3    H239252   1.017   5.822   6.524  1.5722 -0.0435  0.4525
 5873TIP3   OH239253   3.677   6.415   0.461 -0.4752 -1.2096  0.3894
 5873TIP3    H139254   3.697   6.331   0.419 -0.2197 -1.5692  1.1908
 5873TIP3    H239255   3.582   6.422   0.455 -0.4879 -1.5015  0.2097
 5874TIP3   OH239256   3.999   6.231   0.543 -0.9654 -0.0730 -0.0609
 5874TIP3    H139257   3.968   6.165   0.605 -1.6179  0.8623  0.6270
 5874TIP3    H239258   3.983   6.191   0.457  0.2421 -1.5067  0.3379
 5875TIP3   OH239259   3.493   5.864   0.269  0.4176  1.0291 -0.6067
 5875TIP3    H139260   3.442   5.868   0.189  0.8520  0.0643 -0.9461
 5875TIP3    H239261   3.576   5.823   0.243  1.4338  2.6993 -0.0974
 5876TIP3   OH239262   1.740   0.334   7.680 -0.4267 -0.1146  0.0050
 5876TIP3    H139263   1.675   0.265   7.689 -0.3449 -0.1773  0.1124
 5876TIP3    H239264   1.689   0.413   7.660 -0.5919 -0.0251  0.7387
 5877TIP3   OH239265   5.256   1.531   7.719 -0.5078 -0.1276  0.4438
 5877TIP3    H139266   5.252   1.624   7.737 -3.2293 -0.3062  1.2522
 5877TIP3    H239267   5.266   1.490   7.806  1.9932 -0.6220 -0.0011
 5878TIP3   OH239268   3.766   1.669   6.938 -0.2053 -0.0283  0.5037
 5878TIP3    H139269   3.724   1.740   6.889 -0.3822 -2.1006 -2.6574
 5878TIP3    H239270   3.850   1.705   6.965 -0.0838  1.3261 -1.4123
 5879TIP3   OH239271   2.443   6.813   7.249  0.2973 -0.5906  0.7373
 5879TIP3    H139272   2.470   6.875   7.316 -1.6495  0.0973  0.9465
 5879TIP3    H239273   2.431   6.865   7.170  0.7863 -1.0996  0.3087
 5880TIP3   OH239274   6.453   0.493   1.249 -0.3483  0.3633 -0.8331
 5880TIP3    H139275   6.455   0.576   1.296 -1.1818 -0.0364 -0.0798
 5880TIP3    H239276   6.546   0.474   1.232 -0.0562  0.7157  0.2783
 5881TIP3   OH239277   0.933   2.435   0.777  0.6145 -0.0764  0.1847
 5881TIP3    H139278   0.958   2.515   0.824  1.6705  0.0730 -0.5910
 5881TIP3    H239279   1.003   2.422   0.713  0.7799 -1.9579  0.6782
 5882TIP3   OH239280   3.381   5.249   7.084 -0.7084 -0.1932 -0.2322
 5882TIP3    H139281   3.293   5.272   7.111 -0.3779 -0.6933  1.3327
 5882TIP3    H239282   3.439   5.305   7.135 -0.0802 -0.8087 -0.2373
 5883TIP3   OH239283   4.269   2.086   0.296 -0.1847 -0.3288  0.9213
 5883TIP3    H139284   4.296   2.124   0.379 -1.3827  0.9212  0.7713
 5883TIP3    H239285   4.315   2.137   0.230  0.5436 -1.1366  0.7749
 5884TIP3   OH239286   6.435   2.005   8.166 -0.0538 -0.2130  0.8423
 5884TIP3    H139287   6.350   2.049   8.173  0.3781  0.7915  0.0434
 5884TIP3    H239288   6.496   2.075   8.141  0.4994 -1.3805 -1.3588
 5885TIP3   OH239289   3.804   4.360   8.382  0.3489 -0.0997  0.6895
 5885TIP3    H139290   3.724   4.311   8.400 -1.3745  2.6028  1.0224
 5885TIP3    H239291   3.812   4.359   8.287  0.8604 -1.7171  0.7306
 5886TIP3   OH239292   1.215   3.892   7.667 -0.0050  0.3093  0.5629
 5886TIP3    H139293   1.184   3.934   7.587 -1.0583  0.3253  0.9684
 5886TIP3    H239294   1.137   3.880   7.720  0.1422 -2.5722  0.3040
 5887TIP3   OH239295   1.019   1.670   1.004  0.1658 -0.4643 -0.3537
 5887TIP3    H139296   1.084   1.739   0.993  2.5704 -2.4019  0.5968
 5887TIP3    H239297   0.952   1.688   0.938  1.1178  2.2255 -0.6852
 5888TIP3   OH239298   4.442   1.447   1.629  0.2168 -0.7012 -0.7157
 5888TIP3    H139299   4.406   1.536   1.618 -0.3681 -0.4903  2.0482
 5888TIP3    H239300   4.365   1.390   1.627  0.1419 -0.7106  1.0214
 5889TIP3   OH239301   1.811   6.790   7.874 -0.1848 -0.4743 -0.1092
 5889TIP3    H139302   1.800   6.840   7.955  0.4640  0.3341 -0.5050
 5889TIP3    H239303   1.769   6.843   7.807  0.4991 -0.4595 -0.5309
 5890TIP3   OH239304   3.589   6.522   6.836 -0.0713 -0.3666  0.0340
 5890TIP3    H139305   3.606   6.434   6.869  0.4555  0.1208  1.1509
 5890TIP3    H239306   3.537   6.510   6.757 -0.6951 -1.6433  0.6210
 5891TIP3   OH239307   3.636   4.075   0.774  0.5980 -0.1972  0.0072
 5891TIP3    H139308   3.655   3.992   0.818  1.1702 -0.9948 -1.6334
 5891TIP3    H239309   3.574   4.119   0.831  0.3241 -1.7328  0.9589
 5892TIP3   OH239310   5.923   2.917   6.170 -0.0222  0.4515  0.5260
 5892TIP3    H139311   5.997   2.890   6.224  0.6259 -0.7639 -0.9105
 5892TIP3    H239312   5.847   2.877   6.213  0.2111  1.1190  1.6035
 5893TIP3   OH239313   0.928   3.888   6.464  0.2269 -0.5623  0.2673
 5893TIP3    H139314   0.986   3.952   6.423 -1.1714  1.4226  1.2257
 5893TIP3    H239315   0.959   3.804   6.431  1.6630  0.6271 -1.6663
 5894TIP3   OH239316   5.683   3.207   1.053 -0.5254 -0.0601  0.2544
 5894TIP3    H139317   5.725   3.247   0.976 -0.1963  0.9712  0.9353
 5894TIP3    H239318   5.754   3.160   1.097 -0.7331 -0.7237 -0.1052
 5895TIP3   OH239319   3.943   3.832   8.798 -0.3471  0.1734 -0.6736
 5895TIP3    H139320   3.898   3.754   8.767  0.0733  0.2053 -1.3868
 5895TIP3    H239321   3.873   3.889   8.829 -0.6389 -0.5887  0.1054
 5896TIP3   OH239322   1.696   6.049   6.950  0.6093 -0.1408  0.4450
 5896TIP3    H139323   1.769   6.085   6.900  0.9869 -2.6575 -0.9857
 5896TIP3    H239324   1.621   6.057   6.892 -0.2937  2.1749  1.8033
 5897TIP3   OH239325   4.970   3.789   7.928  0.0810  0.2415  0.7223
 5897TIP3    H139326   5.059   3.825   7.928 -0.4691  1.7359 -0.9456
 5897TIP3    H239327   4.924   3.840   7.995 -0.4555  2.1887 -1.0124
 5898TIP3   OH239328   4.910   1.929   7.714  0.5581  0.5257 -0.4196
 5898TIP3    H139329   4.824   1.954   7.681 -0.8568 -2.7815  0.3881
 5898TIP3    H239330   4.961   1.908   7.636  0.0972  0.9004 -0.8289
 5899TIP3   OH239331   6.416   0.397   7.501  0.1012  0.1005  0.4220
 5899TIP3    H139332   6.463   0.318   7.473 -0.8991 -1.1215  2.0691
 5899TIP3    H239333   6.428   0.400   7.596 -1.5094  0.8457  0.6228
 5900TIP3   OH239334   5.444   5.433   8.272 -0.4456 -0.6295  0.0625
 5900TIP3    H139335   5.350   5.418   8.275 -0.3290 -1.2962  0.6833
 5900TIP3    H239336   5.457   5.517   8.316 -0.7352 -0.6510  0.1886
 5901TIP3   OH239337   5.318   6.447   7.228  0.1202  0.3181  0.5540
 5901TIP3    H139338   5.233   6.436   7.187  0.8589 -0.0549 -0.9522
 5901TIP3    H239339   5.332   6.366   7.277  0.0952 -0.1052 -0.1350
 5902TIP3   OH239340   4.677   1.156   7.156 -0.0219  0.5288  0.8702
 5902TIP3    H139341   4.589   1.172   7.190 -0.0499  0.4377  0.8386
 5902TIP3    H239342   4.726   1.119   7.230  0.1330  1.0557  1.0383
 5903TIP3   OH239343   2.687   3.355   0.065 -0.5898  0.0571 -0.0740
 5903TIP3    H139344   2.598   3.372   0.097  0.0977  1.4658  1.2817
 5903TIP3    H239345   2.721   3.442   0.044  0.5831 -0.4265 -0.2463
 5904TIP3   OH239346   2.184   5.053   7.064  0.4123  0.8210 -0.1565
 5904TIP3    H139347   2.136   5.047   6.981  0.2600 -1.1044  0.0296
 5904TIP3    H239348   2.228   4.969   7.072  2.5905  1.9601  0.4525
 5905TIP3   OH239349   5.763   4.946   0.336  0.2192  0.0660  1.3332
 5905TIP3    H139350   5.813   4.873   0.371  0.3620  0.8547  2.8222
 5905TIP3    H239351   5.672   4.915   0.336  0.3957 -0.4660  0.9712
 5906TIP3   OH239352   2.327   2.073   8.159  0.4254  0.0625 -0.2184
 5906TIP3    H139353   2.331   2.168   8.166 -0.3394 -0.0049  1.6635
 5906TIP3    H239354   2.296   2.056   8.071 -2.0905  1.6536  0.2847
 5907TIP3   OH239355   3.854   0.093   8.551 -0.2361  0.0641 -0.3416
 5907TIP3    H139356   3.916   0.166   8.546  2.2291 -1.8789 -0.1482
 5907TIP3    H239357   3.840   0.068   8.460  1.2117 -0.9720 -0.3101
 5908TIP3   OH239358   5.057   0.583   7.346 -0.6938  0.0305 -0.7207
 5908TIP3    H139359   5.013   0.523   7.406  0.3976 -0.6475 -0.5694
 5908TIP3    H239360   4.987   0.636   7.309 -1.3307  0.9997  1.7008
 5909TIP3   OH239361   6.005   5.847   8.396  0.3918 -0.3817  0.0129
 5909TIP3    H139362   5.934   5.860   8.333  0.4880 -0.4234 -0.1043
 5909TIP3    H239363   5.960   5.830   8.479  0.2619  0.9805  0.2453
 5910TIP3   OH239364   0.613   5.798   7.801  0.1175  0.4321  0.2090
 5910TIP3    H139365   0.707   5.781   7.811  0.2871  1.7406  1.1207
 5910TIP3    H239366   0.583   5.734   7.737  1.9984  1.1566 -1.4817
 5911TIP3   OH239367   5.462   0.878   7.817  1.1265 -0.4394 -0.5083
 5911TIP3    H139368   5.441   0.853   7.907  0.1191 -0.0572 -0.6172
 5911TIP3    H239369   5.485   0.971   7.823  0.6833 -0.3114 -0.6819
 5912TIP3   OH239370   5.163   1.145   8.261  0.3941  0.2716 -0.2596
 5912TIP3    H139371   5.175   1.072   8.322  0.7960  0.5443 -0.0037
 5912TIP3    H239372   5.253   1.172   8.239  0.2749 -0.1339 -1.3571
 5913TIP3   OH239373   1.023   0.423   1.643 -0.0877 -0.4355 -0.6146
 5913TIP3    H139374   0.992   0.449   1.730  1.8459 -0.4042  0.1100
 5913TIP3    H239375   1.079   0.495   1.615  1.2517 -1.5004 -0.8040
 5914TIP3   OH239376   4.324   0.119   0.212  0.7308 -0.1730 -0.0240
 5914TIP3    H139377   4.269   0.057   0.163  0.9508 -0.8003  0.5046
 5914TIP3    H239378   4.377   0.161   0.145 -0.3815  0.4468 -0.5466
 5915TIP3   OH239379   0.466   6.107   1.402 -0.0479  0.0511  0.4063
 5915TIP3    H139380   0.429   6.039   1.346 -1.1552  2.2104 -1.6888
 5915TIP3    H239381   0.560   6.094   1.396 -0.1904 -0.5337 -1.0296
 5916TIP3   OH239382   5.722   0.362   7.142 -0.7547  0.3413  0.3131
 5916TIP3    H139383   5.814   0.388   7.150 -0.0356 -2.1589  1.1187
 5916TIP3    H239384   5.709   0.350   7.048  0.1932 -0.6893  0.2992
 5917TIP3   OH239385   0.803   4.722   1.912 -0.0410 -0.2768  0.3874
 5917TIP3    H139386   0.898   4.714   1.908 -0.0086  0.1325  0.2881
 5917TIP3    H239387   0.784   4.804   1.866 -0.4737 -0.5548  0.0610
 5918TIP3   OH239388   4.437   3.186   8.506 -0.4568 -0.3868  0.4011
 5918TIP3    H139389   4.503   3.238   8.551 -0.6619 -0.3880  0.7084
 5918TIP3    H239390   4.431   3.105   8.557 -0.9931 -0.2150  0.6256
 5919TIP3   OH239391   5.335   4.521   1.285 -0.5747 -0.4864 -0.0445
 5919TIP3    H139392   5.257   4.558   1.243  0.3618  1.4007 -0.1899
 5919TIP3    H239393   5.307   4.434   1.313 -2.4621 -0.2099 -0.8997
 5920TIP3   OH239394   5.904   1.705   7.755 -0.4248  0.3892  0.3199
 5920TIP3    H139395   5.978   1.758   7.787 -1.7897  2.1224  0.7387
 5920TIP3    H239396   5.946   1.632   7.710  1.5628  0.5810  1.6894
 5921TIP3   OH239397   1.671   5.081   1.681  0.2516 -0.1118  0.3066
 5921TIP3    H139398   1.745   5.092   1.622  0.4319 -4.5329 -0.6388
 5921TIP3    H239399   1.708   5.094   1.768  1.9518 -1.2644 -0.1970
 5922TIP3   OH239400   2.094   6.653   1.346 -0.5415  0.6065 -0.2453
 5922TIP3    H139401   2.060   6.743   1.341 -1.0698  0.4037 -0.4521
 5922TIP3    H239402   2.067   6.613   1.263  0.1318  0.4021 -0.3726
 5923TIP3   OH239403   5.347   1.528   8.725 -0.0817  0.1092 -0.5080
 5923TIP3    H139404   5.256   1.532   8.696 -0.4096 -0.8844  0.3136
 5923TIP3    H239405   5.342   1.509   8.819  0.9694  0.7286 -0.3112
 5924TIP3   OH239406   2.712   3.825   7.843  0.1742  0.3665  0.0648
 5924TIP3    H139407   2.748   3.883   7.776 -2.4438  0.4328 -1.4380
 5924TIP3    H239408   2.682   3.884   7.913 -2.2862  0.9531 -1.3597
 5925TIP3   OH239409   3.938   1.407   8.837 -0.4759  0.7158 -0.1424
 5925TIP3    H139410   3.997   1.435   8.906 -1.2944 -0.5501  1.1410
 5925TIP3    H239411   3.962   1.316   8.820 -0.2232  1.0280 -1.6383
 5926TIP3   OH239412   5.830   3.584   1.663 -0.4652  0.2097 -0.0237
 5926TIP3    H139413   5.857   3.675   1.675  2.0917 -0.5155  0.1890
 5926TIP3    H239414   5.840   3.544   1.749 -0.4689 -0.5528 -0.3712
 5927TIP3   OH239415   6.284   2.871   1.460 -0.1739  0.0750  0.0926
 5927TIP3    H139416   6.289   2.778   1.437 -2.4619  0.3332 -1.8086
 5927TIP3    H239417   6.353   2.912   1.408 -0.5100 -0.3176 -0.6818
 5928TIP3   OH239418   5.688   3.180   0.379  0.0437 -0.1477 -0.4141
 5928TIP3    H139419   5.781   3.203   0.388  0.1533 -0.9741  0.8053
 5928TIP3    H239420   5.688   3.098   0.329  0.0789 -0.8639  0.7267
 5929TIP3   OH239421   0.635   1.831   0.308 -0.2104  0.3295  0.1288
 5929TIP3    H139422   0.543   1.805   0.314 -0.7278  1.3536 -2.2559
 5929TIP3    H239423   0.680   1.753   0.274 -0.7809  0.6864 -1.5737
 5930TIP3   OH239424   4.512   0.977   2.117  0.5673  0.5461  0.2668
 5930TIP3    H139425   4.554   0.921   2.182 -0.5650 -0.3663  0.2529
 5930TIP3    H239426   4.421   0.985   2.147  0.2342  0.7816 -0.7470
 5931TIP3   OH239427   1.571   2.717   1.958  0.3609  0.0640  0.2128
 5931TIP3    H139428   1.505   2.654   1.985 -0.5671  0.2113 -1.5794
 5931TIP3    H239429   1.629   2.725   2.034 -1.9261  0.3015  2.0425
 5932TIP3   OH239430   4.302   3.372   8.348  0.4931 -0.2130 -0.5490
 5932TIP3    H139431   4.352   3.334   8.421  1.0875 -0.9573 -1.3282
 5932TIP3    H239432   4.280   3.460   8.378  0.7925 -0.4860  0.5053
 5933TIP3   OH239433   2.878   1.861   7.467  0.5742 -0.9901  0.2764
 5933TIP3    H139434   2.834   1.889   7.547  0.1299  1.5543 -0.7627
 5933TIP3    H239435   2.965   1.834   7.497  0.4470 -0.0444  1.6256
 5934TIP3   OH239436   2.479   5.856   2.335  0.7998 -0.7024 -0.3592
 5934TIP3    H139437   2.469   5.933   2.279 -3.0800  0.0584  1.0845
 5934TIP3    H239438   2.478   5.782   2.275 -0.4001  0.1860 -1.4864
 5935TIP3   OH239439   3.827   2.583   7.720  0.0858 -0.0499  0.0459
 5935TIP3    H139440   3.850   2.576   7.813  0.1141  0.3394  0.0699
 5935TIP3    H239441   3.825   2.677   7.703  1.3958 -0.1368 -0.6721
 5936TIP3   OH239442   4.165   1.456   8.513 -0.6472 -0.4384 -0.0163
 5936TIP3    H139443   4.113   1.392   8.464 -1.2730 -0.3157  0.4658
 5936TIP3    H239444   4.250   1.457   8.469 -0.7984 -1.2134 -0.3522
 5937TIP3   OH239445   2.314   2.731   0.312  0.5461 -0.2014  0.1354
 5937TIP3    H139446   2.354   2.646   0.291  0.9368 -0.4855  1.9174
 5937TIP3    H239447   2.386   2.784   0.345  0.0423  0.3689  0.3347
 5938TIP3   OH239448   4.909   1.391   1.437  0.0485  0.1809 -0.2287
 5938TIP3    H139449   4.838   1.445   1.404  0.6859 -0.2408 -2.4219
 5938TIP3    H239450   4.948   1.443   1.508 -0.6594  1.6614 -0.8854
 5939TIP3   OH239451   4.365   5.097   1.803 -0.2624  0.1954 -0.3065
 5939TIP3    H139452   4.377   5.164   1.871 -1.6056  1.0683 -0.8758
 5939TIP3    H239453   4.425   5.123   1.733 -0.0834  0.2626 -0.1271
 5940TIP3   OH239454   5.551   5.293   2.408  0.7714  0.4511 -0.3121
 5940TIP3    H139455   5.512   5.310   2.322  1.7097  1.7675 -0.4940
 5940TIP3    H239456   5.520   5.365   2.462  0.6277 -0.0825  0.3270
 5941TIP3   OH239457   6.574   4.402   1.813 -0.0896 -0.1728 -0.1345
 5941TIP3    H139458   6.632   4.463   1.858 -0.9799  1.5047 -1.1419
 5941TIP3    H239459   6.526   4.358   1.883 -0.4633  1.3787  0.6219
 5942TIP3   OH239460   3.962   4.846   8.264 -0.8343 -0.6404 -0.2202
 5942TIP3    H139461   3.871   4.851   8.292 -0.2325  0.0393  1.7845
 5942TIP3    H239462   4.010   4.898   8.329  0.9218 -0.5138 -1.5447
 5943TIP3   OH239463   2.278   3.158   8.284 -0.1910  0.4343 -0.5423
 5943TIP3    H139464   2.293   3.112   8.367  2.8951 -0.1021 -1.2555
 5943TIP3    H239465   2.198   3.208   8.299 -0.5284 -0.7176  2.2610
 5944TIP3   OH239466   5.136   6.628   0.434  0.2466 -0.0020 -0.7891
 5944TIP3    H139467   5.127   6.553   0.375  0.1025 -0.3452 -0.3375
 5944TIP3    H239468   5.083   6.604   0.511  0.6439  0.3250 -0.4099
 5945TIP3   OH239469   2.575   1.045   8.189  0.0369  0.1408  0.6646
 5945TIP3    H139470   2.602   1.116   8.247  0.0688  0.8897 -0.2452
 5945TIP3    H239471   2.479   1.050   8.189  0.0166 -0.1676  1.0142
 5946TIP3   OH239472   3.721   4.345   0.274 -1.2757 -0.2712 -0.2611
 5946TIP3    H139473   3.674   4.343   0.357  0.2085  0.7459  0.6303
 5946TIP3    H239474   3.741   4.437   0.259 -0.5415 -0.5635 -1.1901
 5947TIP3   OH239475   1.025   0.614   0.877 -0.5574  0.4327  0.5817
 5947TIP3    H139476   1.041   0.673   0.951 -0.7476  0.9168  0.2379
 5947TIP3    H239477   0.992   0.534   0.917  2.2051 -0.4617  1.3174
 5948TIP3   OH239478   6.347   5.763   7.137  0.9405 -0.5503 -0.0280
 5948TIP3    H139479   6.324   5.716   7.057  0.7961 -1.0762  0.3200
 5948TIP3    H239480   6.375   5.849   7.106 -2.3051  0.4913 -0.4715
 5949TIP3   OH239481   5.149   2.521   8.641 -0.4875  0.0272  0.1980
 5949TIP3    H139482   5.098   2.501   8.562  0.2687 -1.2211 -0.0090
 5949TIP3    H239483   5.204   2.596   8.616 -1.7338  0.9682  0.2228
 5950TIP3   OH239484   4.129   2.932   1.514  0.7293 -0.0369 -0.1788
 5950TIP3    H139485   4.078   2.904   1.590  0.3420  1.4468  0.1420
 5950TIP3    H239486   4.171   3.014   1.542 -1.3761  1.8966 -2.2820
 5951TIP3   OH239487   0.659   2.878   8.106  0.8405  0.0049  0.4672
 5951TIP3    H139488   0.569   2.912   8.101  1.0183  0.3355 -0.7621
 5951TIP3    H239489   0.652   2.804   8.166 -0.5370 -0.7908 -0.5953
 5952TIP3   OH239490   6.815   1.965   7.547 -0.4131 -0.2116  0.1785
 5952TIP3    H139491   6.766   1.996   7.623  0.2047  0.2710  0.3852
 5952TIP3    H239492   6.880   1.905   7.584  0.5196  0.7597  0.1506
 5953TIP3   OH239493   4.491   6.575   8.122 -0.0067  0.4398  0.1634
 5953TIP3    H139494   4.461   6.614   8.204 -0.4388 -0.2210  0.3278
 5953TIP3    H239495   4.513   6.650   8.066  0.0890  0.8958  0.8036
 5954TIP3   OH239496   6.220   1.806   1.260 -0.3534  0.5739 -0.3793
 5954TIP3    H139497   6.224   1.835   1.169 -0.3776  2.6385  0.2404
 5954TIP3    H239498   6.166   1.871   1.305 -1.6929 -1.2568  0.8412
 5955TIP3   OH239499   2.978   3.046   0.704  0.4070  0.1297  0.0909
 5955TIP3    H139500   2.956   3.032   0.796  0.1021  0.1216  0.0189
 5955TIP3    H239501   2.999   3.139   0.698  1.6652 -0.1138  0.4144
 5956TIP3   OH239502   0.646   3.781   0.112 -0.3937  0.4259  0.4023
 5956TIP3    H139503   0.697   3.749   0.186 -0.6335  1.1973  0.9271
 5956TIP3    H239504   0.646   3.710   0.049  0.7769  0.1807  0.6673
 5957TIP3   OH239505   1.427   0.301   1.239  0.3687  0.5565  0.5138
 5957TIP3    H139506   1.437   0.251   1.158  0.2472  4.0588 -1.8967
 5957TIP3    H239507   1.474   0.250   1.305  0.6968 -2.3604 -1.7759
 5958TIP3   OH239508   0.355   2.484   0.075  0.0341  0.2486  0.1450
 5958TIP3    H139509   0.300   2.430   0.018 -1.6557  2.0907 -0.0843
 5958TIP3    H239510   0.413   2.530   0.014  1.8325 -1.5526  0.3742
 5959TIP3   OH239511   4.142   1.984   2.317 -0.0963 -0.6983 -0.2886
 5959TIP3    H139512   4.195   1.918   2.361  1.6168 -0.0792 -1.3338
 5959TIP3    H239513   4.179   2.067   2.346 -0.5024 -0.2544 -1.0157
 5960TIP3   OH239514   2.912   3.360   7.955  0.0837  0.0842  0.1253
 5960TIP3    H139515   2.998   3.333   7.988  0.6377 -0.8959 -1.9716
 5960TIP3    H239516   2.915   3.456   7.958  1.0848  0.0605  0.4737
 5961TIP3   OH239517   4.376   0.976   0.208 -0.1042 -0.1656  0.2277
 5961TIP3    H139518   4.409   1.056   0.249  0.8769  0.5773 -1.8514
 5961TIP3    H239519   4.444   0.911   0.224 -1.2562 -0.8863  2.6041
 5962TIP3   OH239520   4.048   3.213   1.178  0.3987 -0.1232 -0.8276
 5962TIP3    H139521   4.087   3.173   1.099 -0.0021 -2.0448 -0.0983
 5962TIP3    H239522   4.033   3.139   1.237 -2.4672  0.8147 -0.2598
 5963TIP3   OH239523   6.818   2.724   8.321 -0.0764  0.5047  0.7120
 5963TIP3    H139524   6.846   2.636   8.347 -0.6435 -0.0942 -0.6138
 5963TIP3    H239525   6.890   2.781   8.346  0.6360 -0.4561  0.8875
 5964TIP3   OH239526   3.772   2.910   1.942  0.8583  0.7788 -0.1236
 5964TIP3    H139527   3.834   2.898   2.014  0.3203 -0.1936  0.1942
 5964TIP3    H239528   3.696   2.856   1.966  0.5924  0.5948 -1.3263
 5965TIP3   OH239529   0.907   4.843   7.017  0.5635 -0.5743  0.0871
 5965TIP3    H139530   0.982   4.846   6.958  1.2188  2.9474  0.8445
 5965TIP3    H239531   0.934   4.787   7.089  0.5598 -3.1929 -1.8346
 5966TIP3   OH239532   0.397   0.617   7.455  0.0458  0.2726  0.0525
 5966TIP3    H139533   0.485   0.602   7.489 -0.0355 -1.7530 -0.5172
 5966TIP3    H239534   0.404   0.698   7.403  0.9210  1.5621  2.0608
 5967TIP3   OH239535   2.450   0.852   6.840 -0.2360  0.1910 -0.4429
 5967TIP3    H139536   2.460   0.796   6.764 -4.4676 -2.3227  0.5107
 5967TIP3    H239537   2.365   0.895   6.827 -0.4127  0.8039  2.1417
 5968TIP3   OH239538   2.229   6.817   7.420 -0.0671 -0.0519  0.6839
 5968TIP3    H139539   2.298   6.784   7.364 -0.8558 -3.7733  1.6237
 5968TIP3    H239540   2.271   6.882   7.475  1.7784  0.3630 -1.1277
 5969TIP3   OH239541   2.826   0.829   8.323  0.4984 -0.3823  0.4166
 5969TIP3    H139542   2.748   0.854   8.373  0.2224  1.3091 -0.7366
 5969TIP3    H239543   2.794   0.821   8.233  0.9524 -3.4597  0.4445
 5970TIP3   OH239544   2.538   5.763   1.729  0.2091 -0.2973 -0.7044
 5970TIP3    H139545   2.445   5.744   1.740  0.1767  0.2689  0.1576
 5970TIP3    H239546   2.541   5.842   1.676  0.2231 -0.6665 -1.2576
 5971TIP3   OH239547   3.615   4.467   7.449 -0.3441  0.0986 -0.0921
 5971TIP3    H139548   3.559   4.536   7.486 -0.3484 -1.5095  3.3034
 5971TIP3    H239549   3.566   4.386   7.465 -0.4009 -0.8194 -4.0716
 5972TIP3   OH239550   0.254   5.819   6.917  0.0577  0.2412 -0.8900
 5972TIP3    H139551   0.312   5.782   6.851 -0.8878  0.5090 -1.8919
 5972TIP3    H239552   0.166   5.801   6.885 -0.4709 -0.9647  1.0368
 5973TIP3   OH239553   1.875   4.475   0.562 -0.1750 -0.6322 -0.4148
 5973TIP3    H139554   1.949   4.473   0.502  1.2012 -0.6633  1.2114
 5973TIP3    H239555   1.840   4.563   0.555  1.9576  0.4158  0.9643
 5974TIP3   OH239556   4.967   0.869   0.091 -0.1483  0.1867  0.0970
 5974TIP3    H139557   4.945   0.912   0.009 -0.0557  1.3328  0.6542
 5974TIP3    H239558   4.911   0.791   0.093 -0.5256  0.4207 -0.8067
 5975TIP3   OH239559   4.695   6.215   1.620  0.2047  1.0532 -0.8522
 5975TIP3    H139560   4.764   6.182   1.678  0.1547  1.2192 -0.6969
 5975TIP3    H239561   4.622   6.155   1.634  0.3147  0.8799 -1.0140
 5976TIP3   OH239562   1.959   5.729   7.465 -0.1155 -0.0121 -0.0738
 5976TIP3    H139563   1.988   5.640   7.446 -0.9685 -0.1119 -1.0251
 5976TIP3    H239564   1.896   5.749   7.396 -1.2271  0.6977  1.0993
 5977TIP3   OH239565   3.675   0.052   7.088 -0.6954  0.4922 -0.0709
 5977TIP3    H139566   3.636   0.027   7.004 -0.5838 -0.6187  0.1884
 5977TIP3    H239567   3.768   0.063   7.069 -0.2748 -1.9138  0.2960
 5978TIP3   OH239568   5.868   4.204   6.328 -0.1786  0.6808  0.0243
 5978TIP3    H139569   5.847   4.279   6.272 -0.5250 -0.1182 -0.9588
 5978TIP3    H239570   5.963   4.197   6.325 -0.2091  0.4351 -0.7944
 5979TIP3   OH239571   3.471   5.274   7.343  0.0110 -0.2958 -0.6424
 5979TIP3    H139572   3.559   5.290   7.376 -0.1112  0.7975 -0.7917
 5979TIP3    H239573   3.417   5.266   7.421 -0.0609  0.9676 -0.5407
 5980TIP3   OH239574   0.735   0.766   1.018 -0.0722  0.0792  0.0286
 5980TIP3    H139575   0.731   0.858   1.043 -1.8019  0.0631 -0.0667
 5980TIP3    H239576   0.773   0.722   1.094  1.7041  0.9660 -0.3012
 5981TIP3   OH239577   2.839   1.074   8.583  0.4274 -0.2304 -0.2266
 5981TIP3    H139578   2.877   1.037   8.662  1.7460 -0.1626 -0.8039
 5981TIP3    H239579   2.786   1.004   8.546  1.2782 -0.8794 -0.2395
 5982TIP3   OH239580   1.624   1.348   0.345  0.0593  0.4024  0.2925
 5982TIP3    H139581   1.668   1.313   0.267 -1.1256 -1.7236  0.4800
 5982TIP3    H239582   1.652   1.290   0.416 -1.3112  0.3351  0.8130
 5983TIP3   OH239583   6.209   6.177   2.586 -0.0453  0.7774  0.3343
 5983TIP3    H139584   6.115   6.188   2.576  0.0640  2.8919  0.9369
 5983TIP3    H239585   6.242   6.161   2.498 -1.0136 -0.5996  0.2069
 5984TIP3   OH239586   2.510   5.779   7.994 -0.3278 -0.1579  0.2340
 5984TIP3    H139587   2.452   5.737   8.057  0.8598 -1.7099  0.3346
 5984TIP3    H239588   2.544   5.708   7.940 -0.0352  0.9471 -1.1007
 5985TIP3   OH239589   3.460   4.738   0.640  0.0283  0.3715 -0.2281
 5985TIP3    H139590   3.549   4.705   0.655  0.2055 -0.2134 -2.2964
 5985TIP3    H239591   3.441   4.789   0.718  2.5486  1.3212 -0.1255
 5986TIP3   OH239592   3.347   5.437   2.041  0.1265 -0.1871 -0.0731
 5986TIP3    H139593   3.329   5.393   2.124 -1.6754  1.2601  0.3780
 5986TIP3    H239594   3.261   5.463   2.008  0.8633 -0.0145 -2.0063
 5987TIP3   OH239595   2.567   5.086   8.268  0.0811 -0.3483 -0.3651
 5987TIP3    H139596   2.509   5.081   8.193  1.5199  0.8941 -1.6309
 5987TIP3    H239597   2.615   5.003   8.267 -1.1614 -1.1160  0.3267
 5988TIP3   OH239598   2.647   5.048   6.810 -0.1388  0.6031 -0.0033
 5988TIP3    H139599   2.602   5.128   6.782 -0.0045  1.4108  1.9581
 5988TIP3    H239600   2.627   4.984   6.741 -1.2732  1.9605 -0.9941
 5989TIP3   OH239601   4.940   6.434   1.161 -0.1369 -0.0293 -0.2575
 5989TIP3    H139602   4.914   6.370   1.228 -2.5528  1.3892  0.2543
 5989TIP3    H239603   4.882   6.417   1.087 -0.4353  1.1862 -0.3214
 5990TIP3   OH239604   4.636   0.332   8.099  0.0240  0.3131 -0.0076
 5990TIP3    H139605   4.565   0.390   8.068 -0.3831  0.3857  1.0256
 5990TIP3    H239606   4.642   0.350   8.193  0.4895 -0.6939  0.1668
 5991TIP3   OH239607   2.593   2.252   1.812 -0.5309  0.0216  0.5465
 5991TIP3    H139608   2.645   2.332   1.804  0.1268 -0.5244 -0.8822
 5991TIP3    H239609   2.657   2.181   1.805 -1.4053 -0.6592 -1.1161
 5992TIP3   OH239610   3.669   4.773   1.617  0.1605 -0.3550 -0.0364
 5992TIP3    H139611   3.715   4.699   1.577 -0.0955 -0.1797 -0.6640
 5992TIP3    H239612   3.576   4.756   1.601 -0.0105 -0.7177  1.2463
 5993TIP3   OH239613   6.551   0.661   7.662  0.4405  0.5365 -0.1729
 5993TIP3    H139614   6.613   0.707   7.719 -0.5787  1.0384  0.5818
 5993TIP3    H239615   6.551   0.712   7.581  1.4842  0.1545 -0.4172
 5994TIP3   OH239616   0.281   0.400   1.756  0.7223  0.1689 -0.2871
 5994TIP3    H139617   0.205   0.439   1.711 -0.1323 -1.8528 -0.7021
 5994TIP3    H239618   0.338   0.474   1.775 -1.4440  1.8033  0.2145
 5995TIP3   OH239619   0.361   1.070   7.703 -0.0129 -0.2028  0.5973
 5995TIP3    H139620   0.330   0.992   7.748  1.9639 -1.0764  0.5104
 5995TIP3    H239621   0.287   1.131   7.709 -1.6389 -2.0688  0.5852
 5996TIP3   OH239622   4.197   0.266   8.521  0.4454 -0.0760  0.4912
 5996TIP3    H139623   4.109   0.304   8.523  0.6015  0.2847  0.5684
 5996TIP3    H239624   4.194   0.196   8.586  0.1870 -0.1276  0.4263
 5997TIP3   OH239625   5.896   5.140   2.051  0.1921 -0.0279  0.0657
 5997TIP3    H139626   5.841   5.105   2.121  0.3981 -1.4260 -0.4288
 5997TIP3    H239627   5.855   5.108   1.970  0.5907  0.6209 -0.4002
 5998TIP3   OH239628   0.405   1.548   7.749 -0.2920 -0.3408  0.0483
 5998TIP3    H139629   0.409   1.620   7.686 -1.6894 -0.1095  0.1909
 5998TIP3    H239630   0.421   1.470   7.697  1.0562  0.0371 -0.1397
 5999TIP3   OH239631   6.508   0.734   1.933  0.4794  0.0514 -0.3307
 5999TIP3    H139632   6.562   0.799   1.977 -1.0484  1.8631 -1.0059
 5999TIP3    H239633   6.503   0.661   1.994  1.6448  0.8418  0.7584
 6000TIP3   OH239634   4.028   3.456   8.775 -0.1339 -0.0413 -0.7680
 6000TIP3    H139635   4.052   3.518   8.845 -0.2061  0.9264 -1.5702
 6000TIP3    H239636   3.943   3.422   8.801  0.0062  0.0382 -0.1968
 6001TIP3   OH239637   1.785   6.165   7.674 -0.0390  0.8154 -0.4413
 6001TIP3    H139638   1.690   6.155   7.680  0.1857 -0.6834  2.1934
 6001TIP3    H239639   1.818   6.077   7.658  0.9787  1.0000  0.5032
 6002TIP3   OH239640   4.047   5.649   7.618 -0.2843  0.6614 -0.6980
 6002TIP3    H139641   4.136   5.624   7.645 -0.7227  0.1817  0.3600
 6002TIP3    H239642   4.057   5.738   7.586  0.1473  1.7581  2.1376
 6003TIP3   OH239643   0.106   1.742   1.869 -0.0197 -0.0852  0.0265
 6003TIP3    H139644   0.176   1.678   1.876  0.4439  0.4942  0.8471
 6003TIP3    H239645   0.150   1.827   1.872 -0.8040  0.3000  1.3223
 6004TIP3   OH239646   1.106   0.746   7.666 -0.2529 -0.1175  0.4061
 6004TIP3    H139647   1.093   0.811   7.597  1.9660 -0.5448 -0.5051
 6004TIP3    H239648   1.040   0.679   7.648  1.0031 -0.8238 -2.1517
 6005TIP3   OH239649   4.167   2.405   8.339  0.3135 -0.6131  0.3122
 6005TIP3    H139650   4.081   2.376   8.370 -0.6889  1.3927 -0.4123
 6005TIP3    H239651   4.224   2.395   8.415 -1.2777  0.8833  1.8120
 6006TIP3   OH239652   6.775   4.101   7.305 -0.0711 -0.6836  0.3214
 6006TIP3    H139653   6.738   4.086   7.218 -0.9994  2.4589  0.0432
 6006TIP3    H239654   6.700   4.130   7.357  1.0719  0.7706  1.2074
 6007TIP3   OH239655   3.334   5.223   8.322  0.1065 -0.4262  0.0211
 6007TIP3    H139656   3.283   5.274   8.259  0.5355 -0.7692 -0.6115
 6007TIP3    H239657   3.270   5.197   8.389 -0.3681 -0.1117 -0.3016
 6008TIP3   OH239658   3.021   5.612   1.622 -0.1688 -0.1904  0.1413
 6008TIP3    H139659   2.993   5.701   1.600  0.2246  0.1227  0.8834
 6008TIP3    H239660   2.941   5.569   1.654 -0.3539 -0.0985 -0.1933
 6009TIP3   OH239661   6.193   3.839   7.697 -0.3815  0.3013 -0.7150
 6009TIP3    H139662   6.170   3.882   7.779  2.4515  2.5035 -0.8959
 6009TIP3    H239663   6.152   3.891   7.629  0.6956  1.0735 -0.8074
 6010TIP3   OH239664   1.311   2.057   1.708  0.1509 -0.3613 -0.5865
 6010TIP3    H139665   1.268   1.995   1.648 -0.3518 -0.4281 -0.1644
 6010TIP3    H239666   1.395   2.076   1.666 -0.5574  0.2873 -1.7752
 6011TIP3   OH239667   2.519   1.148   2.169  0.3098 -0.0545  0.3407
 6011TIP3    H139668   2.615   1.144   2.161  0.2151 -1.3549 -0.4613
 6011TIP3    H239669   2.497   1.238   2.145  1.1838 -0.2986 -1.5703
 6012TIP3   OH239670   6.784   6.732   0.954 -0.1432 -0.5170  0.2418
 6012TIP3    H139671   6.768   6.790   1.028  1.2910 -1.0311  0.9832
 6012TIP3    H239672   6.719   6.760   0.888  0.3303  1.7717  0.6460
 6013TIP3   OH239673   2.199   4.600   1.399 -0.0849 -0.2834  0.2172
 6013TIP3    H139674   2.169   4.681   1.358 -0.0349 -0.4473 -0.1491
 6013TIP3    H239675   2.122   4.566   1.445 -0.5637 -0.8596 -0.9661
 6014TIP3   OH239676   3.767   3.783   8.518 -0.4360  0.4263  0.1344
 6014TIP3    H139677   3.715   3.705   8.539  0.3158  0.1831  1.1970
 6014TIP3    H239678   3.764   3.789   8.422  1.6051 -2.4403 -0.2510
 6015TIP3   OH239679   4.256   6.524   6.511 -0.3915  0.1304 -0.2985
 6015TIP3    H139680   4.314   6.508   6.585 -0.4294 -0.7981 -0.4627
 6015TIP3    H239681   4.274   6.614   6.486  1.2154 -0.2427 -0.5571
 6016TIP3   OH239682   2.018   3.580   7.897 -0.0504  0.2064 -0.0376
 6016TIP3    H139683   1.932   3.544   7.918  0.1081  0.0449  0.3423
 6016TIP3    H239684   2.078   3.536   7.957  0.3979 -0.1696 -0.7467
 6017TIP3   OH239685   3.309   4.219   2.470 -0.1043  0.2577 -0.3556
 6017TIP3    H139686   3.274   4.139   2.431 -0.1422 -0.1438  0.4829
 6017TIP3    H239687   3.233   4.264   2.504  0.0495  0.0139  0.3220
 6018TIP3   OH239688   6.373   5.714   1.177  0.7219 -0.3024 -0.8594
 6018TIP3    H139689   6.383   5.630   1.220  1.0460  0.6325  1.0202
 6018TIP3    H239690   6.343   5.773   1.246  2.1311  1.4937 -1.6644
 6019TIP3   OH239691   1.833   4.526   7.825 -0.1067  0.1946  0.7973
 6019TIP3    H139692   1.772   4.562   7.761 -2.4485 -1.8875  1.6492
 6019TIP3    H239693   1.777   4.479   7.887  2.3844 -2.4676  1.2868
 6020TIP3   OH239694   0.381   5.108   1.107 -0.2696  0.0400  0.5867
 6020TIP3    H139695   0.350   5.192   1.140 -2.2081 -0.1957 -0.4695
 6020TIP3    H239696   0.476   5.112   1.115 -0.2998  2.3965  0.3880
 6021TIP3   OH239697   2.752   3.977   8.184  0.1257  0.3471  0.0447
 6021TIP3    H139698   2.753   3.885   8.213 -1.4187  0.0338 -0.7525
 6021TIP3    H239699   2.714   3.973   8.096  0.1443  1.7521 -0.0385
 6022TIP3   OH239700   3.417   1.552   7.690  0.5407 -0.0826  0.0524
 6022TIP3    H139701   3.443   1.609   7.762  0.2785  0.0944  0.0089
 6022TIP3    H239702   3.500   1.523   7.651  0.6779  0.5438 -0.1371
 6023TIP3   OH239703   3.856   5.156   1.369  0.1797 -0.3433 -0.2004
 6023TIP3    H139704   3.851   5.101   1.448 -1.6023  2.0131  1.4695
 6023TIP3    H239705   3.784   5.125   1.314 -0.8307  0.2536  0.7417
 6024TIP3   OH239706   0.607   5.493   6.368  0.3083 -0.0405 -0.2694
 6024TIP3    H139707   0.529   5.511   6.315  0.8136  0.1544 -0.9635
 6024TIP3    H239708   0.630   5.577   6.408 -0.7457 -0.4179  1.2296
 6025TIP3   OH239709   5.716   0.258   6.489  0.3665  0.4422 -0.0503
 6025TIP3    H139710   5.691   0.208   6.411  2.0701  1.5488 -1.3886
 6025TIP3    H239711   5.811   0.250   6.493  0.5881  2.6563  0.3016
 6026TIP3   OH239712   2.551   6.098   1.629  0.0202 -0.5369 -0.1115
 6026TIP3    H139713   2.633   6.052   1.608  0.1247 -0.2022 -0.4287
 6026TIP3    H239714   2.579   6.178   1.672 -0.1937 -1.4502  1.8533
 6027TIP3   OH239715   3.351   5.935   1.738 -0.3136  0.6028 -0.3095
 6027TIP3    H139716   3.335   5.841   1.735 -1.4062  0.7124  1.0925
 6027TIP3    H239717   3.294   5.971   1.670 -1.3187  0.3980  0.3973
 6028TIP3   OH239718   0.456   4.973   0.294  0.2785  0.0608 -0.1440
 6028TIP3    H139719   0.505   5.013   0.366  0.8821 -0.8297 -0.0444
 6028TIP3    H239720   0.415   4.896   0.333  1.9865 -1.4088 -1.0850
 6029TIP3   OH239721   6.024   3.657   6.827  0.2914  0.2809 -0.4164
 6029TIP3    H139722   6.003   3.590   6.763 -2.8189  1.2318 -0.5712
 6029TIP3    H239723   5.969   3.732   6.802  0.2477  1.2870  2.3374
 6030TIP3   OH239724   1.481   2.615   2.439 -0.0116  0.0131  0.4137
 6030TIP3    H139725   1.507   2.554   2.508  2.1201 -0.9379 -1.1115
 6030TIP3    H239726   1.430   2.562   2.377  1.7147 -0.2651 -0.8376
 6031TIP3   OH239727   1.290   1.224   1.134 -0.2637 -0.3306  0.1806
 6031TIP3    H139728   1.382   1.250   1.142 -0.7603  0.9071  4.2957
 6031TIP3    H239729   1.255   1.282   1.066  1.9109 -0.8065 -1.4449
 6032TIP3   OH239730   5.180   5.576   2.355 -0.9002 -0.0136 -0.7455
 6032TIP3    H139731   5.192   5.505   2.417 -1.7592 -1.3176 -2.0028
 6032TIP3    H239732   5.186   5.656   2.407  0.4464 -0.9714  0.6520
 6033TIP3   OH239733   0.966   1.644   0.230 -0.3013  0.1932  0.4327
 6033TIP3    H139734   0.882   1.628   0.189  0.6499 -0.2366 -1.4410
 6033TIP3    H239735   1.004   1.557   0.241  1.0882  0.5034 -1.4459
 6034TIP3   OH239736   1.545   6.379   1.624  0.5876 -0.2958  0.6306
 6034TIP3    H139737   1.620   6.424   1.663  0.5346  0.1727  0.1977
 6034TIP3    H239738   1.583   6.332   1.549  0.2890  0.7703 -0.2122
 6035TIP3   OH239739   5.200   4.350   7.685  0.0304 -0.3727 -0.2706
 6035TIP3    H139740   5.174   4.394   7.766 -1.9755  0.1744 -1.1610
 6035TIP3    H239741   5.123   4.300   7.659  0.8400 -0.9964 -1.5389
 6036TIP3   OH239742   5.415   0.265   6.569 -0.2844 -0.1960  0.2198
 6036TIP3    H139743   5.324   0.294   6.567 -0.9031 -1.9042  1.2976
 6036TIP3    H239744   5.410   0.172   6.591  1.6795 -0.5967 -0.8089
 6037TIP3   OH239745   0.603   5.482   7.083  0.1385  0.2418  0.3320
 6037TIP3    H139746   0.658   5.560   7.071 -0.2174  0.3536 -0.6595
 6037TIP3    H239747   0.653   5.411   7.043  0.9164 -0.2679  2.1046
 6038TIP3   OH239748   0.191   2.986   0.391  0.2787  0.3107 -0.4780
 6038TIP3    H139749   0.133   2.930   0.442 -1.5478  0.3908 -2.3306
 6038TIP3    H239750   0.168   3.076   0.417 -0.3995  0.3380 -1.1304
 6039TIP3   OH239751   4.276   2.839   1.284 -0.4695  0.8642  0.2447
 6039TIP3    H139752   4.260   2.759   1.334  1.0428 -0.2065 -0.9110
 6039TIP3    H239753   4.257   2.910   1.346 -0.4984 -0.3781  1.7210
 6040TIP3   OH239754   6.513   3.748   7.207 -0.3915 -0.5279 -0.0963
 6040TIP3    H139755   6.575   3.714   7.143  1.4682 -0.0137  1.3315
 6040TIP3    H239756   6.567   3.767   7.284 -1.7086  3.0364  0.1313
 6041TIP3   OH239757   6.044   2.681   7.932  0.7201 -0.0196 -0.1199
 6041TIP3    H139758   6.057   2.696   8.025  0.4225  0.1826 -0.1080
 6041TIP3    H239759   6.055   2.587   7.921  3.3246  0.2569 -0.3151
 6042TIP3   OH239760   0.884   1.371   6.773 -0.4383  0.0062  0.1486
 6042TIP3    H139761   0.892   1.467   6.770 -0.0703 -0.0471 -0.6708
 6042TIP3    H239762   0.932   1.345   6.851 -3.0548  0.7303  2.1584
 6043TIP3   OH239763   2.848   6.310   6.999  0.0612 -0.1407 -0.0168
 6043TIP3    H139764   2.776   6.288   7.058  1.1727  0.5371  1.6550
 6043TIP3    H239765   2.827   6.264   6.917 -2.2352  0.0305  0.4152
 6044TIP3   OH239766   2.924   0.455   1.904 -0.1128  0.9644 -0.5899
 6044TIP3    H139767   2.948   0.518   1.836 -1.4750  0.9566 -1.1117
 6044TIP3    H239768   2.998   0.393   1.906  1.3897  2.6934  0.1410
 6045TIP3   OH239769   6.535   3.594   7.954 -0.6244  0.0317 -0.4010
 6045TIP3    H139770   6.582   3.655   8.011  1.2703 -0.3987 -1.4298
 6045TIP3    H239771   6.477   3.546   8.013 -0.9896  1.7187  0.6675
 6046TIP3   OH239772   1.174   2.294   0.997  0.0710  0.6944 -0.6046
 6046TIP3    H139773   1.136   2.382   1.004 -1.5943  0.0862 -1.4104
 6046TIP3    H239774   1.255   2.298   1.049 -0.1384  2.5947 -0.3647
 6047TIP3   OH239775   3.122   1.653   0.188  0.0507  0.0811  0.6071
 6047TIP3    H139776   3.094   1.570   0.148  0.2697  0.6984 -0.8740
 6047TIP3    H239777   3.043   1.685   0.233 -0.9478  0.5088 -1.3282
 6048TIP3   OH239778   3.110   6.539   8.213  0.2754 -0.3156  0.2451
 6048TIP3    H139779   3.030   6.567   8.258 -1.0057 -2.1075 -0.7599
 6048TIP3    H239780   3.180   6.592   8.252 -0.6457 -1.8509  4.5928
 6049TIP3   OH239781   2.994   5.133   8.091  0.4840  0.3190  0.1206
 6049TIP3    H139782   2.899   5.130   8.099  0.3652 -0.8356 -1.3407
 6049TIP3    H239783   3.013   5.082   8.012  2.4264 -1.1406  1.4235
 6050TIP3   OH239784   2.492   5.644   2.146  0.4203  0.3099 -0.5058
 6050TIP3    H139785   2.454   5.591   2.216  1.5754 -1.1391 -0.9173
 6050TIP3    H239786   2.433   5.632   2.072 -0.4166  1.2776 -0.0315
 6051TIP3   OH239787   2.589   6.802   1.605  0.5271  1.0742  0.3611
 6051TIP3    H139788   2.559   6.805   1.514 -0.8414  0.3060  0.7692
 6051TIP3    H239789   2.675   6.760   1.600 -1.0526 -2.4315 -0.2637
 6052TIP3   OH239790   0.278   0.849   1.668  0.1263 -0.3770  0.3977
 6052TIP3    H139791   0.189   0.819   1.647  0.2052  0.3739 -1.1014
 6052TIP3    H239792   0.275   0.869   1.762 -1.3618 -0.0958  0.3108
 6053TIP3   OH239793   2.062   6.313   8.720  0.1587 -0.3712  0.0931
 6053TIP3    H139794   2.129   6.381   8.713 -0.7546  0.5207 -0.1730
 6053TIP3    H239795   2.024   6.326   8.807 -0.6271  0.0496 -0.3016
 6054TIP3   OH239796   6.069   4.515   8.237  0.1996  0.1638  0.3119
 6054TIP3    H139797   6.036   4.472   8.159 -0.1217 -1.0091  1.0787
 6054TIP3    H239798   6.143   4.461   8.265  0.0275  0.3161  1.0824
 6055TIP3   OH239799   1.485   0.038   0.319 -0.4868 -0.3852  0.4256
 6055TIP3    H139800   1.393   0.047   0.296  0.0375  2.6148 -1.0012
 6055TIP3    H239801   1.532   0.043   0.235  1.0637  1.3654  1.3097
 6056TIP3   OH239802   5.925   3.922   0.206 -0.9596 -0.5915 -0.2985
 6056TIP3    H139803   5.971   3.906   0.288  0.8351 -0.2849 -1.1890
 6056TIP3    H239804   5.938   3.843   0.154 -1.7068 -0.6133 -0.4776
 6057TIP3   OH239805   6.786   3.932   7.071  0.1675 -0.4345  0.6901
 6057TIP3    H139806   6.737   3.850   7.060 -0.9963  0.5212 -2.8568
 6057TIP3    H239807   6.877   3.904   7.083  0.2842 -2.4459 -3.1179
 6058TIP3   OH239808   6.157   1.641   1.522 -0.6330 -0.3031  0.1795
 6058TIP3    H139809   6.068   1.613   1.501 -0.3657 -3.2653  2.3501
 6058TIP3    H239810   6.179   1.592   1.601  2.1663  1.9997  0.9927
 6059TIP3   OH239811   3.358   4.928   1.661 -0.3057  0.4280 -0.0783
 6059TIP3    H139812   3.269   4.958   1.680 -0.5698 -0.2195 -0.2593
 6059TIP3    H239813   3.345   4.845   1.615  0.4119 -0.4090  1.1708
 6060TIP3   OH239814   0.006   1.190   8.486  0.1586 -0.1155 -0.2510
 6060TIP3    H139815   0.028   1.099   8.465 -0.2591  0.2298 -2.4023
 6060TIP3    H239816  -0.071   1.184   8.542  0.3630 -1.0969 -0.0656
 6061TIP3   OH239817   3.518   5.600   2.229 -0.2916  0.2864 -0.0770
 6061TIP3    H139818   3.488   5.510   2.240 -0.0932 -0.4480 -4.0598
 6061TIP3    H239819   3.441   5.653   2.249 -1.4890 -1.0240 -1.0209
 6062TIP3   OH239820   2.723   4.664   8.046  0.5487  0.1630  0.0472
 6062TIP3    H139821   2.660   4.593   8.057  1.4006 -0.3278  2.4024
 6062TIP3    H239822   2.670   4.741   8.027 -0.7254 -0.3816  1.2573
 6063TIP3   OH239823   6.410   1.893   7.545  0.6258  0.1010  0.1078
 6063TIP3    H139824   6.428   1.985   7.565 -1.0353  0.5080 -0.1076
 6063TIP3    H239825   6.323   1.877   7.582  0.6214 -1.1970 -0.4151
 6064TIP3   OH239826   0.443   3.201   7.321  0.0414  0.3149  0.1362
 6064TIP3    H139827   0.354   3.206   7.358 -0.0063 -1.1357  0.2769
 6064TIP3    H239828   0.452   3.282   7.271 -1.1674  0.7370  0.5513
 6065TIP3   OH239829   5.123   3.004   1.107 -0.4995  0.8987 -0.5442
 6065TIP3    H139830   5.188   2.934   1.114 -0.4985  0.9079 -0.4614
 6065TIP3    H239831   5.171   3.078   1.069 -0.2716  1.1531  0.2098
 6066TIP3   OH239832   3.234   2.554   7.848 -0.1630 -0.4231 -0.1994
 6066TIP3    H139833   3.206   2.604   7.925  0.9922  0.0515 -0.0645
 6066TIP3    H239834   3.296   2.490   7.882  0.6884  0.0716 -0.7689
 6067TIP3   OH239835   4.743   6.319   0.990  0.1386 -0.3663  0.0086
 6067TIP3    H139836   4.696   6.334   1.072 -0.2728 -1.7811  0.0494
 6067TIP3    H239837   4.691   6.365   0.924  0.6176  1.0074  0.5483
 6068TIP3   OH239838   5.771   1.151   6.233  0.7328 -0.2027 -0.0310
 6068TIP3    H139839   5.708   1.103   6.287  1.5271  0.6848  1.7811
 6068TIP3    H239840   5.799   1.223   6.289  1.7895  0.6346 -1.5885
 6069TIP3   OH239841   6.479   2.767   7.915  0.0267  0.0589  0.9133
 6069TIP3    H139842   6.516   2.780   7.828  0.1579  0.8045  1.0728
 6069TIP3    H239843   6.540   2.813   7.974  0.9718 -1.9864  1.6270
 6070TIP3   OH239844   0.270   4.302   1.360  0.8125 -0.4188  0.5048
 6070TIP3    H139845   0.230   4.312   1.274 -1.7495  0.6094  1.7264
 6070TIP3    H239846   0.282   4.208   1.370 -1.8432 -0.8689  0.2290
 6071TIP3   OH239847   2.678   2.654   0.970  0.0362  0.1480  0.3359
 6071TIP3    H139848   2.672   2.746   0.993 -0.5688  0.2312 -0.1442
 6071TIP3    H239849   2.772   2.634   0.975 -0.0462  0.0757  3.1370
 6072TIP3   OH239850   1.607   1.059   8.237  0.3953 -0.4389  0.0315
 6072TIP3    H139851   1.558   1.141   8.242 -0.9705 -1.2034 -0.1998
 6072TIP3    H239852   1.646   1.049   8.323 -0.6682 -0.2628  0.5527
 6073TIP3   OH239853   1.826   3.367   7.977  0.3380  0.0065  0.4052
 6073TIP3    H139854   1.885   3.297   8.003 -0.0904 -0.8067 -0.6775
 6073TIP3    H239855   1.768   3.326   7.913  0.7072  1.5967 -1.0336
 6074TIP3   OH239856   1.069   5.269   8.465 -0.1874 -0.1198 -0.2840
 6074TIP3    H139857   1.068   5.206   8.393 -2.6992  2.0618 -2.3789
 6074TIP3    H239858   0.977   5.285   8.484  0.2826  3.1153 -0.1274
 6075TIP3   OH239859   5.704   4.441   0.666 -0.9001 -0.0228 -0.0609
 6075TIP3    H139860   5.740   4.521   0.705  3.4359 -0.6538 -2.1615
 6075TIP3    H239861   5.729   4.372   0.727 -0.5363 -0.2223 -0.4281
 6076TIP3   OH239862   6.020   3.852   0.582  0.0477 -0.1623  0.2546
 6076TIP3    H139863   5.988   3.762   0.582 -0.2972 -0.0500  1.1803
 6076TIP3    H239864   6.079   3.856   0.658  0.7137  0.1721 -0.2674
 6077TIP3   OH239865   2.988   3.979   0.357  0.4607 -0.1235 -0.1249
 6077TIP3    H139866   2.980   4.072   0.381  0.0377 -0.4123  0.9271
 6077TIP3    H239867   3.032   3.939   0.432  0.0107 -0.8947 -0.2580
 6078TIP3   OH239868   1.890   5.949   6.561  0.2945 -0.3642  0.3136
 6078TIP3    H139869   1.885   6.037   6.601 -1.1108  1.3400 -3.1790
 6078TIP3    H239870   1.806   5.908   6.583 -1.6034  1.5570 -2.5839
 6079TIP3   OH239871   1.187   4.738   8.233  0.1756  0.6341 -0.0221
 6079TIP3    H139872   1.254   4.711   8.296  0.2679  0.6775 -0.1017
 6079TIP3    H239873   1.231   4.732   8.148 -0.4809 -1.2535 -0.2907
 6080TIP3   OH239874   3.563   0.790   8.685  0.1395 -0.7548 -0.4690
 6080TIP3    H139875   3.586   0.699   8.702  2.1270  0.0713  1.7482
 6080TIP3    H239876   3.644   0.830   8.656 -0.0787  0.8331  0.9875
 6081TIP3   OH239877   2.535   4.915   7.391  0.2184  0.6882 -0.2730
 6081TIP3    H139878   2.458   4.880   7.437 -0.3570  1.5048 -0.5996
 6081TIP3    H239879   2.503   4.936   7.303  0.9503  0.5366 -0.5831
 6082TIP3   OH239880   1.850   4.271   8.204 -0.0002 -0.1257 -0.5382
 6082TIP3    H139881   1.838   4.177   8.221 -1.1043  0.0666 -0.1905
 6082TIP3    H239882   1.885   4.306   8.286 -2.2250  0.2300  0.3147
 6083TIP3   OH239883   6.440   0.623   8.089 -0.1238  0.0843  0.3226
 6083TIP3    H139884   6.439   0.528   8.094  0.0953  0.0589 -0.1131
 6083TIP3    H239885   6.525   0.645   8.050  0.0265  0.4776  0.8604
 6084TIP3   OH239886   3.248   5.774   0.485  0.3565  0.2782  0.3045
 6084TIP3    H139887   3.342   5.789   0.490  0.3980 -0.3003  1.7837
 6084TIP3    H239888   3.229   5.769   0.391  2.1606 -1.6753 -0.0385
 6085TIP3   OH239889   2.099   6.710   8.457 -0.2515  0.2760  0.0245
 6085TIP3    H139890   2.147   6.630   8.433  0.2893  0.6406 -0.1190
 6085TIP3    H239891   2.150   6.748   8.529 -1.7956 -0.7537  1.7503
 6086TIP3   OH239892   0.335   6.540   0.320  0.2528  0.2444 -0.5531
 6086TIP3    H139893   0.322   6.445   0.329 -1.0850  0.3920 -0.7246
 6086TIP3    H239894   0.290   6.578   0.395 -1.2890  0.8541 -1.7364
 6087TIP3   OH239895   0.779   1.559   8.682 -0.8354  0.2723 -0.0173
 6087TIP3    H139896   0.853   1.618   8.670 -1.2198  0.5790 -1.0159
 6087TIP3    H239897   0.755   1.533   8.593 -0.5238 -1.5902  0.3864
 6088TIP3   OH239898   4.894   6.252   2.443  0.6115 -0.3162  0.0299
 6088TIP3    H139899   4.838   6.309   2.391  0.7985 -1.0341 -0.9761
 6088TIP3    H239900   4.844   6.171   2.453  0.0455  0.2163  2.0482
 6089TIP3   OH239901   3.280   5.102   0.810 -0.5590 -0.0857 -0.3804
 6089TIP3    H139902   3.326   5.161   0.869 -2.0705 -0.3269  1.1151
 6089TIP3    H239903   3.290   5.141   0.723  0.9259  0.7769  0.1495
 6090TIP3   OH239904   5.378   0.431   6.887  0.3655  0.0686 -0.3343
 6090TIP3    H139905   5.374   0.352   6.942  1.4016 -0.3015 -0.7569
 6090TIP3    H239906   5.375   0.504   6.950 -2.5097 -0.2096 -0.0447
 6091TIP3   OH239907   4.719   5.369   7.452  0.0243 -0.2959  0.3075
 6091TIP3    H139908   4.793   5.351   7.510  1.5781  1.1298 -1.1005
 6091TIP3    H239909   4.650   5.400   7.510  1.5022  1.0501  1.4428
 6092TIP3   OH239910   5.077   0.704   7.054 -0.4457 -0.1313  0.1874
 6092TIP3    H139911   5.052   0.612   7.063 -1.4315  0.1590  0.5295
 6092TIP3    H239912   5.167   0.707   7.088  0.6854 -1.4637 -2.3867
 6093TIP3   OH239913   0.228   1.299   0.167  0.4179  0.1565 -0.1597
 6093TIP3    H139914   0.148   1.262   0.204  0.4591 -0.3603 -0.5762
 6093TIP3    H239915   0.226   1.274   0.074  1.2686 -0.2256 -0.0890
 6094TIP3   OH239916   1.634   2.570   8.263 -0.1995 -0.0863 -0.0170
 6094TIP3    H139917   1.548   2.535   8.239 -0.3323 -2.1881  2.9830
 6094TIP3    H239918   1.619   2.617   8.345  1.3225  0.7620 -0.1722
 6095TIP3   OH239919   6.645   1.062   7.714 -0.4743 -0.2103 -0.0428
 6095TIP3    H139920   6.674   1.137   7.767  0.8510 -0.9636  0.3288
 6095TIP3    H239921   6.627   1.099   7.628  1.1107  0.3883 -0.1403
 6096TIP3   OH239922   2.648   1.444   7.572  0.0522  0.1058 -0.0558
 6096TIP3    H139923   2.656   1.488   7.488  0.4754  1.9416  0.9017
 6096TIP3    H239924   2.568   1.392   7.563 -0.2470  0.7362 -1.3876
 6097TIP3   OH239925   0.342   5.543   2.466 -0.6272 -0.0134 -0.1067
 6097TIP3    H139926   0.323   5.515   2.555  0.2302  0.0031  0.0917
 6097TIP3    H239927   0.327   5.637   2.466 -2.4385 -0.2524 -0.4864
 6098TIP3   OH239928   2.800   1.375   7.802  0.3257 -0.4078 -0.3852
 6098TIP3    H139929   2.749   1.404   7.726  2.3232 -0.8146 -1.9700
 6098TIP3    H239930   2.819   1.455   7.850  1.8285  0.3819 -2.1758
 6099TIP3   OH239931   6.792   4.381   1.193  0.2242 -0.2181 -0.0885
 6099TIP3    H139932   6.805   4.319   1.121  0.6849  2.7999 -2.8015
 6099TIP3    H239933   6.876   4.425   1.202 -0.0418 -0.0408  1.8867
 6100TIP3   OH239934   5.272   2.457   1.031  0.4360  0.1796 -0.3819
 6100TIP3    H139935   5.280   2.377   1.084 -0.4292  1.4460  1.8095
 6100TIP3    H239936   5.293   2.429   0.942  0.8902 -2.3220  0.4246
 6101TIP3   OH239937   3.519   4.547   8.475 -0.4827 -0.0318 -0.1125
 6101TIP3    H139938   3.507   4.483   8.545 -2.5647 -0.1621 -0.5237
 6101TIP3    H239939   3.613   4.566   8.476  0.0718 -2.4435  0.5679
 6102TIP3   OH239940   3.581   4.087   6.814  0.3218 -0.1177  0.2656
 6102TIP3    H139941   3.613   4.020   6.873 -2.1568 -0.9738  0.7681
 6102TIP3    H239942   3.509   4.130   6.862 -0.4092  0.5551 -1.3250
 6103TIP3   OH239943   5.384   1.911   0.009 -0.1799 -0.1194  0.2885
 6103TIP3    H139944   5.316   1.846  -0.008 -0.0636 -0.2042  0.1423
 6103TIP3    H239945   5.340   1.995  -0.004  0.1964 -0.1835 -1.6731
 6104TIP3   OH239946   5.896   6.152   8.057 -0.1271  0.7409 -0.9997
 6104TIP3    H139947   5.880   6.208   8.133 -0.4260  0.7112 -1.0403
 6104TIP3    H239948   5.869   6.205   7.982  1.3497  1.2522 -1.1960
 6105TIP3   OH239949   1.437   1.232   6.894 -0.1400 -0.3483  0.1248
 6105TIP3    H139950   1.442   1.143   6.928 -0.1119 -0.7257 -0.8359
 6105TIP3    H239951   1.527   1.254   6.872 -0.2620 -0.4157 -0.4557
 6106TIP3   OH239952   4.239   2.423   8.603  0.3031 -0.9365  0.1691
 6106TIP3    H139953   4.323   2.380   8.619  0.5192 -0.5914 -0.0262
 6106TIP3    H239954   4.238   2.498   8.663  0.0688 -1.0257  0.2794
 6107TIP3   OH239955   5.950   6.700   1.062 -0.3358 -0.0249 -0.2901
 6107TIP3    H139956   5.915   6.611   1.055 -2.2486  0.5858  0.8561
 6107TIP3    H239957   5.978   6.707   1.153 -0.0051  0.5074 -0.4278
 6108TIP3   OH239958   0.072   3.684   8.241  0.4172  0.0371  0.1967
 6108TIP3    H139959   0.162   3.654   8.248  0.9670  1.8725  2.4491
 6108TIP3    H239960   0.020   3.616   8.284  0.6525 -1.1685 -1.3721
 6109TIP3   OH239961   2.509   5.080   8.735 -0.7464  0.1699 -0.6791
 6109TIP3    H139962   2.490   5.060   8.643  2.8139 -0.5184 -1.4141
 6109TIP3    H239963   2.563   5.007   8.765  1.6406  2.3513  0.6676
 6110TIP3   OH239964   0.172   5.812   2.109  0.6342  0.3945 -0.2617
 6110TIP3    H139965   0.097   5.780   2.060  0.4725 -0.5396  0.5693
 6110TIP3    H239966   0.248   5.784   2.059  0.4583  1.3144 -1.0894
 6111TIP3   OH239967   0.810   2.227   8.647 -0.0688  0.5343  0.3027
 6111TIP3    H139968   0.885   2.285   8.631  0.0875  0.2948  0.1583
 6111TIP3    H239969   0.848   2.140   8.652 -0.3366  0.4137  0.2514
 6112TIP3   OH239970   1.797   1.470   1.087  0.0779 -0.4120 -0.2677
 6112TIP3    H139971   1.880   1.505   1.054  0.5542  1.3253  2.4435
 6112TIP3    H239972   1.823   1.396   1.142  0.1760  1.4935  2.4068
 6113TIP3   OH239973   2.757   4.778   0.584 -0.1190 -0.3131 -0.6973
 6113TIP3    H139974   2.699   4.836   0.535 -0.4228 -0.1394 -0.1484
 6113TIP3    H239975   2.768   4.821   0.669 -0.9939 -1.4301  0.0099
 6114TIP3   OH239976   6.450   3.155   0.435 -0.0603  0.0506 -0.2866
 6114TIP3    H139977   6.422   3.119   0.519  1.2863 -1.0902 -0.2914
 6114TIP3    H239978   6.452   3.080   0.376  0.4652  0.5621 -0.9387
 6115TIP3   OH239979   1.061   6.145   8.614  0.1820 -0.5038  0.5449
 6115TIP3    H139980   1.141   6.115   8.570  0.5983 -0.0346  0.9809
 6115TIP3    H239981   1.028   6.215   8.558 -0.1995 -1.0293  0.1018
 6116TIP3   OH239982   2.064   0.179   0.177 -0.5385  0.7007 -0.3131
 6116TIP3    H139983   2.113   0.255   0.144 -0.1733  1.3034  1.5040
 6116TIP3    H239984   2.100   0.163   0.264 -1.4079 -0.8594 -0.2044
 6117TIP3   OH239985   2.929   3.072   8.309 -0.0655  0.1653  0.0537
 6117TIP3    H139986   2.853   3.108   8.263 -0.3830  0.0865  0.5093
 6117TIP3    H239987   2.926   3.114   8.395  0.5733  0.3784 -0.0245
 6118TIP3   OH239988   1.256   5.145   0.310  0.5876  0.8623  0.4124
 6118TIP3    H139989   1.214   5.078   0.256  0.4871  0.1622  1.3465
 6118TIP3    H239990   1.350   5.131   0.297  0.5651  1.1135 -0.0693
 6119TIP3   OH239991   3.679   3.192   0.569  0.3761 -0.0090 -0.8245
 6119TIP3    H139992   3.624   3.116   0.590  1.4759 -0.7410 -0.5069
 6119TIP3    H239993   3.739   3.161   0.502  1.0122  0.5023 -0.5049
 6120TIP3   OH239994   1.922   0.883   7.966  0.4302  0.2052  0.3396
 6120TIP3    H139995   1.906   0.972   7.998 -1.3313 -0.7644  2.4110
 6120TIP3    H239996   1.977   0.843   8.033  1.7538 -0.1185 -0.8990
 6121TIP3   OH239997   3.271   3.818   7.867 -0.3926  0.5674  0.1222
 6121TIP3    H139998   3.347   3.762   7.882 -0.8073  0.3781  1.7916
 6121TIP3    H239999   3.207   3.788   7.932 -1.5160  1.3787 -0.5900
 6122TIP3   OH240000   2.906   3.767   7.261 -0.1838  0.3531  0.5262
 6122TIP3    H140001   2.936   3.718   7.185  0.4110 -1.1098  1.6528
 6122TIP3    H240002   2.987   3.794   7.306 -0.5164  1.5776  0.4332
 6123TIP3   OH240003   5.882   2.776   7.152 -1.0510 -0.0065  0.7471
 6123TIP3    H140004   5.903   2.866   7.174 -1.4464  0.0706  0.8296
 6123TIP3    H240005   5.937   2.755   7.077  1.5371 -0.7877  2.7177
 6124TIP3   OH240006   1.946   6.305   0.276 -1.0285 -0.2175 -0.3063
 6124TIP3    H140007   1.921   6.366   0.206 -1.0435 -0.6917 -0.7206
 6124TIP3    H240008   2.029   6.267   0.246  2.0065  3.4850  2.3418
 6125TIP3   OH240009   0.798   5.146   7.648 -0.2205 -0.3899  0.9335
 6125TIP3    H140010   0.732   5.093   7.604 -1.4665  0.6238  1.4923
 6125TIP3    H240011   0.865   5.084   7.676 -1.0603 -1.4876  0.5627
 6126TIP3   OH240012   0.832   5.081   1.802  0.3294 -0.8531 -0.4566
 6126TIP3    H140013   0.811   5.175   1.800 -1.1803 -1.1592 -0.0965
 6126TIP3    H240014   0.865   5.066   1.890  3.0239 -0.2102 -1.2702
 6127TIP3   OH240015   1.824   4.012   1.489  0.5570 -0.1157 -0.0752
 6127TIP3    H140016   1.888   3.963   1.438 -0.2162 -1.9011  0.5847
 6127TIP3    H240017   1.877   4.074   1.540  1.4429  0.7591 -1.9472
 6128TIP3   OH240018   3.642   0.107   8.102 -0.0333  0.4039 -0.1455
 6128TIP3    H140019   3.706   0.073   8.040 -0.4521 -1.8545  0.5723
 6128TIP3    H240020   3.601   0.181   8.056  0.0453 -0.8314 -2.3464
 6129TIP3   OH240021   5.497   3.622   6.789 -0.8282 -0.1631  0.1069
 6129TIP3    H140022   5.467   3.681   6.858  0.2291  0.7243 -0.1589
 6129TIP3    H240023   5.418   3.599   6.740 -1.4147  0.1177  0.9110
 6130TIP3   OH240024   2.136   2.264   7.418  0.4863  0.1145 -0.2916
 6130TIP3    H140025   2.200   2.201   7.451 -1.3454 -0.9440  1.4809
 6130TIP3    H240026   2.151   2.267   7.324  2.0754 -1.2787 -0.1354
 6131TIP3   OH240027   4.037   4.339   0.098 -0.0898  0.0889 -0.2931
 6131TIP3    H140028   4.016   4.248   0.118 -4.2382  0.8234 -0.3632
 6131TIP3    H240029   4.027   4.385   0.181  0.7907  0.6702 -0.4984
 6132TIP3   OH240030   1.406   4.931   8.415 -0.4487  0.2450  0.5678
 6132TIP3    H140031   1.443   5.004   8.464  0.1239  0.1218  0.3255
 6132TIP3    H240032   1.363   4.971   8.340  1.0347  0.2651 -0.3124
 6133TIP3   OH240033   3.571   6.623   8.196 -0.1674 -0.5993  0.6186
 6133TIP3    H140034   3.650   6.677   8.193 -1.4095  1.3262  1.1128
 6133TIP3    H240035   3.565   6.585   8.108  1.5279 -1.1603  0.7101
 6134TIP3   OH240036   5.352   2.982   1.519 -0.3606  0.5282 -0.1057
 6134TIP3    H140037   5.376   2.976   1.427  0.1579  0.9290  0.0031
 6134TIP3    H240038   5.263   2.946   1.522 -0.7279  1.3280 -0.9059
 6135TIP3   OH240039   0.714   5.192   0.289  0.2905  0.0832  0.0033
 6135TIP3    H140040   0.734   5.142   0.368  0.7617  0.8327  0.3745
 6135TIP3    H240041   0.799   5.219   0.255  0.0309  1.5163  0.4115
 6136TIP3   OH240042   3.329   5.194   6.823  0.6392 -0.2864  0.0249
 6136TIP3    H140043   3.368   5.210   6.908  0.2974  0.1073  0.1109
 6136TIP3    H240044   3.257   5.257   6.817 -0.4424 -1.4467  0.1739
 6137TIP3   OH240045   6.075   6.427   7.499 -0.2581  0.1826  0.4246
 6137TIP3    H140046   6.036   6.340   7.505 -0.0227 -0.0682 -1.1186
 6137TIP3    H240047   6.100   6.449   7.589  0.2618 -1.6160  0.7671
 6138TIP3   OH240048   0.421   2.807   1.516  0.1582 -0.3192 -0.2539
 6138TIP3    H140049   0.453   2.735   1.570  1.0705 -0.7633 -1.3700
 6138TIP3    H240050   0.498   2.840   1.471 -0.4419  0.6211 -0.6256
 6139TIP3   OH240051   2.898   4.947   2.122  0.2884  0.3380 -0.0987
 6139TIP3    H140052   2.971   4.919   2.177 -0.9268  1.5264  2.2698
 6139TIP3    H240053   2.854   4.866   2.097 -0.1629 -0.2369  2.2781
 6140TIP3   OH240054   0.971   4.611   7.181 -0.0476 -0.5326  0.4414
 6140TIP3    H140055   1.059   4.599   7.215  0.5951  0.4260 -0.8312
 6140TIP3    H240056   0.924   4.655   7.252  0.7520 -0.2227  0.7928
 6141TIP3   OH240057   0.705   4.156   1.531 -0.3655 -0.3448 -0.0944
 6141TIP3    H140058   0.662   4.226   1.482 -0.1315  0.4809  0.8382
 6141TIP3    H240059   0.745   4.201   1.606 -1.1391 -1.6121  1.1302
 6142TIP3   OH240060   5.279   5.209   7.316 -0.3288 -0.1358 -0.0130
 6142TIP3    H140061   5.375   5.213   7.310 -0.2317 -0.0974  1.2392
 6142TIP3    H240062   5.256   5.123   7.282  0.0248  0.3529 -1.5467
 6143TIP3   OH240063   0.024   5.875   0.626 -0.2218 -0.1144 -0.2080
 6143TIP3    H140064   0.095   5.813   0.608 -0.8036 -0.7030 -0.5169
 6143TIP3    H240065   0.068   5.960   0.634  0.5178 -0.4734 -0.3735
 6144TIP3   OH240066   6.059   1.011   7.014 -0.8830  0.0987 -0.2609
 6144TIP3    H140067   6.075   1.038   6.923 -1.1486  0.1878 -0.2825
 6144TIP3    H240068   6.109   0.929   7.023 -0.6298  0.2340 -0.4011
 6145TIP3   OH240069   4.589   1.193   0.001  0.0527 -0.0262  0.3235
 6145TIP3    H140070   4.548   1.142  -0.069  0.2869  0.4641 -0.1774
 6145TIP3    H240071   4.653   1.134   0.039  0.9292  0.1579 -0.8162
 6146TIP3   OH240072   2.613   5.833   2.553  0.2936 -0.0753 -0.2108
 6146TIP3    H140073   2.669   5.910   2.552  1.4117 -0.8461  0.2997
 6146TIP3    H240074   2.551   5.847   2.481  0.0487  1.5732  0.2860
 6147TIP3   OH240075   3.608   5.553   0.384  0.5059 -0.1441  0.2392
 6147TIP3    H140076   3.557   5.497   0.443  0.1863  0.0671  0.1712
 6147TIP3    H240077   3.683   5.500   0.358  0.2980 -0.4783  0.3135
 6148TIP3   OH240078   1.453   1.953   7.022 -0.1023  0.4600  0.3489
 6148TIP3    H140079   1.409   1.873   7.050 -1.1276  1.3050  1.2698
 6148TIP3    H240080   1.451   1.950   6.927 -1.3627  0.0514  0.3784
 6149TIP3   OH240081   6.335   4.997   6.485  0.0718  0.1254  0.0475
 6149TIP3    H140082   6.285   5.039   6.555  0.0947 -2.9470  2.1205
 6149TIP3    H240083   6.399   4.943   6.532  1.0052 -1.0225 -2.4166
 6150TIP3   OH240084   6.504   6.748   1.205  0.0993  0.1377  0.7981
 6150TIP3    H140085   6.459   6.790   1.278  0.0186  0.5773  0.5027
 6150TIP3    H240086   6.442   6.684   1.171  0.0155  0.1563  0.9176
 6151TIP3   OH240087   1.389   0.127   6.385 -0.2442  0.1956 -0.5310
 6151TIP3    H140088   1.376   0.041   6.345  0.4687  0.0097 -0.3914
 6151TIP3    H240089   1.396   0.109   6.479 -0.7977  0.4934 -0.4325
 6152TIP3   OH240090   1.648   5.283   7.994 -0.5716 -0.0870 -1.0611
 6152TIP3    H140091   1.698   5.310   8.071 -2.2108 -2.8067  1.1404
 6152TIP3    H240092   1.708   5.224   7.948 -1.0393 -2.0794  0.7103
 6153TIP3   OH240093   3.542   4.474   1.668  0.4783  0.2173  0.8108
 6153TIP3    H140094   3.618   4.418   1.650 -1.1878 -1.5304 -1.4950
 6153TIP3    H240095   3.528   4.465   1.763  2.3116 -0.4868  1.0660
 6154TIP3   OH240096   1.252   1.429   0.523 -0.0887 -0.1925  0.2696
 6154TIP3    H140097   1.286   1.344   0.551  2.1494  0.2930 -0.7440
 6154TIP3    H240098   1.289   1.491   0.586  2.2246  0.5059 -1.6107
 6155TIP3   OH240099   5.665   5.246   8.813  0.4261 -0.0116 -0.0525
 6155TIP3    H140100   5.706   5.171   8.858 -1.0521 -1.2586 -0.6902
 6155TIP3    H240101   5.676   5.227   8.720  2.8015  2.1800 -0.3239
 6156TIP3   OH240102   1.079   1.345   8.192  0.0298  0.4360  0.3474
 6156TIP3    H140103   1.137   1.272   8.215 -1.9722 -0.5162  3.0222
 6156TIP3    H240104   0.993   1.303   8.179 -0.7712  2.1173 -0.0281
 6157TIP3   OH240105   0.673   4.429   8.498 -0.0023 -0.0341  0.1103
 6157TIP3    H140106   0.678   4.341   8.537 -0.9682 -0.0280  0.2702
 6157TIP3    H240107   0.617   4.478   8.557  0.7366  0.7760  0.1510
 6158TIP3   OH240108   4.678   2.927   1.173 -0.2115  0.2871 -0.1534
 6158TIP3    H140109   4.625   2.991   1.126  0.6690 -0.7136 -2.7306
 6158TIP3    H240110   4.762   2.971   1.186 -0.3957  0.4996  0.3358
 6159TIP3   OH240111   1.107   0.887   7.208 -0.2823  0.1306  0.1174
 6159TIP3    H140112   1.175   0.860   7.146  0.7592  0.4536  1.0972
 6159TIP3    H240113   1.095   0.810   7.265  0.0803  0.4660  0.6513
 6160TIP3   OH240114   5.142   3.657   0.095  0.1467  0.1780 -0.2843
 6160TIP3    H140115   5.085   3.666   0.018 -0.5547 -1.6361 -0.0265
 6160TIP3    H240116   5.177   3.568   0.089 -0.0202 -0.0585  1.5263
 6161TIP3   OH240117   2.405   5.058   8.483 -0.1759  0.0706 -0.7750
 6161TIP3    H140118   2.476   5.075   8.421 -1.0295  0.1566 -1.7606
 6161TIP3    H240119   2.383   4.966   8.469  1.7438 -0.8714  1.6973
 6162TIP3   OH240120   5.044   5.775   8.735 -0.4670  0.3284  0.2188
 6162TIP3    H140121   5.117   5.746   8.680 -0.0116 -1.5053  1.7129
 6162TIP3    H240122   4.972   5.791   8.673  0.0343 -1.6330 -0.9518
 6163TIP3   OH240123   3.329   2.183   8.533  0.0562 -0.0079  0.2751
 6163TIP3    H140124   3.330   2.277   8.514 -0.3025  0.3005  1.7140
 6163TIP3    H240125   3.296   2.143   8.453 -1.9240  1.2816  0.3723
 6164TIP3   OH240126   3.896   0.980   0.865 -0.3074 -0.5221 -0.4502
 6164TIP3    H140127   3.883   0.888   0.841  1.9424 -0.6373 -1.4363
 6164TIP3    H240128   3.936   1.020   0.788  0.6690  0.7944  0.6836
 6165TIP3   OH240129   2.279   0.499   7.931  0.2724 -0.6811  0.2162
 6165TIP3    H140130   2.210   0.461   7.986  0.1231 -2.2798 -0.9980
 6165TIP3    H240131   2.232   0.542   7.860  0.4982 -0.9444 -0.0965
 6166TIP3   OH240132   4.926   6.095   1.770 -0.7037  0.2124  0.2145
 6166TIP3    H140133   4.869   6.139   1.833 -0.6032  0.6698 -0.0111
 6166TIP3    H240134   4.871   6.026   1.732 -0.9164  0.2544  0.4406
 6167TIP3   OH240135   4.385   3.998   7.631 -0.0837 -0.0739  0.3641
 6167TIP3    H140136   4.479   3.997   7.610 -0.2031  0.0783 -0.1939
 6167TIP3    H240137   4.349   3.926   7.579 -0.4767  0.6593 -0.4049
 6168TIP3   OH240138   5.518   0.486   1.827 -0.0215  0.0223 -0.3938
 6168TIP3    H140139   5.526   0.582   1.831  1.5759 -0.0759 -0.5800
 6168TIP3    H240140   5.448   0.465   1.889  0.4833  1.2147  0.6255
 6169TIP3   OH240141   0.967   2.589   1.749 -0.0204 -0.2658 -0.1160
 6169TIP3    H140142   0.905   2.517   1.741  1.1013 -1.3910  0.7909
 6169TIP3    H240143   1.005   2.598   1.662 -2.1068  1.1278 -0.9629
 6170TIP3   OH240144   2.668   2.905   8.217 -0.2129 -0.9249 -0.6823
 6170TIP3    H140145   2.699   2.968   8.151  1.1964 -0.4300  0.3927
 6170TIP3    H240146   2.657   2.957   8.296 -1.2891 -1.6218 -0.3588
 6171TIP3   OH240147   4.954   1.236   1.741  0.0560 -0.3016  0.4044
 6171TIP3    H140148   4.903   1.266   1.666 -0.0939 -2.3442 -0.3796
 6171TIP3    H240149   4.948   1.140   1.738  2.8918 -0.6015  1.0096
 6172TIP3   OH240150   0.330   3.396   1.806 -0.4847 -0.0847  0.7384
 6172TIP3    H140151   0.394   3.450   1.760 -1.1152  1.2963  1.4186
 6172TIP3    H240152   0.288   3.344   1.737 -0.1552  0.6064  0.0051
 6173TIP3   OH240153   5.010   3.174   1.463 -0.3883 -0.7012 -0.1528
 6173TIP3    H140154   5.078   3.109   1.480 -1.8455 -1.8488  1.7895
 6173TIP3    H240155   5.055   3.258   1.466  1.0342 -1.4523  0.3678
 6174TIP3   OH240156   4.494   4.918   0.287 -0.8365  0.7652  0.9033
 6174TIP3    H140157   4.511   4.952   0.199  0.8484  1.0504  1.3077
 6174TIP3    H240158   4.558   4.849   0.300 -1.9342 -0.1974  1.4358
 6175TIP3   OH240159   0.721   1.104   7.393 -0.3739 -0.1098  0.1601
 6175TIP3    H140160   0.664   1.037   7.356  2.0271 -2.5673  0.6354
 6175TIP3    H240161   0.700   1.105   7.487 -1.2861  0.8007 -0.0278
 6176TIP3   OH240162   0.813   0.414   0.179  0.1444  0.5557 -0.4021
 6176TIP3    H140163   0.734   0.387   0.224 -0.1732  0.2009 -1.1465
 6176TIP3    H240164   0.808   0.510   0.175  0.6414  0.6753  1.1112
 6177TIP3   OH240165   2.284   5.519   7.852 -0.1932  0.3480  0.9041
 6177TIP3    H140166   2.379   5.527   7.844  0.0272 -2.2394 -0.3383
 6177TIP3    H240167   2.270   5.462   7.928 -0.5662 -1.1403 -0.2293
 6178TIP3   OH240168   3.483   3.957   6.583  0.1025 -0.0970  0.1962
 6178TIP3    H140169   3.513   4.046   6.563  1.3467 -0.0870  1.8906
 6178TIP3    H240170   3.560   3.913   6.619  0.0153 -2.4735 -2.1915
 6179TIP3   OH240171   2.507   5.607   0.961  0.0418  0.5069 -0.3767
 6179TIP3    H140172   2.455   5.684   0.936  0.6083  1.7378  1.9875
 6179TIP3    H240173   2.499   5.602   1.056  1.3357 -1.4365 -0.3112
 6180TIP3   OH240174   4.556   5.236   8.717  0.0996  0.1305  0.0159
 6180TIP3    H140175   4.580   5.300   8.784 -1.1103  1.9419 -1.1671
 6180TIP3    H240176   4.558   5.286   8.635 -1.9221 -1.0611 -0.8510
 6181TIP3   OH240177   1.706   3.897   7.504  0.3480 -0.2262 -0.4246
 6181TIP3    H140178   1.734   3.968   7.446 -1.1306  0.2369 -0.6316
 6181TIP3    H240179   1.649   3.940   7.568  1.1602 -0.8968  0.7888
 6182TIP3   OH240180   3.205   0.778   0.110  0.9337 -0.1792  0.1607
 6182TIP3    H140181   3.214   0.718   0.037 -1.9125  1.0299 -1.3346
 6182TIP3    H240182   3.260   0.853   0.087  1.6992 -0.6633  0.3467
 6183TIP3   OH240183   1.743   1.128   0.465 -0.1068 -0.0475 -0.4994
 6183TIP3    H140184   1.719   1.105   0.555  1.1531 -0.7567 -0.3182
 6183TIP3    H240185   1.838   1.119   0.463 -0.0985  0.1617 -1.8560
 6184TIP3   OH240186   0.106   4.978   0.516  0.3179 -0.0696  0.4416
 6184TIP3    H140187   0.093   4.942   0.604 -2.5039 -0.7338 -0.1500
 6184TIP3    H240188   0.064   5.064   0.519  0.0830 -0.1503 -0.2530
 6185TIP3   OH240189   5.586   2.115   8.075  0.0345 -0.1458 -0.3369
 6185TIP3    H140190   5.663   2.059   8.064  1.1249  1.2561 -0.1380
 6185TIP3    H240191   5.598   2.156   8.161 -2.6225 -2.3309  1.2631
 6186TIP3   OH240192   3.597   1.818   6.749 -0.6399  0.3751 -0.1975
 6186TIP3    H140193   3.539   1.893   6.764  0.2824  0.8282  1.3870
 6186TIP3    H240194   3.660   1.849   6.685 -2.6097 -0.4303 -2.6908
 6187TIP3   OH240195   0.734   5.985   1.740 -0.1393  0.0456  0.1315
 6187TIP3    H140196   0.731   5.971   1.835  0.7574  0.7814  0.2837
 6187TIP3    H240197   0.736   5.897   1.703  1.1016 -0.2563  0.8639
 6188TIP3   OH240198   3.628   6.009   7.537 -0.3639 -0.1244  0.0551
 6188TIP3    H140199   3.534   5.994   7.538 -0.2638 -0.7702  1.0124
 6188TIP3    H240200   3.641   6.078   7.472 -1.5210  0.1594  0.1076
 6189TIP3   OH240201   6.544   4.439   0.668  0.4456  0.2841  0.5149
 6189TIP3    H140202   6.542   4.345   0.655  1.7079 -0.2334  3.1879
 6189TIP3    H240203   6.475   4.456   0.733  0.1282  1.2289 -0.0514
 6190TIP3   OH240204   3.183   1.850   7.224  0.2155  0.5441 -0.0485
 6190TIP3    H140205   3.114   1.788   7.248  0.5220  0.1943 -0.0705
 6190TIP3    H240206   3.147   1.897   7.148 -1.1495  2.2836  1.5551
 6191TIP3   OH240207   2.285   4.849   7.974 -0.3134 -0.1546 -0.5321
 6191TIP3    H140208   2.258   4.896   8.053 -0.2806  0.9442 -1.1669
 6191TIP3    H240209   2.377   4.873   7.962 -0.2791 -0.4236 -0.8330
 6192TIP3   OH240210   5.796   6.559   7.618  0.7786 -0.1089 -0.0204
 6192TIP3    H140211   5.757   6.639   7.653  1.8093  0.6848 -0.6135
 6192TIP3    H240212   5.848   6.525   7.691  0.4731 -0.1451  0.1814
 6193TIP3   OH240213   1.158   6.392   1.847 -0.1957  0.4394 -0.1497
 6193TIP3    H140214   1.070   6.426   1.832 -0.7997  0.7086  3.2089
 6193TIP3    H240215   1.144   6.301   1.873  0.7201 -0.0500 -1.2660
 6194TIP3   OH240216   6.453   4.727   2.367 -0.1965  0.5420  0.0597
 6194TIP3    H140217   6.430   4.790   2.436 -2.4094  0.2026 -0.2869
 6194TIP3    H240218   6.437   4.641   2.406  2.0147  0.1691  0.2560
 6195TIP3   OH240219   0.080   6.211   7.888  0.5938 -0.2728 -0.1519
 6195TIP3    H140220   0.029   6.291   7.880 -0.1598 -0.4695  2.0047
 6195TIP3    H240221   0.169   6.240   7.904  0.6901  0.0860 -1.2418
 6196TIP3   OH240222   0.772   6.847   7.578 -0.2253 -0.3970 -0.8889
 6196TIP3    H140223   0.693   6.876   7.533  1.0823  1.6045 -2.0768
 6196TIP3    H240224   0.843   6.872   7.519  1.4920  0.5510  1.4382
 6197TIP3   OH240225   1.137   3.481   2.564  0.0162  0.1838 -0.5437
 6197TIP3    H140226   1.178   3.468   2.650 -0.4724 -0.8662 -0.4550
 6197TIP3    H240227   1.061   3.422   2.564 -1.0673  1.5313 -0.9962
 6198TIP3   OH240228   1.209   6.042   7.685 -0.0375  0.0502 -0.0364
 6198TIP3    H140229   1.196   6.030   7.591  0.3543 -0.1389 -0.0675
 6198TIP3    H240230   1.252   6.127   7.692  0.8740 -0.3873 -0.1099
 6199TIP3   OH240231   0.876   4.405   8.195  0.0686  0.3539 -0.1363
 6199TIP3    H140232   0.933   4.336   8.160 -0.4444 -0.1933  0.0824
 6199TIP3    H240233   0.843   4.369   8.278  2.1254  2.0666  1.5312
 6200TIP3   OH240234   6.173   4.075   7.201 -0.1709  0.1033  0.0217
 6200TIP3    H140235   6.134   4.103   7.118 -0.4132  2.3857  0.8391
 6200TIP3    H240236   6.098   4.050   7.255 -0.1237  0.0377  0.0567
 6201TIP3   OH240237   0.099   0.441   0.234 -0.0762  0.4449 -0.2862
 6201TIP3    H140238   0.038   0.509   0.261  1.7253  2.4557 -1.0607
 6201TIP3    H240239   0.146   0.417   0.314 -1.3379 -0.6166  0.1721
 6202TIP3   OH240240   0.933   2.264   0.547 -0.7725  0.2469 -0.6432
 6202TIP3    H140241   0.993   2.339   0.542 -0.5185  0.0767 -0.1888
 6202TIP3    H240242   0.972   2.206   0.612 -1.2217 -0.0574 -0.6406
 6203TIP3   OH240243   5.968   1.950   0.900 -0.2132 -0.7266 -0.0499
 6203TIP3    H140244   5.885   1.939   0.947 -0.1808  2.9662  1.2159
 6203TIP3    H240245   5.946   2.007   0.826  1.0762 -0.0475  0.0621
 6204TIP3   OH240246   2.207   3.722   2.055 -0.2951 -0.0660  0.3766
 6204TIP3    H140247   2.174   3.666   1.985  0.9190 -0.2594 -0.0573
 6204TIP3    H240248   2.203   3.811   2.018  1.3428 -0.2735 -0.3610
 6205TIP3   OH240249   6.578   5.399   0.804 -0.1658  0.0878 -0.0091
 6205TIP3    H140250   6.567   5.305   0.814  1.2118 -0.0474  0.4891
 6205TIP3    H240251   6.578   5.414   0.709 -0.0482 -0.4542 -0.0942
 6206TIP3   OH240252   6.182   5.996   8.584  0.1294 -0.3364  0.3090
 6206TIP3    H140253   6.270   5.962   8.593  0.1117 -0.2100  1.0449
 6206TIP3    H240254   6.125   5.927   8.619  0.2136  1.1432  3.8615
 6207TIP3   OH240255   0.924   1.648   6.834  0.0147  0.4738  0.3216
 6207TIP3    H140256   1.010   1.690   6.822  0.3676 -0.3041  0.0694
 6207TIP3    H240257   0.862   1.707   6.791  0.5763  0.4595 -0.5249
 6208TIP3   OH240258   6.331   0.085   7.217  0.3162 -0.1764 -0.5233
 6208TIP3    H140259   6.325   0.180   7.214 -0.8030 -0.2418 -0.7897
 6208TIP3    H240260   6.420   0.066   7.187  0.3255  0.7539 -1.1519
 6209TIP3   OH240261   0.876   5.943   7.184 -0.2259 -0.3537  0.1739
 6209TIP3    H140262   0.791   5.986   7.189 -0.9829 -1.8111  0.3234
 6209TIP3    H240263   0.894   5.915   7.273  0.9598  0.9072  0.3594
 6210TIP3   OH240264   5.073   2.121   7.817  0.1129 -0.6897 -0.2268
 6210TIP3    H140265   5.010   2.049   7.810  0.2144 -0.8877  0.7425
 6210TIP3    H240266   5.157   2.081   7.793  0.0370 -0.6754 -0.5249
 6211TIP3   OH240267   1.514   4.074   8.736 -0.2487 -0.5605 -0.5712
 6211TIP3    H140268   1.588   4.109   8.785 -0.4788 -0.0683 -0.5675
 6211TIP3    H240269   1.459   4.034   8.803  0.3410 -1.5325 -0.6555
 6212TIP3   OH240270   2.170   5.769   7.809 -0.0324 -0.3141  0.6929
 6212TIP3    H140271   2.238   5.814   7.759 -1.1592 -0.4106 -1.0176
 6212TIP3    H240272   2.199   5.678   7.814 -1.0697 -0.8825 -2.1008
 6213TIP3   OH240273   2.373   3.157   0.353  0.2871  0.5029  0.4774
 6213TIP3    H140274   2.446   3.112   0.309 -0.3221  0.3755 -0.4332
 6213TIP3    H240275   2.343   3.095   0.419 -0.4685 -0.4092 -0.6885
 6214TIP3   OH240276   4.075   6.333   1.141  0.2963  0.3191 -0.3584
 6214TIP3    H140277   4.056   6.255   1.090  0.2734  0.5031 -0.6288
 6214TIP3    H240278   4.137   6.303   1.208  0.8786  0.2303 -0.9251
 6215TIP3   OH240279   2.636   2.979   1.641 -0.0218  0.3713  0.0578
 6215TIP3    H140280   2.646   2.925   1.562 -0.2002 -0.3672  0.5299
 6215TIP3    H240281   2.667   2.923   1.712  0.3859  1.1305  0.4866
 6216TIP3   OH240282   1.420   5.124   0.702  0.0194 -0.3370 -0.0393
 6216TIP3    H140283   1.436   5.120   0.796 -0.1048 -0.3952 -0.0197
 6216TIP3    H240284   1.450   5.210   0.676 -0.4568 -0.1062  0.1520
 6217TIP3   OH240285   5.315   0.514   8.650  0.1645 -0.5118  0.0300
 6217TIP3    H140286   5.255   0.589   8.646  1.5273  0.6103  0.0157
 6217TIP3    H240287   5.320   0.482   8.560  1.0004  0.5601 -0.3223
 6218TIP3   OH240288   0.101   6.163   2.196 -0.1148 -0.2547  0.0388
 6218TIP3    H140289   0.038   6.113   2.144 -0.2659 -0.8985  0.8119
 6218TIP3    H240290   0.187   6.131   2.167 -0.2152 -1.2443  0.7631
 6219TIP3   OH240291   0.700   6.310   6.754 -0.5872  0.0238  0.4969
 6219TIP3    H140292   0.750   6.274   6.680  1.3076 -0.2545  1.8429
 6219TIP3    H240293   0.609   6.291   6.732  0.0146 -1.2935 -1.1206
 6220TIP3   OH240294   2.143   0.291   2.027 -0.2487  0.1954  0.1503
 6220TIP3    H140295   2.053   0.264   2.041 -0.1501  0.5115  1.5506
 6220TIP3    H240296   2.195   0.229   2.078  0.3815 -0.3794 -1.1621
 6221TIP3   OH240297   4.615   6.411   1.264 -0.2140  0.0146 -0.8969
 6221TIP3    H140298   4.685   6.439   1.324 -2.5505  1.5813  1.3273
 6221TIP3    H240299   4.570   6.492   1.241 -1.1586 -0.9277 -2.4673
 6222TIP3   OH240300   6.700   3.667   2.666  0.7591 -0.2777  0.0325
 6222TIP3    H140301   6.640   3.622   2.725 -0.4290 -0.6082 -1.3522
 6222TIP3    H240302   6.692   3.619   2.583  1.9421  0.5004 -0.5648
 6223TIP3   OH240303   0.371   0.035   1.484 -0.0004 -0.3730 -0.1662
 6223TIP3    H140304   0.464   0.055   1.476  0.0763 -0.0000  1.3138
 6223TIP3    H240305   0.337   0.101   1.544 -1.6824  0.7688 -2.2331
 6224TIP3   OH240306   4.285   0.872   1.197 -0.4228 -0.3286  0.0938
 6224TIP3    H140307   4.324   0.811   1.134 -0.5095 -0.8390  0.5301
 6224TIP3    H240308   4.358   0.896   1.254 -0.6822 -1.0765  0.7477
 6225TIP3   OH240309   3.279   4.112   6.731  0.3453 -0.5219  0.5914
 6225TIP3    H140310   3.217   4.155   6.671 -1.4494 -0.0096  2.7037
 6225TIP3    H240311   3.327   4.051   6.675 -2.2252 -1.1268 -1.1665
 6226TIP3   OH240312   6.562   5.372   0.504 -0.7798  0.5664  0.3219
 6226TIP3    H140313   6.616   5.401   0.431 -1.1214  2.7547  0.8662
 6226TIP3    H240314   6.481   5.343   0.464  1.1953 -4.5538 -0.7120
 6227TIP3   OH240315   4.548   3.579   8.659 -0.1863 -0.0358  1.7576
 6227TIP3    H140316   4.610   3.506   8.670  1.8117  1.0202 -1.2178
 6227TIP3    H240317   4.463   3.537   8.652  0.9781 -2.3343 -0.8147
 6228TIP3   OH240318   2.496   5.973   0.670  0.0057 -0.2536  0.0331
 6228TIP3    H140319   2.491   6.068   0.661 -0.4103 -0.1150  1.5601
 6228TIP3    H240320   2.501   5.941   0.580  0.7090  1.2344 -0.4942
 6229TIP3   OH240321   1.888   0.793   8.697  0.1456 -0.7285 -0.0601
 6229TIP3    H140322   1.809   0.834   8.732  0.7351 -2.3848  3.7017
 6229TIP3    H240323   1.960   0.836   8.742  1.0662 -2.2716  0.0288
 6230TIP3   OH240324   2.690   6.723   7.208 -0.0543  0.1202 -0.4382
 6230TIP3    H140325   2.690   6.629   7.191  0.0713 -0.6705  3.1613
 6230TIP3    H240326   2.597   6.747   7.209 -0.3543 -0.8778  2.3894
 6231TIP3   OH240327   1.481   0.152   6.950  0.2765  0.9077  0.6639
 6231TIP3    H140328   1.494   0.065   6.911  1.8062  2.5102 -2.8760
 6231TIP3    H240329   1.411   0.191   6.898  0.9575  2.4487  0.8571
 6232TIP3   OH240330   1.313   2.712   1.417  0.1552  0.4768 -0.1252
 6232TIP3    H140331   1.258   2.645   1.456  0.2154  0.1261 -0.6309
 6232TIP3    H240332   1.271   2.795   1.440 -0.0687  0.2522  0.2708
 6233TIP3   OH240333   4.349   6.403   7.390 -0.4663  0.2386 -0.3285
 6233TIP3    H140334   4.375   6.485   7.433 -0.1976  0.8585 -1.6220
 6233TIP3    H240335   4.358   6.421   7.296 -1.5588 -0.9008 -0.6753
 6234TIP3   OH240336   4.212   4.366   8.682  0.0324 -0.2337 -0.3781
 6234TIP3    H140337   4.152   4.352   8.755  2.4480 -0.8188  1.6221
 6234TIP3    H240338   4.262   4.285   8.675  1.1643  0.5100 -1.4042
 6235TIP3   OH240339   2.162   0.713   7.051  0.0231  0.0265 -0.1285
 6235TIP3    H140340   2.091   0.774   7.029  0.9661  0.5775 -1.8305
 6235TIP3    H240341   2.157   0.645   6.984  0.9289 -0.0787 -0.1006
 6236TIP3   OH240342   0.206   1.003   8.479  0.1709 -0.1493  0.7959
 6236TIP3    H140343   0.154   0.935   8.437 -0.3755  0.1268  1.0171
 6236TIP3    H240344   0.240   1.055   8.407  0.4881 -0.5825  0.6317
 6237TIP3   OH240345   5.758   4.222   8.108 -0.5385 -0.7741 -0.1868
 6237TIP3    H140346   5.757   4.239   8.014  0.6676  0.7080  0.0292
 6237TIP3    H240347   5.754   4.309   8.148  0.3823 -1.2943  1.1071
 6238TIP3   OH240348   6.540   3.762   8.614  0.8627 -0.1376  0.4062
 6238TIP3    H140349   6.502   3.802   8.692 -1.5289  1.1455 -1.2873
 6238TIP3    H240350   6.482   3.789   8.542  2.0733 -2.4813 -1.6118
 6239TIP3   OH240351   2.284   3.070   7.683 -0.2312  0.3504 -0.3647
 6239TIP3    H140352   2.284   3.050   7.589 -0.9008  0.7274 -0.4545
 6239TIP3    H240353   2.296   3.164   7.687  0.7978  0.2081 -0.0251
 6240TIP3   OH240354   2.052   0.993   7.045 -0.4773  0.1105  0.4339
 6240TIP3    H140355   2.117   0.974   6.977 -0.7957 -0.3985  0.2663
 6240TIP3    H240356   2.044   1.089   7.043  0.5981  0.2190  0.7805
 6241TIP3   OH240357   0.726   6.058   1.342 -0.1307  0.7321 -0.6268
 6241TIP3    H140358   0.774   6.108   1.407 -0.6934  0.6836 -0.1607
 6241TIP3    H240359   0.754   6.094   1.258  0.4195  0.9609 -0.3517
 6242TIP3   OH240360   3.477   4.857   0.871  0.7123  0.5225  0.7349
 6242TIP3    H140361   3.451   4.940   0.911  0.0800  1.7091 -1.9465
 6242TIP3    H240362   3.470   4.793   0.942 -2.1732  2.1180  2.0633
 6243TIP3   OH240363   3.888   1.981   7.175 -0.0319 -0.3411 -0.5255
 6243TIP3    H140364   3.802   1.950   7.145 -0.9016  2.4545 -1.1766
 6243TIP3    H240365   3.949   1.913   7.146 -1.8210 -1.6471 -1.4484
 6244TIP3   OH240366   3.714   2.328   1.402 -0.3093 -0.2099  0.0400
 6244TIP3    H140367   3.701   2.266   1.474 -2.1677 -0.1821 -0.2388
 6244TIP3    H240368   3.689   2.280   1.324 -0.1195  0.3585 -0.3770
 6245TIP3   OH240369   6.407   5.116   8.082  0.2457 -0.2578  0.9191
 6245TIP3    H140370   6.363   5.198   8.059  1.2952  0.4953  1.5071
 6245TIP3    H240371   6.367   5.090   8.165 -0.7797 -0.8855  0.2485
 6246TIP3   OH240372   4.231   1.538   6.553  0.4075  0.0828  0.3357
 6246TIP3    H140373   4.254   1.576   6.468 -0.1269 -1.0743 -0.3538
 6246TIP3    H240374   4.277   1.454   6.554 -2.3622 -1.5832 -0.4046
 6247TIP3   OH240375   2.790   1.955   0.599 -0.0508  0.0249  0.4540
 6247TIP3    H140376   2.838   1.901   0.662  1.8618  2.5383  1.3451
 6247TIP3    H240377   2.735   2.011   0.654 -0.7118  0.1358 -0.3148
 6248TIP3   OH240378   1.494   1.529   7.397 -0.7251 -1.1589  0.9299
 6248TIP3    H140379   1.538   1.530   7.312 -0.4810 -2.3326  1.0164
 6248TIP3    H240380   1.415   1.582   7.385  1.2475  2.0675  1.1065
 6249TIP3   OH240381   2.217   3.093   7.961  0.4491  0.1196  0.4171
 6249TIP3    H140382   2.204   3.054   7.874  0.7039  2.9534 -0.9916
 6249TIP3    H240383   2.264   3.174   7.944 -2.0575  2.2837  2.8513
 6250TIP3   OH240384   3.062   1.353   0.683  0.1395  0.4569 -0.6797
 6250TIP3    H140385   3.047   1.424   0.621 -0.9067 -0.8329 -1.9880
 6250TIP3    H240386   3.082   1.277   0.627  0.5992 -0.4255  0.6382
 6251TIP3   OH240387   4.570   5.634   6.674 -0.3650  0.7898  0.1017
 6251TIP3    H140388   4.627   5.655   6.600  0.8962  0.1830  0.8723
 6251TIP3    H240389   4.565   5.539   6.675  1.3114  0.6385  1.9540
 6252TIP3   OH240390   6.175   5.024   0.312 -0.0478 -0.7184  0.1777
 6252TIP3    H140391   6.121   5.101   0.292  1.7729  0.7971  0.8726
 6252TIP3    H240392   6.258   5.060   0.343  0.6738 -2.9880  1.0467
 6253TIP3   OH240393   4.750   1.082   7.421 -0.2149 -0.6228 -0.3327
 6253TIP3    H140394   4.677   1.029   7.453 -0.7233 -0.2088 -0.7772
 6253TIP3    H240395   4.783   1.128   7.499  0.6270 -2.0332  0.1705
 6254TIP3   OH240396   6.134   0.114   2.208  0.3346  0.0634 -0.0584
 6254TIP3    H140397   6.116   0.180   2.141  0.8759  0.7229  0.4292
 6254TIP3    H240398   6.187   0.049   2.163 -0.1948 -0.0466 -0.5439
 6255TIP3   OH240399   5.961   0.295   6.879 -0.5853 -0.1328 -0.1224
 6255TIP3    H140400   5.919   0.364   6.828  0.3239 -0.8905 -1.9716
 6255TIP3    H240401   5.933   0.214   6.836 -0.7926 -0.8956  1.3727
 6256TIP3   OH240402   0.664   1.781   8.393  0.8561 -0.0458 -0.3425
 6256TIP3    H140403   0.683   1.688   8.400  1.9874  0.1466 -0.6428
 6256TIP3    H240404   0.613   1.801   8.471 -0.0250 -1.0536 -0.6401
 6257TIP3   OH240405   6.206   3.529   7.987  0.3075 -0.8821  0.0644
 6257TIP3    H140406   6.168   3.602   8.037  0.8897 -2.2729  2.7595
 6257TIP3    H240407   6.183   3.548   7.896  0.2421  2.5143  0.6432
 6258TIP3   OH240408   0.848   0.210   1.592 -0.5497 -0.0991  0.4754
 6258TIP3    H140409   0.890   0.171   1.669 -0.9789  2.8291  2.3558
 6258TIP3    H240410   0.893   0.293   1.580  0.8143 -1.1835 -3.7762
 6259TIP3   OH240411   4.005   2.311   8.652  0.0141 -0.5598 -0.8794
 6259TIP3    H140412   3.960   2.286   8.572 -0.3538  1.2259 -1.2709
 6259TIP3    H240413   4.083   2.360   8.623 -0.9621  1.5215 -0.2160
 6260TIP3   OH240414   5.176   0.192   8.243  0.5850 -0.0811 -0.0954
 6260TIP3    H140415   5.250   0.146   8.283  0.1784 -1.2139 -0.6211
 6260TIP3    H240416   5.177   0.165   8.152  0.0283  0.5684 -0.2999
 6261TIP3   OH240417   5.381   2.123   7.886 -0.7240  0.3030 -0.0172
 6261TIP3    H140418   5.353   2.212   7.907  1.6274  1.0356  0.2548
 6261TIP3    H240419   5.438   2.098   7.958 -0.5280 -1.0284 -0.6152
 6262TIP3   OH240420   3.257   6.166   7.355  0.5548  0.1829  0.0892
 6262TIP3    H140421   3.222   6.127   7.434  1.0637 -1.3356 -0.3974
 6262TIP3    H240422   3.188   6.224   7.324 -0.4099 -0.6521  0.6221
 6263TIP3   OH240423   1.860   4.805   8.502  0.2898  0.2872 -0.2678
 6263TIP3    H140424   1.798   4.827   8.572 -0.3845  2.3175 -1.3871
 6263TIP3    H240425   1.929   4.871   8.509  0.6612 -0.0097 -0.9801
 6264TIP3   OH240426   0.002   2.836   1.460  0.3739 -0.4537 -0.3414
 6264TIP3    H140427  -0.031   2.786   1.534 -1.0324  2.4197  1.1464
 6264TIP3    H240428  -0.048   2.804   1.385 -3.6149  1.3478  1.2516
 6265TIP3   OH240429   6.164   1.818   0.655 -0.4616 -0.5294 -0.3485
 6265TIP3    H140430   6.105   1.818   0.730 -1.0620  3.0586 -0.6345
 6265TIP3    H240431   6.128   1.884   0.596  1.9037 -0.7547 -2.2141
 6266TIP3   OH240432   3.318   4.395   2.224  0.6920  0.5976  0.2634
 6266TIP3    H140433   3.353   4.343   2.296  1.0159 -0.8350 -0.8832
 6266TIP3    H240434   3.226   4.408   2.247  0.8899  0.5426  1.1353
 6267TIP3   OH240435   0.185   4.845   7.318 -0.7837  0.1141  0.4471
 6267TIP3    H140436   0.129   4.804   7.252 -0.7472 -0.3681  0.7094
 6267TIP3    H240437   0.175   4.790   7.395 -0.0636  0.1084  0.5416
 6268TIP3   OH240438   3.308   6.304   8.250  0.2229  0.4926  0.0328
 6268TIP3    H140439   3.220   6.294   8.286  0.2042 -0.9778 -0.3326
 6268TIP3    H240440   3.302   6.379   8.191 -0.8259  0.3225 -0.0938
 6269TIP3   OH240441   4.489   6.158   2.087 -0.0130  0.0083 -0.8744
 6269TIP3    H140442   4.443   6.117   2.013  0.2369 -0.5560 -0.7272
 6269TIP3    H240443   4.423   6.211   2.131 -0.7398 -1.3958 -0.2127
 6270TIP3   OH240444   0.769   2.312   1.115  0.2080 -0.0325 -0.1378
 6270TIP3    H140445   0.769   2.407   1.102  0.1302 -0.2421 -1.9139
 6270TIP3    H240446   0.681   2.285   1.090  0.0290 -0.5258  0.9639
 6271TIP3   OH240447   3.391   0.410   0.767 -0.4767 -0.7106  0.1025
 6271TIP3    H140448   3.467   0.437   0.818 -0.7531  0.1590  0.0597
 6271TIP3    H240449   3.316   0.443   0.816 -0.7745 -0.4715 -0.5054
 6272TIP3   OH240450   0.709   3.998   0.546  0.0601  0.3394  0.3999
 6272TIP3    H140451   0.633   3.985   0.604 -1.7720 -0.8332 -2.0727
 6272TIP3    H240452   0.687   4.075   0.495  1.4200  1.0725  0.8829
 6273TIP3   OH240453   2.659   2.489   7.972 -0.9100  0.1046 -0.2092
 6273TIP3    H140454   2.590   2.455   8.028 -0.6005  0.9819  0.7337
 6273TIP3    H240455   2.643   2.583   7.968 -0.5523  0.1404 -1.0844
 6274TIP3   OH240456   0.755   4.523   6.968 -0.4765 -0.1697 -0.5909
 6274TIP3    H140457   0.798   4.452   6.921 -0.5869 -1.2346  0.8672
 6274TIP3    H240458   0.819   4.553   7.032 -0.8397  0.2653 -0.4220
 6275TIP3   OH240459   0.141   6.667   2.217 -0.7679 -0.8974  0.3095
 6275TIP3    H140460   0.088   6.744   2.237  0.0941  0.4262 -2.1001
 6275TIP3    H240461   0.229   6.702   2.201 -0.7768 -2.0325 -2.7971
 6276TIP3   OH240462   1.182   4.042   7.972 -0.2065  0.0969  0.6189
 6276TIP3    H140463   1.141   4.100   7.908  2.2356  1.6699  0.3671
 6276TIP3    H240464   1.236   3.983   7.920 -0.4831 -0.5622  1.0701
 6277TIP3   OH240465   6.412   5.978   0.872 -0.1533  0.5160  0.7295
 6277TIP3    H140466   6.439   5.999   0.782  0.6308 -0.8054  0.6228
 6277TIP3    H240467   6.466   6.035   0.926 -0.2021  0.9002  0.3840
 6278TIP3   OH240468   3.024   5.291   1.388 -0.4211 -0.7960  0.4765
 6278TIP3    H140469   3.089   5.361   1.391 -1.9063  0.6131  1.3390
 6278TIP3    H240470   2.995   5.281   1.479  0.3262 -3.1550  0.5445
 6279TIP3   OH240471   4.678   6.641   6.891 -0.0525  0.0815 -0.8949
 6279TIP3    H140472   4.599   6.619   6.842 -1.3186  3.1086 -0.4288
 6279TIP3    H240473   4.728   6.698   6.833  1.3115 -0.9298 -0.7655
 6280TIP3   OH240474   1.900   1.689   8.788 -0.1332 -0.0785  0.0112
 6280TIP3    H140475   1.965   1.727   8.847 -0.8320  3.2719 -1.1502
 6280TIP3    H240476   1.819   1.690   8.838 -0.2988  0.8042 -0.2423
 6281TIP3   OH240477   6.047   5.460   0.958 -0.0822 -0.0305  0.6137
 6281TIP3    H140478   6.122   5.416   0.917 -1.2915 -2.1714  0.5742
 6281TIP3    H240479   6.070   5.463   1.051  0.6237  0.5840  0.4336
 6282TIP3   OH240480   2.506   3.052   6.884  0.0765  0.0120 -0.4130
 6282TIP3    H140481   2.462   3.137   6.888  0.3261  0.3726 -3.0036
 6282TIP3    H240482   2.596   3.071   6.912  0.3522  0.8385 -1.7511
 6283TIP3   OH240483   5.373   4.282   8.361 -0.5580  0.0027 -0.4474
 6283TIP3    H140484   5.411   4.277   8.274  0.1153  0.4953 -0.1930
 6283TIP3    H240485   5.314   4.206   8.366  0.7523 -1.0760 -0.6841
 6284TIP3   OH240486   3.239   2.149   1.851 -0.7091  0.2655 -0.0948
 6284TIP3    H140487   3.159   2.103   1.877  0.4444 -0.9057  1.6248
 6284TIP3    H240488   3.272   2.187   1.932  2.3881 -2.4593  0.1432
 6285TIP3   OH240489   0.974   2.595   2.042  0.2712  0.1823  0.0083
 6285TIP3    H140490   1.013   2.590   1.955  0.7357 -0.5427  0.2494
 6285TIP3    H240491   1.010   2.520   2.089  0.5395  0.9270  1.0326
 6286TIP3   OH240492   2.752   0.331   6.246  0.1201 -0.0606 -0.5285
 6286TIP3    H140493   2.832   0.280   6.256  0.4615  0.3465 -1.1025
 6286TIP3    H240494   2.686   0.284   6.298  0.2299 -1.4880 -1.6154
 6287TIP3   OH240495   2.490   5.935   7.563  0.1522 -0.3347 -0.8026
 6287TIP3    H140496   2.480   5.845   7.531 -1.0659 -0.2252 -0.7666
 6287TIP3    H240497   2.409   5.978   7.538 -1.1535 -0.3738  2.8597
 6288TIP3   OH240498   6.702   5.196   1.749  0.5852  0.4698  0.1656
 6288TIP3    H140499   6.617   5.240   1.743 -0.0426 -0.2766  2.4995
 6288TIP3    H240500   6.680   5.104   1.762  1.7424  0.2803  0.8884
 6289TIP3   OH240501   6.097   5.017   0.017 -0.6746 -0.2467  0.1880
 6289TIP3    H140502   6.176   4.966   0.036 -0.7949  0.3321  2.6051
 6289TIP3    H240503   6.128   5.093  -0.032  0.5329  0.6061  2.1652
 6290TIP3   OH240504   4.133   2.022   7.501 -1.0626 -0.3414 -0.0022
 6290TIP3    H140505   4.198   2.014   7.431 -0.3859 -0.6582  0.6557
 6290TIP3    H240506   4.124   2.117   7.513 -2.7871 -0.1685 -1.9625
 6291TIP3   OH240507   0.077   2.434   8.213  0.0306  0.0692 -0.1499
 6291TIP3    H140508   0.058   2.372   8.143  0.6616  0.6790 -0.8813
 6291TIP3    H240509   0.137   2.497   8.174  0.8991  0.0739  1.1156
 6292TIP3   OH240510   4.592   6.765   0.125 -0.2573 -0.1495  0.5480
 6292TIP3    H140511   4.655   6.741   0.194  1.6799  0.7296 -0.8401
 6292TIP3    H240512   4.636   6.833   0.075 -1.6036 -0.7351 -1.5593
 6293TIP3   OH240513   3.460   6.606   0.323 -0.0831 -0.1162 -0.1606
 6293TIP3    H140514   3.537   6.650   0.285  0.4720 -0.9141  0.0086
 6293TIP3    H240515   3.454   6.643   0.412  2.4215 -2.6624  1.2506
 6294TIP3   OH240516   0.362   6.199   7.214  0.4851 -0.5027  0.3753
 6294TIP3    H140517   0.319   6.188   7.129  2.2599 -0.6995 -0.5472
 6294TIP3    H240518   0.361   6.294   7.228  0.8781 -0.3996 -0.2533
 6295TIP3   OH240519   4.870   5.983   1.325  0.0432  0.2550 -0.1069
 6295TIP3    H140520   4.843   5.950   1.239 -0.4314  0.6832 -0.1326
 6295TIP3    H240521   4.859   5.909   1.384  0.3166 -0.0250 -0.4090
 6296TIP3   OH240522   4.598   3.629   1.203 -0.2402 -0.0013  0.3937
 6296TIP3    H140523   4.507   3.644   1.229  0.0842 -0.0536  1.6425
 6296TIP3    H240524   4.597   3.544   1.159 -0.7200 -0.2324  0.8456
 6297TIP3   OH240525   5.789   5.412   2.558  0.5032 -0.4231  0.6144
 6297TIP3    H140526   5.821   5.464   2.632  0.2879  0.6758 -0.0400
 6297TIP3    H240527   5.694   5.410   2.570  0.3205  0.9054 -0.3105
 6298TIP3   OH240528   6.621   1.523   0.042  0.2418  0.1836  1.0504
 6298TIP3    H140529   6.598   1.588  -0.026 -1.2148 -0.1549  1.1914
 6298TIP3    H240530   6.558   1.452   0.030 -0.7918  0.5990  3.4553
 6299TIP3   OH240531   0.000   3.012   1.073  0.3391  0.0605 -0.1557
 6299TIP3    H140532   0.083   2.966   1.085  0.6553  0.5945 -0.2577
 6299TIP3    H240533  -0.048   2.958   1.011  0.1543 -0.8326  0.7492
 6300TIP3   OH240534   1.300   4.008   1.034  0.3826  0.1094 -0.2673
 6300TIP3    H140535   1.308   4.045   1.122 -1.5542  2.1933 -0.8758
 6300TIP3    H240536   1.369   4.050   0.984 -0.1118  0.8538 -0.3262
 6301TIP3   OH240537   4.844   4.729   0.076 -0.0224  0.1744  0.0621
 6301TIP3    H140538   4.824   4.680   0.156 -2.8851  1.9575  0.5656
 6301TIP3    H240539   4.889   4.808   0.107 -1.2769  0.9436 -0.0172
 6302TIP3   OH240540   3.256   4.967   7.263 -0.0158 -0.4103  0.2510
 6302TIP3    H140541   3.268   4.966   7.168 -1.3142 -1.0660  0.0634
 6302TIP3    H240542   3.217   5.053   7.280 -0.1760 -0.4570  0.1287
 6303TIP3   OH240543   0.437   0.921   8.359  0.1705 -0.6929  0.6474
 6303TIP3    H140544   0.370   0.939   8.426 -0.4621  0.4466 -0.2464
 6303TIP3    H240545   0.401   0.960   8.279  2.0867  0.3284  0.2313
 6304TIP3   OH240546   2.319   3.729   0.391  0.8806 -0.0474  0.1277
 6304TIP3    H140547   2.229   3.763   0.389  0.7463 -0.4312 -1.0282
 6304TIP3    H240548   2.316   3.657   0.454  0.1595 -0.6227 -0.5466
 6305TIP3   OH240549   1.431   6.233   7.444 -0.2199  0.1871 -0.0593
 6305TIP3    H140550   1.501   6.243   7.509 -0.0791  0.9005 -0.3090
 6305TIP3    H240551   1.476   6.205   7.364 -0.1122  1.3200 -0.4138
 6306TIP3   OH240552   1.840   0.224   8.700  0.6130  0.4353  0.6207
 6306TIP3    H140553   1.853   0.187   8.788  1.0515 -0.4715  0.1905
 6306TIP3    H240554   1.755   0.267   8.705  0.5822  0.3081  1.4616
 6307TIP3   OH240555   5.082   6.231   6.811  0.2137  0.1916  0.1677
 6307TIP3    H140556   5.099   6.137   6.803  0.0629  0.0447  1.3392
 6307TIP3    H240557   4.987   6.238   6.818  0.1104  0.5692 -1.2544
 6308TIP3   OH240558   2.557   6.806   0.819  0.2716  0.2786  0.5826
 6308TIP3    H140559   2.465   6.781   0.811  0.4093  0.3957 -3.5927
 6308TIP3    H240560   2.592   6.746   0.885 -2.3410 -1.1408  0.8196
 6309TIP3   OH240561   6.774   2.218   1.828 -0.3114 -0.2067 -0.2513
 6309TIP3    H140562   6.787   2.123   1.827 -2.0968 -0.5277  0.9494
 6309TIP3    H240563   6.826   2.249   1.901 -1.8031 -0.6937  1.0763
 6310TIP3   OH240564   4.535   6.756   7.109 -0.3454 -0.6124 -0.4137
 6310TIP3    H140565   4.469   6.688   7.118 -0.9385 -0.1454 -1.1271
 6310TIP3    H240566   4.576   6.738   7.024  0.1316 -0.6230 -0.1847
 6311TIP3   OH240567   4.140   0.657   0.160 -0.3014  0.1261  0.0665
 6311TIP3    H140568   4.180   0.717   0.223 -0.2498 -0.2229  0.3682
 6311TIP3    H240569   4.052   0.640   0.196 -0.6424  0.6953 -0.4654
 6312TIP3   OH240570   4.604   5.447   8.133 -0.3635 -0.1821 -0.0333
 6312TIP3    H140571   4.664   5.438   8.207 -2.2037  0.3564  1.6132
 6312TIP3    H240572   4.546   5.371   8.140  0.3435 -0.9538 -1.8760
 6313TIP3   OH240573   0.874   6.000   8.304  0.5045  0.2471 -0.4978
 6313TIP3    H140574   0.815   5.979   8.376 -1.7723 -3.1984 -3.0206
 6313TIP3    H240575   0.957   5.959   8.329  0.2567  0.4928  0.7994
 6314TIP3   OH240576   1.798   5.035   6.713  0.0000 -0.8836 -0.8943
 6314TIP3    H140577   1.714   5.080   6.707 -0.2512 -1.3382 -0.8934
 6314TIP3    H240578   1.807   4.989   6.630  1.7802  1.7054 -2.2773
 6315TIP3   OH240579   3.679   2.045   8.571 -0.0838  0.1678  0.3728
 6315TIP3    H140580   3.709   2.134   8.552  2.3925 -0.7779 -0.5316
 6315TIP3    H240581   3.666   2.004   8.486  1.6261 -1.1791  0.7075
 6316TIP3   OH240582   0.059   4.215   0.990 -0.4288 -0.4440 -0.3300
 6316TIP3    H140583   0.021   4.256   0.912 -0.8088 -2.1843 -1.1289
 6316TIP3    H240584   0.154   4.220   0.976 -0.4457  0.6668 -0.1114
 6317TIP3   OH240585   5.657   2.692   0.318  0.1047 -0.8340  0.1352
 6317TIP3    H140586   5.575   2.647   0.334  0.1938 -0.4244  1.9986
 6317TIP3    H240587   5.677   2.735   0.401  2.0811 -0.7373 -0.3384
 6318TIP3   OH240588   2.787   3.013   7.986  0.0484  0.0510  0.1188
 6318TIP3    H140589   2.774   3.088   7.928  0.4557  1.5723  1.8914
 6318TIP3    H240590   2.880   2.995   7.982  0.5270  1.6924  1.9609
 6319TIP3   OH240591   6.333   5.388   1.895 -0.0291 -0.2559  0.4710
 6319TIP3    H140592   6.335   5.382   1.800 -0.6189  0.7321  0.3879
 6319TIP3    H240593   6.419   5.356   1.923  1.2448  2.0538 -0.5499
 6320TIP3   OH240594   1.047   3.293   0.790 -0.8865  0.1787 -0.4754
 6320TIP3    H140595   0.992   3.371   0.791 -0.3165  0.5890  0.4786
 6320TIP3    H240596   0.986   3.220   0.799 -1.2394  0.6744  1.9022
 6321TIP3   OH240597   4.615   1.140   7.909  0.0925 -0.3679 -0.1282
 6321TIP3    H140598   4.564   1.192   7.971 -0.9058 -0.9275 -0.4503
 6321TIP3    H240599   4.614   1.191   7.829 -1.0523 -0.9409 -0.5018
 6322TIP3   OH240600   4.654   4.709   0.290 -0.0447  0.4618  0.0985
 6322TIP3    H140601   4.591   4.680   0.225  0.5069  1.2468 -0.8138
 6322TIP3    H240602   4.688   4.628   0.329 -1.7361  0.0343  0.7543
 6323TIP3   OH240603   6.697   3.979   8.490  0.1099  0.2657  0.1195
 6323TIP3    H140604   6.639   3.903   8.492  2.1292 -1.3527  1.3933
 6323TIP3    H240605   6.734   3.978   8.401  1.2619 -1.2242  0.5743
 6324TIP3   OH240606   5.103   6.043   7.087 -0.2876  0.6597 -0.4769
 6324TIP3    H140607   5.061   6.128   7.080  0.7482  1.0649 -2.5858
 6324TIP3    H240608   5.077   5.996   7.007  0.4852 -0.3576 -0.1550
 6325TIP3   OH240609   4.176   6.492   8.725  0.3406 -0.0783 -0.0400
 6325TIP3    H140610   4.135   6.427   8.782  1.8560 -1.8373 -0.8280
 6325TIP3    H240611   4.247   6.530   8.778  0.8064 -0.6374 -0.2520
 6326TIP3   OH240612   6.546   5.664   0.883  0.2586  0.3523  0.1570
 6326TIP3    H140613   6.474   5.720   0.914  0.0565 -0.0091  0.3484
 6326TIP3    H240614   6.502   5.586   0.848  0.4879  0.6850 -0.9116
 6327TIP3   OH240615   4.597   5.723   1.102  0.1264 -0.2113  0.5426
 6327TIP3    H140616   4.512   5.685   1.079  0.2021  0.1037 -0.3005
 6327TIP3    H240617   4.586   5.755   1.191 -1.6043  2.4783 -0.4906
 6328TIP3   OH240618   2.904   6.283   0.767 -0.0290 -0.0778 -0.1076
 6328TIP3    H140619   2.919   6.195   0.802 -0.0280  0.4024  1.1209
 6328TIP3    H240620   2.950   6.283   0.683  0.2244 -1.1524  0.0171
 6329TIP3   OH240621   3.890   5.127   1.889  0.1322  0.3449 -0.7991
 6329TIP3    H140622   3.822   5.130   1.822  1.2528  1.2346 -1.9295
 6329TIP3    H240623   3.964   5.083   1.846 -0.2879 -2.3800  0.9955
 6330TIP3   OH240624   3.063   1.977   1.481 -0.4643  0.4300  0.1407
 6330TIP3    H140625   3.055   1.893   1.526  0.3631  1.2634  1.9457
 6330TIP3    H240626   3.046   2.043   1.549  0.8313  1.7499 -0.7378
 6331TIP3   OH240627   6.030   5.064   6.996 -0.1709 -0.1879  0.1682
 6331TIP3    H140628   6.014   5.113   6.916 -1.2604  0.2943  0.6680
 6331TIP3    H240629   5.972   4.988   6.990 -1.3052  0.5757  1.1219
 6332TIP3   OH240630   3.318   1.254   6.257  0.6513 -0.0604 -0.5046
 6332TIP3    H140631   3.348   1.168   6.228 -0.7639 -0.4246 -0.9842
 6332TIP3    H240632   3.305   1.245   6.351  2.3843  0.2390 -0.2017
 6333TIP3   OH240633   6.506   1.286   0.005 -0.1511 -0.3154  0.1859
 6333TIP3    H140634   6.505   1.191  -0.006 -1.6090 -0.1802 -1.2934
 6333TIP3    H240635   6.414   1.310   0.016  0.0156  1.0771 -1.1629
 6334TIP3   OH240636   4.913   3.802   1.181  0.7729 -0.7508 -0.0844
 6334TIP3    H140637   4.891   3.777   1.091  1.9546 -2.0758 -0.0394
 6334TIP3    H240638   4.948   3.891   1.174 -0.0573 -0.4674 -0.7829
 6335TIP3   OH240639   5.617   2.166   2.347 -0.9244  0.5661  0.1664
 6335TIP3    H140640   5.542   2.136   2.399  0.9050 -2.0885  1.4635
 6335TIP3    H240641   5.682   2.097   2.357  1.2880  2.2208 -1.8865
 6336TIP3   OH240642   6.213   0.488   1.361 -0.4128 -0.1184  0.0625
 6336TIP3    H140643   6.287   0.463   1.306 -1.1456 -2.6920  0.1287
 6336TIP3    H240644   6.144   0.511   1.298 -0.1061  0.6227 -0.0154
 6337TIP3   OH240645   3.986   1.911   7.714  0.2761  0.4062 -0.7289
 6337TIP3    H140646   4.033   1.852   7.773 -0.4383 -0.0508 -0.6028
 6337TIP3    H240647   4.051   1.937   7.649  0.4590 -1.0176 -1.1470
 6338TIP3   OH240648   4.970   0.625   8.654  0.8194 -0.2298 -0.0248
 6338TIP3    H140649   4.962   0.676   8.574 -0.5258  1.5704  1.1828
 6338TIP3    H240650   4.957   0.534   8.626  1.1334  0.2619 -1.9121
 6339TIP3   OH240651   0.076   4.605   7.524 -0.0223  0.2227 -0.8320
 6339TIP3    H140652   0.071   4.646   7.610  1.0597  0.1267 -0.7057
 6339TIP3    H240653  -0.013   4.577   7.505  0.0169 -1.4907  1.1245
 6340TIP3   OH240654   0.930   1.004   1.399 -0.1486  0.0809 -0.1228
 6340TIP3    H140655   0.884   1.088   1.389 -3.4055 -1.4881  0.5133
 6340TIP3    H240656   0.992   1.020   1.470 -1.3696  1.7186  0.6571
 6341TIP3   OH240657   1.055   3.821   0.391 -0.2289  0.2691  0.1779
 6341TIP3    H140658   1.115   3.878   0.344  0.3695 -0.2091  0.3393
 6341TIP3    H240659   1.050   3.859   0.479  2.4248 -1.4440  1.1921
 6342TIP3   OH240660   1.769   3.283   1.797 -0.7565 -0.2546 -0.0401
 6342TIP3    H140661   1.862   3.305   1.804 -0.6068 -0.4768 -1.0523
 6342TIP3    H240662   1.759   3.202   1.846 -0.6581  0.3497  1.0129
 6343TIP3   OH240663   2.325   0.149   1.574 -0.2428 -0.9243 -0.0442
 6343TIP3    H140664   2.232   0.127   1.562 -0.8331  1.3276 -0.2279
 6343TIP3    H240665   2.344   0.123   1.664 -1.8760  0.9446  0.9315
 6344TIP3   OH240666   3.458   1.899   7.641  0.1711  0.2555 -0.3955
 6344TIP3    H140667   3.486   1.984   7.675 -0.7926  0.3716  0.1566
 6344TIP3    H240668   3.430   1.850   7.719 -1.1388  0.1602 -0.9014
 6345TIP3   OH240669   4.428   5.260   2.594  0.3677  0.0917 -0.2252
 6345TIP3    H140670   4.451   5.288   2.505 -1.1456 -0.3656 -0.7832
 6345TIP3    H240671   4.385   5.336   2.632  1.9518  0.6657  0.5396
 6346TIP3   OH240672   6.283   0.086   1.340  0.2958 -0.0196  0.3574
 6346TIP3    H140673   6.235   0.122   1.415  1.2409 -0.8541  1.4053
 6346TIP3    H240674   6.222   0.093   1.267 -0.8407  0.3810  1.3090
 6347TIP3   OH240675   0.748   2.798   1.736  0.2106  0.9556  0.2011
 6347TIP3    H140676   0.839   2.827   1.728  0.0839  1.3004 -0.0105
 6347TIP3    H240677   0.747   2.745   1.815  0.8622 -0.0816 -0.4683
 6348TIP3   OH240678   2.316   3.867   7.454  0.0368 -0.0228  0.0001
 6348TIP3    H140679   2.279   3.916   7.381 -1.4492  2.0413  1.9792
 6348TIP3    H240680   2.374   3.930   7.498  2.4095 -1.7899 -0.3872
 6349TIP3   OH240681   2.389   3.606   7.339 -0.1537  0.9064  0.4875
 6349TIP3    H140682   2.482   3.604   7.317 -0.2447  0.9615  0.0804
 6349TIP3    H240683   2.376   3.690   7.384 -0.0819  1.0888  0.1751
 6350TIP3   OH240684   4.467   3.328   0.084  1.0389  0.3376 -0.4232
 6350TIP3    H140685   4.416   3.362   0.158  1.9225 -2.0959  1.4009
 6350TIP3    H240686   4.430   3.242   0.066  1.4466  0.4985 -2.2693
 6351TIP3   OH240687   2.620   6.064   0.146 -0.6062 -0.4118 -0.2739
 6351TIP3    H140688   2.632   6.121   0.070 -1.0195 -0.7221 -0.5723
 6351TIP3    H240689   2.704   6.068   0.192 -0.9699  1.3150  0.3181
 6352TIP3   OH240690   6.429   3.414   8.733  0.8178 -0.2239 -0.1018
 6352TIP3    H140691   6.439   3.374   8.819  1.6444 -0.5053 -0.3288
 6352TIP3    H240692   6.391   3.346   8.679 -1.0887  0.3875  0.3783
 6353TIP3   OH240693   2.699   4.183   8.475 -0.0179 -0.4945 -0.0116
 6353TIP3    H140694   2.753   4.127   8.531 -0.3220 -0.8844 -0.1092
 6353TIP3    H240695   2.762   4.224   8.415  0.3908  0.3683  0.9626
 6354TIP3   OH240696   4.304   2.568   7.617 -0.4818 -0.0548  0.0167
 6354TIP3    H140697   4.310   2.532   7.706  0.2128  1.2495  0.5155
 6354TIP3    H240698   4.257   2.651   7.628  1.2344  1.0288 -0.5418
 6355TIP3   OH240699   1.125   6.234   1.199 -0.0553 -0.1327  0.1425
 6355TIP3    H140700   1.169   6.171   1.255  1.2009  0.3523 -0.2667
 6355TIP3    H240701   1.083   6.296   1.260  2.1743  1.0136  0.6282
 6356TIP3   OH240702   4.357   2.445   7.893  0.2293  0.3762  0.0020
 6356TIP3    H140703   4.275   2.470   7.935  0.2188 -0.8362  0.7662
 6356TIP3    H240704   4.425   2.470   7.955  0.4546  1.4882 -0.6848
 6357TIP3   OH240705   3.685   6.201   7.352 -0.3347 -0.1002  0.0201
 6357TIP3    H140706   3.620   6.188   7.283  0.5952  2.2499 -1.4414
 6357TIP3    H240707   3.768   6.215   7.305  1.1880 -2.4108  1.7861
 6358TIP3   OH240708   2.449   3.423   0.405 -0.4753 -0.0953 -0.1900
 6358TIP3    H140709   2.388   3.448   0.473 -1.1302 -1.1789 -0.3515
 6358TIP3    H240710   2.433   3.330   0.391 -0.5007  0.1323 -1.9513
 6359TIP3   OH240711   1.236   5.593   0.208 -0.6548 -0.3848  0.1033
 6359TIP3    H140712   1.164   5.619   0.151  1.3129  0.8445 -1.9465
 6359TIP3    H240713   1.237   5.659   0.277 -0.3064  0.7174 -0.9382
 6360TIP3   OH240714   4.709   5.209   1.979  0.1870 -0.2944 -0.3015
 6360TIP3    H140715   4.766   5.263   2.033  0.1115 -0.2739 -0.2405
 6360TIP3    H240716   4.731   5.119   2.003 -0.1807 -0.2772  0.1210
 6361TIP3   OH240717   3.100   4.853   1.558  0.2749 -0.1099  0.5420
 6361TIP3    H140718   3.024   4.833   1.612  1.2325 -2.0134  1.2608
 6361TIP3    H240719   3.063   4.901   1.483 -1.2999  1.0346  1.9501
 6362TIP3   OH240720   4.809   2.736   1.403  0.3388  0.0653 -0.0610
 6362TIP3    H140721   4.714   2.735   1.415  0.2721  2.0666 -0.1213
 6362TIP3    H240722   4.822   2.740   1.308  0.4776  0.3991 -0.0276
 6363TIP3   OH240723   6.165   4.140   8.689 -0.1259  0.2780  0.6000
 6363TIP3    H140724   6.250   4.142   8.645 -0.0505 -0.1251  0.7218
 6363TIP3    H240725   6.167   4.059   8.741 -2.0255 -1.8398 -2.2829
 6364TIP3   OH240726   1.278   1.766   0.904  0.8705  0.5303 -0.9238
 6364TIP3    H140727   1.333   1.765   0.982 -0.1572 -1.2639 -0.1450
 6364TIP3    H240728   1.289   1.679   0.866 -0.0326  0.7615 -1.7543
 6365TIP3   OH240729   1.206   5.743   1.005 -0.5741  0.3496  0.2648
 6365TIP3    H140730   1.140   5.699   0.951 -0.1803 -0.2116  0.2278
 6365TIP3    H240731   1.159   5.814   1.048 -0.8450  0.9925 -1.0323
 6366TIP3   OH240732   3.294   5.647   8.310  0.1866 -0.6215  0.2262
 6366TIP3    H140733   3.282   5.724   8.255 -0.3271 -0.4246  0.6073
 6366TIP3    H240734   3.265   5.574   8.255 -1.4980 -0.3078  0.6231
 6367TIP3   OH240735   0.875   4.502   0.614 -0.1112 -0.5340  0.1096
 6367TIP3    H140736   0.879   4.481   0.707  1.9541 -1.7554 -0.1909
 6367TIP3    H240737   0.965   4.517   0.589 -0.3183 -2.4068 -2.1245
 6368TIP3   OH240738   3.829   0.830   8.625 -0.1401 -0.6392 -0.0694
 6368TIP3    H140739   3.900   0.818   8.688 -0.4290 -0.5172  0.2857
 6368TIP3    H240740   3.846   0.916   8.586 -1.1389  0.2582  1.3935
 6369TIP3   OH240741   1.196   2.848   1.014 -0.0965  0.2221 -0.7070
 6369TIP3    H140742   1.212   2.755   1.032  1.2928  0.1295 -2.1788
 6369TIP3    H240743   1.257   2.869   0.943 -1.6250  1.8143 -1.6090
 6370TIP3   OH240744   6.132   5.850   7.342 -0.2719 -0.4048 -0.3018
 6370TIP3    H140745   6.195   5.799   7.292  0.6734 -0.4730  0.9135
 6370TIP3    H240746   6.168   5.939   7.343  0.4997 -0.7022  1.4469
 6371TIP3   OH240747   3.211   4.225   8.152  0.5433  0.0338  0.2401
 6371TIP3    H140748   3.237   4.164   8.221  2.3217 -0.6932 -0.9954
 6371TIP3    H240749   3.179   4.169   8.081 -0.6702  0.7352  0.2062
 6372TIP3   OH240750   3.120   1.166   8.275 -1.1113 -1.1752 -0.0309
 6372TIP3    H140751   3.078   1.199   8.196 -0.7783 -1.1593 -0.2051
 6372TIP3    H240752   3.075   1.209   8.347 -0.5255 -0.1485 -0.2628
 6373TIP3   OH240753   5.932   5.696   1.140  0.1019 -0.1061 -0.2074
 6373TIP3    H140754   5.984   5.765   1.100  0.2010  0.2281  0.4830
 6373TIP3    H240755   5.989   5.619   1.137  1.7545  0.8175  2.8298
 6374TIP3   OH240756   1.675   6.546   0.262 -0.2225  0.2041 -0.0199
 6374TIP3    H140757   1.652   6.524   0.172 -2.4092  0.1951  0.4790
 6374TIP3    H240758   1.592   6.541   0.310  1.1104 -1.4482  2.3376
 6375TIP3   OH240759   5.997   4.388   8.008 -0.4134 -0.4496  0.3871
 6375TIP3    H140760   6.066   4.332   7.971 -0.1711 -0.1337  0.3603
 6375TIP3    H240761   5.916   4.347   7.978 -0.2246  0.1713 -1.0935
 6376TIP3   OH240762   1.424   0.596   8.334 -0.7824  0.3105 -0.3131
 6376TIP3    H140763   1.383   0.551   8.260  0.0267 -0.7168 -0.1670
 6376TIP3    H240764   1.469   0.671   8.295  1.1722 -1.2038 -1.2082
 6377TIP3   OH240765   2.773   2.719   6.728  0.3222  0.6732 -1.0302
 6377TIP3    H140766   2.756   2.809   6.702 -0.0520  0.8852 -0.1064
 6377TIP3    H240767   2.856   2.722   6.776 -1.0239  1.0647  1.4623
 6378TIP3   OH240768   3.234   5.891   0.078  0.0618  0.0601  0.4864
 6378TIP3    H140769   3.305   5.923   0.022  0.3005  0.2427  0.8902
 6378TIP3    H240770   3.165   5.867   0.017  0.8113 -1.0162  0.0161
 6379TIP3   OH240771   6.047   3.680   1.344  0.2407  0.3035  0.2440
 6379TIP3    H140772   5.958   3.683   1.379 -0.2353  1.0680 -0.9769
 6379TIP3    H240773   6.072   3.772   1.334  1.9890  0.1514  2.5088
 6380TIP3   OH240774   1.509   3.061   1.277  0.3655 -0.2337 -0.0496
 6380TIP3    H140775   1.446   3.117   1.323 -0.2137  0.0996 -1.2129
 6380TIP3    H240776   1.569   3.122   1.234  0.9541 -0.5442  0.3094
 6381TIP3   OH240777   2.975   0.140   7.641  0.3634  0.0324 -0.5355
 6381TIP3    H140778   2.928   0.155   7.559  1.8720 -1.3193 -1.7258
 6381TIP3    H240779   2.941   0.056   7.672  0.1505  0.3077 -0.0148
 6382TIP3   OH240780   1.957   5.563   2.030 -0.2775 -0.1725 -0.1814
 6382TIP3    H140781   1.939   5.633   1.967  1.1010 -0.1170 -0.5407
 6382TIP3    H240782   1.914   5.592   2.110  0.8561  1.4599 -0.1077
 6383TIP3   OH240783   6.332   4.761   0.787  0.4230  0.0738 -0.2790
 6383TIP3    H140784   6.304   4.850   0.808  0.8814  0.5833 -1.7237
 6383TIP3    H240785   6.257   4.706   0.811 -0.2461  0.9606 -0.3134
 6384TIP3   OH240786   3.508   4.623   8.044 -0.2616 -0.5848  0.3780
 6384TIP3    H140787   3.482   4.571   8.120 -0.3588 -0.9332  0.1116
 6384TIP3    H240788   3.434   4.614   7.984  0.1586 -0.9753 -0.0870
 6385TIP3   OH240789   1.895   3.957   1.909  0.1494  0.0173  0.5114
 6385TIP3    H140790   1.866   3.909   1.986 -0.3328  0.8047  0.8360
 6385TIP3    H240791   1.927   3.890   1.849 -2.5056 -0.9498  0.0426
 6386TIP3   OH240792   6.166   1.226   1.527 -0.4989  0.0714  0.0735
 6386TIP3    H140793   6.259   1.206   1.526 -0.3699  0.6517  0.2507
 6386TIP3    H240794   6.135   1.198   1.441 -0.2675 -0.5875  0.1951
 6387TIP3   OH240795   6.714   6.310   1.363  0.5599 -0.4452  1.2356
 6387TIP3    H140796   6.739   6.387   1.312 -1.2972  1.5137  3.0453
 6387TIP3    H240797   6.797   6.272   1.391  1.6564 -1.4023 -2.7287
 6388TIP3   OH240798   1.917   3.211   8.606 -0.5499  0.2276  0.4324
 6388TIP3    H140799   1.934   3.145   8.672  0.3314  0.1146  0.0985
 6388TIP3    H240800   1.821   3.215   8.600 -0.7518 -3.4114 -1.8616
 6389TIP3   OH240801   0.363   3.550   0.294 -0.0169  0.1226  0.2356
 6389TIP3    H140802   0.366   3.543   0.390  0.5003  0.1069  0.2232
 6389TIP3    H240803   0.364   3.459   0.265 -1.9944  0.0605  0.2414
 6390TIP3   OH240804   5.510   0.133   7.205 -0.1231  0.8287  0.1904
 6390TIP3    H140805   5.566   0.065   7.242 -1.1923  0.3024  0.8981
 6390TIP3    H240806   5.570   0.192   7.160  0.8694 -0.3627 -0.0974
 6391TIP3   OH240807   4.756   5.869   1.701 -0.0306 -0.0768 -0.1134
 6391TIP3    H140808   4.794   5.805   1.641  0.6489  1.0335 -0.9022
 6391TIP3    H240809   4.783   5.840   1.788  0.1809 -0.9150 -0.4549
 6392TIP3   OH240810   4.540   2.766   1.495  0.6594 -0.2373 -0.5193
 6392TIP3    H140811   4.538   2.755   1.590  1.4505 -2.2364 -0.6709
 6392TIP3    H240812   4.451   2.746   1.466  0.3527  0.6290 -0.1911
 6393TIP3   OH240813   1.550   1.803   2.508 -0.6284  0.2202  0.0169
 6393TIP3    H140814   1.508   1.768   2.430  0.5968 -0.1893 -0.4877
 6393TIP3    H240815   1.565   1.727   2.564 -0.9787  0.4275  0.3923
 6394TIP3   OH240816   3.079   3.039   1.227 -0.2407  0.3675  0.1278
 6394TIP3    H140817   2.990   3.061   1.198 -0.1328  1.5213  0.6372
 6394TIP3    H240818   3.135   3.057   1.152 -0.2926  0.7581  0.1832
 6395TIP3   OH240819   6.420   5.922   1.614  0.3950 -0.4765  0.2695
 6395TIP3    H140820   6.482   5.994   1.600 -0.3160  0.3203  1.0921
 6395TIP3    H240821   6.439   5.891   1.702 -0.1471 -0.4510  0.3984
 6396TIP3   OH240822   4.884   5.758   1.489  0.4913 -0.3194 -0.1409
 6396TIP3    H140823   4.972   5.766   1.527 -0.2428 -0.4576  1.6934
 6396TIP3    H240824   4.895   5.702   1.413  2.2981  1.1813 -1.0762
 6397TIP3   OH240825   2.831   2.383   0.418 -0.8151  0.3601  0.0888
 6397TIP3    H140826   2.775   2.435   0.475 -1.1021 -1.2752  1.4013
 6397TIP3    H240827   2.804   2.406   0.330 -1.8597  1.3938  0.6544
 6398TIP3   OH240828   1.596   2.909   0.880  0.1202 -0.5778  0.1229
 6398TIP3    H140829   1.664   2.918   0.946  0.6034  1.5332 -0.5640
 6398TIP3    H240830   1.642   2.915   0.796 -0.7716 -0.2467 -0.3650
 6399TIP3   OH240831   1.905   1.382   8.749 -0.3099 -0.2564 -0.1680
 6399TIP3    H140832   1.972   1.390   8.681  1.7318 -1.0190  1.6563
 6399TIP3    H240833   1.865   1.469   8.754  0.3321  0.1410 -1.4873
 6400TIP3   OH240834   0.610   5.026   1.479  0.2172  0.2513 -0.2252
 6400TIP3    H140835   0.679   5.036   1.545  1.4840 -0.1124 -1.4332
 6400TIP3    H240836   0.616   4.934   1.453 -0.5945  0.2689 -0.4794
 6401TIP3   OH240837   3.761   3.801   0.452  0.1040  0.4009 -0.0549
 6401TIP3    H140838   3.854   3.782   0.462 -0.3828 -2.5998 -0.3893
 6401TIP3    H240839   3.726   3.727   0.403 -2.4363  1.5446 -0.1261
 6402TIP3   OH240840   1.732   4.941   0.357  0.7951 -0.8193 -0.1966
 6402TIP3    H140841   1.723   5.010   0.422 -0.1511 -1.3869  0.2858
 6402TIP3    H240842   1.819   4.954   0.320  2.2055 -1.6728  2.5556
 6403TIP3   OH240843   2.131   1.270   7.706 -0.2865  0.4560 -0.0042
 6403TIP3    H140844   2.125   1.288   7.612 -1.0426 -0.7323 -0.2039
 6403TIP3    H240845   2.067   1.201   7.721  0.6746 -0.2126  1.1735
 6404TIP3   OH240846   4.653   2.003   7.656 -0.0897  0.1001 -0.1784
 6404TIP3    H140847   4.636   2.087   7.698  0.9792  0.8427 -1.1609
 6404TIP3    H240848   4.567   1.970   7.631 -0.4383  1.6801 -1.1924
 6405TIP3   OH240849   0.151   3.948   8.283  0.3249  0.1748  0.4758
 6405TIP3    H140850   0.090   4.010   8.243  1.2654  1.7962  1.4386
 6405TIP3    H240851   0.121   3.862   8.254 -0.8339  1.0947 -1.1707
 6406TIP3   OH240852   5.120   4.622   7.934 -0.2755  0.2172  0.1444
 6406TIP3    H140853   5.094   4.559   8.001  0.8837 -0.6305 -0.1581
 6406TIP3    H240854   5.176   4.684   7.980 -0.2882  0.2145  0.1636
 6407TIP3   OH240855   2.423   1.500   0.607 -0.0127 -0.3772  0.4485
 6407TIP3    H140856   2.488   1.505   0.678  0.7355 -2.7203  0.0033
 6407TIP3    H240857   2.356   1.563   0.633  2.1629  1.8319  1.1642
 6408TIP3   OH240858   4.788   2.763   8.348 -0.0570  0.0101 -0.0672
 6408TIP3    H140859   4.750   2.675   8.337 -1.6365  0.4404  1.4239
 6408TIP3    H240860   4.861   2.750   8.409 -0.2623 -0.2890  0.1207
 6409TIP3   OH240861   4.368   5.291   8.181 -0.2120 -0.0636  0.4155
 6409TIP3    H140862   4.377   5.243   8.099  0.7603  0.2137  0.3498
 6409TIP3    H240863   4.350   5.223   8.246  2.6727 -0.7734  0.5910
 6410TIP3   OH240864   2.916   1.645   1.323 -0.0920 -0.3385  0.6858
 6410TIP3    H140865   2.971   1.595   1.262  0.1363  0.6254  0.0897
 6410TIP3    H240866   2.922   1.735   1.293 -2.5921 -0.2754  0.1254
 6411TIP3   OH240867   1.106   6.380   0.267  0.4226  0.1790  0.1015
 6411TIP3    H140868   1.124   6.319   0.195  0.1371  1.1454 -0.8089
 6411TIP3    H240869   1.014   6.365   0.288  0.4341  0.0865  0.0898
 6412TIP3   OH240870   6.679   5.111   8.480 -0.1585  0.1673  0.2491
 6412TIP3    H140871   6.632   5.156   8.410 -0.8512  2.9010  2.2874
 6412TIP3    H240872   6.720   5.035   8.438 -2.3025  0.4477 -2.6160
 6413TIP3   OH240873   4.058   5.460   2.039  0.0181  0.3871 -0.3828
 6413TIP3    H140874   4.139   5.423   2.072 -0.8421 -0.9589  0.3255
 6413TIP3    H240875   4.070   5.554   2.045  2.1688  0.2754 -1.9257
 6414TIP3   OH240876   1.117   4.704   1.521 -0.4403 -0.4361 -0.4041
 6414TIP3    H140877   1.147   4.662   1.441  0.5837 -1.9801  0.7523
 6414TIP3    H240878   1.168   4.784   1.527 -0.0796 -0.6221 -0.9659
 6415TIP3   OH240879   3.771   6.616   6.487  0.0478 -0.1677 -0.1220
 6415TIP3    H140880   3.757   6.559   6.412  1.3806 -2.1036  0.9951
 6415TIP3    H240881   3.686   6.621   6.531  0.1123 -2.1571  0.2874
 6416TIP3   OH240882   1.931   6.506   0.099  0.0532  0.1091 -0.2649
 6416TIP3    H140883   1.882   6.587   0.081 -0.2539  0.0765  0.4113
 6416TIP3    H240884   2.023   6.533   0.100 -0.0980  0.6360  0.8770
 6417TIP3   OH240885   5.751   4.365   7.848 -0.0666  0.0330 -0.0753
 6417TIP3    H140886   5.806   4.362   7.770  1.0619  0.2390  0.6838
 6417TIP3    H240887   5.686   4.433   7.829  2.9074  3.4084  0.8213
 6418TIP3   OH240888   6.701   3.668   0.054 -0.3884 -0.0423 -0.7483
 6418TIP3    H140889   6.773   3.644   0.112 -0.3358  1.8057  0.0466
 6418TIP3    H240890   6.729   3.640  -0.033  0.8226 -0.2892 -0.2979
 6419TIP3   OH240891   5.078   5.904   0.804  0.0592  0.3404 -0.5894
 6419TIP3    H140892   5.118   5.910   0.890 -0.5140 -2.1266 -0.0885
 6419TIP3    H240893   5.035   5.989   0.791  1.6537  1.4042  0.7332
 6420TIP3   OH240894   1.577   5.415   1.171 -0.4171  0.3073  0.1414
 6420TIP3    H140895   1.548   5.360   1.098  0.1787 -0.8233  0.7207
 6420TIP3    H240896   1.502   5.415   1.231 -0.6577  0.6699 -0.1563
 6421TIP3   OH240897   3.719   1.203   8.445 -0.2714  0.6125  0.2357
 6421TIP3    H140898   3.802   1.171   8.479  1.0455  1.2101 -2.1680
 6421TIP3    H240899   3.684   1.130   8.394 -0.3103  0.9699 -0.2525
 6422TIP3   OH240900   0.804   2.914   7.879  0.5399 -0.1640  0.0679
 6422TIP3    H140901   0.763   2.917   7.965 -1.0902 -2.1961 -0.5278
 6422TIP3    H240902   0.747   2.968   7.824  1.5670  1.1178  0.2276
 6423TIP3   OH240903   1.391   6.840   8.665 -0.2093 -0.0014 -0.1138
 6423TIP3    H140904   1.371   6.760   8.713 -0.5558  0.8266  1.1547
 6423TIP3    H240905   1.420   6.902   8.731  1.6510  0.4484 -1.2732
 6424TIP3   OH240906   5.865   2.696   8.800  0.0852  0.2508 -0.4093
 6424TIP3    H140907   5.778   2.685   8.762  0.1050  1.0511 -0.7159
 6424TIP3    H240908   5.914   2.619   8.771 -0.5224 -0.2127 -0.2175
 6425TIP3   OH240909   1.005   4.506   7.773  0.0145  0.1744 -0.0320
 6425TIP3    H140910   1.039   4.525   7.861  0.3588 -1.2804  0.1688
 6425TIP3    H240911   0.939   4.438   7.787 -0.1220  0.1315 -0.8663
 6426TIP3   OH240912   6.197   1.899   2.124 -0.3380  0.0736 -0.2963
 6426TIP3    H140913   6.155   1.985   2.122  0.5828  0.6047  1.2696
 6426TIP3    H240914   6.283   1.913   2.083  0.1853  0.1582  0.7790
 6427TIP3   OH240915   4.965   4.911   6.367 -0.1872 -0.2193 -0.0722
 6427TIP3    H140916   4.921   4.916   6.453 -1.0911  0.3295 -0.5535
 6427TIP3    H240917   4.982   4.817   6.355  0.0613 -0.2904  0.7620
 6428TIP3   OH240918   4.275   5.151   7.650  0.3735 -0.0030 -0.9825
 6428TIP3    H140919   4.190   5.188   7.674  1.2976  1.6706 -0.1052
 6428TIP3    H240920   4.337   5.224   7.659  2.1980 -1.5919  0.1441
 6429TIP3   OH240921   0.080   6.002   1.104 -0.0090 -0.1469  0.0319
 6429TIP3    H140922   0.154   5.997   1.164  1.1149  1.7118 -1.0894
 6429TIP3    H240923   0.060   6.095   1.098 -0.2423 -0.2890 -2.2616
 6430TIP3   OH240924   1.643   6.336   8.283  0.4506  0.0393 -0.1120
 6430TIP3    H140925   1.574   6.271   8.271  0.5781 -0.0290 -0.4841
 6430TIP3    H240926   1.599   6.420   8.278  0.3711 -0.0066 -0.1791
 6431TIP3   OH240927   2.679   6.769   6.529  0.2163 -0.0856 -0.0796
 6431TIP3    H140928   2.759   6.723   6.506  0.9757  0.8397  0.6481
 6431TIP3    H240929   2.610   6.703   6.520  1.5424 -2.3345  3.8377
 6432TIP3   OH240930   2.067   6.458   2.456  0.0641  0.1549  0.0481
 6432TIP3    H140931   1.986   6.467   2.406  0.0337  0.8640  0.2158
 6432TIP3    H240932   2.088   6.547   2.485 -0.5401 -0.3451  2.2679
 6433TIP3   OH240933   1.912   3.794   2.154  0.0337 -0.9539  0.1073
 6433TIP3    H140934   1.865   3.802   2.237  1.3436 -0.0833  0.8093
 6433TIP3    H240935   2.005   3.805   2.178  0.4517 -0.8726 -1.4423
 6434TIP3   OH240936   3.707   5.010   0.456 -0.1942  1.1426 -0.0976
 6434TIP3    H140937   3.626   4.979   0.416 -0.0669  1.3735 -0.5387
 6434TIP3    H240938   3.690   5.008   0.550  0.5806 -2.5220  0.0928
 6435TIP3   OH240939   2.140   3.421   8.702  0.2594 -0.7037  0.6471
 6435TIP3    H140940   2.051   3.389   8.687  0.3336 -0.9496  0.7327
 6435TIP3    H240941   2.137   3.460   8.789 -0.0563  0.3188  0.1856
 6436TIP3   OH240942   2.047   6.487   6.984  0.3750  0.0894  0.3914
 6436TIP3    H140943   2.043   6.432   6.905  0.1146  1.6009 -0.7063
 6436TIP3    H240944   2.119   6.548   6.967 -1.3718  2.1837  0.0728
 6437TIP3   OH240945   4.906   2.419   0.359  0.2599 -0.0297  0.0958
 6437TIP3    H140946   4.834   2.358   0.342 -0.9028  1.4019 -0.4323
 6437TIP3    H240947   4.983   2.378   0.320 -0.5006 -1.1311 -0.2873
 6438TIP3   OH240948   4.575   2.602   7.517 -0.3425  0.0362  0.1693
 6438TIP3    H140949   4.485   2.586   7.545  0.0249 -0.2772  1.2228
 6438TIP3    H240950   4.620   2.630   7.597  0.1960  1.5129 -0.6099
 6439TIP3   OH240951   4.024   6.182   1.857  0.0646  0.6209 -0.0614
 6439TIP3    H140952   4.030   6.266   1.902 -1.8342  2.1455 -2.3914
 6439TIP3    H240953   3.931   6.160   1.859  0.4926 -1.3193  0.2474
 6440TIP3   OH240954   1.236   4.388   7.608 -0.2304 -0.5575 -0.3279
 6440TIP3    H140955   1.208   4.462   7.554  0.4723  0.7256  0.9919
 6440TIP3    H240956   1.292   4.336   7.551 -1.0414 -0.3078 -1.3925
 6441TIP3   OH240957   3.054   4.381   2.243 -0.1726 -0.1218  0.4280
 6441TIP3    H140958   2.967   4.343   2.249 -1.2684  1.8699 -1.3232
 6441TIP3    H240959   3.072   4.386   2.149  0.8867  1.4243  0.6692
 6442TIP3   OH240960   2.227   1.739   7.975  0.1296  0.3810 -0.3338
 6442TIP3    H140961   2.294   1.749   8.043  1.2443  0.2981 -1.3915
 6442TIP3    H240962   2.220   1.826   7.935 -2.0963  1.0210  1.2561
 6443TIP3   OH240963   0.176   6.786   7.393 -0.2885  0.2669  0.4889
 6443TIP3    H140964   0.225   6.730   7.333 -0.4490 -0.0085  0.6130
 6443TIP3    H240965   0.201   6.875   7.368 -1.5445  0.2384 -1.0512
 6444TIP3   OH240966   0.181   4.181   7.375 -0.1166 -0.8679 -0.0408
 6444TIP3    H140967   0.166   4.243   7.446 -1.1634 -1.4473  0.2681
 6444TIP3    H240968   0.098   4.178   7.328  0.9668  0.5647 -2.1823
 6445TIP3   OH240969   6.148   1.649   2.201  0.5416 -0.2540 -0.0593
 6445TIP3    H140970   6.235   1.609   2.194  0.1583 -0.9363 -1.1435
 6445TIP3    H240971   6.164   1.743   2.190  1.0083 -0.4874 -1.5701
 6446TIP3   OH240972   3.080   0.872   8.048  0.3529 -0.0317 -0.0910
 6446TIP3    H140973   3.116   0.863   8.136  1.0440 -0.9249 -0.4388
 6446TIP3    H240974   2.992   0.906   8.061 -0.0909 -1.5151  1.0544
 6447TIP3   OH240975   4.704   6.351   7.574 -0.8111  0.0732 -0.0533
 6447TIP3    H140976   4.649   6.397   7.637 -0.3395  1.7869 -0.8073
 6447TIP3    H240977   4.788   6.395   7.579 -0.2859 -0.8179 -0.7275
 6448TIP3   OH240978   6.171   5.289   1.417 -0.2370  0.4535  0.0013
 6448TIP3    H140979   6.221   5.207   1.414 -0.3432  0.3730  0.3374
 6448TIP3    H240980   6.117   5.280   1.496 -2.9601 -0.7382 -1.8423
 6449TIP3   OH240981   2.297   2.086   8.536  0.0514  0.2331 -1.0059
 6449TIP3    H140982   2.316   2.064   8.628 -0.0938  0.6870 -0.8619
 6449TIP3    H240983   2.235   2.020   8.508 -0.5591  0.5786 -0.5090
 6450TIP3   OH240984   2.425   2.611   1.795  0.1622  0.5875  0.0643
 6450TIP3    H140985   2.392   2.592   1.883 -0.3790 -0.7217 -0.3905
 6450TIP3    H240986   2.508   2.657   1.810  0.0850  0.3752  1.2628
 6451TIP3   OH240987   3.469   0.746   6.943  0.1836 -0.5596  0.0010
 6451TIP3    H140988   3.379   0.739   6.912  0.4933  0.4140 -1.2096
 6451TIP3    H240989   3.489   0.839   6.937  0.6593 -0.4767  2.1410
 6452TIP3   OH240990   5.330   4.301   0.092 -0.0120 -0.8021 -0.0658
 6452TIP3    H140991   5.340   4.286  -0.002  0.4206  2.9560 -0.7942
 6452TIP3    H240992   5.263   4.238   0.120  0.0358 -2.2048 -2.7881
 6453TIP3   OH240993   5.569   0.636   7.477 -0.2318 -0.0881 -0.0511
 6453TIP3    H140994   5.479   0.634   7.447 -0.4000 -1.7199  0.4617
 6453TIP3    H240995   5.598   0.544   7.475  0.6610  0.0799  1.9011
 6454TIP3   OH240996   6.763   0.545   1.292  0.2200 -0.1031 -0.1321
 6454TIP3    H140997   6.810   0.467   1.260 -0.5902 -0.8274  0.3829
 6454TIP3    H240998   6.785   0.614   1.230 -0.0456 -1.0730 -1.3524
 6455TIP3   OH240999   6.712   1.242   0.732 -0.0951  0.4022  0.3775
 6455TIP3    H141000   6.709   1.336   0.751 -0.6441  0.7463 -1.2496
 6455TIP3    H241001   6.641   1.205   0.785 -1.4428  1.2910 -0.6973
 6456TIP3   OH241002   6.078   1.134   0.146  0.1661  0.2647 -0.4269
 6456TIP3    H141003   6.046   1.159   0.233  0.3425  0.8420 -0.5259
 6456TIP3    H241004   6.109   1.044   0.157 -1.6885 -0.4069 -0.3822
 6457TIP3   OH241005   5.809   2.381   8.103 -0.0619  0.0817  0.1053
 6457TIP3    H141006   5.831   2.434   8.180  1.3871  1.7732 -1.3922
 6457TIP3    H241007   5.892   2.342   8.077 -0.4717 -0.1905 -0.8137
 6458TIP3   OH241008   0.906   4.044   2.078  0.4584 -0.0759 -0.2474
 6458TIP3    H141009   0.866   4.061   2.164  0.7660 -0.1331 -0.0930
 6458TIP3    H241010   0.877   4.118   2.024  0.7789  0.3014  0.0814
 6459TIP3   OH241011   6.579   5.172   0.202  0.6699  0.5489  0.5739
 6459TIP3    H141012   6.576   5.140   0.112 -1.1309  0.8092  0.5217
 6459TIP3    H241013   6.659   5.224   0.206  1.3230 -0.3146 -0.5677
 6460TIP3   OH241014   0.421   0.965   1.454 -0.8047  0.5850 -0.6068
 6460TIP3    H141015   0.424   1.060   1.463 -1.2009  0.4506  1.6655
 6460TIP3    H241016   0.350   0.938   1.512  0.0956 -1.1740 -0.2465
 6461TIP3   OH241017   2.627   3.600   7.558  0.1492  0.8267 -0.0914
 6461TIP3    H141018   2.592   3.586   7.646  0.5542 -0.5836 -0.1357
 6461TIP3    H241019   2.689   3.528   7.545 -0.1473  0.8287 -1.6548
 6462TIP3   OH241020   5.884   5.132   1.379 -0.0211  0.0296  0.0909
 6462TIP3    H141021   5.807   5.078   1.393 -0.9479  0.9462 -1.1519
 6462TIP3    H241022   5.930   5.131   1.462 -1.4288 -0.4677  0.8979
 6463TIP3   OH241023   4.183   5.846   6.970 -0.0148 -0.3703 -0.2463
 6463TIP3    H141024   4.222   5.930   6.993 -0.6346 -0.4974  1.4180
 6463TIP3    H241025   4.133   5.862   6.890 -0.5993  0.9818  0.3754
 6464TIP3   OH241026   2.216   0.562   2.063 -0.0183  0.1018  0.0695
 6464TIP3    H141027   2.247   0.568   2.153 -1.8674  2.2074  0.6492
 6464TIP3    H241028   2.184   0.472   2.055 -1.4707  0.3834  2.1180
 6465TIP3   OH241029   0.648   6.833   1.854 -0.0142  0.0373  0.3002
 6465TIP3    H141030   0.556   6.855   1.867  0.1295  0.4673  0.5888
 6465TIP3    H241031   0.690   6.852   1.938  0.6351  1.4181 -0.2939
 6466TIP3   OH241032   4.603   4.604   7.752  0.2545 -0.4665  0.6585
 6466TIP3    H141033   4.518   4.606   7.796  0.4589  1.6731  1.0620
 6466TIP3    H241034   4.666   4.626   7.821  0.9646 -0.5242  0.0352
 6467TIP3   OH241035   0.822   4.155   7.175 -0.2121 -0.1618  0.3553
 6467TIP3    H141036   0.858   4.168   7.087 -0.7176  1.0535  0.3156
 6467TIP3    H241037   0.843   4.064   7.196 -0.5645 -0.6327 -1.2346
 6468TIP3   OH241038   4.917   2.047   0.015 -0.0469 -0.2289  0.1396
 6468TIP3    H141039   4.909   2.005   0.101  0.5148  0.3939  0.5063
 6468TIP3    H241040   4.827   2.060  -0.013 -0.2509 -2.6370 -0.4831
 6469TIP3   OH241041   5.469   0.945   8.794 -0.2897  0.1002 -0.2665
 6469TIP3    H141042   5.419   0.972   8.871  0.9470 -2.7003  1.7078
 6469TIP3    H241043   5.559   0.971   8.814  0.0458 -0.6563 -0.7436
 6470TIP3   OH241044   5.398   6.139   2.302 -0.4545  0.3502  0.2937
 6470TIP3    H141045   5.343   6.215   2.284  0.0657  0.1745 -2.5746
 6470TIP3    H241046   5.487   6.169   2.284 -0.0614 -0.4898  0.7798
 6471TIP3   OH241047   3.145   0.217   8.562 -0.2828  0.5178  0.3438
 6471TIP3    H141048   3.087   0.142   8.574 -1.1001  0.8103 -1.4152
 6471TIP3    H241049   3.203   0.191   8.490  1.0693  0.6543  1.3596
 6472TIP3   OH241050   1.416   0.254   1.903  0.1097 -0.9281  0.0065
 6472TIP3    H141051   1.352   0.325   1.896  0.0327 -0.8709  1.1087
 6472TIP3    H241052   1.406   0.221   1.992 -0.0500 -2.5358 -0.5733
 6473TIP3   OH241053   0.335   6.699   7.142 -0.0246 -0.8064  0.0436
 6473TIP3    H141054   0.415   6.742   7.112 -0.0005 -0.8048  0.1101
 6473TIP3    H241055   0.266   6.735   7.087 -0.3340  0.8996  1.4502
 6474TIP3   OH241056   0.638   2.313   8.265 -0.1671 -0.0645  0.4141
 6474TIP3    H141057   0.704   2.332   8.332 -0.2802 -0.1058  0.5350
 6474TIP3    H241058   0.621   2.398   8.223  2.1600 -0.4804 -1.6308
 6475TIP3   OH241059   1.832   2.414   0.416  0.5059  0.3878  0.9823
 6475TIP3    H141060   1.924   2.438   0.406  0.3518  0.9402  0.8781
 6475TIP3    H241061   1.809   2.374   0.332  0.4073  1.0581  0.6907
 6476TIP3   OH241062   5.801   1.958   2.105 -0.1879  0.4872 -0.5014
 6476TIP3    H141063   5.863   1.915   2.047 -1.7578  0.1880 -2.0593
 6476TIP3    H241064   5.807   1.910   2.187  1.4612  0.3451 -0.6725
 6477TIP3   OH241065   5.433   3.497   8.721 -0.0426  0.5859 -0.9251
 6477TIP3    H141066   5.472   3.458   8.799 -0.7602 -0.5310 -1.0990
 6477TIP3    H241067   5.489   3.571   8.700  0.3731  0.6712  0.4297
 6478TIP3   OH241068   3.512   3.296   0.330 -0.3067 -0.3034 -0.2008
 6478TIP3    H141069   3.436   3.238   0.335 -0.9902  0.6378  2.9974
 6478TIP3    H241070   3.576   3.256   0.390  0.9120  0.0421 -1.2210
 6479TIP3   OH241071   3.915   6.499   1.307 -0.3198  0.5838  0.2457
 6479TIP3    H141072   3.979   6.491   1.377  0.0911 -1.0053 -0.2829
 6479TIP3    H241073   3.943   6.436   1.240 -3.1580 -1.2032  0.5727
 6480TIP3   OH241074   0.282   2.540   7.352  0.2983  0.3625 -0.5003
 6480TIP3    H141075   0.357   2.485   7.331 -0.7586 -0.8635 -1.2577
 6480TIP3    H241076   0.229   2.541   7.272 -0.4718  1.2248 -0.0095
 6481TIP3   OH241077   0.096   3.889   7.385 -0.1570 -0.4873  0.4961
 6481TIP3    H141078   0.158   3.915   7.318 -1.2067  0.8414  0.0092
 6481TIP3    H241079   0.033   3.961   7.391 -2.0409 -2.0264  0.5079
 6482TIP3   OH241080   0.283   3.510   8.184  0.1411 -0.1498  0.5715
 6482TIP3    H141081   0.327   3.457   8.250 -1.2432 -0.9182  0.9318
 6482TIP3    H241082   0.256   3.446   8.117  0.2495  0.4120 -0.0195
 6483TIP3   OH241083   4.541   2.224   1.268  0.0064  0.0332 -0.3033
 6483TIP3    H141084   4.603   2.152   1.282 -0.4411 -0.2585  0.2083
 6483TIP3    H241085   4.501   2.204   1.183  0.5722  0.1971 -0.6137
 6484TIP3   OH241086   0.641   1.082   7.666 -0.3686  0.2372 -0.4445
 6484TIP3    H141087   0.690   1.156   7.702 -0.2591  0.6093 -1.3227
 6484TIP3    H241088   0.552   1.094   7.699 -0.2622  0.5538 -0.2684
 6485TIP3   OH241089   2.487   3.174   1.526 -0.3791 -0.6268  0.0875
 6485TIP3    H141090   2.510   3.244   1.586 -1.1602 -0.3201  0.0345
 6485TIP3    H241091   2.512   3.094   1.572  2.8598 -0.2965 -0.8294
 6486TIP3   OH241092   1.942   2.378   6.614 -0.6878  0.0706 -0.9519
 6486TIP3    H141093   1.940   2.474   6.611  0.5641  0.1490 -0.1816
 6486TIP3    H241094   2.035   2.356   6.605 -1.1087 -1.1637 -2.7919
 6487TIP3   OH241095   0.661   6.516   2.212  0.1188  0.1199  1.3053
 6487TIP3    H141096   0.756   6.519   2.202  0.1055  0.4756  1.2759
 6487TIP3    H241097   0.635   6.607   2.223 -0.5411  0.4343 -1.7418
 6488TIP3   OH241098   6.632   0.950   1.340 -0.0041  0.5434  0.4593
 6488TIP3    H141099   6.716   0.905   1.333 -0.3793 -0.1620  0.3975
 6488TIP3    H241100   6.637   1.000   1.421  0.2730  0.0738  0.7300
 6489TIP3   OH241101   3.265   4.177   0.440 -0.0350 -0.4540 -0.7770
 6489TIP3    H141102   3.170   4.188   0.445  0.1463  0.7494  0.7372
 6489TIP3    H241103   3.295   4.257   0.397  0.2770 -1.1142 -1.8374
 6490TIP3   OH241104   2.778   1.292   1.246  0.1339 -0.5542  0.5168
 6490TIP3    H141105   2.838   1.349   1.295 -0.3764 -0.7438  1.3797
 6490TIP3    H241106   2.835   1.232   1.198  0.7603  1.6969 -1.7429
 6491TIP3   OH241107   4.830   2.650   2.010  0.5261  0.1866  0.0127
 6491TIP3    H141108   4.746   2.646   2.056  1.3361  1.3258  1.7253
 6491TIP3    H241109   4.856   2.742   2.016  1.1530  0.1811 -1.9398
 6492TIP3   OH241110   6.725   0.295   8.816  0.4832  0.4690 -0.5561
 6492TIP3    H141111   6.760   0.266   8.731 -1.8078 -1.5482 -0.8928
 6492TIP3    H241112   6.702   0.215   8.862  0.3229  1.5862  1.4344
 6493TIP3   OH241113   2.632   4.731   8.540  0.0572 -0.6109  0.1390
 6493TIP3    H141114   2.657   4.642   8.565 -1.2181 -1.2167 -0.6184
 6493TIP3    H241115   2.569   4.758   8.607 -0.9542 -1.0181 -0.6130
 6494TIP3   OH241116   2.104   2.520   7.456  0.4516  0.3875 -0.0683
 6494TIP3    H141117   2.153   2.445   7.423  0.6803  1.5849 -2.6985
 6494TIP3    H241118   2.039   2.483   7.516  0.3569 -1.9308 -1.5047
 6495TIP3   OH241119   2.373   1.571   8.726  0.2897  0.4817  0.0534
 6495TIP3    H141120   2.399   1.640   8.664 -0.6602  0.5393 -0.3147
 6495TIP3    H241121   2.350   1.619   8.806  2.4440  0.3288  0.8117
 6496TIP3   OH241122   6.310   6.748   2.109 -0.4710  0.0135  0.2759
 6496TIP3    H141123   6.274   6.689   2.043 -1.7503  1.3521 -0.2904
 6496TIP3    H241124   6.401   6.721   2.118  0.2171  0.6502 -3.1346
 6497TIP3   OH241125   5.266   2.647   6.657  0.7420 -0.8254 -0.1098
 6497TIP3    H141126   5.299   2.659   6.568  2.3887 -1.8233  0.3112
 6497TIP3    H241127   5.236   2.733   6.685  2.1481 -0.0513 -0.9035
 6498TIP3   OH241128   6.804   6.101   1.812  0.6310  0.0151  0.6622
 6498TIP3    H141129   6.710   6.106   1.794  0.8444  1.2458 -0.1991
 6498TIP3    H241130   6.811   6.119   1.906  0.1485  2.1802  0.3465
 6499TIP3   OH241131   5.412   2.227   0.553  0.9959  0.3258 -0.2545
 6499TIP3    H141132   5.498   2.186   0.542  2.5422  2.9279  1.1053
 6499TIP3    H241133   5.382   2.242   0.464  1.4987 -1.4605 -0.7601
 6500TIP3   OH241134   0.910   3.359   7.915 -0.1273 -0.2733 -0.1002
 6500TIP3    H141135   0.920   3.266   7.893 -0.5833 -0.2318 -0.4963
 6500TIP3    H241136   0.816   3.370   7.928 -0.1710  0.3234 -0.9151
 6501TIP3   OH241137   4.891   3.881   7.646 -0.8478  0.5889 -0.0988
 6501TIP3    H141138   4.910   3.856   7.737 -1.0797  0.5143 -0.0699
 6501TIP3    H241139   4.973   3.865   7.599 -1.1597 -0.8367 -0.2108
 6502TIP3   OH241140   2.282   1.683   0.126 -0.0060 -0.0817  0.3339
 6502TIP3    H141141   2.314   1.772   0.115 -0.7725  0.1217 -0.4156
 6502TIP3    H241142   2.269   1.673   0.221 -0.7841  0.9279  0.3491
 6503TIP3   OH241143   6.020   0.265   0.457  0.0493  0.1272 -0.5674
 6503TIP3    H141144   6.081   0.257   0.384 -0.0394  1.0725 -0.7652
 6503TIP3    H241145   5.968   0.343   0.436 -0.4545  0.0011  0.1600
 6504TIP3   OH241146   0.096   6.706   8.115 -0.3091  0.0185 -0.1132
 6504TIP3    H141147   0.175   6.681   8.163  0.3527 -0.1449 -1.2473
 6504TIP3    H241148   0.128   6.756   8.040 -1.4277  1.9179  0.5958
 6505TIP3   OH241149   4.154   5.987   0.536 -0.1129 -0.5416  0.3534
 6505TIP3    H141150   4.180   5.982   0.627  0.7196 -0.7636  0.1120
 6505TIP3    H241151   4.175   5.900   0.500  2.6098  0.4793 -0.8215
 6506TIP3   OH241152   3.408   0.927   8.521  0.6046  0.1301 -0.1244
 6506TIP3    H141153   3.448   1.013   8.537  1.1124 -0.2268  0.5558
 6506TIP3    H241154   3.447   0.870   8.587 -0.8339 -0.2942  0.3791
 6507TIP3   OH241155   6.104   0.208   8.654  0.2410 -0.1558 -0.2178
 6507TIP3    H141156   6.017   0.193   8.618 -0.5365  0.8526  1.1264
 6507TIP3    H241157   6.092   0.201   8.749  0.6924  3.8408  0.3124
 6508TIP3   OH241158   2.646   1.489   7.277 -0.3293  0.1100  0.2638
 6508TIP3    H141159   2.574   1.426   7.269 -0.3259 -0.2225  2.2033
 6508TIP3    H241160   2.709   1.463   7.210 -1.0257 -0.9837  0.0128
 6509TIP3   OH241161   3.039   2.873   8.175 -0.3655  0.5711 -0.1503
 6509TIP3    H141162   2.967   2.815   8.198 -0.3773  0.8127  0.4388
 6509TIP3    H241163   3.027   2.950   8.231  0.0317  0.8503 -0.4424
 6510TIP3   OH241164   0.006   4.105   7.607 -0.0799 -0.0257 -0.3290
 6510TIP3    H141165  -0.081   4.087   7.571 -1.3129  1.7811  1.5204
 6510TIP3    H241166   0.004   4.198   7.629  3.0013  0.5210 -1.8671
 6511TIP3   OH241167   3.639   0.878   0.555 -0.1219  0.2191 -0.5075
 6511TIP3    H141168   3.732   0.893   0.543 -0.0182  1.8088  1.6614
 6511TIP3    H241169   3.632   0.784   0.574  0.7471 -0.3043 -2.4662
 6512TIP3   OH241170   1.515   0.240   0.964 -0.4705 -0.3313 -0.0784
 6512TIP3    H141171   1.551   0.288   0.890  1.2252 -2.3937 -0.7073
 6512TIP3    H241172   1.420   0.239   0.949 -0.2177 -0.1717 -1.9012
 6513TIP3   OH241173   1.706   2.908   0.615  0.2536  0.2733 -0.1057
 6513TIP3    H141174   1.752   2.882   0.535 -1.9351 -0.2597 -1.2880
 6513TIP3    H241175   1.641   2.971   0.585  1.0157  1.9878  1.6995
 6514TIP3   OH241176   6.002   0.465   6.432  0.4637 -0.2648  0.0991
 6514TIP3    H141177   6.069   0.533   6.429  0.7072 -0.4064  1.3750
 6514TIP3    H241178   6.049   0.387   6.463 -0.2847 -0.3426  1.0968
 6515TIP3   OH241179   5.909   2.591   0.536 -0.0572 -0.3950  0.4494
 6515TIP3    H141180   5.874   2.670   0.578 -0.5774 -1.1509  1.4858
 6515TIP3    H241181   5.920   2.616   0.444  2.1362  1.6803  1.1499
 6516TIP3   OH241182   1.833   1.381   2.006 -0.1474  0.4828  0.1521
 6516TIP3    H141183   1.894   1.338   2.065 -0.7708  1.2478  1.4012
 6516TIP3    H241184   1.752   1.330   2.014 -0.3173  0.7544  0.1696
 6517TIP3   OH241185   2.927   3.175   1.703  0.7295  0.0873  0.0460
 6517TIP3    H141186   2.839   3.204   1.680  0.0561 -0.5251  1.6753
 6517TIP3    H241187   2.966   3.148   1.620 -1.7050 -2.5003 -0.4139
 6518TIP3   OH241188   5.396   0.968   6.535  0.2349 -0.5362 -0.1059
 6518TIP3    H141189   5.304   0.951   6.557 -0.7949  0.4508 -3.0942
 6518TIP3    H241190   5.400   1.063   6.524  2.1990 -0.3059  1.9456
 6519TIP3   OH241191   6.463   0.201   0.193 -0.1517  0.0255 -0.4232
 6519TIP3    H141192   6.468   0.152   0.111  2.9802  1.2458 -1.1035
 6519TIP3    H241193   6.533   0.164   0.247  0.3317  1.7205  0.1861
 6520TIP3   OH241194   0.047   5.687   1.422 -0.1329 -0.2819 -0.3941
 6520TIP3    H141195  -0.036   5.701   1.467 -1.6244 -1.3045 -2.6438
 6520TIP3    H241196   0.096   5.768   1.436 -0.5661 -0.4366  2.7273
 6521TIP3   OH241197   5.911   0.949   7.699  0.3320  0.3015  0.0837
 6521TIP3    H141198   5.995   0.917   7.666  0.2318 -0.3878  0.4792
 6521TIP3    H241199   5.846   0.889   7.661 -0.0322  1.1072 -0.5926
 6522TIP3   OH241200   6.554   2.661   2.049  0.1484 -0.6995 -0.5630
 6522TIP3    H141201   6.500   2.606   2.106 -0.2700 -1.0345 -1.2712
 6522TIP3    H241202   6.548   2.620   1.963  3.1142 -1.9357 -0.3319
 6523TIP3   OH241203   2.634   2.453   8.363 -0.4913  0.3988  0.0184
 6523TIP3    H141204   2.685   2.526   8.329 -0.2933  0.2793  0.0603
 6523TIP3    H241205   2.543   2.478   8.345 -0.5294  1.3383  1.3718
 6524TIP3   OH241206   3.511   3.219   2.658  0.3348 -0.1722  0.1664
 6524TIP3    H141207   3.562   3.212   2.578 -0.9281  0.4922 -0.7164
 6524TIP3    H241208   3.557   3.286   2.710  1.2752 -0.7602  0.1306
 6525TIP3   OH241209   1.248   3.241   2.201  0.0091  0.7921  0.0854
 6525TIP3    H141210   1.155   3.246   2.225  0.2788  0.2393  1.2841
 6525TIP3    H241211   1.281   3.330   2.215 -0.2144  0.8605  0.1856
 6526TIP3   OH241212   6.061   3.276   8.063  0.3983 -0.2023  0.2072
 6526TIP3    H141213   6.098   3.330   7.993  1.0140 -1.4141 -0.4383
 6526TIP3    H241214   6.137   3.252   8.117 -0.1817  1.3695  1.7724
 6527TIP3   OH241215   6.401   2.496   0.762  0.1885  0.1043  0.4414
 6527TIP3    H141216   6.308   2.498   0.740  0.3299  1.5368 -0.1681
 6527TIP3    H241217   6.408   2.546   0.843  0.4530  0.1546  0.3884
 6528TIP3   OH241218   3.067   3.178   1.468  0.0282 -0.3186 -0.9211
 6528TIP3    H141219   3.101   3.124   1.397 -0.1992  0.0983 -1.3532
 6528TIP3    H241220   2.996   3.228   1.428 -2.5467 -2.6270  0.3999
 6529TIP3   OH241221   0.433   6.614   7.626  0.7902 -0.3575  0.4102
 6529TIP3    H141222   0.475   6.675   7.566 -0.8487 -0.8429 -1.2993
 6529TIP3    H241223   0.450   6.528   7.589 -0.4893 -0.6447  0.4391
 6530TIP3   OH241224   0.626   3.895   2.590 -0.1847  0.3532  0.3751
 6530TIP3    H141225   0.541   3.939   2.590 -1.6935 -2.3170 -0.6395
 6530TIP3    H241226   0.686   3.958   2.631 -2.7532  2.0757  1.7439
 6531TIP3   OH241227   0.300   0.556   8.316 -0.3854 -0.6857  0.0844
 6531TIP3    H141228   0.243   0.483   8.339 -0.4324 -0.5986  0.2474
 6531TIP3    H241229   0.312   0.603   8.398 -1.6063  0.3726 -0.3074
 6532TIP3   OH241230   2.445   6.310   8.265 -0.2863 -0.0097 -0.3839
 6532TIP3    H141231   2.410   6.290   8.178  0.5731 -2.0123 -0.3285
 6532TIP3    H241232   2.510   6.379   8.249 -0.9967  0.5144 -1.1242
 6533TIP3   OH241233   0.942   2.400   7.891 -0.0299  0.2324 -0.0960
 6533TIP3    H141234   0.948   2.318   7.940 -1.5369 -0.6617 -1.3260
 6533TIP3    H241235   0.880   2.453   7.940 -0.3411 -0.0367 -0.1964
 6534TIP3   OH241236   2.062   2.973   0.919  0.3039 -0.2141  0.0159
 6534TIP3    H141237   2.045   2.943   0.829 -0.7994 -2.1923  0.8089
 6534TIP3    H241238   2.004   2.920   0.973  1.8913 -0.0246  2.0364
 6535TIP3   OH241239   1.187   6.119   7.414  0.3995  0.1312  0.0363
 6535TIP3    H141240   1.192   6.086   7.325  0.4464 -0.4609  0.2578
 6535TIP3    H241241   1.278   6.139   7.437  0.4443 -0.1776  0.1261
 6536TIP3   OH241242   2.961   6.761   8.341  0.3628 -0.2648 -0.3557
 6536TIP3    H141243   3.015   6.815   8.283  1.5810 -1.1829 -0.1281
 6536TIP3    H241244   2.898   6.822   8.379 -0.3576  0.4005 -2.4688
 6537TIP3   OH241245   4.426   3.647   0.108 -0.2732  0.0048 -0.0026
 6537TIP3    H141246   4.358   3.603   0.160  0.4895 -0.7183  0.4092
 6537TIP3    H241247   4.450   3.583   0.041  2.4881 -1.2493  1.9947
 6538TIP3   OH241248   2.883   4.249   1.580  0.0487 -0.0387  0.8058
 6538TIP3    H141249   2.964   4.271   1.625 -0.6366  0.5502  1.7880
 6538TIP3    H241250   2.820   4.315   1.610 -1.2866 -1.5637  1.5274
 6539TIP3   OH241251   6.507   6.310   1.134 -0.2081 -0.8846 -0.0978
 6539TIP3    H141252   6.416   6.333   1.154 -0.2711 -0.1446 -1.1910
 6539TIP3    H241253   6.552   6.319   1.218 -0.4543  2.2764 -0.2045
 6540TIP3   OH241254   0.036   3.903   1.664 -0.1990 -0.1361  0.1445
 6540TIP3    H141255   0.010   3.897   1.756  1.3350  2.8572  0.9066
 6540TIP3    H241256  -0.046   3.912   1.616 -0.9890 -0.9454  1.3142
 6541TIP3   OH241257   5.144   0.856   1.240 -0.4355  0.3699  0.0433
 6541TIP3    H141258   5.129   0.909   1.162  1.8477 -0.0286 -0.7507
 6541TIP3    H241259   5.064   0.863   1.291 -1.8518  0.9579 -2.1653
 6542TIP3   OH241260   0.505   4.894   7.329 -0.5426 -0.3736 -0.3507
 6542TIP3    H141261   0.413   4.878   7.308 -0.8858  1.8611 -0.7684
 6542TIP3    H241262   0.552   4.864   7.251 -1.1676  0.7889 -1.2133
 6543TIP3   OH241263   5.963   2.518   1.997  0.2207 -0.3493 -0.1090
 6543TIP3    H141264   6.012   2.563   2.066  1.4037 -1.4169 -0.2291
 6543TIP3    H241265   5.890   2.476   2.043 -1.3071  2.1179 -0.0679
 6544TIP3   OH241266   5.967   6.168   8.470 -0.2218  0.3685 -0.0528
 6544TIP3    H141267   6.020   6.150   8.392 -0.4052 -0.2679 -0.0430
 6544TIP3    H241268   6.017   6.130   8.542 -1.3437 -1.5743 -0.2273
 6545TIP3   OH241269   3.210   0.400   7.482 -0.3229 -0.1738  0.1327
 6545TIP3    H141270   3.235   0.339   7.552 -0.9361 -1.1933 -0.5106
 6545TIP3    H241271   3.226   0.487   7.518 -0.4476 -0.6914  1.4658
 6546TIP3   OH241272   2.618   5.418   0.335  0.4650 -0.4203  0.2924
 6546TIP3    H141273   2.665   5.418   0.252  0.3733  2.6749  0.1346
 6546TIP3    H241274   2.683   5.444   0.400 -0.2175  0.5783  0.6032
 6547TIP3   OH241275   0.016   0.116   7.600  0.1828 -0.2318  0.7323
 6547TIP3    H141276  -0.048   0.134   7.669  1.8062  0.1735  2.2030
 6547TIP3    H241277  -0.028   0.143   7.519 -1.6196 -0.3147  1.6186
 6548TIP3   OH241278   1.299   3.299   1.910  0.0609  0.1577  0.0880
 6548TIP3    H141279   1.246   3.367   1.868  0.6947  0.6739  0.1029
 6548TIP3    H241280   1.387   3.337   1.914 -0.0194  0.2154  2.0698
 6549TIP3   OH241281   3.907   0.483   6.726 -0.4541 -0.0303  0.9915
 6549TIP3    H141282   3.850   0.428   6.780  0.1855 -0.6533  1.0486
 6549TIP3    H241283   3.977   0.510   6.785  0.0096 -0.3499  0.5978
 6550TIP3   OH241284   4.643   2.319   1.751  0.1951  0.1648  0.2016
 6550TIP3    H141285   4.593   2.360   1.821  0.6281  0.4652  0.3385
 6550TIP3    H241286   4.623   2.225   1.759 -0.2477  0.2698  0.3294
 6551TIP3   OH241287   2.960   1.319   6.535  0.0630  0.0155  0.0788
 6551TIP3    H141288   2.889   1.382   6.528 -0.3689 -0.3027  1.2451
 6551TIP3    H241289   2.985   1.300   6.445 -1.0303  0.4691 -0.3345
 6552TIP3   OH241290   6.048   1.152   8.446 -0.0430 -0.9147  0.2997
 6552TIP3    H141291   6.064   1.067   8.404  0.2829 -0.5241 -0.3769
 6552TIP3    H241292   5.953   1.162   8.441  0.1303  0.2626 -2.6932
 6553TIP3   OH241293   5.863   0.067   7.155  0.6353 -0.2360 -0.3912
 6553TIP3    H141294   5.923   0.141   7.158 -1.1771  1.3978 -1.9336
 6553TIP3    H241295   5.808   0.077   7.233  0.8188 -0.3474 -0.2473
 6554TIP3   OH241296   3.266   5.013   0.534 -0.3570  0.6116 -0.7148
 6554TIP3    H141297   3.243   4.956   0.607  0.3404 -0.2284 -1.1297
 6554TIP3    H241298   3.184   5.057   0.511 -0.6114  0.8142  0.4914
 6555TIP3   OH241299   3.865   4.854   0.913  0.7047  0.1517  0.0438
 6555TIP3    H141300   3.846   4.806   0.994  2.1803  0.2503  0.4805
 6555TIP3    H241301   3.884   4.943   0.942  1.9126  0.0305 -0.3032
 6556TIP3   OH241302   4.454   3.461   2.504 -0.3084 -0.7566  0.1416
 6556TIP3    H141303   4.440   3.528   2.437 -1.0893  0.0257  1.0519
 6556TIP3    H241304   4.372   3.460   2.555  0.6192 -0.6170  1.6957
 6557TIP3   OH241305   4.461   5.315   1.979  0.6324  0.1411 -0.5276
 6557TIP3    H141306   4.481   5.403   2.012  0.9352 -0.2754  0.4237
 6557TIP3    H241307   4.545   5.270   1.978  0.5975  0.0649 -1.6875
 6558TIP3   OH241308   6.652   4.580   1.084  0.0419 -0.4438  0.3275
 6558TIP3    H141309   6.699   4.506   1.122 -2.5229 -2.1471  0.3922
 6558TIP3    H241310   6.564   4.576   1.122 -0.4958  2.0538 -0.4377
 6559TIP3   OH241311   0.820   3.625   1.142  0.4188 -0.1279  0.5022
 6559TIP3    H141312   0.735   3.611   1.183 -1.4795  1.7972 -2.4072
 6559TIP3    H241313   0.842   3.540   1.104 -0.2763 -0.6215  1.1707
 6560TIP3   OH241314   3.557   3.943   0.545  0.1488  0.1901  0.7356
 6560TIP3    H141315   3.613   3.871   0.518  2.0898  2.4654 -1.7382
 6560TIP3    H241316   3.592   3.970   0.630 -1.1572 -2.1751  2.1413
 6561TIP3   OH241317   1.534   1.062   8.712 -0.7630  0.6744 -0.2133
 6561TIP3    H141318   1.452   1.013   8.707 -1.0098  1.1364 -0.8258
 6561TIP3    H241319   1.508   1.154   8.704  0.0442  0.7403 -4.6250
 6562TIP3   OH241320   5.146   0.372   6.571 -0.1758 -0.2041 -0.4360
 6562TIP3    H141321   5.060   0.415   6.563  0.6310  1.3541 -1.1990
 6562TIP3    H241322   5.131   0.300   6.632 -1.6382  1.1126  0.8637
 6563TIP3   OH241323   5.718   0.572   0.561 -0.2630  0.6361 -0.9793
 6563TIP3    H141324   5.692   0.662   0.543 -0.3291  0.7929 -0.1078
 6563TIP3    H241325   5.812   0.578   0.578 -0.4010  0.6578 -0.1872
 6564TIP3   OH241326   0.671   3.071   2.199 -0.6091  0.7361 -0.0704
 6564TIP3    H141327   0.693   3.132   2.269 -1.0012  0.6137  0.1638
 6564TIP3    H241328   0.640   2.993   2.245 -0.5135  0.5192 -0.3751
 6565TIP3   OH241329   3.355   1.250   7.693  0.2370  0.1383  0.5223
 6565TIP3    H141330   3.273   1.207   7.668  0.5591 -1.0411  1.4083
 6565TIP3    H241331   3.331   1.341   7.709 -0.5662  0.1921 -0.8970
 6566TIP3   OH241332   2.358   0.532   1.595  0.1463 -0.1619 -0.0912
 6566TIP3    H141333   2.294   0.576   1.539 -0.9708  1.2512  2.1352
 6566TIP3    H241334   2.443   0.561   1.563 -0.5061  1.6202 -0.2925
 6567TIP3   OH241335   4.002   5.065   6.950 -0.3138 -0.2341  0.1179
 6567TIP3    H141336   3.950   5.141   6.977  1.6115  0.5826  1.7693
 6567TIP3    H241337   4.029   5.085   6.860 -2.4498 -0.5055 -0.6317
 6568TIP3   OH241338   0.328   0.903   0.952 -0.1306 -0.2067 -0.2545
 6568TIP3    H141339   0.258   0.965   0.976  0.9022  0.4031  1.3625
 6568TIP3    H241340   0.358   0.868   1.036 -0.4411 -2.6843 -1.1056
 6569TIP3   OH241341   1.966   3.825   8.289  0.0034  0.4275 -0.0438
 6569TIP3    H141342   1.890   3.880   8.307  1.0777  1.3490  2.1376
 6569TIP3    H241343   2.026   3.882   8.240 -0.9774 -0.5829 -2.6008
 6570TIP3   OH241344   5.767   4.791   7.270  0.0447 -0.8979 -0.3944
 6570TIP3    H141345   5.675   4.780   7.245  0.5278 -1.8723 -1.8280
 6570TIP3    H241346   5.789   4.712   7.318  0.0564 -0.5099  0.2568
 6571TIP3   OH241347   0.332   6.238   0.325 -0.2922 -0.6682 -0.0393
 6571TIP3    H141348   0.365   6.268   0.409 -0.7381 -0.6304  0.1261
 6571TIP3    H241349   0.386   6.162   0.304  0.1608 -0.3740  0.0305
 6572TIP3   OH241350   2.359   6.591   2.194 -0.5487  0.2923 -0.2864
 6572TIP3    H141351   2.330   6.669   2.147  2.3642  1.7693  0.0931
 6572TIP3    H241352   2.365   6.619   2.286 -0.5578 -0.7446  0.0424
 6573TIP3   OH241353   1.741   6.194   8.554  0.0160 -0.5516  0.5955
 6573TIP3    H141354   1.679   6.246   8.605 -2.8389 -0.4920 -2.5255
 6573TIP3    H241355   1.799   6.259   8.513  0.9791 -0.4625  2.0329
 6574TIP3   OH241356   3.669   1.367   7.268 -0.1622  0.1256 -0.2557
 6574TIP3    H141357   3.645   1.290   7.215  0.6267 -0.4306  0.1751
 6574TIP3    H241358   3.669   1.440   7.205 -1.4277 -0.1141 -0.5702
 6575TIP3   OH241359   6.296   0.938   1.564 -0.0680  0.0804 -0.3560
 6575TIP3    H141360   6.348   0.864   1.594 -1.4441 -0.5487  0.5615
 6575TIP3    H241361   6.252   0.970   1.642 -0.5258  1.0448 -0.9797
 6576TIP3   OH241362   0.126   0.351   8.435  0.0021  0.0855 -0.1177
 6576TIP3    H141363   0.120   0.304   8.518 -0.0646 -0.0263 -0.1855
 6576TIP3    H241364   0.091   0.289   8.370  1.8459 -0.5853 -0.5444
 6577TIP3   OH241365   0.807   3.723   0.867  0.2725  0.3335 -0.8386
 6577TIP3    H141366   0.835   3.810   0.839 -1.6000  0.5544 -2.1774
 6577TIP3    H241367   0.807   3.728   0.963 -1.4754  2.4121 -0.8865
 6578TIP3   OH241368   6.293   6.594   1.198 -0.1754  0.3378 -0.1071
 6578TIP3    H141369   6.216   6.648   1.215 -0.0017  0.9597 -1.2199
 6578TIP3    H241370   6.274   6.551   1.115  1.0254  1.1422 -0.8133
 6579TIP3   OH241371   3.568   6.515   7.245 -0.3258  0.5444  0.4680
 6579TIP3    H141372   3.653   6.472   7.233  0.9293  2.6220  1.3974
 6579TIP3    H241373   3.515   6.482   7.172  1.7111  0.1982 -0.9695
 6580TIP3   OH241374   2.868   5.647   8.308  0.2346 -0.4670 -0.1866
 6580TIP3    H141375   2.929   5.576   8.329 -1.1639 -1.5497  0.4444
 6580TIP3    H241376   2.921   5.726   8.308  1.4318 -1.2235  1.4212
 6581TIP3   OH241377   6.116   4.481   6.863 -0.1631  0.2910 -0.4148
 6581TIP3    H141378   6.063   4.512   6.788 -1.2369  0.6859  0.4762
 6581TIP3    H241379   6.073   4.401   6.891 -1.1814  1.3295  1.1795
 6582TIP3   OH241380   0.700   0.863   7.171 -0.1312 -0.0803  0.2392
 6582TIP3    H141381   0.792   0.846   7.191  0.0292  1.3889  0.8903
 6582TIP3    H241382   0.701   0.893   7.080 -0.0135 -0.3489  0.1500
 6583TIP3   OH241383   2.559   5.212   7.214 -0.4816 -0.4793 -0.4459
 6583TIP3    H141384   2.518   5.246   7.294 -1.8801 -0.2019 -1.2315
 6583TIP3    H241385   2.603   5.287   7.176  2.9972 -1.2429  1.5822
 6584TIP3   OH241386   1.785   6.490   0.756  0.1160 -0.3043 -0.0301
 6584TIP3    H141387   1.740   6.484   0.840  0.5288 -0.4954  0.1801
 6584TIP3    H241388   1.715   6.486   0.690 -0.2529  0.3568  0.3144
 6585TIP3   OH241389   5.047   2.894   0.198 -0.6167  0.1681 -0.8189
 6585TIP3    H141390   5.106   2.922   0.267 -2.1800  2.5674 -0.3264
 6585TIP3    H241391   5.029   2.802   0.217 -0.1912  0.4917  1.3530
 6586TIP3   OH241392   2.262   2.711   2.340 -0.0900 -0.1843  0.4728
 6586TIP3    H141393   2.187   2.770   2.348 -0.5555 -0.7111  0.0742
 6586TIP3    H241394   2.324   2.757   2.284  0.5403  0.8901  1.9881
 6587TIP3   OH241395   3.390   5.213   1.889  0.0126 -0.2531 -0.1729
 6587TIP3    H141396   3.371   5.292   1.940 -2.2368  0.5777 -2.1316
 6587TIP3    H241397   3.465   5.173   1.934  0.8384  2.6392  1.2548
 6588TIP3   OH241398   3.884   0.757   7.168  0.5654  0.0743 -0.2565
 6588TIP3    H141399   3.877   0.746   7.262 -2.8603  1.0783 -0.2679
 6588TIP3    H241400   3.937   0.837   7.157 -2.2806  2.3305  1.1189
 6589TIP3   OH241401   4.258   4.470   1.578 -0.0711  0.1641 -0.1643
 6589TIP3    H141402   4.301   4.427   1.504 -0.7955 -0.5232 -0.2111
 6589TIP3    H241403   4.314   4.544   1.599  1.0502 -0.6042 -0.3087
 6590TIP3   OH241404   0.133   3.414   2.068  0.1235 -0.0952  0.1589
 6590TIP3    H141405   0.122   3.324   2.037  0.2895  0.0316 -0.2770
 6590TIP3    H241406   0.113   3.409   2.161  0.5713 -0.6725  0.2332
 6591TIP3   OH241407   1.477   3.512   0.100  0.4657 -0.0469 -0.4302
 6591TIP3    H141408   1.552   3.572   0.097  0.7607 -0.4502 -1.5013
 6591TIP3    H241409   1.441   3.514   0.011 -2.7749  2.5694  0.7262
 6592TIP3   OH241410   1.504   1.938   0.462 -0.2219 -0.4409 -0.0864
 6592TIP3    H141411   1.437   1.995   0.423 -1.8667 -1.9550  0.3634
 6592TIP3    H241412   1.516   1.868   0.398  0.2896 -0.6333  0.2191
 6593TIP3   OH241413   3.026   6.566   0.718  0.0719  0.5687  0.2120
 6593TIP3    H141414   2.994   6.630   0.781  0.2028 -0.8173  1.7547
 6593TIP3    H241415   2.958   6.498   0.716  0.9827 -0.3660  0.3773
 6594TIP3   OH241416   2.472   1.259   7.182  0.0331 -0.1712 -0.1181
 6594TIP3    H141417   2.485   1.170   7.151  1.3409 -0.5989  1.4933
 6594TIP3    H241418   2.395   1.291   7.134  0.4080 -1.6371 -1.7756
 6595TIP3   OH241419   4.876   5.208   8.583 -0.7391  0.1540 -0.0603
 6595TIP3    H141420   4.966   5.224   8.611 -0.2705 -0.9715 -0.8722
 6595TIP3    H241421   4.824   5.272   8.632  0.3103 -0.1917  1.5692
 6596TIP3   OH241422   5.250   6.097   0.494 -0.1689  0.3662 -0.3280
 6596TIP3    H141423   5.294   6.013   0.509 -0.1934 -0.5204 -4.2184
 6596TIP3    H241424   5.295   6.158   0.553  1.0495 -1.9661  1.3495
 6597TIP3   OH241425   0.773   4.863   7.456  0.1088  0.2090 -0.3156
 6597TIP3    H141426   0.719   4.872   7.377  0.9206 -0.8307 -1.0160
 6597TIP3    H241427   0.769   4.770   7.477 -1.3048  0.6761  1.7812
 6598TIP3   OH241428   4.490   3.586   1.755  0.4125  0.3869 -0.3289
 6598TIP3    H141429   4.466   3.496   1.777  0.6812  0.1958 -0.7984
 6598TIP3    H241430   4.553   3.611   1.823 -0.3348  0.5444  0.3266
 6599TIP3   OH241431   1.746   6.634   7.152  0.6839 -0.0363  0.1118
 6599TIP3    H141432   1.835   6.614   7.178  1.1368  1.3822 -0.2546
 6599TIP3    H241433   1.726   6.716   7.197  0.0894  0.4125 -0.9292
 6600TIP3   OH241434   3.060   3.692   8.417 -0.1244 -0.3992 -0.1131
 6600TIP3    H141435   3.147   3.673   8.382  0.1491 -0.5856  0.6315
 6600TIP3    H241436   3.036   3.613   8.465 -0.0304  0.2191  0.9828
 6601TIP3   OH241437   5.196   4.604   0.520  0.0344  0.0902 -0.1067
 6601TIP3    H141438   5.233   4.681   0.477  0.7218  1.1765  2.3214
 6601TIP3    H241439   5.232   4.530   0.471  1.8855  1.2225 -0.5366
 6602TIP3   OH241440   3.048   0.562   6.723 -0.0670  0.4523  0.0615
 6602TIP3    H141441   3.006   0.618   6.659 -0.7739 -0.9457 -0.7457
 6602TIP3    H241442   3.007   0.476   6.711  1.8815 -0.5821  0.3437
 6603TIP3   OH241443   5.944   4.265   0.393 -0.7505 -0.0624 -0.5168
 6603TIP3    H141444   5.849   4.254   0.398 -0.9956  2.1513  0.8659
 6603TIP3    H241445   5.979   4.192   0.445 -1.7564 -0.0591  0.2032
 6604TIP3   OH241446   1.494   3.079   7.491  0.1147  0.5218  0.6724
 6604TIP3    H141447   1.555   3.039   7.429  0.2405  1.1459  0.3809
 6604TIP3    H241448   1.507   3.173   7.479 -0.6199  0.6563  0.8899
 6605TIP3   OH241449   2.498   1.095   0.990 -0.3496 -0.7214  0.2906
 6605TIP3    H141450   2.560   1.147   0.939 -1.0136 -0.9789 -0.7963
 6605TIP3    H241451   2.552   1.054   1.058  0.0968  1.9395  1.6758
 6606TIP3   OH241452   2.749   0.377   1.475 -0.2099 -0.1195  0.0017
 6606TIP3    H141453   2.815   0.396   1.542 -2.0220  1.8920  1.3909
 6606TIP3    H241454   2.781   0.421   1.396  1.4312 -1.5994 -0.2140
 6607TIP3   OH241455   6.400   3.938   1.222  0.6887 -0.3660 -0.6000
 6607TIP3    H141456   6.393   4.005   1.291  0.1256 -1.0782  0.0381
 6607TIP3    H241457   6.325   3.954   1.166  0.1079 -0.9610  0.0001
 6608TIP3   OH241458   5.040   5.900   8.451 -0.8917 -0.2304 -0.0088
 6608TIP3    H141459   4.955   5.939   8.471 -0.7720  0.1976 -0.3281
 6608TIP3    H241460   5.019   5.822   8.399 -1.2580 -1.7332  2.2265
 6609TIP3   OH241461   4.728   2.969   7.863  0.6164 -0.1964  0.1944
 6609TIP3    H141462   4.662   2.984   7.930  0.6972 -0.1957  0.2732
 6609TIP3    H241463   4.800   2.926   7.909 -0.0971 -1.9486 -0.2522
 6610TIP3   OH241464   2.497   1.992   0.705  0.6459 -0.8571 -0.0459
 6610TIP3    H141465   2.511   2.087   0.699 -0.4853 -0.4287  2.5139
 6610TIP3    H241466   2.405   1.981   0.681  0.8661 -1.3680 -0.6636
 6611TIP3   OH241467   6.419   1.352   7.851 -0.0989 -0.3404  0.4595
 6611TIP3    H141468   6.396   1.269   7.892 -1.0301  0.2018  1.0636
 6611TIP3    H241469   6.495   1.383   7.901  0.5154 -1.0164 -0.0378
 6612TIP3   OH241470   2.346   6.752   1.373  0.5402 -0.2185 -0.6603
 6612TIP3    H141471   2.274   6.713   1.325  0.6029 -1.3575  0.1288
 6612TIP3    H241472   2.374   6.826   1.319 -1.3140  0.3603 -0.8896
 6613TIP3   OH241473   0.322   4.505   0.515 -0.5786 -0.4654  0.1122
 6613TIP3    H141474   0.406   4.511   0.470 -0.9613 -0.1393 -0.5829
 6613TIP3    H241475   0.276   4.434   0.470 -1.2524  0.3426 -0.5202
 6614TIP3   OH241476   5.368   1.003   7.318 -0.2704 -0.2548 -0.3714
 6614TIP3    H141477   5.420   1.075   7.355  0.3494 -1.1176  0.4877
 6614TIP3    H241478   5.314   0.973   7.390 -0.3809 -0.7795 -0.6676
 6615TIP3   OH241479   2.510   4.920   2.640  0.0736  0.2243  0.4232
 6615TIP3    H141480   2.565   4.982   2.591 -1.1580  0.1932 -1.0459
 6615TIP3    H241481   2.540   4.834   2.612 -0.5306  0.2045 -0.1741
 6616TIP3   OH241482   1.586   5.166   7.551 -0.0200  0.7776  0.2385
 6616TIP3    H141483   1.568   5.169   7.645  0.0064  0.2438  0.2635
 6616TIP3    H241484   1.678   5.193   7.544 -0.0184  0.8088  0.3632
 6617TIP3   OH241485   2.821   3.035   1.924 -0.1129  0.1249 -0.0386
 6617TIP3    H141486   2.878   3.073   1.857  1.5398  0.1954  1.3584
 6617TIP3    H241487   2.817   3.101   1.993  0.3059 -0.9691  1.0623
 6618TIP3   OH241488   3.708   5.426   1.537  0.3537 -0.5451  1.0534
 6618TIP3    H141489   3.677   5.456   1.451  3.5876 -0.5898 -0.2739
 6618TIP3    H241490   3.659   5.479   1.600 -1.0773  0.5369 -0.8534
 6619TIP3   OH241491   6.372   1.490   7.614  0.4121  0.4785  0.6422
 6619TIP3    H141492   6.453   1.534   7.590  0.5798  0.1141  0.5233
 6619TIP3    H241493   6.397   1.427   7.681  0.3600 -0.1228  0.1120
 6620TIP3   OH241494   3.021   2.381   1.085  0.2611 -0.4932 -0.1908
 6620TIP3    H141495   3.020   2.342   0.998 -1.0805  1.0390 -0.9186
 6620TIP3    H241496   3.026   2.307   1.145 -0.8150 -1.6973 -1.5323
 6621TIP3   OH241497   5.382   4.298   1.596 -0.1052 -0.4321  0.0378
 6621TIP3    H141498   5.427   4.214   1.585  0.8998 -0.2471  2.0962
 6621TIP3    H241499   5.302   4.290   1.545  1.2698 -1.5807 -2.0522
 6622TIP3   OH241500   4.676   4.352   6.718 -0.3833  0.0156  0.1480
 6622TIP3    H141501   4.644   4.266   6.746 -1.1447  0.1141 -0.3834
 6622TIP3    H241502   4.753   4.368   6.773  1.3888 -2.1454 -1.5168
 6623TIP3   OH241503   6.769   6.519   7.591 -0.4938  0.4518  0.3464
 6623TIP3    H141504   6.697   6.560   7.638 -1.5867 -0.7302 -0.2469
 6623TIP3    H241505   6.846   6.568   7.618 -1.4181  1.3049  1.5301
 6624TIP3   OH241506   2.737   3.431   8.539 -0.2942 -0.2315  0.1132
 6624TIP3    H141507   2.728   3.514   8.586 -0.4419  0.6880 -1.4817
 6624TIP3    H241508   2.657   3.424   8.488  0.4392 -0.5348 -1.0282
 6625TIP3   OH241509   1.050   0.122   7.032  0.4295  0.1931  0.1416
 6625TIP3    H141510   1.075   0.214   7.044  0.5539  0.4498 -1.8078
 6625TIP3    H241511   0.989   0.123   6.958  0.8602 -1.3624 -0.2631
 6626TIP3   OH241512   5.008   1.699   0.936  0.1397 -0.1183 -0.0817
 6626TIP3    H141513   4.986   1.614   0.898 -1.9341  0.1026  0.4828
 6626TIP3    H241514   5.088   1.684   0.985 -0.5419 -1.9142  0.5489
 6627TIP3   OH241515   5.226   3.317   0.848 -0.3998  0.2753  0.2616
 6627TIP3    H141516   5.197   3.344   0.935 -1.5697 -0.3884  0.1009
 6627TIP3    H241517   5.163   3.249   0.822  2.3180 -2.5992  0.6336
 6628TIP3   OH241518   4.099   2.529   0.863 -0.6106 -0.1437 -0.1394
 6628TIP3    H141519   4.194   2.511   0.865 -0.5264  0.3471  1.6782
 6628TIP3    H241520   4.092   2.624   0.870 -1.2528 -0.0991 -1.1348
 6629TIP3   OH241521   1.689   6.293   8.831  0.1759 -0.0892  0.0934
 6629TIP3    H141522   1.614   6.349   8.810  0.4618  0.3590  0.2492
 6629TIP3    H241523   1.756   6.354   8.862 -0.5492 -0.7908  3.3673
 6630TIP3   OH241524   3.033   6.768   1.766  0.5229  0.2802  0.0588
 6630TIP3    H141525   3.096   6.765   1.838 -1.2206  1.0605  1.6939
 6630TIP3    H241526   2.955   6.807   1.804 -0.9273 -0.5268 -1.9390
 6631TIP3   OH241527   4.020   4.095   8.729 -0.2475 -0.3472 -0.2896
 6631TIP3    H141528   3.950   4.157   8.747 -0.3690 -0.6559  0.3048
 6631TIP3    H241529   3.977   4.009   8.728 -0.1386 -0.4018 -1.4378
 6632TIP3   OH241530   5.606   0.610   6.145 -0.0478 -0.7147 -0.1770
 6632TIP3    H141531   5.654   0.595   6.226  1.5309 -2.3514 -1.3304
 6632TIP3    H241532   5.597   0.706   6.140  0.4060 -0.5435  1.5603
 6633TIP3   OH241533   3.454   5.395   0.594  0.7857 -0.7145 -0.1859
 6633TIP3    H141534   3.369   5.369   0.558  1.4414 -1.2047 -1.4204
 6633TIP3    H241535   3.437   5.409   0.687 -0.7643 -0.2731 -0.5088
 6634TIP3   OH241536   5.771   4.745   1.442 -0.4094 -0.2655  0.4869
 6634TIP3    H141537   5.685   4.713   1.412 -0.5426  1.1760 -0.8166
 6634TIP3    H241538   5.751   4.799   1.519 -0.6674 -0.0927  0.3020
 6635TIP3   OH241539   6.157   4.474   2.425  0.0613  0.0343 -0.1152
 6635TIP3    H141540   6.130   4.419   2.498 -2.6462  2.1872  0.6968
 6635TIP3    H241541   6.075   4.509   2.390  1.4791  1.6336 -2.1159
 6636TIP3   OH241542   2.258   0.023   0.564  0.2634  0.2337  0.3825
 6636TIP3    H141543   2.224  -0.053   0.516  0.3242  0.3999  0.0717
 6636TIP3    H241544   2.353   0.015   0.558  0.3104  1.4750 -1.5360
 6637TIP3   OH241545   5.289   0.575   1.483 -0.0686  0.2226  0.3262
 6637TIP3    H141546   5.317   0.523   1.407  1.6748  1.9984 -0.3307
 6637TIP3    H241547   5.370   0.612   1.517 -0.8798 -0.1745  2.8458
 6638TIP3   OH241548   4.287   0.164   0.846  0.1852  0.4919  0.4296
 6638TIP3    H141549   4.249   0.091   0.797 -2.1637  0.6993  1.7614
 6638TIP3    H241550   4.223   0.182   0.915  1.0686  3.3190  0.6373
 6639TIP3   OH241551   2.939   4.804   8.491 -0.0498 -0.5277  0.1654
 6639TIP3    H141552   2.847   4.809   8.519 -0.3584  1.4179 -1.0335
 6639TIP3    H241553   2.935   4.765   8.404  0.1703  0.4503 -0.2839
 6640TIP3   OH241554   3.747   0.784   0.240  0.0234 -0.7440  0.4225
 6640TIP3    H141555   3.797   0.855   0.199  1.4196 -0.9205  1.7290
 6640TIP3    H241556   3.812   0.733   0.288 -1.0192 -2.6604 -0.0817
 6641TIP3   OH241557   5.587   3.689   8.579  0.0124 -0.0904  0.2037
 6641TIP3    H141558   5.659   3.729   8.530 -0.2205  0.1304  0.0369
 6641TIP3    H241559   5.515   3.753   8.573  0.6303  0.9584  2.6534
 6642TIP3   OH241560   5.268   3.183   1.700 -0.5532 -0.5206  0.3888
 6642TIP3    H141561   5.212   3.129   1.756 -0.9974 -0.2351  0.2224
 6642TIP3    H241562   5.304   3.122   1.635  0.7318 -1.0599  1.5337
 6643TIP3   OH241563   2.217   0.666   8.680 -0.5308 -0.1656  0.3952
 6643TIP3    H141564   2.186   0.582   8.646 -0.7189 -0.0926  0.3807
 6643TIP3    H241565   2.285   0.694   8.619  0.2017 -0.7612  0.9319
 6644TIP3   OH241566   3.799   1.076   6.789 -0.0922 -0.3760  0.4452
 6644TIP3    H141567   3.803   1.074   6.694  0.2327  2.2998  0.3248
 6644TIP3    H241568   3.853   1.002   6.817  1.4706 -0.0353 -1.4422
 6645TIP3   OH241569   1.538   4.242   1.700 -0.4189  0.5403  0.2456
 6645TIP3    H141570   1.536   4.152   1.732 -1.2257  1.1155  1.9185
 6645TIP3    H241571   1.625   4.252   1.662 -1.1601 -1.7083 -2.3847
 6646TIP3   OH241572   6.068   0.424   0.809 -0.4904 -0.3459 -0.1770
 6646TIP3    H141573   6.086   0.452   0.719  0.9191 -2.7439 -0.7344
 6646TIP3    H241574   6.154   0.422   0.851 -0.9940 -0.3730  0.8757
 6647TIP3   OH241575   5.538   4.078   1.584 -0.5084  0.4027 -0.1635
 6647TIP3    H141576   5.509   4.048   1.670  0.4594  0.3800  0.1610
 6647TIP3    H241577   5.592   4.006   1.550 -0.1582  0.7764 -0.4047
 6648TIP3   OH241578   6.361   2.564   8.078 -0.1584 -0.4595  0.0585
 6648TIP3    H141579   6.374   2.639   8.019 -1.3995 -0.5575 -0.3837
 6648TIP3    H241580   6.448   2.527   8.090  0.2783  0.2485 -0.8161
 6649TIP3   OH241581   2.755   3.875   6.581 -1.0790 -0.2935 -0.2664
 6649TIP3    H141582   2.788   3.829   6.658  0.0935  1.8723  0.6137
 6649TIP3    H241583   2.801   3.836   6.507  0.6037  0.0573  0.5580
 6650TIP3   OH241584   2.869   3.639   0.623  0.6762 -0.1071 -0.0996
 6650TIP3    H141585   2.821   3.585   0.560 -2.0619 -0.7431  2.3008
 6650TIP3    H241586   2.801   3.687   0.670  2.6943  1.5272  1.3198
 6651TIP3   OH241587   3.123   4.346   1.667 -0.3561 -0.1544 -0.1040
 6651TIP3    H141588   3.119   4.417   1.604  1.6500 -0.5971 -0.8184
 6651TIP3    H241589   3.217   4.326   1.675 -0.4074  0.4383  3.6658
 6652TIP3   OH241590   6.464   4.173   0.589  0.5191  0.3443  0.5476
 6652TIP3    H141591   6.472   4.199   0.497 -0.3244  0.2457  0.4355
 6652TIP3    H241592   6.371   4.186   0.609  0.2192 -1.7792  0.7334
 6653TIP3   OH241593   3.786   2.402   0.768 -0.5610  0.0823  0.4844
 6653TIP3    H141594   3.765   2.495   0.757 -1.0605 -0.0884 -0.1064
 6653TIP3    H241595   3.881   2.399   0.776 -0.4052  0.5371 -0.8749
 6654TIP3   OH241596   5.324   5.588   0.084 -0.2376 -0.0668  0.0282
 6654TIP3    H141597   5.294   5.517   0.140  0.7664 -0.1834  0.4501
 6654TIP3    H241598   5.409   5.558   0.051 -0.7124  0.0908 -1.4067
 6655TIP3   OH241599   1.926   2.997   8.784 -0.3081  0.1596 -0.3007
 6655TIP3    H141600   1.933   2.901   8.781  1.4492  0.2813 -1.9335
 6655TIP3    H241601   1.999   3.024   8.839 -0.1018  0.5937 -0.7791
 6656TIP3   OH241602   1.901   3.049   7.708 -0.1291  0.1982 -0.1420
 6656TIP3    H141603   1.815   3.006   7.714 -0.2915  0.0939 -2.3810
 6656TIP3    H241604   1.888   3.135   7.748 -1.2391  0.1070 -0.2768
 6657TIP3   OH241605   1.024   1.683   1.590  0.1543 -0.8309  0.8824
 6657TIP3    H141606   0.966   1.667   1.665  2.8551 -1.8623  2.9238
 6657TIP3    H241607   1.068   1.599   1.576  0.2557 -0.4545 -1.4717
 6658TIP3   OH241608   0.260   1.147   0.676  0.3732 -0.0905  0.3369
 6658TIP3    H141609   0.303   1.229   0.650  0.9721 -0.3809  0.3818
 6658TIP3    H241610   0.257   1.095   0.596 -1.1043  0.4329  0.0252
 6659TIP3   OH241611   4.440   4.637   0.131  0.1715 -0.4034  0.0523
 6659TIP3    H141612   4.439   4.541   0.128  2.1512 -0.5034  1.1684
 6659TIP3    H241613   4.347   4.662   0.130 -0.4065 -2.3605  0.7228
 6660TIP3   OH241614   3.031   1.548   8.065 -0.9132 -0.0344  0.0417
 6660TIP3    H141615   3.008   1.639   8.048  0.6111  0.3258 -0.2032
 6660TIP3    H241616   3.097   1.527   8.000 -1.4957 -1.4470 -0.1413
 6661TIP3   OH241617   1.761   0.572   8.524 -0.4536 -0.1903  0.1569
 6661TIP3    H141618   1.825   0.620   8.576  0.5744  0.3335 -1.5224
 6661TIP3    H241619   1.676   0.610   8.549  0.0006  0.0357  1.4186
 6662TIP3   OH241620   0.030   4.632   8.522 -0.5656  0.0841  0.1546
 6662TIP3    H141621   0.090   4.597   8.587  1.1554  1.6827 -0.4865
 6662TIP3    H241622   0.034   4.570   8.449  1.8332  1.0697 -0.6476
 6663TIP3   OH241623   6.103   5.275   0.566  0.0716 -0.3639  0.2603
 6663TIP3    H141624   6.027   5.325   0.597  0.4891 -0.7772  2.0837
 6663TIP3    H241625   6.067   5.213   0.503 -1.0646 -0.3128  0.8223
 6664TIP3   OH241626   4.412   2.136   8.511  0.0063 -0.0111  0.5136
 6664TIP3    H141627   4.448   2.051   8.536  0.2828  0.4967  1.9447
 6664TIP3    H241628   4.319   2.132   8.537 -0.6775 -0.7903 -1.8306
 6665TIP3   OH241629   4.793   2.457   7.882  0.5649 -0.1552 -0.0580
 6665TIP3    H141630   4.729   2.526   7.864  0.8251  0.1682  0.2356
 6665TIP3    H241631   4.742   2.389   7.927  0.6165  0.5309  1.0657
 6666TIP3   OH241632   1.267   1.695   0.415 -0.1048  0.6099 -0.5522
 6666TIP3    H141633   1.242   1.748   0.491  1.5712  0.7167 -0.0436
 6666TIP3    H241634   1.240   1.606   0.438 -1.6402  0.9859 -0.8085
 6667TIP3   OH241635   3.510   1.355   0.993 -0.1809 -0.0962  0.6004
 6667TIP3    H141636   3.437   1.381   0.937 -0.8387 -1.8254  0.5813
 6667TIP3    H241637   3.550   1.281   0.947  0.0940 -0.6827  1.7313
 6668TIP3   OH241638   3.925   1.292   7.322  0.6244  0.1278 -0.3002
 6668TIP3    H141639   3.835   1.303   7.290  1.2960 -0.4098 -2.6202
 6668TIP3    H241640   3.950   1.378   7.355 -0.5555  0.4260 -0.1466
 6669TIP3   OH241641   4.322   1.672   1.502 -0.4374 -0.3388 -0.2720
 6669TIP3    H141642   4.247   1.613   1.495 -1.0369  0.1653  1.5538
 6669TIP3    H241643   4.333   1.706   1.413 -2.0200 -0.8410 -0.6937
 6670TIP3   OH241644   3.147   2.034   0.796  0.0990 -0.1780 -0.2102
 6670TIP3    H141645   3.170   2.024   0.888 -3.1610 -0.5736  0.6819
 6670TIP3    H241646   3.207   2.101   0.763  1.1283  0.2180  2.2592
 6671TIP3   OH241647   1.558   4.800   1.730 -0.4119 -0.1178 -0.4856
 6671TIP3    H141648   1.602   4.885   1.725  0.1092 -0.4566 -2.1444
 6671TIP3    H241649   1.629   4.736   1.722 -1.0578 -0.6787 -1.9312
 6672TIP3   OH241650   5.753   1.470   7.214 -0.3565  0.3118  0.2335
 6672TIP3    H141651   5.796   1.434   7.291  0.4458 -0.4301 -0.5402
 6672TIP3    H241652   5.676   1.415   7.201  0.6214 -0.8718 -0.6812
 6673TIP3   OH241653   6.269   0.374   8.237 -0.2947 -0.4817  0.4390
 6673TIP3    H141654   6.317   0.306   8.190 -0.3785  0.1200 -0.5358
 6673TIP3    H241655   6.317   0.385   8.319 -0.1385 -1.5328  0.5063
 6674TIP3   OH241656   3.786   0.051   7.877  0.1660 -0.4647 -0.1056
 6674TIP3    H141657   3.753   0.018   7.793 -0.3051 -0.0240 -0.1020
 6674TIP3    H241658   3.823   0.137   7.855 -0.5415 -0.0636  0.2396
 6675TIP3   OH241659   5.227   1.978   1.029 -0.1347  0.3237 -0.2584
 6675TIP3    H141660   5.264   1.978   0.940 -1.4065 -0.2929 -0.8089
 6675TIP3    H241661   5.135   1.998   1.017 -0.4823 -0.5011  0.8605
 6676TIP3   OH241662   3.927   6.731   8.758 -0.3768 -0.3942  0.0638
 6676TIP3    H141663   3.927   6.647   8.711  0.4018 -0.2010 -0.3001
 6676TIP3    H241664   3.864   6.784   8.710  1.1285  0.1331 -1.4274
 6677TIP3   OH241665   5.414   1.021   0.624  0.5521  0.2475  0.1730
 6677TIP3    H141666   5.506   1.016   0.599 -0.1348  0.8175 -2.8943
 6677TIP3    H241667   5.379   0.934   0.605  0.1534  0.4713 -0.1337
 6678TIP3   OH241668   3.315   5.954   8.257 -0.5488  0.4540 -0.3910
 6678TIP3    H141669   3.384   6.000   8.305 -1.1453 -1.1591  2.2144
 6678TIP3    H241670   3.277   6.021   8.200  2.3074  1.6962 -1.0358
 6679TIP3   OH241671   1.715   0.333   8.390 -0.6208 -0.4442 -0.4366
 6679TIP3    H141672   1.656   0.273   8.436  1.5080 -1.5625  1.0120
 6679TIP3    H241673   1.728   0.406   8.451 -1.3394  0.3389 -1.2056
 6680TIP3   OH241674   6.587   5.244   7.842 -0.1603 -0.4308 -0.8663
 6680TIP3    H141675   6.536   5.230   7.922  0.2313 -1.7031 -0.8226
 6680TIP3    H241676   6.610   5.337   7.845 -1.2826 -0.1555 -0.1843
 6681TIP3   OH241677   6.409   5.481   8.624  0.1119  0.2021  0.3052
 6681TIP3    H141678   6.332   5.507   8.573 -0.6953  0.3126  1.5410
 6681TIP3    H241679   6.430   5.559   8.676  1.8620  0.6142 -0.9289
 6682TIP3   OH241680   3.276   6.685   8.760  0.1469 -0.3505 -0.3893
 6682TIP3    H141681   3.311   6.761   8.806 -1.2712  0.1671 -0.1331
 6682TIP3    H241682   3.272   6.616   8.827  2.3674 -1.0182 -0.8432
 6683TIP3   OH241683   2.835   3.947   7.599 -0.2823  0.4628 -0.0546
 6683TIP3    H141684   2.831   3.979   7.509 -0.1481  0.3939 -0.0859
 6683TIP3    H241685   2.903   4.002   7.640  0.7738 -0.5297 -0.4159
 6684TIP3   OH241686   2.073   4.030   6.367  0.0985 -0.2893  0.3758
 6684TIP3    H141687   2.124   4.041   6.447  1.4213  1.1078 -0.6138
 6684TIP3    H241688   2.044   4.118   6.344 -0.6701 -0.7346 -0.4443
 6685TIP3   OH241689   4.843   0.566   7.680  0.5809 -0.4967 -0.2490
 6685TIP3    H141690   4.930   0.534   7.656  2.6447  2.3818  2.6155
 6685TIP3    H241691   4.851   0.661   7.681 -4.0661  0.3724 -4.4117
 6686TIP3   OH241692   4.420   5.897   7.668 -0.0413 -0.4438  0.1609
 6686TIP3    H141693   4.392   5.915   7.757 -0.9923 -0.2995 -0.1589
 6686TIP3    H241694   4.376   5.963   7.614  0.7165 -0.3702 -0.3920
 6687TIP3   OH241695   1.583   0.112   0.061  0.0230 -0.0858 -0.1443
 6687TIP3    H141696   1.583   0.208   0.058 -2.0437 -0.0404 -0.5319
 6687TIP3    H241697   1.668   0.089   0.097  1.6983  1.7921 -2.5067
 6688TIP3   OH241698   0.455   0.334   8.468  0.5047  0.2883  0.1165
 6688TIP3    H141699   0.488   0.336   8.558  0.9264  2.1200 -0.0236
 6688TIP3    H241700   0.361   0.321   8.477  0.7657 -1.3913  0.7079
 6689TIP3   OH241701   2.071   0.230   8.541 -0.1914 -0.0119  0.0005
 6689TIP3    H141702   2.004   0.203   8.603  0.5459 -0.4571  0.6105
 6689TIP3    H241703   2.025   0.236   8.457 -0.8365 -1.0318  0.2718
 6690TIP3   OH241704   0.185   0.772   0.010 -0.1069 -0.0321  0.3097
 6690TIP3    H141705   0.261   0.767  -0.048  0.0768  0.8785  0.4575
 6690TIP3    H241706   0.112   0.798  -0.047 -0.4195 -1.3300  0.0853
 6691TIP3   OH241707   1.210   3.047   1.998  0.3357 -0.6704 -0.2078
 6691TIP3    H141708   1.233   3.126   1.949  1.7085 -0.5104  0.6129
 6691TIP3    H241709   1.125   3.066   2.036  0.3892  0.1912 -0.4936
 6692TIP3   OH241710   0.330   3.290   1.209  0.8259  0.0312  0.1812
 6692TIP3    H141711   0.348   3.336   1.290  0.1564  0.9206 -0.1650
 6692TIP3    H241712   0.312   3.359   1.145  0.3992 -0.6814 -0.4896
 6693TIP3   OH241713   4.064   0.181   8.808 -0.0827  0.0229 -0.1242
 6693TIP3    H141714   4.004   0.189   8.882  2.1902 -1.5198  2.0417
 6693TIP3    H241715   4.119   0.106   8.829  2.8156  1.4886 -1.7481
 6694TIP3   OH241716   1.494   0.010   1.320 -0.4810  0.0862 -0.2206
 6694TIP3    H141717   1.423  -0.045   1.355  0.0567 -1.7258 -1.8334
 6694TIP3    H241718   1.481   0.007   1.225  1.2226  0.4787 -0.4813
 6695TIP3   OH241719   0.572   0.191   7.296 -0.3087 -0.5786  0.1296
 6695TIP3    H141720   0.547   0.283   7.308 -1.8011 -0.8194 -0.7763
 6695TIP3    H241721   0.617   0.189   7.212 -0.1892 -0.6647  0.1957
 6696TIP3   OH241722   0.988   6.390   1.375  0.3028  0.2319  0.1134
 6696TIP3    H141723   0.920   6.347   1.427  0.1530 -0.9839 -1.0340
 6696TIP3    H241724   0.954   6.478   1.359 -0.5433 -0.0399  0.3837
 6697TIP3   OH241725   6.078   5.627   7.599  0.7494  0.2388  0.4979
 6697TIP3    H141726   6.111   5.715   7.581  0.1709  0.1369 -1.3026
 6697TIP3    H241727   6.103   5.576   7.522  0.9502 -1.1495  1.4543
 6698TIP3   OH241728   1.959   0.890   1.611 -0.0297 -0.3354 -0.0187
 6698TIP3    H141729   2.053   0.882   1.626  0.4226  0.6026 -1.9967
 6698TIP3    H241730   1.930   0.801   1.592  0.9545 -0.3174 -1.7766
 6699TIP3   OH241731   2.396   4.507   0.357  0.0533 -0.5001 -0.2307
 6699TIP3    H141732   2.383   4.600   0.378 -1.6846 -0.7247 -0.1034
 6699TIP3    H241733   2.469   4.506   0.295  0.1178  0.9496 -0.2106
 6700TIP3   OH241734   3.269   1.486   7.371 -0.1731  0.5310 -0.0179
 6700TIP3    H141735   3.348   1.512   7.417 -1.2335  0.8339  1.7397
 6700TIP3    H241736   3.292   1.404   7.327  1.8312  1.8926 -1.7452
 6701TIP3   OH241737   2.983   4.089   7.759  0.2575  0.3957  0.3111
 6701TIP3    H141738   2.998   4.033   7.836  1.0571  1.7386  1.1762
 6701TIP3    H241739   2.953   4.172   7.795 -0.9224  0.5452 -0.9544
 6702TIP3   OH241740   0.652   3.008   8.488 -0.4439  0.5534  0.7247
 6702TIP3    H141741   0.701   3.009   8.570  2.3309 -1.0139 -0.7679
 6702TIP3    H241742   0.706   3.056   8.426 -1.8134  0.5390 -0.5455
 6703TIP3   OH241743   3.231   4.959   6.952 -0.2897 -0.1291  0.3382
 6703TIP3    H141744   3.260   5.034   6.900  1.0306 -0.4634  0.5573
 6703TIP3    H241745   3.291   4.889   6.929  0.3429 -0.2906  2.2703
 6704TIP3   OH241746   2.322   6.235   1.094 -1.0588 -0.4310 -0.4005
 6704TIP3    H141747   2.288   6.146   1.102 -0.0635 -0.6608  1.9078
 6704TIP3    H241748   2.377   6.232   1.016 -1.3230 -1.7428 -0.5678
 6705TIP3   OH241749   1.965   1.110   8.691  0.3354  0.1194  0.5818
 6705TIP3    H141750   1.978   1.191   8.741  1.9188  0.5476 -0.4364
 6705TIP3    H241751   2.010   1.043   8.742 -0.4669 -0.0306  1.1211
 6706TIP3   OH241752   4.413   1.173   1.106  0.1905  0.6071  0.4032
 6706TIP3    H141753   4.481   1.224   1.150  0.0380  0.6125  0.6325
 6706TIP3    H241754   4.442   1.083   1.112  0.3894  0.6529  0.1245
 6707TIP3   OH241755   4.194   1.490   7.578 -0.2937  0.2012 -0.0061
 6707TIP3    H141756   4.279   1.466   7.541 -0.0531 -1.0239  1.2500
 6707TIP3    H241757   4.151   1.540   7.509  0.8492 -0.4444 -1.2396
 6708TIP3   OH241758   4.136   2.763   7.943 -0.1949  0.6046 -0.2261
 6708TIP3    H141759   4.230   2.748   7.942  0.0347  1.9127 -0.8757
 6708TIP3    H241760   4.098   2.681   7.974  1.1698  0.1539  0.3074
 6709TIP3   OH241761   5.871   3.249   2.388 -0.0610 -0.5213  0.3545
 6709TIP3    H141762   5.918   3.174   2.354 -0.5371 -0.6470 -0.0343
 6709TIP3    H241763   5.798   3.212   2.438 -0.1407 -0.3229  0.3893
 6710TIP3   OH241764   5.547   0.843   1.033  0.0229 -0.1261 -0.3579
 6710TIP3    H141765   5.629   0.873   0.993 -0.5647  1.6762 -0.3045
 6710TIP3    H241766   5.482   0.852   0.964 -0.6603  1.3343  0.4148
 6711TIP3   OH241767   1.785   4.196   7.726 -0.8631  0.1047  0.3683
 6711TIP3    H141768   1.844   4.268   7.702 -0.3008 -0.7073 -0.7844
 6711TIP3    H241769   1.697   4.230   7.708 -0.5647  0.2864 -0.8104
 6712TIP3   OH241770   1.967   0.652   6.852 -0.6241 -0.7307  0.0584
 6712TIP3    H141771   2.051   0.611   6.831 -0.8169 -1.5391  0.8116
 6712TIP3    H241772   1.965   0.731   6.798  1.0011 -0.2396  0.6579
 6713TIP3   OH241773   6.455   2.156   7.602  0.2425  0.2584  0.3038
 6713TIP3    H141774   6.382   2.206   7.639  0.8107  0.6680  0.8871
 6713TIP3    H241775   6.512   2.222   7.563  0.4054 -0.0446  0.0282
 6714TIP3   OH241776   6.026   6.134   7.562 -0.3717 -0.4074 -0.2256
 6714TIP3    H141777   5.985   6.053   7.530  1.3943 -0.8045 -1.6038
 6714TIP3    H241778   6.102   6.147   7.505 -0.2364  1.8860  0.3866
 6715TIP3   OH241779   1.229   3.824   6.135  0.3796 -0.2083 -0.3746
 6715TIP3    H141780   1.289   3.789   6.201 -1.6315 -1.4775  0.9023
 6715TIP3    H241781   1.162   3.757   6.125  0.3901  0.0814 -3.5445
 6716TIP3   OH241782   3.983   5.259   7.742  0.0930  0.2117 -0.3386
 6716TIP3    H141783   3.969   5.301   7.826 -0.7994  0.4803 -0.6135
 6716TIP3    H241784   3.933   5.177   7.747 -1.3378  0.9864 -1.1779
 6717TIP3   OH241785   2.653   2.750   7.466 -0.1732  0.5869 -0.1164
 6717TIP3    H141786   2.688   2.721   7.382  0.8372 -0.8006  0.7550
 6717TIP3    H241787   2.561   2.722   7.465 -0.2479  0.8226 -0.8394
 6718TIP3   OH241788   5.962   4.843   6.699  0.1470  0.1480 -0.0230
 6718TIP3    H141789   6.040   4.886   6.733  0.2929  0.7760 -1.1169
 6718TIP3    H241790   5.996   4.764   6.656  0.2830  0.7967 -1.1437
 6719TIP3   OH241791   3.559   6.182   2.064  0.2737 -0.1087  0.4452
 6719TIP3    H141792   3.601   6.266   2.080  1.6459 -0.7903  0.6077
 6719TIP3    H241793   3.570   6.134   2.146 -1.4439 -0.0836  0.7212
 6720TIP3   OH241794   3.127   1.923   6.971 -0.1414 -0.0654  0.3958
 6720TIP3    H141795   3.129   2.019   6.981 -0.9574 -0.1321  1.2791
 6720TIP3    H241796   3.137   1.909   6.876 -0.8034  0.9173  0.1666
 6721TIP3   OH241797   1.227   3.507   2.316 -0.2315 -0.0345 -0.1657
 6721TIP3    H141798   1.147   3.518   2.265 -0.8367 -0.2095  0.7182
 6721TIP3    H241799   1.198   3.509   2.407  0.9892  1.7915  0.2525
 6722TIP3   OH241800   6.820   0.021   1.759 -0.9466 -0.3845 -0.7613
 6722TIP3    H141801   6.791  -0.027   1.836 -0.6046  1.5326  0.6364
 6722TIP3    H241802   6.902   0.064   1.786 -1.2144  0.9512 -1.9127
 6723TIP3   OH241803   3.725   3.653   0.190 -0.3233  0.3198  0.0887
 6723TIP3    H141804   3.775   3.701   0.124  0.2489 -1.4086 -0.7900
 6723TIP3    H241805   3.635   3.656   0.158 -0.0841 -0.3224 -0.6715
 6724TIP3   OH241806   0.577   0.689   6.842  0.1226  0.1923 -0.3870
 6724TIP3    H141807   0.533   0.632   6.779 -0.9213 -1.1475  1.4376
 6724TIP3    H241808   0.593   0.770   6.794 -0.1001 -0.9351 -2.5146
 6725TIP3   OH241809   0.268   3.939   2.077  0.7064  0.0054  0.1708
 6725TIP3    H141810   0.216   3.881   2.131  0.4837 -0.6582 -0.7273
 6725TIP3    H241811   0.243   4.028   2.104  0.6318 -0.3123  1.1565
 6726TIP3   OH241812   4.611   1.932   8.591 -0.5636 -0.4714 -1.2186
 6726TIP3    H141813   4.681   1.995   8.610 -1.9658  0.3157  2.0780
 6726TIP3    H241814   4.640   1.850   8.630 -0.7737 -0.5583 -1.2395
 6727TIP3   OH241815   4.196   0.162   2.263 -0.1905 -0.1121 -0.1188
 6727TIP3    H141816   4.288   0.162   2.237  0.0488 -0.2306  0.7233
 6727TIP3    H241817   4.173   0.254   2.270  0.1074 -0.0863  0.5228
 6728TIP3   OH241818   2.612   4.967   7.082 -0.4469  0.4159 -0.6351
 6728TIP3    H141819   2.571   5.046   7.117  1.4950  2.5127 -2.6473
 6728TIP3    H241820   2.649   4.996   6.998  1.6069 -2.2915 -0.7773
 6729TIP3   OH241821   6.173   3.061   7.413  0.3945  0.6429 -0.6078
 6729TIP3    H141822   6.204   3.033   7.326  3.5822 -0.7090  0.7907
 6729TIP3    H241823   6.107   2.996   7.437  0.4158  0.2832 -1.4790
 6730TIP3   OH241824   5.558   3.383   0.140 -0.0696  0.3310 -0.3645
 6730TIP3    H141825   5.524   3.299   0.109  2.2481 -0.7424 -0.2425
 6730TIP3    H241826   5.651   3.382   0.115  0.1245  2.7025 -0.0082
 6731TIP3   OH241827   1.843   2.383   6.053  0.7559  0.8653  0.1319
 6731TIP3    H141828   1.919   2.353   6.004  0.6390  0.1114  0.3949
 6731TIP3    H241829   1.860   2.355   6.143 -0.1829 -0.0307  0.0495
 6732TIP3   OH241830   1.958   6.453   1.432 -0.1835 -0.3149 -0.2908
 6732TIP3    H141831   2.015   6.528   1.420  0.3401 -0.6702 -0.0755
 6732TIP3    H241832   1.870   6.488   1.423  0.0673  0.2346 -0.6627
 6733TIP3   OH241833   4.134   2.521   0.396  0.0559 -0.0014 -0.3449
 6733TIP3    H141834   4.217   2.543   0.354  0.1639 -1.6458 -1.0663
 6733TIP3    H241835   4.083   2.602   0.391  0.9453  0.5310 -1.5253
 6734TIP3   OH241836   3.959   1.894   1.911 -0.2546  0.0728  0.8849
 6734TIP3    H141837   3.914   1.811   1.900 -0.1584  0.0587  0.6090
 6734TIP3    H241838   3.972   1.927   1.823 -0.1053  0.2813  0.9830
 6735TIP3   OH241839   6.599   3.285   0.675 -0.2876  0.1365 -0.2995
 6735TIP3    H141840   6.564   3.303   0.587 -2.1961  2.6152  0.8609
 6735TIP3    H241841   6.693   3.273   0.660 -0.5453  0.4474 -2.6806
 6736TIP3   OH241842   1.353   6.092   2.527 -0.0228  0.4452  0.6879
 6736TIP3    H141843   1.295   6.089   2.451  0.5893 -1.1376  0.2677
 6736TIP3    H241844   1.427   6.146   2.499  2.2140 -3.2906 -1.3758
 6737TIP3   OH241845   3.857   1.784   0.488  0.2057 -0.0037 -0.0232
 6737TIP3    H141846   3.853   1.814   0.578 -0.8028 -1.0510  0.3042
 6737TIP3    H241847   3.933   1.726   0.486 -0.6946 -1.2599  0.5959
 6738TIP3   OH241848   2.733   0.617   0.037 -0.1316  0.5924 -0.3597
 6738TIP3    H141849   2.709   0.709   0.053 -0.6797  0.1148  1.8859
 6738TIP3    H241850   2.822   0.609   0.071  0.1133  0.3906 -1.0268
 6739TIP3   OH241851   2.913   1.762   0.772 -0.1564  0.4459  0.1809
 6739TIP3    H141852   2.971   1.836   0.788  1.5487 -0.5796 -1.0093
 6739TIP3    H241853   2.950   1.690   0.823  0.0337 -0.3999 -1.1161
 6740TIP3   OH241854   6.639   4.907   1.748  0.0468 -0.1149  0.3062
 6740TIP3    H141855   6.576   4.836   1.753  1.8507 -1.8103  0.4170
 6740TIP3    H241856   6.672   4.915   1.838 -0.9656  1.7106  0.5507
 6741TIP3   OH241857   5.529   2.036   8.531 -0.2685 -0.2062  0.2206
 6741TIP3    H141858   5.446   2.027   8.484 -0.9355 -0.0461  1.3258
 6741TIP3    H241859   5.527   1.966   8.597  0.7759 -0.6138 -0.1483
 6742TIP3   OH241860   5.015   4.496   1.257  0.4657 -0.0148 -0.3925
 6742TIP3    H141861   4.963   4.525   1.183  0.5330  1.6555  0.1676
 6742TIP3    H241862   4.968   4.420   1.292 -1.8368  1.6393  0.3235
 6743TIP3   OH241863   5.512   1.776   0.983  0.5386 -0.1414  0.6727
 6743TIP3    H141864   5.571   1.719   1.032 -0.7236 -1.4696  0.7235
 6743TIP3    H241865   5.427   1.766   1.027 -0.2967 -0.2509 -0.8842
 6744TIP3   OH241866   5.235   3.677   2.457 -0.4417  0.2126  0.1982
 6744TIP3    H141867   5.210   3.714   2.372 -0.7022  0.2926  0.3071
 6744TIP3    H241868   5.330   3.674   2.455 -0.3306  2.0422  0.6502
 6745TIP3   OH241869   6.444   0.406   8.485  0.1711 -0.0930  0.7829
 6745TIP3    H141870   6.487   0.408   8.570 -0.5129 -0.0323  1.1313
 6745TIP3    H241871   6.498   0.462   8.429  0.8218 -0.4270  1.0797
 6746TIP3   OH241872   2.508   6.183   0.902 -0.5224 -0.3313  0.4734
 6746TIP3    H141873   2.570   6.224   0.963 -1.4782  0.4153  0.9636
 6746TIP3    H241874   2.535   6.091   0.899  0.5391 -0.0402  0.7638
 6747TIP3   OH241875   5.078   4.222   0.832 -0.2000 -0.5171 -0.1357
 6747TIP3    H141876   5.150   4.260   0.882 -1.2280 -2.0128  2.6777
 6747TIP3    H241877   5.117   4.148   0.786  0.4050 -0.2618 -0.0369
 6748TIP3   OH241878   3.114   4.976   0.153  0.6734  0.1554  0.5635
 6748TIP3    H141879   3.127   4.920   0.076  0.7800  0.3666  0.4252
 6748TIP3    H241880   3.091   4.916   0.223  2.1678 -0.2254  0.7598
 6749TIP3   OH241881   1.560   1.857   7.497  0.1312  0.6180 -0.9422
 6749TIP3    H141882   1.475   1.837   7.457 -0.6946  1.6898  0.2069
 6749TIP3    H241883   1.594   1.772   7.525  0.6959 -0.1854 -3.6825
 6750TIP3   OH241884   4.580   4.052   0.506  0.0856 -0.6728 -0.0936
 6750TIP3    H141885   4.583   4.147   0.491 -1.0196 -0.4549  0.8962
 6750TIP3    H241886   4.630   4.015   0.434 -0.9780  0.5543 -1.5483
 6751TIP3   OH241887   6.012   3.736   1.869 -0.7247 -0.1531 -0.6251
 6751TIP3    H141888   5.962   3.727   1.950  1.2664 -0.7072  0.5889
 6751TIP3    H241889   5.985   3.821   1.834  0.3540  1.3967  2.0428
 6752TIP3   OH241890   0.746   0.563   1.621  0.1817 -0.0363 -0.0881
 6752TIP3    H141891   0.699   0.571   1.704 -0.8521  0.2972 -0.6875
 6752TIP3    H241892   0.829   0.608   1.636  0.0196 -0.0072  0.7729
 6753TIP3   OH241893   5.105   5.271   8.685 -0.0707 -0.0301 -0.2871
 6753TIP3    H141894   5.105   5.273   8.781 -0.6728 -1.5400 -0.2328
 6753TIP3    H241895   5.194   5.295   8.661 -0.1192  1.1655  0.6143
 6754TIP3   OH241896   5.290   0.930   0.889  0.0868 -0.3366 -0.1240
 6754TIP3    H141897   5.301   0.929   0.794  0.0440  1.6253 -0.1859
 6754TIP3    H241898   5.249   0.846   0.909  0.5666 -0.9985 -1.7751
 6755TIP3   OH241899   1.285   0.757   0.227  0.5026 -0.2880 -0.3490
 6755TIP3    H141900   1.330   0.785   0.306  1.6343  2.4051 -1.7935
 6755TIP3    H241901   1.204   0.717   0.258  1.0630  0.3505  2.1666
 6756TIP3   OH241902   6.195   0.214   0.236  0.0667 -0.8030 -0.2322
 6756TIP3    H141903   6.289   0.201   0.255  0.0103 -0.5956  0.2100
 6756TIP3    H241904   6.174   0.145   0.173  0.1625 -1.8214  0.8129
 6757TIP3   OH241905   3.233   6.563   7.222 -0.0211 -0.1046 -0.3673
 6757TIP3    H141906   3.144   6.549   7.190 -0.4161 -1.0958  1.0984
 6757TIP3    H241907   3.289   6.512   7.164 -0.3195  0.9225 -1.6061
 6758TIP3   OH241908   2.932   2.696   1.023 -0.1880 -0.4417 -0.0067
 6758TIP3    H141909   2.918   2.704   1.118  0.9205 -1.6233  0.2785
 6758TIP3    H241910   2.957   2.784   0.996  1.4282 -0.4929  1.1720
 6759TIP3   OH241911   2.064   5.266   6.770  0.0713  0.7037 -0.3812
 6759TIP3    H141912   2.142   5.256   6.717  0.4609  1.5212  0.0243
 6759TIP3    H241913   2.042   5.177   6.798  0.1540  0.3280 -1.4715
 6760TIP3   OH241914   3.487   1.408   0.035 -0.3825 -0.8744 -0.0580
 6760TIP3    H141915   3.568   1.449   0.005  0.2081 -1.0903  1.1893
 6760TIP3    H241916   3.417   1.455  -0.011  0.3547  0.5785  0.2818
 6761TIP3   OH241917   6.659   1.269   6.559  0.2771 -0.3850 -0.0580
 6761TIP3    H141918   6.703   1.187   6.537  0.7936 -0.0912 -0.1315
 6761TIP3    H241919   6.718   1.312   6.621  0.8147  0.6860 -1.2692
 6762TIP3   OH241920   1.751   0.108   6.977  0.0153  0.2229 -0.0465
 6762TIP3    H141921   1.767   0.117   7.071  1.7340 -4.4797  0.4004
 6762TIP3    H241922   1.659   0.130   6.966 -0.1440  1.2810  2.6545
 6763TIP3   OH241923   3.716   0.981   1.083 -0.0028  0.2695  0.3299
 6763TIP3    H141924   3.775   0.993   1.008  2.2654 -0.5371  1.8836
 6763TIP3    H241925   3.711   1.068   1.124 -2.1415  0.9922 -1.2592
 6764TIP3   OH241926   2.860   3.628   7.915 -0.5943  0.4925 -0.3822
 6764TIP3    H141927   2.790   3.672   7.867 -0.0039  0.8275 -0.9568
 6764TIP3    H241928   2.940   3.656   7.871 -0.1083 -0.0062  0.1691
 6765TIP3   OH241929   2.843   3.723   8.180 -0.1871  0.3828 -0.1625
 6765TIP3    H141930   2.910   3.677   8.230 -1.2018 -1.9358 -0.8103
 6765TIP3    H241931   2.846   3.683   8.093 -3.2167 -0.7484  0.1271
 6766TIP3   OH241932   1.453   4.966   0.350  0.1798 -0.2080  0.4375
 6766TIP3    H141933   1.547   4.952   0.343  0.1469 -0.3092  0.2013
 6766TIP3    H241934   1.416   4.921   0.275  0.0088  0.5071  0.0814
 6767TIP3   OH241935   5.773   1.623   2.091  0.2610  0.4513  0.5549
 6767TIP3    H141936   5.768   1.630   2.186 -0.7800  0.1382  0.5420
 6767TIP3    H241937   5.848   1.677   2.066 -0.3759  1.7825  1.4275
 6768TIP3   OH241938   6.552   3.783   8.328  0.2273 -0.6326 -0.0621
 6768TIP3    H141939   6.496   3.710   8.302  0.8778 -1.1026 -0.1693
 6768TIP3    H241940   6.601   3.805   8.248  2.0136 -1.8748  0.6195
 6769TIP3   OH241941   2.009   3.819   7.378 -0.1665 -0.3860 -0.9517
 6769TIP3    H141942   2.002   3.874   7.300 -0.0272 -1.2585 -1.6008
 6769TIP3    H241943   2.045   3.876   7.445 -0.7835  0.5263 -1.3770
 6770TIP3   OH241944   2.649   3.710   7.296 -0.4731 -0.4597  0.0832
 6770TIP3    H141945   2.737   3.743   7.279 -0.9123  1.7876  1.7816
 6770TIP3    H241946   2.650   3.688   7.389 -2.0440  0.7675  0.4120
 6771TIP3   OH241947   1.007   3.924   0.648 -0.4608 -0.0878 -0.1302
 6771TIP3    H141948   1.034   3.917   0.740  0.4751 -0.9485 -0.4535
 6771TIP3    H241949   0.966   4.011   0.642 -1.2569 -0.3214  1.2710
 6772TIP3   OH241950   0.421   3.208   7.861 -0.0034 -0.4055 -0.5086
 6772TIP3    H141951   0.401   3.132   7.916 -0.2624  0.2958  0.4116
 6772TIP3    H241952   0.513   3.198   7.838 -0.2290 -1.3752 -1.0345
 6773TIP3   OH241953   4.303   3.871   1.755  0.1835  0.4097  0.4029
 6773TIP3    H141954   4.337   3.789   1.792 -1.3686  0.0091  1.0186
 6773TIP3    H241955   4.346   3.878   1.670 -2.2647 -2.9848 -1.3536
 6774TIP3   OH241956   0.143   1.785   7.646 -0.5408  0.2813  0.0862
 6774TIP3    H141957   0.195   1.807   7.723 -1.5231 -1.3480  1.2562
 6774TIP3    H241958   0.153   1.691   7.635  1.0075  0.6550 -2.9134
 6775TIP3   OH241959   2.543   6.025   8.257 -0.1355 -0.3128  0.3440
 6775TIP3    H141960   2.484   6.072   8.197  0.0725  0.2051  0.5342
 6775TIP3    H241961   2.618   6.000   8.202  0.5923  1.1665  0.6079
 6776TIP3   OH241962   6.831   1.990   0.697 -0.6473 -0.3947 -0.5595
 6776TIP3    H141963   6.740   1.975   0.719 -0.7523  0.1853 -0.5844
 6776TIP3    H241964   6.829   2.022   0.607 -0.3885 -0.7128 -0.6840
 6777TIP3   OH241965   4.307   6.499   8.489  1.2182  0.2363  0.6449
 6777TIP3    H141966   4.245   6.480   8.560  0.5722  0.6392  0.2003
 6777TIP3    H241967   4.271   6.576   8.446  1.8060  0.2157  0.1053
 6778TIP3   OH241968   5.149   1.638   8.156 -0.2496  0.3877  0.1108
 6778TIP3    H141969   5.084   1.581   8.114 -0.1138  2.0396 -2.5190
 6778TIP3    H241970   5.099   1.714   8.184  0.1737  0.5838  0.3342
 6779TIP3   OH241971   2.320   4.487   7.884 -0.1951  0.0197  0.0935
 6779TIP3    H141972   2.230   4.464   7.859  0.1375 -0.2908 -0.8478
 6779TIP3    H241973   2.309   4.542   7.962 -1.2313  0.4831 -0.3492
 6780TIP3   OH241974   0.775   5.308   0.986 -0.2405  0.3342 -0.0892
 6780TIP3    H141975   0.863   5.297   0.949 -0.5429  0.9021 -1.0287
 6780TIP3    H241976   0.789   5.317   1.080  0.6459 -0.2304 -0.1528
 6781TIP3   OH241977   4.499   6.723   1.370  0.1608 -0.0353 -0.2080
 6781TIP3    H141978   4.588   6.743   1.342  0.3121 -0.7837 -0.2695
 6781TIP3    H241979   4.507   6.695   1.461  0.0906 -0.8465 -0.4443
 6782TIP3   OH241980   1.965   3.396   7.646 -0.3781  0.2311  0.4174
 6782TIP3    H141981   1.946   3.477   7.694  0.4138  0.5733  0.1713
 6782TIP3    H241982   1.879   3.364   7.617 -0.8840 -0.0051  2.0701
 6783TIP3   OH241983   1.690   4.274   0.614 -0.2854 -0.1153 -0.2100
 6783TIP3    H141984   1.705   4.182   0.592  0.3501  0.1609 -0.9210
 6783TIP3    H241985   1.772   4.318   0.594  0.2069  0.2541  2.2441
 6784TIP3   OH241986   5.700   4.697   6.888  0.3542 -0.8240  0.0140
 6784TIP3    H141987   5.764   4.743   6.943  1.1980 -0.5625 -1.1515
 6784TIP3    H241988   5.692   4.752   6.810 -1.6609 -0.6124  0.3144
 6785TIP3   OH241989   5.382   1.478   0.169 -0.2966  0.1005 -0.4748
 6785TIP3    H141990   5.317   1.542   0.200 -0.9206 -0.5721 -0.3827
 6785TIP3    H241991   5.356   1.395   0.209  0.4174 -0.2543 -0.7205
 6786TIP3   OH241992   5.549   3.819   0.141 -0.7474  0.3300 -0.2871
 6786TIP3    H141993   5.600   3.832   0.062 -1.5168 -0.9177 -1.0135
 6786TIP3    H241994   5.516   3.906   0.162  1.3506  1.1116  0.0275
 6787TIP3   OH241995   0.307   5.370   6.998 -0.4196 -0.1250  0.0738
 6787TIP3    H141996   0.245   5.405   6.935 -0.4515 -1.5522 -0.7238
 6787TIP3    H241997   0.335   5.286   6.961  0.6221 -0.3485  1.2840
 6788TIP3   OH241998   3.060   2.292   7.611 -0.1726  0.0578  0.1402
 6788TIP3    H141999   2.977   2.289   7.564 -0.0374 -1.2243 -0.0638
 6788TIP3    H242000   3.037   2.265   7.700 -0.3345  1.9303  0.7089
 6789TIP3   OH242001   0.921   6.184   7.548  0.1097 -0.1615  0.2198
 6789TIP3    H142002   0.843   6.187   7.493 -0.4437 -0.6160  0.9559
 6789TIP3    H242003   0.990   6.151   7.490 -0.1012  0.7417 -0.5799
 6790TIP3   OH242004   5.070   2.047   1.284 -0.5283 -0.8867  0.3885
 6790TIP3    H142005   5.041   1.957   1.276  1.9448 -1.6637 -0.5900
 6790TIP3    H242006   4.989   2.097   1.298 -2.6014 -2.6218 -3.7679
 6791TIP3   OH242007   5.039   1.049   7.758 -0.3936  0.2366  0.0516
 6791TIP3    H142008   5.048   1.145   7.760 -0.1952  0.2648 -1.1642
 6791TIP3    H242009   5.082   1.019   7.838 -2.6953  1.3042  1.8071
 6792TIP3   OH242010   6.384   5.228   8.566 -0.0838 -0.2951 -0.5289
 6792TIP3    H142011   6.292   5.222   8.593 -0.1519  1.3728 -0.3068
 6792TIP3    H242012   6.408   5.319   8.582  1.7524 -0.7986 -0.1881
 6793TIP3   OH242013   3.639   2.127   1.624  0.7393 -0.1815  0.2189
 6793TIP3    H142014   3.691   2.057   1.586  2.8475  1.1051  0.5470
 6793TIP3    H242015   3.662   2.126   1.717 -1.5772 -0.9821  0.8434
 6794TIP3   OH242016   0.178   1.665   7.366  0.5775  0.0404  0.2129
 6794TIP3    H142017   0.139   1.689   7.450  0.5166 -2.2319  0.9122
 6794TIP3    H242018   0.112   1.609   7.324  1.9592 -1.7128  0.2476
 6795TIP3   OH242019   1.662   1.025   0.709  0.3428 -0.0260 -0.0211
 6795TIP3    H142020   1.577   0.994   0.740  0.7482  1.0886  2.4171
 6795TIP3    H242021   1.688   1.092   0.772  2.3545  0.7423 -1.5621
 6796TIP3   OH242022   6.139   5.654   0.412 -0.2348 -0.7718  0.3193
 6796TIP3    H142023   6.110   5.621   0.327 -0.6032 -1.1276  0.5799
 6796TIP3    H242024   6.059   5.659   0.465 -0.0202 -0.4797  0.6188
 6797TIP3   OH242025   0.072   4.394   1.697  0.1889  0.6750 -0.1735
 6797TIP3    H142026   0.068   4.381   1.791 -0.2200  0.1084 -0.2651
 6797TIP3    H242027   0.103   4.310   1.662  0.8918  1.0624 -0.4968
 6798TIP3   OH242028   1.545   2.499   0.115  0.4409 -0.2986 -0.0179
 6798TIP3    H142029   1.619   2.497   0.054  0.6309 -0.1471  0.2099
 6798TIP3    H242030   1.468   2.485   0.059  0.1643  3.7997 -0.9836
 6799TIP3   OH242031   2.621   4.730   6.785  0.5996 -0.3533  0.1080
 6799TIP3    H142032   2.650   4.742   6.876 -1.2622 -1.2813  0.8872
 6799TIP3    H242033   2.532   4.696   6.793 -0.4843  1.6553 -2.0967
 6800TIP3   OH242034   0.811   0.255   8.006  0.5342  0.5891  0.8409
 6800TIP3    H142035   0.769   0.223   7.926 -0.1029  1.0854  0.9638
 6800TIP3    H242036   0.839   0.176   8.052 -0.7310  0.1989  0.9904
 6801TIP3   OH242037   5.607   1.302   0.526  0.5578  0.1700  0.0171
 6801TIP3    H142038   5.560   1.324   0.607 -0.3498  0.5689 -0.5923
 6801TIP3    H242039   5.657   1.381   0.506  0.9650 -0.0110  0.3014
 6802TIP3   OH242040   1.836   1.091   1.763  0.8763  0.8671 -0.7717
 6802TIP3    H142041   1.881   1.089   1.848 -0.1312  0.9770 -0.2141
 6802TIP3    H242042   1.880   1.025   1.710 -0.0469 -0.9866  0.6676
 6803TIP3   OH242043   5.605   6.325   7.566  0.1670  0.0373  0.4049
 6803TIP3    H142044   5.697   6.347   7.555  0.2560 -0.7800 -0.5609
 6803TIP3    H242045   5.574   6.386   7.633  1.3944  0.3369  0.7261
 6804TIP3   OH242046   1.616   3.706   6.408  0.0518 -0.3481  0.0895
 6804TIP3    H142047   1.692   3.751   6.370  0.3085 -1.9233 -1.3739
 6804TIP3    H242048   1.653   3.654   6.480 -0.0862  0.8875  1.0920
 6805TIP3   OH242049   4.283   2.571   0.045  0.3198  0.7692 -0.1197
 6805TIP3    H142050   4.240   2.500   0.093  1.1165  0.2119 -0.2021
 6805TIP3    H242051   4.343   2.610   0.109  0.8124  0.5312 -0.4294
 6806TIP3   OH242052   3.028   6.275   8.260  0.3277  0.0910 -0.0645
 6806TIP3    H142053   2.965   6.230   8.202 -1.2057  0.7603  1.0087
 6806TIP3    H242054   3.041   6.361   8.218 -0.1066  0.2511  0.1237
 6807TIP3   OH242055   2.689   0.561   6.602  0.5098  0.5323  0.0974
 6807TIP3    H142056   2.731   0.477   6.617  0.6544  0.6167  0.1669
 6807TIP3    H242057   2.761   0.622   6.588  0.4122  0.6815  0.2399
 6808TIP3   OH242058   1.128   5.089   8.679  0.0107  0.5196  0.1609
 6808TIP3    H142059   1.119   5.167   8.624  1.3938  0.3790 -0.2953
 6808TIP3    H242060   1.045   5.043   8.668 -0.5539  1.5661 -0.1218
 6809TIP3   OH242061   0.915   5.446   7.163 -0.8116  0.2188 -0.5503
 6809TIP3    H142062   0.832   5.441   7.210 -1.1649 -0.0846 -1.1943
 6809TIP3    H242063   0.897   5.406   7.078  0.6908 -2.5421  0.3039
 6810TIP3   OH242064   1.116   2.048   8.834  0.0700 -0.2359 -0.2148
 6810TIP3    H142065   1.144   2.008   8.751  0.0885  0.1855 -0.4139
 6810TIP3    H242066   1.183   2.113   8.853 -0.0001 -0.2490  0.0718
 6811TIP3   OH242067   5.708   4.022   8.504  0.5787 -0.3254  0.9384
 6811TIP3    H142068   5.787   4.076   8.502  1.2995 -1.3668  0.7235
 6811TIP3    H242069   5.727   3.948   8.447 -1.7818  0.9894 -1.8444
 6812TIP3   OH242070   6.001   3.606   7.236  0.0803  1.2785  0.0802
 6812TIP3    H142071   6.087   3.649   7.230  0.0839  1.5462  1.7708
 6812TIP3    H242072   6.010   3.529   7.179  1.7513  0.8172  0.8913
 6813TIP3   OH242073   6.431   3.914   6.643 -0.9345 -0.4549  0.6783
 6813TIP3    H142074   6.508   3.929   6.698 -0.6021  1.5500 -0.2670
 6813TIP3    H242075   6.366   3.876   6.703  0.4470 -1.2814  1.7036
 6814TIP3   OH242076   3.291   4.706   0.271  0.0976 -0.3165 -0.1880
 6814TIP3    H142077   3.284   4.673   0.360 -0.3402 -0.1195 -0.1436
 6814TIP3    H242078   3.224   4.658   0.222  0.1294 -0.2062 -0.3407
 6815TIP3   OH242079   1.115   2.946   2.273 -0.0186 -0.6568  0.1848
 6815TIP3    H142080   1.093   2.853   2.265  0.8309 -0.7286 -1.9455
 6815TIP3    H242081   1.066   2.988   2.203  1.1511  0.1961 -0.1431
 6816TIP3   OH242082   4.598   3.709   7.479  0.2689 -0.7210  0.4463
 6816TIP3    H142083   4.522   3.703   7.537  0.0405 -2.4113  0.0483
 6816TIP3    H242084   4.605   3.801   7.457  0.1079 -0.0859  2.8047
 6817TIP3   OH242085   4.053   4.473   7.754 -0.4250  0.2833  0.1366
 6817TIP3    H142086   4.086   4.441   7.670 -1.0932 -1.6061  0.5631
 6817TIP3    H242087   3.958   4.482   7.741 -0.7789 -1.5917  1.1271
 6818TIP3   OH242088   5.621   3.096   8.823 -0.2701 -0.1056  0.5155
 6818TIP3    H142089   5.645   3.025   8.883  1.2612 -0.7524 -0.7963
 6818TIP3    H242090   5.577   3.052   8.750  0.8983  0.2264 -0.4217
 6819TIP3   OH242091   0.770   1.659   7.645  0.3486  0.2123 -0.2561
 6819TIP3    H142092   0.840   1.656   7.580  1.4941  0.0322  0.9379
 6819TIP3    H242093   0.734   1.748   7.637  0.9147  0.4107 -0.6818
 6820TIP3   OH242094   5.117   3.943   6.618 -0.0200 -0.1727 -0.0220
 6820TIP3    H142095   5.058   3.871   6.597 -1.1316  0.0149  2.1902
 6820TIP3    H242096   5.072   4.021   6.587 -0.8656 -0.0534  1.4454
 6821TIP3   OH242097   4.234   3.477   1.726 -0.2552  0.3734 -0.3803
 6821TIP3    H142098   4.243   3.385   1.748  1.9110  0.5907 -0.1093
 6821TIP3    H242099   4.242   3.523   1.810 -1.3240  0.8295 -0.5088
 6822TIP3   OH242100   0.402   1.649   8.038 -0.5370 -0.0778 -0.2431
 6822TIP3    H142101   0.466   1.707   7.997  0.3795 -1.2592 -0.5380
 6822TIP3    H242102   0.380   1.585   7.970 -0.3453 -1.0077  0.5382
 6823TIP3   OH242103   3.162   4.076   1.027 -0.0324 -0.1891 -0.0875
 6823TIP3    H142104   3.084   4.023   1.043  1.0096 -1.9131 -0.4376
 6823TIP3    H242105   3.131   4.149   0.973 -1.4496 -0.6475  0.0677
 6824TIP3   OH242106   0.882   1.009   7.848  0.1985  0.6360  0.2720
 6824TIP3    H142107   0.866   1.035   7.757 -1.8838 -1.4635 -0.0682
 6824TIP3    H242108   0.941   0.934   7.841 -1.8542 -1.0837  0.3681
 6825TIP3   OH242109   1.097   3.714   7.430 -0.0234 -0.2091 -0.3461
 6825TIP3    H142110   1.057   3.783   7.482  0.9022  0.9937 -1.1887
 6825TIP3    H242111   1.047   3.635   7.453 -0.8668  0.6481  0.8983
 6826TIP3   OH242112   4.076   1.813   7.076  0.2410  0.5913  0.3033
 6826TIP3    H142113   4.112   1.728   7.103  1.4764  1.1330  0.4484
 6826TIP3    H242114   4.091   1.817   6.982 -0.4656  0.3576  0.1773
 6827TIP3   OH242115   3.103   0.864   6.091 -0.8174 -0.7565 -0.3132
 6827TIP3    H142116   3.027   0.915   6.062 -0.3104  1.0649  1.3094
 6827TIP3    H242117   3.071   0.815   6.167  0.0078  1.6377  1.7255
 6828TIP3   OH242118   5.102   0.474   1.188  0.3323 -0.4817 -0.0285
 6828TIP3    H142119   5.061   0.474   1.102  0.5502  1.7719 -0.2107
 6828TIP3    H242120   5.037   0.514   1.246  0.3740 -1.5357  0.7856
 6829TIP3   OH242121   2.859   6.731   0.824 -0.1660  0.3475  0.4373
 6829TIP3    H142122   2.835   6.760   0.912  1.0331  1.3184  0.4665
 6829TIP3    H242123   2.776   6.727   0.776 -0.8037  0.0240  1.5355
 6830TIP3   OH242124   2.787   4.698   2.078  0.1743 -0.3896 -0.3373
 6830TIP3    H142125   2.835   4.636   2.023  0.5082  0.8127 -1.4476
 6830TIP3    H242126   2.744   4.643   2.144  0.3217 -1.8138 -1.3773
 6831TIP3   OH242127   1.563   5.774   1.885  0.5544 -0.3010  0.2839
 6831TIP3    H142128   1.491   5.808   1.832  1.6782 -0.7875 -1.6363
 6831TIP3    H242129   1.530   5.690   1.919  0.3954 -0.7915 -1.0471
 6832TIP3   OH242130   4.310   1.949   7.861  0.1542  0.3756 -1.1026
 6832TIP3    H142131   4.301   2.043   7.846  0.0878  0.7739  1.1726
 6832TIP3    H242132   4.397   1.939   7.901 -0.5349 -0.2828  0.3085
 6833TIP3   OH242133   4.743   0.930   7.793 -0.0512 -0.4823  0.1022
 6833TIP3    H142134   4.835   0.927   7.769  0.3619 -2.4099  1.7421
 6833TIP3    H242135   4.733   1.013   7.840  1.1877 -0.8645  1.1001
 6834TIP3   OH242136   2.764   5.704   0.125 -0.0768 -0.2472  0.2438
 6834TIP3    H142137   2.845   5.721   0.076 -1.2421 -2.9338 -3.0363
 6834TIP3    H242138   2.695   5.708   0.058 -2.1257 -2.0704  2.1145
 6835TIP3   OH242139   2.739   6.329   0.980  0.0454  0.0473 -0.4915
 6835TIP3    H142140   2.782   6.304   0.899 -0.3480 -0.7805 -0.4533
 6835TIP3    H242141   2.800   6.303   1.049 -0.5563 -1.2767 -0.4294
 6836TIP3   OH242142   4.719   0.746   1.230 -0.0569 -0.4183  0.2797
 6836TIP3    H142143   4.675   0.672   1.273 -2.0283  0.8487  0.5872
 6836TIP3    H242144   4.805   0.750   1.271 -0.7286 -1.1979  1.8563
 6837TIP3   OH242145   0.044   2.111   7.347 -0.3036 -0.1402  0.0391
 6837TIP3    H142146   0.073   2.184   7.401  0.1914 -1.5689  1.8219
 6837TIP3    H242147   0.012   2.046   7.409 -0.9473 -1.3520 -1.4843
 6838TIP3   OH242148   1.972   6.008   1.535 -0.0519  0.1921  0.7590
 6838TIP3    H142149   1.877   6.021   1.533 -0.0198  0.4755 -1.4333
 6838TIP3    H242150   1.983   5.913   1.540 -0.5610 -0.0877 -1.8450
 6839TIP3   OH242151   1.804   6.063   7.379 -0.1306 -0.2624 -0.3249
 6839TIP3    H142152   1.780   6.068   7.472 -0.3489  0.6914 -0.4224
 6839TIP3    H242153   1.872   6.130   7.369  0.5161 -0.9525 -0.6787
 6840TIP3   OH242154   6.553   2.520   8.752  0.2357 -0.2204  0.0966
 6840TIP3    H142155   6.480   2.569   8.790  0.3725  0.3016 -0.3127
 6840TIP3    H242156   6.514   2.436   8.727 -0.4416  0.3983 -0.9683
 6841TIP3   OH242157   5.037   6.014   0.340  0.0448  0.7037  0.1363
 6841TIP3    H142158   5.114   6.023   0.396  0.2376 -0.4444  0.0884
 6841TIP3    H242159   4.964   6.044   0.393  0.4280  1.0445  0.4677
 6842TIP3   OH242160   3.203   2.772   7.690  0.0053  0.0220  0.3872
 6842TIP3    H142161   3.222   2.680   7.705  0.4547  0.1468  0.6196
 6842TIP3    H242162   3.108   2.779   7.696  0.0124 -0.3215  0.9814
 6843TIP3   OH242163   2.225   5.264   8.497  0.1408  0.0353  0.1188
 6843TIP3    H142164   2.291   5.195   8.500 -0.4840 -0.5452  1.3234
 6843TIP3    H242165   2.259   5.328   8.435  0.3903 -1.7087 -1.6505
 6844TIP3   OH242166   1.972   0.376   7.060  0.0704 -0.4275  0.3116
 6844TIP3    H142167   1.911   0.444   7.030  0.0096 -0.8327 -0.4992
 6844TIP3    H242168   1.970   0.383   7.156  2.0478  2.4421  0.2601
 6845TIP3   OH242169   5.566   3.757   1.640 -0.1619 -0.0890  0.6571
 6845TIP3    H142170   5.505   3.758   1.715 -0.4562  2.5293  0.4553
 6845TIP3    H242171   5.509   3.766   1.564  0.3041 -0.7198  0.2250
 6846TIP3   OH242172   4.551   6.402   8.591 -0.0417 -0.0963 -1.0828
 6846TIP3    H142173   4.489   6.474   8.582 -0.7629 -0.7932 -1.8049
 6846TIP3    H242174   4.614   6.433   8.657 -1.5366  0.3468  0.2117
 6847TIP3   OH242175   1.587   0.965   0.314 -0.2776  0.1680  0.2172
 6847TIP3    H142176   1.650   1.018   0.362 -0.5854  0.7935 -0.0673
 6847TIP3    H242177   1.617   0.967   0.223  0.5889 -1.4236  0.4210
 6848TIP3   OH242178   5.497   6.431   8.131 -0.1989 -0.2088  0.4130
 6848TIP3    H142179   5.589   6.420   8.154 -0.0331 -2.4667 -1.0218
 6848TIP3    H242180   5.471   6.513   8.174  2.4747  0.5418  0.7622
 6849TIP3   OH242181   3.467   0.173   7.270 -0.0263 -0.4305  0.0005
 6849TIP3    H142182   3.525   0.210   7.336  1.1664  1.5426 -2.0064
 6849TIP3    H242183   3.526   0.131   7.207 -0.8990 -0.0643 -1.1055
 6850TIP3   OH242184   1.057   3.362   1.722  0.1689 -0.3988  0.0268
 6850TIP3    H142185   1.024   3.277   1.751  0.7574 -0.9361 -0.8287
 6850TIP3    H242186   0.994   3.391   1.656  0.5873 -0.7383 -0.5374
 6851TIP3   OH242187   3.228   1.976   8.363  0.3705 -0.5861  0.5210
 6851TIP3    H142188   3.260   1.918   8.432 -0.4548 -1.5320  0.1251
 6851TIP3    H242189   3.142   1.941   8.339 -0.8400  1.6640  1.2916
 6852TIP3   OH242190   6.240   5.803   0.955 -0.1585  0.0742  0.1382
 6852TIP3    H142191   6.307   5.871   0.943 -1.5338  1.5063  0.2970
 6852TIP3    H242192   6.276   5.747   1.024  1.1633  0.4287 -0.2318
 6853TIP3   OH242193   5.136   5.296   0.880 -0.1257 -0.4503 -0.6162
 6853TIP3    H142194   5.051   5.339   0.884 -0.5749 -1.2584 -1.1146
 6853TIP3    H242195   5.117   5.205   0.903  0.7427 -0.4679  0.0776
 6854TIP3   OH242196   4.646   2.049   6.776  0.5551 -0.2642 -0.0513
 6854TIP3    H142197   4.564   2.008   6.748  0.1731 -1.0086  2.0242
 6854TIP3    H242198   4.638   2.140   6.746 -1.7940  0.1222  1.4472
 6855TIP3   OH242199   4.783   5.396   8.318  0.1134  0.7093  0.0984
 6855TIP3    H142200   4.792   5.426   8.408  1.2044  2.5272 -0.5523
 6855TIP3    H242201   4.800   5.302   8.321 -1.9046  0.3382  2.0464
 6856TIP3   OH242202   2.749   1.118   6.973 -0.1669 -0.0677  0.0560
 6856TIP3    H142203   2.836   1.090   6.944  0.3083  0.9168  0.4763
 6856TIP3    H242204   2.702   1.036   6.991  0.9710 -0.6115  0.6745
 6857TIP3   OH242205   3.482   5.654   8.798 -0.5579  0.3415  0.2219
 6857TIP3    H142206   3.404   5.600   8.782 -0.3924 -0.1597  1.0041
 6857TIP3    H242207   3.550   5.590   8.820  0.7952  0.5523 -2.9011
 6858TIP3   OH242208   2.848   1.345   8.176  0.1611 -0.5878 -0.8970
 6858TIP3    H142209   2.895   1.416   8.134 -0.3404 -0.3841 -1.1278
 6858TIP3    H242210   2.762   1.345   8.134 -0.6067  0.0852  0.6141
 6859TIP3   OH242211   4.213   0.636   8.620 -0.8140  0.2576 -0.0506
 6859TIP3    H142212   4.138   0.581   8.644 -1.7171  0.9471 -1.1951
 6859TIP3    H242213   4.179   0.726   8.627  0.5237  0.6969  1.4400
 6860TIP3   OH242214   2.390   5.864   8.664 -0.1245  0.1129  0.0576
 6860TIP3    H142215   2.319   5.802   8.679  1.5925 -3.0624 -3.2151
 6860TIP3    H242216   2.375   5.898   8.575  1.4413  0.7782  0.0005
 6861TIP3   OH242217   5.260   4.673   1.030 -0.2550  0.0488 -0.0028
 6861TIP3    H142218   5.243   4.606   0.964  1.1641  1.0900 -1.5057
 6861TIP3    H242219   5.230   4.755   0.991  0.2748  0.6382  0.7806
 6862TIP3   OH242220   0.694   3.683   7.164  0.1514  0.0548  0.2845
 6862TIP3    H142221   0.701   3.589   7.148 -1.2400  0.2303 -1.7859
 6862TIP3    H242222   0.612   3.693   7.213 -0.0408  0.2370 -0.0724
 6863TIP3   OH242223   5.884   1.925   8.594 -0.3412 -0.0603  0.4776
 6863TIP3    H142224   5.892   1.849   8.652 -1.0461 -0.2032  0.3954
 6863TIP3    H242225   5.822   1.897   8.526 -1.5336  0.9591  1.0969
 6864TIP3   OH242226   4.772   0.839   0.533 -0.6272 -0.5051  0.6152
 6864TIP3    H142227   4.794   0.821   0.624 -0.9047  0.6272  0.9164
 6864TIP3    H242228   4.813   0.923   0.514 -1.1875 -0.3798 -0.0883
 6865TIP3   OH242229   4.924   6.121   0.805  0.0458 -0.2825  0.5388
 6865TIP3    H142230   4.836   6.156   0.818 -0.2473 -1.6369  2.7267
 6865TIP3    H242231   4.980   6.198   0.798 -1.0394  0.6238  1.4137
 6866TIP3   OH242232   4.781   5.775   8.616 -0.2351  0.3416 -0.2563
 6866TIP3    H142233   4.734   5.746   8.537 -1.2158 -0.5442  0.6236
 6866TIP3    H242234   4.759   5.868   8.623 -0.4696  0.3335 -0.8165
 6867TIP3   OH242235   4.201   5.942   1.239  0.5703  0.1019  0.2908
 6867TIP3    H142236   4.166   5.853   1.233 -1.8769  1.0414 -0.4301
 6867TIP3    H242237   4.234   5.960   1.151 -1.2763  0.7596 -0.3053
 6868TIP3   OH242238   0.623   0.708   8.548 -0.0679 -0.0108  0.3308
 6868TIP3    H142239   0.637   0.802   8.539  1.4428 -0.1183  1.2415
 6868TIP3    H242240   0.617   0.676   8.459 -0.4584  0.9269  0.0064
 6869TIP3   OH242241   4.048   6.119   0.977 -0.4948  0.2268  0.2517
 6869TIP3    H142242   4.129   6.068   0.968 -0.4970  0.5983 -3.8736
 6869TIP3    H242243   3.978   6.053   0.978 -0.2811 -0.0077 -0.1101
 6870TIP3   OH242244   2.391   0.329   7.077 -0.2443  0.6165 -0.0100
 6870TIP3    H142245   2.467   0.352   7.129  1.5100 -1.2673 -1.5572
 6870TIP3    H242246   2.405   0.372   6.992 -1.4131  1.0307 -0.0173
 6871TIP3   OH242247   4.814   2.337   6.848 -0.4546  0.5435  0.2897
 6871TIP3    H142248   4.824   2.305   6.937  0.1000 -1.2580 -0.3634
 6871TIP3    H242249   4.869   2.279   6.795 -0.0412  2.1258 -1.1235
 6872TIP3   OH242250   3.166   3.651   1.774 -0.2992 -0.1499 -0.0552
 6872TIP3    H142251   3.114   3.662   1.694  0.3662 -1.4729 -0.7076
 6872TIP3    H242252   3.174   3.739   1.810 -3.3154  0.0607  0.3060
 6873TIP3   OH242253   2.926   3.343   8.371 -0.0572 -0.5806 -0.0307
 6873TIP3    H142254   2.869   3.297   8.309 -1.0136 -2.0681  1.8701
 6873TIP3    H242255   2.865   3.394   8.426  0.7468  0.4661 -0.0816
 6874TIP3   OH242256   4.453   0.992   7.369 -0.5713  0.2899 -0.2822
 6874TIP3    H142257   4.495   0.924   7.317 -0.6348 -0.8104  1.0498
 6874TIP3    H242258   4.456   0.959   7.459  2.0027  3.3044  0.9275
 6875TIP3   OH242259   0.116   5.293   2.008  0.5586  0.5771 -0.0406
 6875TIP3    H142260   0.153   5.343   2.081 -2.0204  0.2932  1.6379
 6875TIP3    H242261   0.050   5.236   2.050  0.9546 -1.7157 -2.2829
 6876TIP3   OH242262   3.452   4.943   8.391 -0.0788  0.4112  0.0201
 6876TIP3    H142263   3.484   4.972   8.477 -0.5885 -1.0376  0.7361
 6876TIP3    H242264   3.361   4.916   8.408  0.5040 -2.0618 -0.4418
 6877TIP3   OH242265   3.448   3.124   2.240 -0.1753 -0.3792  0.3562
 6877TIP3    H142266   3.522   3.132   2.300  2.0524 -1.5764 -2.0394
 6877TIP3    H242267   3.392   3.199   2.261  0.6809 -0.4783  3.5221
 6878TIP3   OH242268   0.479   6.442   8.662 -0.2048 -0.2398  0.0797
 6878TIP3    H142269   0.409   6.503   8.639 -1.3406 -1.3217  0.5477
 6878TIP3    H242270   0.552   6.467   8.605 -0.5884  1.6009  0.3340
 6879TIP3   OH242271   3.068   0.400   1.070 -0.6068 -0.0075  0.2344
 6879TIP3    H142272   3.125   0.437   1.002  1.4851 -1.3047  1.1723
 6879TIP3    H242273   3.044   0.314   1.037 -1.7776  0.3789  0.0204
 6880TIP3   OH242274   3.928   0.071   0.256  0.0933 -0.3642  0.8259
 6880TIP3    H142275   3.913  -0.020   0.282  0.4654 -0.6756 -0.0162
 6880TIP3    H242276   3.987   0.065   0.181 -0.0048  0.5675  0.6656
 6881TIP3   OH242277   0.667   1.935   0.916 -0.5776 -0.4753  0.1538
 6881TIP3    H142278   0.711   1.985   0.984  0.1152  0.5335 -1.0006
 6881TIP3    H242279   0.637   1.855   0.960 -0.7786  0.4680  1.7899
 6882TIP3   OH242280   3.951   4.988   2.461  0.4638  0.2160 -0.6701
 6882TIP3    H142281   4.005   5.050   2.510  1.9742 -2.2094  0.9450
 6882TIP3    H242282   4.013   4.923   2.428 -1.1783 -1.2857 -0.9656
 6883TIP3   OH242283   4.686   3.605   1.964  0.3860  0.0996  0.1387
 6883TIP3    H142284   4.626   3.546   2.010  1.4176  0.1602  1.6298
 6883TIP3    H242285   4.770   3.592   2.008  1.4535  0.1168 -1.8019
 6884TIP3   OH242286   3.807   2.945   0.180 -0.2922 -0.2441  0.5953
 6884TIP3    H142287   3.842   2.964   0.093 -1.0750  0.2338  0.3750
 6884TIP3    H242288   3.712   2.952   0.170 -0.3930 -0.1951  1.4813
 6885TIP3   OH242289   2.093   0.812   7.522  0.0741  0.2864  0.4438
 6885TIP3    H142290   2.151   0.764   7.463  0.3206 -0.6568  1.4380
 6885TIP3    H242291   2.132   0.900   7.527  0.0190  0.4065 -0.8068
 6886TIP3   OH242292   5.843   1.475   0.971 -0.0260 -0.0485 -0.2784
 6886TIP3    H142293   5.884   1.560   0.988  0.1383 -0.1381 -0.2326
 6886TIP3    H242294   5.773   1.469   1.036 -1.4120  0.9924 -1.6059
 6887TIP3   OH242295   0.087   2.418   8.482 -0.8249  0.5678  0.1086
 6887TIP3    H142296   0.167   2.469   8.490 -0.5441  0.0589  0.5752
 6887TIP3    H242297   0.075   2.407   8.387 -1.0110  1.6754 -0.0112
 6888TIP3   OH242298   6.112   6.456   1.568 -1.1773  0.6433 -0.1551
 6888TIP3    H142299   6.198   6.473   1.528  0.2078 -4.1239  0.1620
 6888TIP3    H242300   6.058   6.424   1.496 -2.4891  2.7274 -0.1645
 6889TIP3   OH242301   0.968   5.341   8.155  0.3827 -0.1922  0.0614
 6889TIP3    H142302   0.959   5.393   8.075 -0.8586 -0.6345 -0.1088
 6889TIP3    H242303   1.026   5.392   8.211  1.4672  0.0206 -1.2036
 6890TIP3   OH242304   1.135   0.744   1.121  0.3030 -0.5626  0.0652
 6890TIP3    H142305   1.104   0.832   1.102  1.2414 -0.3731 -0.6589
 6890TIP3    H242306   1.227   0.756   1.144  0.3387 -1.3166  0.3289
 6891TIP3   OH242307   4.575   1.095   0.393  0.3824  0.1117 -0.3802
 6891TIP3    H142308   4.656   1.106   0.444  1.0609  0.0775 -1.4177
 6891TIP3    H242309   4.605   1.064   0.308 -0.8155 -0.8557 -0.4667
 6892TIP3   OH242310   2.867   3.100   7.616  0.4454  0.2171 -0.2205
 6892TIP3    H142311   2.802   3.033   7.638  1.5077 -0.5578  0.7028
 6892TIP3    H242312   2.934   3.054   7.566  0.8243  0.7511 -0.2223
 6893TIP3   OH242313   0.696   6.476   8.501  0.1755  0.0886 -0.5576
 6893TIP3    H142314   0.699   6.555   8.446  0.5027  0.3094 -0.2278
 6893TIP3    H242315   0.754   6.496   8.575  0.6289 -0.6354 -0.7017
 6894TIP3   OH242316   3.780   5.122   8.158  0.9151 -0.1243 -0.1152
 6894TIP3    H142317   3.867   5.090   8.134  0.7881 -1.7770  1.4459
 6894TIP3    H242318   3.726   5.043   8.163 -0.0450  0.5850  1.4219
 6895TIP3   OH242319   3.159   3.903   1.890 -0.0318 -0.0459  0.0740
 6895TIP3    H142320   3.169   3.964   1.963  1.0493  1.0652 -0.9738
 6895TIP3    H242321   3.072   3.922   1.854  0.8499  1.9412 -1.1406
 6896TIP3   OH242322   6.808   5.745   7.982  0.4941 -0.1244  0.6246
 6896TIP3    H142323   6.873   5.737   8.052  1.1489 -0.0705  0.0361
 6896TIP3    H242324   6.796   5.840   7.971  1.3420 -0.0956 -0.1798
 6897TIP3   OH242325   2.087   2.832   6.540  0.3888  0.1856 -0.3665
 6897TIP3    H142326   1.993   2.846   6.530  0.6727  1.4595 -1.7392
 6897TIP3    H242327   2.126   2.918   6.525  1.7991 -0.4034 -0.2898
 6898TIP3   OH242328   3.311   1.456   0.809  0.4404  0.2173 -0.2658
 6898TIP3    H142329   3.362   1.432   0.731 -0.7620  0.8368 -1.2807
 6898TIP3    H242330   3.222   1.428   0.788 -0.0517  1.1375  0.5385
 6899TIP3   OH242331   2.035   0.137   1.568 -0.2574  0.2782  0.1003
 6899TIP3    H142332   1.962   0.107   1.514  0.2639  0.5471 -0.7791
 6899TIP3    H242333   2.052   0.226   1.538 -0.5661  0.7792  1.3777
 6900TIP3   OH242334   0.781   0.514   1.354  0.3837  0.0563  0.5221
 6900TIP3    H142335   0.782   0.539   1.446 -1.5925  1.8153  0.1395
 6900TIP3    H242336   0.835   0.580   1.310 -0.1353  0.2840  0.2178
 6901TIP3   OH242337   0.193   6.624   0.082 -0.3119 -0.4205 -0.6991
 6901TIP3    H142338   0.143   6.607   0.162 -1.0110  0.0950 -1.0173
 6901TIP3    H242339   0.278   6.584   0.099  0.0487  0.8948  0.8831
 6902TIP3   OH242340   0.564   0.604   0.410 -0.2466  0.1054 -0.1082
 6902TIP3    H142341   0.567   0.675   0.474 -2.1951 -0.0049  0.1731
 6902TIP3    H242342   0.557   0.648   0.326  0.1310  0.2473 -0.0671
 6903TIP3   OH242343   0.250   0.246   7.572  0.1006  0.0725 -0.1207
 6903TIP3    H142344   0.221   0.337   7.569 -0.4024 -0.0979 -2.5411
 6903TIP3    H242345   0.170   0.195   7.584  0.4728 -0.0674  2.1074
 6904TIP3   OH242346   1.896   6.740   6.877  0.5436  0.2095  0.5150
 6904TIP3    H142347   1.950   6.703   6.947  1.0558 -0.2222 -0.1020
 6904TIP3    H242348   1.841   6.804   6.921 -1.8611 -2.6423  2.0441
 6905TIP3   OH242349   2.801   4.227   1.869 -0.1997 -0.1118 -0.4899
 6905TIP3    H142350   2.834   4.178   1.944 -1.0729 -0.5066 -0.3487
 6905TIP3    H242351   2.797   4.162   1.799 -0.4247 -0.0055 -0.5755
 6906TIP3   OH242352   0.738   6.390   7.716 -0.0139  0.0832 -0.1846
 6906TIP3    H142353   0.734   6.405   7.622 -0.2801 -1.5582 -0.4695
 6906TIP3    H242354   0.686   6.310   7.730 -0.5242  0.6553  1.4403
 6907TIP3   OH242355   4.640   4.433   8.817  0.2903 -0.6165  0.1266
 6907TIP3    H142356   4.604   4.383   8.743 -1.9854 -0.1680  0.8410
 6907TIP3    H242357   4.692   4.502   8.776  0.9005 -1.6747 -0.9616
 6908TIP3   OH242358   4.198   5.382   0.094  0.4648  0.0023  0.5737
 6908TIP3    H142359   4.278   5.359   0.140  0.5130  0.0377  0.5088
 6908TIP3    H242360   4.131   5.326   0.131  0.4740  0.1332  0.7900
 6909TIP3   OH242361   3.037   3.316   6.894 -0.0356 -0.2157  0.0550
 6909TIP3    H142362   2.992   3.389   6.854  1.9841  1.2589  0.3148
 6909TIP3    H242363   2.992   3.303   6.978 -0.8994  0.2013 -0.3367
 6910TIP3   OH242364   4.754   3.382   0.060  0.1771  0.0726 -0.3519
 6910TIP3    H142365   4.814   3.356   0.131 -0.4307  3.2346  1.5047
 6910TIP3    H242366   4.672   3.336   0.080  0.4099 -0.1171  0.2050
 6911TIP3   OH242367   3.252   0.412   6.897 -0.5159  0.2474 -0.0623
 6911TIP3    H142368   3.264   0.317   6.892  0.4354  0.4269 -1.6030
 6911TIP3    H242369   3.205   0.435   6.817 -0.0513  1.1704 -0.0875
 6912TIP3   OH242370   5.367   5.210   8.601  0.3962  0.1134 -0.3356
 6912TIP3    H142371   5.461   5.216   8.586  0.4243  1.2227  0.1981
 6912TIP3    H242372   5.335   5.150   8.532  1.3110  0.6427 -1.2427
 6913TIP3   OH242373   1.678   0.368   1.593  0.2238  0.0654 -0.0139
 6913TIP3    H142374   1.605   0.310   1.614  0.2902 -0.2077 -0.5121
 6913TIP3    H242375   1.750   0.338   1.649 -0.1369  0.5519  0.7229
 6914TIP3   OH242376   0.869   5.770   1.997  0.0857 -0.2263  0.0933
 6914TIP3    H142377   0.847   5.678   2.006 -0.1991 -0.1790 -0.1247
 6914TIP3    H242378   0.930   5.773   1.924 -0.2109 -0.1932 -0.1530
 6915TIP3   OH242379   3.671   2.104   1.176 -0.4516 -0.1928 -0.5438
 6915TIP3    H142380   3.672   2.083   1.082 -0.6937 -1.8451 -0.2016
 6915TIP3    H242381   3.583   2.138   1.193 -0.9634 -1.4563 -0.6071
 6916TIP3   OH242382   1.359   5.933   0.264  0.4016 -0.5780  0.5890
 6916TIP3    H142383   1.396   5.877   0.331  0.9707  2.4215  3.0218
 6916TIP3    H242384   1.265   5.914   0.265  0.7534 -2.5398  0.1330
 6917TIP3   OH242385   2.526   6.057   7.817  0.0900  0.2273  0.4650
 6917TIP3    H142386   2.576   6.139   7.821  2.0508 -0.9164  0.4953
 6917TIP3    H242387   2.506   6.046   7.724  0.8394  0.1555  0.3094
 6918TIP3   OH242388   1.305   5.408   0.407 -0.9911  0.3648 -0.4141
 6918TIP3    H142389   1.276   5.478   0.349 -0.8492  1.2833  0.5905
 6918TIP3    H242390   1.269   5.328   0.369  0.3345  0.7255 -2.6066
 6919TIP3   OH242391   4.953   2.079   0.319 -0.2504 -0.6062 -0.7967
 6919TIP3    H142392   4.888   2.147   0.301  0.4625  0.0143 -1.0668
 6919TIP3    H242393   5.034   2.112   0.282  0.4420 -0.9347  0.3682
 6920TIP3   OH242394   6.735   2.142   8.392  0.2582  0.7587 -0.1875
 6920TIP3    H142395   6.665   2.079   8.409  1.2156 -0.3401 -0.2288
 6920TIP3    H242396   6.737   2.151   8.296 -0.0820  1.1043 -0.1658
 6921TIP3   OH242397   5.623   2.627   8.081 -0.0611  0.1819 -0.3866
 6921TIP3    H142398   5.672   2.677   8.016 -0.5905  1.3481  0.0794
 6921TIP3    H242399   5.655   2.538   8.072  0.1476  0.3901 -1.9873
 6922TIP3   OH242400   0.376   6.092   8.275 -0.8029  0.0086  0.0692
 6922TIP3    H142401   0.440   6.163   8.272 -0.5864 -0.1809  0.2578
 6922TIP3    H242402   0.303   6.128   8.326 -0.1910 -0.3147  1.1967
 6923TIP3   OH242403   4.248   3.907   0.891 -0.8545  0.0912 -0.5084
 6923TIP3    H142404   4.169   3.961   0.892 -1.3187 -0.5317  2.0551
 6923TIP3    H242405   4.316   3.965   0.855 -1.6481  1.9313  0.7786
 6924TIP3   OH242406   0.587   3.343   0.148 -0.2048 -0.2398  0.3106
 6924TIP3    H142407   0.655   3.328   0.083 -0.9782  1.0262 -0.8448
 6924TIP3    H242408   0.617   3.419   0.197  0.0677 -0.7962  1.0170
 6925TIP3   OH242409   1.550   2.795   1.296 -0.5029  0.2939  0.5406
 6925TIP3    H142410   1.469   2.758   1.329  0.7331 -0.3776  3.0830
 6925TIP3    H242411   1.532   2.888   1.287 -1.2762  0.3190  2.0686
 6926TIP3   OH242412   4.939   1.812   7.055 -0.3771  0.0300 -0.2330
 6926TIP3    H142413   4.983   1.729   7.039 -1.3245 -0.4103 -0.6140
 6926TIP3    H242414   5.009   1.870   7.086  0.4237 -0.7056 -0.6030
 6927TIP3   OH242415   1.857   0.554   0.849 -0.1668  0.2110  0.2643
 6927TIP3    H142416   1.785   0.607   0.815 -1.0251 -0.4651  0.9686
 6927TIP3    H242417   1.817   0.501   0.918  0.6079 -1.4751 -0.5277
 6928TIP3   OH242418   2.340   5.284   7.367 -0.3967  0.6966  0.0731
 6928TIP3    H142419   2.322   5.334   7.288  0.2600  1.1098  0.1815
 6928TIP3    H242420   2.272   5.216   7.368 -0.6226  0.9034 -0.6517
 6929TIP3   OH242421   2.541   1.364   8.453  0.2736  0.2926  0.0906
 6929TIP3    H142422   2.610   1.322   8.402 -0.3794  0.4781 -0.9724
 6929TIP3    H242423   2.512   1.297   8.515  1.2109  0.1301  0.3675
 6930TIP3   OH242424   0.706   5.980   6.490 -0.0877  0.0912 -0.2472
 6930TIP3    H142425   0.618   6.010   6.512  0.0066  0.6009 -0.5580
 6930TIP3    H242426   0.764   6.044   6.531  0.1751 -0.7729  0.7786
 6931TIP3   OH242427   5.460   2.529   0.414  0.0981  0.1000  0.0174
 6931TIP3    H142428   5.375   2.488   0.402  0.2422 -0.3342  0.4529
 6931TIP3    H242429   5.519   2.457   0.438 -0.1239  0.7874  3.1572
 6932TIP3   OH242430   1.443   6.817   1.045  0.1235 -0.0377  0.7680
 6932TIP3    H142431   1.461   6.723   1.038 -1.5773 -0.2971 -1.1967
 6932TIP3    H242432   1.497   6.857   0.977  0.8467  0.4357  1.6028
 6933TIP3   OH242433   4.793   4.235   7.087 -0.2079  0.4922 -0.4559
 6933TIP3    H142434   4.773   4.285   7.007 -0.1524 -1.1856 -1.5700
 6933TIP3    H242435   4.776   4.144   7.063  1.7177 -0.2626  0.8335
 6934TIP3   OH242436   3.888   5.938   7.707 -0.0561 -0.2101  0.6049
 6934TIP3    H142437   3.808   5.953   7.657  0.7899 -2.0166 -1.4898
 6934TIP3    H242438   3.863   5.879   7.777 -0.1384 -3.5661 -1.9938
 6935TIP3   OH242439   5.118   2.856   1.409  0.3184 -0.2200 -0.8804
 6935TIP3    H142440   5.126   2.761   1.394  0.7019 -0.2390 -0.5871
 6935TIP3    H242441   5.095   2.892   1.323 -0.0179 -0.6017 -0.9515
 6936TIP3   OH242442   4.066   5.147   0.734 -0.3242 -0.0848  0.4707
 6936TIP3    H142443   4.146   5.141   0.785 -0.9549 -0.1024  1.4833
 6936TIP3    H242444   3.996   5.149   0.799 -1.2279 -1.2657 -0.4228
 6937TIP3   OH242445   3.284   3.430   0.779 -0.0286 -0.2903 -0.1426
 6937TIP3    H142446   3.287   3.476   0.863  0.4271  2.0417 -1.3604
 6937TIP3    H242447   3.260   3.498   0.715  0.2869 -1.8436 -2.0072
 6938TIP3   OH242448   1.200   1.889   1.487 -0.8039 -0.0398 -0.1029
 6938TIP3    H142449   1.119   1.839   1.496  0.6177 -2.3785  1.0974
 6938TIP3    H242450   1.266   1.823   1.463  0.5645  1.9571 -2.2614
 6939TIP3   OH242451   2.316   3.082   0.615 -0.1213 -0.4612  0.4302
 6939TIP3    H142452   2.390   3.095   0.674  0.4487 -0.2881 -0.3131
 6939TIP3    H242453   2.265   3.163   0.621  0.0010 -0.3962  0.5892
 6940TIP3   OH242454   5.163   6.500   6.732 -0.1946  0.0828 -0.1317
 6940TIP3    H142455   5.109   6.572   6.699 -0.5602 -0.3797 -0.5573
 6940TIP3    H242456   5.113   6.421   6.710  1.2224 -0.4382 -1.6666
 6941TIP3   OH242457   5.760   1.869   7.897  0.1448  0.1414  0.3542
 6941TIP3    H142458   5.801   1.795   7.851  1.0271  0.8872 -0.0870
 6941TIP3    H242459   5.711   1.915   7.829  2.3009  1.8498 -0.1317
 6942TIP3   OH242460   6.571   4.058   7.679 -0.2061 -0.3025  0.2934
 6942TIP3    H142461   6.499   4.120   7.673 -1.6484 -1.7249  1.8343
 6942TIP3    H242462   6.567   4.025   7.769  0.5258 -2.5364 -0.4217
 6943TIP3   OH242463   2.025   3.607   1.353 -0.0552  0.1666 -0.1238
 6943TIP3    H142464   2.074   3.529   1.378 -1.5232 -0.5567  0.5890
 6943TIP3    H242465   2.055   3.675   1.413 -0.6531 -0.5318  0.9909
 6944TIP3   OH242466   3.655   3.001   8.219 -0.5889 -0.1002 -0.5963
 6944TIP3    H142467   3.741   2.993   8.261 -0.9113  0.4601  0.1930
 6944TIP3    H242468   3.667   3.065   8.150 -0.3088 -0.2256 -0.6652
 6945TIP3   OH242469   5.685   0.801   7.649  0.4307 -0.7849  0.8001
 6945TIP3    H142470   5.604   0.850   7.660 -0.0797 -1.4202  0.0041
 6945TIP3    H242471   5.661   0.728   7.591  1.3888 -1.4190  1.1809
 6946TIP3   OH242472   1.911   4.432   0.119 -0.5629  0.4195  0.2970
 6946TIP3    H142473   1.932   4.421   0.026 -0.7325  1.2114  0.1601
 6946TIP3    H242474   1.984   4.484   0.154  0.2550 -1.1015  0.9377
 6947TIP3   OH242475   0.438   5.749   0.179  0.2409  0.0904 -0.2744
 6947TIP3    H142476   0.385   5.734   0.100  0.7703 -1.5544 -0.3668
 6947TIP3    H242477   0.456   5.661   0.212  3.0556  0.5337 -0.3384
 6948TIP3   OH242478   2.412   3.173   8.791 -0.0503  0.0727  0.7640
 6948TIP3    H142479   2.402   3.268   8.790 -0.1284  0.0667  1.0147
 6948TIP3    H242480   2.409   3.149   8.883 -1.4017 -0.3140  0.6328
 6949TIP3   OH242481   5.367   4.741   8.323 -0.1764  0.4166  0.2902
 6949TIP3    H142482   5.433   4.691   8.371  0.3745 -1.3846 -2.1795
 6949TIP3    H242483   5.285   4.696   8.340 -0.0607  0.0633 -0.0924
 6950TIP3   OH242484   2.271   5.108   6.607  0.1952 -0.3869 -0.3240
 6950TIP3    H142485   2.329   5.039   6.639 -0.3494 -0.4717  0.4946
 6950TIP3    H242486   2.221   5.066   6.536  1.3578 -0.2134 -1.2801
 6951TIP3   OH242487   2.527   5.126   2.855  0.4308  0.6155 -0.0499
 6951TIP3    H142488   2.508   5.047   2.805  1.5676  0.8235 -0.8418
 6951TIP3    H242489   2.603   5.103   2.908 -0.8395  0.3435  1.7718
 6952TIP3   OH242490   4.517   3.033   6.536 -0.4024 -0.0001 -0.5042
 6952TIP3    H142491   4.578   3.096   6.573  0.5084 -1.5269  0.6946
 6952TIP3    H242492   4.434   3.052   6.579  0.1879 -0.4817  0.8780
 6953TIP3   OH242493   5.614   0.896   6.128  0.3441  0.1287  0.2244
 6953TIP3    H142494   5.689   0.918   6.072  0.2099 -1.5222 -0.6661
 6953TIP3    H242495   5.557   0.973   6.123  0.3681  0.0819 -1.8808
 6954TIP3   OH242496   1.645   2.764   0.133 -0.3364 -0.5459 -0.2972
 6954TIP3    H142497   1.596   2.835   0.092 -0.4428  0.3267  1.2696
 6954TIP3    H242498   1.586   2.688   0.129 -1.0253 -0.0243 -0.2307
 6955TIP3   OH242499   0.075   1.659   6.840  0.1579 -0.3571  0.2559
 6955TIP3    H142500   0.033   1.745   6.843 -1.6491 -1.0947 -1.2929
 6955TIP3    H242501   0.167   1.677   6.823 -0.0951  1.2829  0.5233
 6956TIP3   OH242502   5.149   0.145   1.172 -0.0970  0.1076 -0.1694
 6956TIP3    H142503   5.119   0.235   1.185 -0.3203 -0.0133  0.1732
 6956TIP3    H242504   5.235   0.154   1.131 -0.6796  0.4625 -1.3666
 6957TIP3   OH242505   2.687   1.097   1.580  0.3177  0.4237  0.1344
 6957TIP3    H142506   2.689   1.049   1.663  2.1866 -0.4590 -0.3777
 6957TIP3    H242507   2.771   1.077   1.538  0.0630  2.0946 -1.2835
 6958TIP3   OH242508   1.546   6.279   2.485  0.2802  0.7975  0.2093
 6958TIP3    H142509   1.619   6.242   2.436  0.3343 -0.6377  1.3266
 6958TIP3    H242510   1.574   6.368   2.506  0.7975  0.9924 -1.1765
 6959TIP3   OH242511   1.718   2.005   0.612  0.1202 -0.0945 -0.1150
 6959TIP3    H142512   1.649   1.994   0.546  0.9169  1.3813 -1.2578
 6959TIP3    H242513   1.673   1.996   0.696 -0.9971 -1.6252 -0.8321
 6960TIP3   OH242514   1.094   5.568   8.376  0.9188  0.4593 -0.0304
 6960TIP3    H142515   1.182   5.530   8.374  0.1102 -1.5208 -1.3085
 6960TIP3    H242516   1.041   5.503   8.422 -0.2117  0.7479 -0.8742
 6961TIP3   OH242517   5.301   3.522   6.612  0.7176 -0.4587  0.1271
 6961TIP3    H142518   5.227   3.471   6.641  0.8165 -0.5152  0.2806
 6961TIP3    H242519   5.300   3.515   6.516 -1.0571  1.7109 -0.0928
 6962TIP3   OH242520   0.065   1.135   7.261  0.0776 -0.7055  0.0409
 6962TIP3    H142521   0.034   1.176   7.341  1.1150  1.4372 -0.6002
 6962TIP3    H242522  -0.011   1.137   7.202  0.2502  0.8506 -0.1629
 6963TIP3   OH242523   0.257   0.857   7.824 -0.8751  0.3020 -0.2439
 6963TIP3    H142524   0.299   0.878   7.907 -1.6906  0.3556  0.1515
 6963TIP3    H242525   0.167   0.887   7.833 -0.8747  0.6745 -1.2892
 6964TIP3   OH242526   3.994   6.793   1.826 -0.6525 -0.1109  0.1625
 6964TIP3    H142527   4.033   6.727   1.768 -1.5840 -0.3437 -0.2040
 6964TIP3    H242528   4.018   6.765   1.914 -2.8672 -2.1978  0.1788
 6965TIP3   OH242529   5.143   2.234   8.340  0.0566  0.0085 -0.1608
 6965TIP3    H142530   5.237   2.249   8.326  0.8085 -2.8528  1.2160
 6965TIP3    H242531   5.119   2.170   8.273 -0.6634 -0.1189  0.2155
 6966TIP3   OH242532   4.901   1.762   8.460  0.1466 -0.0010 -0.4979
 6966TIP3    H142533   4.874   1.736   8.548  0.7025  0.8659 -0.0528
 6966TIP3    H242534   4.841   1.832   8.435 -1.0464 -1.3162 -1.4982
 6967TIP3   OH242535   3.258   1.515   8.753 -0.0524 -0.3181  0.1432
 6967TIP3    H142536   3.256   1.610   8.762  0.0681 -0.3847  0.9790
 6967TIP3    H242537   3.261   1.500   8.659  0.0155  0.5071  0.0028
 6968TIP3   OH242538   4.373   5.486   0.447 -0.6966 -0.2868 -0.4589
 6968TIP3    H142539   4.335   5.530   0.523  1.7664  0.4367  0.4411
 6968TIP3    H242540   4.374   5.394   0.471 -0.8338 -0.1819 -0.0337
 6969TIP3   OH242541   4.352   4.300   0.474  0.0541 -0.1212  0.1035
 6969TIP3    H142542   4.290   4.368   0.446  1.6344  1.1958 -0.3612
 6969TIP3    H242543   4.368   4.248   0.395 -0.2153 -0.2742  0.1478
 6970TIP3   OH242544   3.924   0.841   7.429  0.2857  0.1064 -0.5744
 6970TIP3    H142545   4.012   0.853   7.464  1.0250 -0.7369 -2.0799
 6970TIP3    H242546   3.893   0.930   7.411 -0.0887  0.5752  2.0006
 6971TIP3   OH242547   6.603   2.583   6.846 -0.4774 -0.2398 -0.8013
 6971TIP3    H142548   6.546   2.658   6.833 -0.0963 -0.1656 -2.2192
 6971TIP3    H242549   6.551   2.508   6.816 -0.8831 -0.5723  0.6705
 6972TIP3   OH242550   4.000   1.718   0.738  0.1411 -0.3533  0.0477
 6972TIP3    H142551   4.032   1.681   0.655  0.0483  0.3906 -0.3335
 6972TIP3    H242552   4.037   1.662   0.805  1.6893  0.0703 -0.4180
 6973TIP3   OH242553   3.002   2.323   1.915 -0.3247  0.0928  0.1425
 6973TIP3    H142554   2.993   2.228   1.908 -0.0142 -0.0842  1.8735
 6973TIP3    H242555   3.096   2.338   1.923 -0.4270  0.4708  0.7273
 6974TIP3   OH242556   3.120   6.210   8.522  0.0653  0.1221 -0.3070
 6974TIP3    H142557   3.100   6.214   8.429  2.9394 -0.3848 -1.0577
 6974TIP3    H242558   3.142   6.300   8.546 -2.0125  0.5239  0.3117
 6975TIP3   OH242559   0.728   1.275   7.918  0.0936 -0.3211 -0.9369
 6975TIP3    H142560   0.823   1.281   7.932 -0.2268  2.7989  0.8465
 6975TIP3    H242561   0.699   1.366   7.914 -3.2294 -1.0555  1.9065
 6976TIP3   OH242562   1.235   0.471   1.933  0.2050  0.8819 -0.0610
 6976TIP3    H142563   1.140   0.461   1.925 -0.0083  1.1174  1.7013
 6976TIP3    H242564   1.252   0.458   2.026  1.6944  2.4512 -0.0716
 6977TIP3   OH242565   1.065   4.377   2.839 -0.4618  0.0127 -0.1939
 6977TIP3    H142566   1.057   4.295   2.888 -1.1882  1.2068  1.8037
 6977TIP3    H242567   1.099   4.440   2.903 -0.8288  1.5143 -1.4115
 6978TIP3   OH242568   3.874   2.809   7.580 -0.2865  0.5755  0.6012
 6978TIP3    H142569   3.837   2.897   7.566 -0.1932  0.5131 -0.0920
 6978TIP3    H242570   3.856   2.763   7.498  1.4790  0.6076  0.1555
 6979TIP3   OH242571   0.531   1.174   0.733  0.8536 -0.5735 -0.6557
 6979TIP3    H142572   0.582   1.099   0.766  0.3692 -1.3723 -1.6771
 6979TIP3    H242573   0.465   1.135   0.677  0.0134  0.5728 -0.4941
 6980TIP3   OH242574   1.101   6.391   0.682  0.2601  0.1509  0.0824
 6980TIP3    H142575   1.059   6.306   0.677  1.1249 -0.3479  1.0178
 6980TIP3    H242576   1.037   6.452   0.643  0.2329 -1.0927 -1.9686
 6981TIP3   OH242577   4.854   3.981   6.927 -0.7718 -0.1462  0.4549
 6981TIP3    H142578   4.947   3.996   6.911 -0.2482 -1.3169  2.1000
 6981TIP3    H242579   4.835   3.898   6.882 -0.0012 -1.9334  3.1934
 6982TIP3   OH242580   1.308   0.705   0.896 -0.4328 -0.0873 -0.1506
 6982TIP3    H142581   1.325   0.616   0.866  0.2352 -0.1270  0.3084
 6982TIP3    H242582   1.236   0.697   0.957 -1.2430 -0.1210 -1.0893
 6983TIP3   OH242583   2.858   6.726   1.553 -0.8053 -0.3969  0.2389
 6983TIP3    H142584   2.927   6.709   1.617  0.9831  1.3464 -1.0744
 6983TIP3    H242585   2.902   6.719   1.468 -2.1480  1.0239 -0.6467
 6984TIP3   OH242586   5.677   4.084   7.326 -0.0570 -0.3319  0.3451
 6984TIP3    H142587   5.681   4.170   7.367 -1.5630  0.5917 -1.2841
 6984TIP3    H242588   5.646   4.101   7.237 -0.1368 -2.5435 -0.1179
 6985TIP3   OH242589   5.099   1.850   8.780 -0.1668 -0.5158 -0.4468
 6985TIP3    H142590   5.023   1.904   8.759 -0.6709 -1.3178 -0.7363
 6985TIP3    H242591   5.068   1.792   8.850  0.7187  0.3524  0.6971
 6986TIP3   OH242592   4.930   2.330   8.760  0.3966 -0.2766 -0.2357
 6986TIP3    H142593   4.887   2.348   8.677 -0.1716 -1.9888 -0.3474
 6986TIP3    H242594   4.941   2.235   8.761 -0.3434 -0.3863  1.9987
 6987TIP3   OH242595   3.331   0.372   8.373 -0.2036 -0.3602 -0.7663
 6987TIP3    H142596   3.305   0.464   8.366  1.8594  0.2297 -1.1993
 6987TIP3    H242597   3.295   0.332   8.293 -0.1990  0.2984 -1.1060
 6988TIP3   OH242598   0.654   2.961   1.423 -0.2096 -0.4492 -0.2339
 6988TIP3    H142599   0.702   3.014   1.487  2.2198  0.5183 -2.6860
 6988TIP3    H242600   0.656   3.012   1.343 -1.9687 -2.2050 -1.4917
 6989TIP3   OH242601   1.978   3.053   7.425 -0.0443  0.1061 -0.0647
 6989TIP3    H142602   2.021   2.973   7.395  0.8231  0.5519 -0.0736
 6989TIP3    H242603   1.960   3.038   7.518  0.9455  0.2164  0.1673
 6990TIP3   OH242604   2.620   0.274   6.721 -0.0140  0.1736 -0.1393
 6990TIP3    H142605   2.546   0.321   6.760 -0.6305 -0.9359  0.0686
 6990TIP3    H242606   2.684   0.267   6.792  0.3923  1.3211 -0.3796
 6991TIP3   OH242607   6.579   6.826   0.780  0.4424 -0.6359  0.4119
 6991TIP3    H142608   6.514   6.836   0.849 -1.6662 -0.7527 -1.4346
 6991TIP3    H242609   6.583   6.913   0.739  0.7516 -0.8705 -0.0602
 6992TIP3   OH242610   2.272   4.425   2.060  0.0650  0.3206  0.4704
 6992TIP3    H142611   2.292   4.393   2.148  0.2390 -0.9372 -0.0107
 6992TIP3    H242612   2.177   4.423   2.054  0.1108 -2.5681 -0.3977
 6993TIP3   OH242613   6.841   4.580   7.965  0.0244 -0.1945 -0.1137
 6993TIP3    H142614   6.823   4.655   7.909  0.6465  0.1444  0.1286
 6993TIP3    H242615   6.895   4.615   8.036  1.3792 -1.0956 -0.6503
 6994TIP3   OH242616   2.308   6.315   2.184 -0.1750 -0.5264  0.0221
 6994TIP3    H142617   2.242   6.308   2.116 -0.4453  0.4971  0.1593
 6994TIP3    H242618   2.330   6.408   2.187  1.4933 -0.8889 -0.2162
 6995TIP3   OH242619   0.241   6.546   8.638 -0.6232 -0.2424  0.1152
 6995TIP3    H142620   0.212   6.551   8.729 -0.3801 -1.9786  0.3237
 6995TIP3    H242621   0.178   6.600   8.590 -1.8780 -0.8175  1.0607
 6996TIP3   OH242622   0.718   6.683   7.822  0.0618  0.2414  0.3197
 6996TIP3    H142623   0.718   6.588   7.817  0.2738  0.1683  1.4556
 6996TIP3    H242624   0.751   6.712   7.737  0.8710 -0.7266  0.2846
 6997TIP3   OH242625   6.250   2.609   6.777  0.1947  0.7989 -0.2929
 6997TIP3    H142626   6.297   2.529   6.753 -0.2540  1.0866 -2.2679
 6997TIP3    H242627   6.304   2.680   6.744 -0.2765  1.2352 -0.1420
 6998TIP3   OH242628   3.507   6.685   6.562 -0.4691 -0.1273 -0.2402
 6998TIP3    H142629   3.482   6.687   6.470 -0.3079  1.2801 -0.2686
 6998TIP3    H242630   3.441   6.739   6.606  1.0958  1.6379  0.0292
 6999TIP3   OH242631   2.587   2.235   0.688 -0.0547 -0.3657 -0.0798
 6999TIP3    H142632   2.548   2.322   0.680  0.0445 -0.4522 -1.6943
 6999TIP3    H242633   2.598   2.223   0.783 -0.6860  1.0897  0.2091
 7000TIP3   OH242634   2.375   6.079   8.045 -0.4011  0.9756 -0.3688
 7000TIP3    H142635   2.368   5.987   8.070  2.1262  0.4818 -1.1511
 7000TIP3    H242636   2.404   6.077   7.954 -1.1543  2.5864 -0.6733
 7001TIP3   OH242637   1.624   4.729   0.782  0.3444  0.4835  0.2119
 7001TIP3    H142638   1.649   4.718   0.690 -1.2850  1.0205 -0.3254
 7001TIP3    H242639   1.571   4.652   0.802  1.0338  0.1590  0.8518
 7002TIP3   OH242640   4.656   2.857   7.446  0.3240  0.4783  0.4180
 7002TIP3    H142641   4.751   2.868   7.450  0.6857 -0.7529 -2.4361
 7002TIP3    H242642   4.640   2.769   7.480  0.1376  0.7919  1.1693
 7003TIP3   OH242643   6.464   4.139   0.957  0.2562  0.6190 -0.1941
 7003TIP3    H142644   6.536   4.159   0.897 -1.1417 -1.5802 -2.8130
 7003TIP3    H242645   6.470   4.045   0.971 -2.1023  0.3429 -0.5603
 7004TIP3   OH242646   4.382   6.242   0.818 -0.1092  1.1195 -0.2555
 7004TIP3    H142647   4.289   6.244   0.798 -0.4635 -0.8602  0.9426
 7004TIP3    H242648   4.396   6.315   0.877 -1.1334  0.7798  0.4216
 7005TIP3   OH242649   4.347   5.627   7.592  0.2825  0.0150 -0.0205
 7005TIP3    H142650   4.405   5.626   7.515 -1.1434  2.3112 -1.2430
 7005TIP3    H242651   4.368   5.709   7.637 -0.1982 -0.4085  1.0192
 7006TIP3   OH242652   0.849   5.991   6.253 -0.0114 -0.4794  0.1895
 7006TIP3    H142653   0.845   6.086   6.242 -0.0693 -0.3739  1.0163
 7006TIP3    H242654   0.799   5.974   6.333 -0.2564 -1.2402 -0.1192
 7007TIP3   OH242655   0.450   1.436   8.407 -0.1407  0.2941 -0.0904
 7007TIP3    H142656   0.386   1.503   8.381  0.3748  0.5258 -0.8050
 7007TIP3    H242657   0.469   1.455   8.499 -0.0090  1.1339 -0.2821
 7008TIP3   OH242658   4.987   0.562   1.422 -0.1135  0.6292 -0.1156
 7008TIP3    H142659   4.978   0.518   1.507 -0.9945  0.0744 -0.4845
 7008TIP3    H242660   5.081   0.572   1.411  0.1068 -0.7813  0.1934
 7009TIP3   OH242661   2.798   4.152   1.006 -0.5949  0.2132  0.4697
 7009TIP3    H142662   2.826   4.082   1.064 -1.0750  1.6330  2.5075
 7009TIP3    H242663   2.808   4.116   0.918 -0.1642 -2.1340  1.4231
 7010TIP3   OH242664   4.871   4.864   0.410  0.0138 -0.1344  0.3496
 7010TIP3    H142665   4.862   4.930   0.341 -0.1899 -1.1983 -0.6772
 7010TIP3    H242666   4.795   4.807   0.398  0.5251 -0.9236  0.8089
 7011TIP3   OH242667   2.306   2.766   1.587 -0.3901 -0.0199  0.1270
 7011TIP3    H142668   2.238   2.814   1.635 -1.0590  0.8343 -1.6050
 7011TIP3    H242669   2.373   2.748   1.653  0.1824  3.8023  0.8494
 7012TIP3   OH242670   0.981   0.812   2.311  0.2765  0.2910  0.1204
 7012TIP3    H142671   1.040   0.742   2.284 -2.6220 -1.0557 -3.5306
 7012TIP3    H242672   0.905   0.767   2.348 -1.2972  1.3813 -1.5624
 7013TIP3   OH242673   4.406   6.682   7.787  0.2887  0.2695  0.1560
 7013TIP3    H142674   4.315   6.694   7.814  0.7099 -1.1653  2.4580
 7013TIP3    H242675   4.448   6.765   7.810 -0.5953  1.3922 -1.9995
 7014TIP3   OH242676   4.963   2.187   6.688  0.0206  0.0366  0.0729
 7014TIP3    H142677   4.931   2.097   6.688 -1.0721  0.4041 -0.7104
 7014TIP3    H242678   5.058   2.179   6.701 -0.2681 -1.1158  1.8350
 7015TIP3   OH242679   3.912   4.422   8.703 -0.1800 -0.2168  0.4196
 7015TIP3    H142680   3.845   4.354   8.699  0.0193 -0.3681 -0.4125
 7015TIP3    H242681   3.952   4.412   8.789 -1.9951  0.6090  1.4363
 7016TIP3   OH242682   3.171   0.057   1.544  0.4548  0.1221  0.2000
 7016TIP3    H142683   3.134   0.017   1.623 -0.2917  0.1692 -0.1143
 7016TIP3    H242684   3.130   0.143   1.539 -0.9932 -0.5729 -1.2292
 7017TIP3   OH242685   4.043   0.335   1.515  0.3753  0.1890  0.0598
 7017TIP3    H142686   4.096   0.285   1.577 -0.4730  0.6317  1.1648
 7017TIP3    H242687   3.955   0.298   1.523  0.5596 -0.9495 -2.1894
 7018TIP3   OH242688   6.164   1.247   7.751 -0.4513  0.3447  0.4737
 7018TIP3    H142689   6.199   1.160   7.731 -0.3495  0.6998 -1.0214
 7018TIP3    H242690   6.234   1.291   7.799 -0.0651 -0.0286  0.2619
 7019TIP3   OH242691   4.889   5.515   7.245  0.0816  0.1337  0.0872
 7019TIP3    H142692   4.961   5.458   7.217  0.7666  0.5147  1.0529
 7019TIP3    H242693   4.825   5.455   7.284 -0.4723 -0.2931 -1.3711
 7020TIP3   OH242694   5.617   3.266   6.077  0.1064  0.4971 -0.0775
 7020TIP3    H142695   5.679   3.339   6.074 -0.5499  1.0490 -2.7222
 7020TIP3    H242696   5.547   3.298   6.135  1.0146  0.9146  0.8205
 7021TIP3   OH242697   0.876   4.996   0.143  0.3222 -0.6665  0.1071
 7021TIP3    H142698   0.837   5.007   0.230  1.3589  2.4540  0.3104
 7021TIP3    H242699   0.802   4.977   0.086 -1.1011  1.5729  1.0372
 7022TIP3   OH242700   6.135   6.287   0.736  0.5126 -0.2939 -0.1752
 7022TIP3    H142701   6.126   6.193   0.721 -2.2519 -0.1961  0.3768
 7022TIP3    H242702   6.045   6.320   0.739  1.3869  2.3501 -0.1016
 7023TIP3   OH242703   5.446   1.108   6.105  0.1094  0.3159 -0.0876
 7023TIP3    H142704   5.441   1.187   6.159  0.9054  0.8305 -0.7294
 7023TIP3    H242705   5.363   1.104   6.059  0.4206  1.3312 -0.7652
 7024TIP3   OH242706   2.870   5.997   6.938  0.2223 -0.4201  0.0303
 7024TIP3    H142707   2.958   6.026   6.960  0.6044 -0.2301 -1.5792
 7024TIP3    H242708   2.850   6.043   6.856 -1.4900 -0.2292  0.5189
 7025TIP3   OH242709   6.283   4.200   1.345  0.3707 -0.1399 -0.1766
 7025TIP3    H142710   6.242   4.249   1.416  0.3324 -3.1261  2.0532
 7025TIP3    H242711   6.366   4.246   1.328  0.4640  0.5505  1.9550
 7026TIP3   OH242712   6.033   2.543   7.445  0.0159 -0.3859  0.2883
 7026TIP3    H142713   6.073   2.603   7.382  0.0078  0.0808  0.7258
 7026TIP3    H242714   6.105   2.516   7.502 -0.3863  1.0585  1.5613
 7027TIP3   OH242715   2.442   3.294   7.298 -0.0073  0.6675  0.1361
 7027TIP3    H142716   2.508   3.244   7.346  0.7224  1.8791  0.4316
 7027TIP3    H242717   2.491   3.346   7.235 -0.6750  1.4685  0.2518
 7028TIP3   OH242718   5.456   5.037   0.357  0.0074 -0.1988 -0.5008
 7028TIP3    H142719   5.364   5.026   0.380 -0.3706  0.8076 -1.4536
 7028TIP3    H242720   5.463   5.007   0.267 -0.2301  3.1694 -1.7618
 7029TIP3   OH242721   1.550   3.394   8.117 -0.4353  0.1251 -0.5694
 7029TIP3    H142722   1.494   3.472   8.119 -0.7678 -0.0925 -1.1626
 7029TIP3    H242723   1.620   3.417   8.056 -0.2928  0.1152 -0.4114
 7030TIP3   OH242724   5.920   3.929   6.769  0.0745  0.4740  0.1567
 7030TIP3    H142725   5.901   3.892   6.683 -0.2477  0.5001  0.2152
 7030TIP3    H242726   5.924   4.024   6.754  2.8720  0.3506 -0.3821
 7031TIP3   OH242727   2.992   6.299   0.505  0.5037  0.0571 -0.5244
 7031TIP3    H142728   3.075   6.262   0.474  0.7765  0.1783  0.0424
 7031TIP3    H242729   3.003   6.393   0.497  0.2979  0.0647 -0.7433
 7032TIP3   OH242730   3.759   1.917   6.542  0.9585 -0.2802  0.7664
 7032TIP3    H142731   3.848   1.894   6.515  1.5269  0.9048  1.5884
 7032TIP3    H242732   3.711   1.925   6.459  2.6151  3.0294 -0.0411
 7033TIP3   OH242733   6.549   5.740   8.133  0.4413 -0.8588  0.0381
 7033TIP3    H142734   6.643   5.737   8.116  0.1652  0.5659 -2.0914
 7033TIP3    H242735   6.509   5.756   8.047 -1.6716 -0.3628  1.0438
 7034TIP3   OH242736   5.924   5.213   7.948  0.3055  0.2222  0.3849
 7034TIP3    H142737   5.947   5.120   7.944  0.1630  0.1712  0.6854
 7034TIP3    H242738   5.888   5.232   7.862 -0.5127 -0.2323  0.6166
 7035TIP3   OH242739   2.388   0.099   1.180  0.5038 -0.0592 -0.0515
 7035TIP3    H142740   2.467   0.123   1.227  0.2899  1.0592 -0.2290
 7035TIP3    H242741   2.330   0.174   1.190  0.4749  0.2707 -2.1338
 7036TIP3   OH242742   1.923   2.338   1.139 -0.3572 -0.9318 -0.4865
 7036TIP3    H142743   1.864   2.345   1.214  0.2649  0.5243 -0.0924
 7036TIP3    H242744   1.868   2.304   1.068 -1.0448 -1.9528  0.5140
 7037TIP3   OH242745   4.930   2.464   1.502 -0.4167 -0.3054 -0.3430
 7037TIP3    H142746   4.911   2.543   1.450  1.3327  0.4542  0.0776
 7037TIP3    H242747   4.880   2.476   1.582 -1.4410 -0.4345 -0.9451
 7038TIP3   OH242748   5.627   2.052   1.933  0.1783 -0.2228 -0.0617
 7038TIP3    H142749   5.702   2.012   1.977 -0.0314 -0.2074  0.3102
 7038TIP3    H242750   5.578   2.096   2.003  0.1217  0.2395 -0.3886
 7039TIP3   OH242751   4.117   5.373   0.974  0.6452  0.1620  0.3861
 7039TIP3    H142752   4.143   5.440   0.911  1.2313  0.7882  1.2752
 7039TIP3    H242753   4.185   5.306   0.968  1.1490  0.6151  0.9313
 7040TIP3   OH242754   2.735   6.519   6.441 -0.1756  0.0159  0.6895
 7040TIP3    H142755   2.719   6.442   6.496  0.8474 -1.6205 -1.1690
 7040TIP3    H242756   2.648   6.547   6.412 -0.5046 -1.3463  0.2811
 7041TIP3   OH242757   4.045   3.359   0.683 -0.3033 -0.4096 -0.6556
 7041TIP3    H142758   4.052   3.317   0.598 -1.3032  0.7150 -1.3134
 7041TIP3    H242759   4.116   3.424   0.684 -1.3771  0.8133 -1.3800
 7042TIP3   OH242760   4.753   3.057   0.659  0.1811 -0.1947 -0.2947
 7042TIP3    H142761   4.809   2.989   0.697 -0.8618 -1.0402 -0.2365
 7042TIP3    H242762   4.717   3.017   0.580  0.3481  0.6641 -0.8230
 7043TIP3   OH242763   0.641   5.546   8.253  0.4281 -0.2619  0.3512
 7043TIP3    H142764   0.725   5.593   8.245  1.2471 -1.6622  0.4008
 7043TIP3    H242765   0.587   5.582   8.182  1.6112 -0.3920 -0.6543
 7044TIP3   OH242766   2.691   3.057   0.505 -0.2489 -0.0288  0.3190
 7044TIP3    H142767   2.770   3.077   0.456  0.2265  1.9954  1.7457
 7044TIP3    H242768   2.640   3.138   0.501 -0.6990 -0.1763  2.1521
 7045TIP3   OH242769   0.396   2.870   0.255 -0.6969 -0.1424  0.4215
 7045TIP3    H142770   0.358   2.922   0.184  2.3928  3.2068  0.9295
 7045TIP3    H242771   0.347   2.896   0.333  0.1605  1.3238  0.4992
 7046TIP3   OH242772   3.004   3.031   7.092  0.3133  0.2489 -0.4604
 7046TIP3    H142773   3.084   2.998   7.052  1.0775  0.6250  0.7233
 7046TIP3    H242774   2.934   2.995   7.037  1.3091  1.3150 -2.5718
 7047TIP3   OH242775   1.716   4.621   1.085 -0.1596 -0.8038  0.1503
 7047TIP3    H142776   1.735   4.601   0.994 -0.2935  0.2014 -0.1007
 7047TIP3    H242777   1.637   4.570   1.105 -0.4051 -0.6491 -0.4296
 7048TIP3   OH242778   0.316   6.311   7.996 -0.3051 -0.2508  0.5397
 7048TIP3    H142779   0.325   6.348   7.908  0.4535 -0.0355  0.6922
 7048TIP3    H242780   0.406   6.290   8.021 -0.7019 -2.1018  0.5104
 7049TIP3   OH242781   5.980   1.095   1.686 -0.0662  0.5133 -0.3963
 7049TIP3    H142782   6.033   1.066   1.760 -0.6972  1.4112  0.4316
 7049TIP3    H242783   6.042   1.137   1.627  0.2802  0.7171  0.1122
 7050TIP3   OH242784   2.541   1.814   7.611  0.3691  0.1364 -0.8375
 7050TIP3    H142785   2.571   1.767   7.533  1.8619 -0.1240 -0.1351
 7050TIP3    H242786   2.539   1.748   7.680 -2.6897 -0.0649 -0.9677
 7051TIP3   OH242787   0.102   1.550   7.981  0.2863 -0.1780 -0.1255
 7051TIP3    H142788   0.023   1.527   8.029  1.4165  0.1827  2.0587
 7051TIP3    H242789   0.110   1.645   7.991  2.1845 -0.4600  1.7882
 7052TIP3   OH242790   3.544   4.195   0.139  0.5718  0.1689 -0.4150
 7052TIP3    H142791   3.614   4.240   0.185 -0.8114  2.1503 -0.1123
 7052TIP3    H242792   3.475   4.261   0.129 -2.0913 -2.1480  1.0409
 7053TIP3   OH242793   4.361   6.369   0.306 -0.3594 -0.0368  0.2394
 7053TIP3    H142794   4.395   6.415   0.383 -0.1593 -0.0486  0.1598
 7053TIP3    H242795   4.318   6.291   0.342 -0.6992  0.2101  0.3735
 7054TIP3   OH242796   6.130   2.273   1.682  0.0668  0.0627  0.2659
 7054TIP3    H142797   6.076   2.352   1.677 -1.4085 -0.9758 -1.6828
 7054TIP3    H242798   6.094   2.224   1.755  0.6117  0.8997  1.1163
 7055TIP3   OH242799   1.300   5.035   2.603  0.1155  0.3812  0.0403
 7055TIP3    H142800   1.247   5.018   2.525  0.1392  0.5989 -0.0238
 7055TIP3    H242801   1.390   5.044   2.570  0.0029  1.4073 -0.0338
 7056TIP3   OH242802   2.491   6.435   6.784 -0.1243 -0.4882  0.2886
 7056TIP3    H142803   2.401   6.466   6.782 -0.7212 -2.1739 -0.7581
 7056TIP3    H242804   2.496   6.368   6.716  2.2456  0.3923 -0.5435
 7057TIP3   OH242805   3.287   3.672   7.340 -0.4783  0.1699 -0.1397
 7057TIP3    H142806   3.259   3.706   7.425 -0.8387  1.2391 -0.6747
 7057TIP3    H242807   3.258   3.581   7.340  0.0847 -0.0345  1.1287
 7058TIP3   OH242808   1.188   0.165   8.047 -0.1397 -0.3334 -0.3804
 7058TIP3    H142809   1.261   0.227   8.045  0.0837 -0.6045 -0.7847
 7058TIP3    H242810   1.196   0.121   8.131 -0.7653  0.7304  0.2593
 7059TIP3   OH242811   6.089   3.589   2.233  0.0538 -0.2103 -0.6351
 7059TIP3    H142812   6.059   3.665   2.184 -0.2693 -0.3456 -0.6437
 7059TIP3    H242813   6.015   3.529   2.234 -0.0961 -0.0382  0.3713
 7060TIP3   OH242814   6.529   1.358   1.050  0.3673  0.1710 -0.2883
 7060TIP3    H142815   6.566   1.412   1.120 -3.1200  0.6365  1.4230
 7060TIP3    H242816   6.533   1.269   1.084  0.2591  0.1772 -0.2587
 7061TIP3   OH242817   3.165   4.404   6.966 -0.3393  1.0586  0.4986
 7061TIP3    H142818   3.229   4.473   6.986  1.6641  0.3167 -2.6102
 7061TIP3    H242819   3.134   4.426   6.878  0.0019 -1.6524 -0.4028
 7062TIP3   OH242820   5.579   6.087   8.431  0.3727  0.2591 -0.0620
 7062TIP3    H142821   5.556   6.013   8.487  1.0272  0.8556  1.0284
 7062TIP3    H242822   5.534   6.070   8.348  1.7801 -2.1944 -0.4230
 7063TIP3   OH242823   1.216   0.982   0.094  0.2626 -0.4242  0.1294
 7063TIP3    H142824   1.244   0.903   0.140 -0.6572 -1.0800 -0.3949
 7063TIP3    H242825   1.194   0.951   0.006  1.0320  0.6307 -0.4472
 7064TIP3   OH242826   1.509   6.677   7.764  0.0325 -0.0012  0.7107
 7064TIP3    H142827   1.434   6.667   7.824  0.4456 -0.5218  1.1543
 7064TIP3    H242828   1.586   6.668   7.821  0.4341 -0.4733  0.1025
 7065TIP3   OH242829   2.124   2.924   1.389 -0.5823 -0.0938 -0.7688
 7065TIP3    H142830   2.190   2.862   1.420  0.0612  1.1679  0.5218
 7065TIP3    H242831   2.162   2.963   1.311 -0.0390  0.2232 -0.3504
 7066TIP3   OH242832   3.180   3.723   0.304  0.5748 -0.0954 -0.1738
 7066TIP3    H142833   3.224   3.793   0.351  2.8878 -1.1459 -0.6296
 7066TIP3    H242834   3.192   3.745   0.211 -0.2558 -0.1916 -0.3147
 7067TIP3   OH242835   6.165   2.974   7.139 -0.1936 -0.7407  0.4610
 7067TIP3    H142836   6.119   2.978   7.055  1.6748  0.2204 -0.5710
 7067TIP3    H242837   6.196   3.063   7.154 -0.6386 -0.8547  2.2961
 7068TIP3   OH242838   1.904   1.758   1.751  0.1350 -0.0386 -0.2369
 7068TIP3    H142839   1.958   1.837   1.760 -0.9191  0.5485  1.5447
 7068TIP3    H242840   1.929   1.704   1.827 -0.4098 -0.6142 -0.4607
 7069TIP3   OH242841   0.721   6.562   6.324 -0.0696 -0.3357 -0.0824
 7069TIP3    H142842   0.694   6.627   6.259  0.9390 -0.1254 -0.3054
 7069TIP3    H242843   0.661   6.575   6.397 -0.3151  0.3779 -0.4021
 7070TIP3   OH242844   2.478   0.776   7.760  0.0373  0.3977 -0.1489
 7070TIP3    H142845   2.414   0.769   7.831 -0.5942  1.3239 -0.6027
 7070TIP3    H242846   2.559   0.742   7.797 -0.5428 -0.1355  0.6705
 7071TIP3   OH242847   4.064   4.480   0.517  0.4212 -0.0195  0.6716
 7071TIP3    H142848   3.986   4.529   0.490  0.2787 -0.9030 -0.6371
 7071TIP3    H242849   4.113   4.467   0.435 -0.6956 -3.9972  0.4110
 7072TIP3   OH242850   0.329   1.953   1.870 -0.2873  0.2044 -0.1854
 7072TIP3    H142851   0.321   1.970   1.776  1.4666  0.7053 -0.2651
 7072TIP3    H242852   0.391   2.019   1.902  0.3778 -0.9590  1.0332
 7073TIP3   OH242853   5.035   1.605   1.580 -0.9341 -0.3935 -0.7054
 7073TIP3    H142854   4.958   1.652   1.611 -0.4700  0.3061 -0.5914
 7073TIP3    H242855   5.106   1.637   1.636 -0.5566 -1.0032 -0.8336
 7074TIP3   OH242856   3.709   1.539   8.785  0.3774  0.1026  0.1184
 7074TIP3    H142857   3.785   1.499   8.828 -0.0241  1.1052  1.8567
 7074TIP3    H242858   3.705   1.628   8.821 -1.0307  0.4023 -0.7156
 7075TIP3   OH242859   2.397   4.195   6.678 -0.4111  0.3531  0.4926
 7075TIP3    H142860   2.392   4.289   6.661  0.8167  0.2489 -0.5747
 7075TIP3    H242861   2.486   4.171   6.655 -0.8271 -1.1633  0.3533
 7076TIP3   OH242862   1.407   4.538   8.301  0.2004  0.4959  0.0996
 7076TIP3    H142863   1.501   4.553   8.300  0.2309  0.3494 -2.1171
 7076TIP3    H242864   1.395   4.452   8.259 -0.9579  0.8099 -0.2524
 7077TIP3   OH242865   6.727   4.562   1.966 -0.1269 -0.3988  0.5730
 7077TIP3    H142866   6.812   4.519   1.958 -0.0106 -0.1503  0.4898
 7077TIP3    H242867   6.727   4.600   2.054 -0.2989 -0.7138  0.7127
 7078TIP3   OH242868   1.078   3.896   0.922 -0.5448 -0.0193  0.4024
 7078TIP3    H142869   1.149   3.961   0.927 -0.5993 -0.0251  1.4243
 7078TIP3    H242870   1.040   3.896   1.010 -1.3234 -0.5704  0.0702
 7079TIP3   OH242871   3.193   4.866   7.937  0.8565  0.4695 -0.7376
 7079TIP3    H142872   3.252   4.940   7.956  0.4387  1.2649 -2.3245
 7079TIP3    H242873   3.112   4.908   7.907 -0.1301 -0.6316  0.3378
 7080TIP3   OH242874   1.247   2.125   6.833  0.3314 -0.0704  0.5835
 7080TIP3    H142875   1.258   2.196   6.770  0.7749  0.6515  1.4461
 7080TIP3    H242876   1.325   2.070   6.821 -0.2991 -0.7636 -0.4933
 7081TIP3   OH242877   2.746   5.522   8.080 -0.3865 -0.7389 -0.2565
 7081TIP3    H142878   2.683   5.457   8.110 -0.2131 -1.1097 -0.6885
 7081TIP3    H242879   2.776   5.565   8.160 -4.0157  2.1706 -0.2212
 7082TIP3   OH242880   5.369   2.934   6.781  0.5009 -0.6058 -0.6655
 7082TIP3    H142881   5.332   3.007   6.731  2.1185  0.3505 -0.5358
 7082TIP3    H242882   5.357   2.958   6.873  1.8192 -0.0657 -0.6228
 7083TIP3   OH242883   3.226   4.077   2.104  0.2424 -0.2130 -0.1538
 7083TIP3    H142884   3.307   4.113   2.140 -0.2250  1.9708 -1.1141
 7083TIP3    H242885   3.172   4.059   2.181  1.0307 -0.2048  0.4247
 7084TIP3   OH242886   1.995   6.757   2.373  0.5420  1.0129 -0.4473
 7084TIP3    H142887   2.036   6.777   2.289  0.3682  0.9912 -0.5367
 7084TIP3    H242888   1.902   6.752   2.354  0.3676  2.2923 -0.0071
 7085TIP3   OH242889   3.290   5.165   7.790 -0.6090 -0.1825 -0.3471
 7085TIP3    H142890   3.351   5.231   7.822 -0.3082  0.1933 -1.6258
 7085TIP3    H242891   3.346   5.096   7.755 -0.8007  1.0728 -3.4142
 7086TIP3   OH242892   6.240   3.458   0.891 -0.9176  0.4048 -0.2547
 7086TIP3    H142893   6.184   3.422   0.959  0.2420  1.7442  1.5163
 7086TIP3    H242894   6.299   3.387   0.868 -0.9577  0.0894  0.5775
 7087TIP3   OH242895   1.153   0.981   0.760  0.2561 -0.2517  0.3053
 7087TIP3    H142896   1.099   0.998   0.837  2.1827 -2.9201  2.4610
 7087TIP3    H242897   1.101   0.921   0.707 -0.9037  1.2529 -0.3358
 7088TIP3   OH242898   3.550   3.304   7.532  0.4354  0.1602  0.1515
 7088TIP3    H142899   3.541   3.370   7.600  2.0182 -0.6108  1.1675
 7088TIP3    H242900   3.640   3.312   7.502  0.7022 -1.5890  0.3844
 7089TIP3   OH242901   6.075   0.724   7.931  0.2370 -0.4855  0.0517
 7089TIP3    H142902   5.995   0.695   7.975 -2.2732  1.2016 -2.9771
 7089TIP3    H242903   6.091   0.812   7.966  1.0015 -0.8988  0.8076
 7090TIP3   OH242904   1.087   1.006   7.560 -0.4216  0.6227 -0.3585
 7090TIP3    H142905   1.179   1.004   7.588 -1.0357 -0.0814  1.8167
 7090TIP3    H242906   1.060   1.097   7.572 -0.2132  0.6791 -0.3178
 7091TIP3   OH242907   6.213   5.262   7.934 -0.3197  0.2417 -0.3891
 7091TIP3    H142908   6.189   5.212   8.012  0.4103 -0.4682 -0.6058
 7091TIP3    H242909   6.130   5.271   7.886 -0.4346 -0.9684 -0.4540
 7092TIP3   OH242910   2.301   0.994   8.174 -0.7801 -0.2183 -0.8381
 7092TIP3    H142911   2.233   0.970   8.111 -1.9458  3.3813 -1.1887
 7092TIP3    H242912   2.256   1.052   8.236  1.3467 -0.0954  0.6733
 7093TIP3   OH242913   6.157   3.153   7.778 -0.1730 -0.0302 -0.6337
 7093TIP3    H142914   6.235   3.140   7.725  0.3399  0.2004  0.0450
 7093TIP3    H242915   6.181   3.120   7.865 -1.9565 -3.1522 -1.1853
 7094TIP3   OH242916   1.068   1.262   2.477 -0.4104  0.1207  0.6479
 7094TIP3    H142917   0.994   1.311   2.512  1.0613  2.2166  1.0670
 7094TIP3    H242918   1.119   1.238   2.555 -0.2711 -0.6375  0.3271
 7095TIP3   OH242919   4.608   0.977   1.101  0.1563 -0.5557  0.5171
 7095TIP3    H142920   4.603   0.943   1.191  1.7798 -1.3969  0.3334
 7095TIP3    H242921   4.632   0.901   1.048 -2.6103 -0.4964 -0.9676
 7096TIP3   OH242922   5.438   2.954   1.259 -0.3353 -0.0219 -0.1587
 7096TIP3    H142923   5.387   2.894   1.205 -3.0223  1.2690  0.7479
 7096TIP3    H242924   5.443   3.035   1.208  0.2095  0.0909  0.0622
 7097TIP3   OH242925   4.169   4.814   7.461 -0.2094 -0.0281  0.4087
 7097TIP3    H142926   4.224   4.885   7.495 -0.0663 -0.1722  0.4774
 7097TIP3    H242927   4.195   4.737   7.511  0.1428 -0.2889 -0.1604
 7098TIP3   OH242928   2.099   0.475   1.698  0.7717  0.2768  0.1848
 7098TIP3    H142929   2.194   0.470   1.703  0.6522 -1.0835  1.6479
 7098TIP3    H242930   2.078   0.561   1.735  1.4471  0.9651 -0.9673
 7099TIP3   OH242931   0.043   5.154   0.931  0.0712  0.1584 -0.2785
 7099TIP3    H142932   0.075   5.191   0.849 -1.1078  0.1100 -0.7883
 7099TIP3    H242933   0.024   5.231   0.985  1.1756  0.1828  0.0941
 7100TIP3   OH242934   4.048   2.027   0.552  0.2633 -0.0300 -0.6242
 7100TIP3    H142935   3.993   1.986   0.485 -1.4782  0.0488  0.6761
 7100TIP3    H242936   4.027   2.120   0.547  0.3922  0.0242 -0.1949
 7101TIP3   OH242937   1.869   3.255   0.919  0.0295  0.5379 -0.2269
 7101TIP3    H142938   1.857   3.341   0.879 -2.4228  0.4754  0.1743
 7101TIP3    H242939   1.876   3.195   0.845  0.1123  0.9061 -0.5222
 7102TIP3   OH242940   3.106   3.457   8.183  0.1612 -0.9212  0.6627
 7102TIP3    H142941   3.125   3.382   8.128 -0.3107 -0.8620  0.4166
 7102TIP3    H242942   3.070   3.419   8.263 -1.7360 -0.8982 -0.1378
 7103TIP3   OH242943   4.496   1.469   2.112 -0.4314  0.2674  0.2689
 7103TIP3    H142944   4.554   1.412   2.162 -2.2611 -1.4273  0.6054
 7103TIP3    H242945   4.524   1.558   2.134  0.2528 -0.4503  2.5799
 7104TIP3   OH242946   5.343   5.842   8.396  0.4803 -0.1367 -0.4189
 7104TIP3    H142947   5.258   5.809   8.425  1.3091 -1.9573  0.0516
 7104TIP3    H242948   5.322   5.908   8.330 -1.3146  0.3222  0.5590
 7105TIP3   OH242949   6.378   6.291   7.260  0.0561 -0.4024 -0.3831
 7105TIP3    H142950   6.437   6.286   7.185  0.7924  0.4304  0.1240
 7105TIP3    H242951   6.425   6.345   7.324 -0.6086 -0.9837  0.6270
 7106TIP3   OH242952   2.671   1.209   0.224  0.6883  0.2829 -0.4478
 7106TIP3    H142953   2.630   1.125   0.208  0.2190  0.2509  0.7671
 7106TIP3    H242954   2.764   1.196   0.202  0.7219 -0.7191  0.2416
 7107TIP3   OH242955   5.502   4.525   2.267 -0.0862  0.2824 -0.3427
 7107TIP3    H142956   5.587   4.500   2.303 -0.2857 -1.2006 -0.8156
 7107TIP3    H242957   5.472   4.597   2.323  0.7191 -0.3040  0.8890
 7108TIP3   OH242958   5.667   6.782   7.699 -0.4915 -0.4632 -0.3122
 7108TIP3    H142959   5.657   6.877   7.704  0.3029 -0.4332  1.6928
 7108TIP3    H242960   5.577   6.749   7.700 -0.8475  0.2597 -2.7654
 7109TIP3   OH242961   2.195   2.196   0.353  0.2751  0.0839 -0.6120
 7109TIP3    H142962   2.174   2.202   0.259 -0.2921 -0.3054 -0.5160
 7109TIP3    H242963   2.121   2.239   0.396  0.8088  0.7595 -0.3666
 7110TIP3   OH242964   0.978   2.433   0.294  0.5473 -0.2010  0.1493
 7110TIP3    H142965   0.915   2.387   0.239  1.9849 -0.5273 -1.2910
 7110TIP3    H242966   1.040   2.365   0.322  0.6613  0.2286  0.9611
 7111TIP3   OH242967   4.548   5.491   1.432  0.7854 -0.4236  0.0396
 7111TIP3    H142968   4.462   5.454   1.452 -0.7355  2.2527 -1.0748
 7111TIP3    H242969   4.590   5.499   1.518 -0.4993 -0.8079  0.7374
 7112TIP3   OH242970   3.596   1.862   0.372  0.1478  0.2296 -0.4380
 7112TIP3    H142971   3.617   1.849   0.280 -0.9525  0.3695 -0.7227
 7112TIP3    H242972   3.674   1.832   0.419  0.8747  0.5221 -1.4207
 7113TIP3   OH242973   0.686   1.282   0.515 -0.1111  0.1320 -0.3348
 7113TIP3    H142974   0.647   1.364   0.485 -1.7667 -1.0232 -1.5525
 7113TIP3    H242975   0.644   1.263   0.598 -0.9281 -0.2561 -0.8258
 7114TIP3   OH242976   2.748   1.627   0.532 -0.1137 -0.1055  0.0560
 7114TIP3    H142977   2.713   1.681   0.603  2.4807 -0.4190  1.7149
 7114TIP3    H242978   2.701   1.544   0.539 -0.6116  0.2249  0.7520
 7115TIP3   OH242979   3.363   5.016   8.108  0.1570 -0.2795 -0.2085
 7115TIP3    H142980   3.381   4.944   8.169  5.4583  1.1718  0.4053
 7115TIP3    H242981   3.337   5.089   8.164 -0.4807 -0.4046 -0.3325
 7116TIP3   OH242982   6.520   0.501   0.831  0.2530 -0.3765  0.5776
 7116TIP3    H142983   6.596   0.507   0.890  0.2617 -0.1764  0.5461
 7116TIP3    H242984   6.535   0.420   0.782 -0.2027 -1.0240  1.4817
 7117TIP3   OH242985   1.658   2.047   7.654 -0.2173 -0.4999 -0.1217
 7117TIP3    H142986   1.700   2.108   7.592  1.0712 -0.4083  0.7909
 7117TIP3    H242987   1.631   1.973   7.600  1.1050 -0.5351 -0.7858
 7118TIP3   OH242988   1.771   6.810   1.404  0.9409  0.0855  0.0171
 7118TIP3    H142989   1.718   6.780   1.478 -0.6005  1.3987 -0.5004
 7118TIP3    H242990   1.709   6.856   1.348  2.1249 -0.6915 -2.0050
 7119TIP3   OH242991   0.169   5.677   2.758  0.1692  0.7292  0.6384
 7119TIP3    H142992   0.204   5.588   2.750  0.4338  0.7317  1.6610
 7119TIP3    H242993   0.195   5.720   2.676 -0.8073 -0.4077 -0.2992
 7120TIP3   OH242994   2.210   0.992   6.777 -0.2553 -0.0206  0.2419
 7120TIP3    H142995   2.135   0.939   6.749  1.1000 -1.7167 -0.3695
 7120TIP3    H242996   2.213   1.065   6.715 -0.1673 -1.0996 -1.0760
 7121TIP3   OH242997   6.600   0.988   0.806  0.4356  0.1910 -0.6257
 7121TIP3    H142998   6.546   0.909   0.800  0.4566  0.2514 -1.7732
 7121TIP3    H242999   6.689   0.955   0.813  0.3917  0.1131 -0.4052
 7122TIP3   OH243000   4.108   5.018   1.741 -0.3086  0.3930 -0.0979
 7122TIP3    H143001   4.098   4.971   1.658  0.5089  1.4432 -0.8294
 7122TIP3    H243002   4.202   5.033   1.749 -0.4851  1.3298  0.4083
 7123TIP3   OH243003   3.127   3.552   7.115 -0.4317  0.4954 -0.3027
 7123TIP3    H143004   3.220   3.570   7.121 -0.6169  1.0101  2.9203
 7123TIP3    H243005   3.097   3.604   7.040  1.5290  2.0272 -0.1116
 7124TIP3   OH243006   4.092   4.344   0.757 -0.6847 -0.1014  0.0243
 7124TIP3    H143007   4.005   4.340   0.796 -1.5136  1.0870 -1.6222
 7124TIP3    H243008   4.081   4.394   0.676  0.8315 -2.9369 -2.1072
 7125TIP3   OH243009   3.213   6.046   1.530  0.2380  0.1368 -0.1926
 7125TIP3    H143010   3.279   6.029   1.462 -0.7465 -0.6947 -0.9754
 7125TIP3    H243011   3.129   6.037   1.485 -0.4430 -0.2338  1.0945
 7126TIP3   OH243012   6.597   6.368   8.331  0.3774 -0.2420 -0.4137
 7126TIP3    H143013   6.602   6.294   8.392  0.6672  0.6678  0.6923
 7126TIP3    H243014   6.677   6.361   8.278 -0.3747 -1.6329 -1.4208
 7127TIP3   OH243015   6.542   2.078   2.203 -0.1642  0.6049  0.7134
 7127TIP3    H143016   6.487   2.156   2.196  0.3504  0.7992 -3.0484
 7127TIP3    H243017   6.616   2.106   2.258 -0.5085  2.4394  0.3172
 7128TIP3   OH243018   2.590   4.463   1.035 -0.4249  0.0483  0.4087
 7128TIP3    H143019   2.516   4.438   1.090 -0.0103 -1.5054  0.2986
 7128TIP3    H243020   2.666   4.459   1.093  0.2716 -3.2533 -0.5567
 7129TIP3   OH243021   5.943   5.835   6.311  0.6022 -0.5286  0.3014
 7129TIP3    H143022   5.934   5.918   6.358  0.3413  0.8811 -2.0471
 7129TIP3    H243023   5.856   5.795   6.315  0.5643 -0.3809  0.9166
 7130TIP3   OH243024   4.668   2.905   0.441 -0.5562 -0.2998  0.2500
 7130TIP3    H143025   4.574   2.896   0.422 -0.6576 -0.5972  0.8707
 7130TIP3    H243026   4.700   2.815   0.449 -0.4414 -0.1980  1.0582
 7131TIP3   OH243027   5.331   5.167   0.040  0.1472  0.4551 -0.0088
 7131TIP3    H143028   5.321   5.183  -0.053  1.8963  2.4235  0.0700
 7131TIP3    H243029   5.394   5.095   0.045 -0.0341  0.2699 -0.3210
 7132TIP3   OH243030   6.625   5.808   0.192  0.0382 -0.3837  0.1799
 7132TIP3    H143031   6.642   5.864   0.268  1.8508 -0.6525  0.0220
 7132TIP3    H243032   6.613   5.869   0.120  0.0614 -0.1619  0.3610
 7133TIP3   OH243033   4.994   0.231   0.774  0.0056 -0.3279 -0.5268
 7133TIP3    H143034   4.905   0.265   0.781 -0.1528 -1.0252  2.5633
 7133TIP3    H243035   5.043   0.277   0.843  1.5513 -1.3017 -0.9091
 7134TIP3   OH243036   0.641   1.919   7.617 -0.2195  0.1278 -0.8741
 7134TIP3    H143037   0.569   1.902   7.556  0.1214  0.5682 -1.4003
 7134TIP3    H243038   0.710   1.957   7.563 -0.5835  2.2678  0.0838
 7135TIP3   OH243039   1.927   2.835   8.442  0.7924 -0.7670 -0.4739
 7135TIP3    H143040   1.860   2.816   8.508  2.2688  0.5369  1.5452
 7135TIP3    H243041   1.984   2.758   8.444 -0.7613 -2.0794 -2.5165
 7136TIP3   OH243042   5.560   1.731   7.205  0.1244 -0.0688 -0.0942
 7136TIP3    H143043   5.564   1.813   7.255 -1.4180 -0.3161  0.4674
 7136TIP3    H243044   5.467   1.719   7.186  0.4937 -0.9593 -1.4259
 7137TIP3   OH243045   1.434   0.228   2.182 -0.0447 -0.3820  0.1439
 7137TIP3    H143046   1.515   0.279   2.194 -0.0642 -0.1534 -0.6504
 7137TIP3    H243047   1.365   0.294   2.174 -0.0085 -0.4833 -1.3570
 7138TIP3   OH243048   6.801   3.178   1.613  0.5800  0.4920  0.2910
 7138TIP3    H143049   6.876   3.238   1.618  0.5794  0.5850 -0.5565
 7138TIP3    H243050   6.838   3.096   1.579  0.4902  0.1757  0.9490
 7139TIP3   OH243051   4.101   6.742   2.339 -0.0794 -0.6576  0.2683
 7139TIP3    H143052   4.134   6.830   2.325  2.2627 -1.3617  0.9706
 7139TIP3    H243053   4.100   6.731   2.435 -0.6305 -1.2896  0.2021
 7140TIP3   OH243054   3.469   6.493   7.992 -0.3414  0.2110  0.3956
 7140TIP3    H143055   3.418   6.535   7.924 -2.2988 -0.1908  1.5420
 7140TIP3    H243056   3.517   6.423   7.948  1.5534  2.3927 -1.2140
 7141TIP3   OH243057   1.109   1.412   1.374  0.0234  0.5003  0.1686
 7141TIP3    H143058   1.171   1.350   1.411  1.0136  0.8167 -0.9285
 7141TIP3    H243059   1.030   1.402   1.429  0.9392 -0.0604  1.4331
 7142TIP3   OH243060   0.164   4.691   8.158 -0.8360  0.1888  0.2886
 7142TIP3    H143061   0.129   4.780   8.156 -0.1385  0.4606 -0.4668
 7142TIP3    H243062   0.259   4.702   8.144 -1.0429 -0.8021 -2.5846
 7143TIP3   OH243063   4.825   1.394   0.863  0.4393 -0.2309  0.1929
 7143TIP3    H143064   4.916   1.373   0.884  0.0883 -0.4130  1.6260
 7143TIP3    H243065   4.775   1.365   0.939 -0.9222 -0.8385 -0.8871
 7144TIP3   OH243066   1.816   0.345   0.159 -0.3427 -0.0972 -0.1473
 7144TIP3    H143067   1.903   0.305   0.157  0.0475  0.7523 -0.3833
 7144TIP3    H243068   1.826   0.426   0.110 -1.6345 -0.7063 -1.4936
 7145TIP3   OH243069   0.700   0.528   0.838 -0.1408  0.0154 -0.5007
 7145TIP3    H143070   0.737   0.459   0.893 -0.2323  0.0885 -0.3446
 7145TIP3    H243071   0.704   0.607   0.893  1.3620  0.4720 -1.2159
 7146TIP3   OH243072   6.707   5.733   1.166 -0.0071 -0.0180 -0.4141
 7146TIP3    H143073   6.618   5.722   1.133 -1.1983  1.3206  2.0712
 7146TIP3    H243074   6.703   5.702   1.256  2.6098 -1.7918 -0.8119
 7147TIP3   OH243075   0.874   5.499   1.243 -0.6379 -0.0643  0.0759
 7147TIP3    H143076   0.816   5.576   1.239 -2.1971 -1.2233 -3.3482
 7147TIP3    H243077   0.838   5.446   1.314 -1.0208  1.2432  0.8932
 7148TIP3   OH243078   1.826   0.720   7.480 -0.0057  0.1834 -0.6642
 7148TIP3    H143079   1.789   0.808   7.480  2.1813  1.1809 -0.7392
 7148TIP3    H243080   1.915   0.732   7.514  0.2192 -2.0718 -0.3185
 7149TIP3   OH243081   2.410   1.210   6.862 -0.1982 -0.1047  0.0022
 7149TIP3    H143082   2.414   1.124   6.904  1.2505 -0.1979 -0.2476
 7149TIP3    H243083   2.349   1.199   6.789 -0.1876 -0.8691  0.1011
 7150TIP3   OH243084   5.273   2.780   1.091 -0.1085  0.0733  0.1522
 7150TIP3    H143085   5.279   2.686   1.078  1.0755  0.0906  0.5022
 7150TIP3    H243086   5.329   2.818   1.024  0.4112  0.4627  0.7904
 7151TIP3   OH243087   1.143   3.680   0.734 -0.6300  0.2758 -0.1349
 7151TIP3    H143088   1.105   3.742   0.796 -1.9503 -0.4876 -0.1460
 7151TIP3    H243089   1.198   3.623   0.788 -0.3267  0.7326  0.0461
 7152TIP3   OH243090   5.574   2.036   0.610 -0.1197 -0.3613 -0.1900
 7152TIP3    H143091   5.483   2.011   0.626 -0.1176 -0.0174  0.3514
 7152TIP3    H243092   5.605   1.971   0.546 -0.7960 -0.3648 -0.5203
 7153TIP3   OH243093   0.478   2.808   7.200  0.5629  0.1291  0.3305
 7153TIP3    H143094   0.551   2.804   7.137  0.6960  1.5185  0.3675
 7153TIP3    H243095   0.497   2.886   7.253 -0.4688 -0.0335  0.9502
 7154TIP3   OH243096   1.005   3.217   6.941 -0.8402 -0.4239  0.0967
 7154TIP3    H143097   1.001   3.312   6.929 -0.0032 -0.2284  1.2487
 7154TIP3    H243098   1.094   3.200   6.971 -0.6389 -1.7136 -1.1222
 7155TIP3   OH243099   4.235   1.065   0.925 -0.3063 -0.3770 -0.2314
 7155TIP3    H143100   4.281   1.117   0.990 -0.7795  0.8309 -0.8434
 7155TIP3    H243101   4.299   1.051   0.855 -0.8747  1.4711 -1.1741
 7156TIP3   OH243102   4.681   3.229   1.106  0.0885  0.0817 -0.3364
 7156TIP3    H143103   4.745   3.178   1.156  0.7857  0.5232 -0.7731
 7156TIP3    H243104   4.710   3.319   1.114 -0.7185  0.3388 -0.1994
 7157TIP3   OH243105   5.907   5.576   2.766 -0.5401 -0.1067  0.3843
 7157TIP3    H143106   5.948   5.626   2.837  0.9948 -1.2014  0.3167
 7157TIP3    H243107   5.861   5.505   2.810  0.3939 -0.7729  0.3198
 7158TIP3   OH243108   6.429   1.403   8.530 -0.2816 -0.2462  0.0707
 7158TIP3    H143109   6.476   1.330   8.571 -1.8587 -0.7238  1.0956
 7158TIP3    H243110   6.412   1.464   8.602  0.6804  1.0045 -0.7014
 7159TIP3   OH243111   0.695   3.144   1.634 -0.2028  0.6164 -0.2806
 7159TIP3    H143112   0.726   3.228   1.598 -1.1119  0.9512 -0.3089
 7159TIP3    H243113   0.734   3.139   1.721  0.7233  0.5566 -0.6836
 7160TIP3   OH243114   4.851   2.932   6.704  0.6467 -0.1965  0.0628
 7160TIP3    H143115   4.852   2.954   6.797  1.1281  0.1678 -0.0278
 7160TIP3    H243116   4.816   2.843   6.702 -0.4408  0.2053  0.4996
 7161TIP3   OH243117   1.517   5.621   0.720 -0.3205 -0.5518 -0.4143
 7161TIP3    H143118   1.489   5.585   0.804  1.8239 -2.1969 -0.3048
 7161TIP3    H243119   1.552   5.707   0.742 -1.6794 -0.0713  0.0000
 7162TIP3   OH243120   3.213   4.058   8.757  0.3885  0.0987 -0.2977
 7162TIP3    H143121   3.129   4.076   8.799  0.5033  0.4486 -0.2103
 7162TIP3    H243122   3.191   4.014   8.675  0.1372 -0.1198 -0.1137
 7163TIP3   OH243123   5.748   2.365   1.571  0.5826 -0.3947 -0.1917
 7163TIP3    H143124   5.758   2.277   1.605  2.3041  0.3275  1.3437
 7163TIP3    H243125   5.696   2.355   1.491 -0.8844 -2.5412  0.9611
 7164TIP3   OH243126   2.281   3.073   1.218 -0.7922  0.4971 -0.7015
 7164TIP3    H143127   2.304   3.110   1.133 -0.8972  3.0605  0.2923
 7164TIP3    H243128   2.222   3.138   1.258 -0.1462 -0.2416  1.6302
 7165TIP3   OH243129   2.859   1.062   0.508  0.0675 -0.9093  0.4183
 7165TIP3    H143130   2.790   0.997   0.493  1.0348 -1.5586 -1.5583
 7165TIP3    H243131   2.889   1.087   0.421 -0.8220  2.9230  1.0052
 7166TIP3   OH243132   5.260   2.251   2.285 -0.4754 -0.1907 -0.2459
 7166TIP3    H143133   5.179   2.241   2.335 -0.6993  0.2734 -0.4973
 7166TIP3    H243134   5.241   2.325   2.226  0.7729  1.1760  0.9863
 7167TIP3   OH243135   5.737   4.715   0.718 -0.2851  0.4191 -0.1484
 7167TIP3    H143136   5.682   4.719   0.640 -0.9601  1.2143  0.3394
 7167TIP3    H243137   5.702   4.784   0.775  1.2102  0.9304  0.2018
 7168TIP3   OH243138   4.260   2.580   2.050  0.1816 -0.3057  0.5522
 7168TIP3    H143139   4.196   2.639   2.090  0.3868  0.5045 -0.2728
 7168TIP3    H243140   4.247   2.497   2.095 -0.9450  0.0382  0.9047
 7169TIP3   OH243141   1.855   5.225   7.552 -0.1433 -0.2662 -0.1751
 7169TIP3    H143142   1.900   5.148   7.517  0.5631  0.4887 -0.9772
 7169TIP3    H243143   1.869   5.293   7.486  0.9844  1.1189  1.4093
 7170TIP3   OH243144   6.140   4.472   1.756  0.0227 -0.2598  0.3720
 7170TIP3    H143145   6.155   4.443   1.846 -0.2878 -0.1446  0.4626
 7170TIP3    H243146   6.179   4.559   1.751 -1.2899  0.3803  0.8379
 7171TIP3   OH243147   5.225   2.710   7.219  0.1086  0.4343  0.2364
 7171TIP3    H143148   5.130   2.709   7.206  0.0010 -0.3738  0.9741
 7171TIP3    H243149   5.254   2.622   7.196  0.5998  0.5110  0.5242
 7172TIP3   OH243150   6.106   2.350   6.917 -0.6630  0.2006 -0.6162
 7172TIP3    H143151   6.196   2.320   6.904 -0.9407 -0.7595 -0.4001
 7172TIP3    H243152   6.106   2.388   7.005  0.0557  2.3300 -1.4459
 7173TIP3   OH243153   3.451   2.817   7.078 -0.4927  0.1386 -0.0063
 7173TIP3    H143154   3.534   2.774   7.097 -1.3065 -1.9579 -0.9062
 7173TIP3    H243155   3.470   2.875   7.004  0.5639  1.2427  1.0711
 7174TIP3   OH243156   0.405   1.245   1.574 -0.9495 -0.2660 -0.0807
 7174TIP3    H143157   0.363   1.290   1.501 -1.0169  1.2373  0.8501
 7174TIP3    H243158   0.378   1.293   1.652  2.9447  1.3039  0.5578
 7175TIP3   OH243159   2.898   2.749   1.683 -0.3580 -0.0225 -0.4156
 7175TIP3    H143160   2.980   2.787   1.651 -0.8933  0.3166 -1.4317
 7175TIP3    H243161   2.848   2.729   1.604 -0.4116 -2.1864  0.1006
 7176TIP3   OH243162   0.158   1.244   8.723 -0.1291  0.0863  0.0561
 7176TIP3    H143163   0.072   1.222   8.759  0.2993 -1.2849  0.3083
 7176TIP3    H243164   0.140   1.265   8.631 -0.6198 -1.1740 -0.1533
 7177TIP3   OH243165   5.663   4.489   7.071 -0.2929 -0.2474  0.5808
 7177TIP3    H143166   5.595   4.491   7.139 -0.7257  1.4423  0.1345
 7177TIP3    H243167   5.659   4.575   7.030  1.7548 -0.3124  0.1553
 7178TIP3   OH243168   1.150   1.456   1.666  0.2313 -0.0439 -0.4816
 7178TIP3    H143169   1.240   1.434   1.692  0.1691 -0.1760 -0.3805
 7178TIP3    H243170   1.105   1.372   1.660 -1.0149  0.1274  3.4510
 7179TIP3   OH243171   4.245   0.402   7.201  0.3405 -0.1555 -0.7050
 7179TIP3    H143172   4.159   0.444   7.194  0.0946 -0.3444  0.7631
 7179TIP3    H243173   4.235   0.339   7.272  1.3404 -1.1219 -1.3939
 7180TIP3   OH243174   5.238   3.669   0.962  0.9417 -0.3822  0.5526
 7180TIP3    H143175   5.173   3.660   0.893 -1.0156 -3.6204  2.5390
 7180TIP3    H243176   5.321   3.685   0.916 -0.4250 -1.2782 -2.4181
 7181TIP3   OH243177   4.916   5.632   1.218  0.2295  0.3036  0.3261
 7181TIP3    H143178   4.913   5.546   1.177 -0.0359 -0.1431  1.2605
 7181TIP3    H243179   5.001   5.667   1.194  1.0579 -0.9322  1.3031
 7182TIP3   OH243180   4.658   3.295   8.636 -0.7484  0.2594 -0.1449
 7182TIP3    H143181   4.703   3.214   8.614 -1.0634 -0.3446  1.2921
 7182TIP3    H243182   4.694   3.320   8.721 -0.1636  2.0207 -0.8596
 7183LIG      O43183   1.918   1.786   7.687 -0.0450 -0.2232 -0.2233
 7183LIG     C143184   2.029   1.846   7.629  0.0356 -0.2694 -0.0362
 7183LIG     C243185   2.039   1.782   7.489  0.3374 -0.2591 -0.3044
 7183LIG     C343186   2.011   1.994   7.617  1.0699 -0.4423 -0.8748
 7183LIG     H143187   2.121   1.831   7.689  1.0424 -4.3726 -2.2586
 7183LIG     H243188   2.118   1.827   7.425 -0.1197 -0.4683 -1.0346
 7183LIG     H343189   1.944   1.801   7.435  0.4111 -1.8494 -1.0453
 7183LIG     H443190   2.061   1.673   7.498  3.1407  0.2370 -0.1629
 7183LIG     H543191   2.088   2.050   7.559 -0.8079  3.1110 -0.2526
 7183LIG     H643192   2.001   2.050   7.713  0.4772 -0.0492 -1.1566
 7183LIG     H743193   1.916   2.009   7.561 -0.7691 -1.5094  1.7517
 7183LIG     H843194   1.943   1.696   7.708  0.1365 -0.3100 -0.8061
   6.84708   6.84708   8.83752
